TITLE = "Visualization of the volumetric solution"
VARIABLES = "x","y","Density","Momentum_x","Momentum_y","Energy","Pressure","Temperature","Mach","C<sub>p</sub>","Roe_Dissipation"
ZONE NODES= 2364, ELEMENTS= 4524, DATAPACKING=POINT, ZONETYPE=FEQUADRILATERAL
-1.500000e-01	1.963462e-03	1.228371e+00	4.489361e+01	5.089150e-06	2.550860e+05	1.017063e+05	2.884353e+02	1.073450e-01	3.180683e-01	0.000000e+00	
-1.478836e-01	1.451775e-03	1.228371e+00	4.489360e+01	1.164259e-05	2.550860e+05	1.017063e+05	2.884353e+02	1.073450e-01	3.180605e-01	0.000000e+00	
-1.484334e-01	3.026602e-03	1.228371e+00	4.489362e+01	9.728843e-06	2.550860e+05	1.017063e+05	2.884353e+02	1.073450e-01	3.180626e-01	0.000000e+00	
-1.461478e-01	2.023344e-03	1.228371e+00	4.489361e+01	1.037309e-05	2.550860e+05	1.017062e+05	2.884353e+02	1.073450e-01	3.180572e-01	0.000000e+00	
-1.500000e-01	3.926923e-03	1.228371e+00	4.489362e+01	4.112672e-06	2.550860e+05	1.017063e+05	2.884353e+02	1.073450e-01	3.180681e-01	0.000000e+00	
-1.441570e-01	1.123039e-03	1.228371e+00	4.489359e+01	7.016575e-06	2.550860e+05	1.017062e+05	2.884353e+02	1.073450e-01	3.180517e-01	0.000000e+00	
-1.463116e-01	4.096790e-03	1.228371e+00	4.489363e+01	1.073378e-05	2.550860e+05	1.017062e+05	2.884353e+02	1.073451e-01	3.180575e-01	0.000000e+00	
-1.485406e-01	4.961598e-03	1.228371e+00	4.489362e+01	7.511475e-06	2.550860e+05	1.017063e+05	2.884353e+02	1.073450e-01	3.180623e-01	0.000000e+00	
-1.442488e-01	3.148938e-03	1.228371e+00	4.489362e+01	8.696695e-06	2.550860e+05	1.017062e+05	2.884353e+02	1.073451e-01	3.180522e-01	0.000000e+00	
-1.500000e-01	5.890385e-03	1.228371e+00	4.489362e+01	9.560203e-07	2.550860e+05	1.017063e+05	2.884353e+02	1.073450e-01	3.180679e-01	0.000000e+00	
-1.423632e-01	2.108638e-03	1.228371e+00	4.489361e+01	5.969296e-06	2.550860e+05	1.017062e+05	2.884353e+02	1.073450e-01	3.180474e-01	0.000000e+00	
-1.463638e-01	6.108693e-03	1.228371e+00	4.489363e+01	6.281733e-06	2.550860e+05	1.017062e+05	2.884353e+02	1.073451e-01	3.180576e-01	0.000000e+00	
-1.442916e-01	5.207404e-03	1.228371e+00	4.489364e+01	7.732884e-06	2.550860e+05	1.017062e+05	2.884353e+02	1.073451e-01	3.180522e-01	0.000000e+00	
-1.485635e-01	6.933678e-03	1.228371e+00	4.489362e+01	2.761874e-06	2.550860e+05	1.017063e+05	2.884353e+02	1.073450e-01	3.180623e-01	0.000000e+00	
-1.423681e-01	4.223747e-03	1.228371e+00	4.489364e+01	6.469080e-06	2.550860e+05	1.017062e+05	2.884353e+02	1.073451e-01	3.180475e-01	0.000000e+00	
-1.500000e-01	7.853846e-03	1.228371e+00	4.489362e+01	-2.818441e-07	2.550860e+05	1.017063e+05	2.884353e+02	1.073450e-01	3.180679e-01	0.000000e+00	
-1.405414e-01	3.193930e-03	1.228371e+00	4.489363e+01	5.546356e-06	2.550859e+05	1.017062e+05	2.884352e+02	1.073451e-01	3.180428e-01	0.000000e+00	
-1.406784e-01	1.461156e-03	1.228371e+00	4.489360e+01	4.215980e-06	2.550859e+05	1.017062e+05	2.884352e+02	1.073450e-01	3.180434e-01	0.000000e+00	
-1.443007e-01	7.232946e-03	1.228371e+00	4.489364e+01	4.020431e-06	2.550860e+05	1.017062e+05	2.884353e+02	1.073451e-01	3.180522e-01	0.000000e+00	
-1.463743e-01	8.100138e-03	1.228371e+00	4.489363e+01	2.451366e-06	2.550860e+05	1.017062e+05	2.884353e+02	1.073451e-01	3.180575e-01	0.000000e+00	
-1.423677e-01	6.287958e-03	1.228371e+00	4.489364e+01	4.339007e-06	2.550860e+05	1.017062e+05	2.884353e+02	1.073451e-01	3.180475e-01	0.000000e+00	
-1.485681e-01	8.904366e-03	1.228371e+00	4.489362e+01	5.278528e-07	2.550860e+05	1.017063e+05	2.884353e+02	1.073450e-01	3.180623e-01	0.000000e+00	
-1.405572e-01	5.260574e-03	1.228371e+00	4.489365e+01	3.488380e-06	2.550859e+05	1.017062e+05	2.884352e+02	1.073451e-01	3.180427e-01	0.000000e+00	
-1.500000e-01	9.817308e-03	1.228371e+00	4.489362e+01	-3.189390e-07	2.550860e+05	1.017063e+05	2.884353e+02	1.073450e-01	3.180679e-01	0.000000e+00	
-1.388609e-01	4.088100e-03	1.228371e+00	4.489364e+01	1.142440e-06	2.550859e+05	1.017062e+05	2.884352e+02	1.073451e-01	3.180382e-01	0.000000e+00	
-1.388860e-01	2.151455e-03	1.228371e+00	4.489361e+01	3.953087e-06	2.550859e+05	1.017062e+05	2.884352e+02	1.073450e-01	3.180384e-01	0.000000e+00	
-1.442965e-01	9.228845e-03	1.228371e+00	4.489363e+01	7.458881e-07	2.550860e+05	1.017062e+05	2.884353e+02	1.073451e-01	3.180522e-01	0.000000e+00	
-1.423564e-01	8.315752e-03	1.228371e+00	4.489364e+01	1.118429e-06	2.550860e+05	1.017062e+05	2.884353e+02	1.073451e-01	3.180474e-01	0.000000e+00	
-1.463733e-01	1.007599e-02	1.228371e+00	4.489363e+01	1.353207e-07	2.550860e+05	1.017062e+05	2.884353e+02	1.073451e-01	3.180575e-01	0.000000e+00	
-1.405360e-01	7.336897e-03	1.228371e+00	4.489365e+01	6.346682e-07	2.550859e+05	1.017062e+05	2.884352e+02	1.073451e-01	3.180427e-01	0.000000e+00	
-1.485689e-01	1.087076e-02	1.228371e+00	4.489362e+01	-1.983156e-07	2.550860e+05	1.017063e+05	2.884353e+02	1.073450e-01	3.180623e-01	0.000000e+00	
-1.388080e-01	6.299373e-03	1.228371e+00	4.489365e+01	-1.568819e-06	2.550859e+05	1.017062e+05	2.884352e+02	1.073451e-01	3.180381e-01	0.000000e+00	
-1.500000e-01	1.178077e-02	1.228371e+00	4.489362e+01	-2.596109e-08	2.550860e+05	1.017063e+05	2.884353e+02	1.073450e-01	3.180679e-01	0.000000e+00	
-1.373019e-01	3.172699e-03	1.228371e+00	4.489364e+01	-1.761201e-06	2.550859e+05	1.017062e+05	2.884352e+02	1.073451e-01	3.180339e-01	0.000000e+00	
-1.371506e-01	5.268351e-03	1.228371e+00	4.489365e+01	-5.737037e-06	2.550859e+05	1.017062e+05	2.884352e+02	1.073451e-01	3.180337e-01	0.000000e+00	
-1.371637e-01	1.501761e-03	1.228371e+00	4.489361e+01	5.750479e-06	2.550859e+05	1.017062e+05	2.884352e+02	1.073450e-01	3.180334e-01	0.000000e+00	
-1.423444e-01	1.030870e-02	1.228371e+00	4.489363e+01	-1.128244e-06	2.550860e+05	1.017062e+05	2.884353e+02	1.073451e-01	3.180474e-01	0.000000e+00	
-1.442899e-01	1.120374e-02	1.228371e+00	4.489363e+01	-9.565412e-07	2.550860e+05	1.017062e+05	2.884353e+02	1.073451e-01	3.180522e-01	0.000000e+00	
-1.405151e-01	9.359827e-03	1.228371e+00	4.489364e+01	-1.576087e-06	2.550859e+05	1.017062e+05	2.884352e+02	1.073451e-01	3.180426e-01	0.000000e+00	
-1.463704e-01	1.204202e-02	1.228371e+00	4.489362e+01	-6.961100e-07	2.550860e+05	1.017062e+05	2.884353e+02	1.073450e-01	3.180575e-01	0.000000e+00	
-1.387691e-01	8.368637e-03	1.228371e+00	4.489365e+01	-2.997941e-06	2.550859e+05	1.017062e+05	2.884352e+02	1.073451e-01	3.180380e-01	0.000000e+00	
-1.485691e-01	1.283452e-02	1.228371e+00	4.489362e+01	-3.184331e-07	2.550860e+05	1.017063e+05	2.884353e+02	1.073450e-01	3.180623e-01	0.000000e+00	
-1.370768e-01	7.356310e-03	1.228371e+00	4.489365e+01	-6.451039e-06	2.550859e+05	1.017062e+05	2.884352e+02	1.073451e-01	3.180335e-01	0.000000e+00	
-1.500000e-01	1.374423e-02	1.228371e+00	4.489362e+01	1.230024e-07	2.550860e+05	1.017063e+05	2.884353e+02	1.073450e-01	3.180679e-01	0.000000e+00	
-1.355157e-01	4.246512e-03	1.228371e+00	4.489365e+01	-8.884649e-06	2.550859e+05	1.017062e+05	2.884352e+02	1.073451e-01	3.180293e-01	0.000000e+00	
-1.356633e-01	2.090697e-03	1.228371e+00	4.489363e+01	7.841767e-07	2.550859e+05	1.017062e+05	2.884352e+02	1.073451e-01	3.180295e-01	0.000000e+00	
-1.354125e-01	6.337723e-03	1.228371e+00	4.489366e+01	-1.129861e-05	2.550859e+05	1.017062e+05	2.884352e+02	1.073452e-01	3.180290e-01	0.000000e+00	
-1.423350e-01	1.227957e-02	1.228371e+00	4.489363e+01	-2.255003e-06	2.550860e+05	1.017062e+05	2.884353e+02	1.073451e-01	3.180474e-01	0.000000e+00	
-1.405004e-01	1.134525e-02	1.228371e+00	4.489363e+01	-2.876159e-06	2.550859e+05	1.017062e+05	2.884352e+02	1.073451e-01	3.180426e-01	0.000000e+00	
-1.442841e-01	1.316709e-02	1.228371e+00	4.489363e+01	-1.615516e-06	2.550860e+05	1.017062e+05	2.884353e+02	1.073451e-01	3.180522e-01	0.000000e+00	
-1.387451e-01	1.037579e-02	1.228371e+00	4.489364e+01	-3.867359e-06	2.550859e+05	1.017062e+05	2.884352e+02	1.073451e-01	3.180380e-01	0.000000e+00	
-1.463676e-01	1.400323e-02	1.228371e+00	4.489362e+01	-9.124981e-07	2.550860e+05	1.017062e+05	2.884353e+02	1.073450e-01	3.180575e-01	0.000000e+00	
-1.370372e-01	9.384578e-03	1.228371e+00	4.489364e+01	-6.028215e-06	2.550859e+05	1.017062e+05	2.884352e+02	1.073451e-01	3.180334e-01	0.000000e+00	
-1.485694e-01	1.479712e-02	1.228371e+00	4.489362e+01	-2.885960e-07	2.550860e+05	1.017063e+05	2.884353e+02	1.073450e-01	3.180623e-01	0.000000e+00	
-1.353542e-01	8.381416e-03	1.228371e+00	4.489365e+01	-1.016932e-05	2.550859e+05	1.017062e+05	2.884352e+02	1.073451e-01	3.180289e-01	0.000000e+00	
-1.340409e-01	1.142895e-03	1.228371e+00	4.489363e+01	4.840709e-06	2.550859e+05	1.017062e+05	2.884352e+02	1.073451e-01	3.180255e-01	0.000000e+00	
-1.500000e-01	1.570769e-02	1.228371e+00	4.489362e+01	1.656098e-07	2.550860e+05	1.017063e+05	2.884353e+02	1.073450e-01	3.180679e-01	0.000000e+00	
-1.337553e-01	5.305194e-03	1.228371e+00	4.489366e+01	-1.492916e-05	2.550859e+05	1.017062e+05	2.884352e+02	1.073452e-01	3.180246e-01	0.000000e+00	
-1.338699e-01	3.202235e-03	1.228371e+00	4.489365e+01	-7.601048e-06	2.550859e+05	1.017062e+05	2.884352e+02	1.073452e-01	3.180248e-01	0.000000e+00	
-1.336822e-01	7.366286e-03	1.228371e+00	4.489365e+01	-1.522553e-05	2.550859e+05	1.017062e+05	2.884352e+02	1.073452e-01	3.180245e-01	0.000000e+00	
-1.423276e-01	1.423968e-02	1.228371e+00	4.489363e+01	-2.600121e-06	2.550860e+05	1.017062e+05	2.884353e+02	1.073451e-01	3.180474e-01	0.000000e+00	
-1.404902e-01	1.331093e-02	1.228371e+00	4.489363e+01	-3.435758e-06	2.550859e+05	1.017062e+05	2.884352e+02	1.073451e-01	3.180426e-01	0.000000e+00	
-1.387306e-01	1.235111e-02	1.228371e+00	4.489364e+01	-4.254729e-06	2.550859e+05	1.017062e+05	2.884352e+02	1.073451e-01	3.180380e-01	0.000000e+00	
-1.442790e-01	1.512539e-02	1.228371e+00	4.489363e+01	-1.710026e-06	2.550860e+05	1.017062e+05	2.884353e+02	1.073451e-01	3.180522e-01	0.000000e+00	
-1.370158e-01	1.137213e-02	1.228371e+00	4.489364e+01	-5.525218e-06	2.550859e+05	1.017062e+05	2.884352e+02	1.073451e-01	3.180334e-01	0.000000e+00	
-1.463651e-01	1.596257e-02	1.228371e+00	4.489362e+01	-8.753683e-07	2.550860e+05	1.017062e+05	2.884353e+02	1.073450e-01	3.180575e-01	0.000000e+00	
-1.353234e-01	1.038211e-02	1.228371e+00	4.489364e+01	-8.006593e-06	2.550859e+05	1.017062e+05	2.884352e+02	1.073451e-01	3.180289e-01	0.000000e+00	
-1.485698e-01	1.675933e-02	1.228371e+00	4.489362e+01	-2.409810e-07	2.550860e+05	1.017063e+05	2.884353e+02	1.073450e-01	3.180623e-01	0.000000e+00	
-1.336412e-01	9.383164e-03	1.228371e+00	4.489365e+01	-1.219427e-05	2.550859e+05	1.017062e+05	2.884352e+02	1.073451e-01	3.180244e-01	0.000000e+00	
-1.321987e-01	2.095351e-03	1.228371e+00	4.489365e+01	-5.414337e-06	2.550859e+05	1.017062e+05	2.884352e+02	1.073452e-01	3.180204e-01	0.000000e+00	
-1.500000e-01	1.767115e-02	1.228371e+00	4.489362e+01	1.557557e-07	2.550860e+05	1.017063e+05	2.884353e+02	1.073450e-01	3.180679e-01	0.000000e+00	
-1.320137e-01	6.328796e-03	1.228371e+00	4.489366e+01	-1.957384e-05	2.550859e+05	1.017062e+05	2.884352e+02	1.073452e-01	3.180200e-01	0.000000e+00	
-1.320939e-01	4.243179e-03	1.228371e+00	4.489367e+01	-1.587724e-05	2.550859e+05	1.017062e+05	2.884352e+02	1.073452e-01	3.180202e-01	0.000000e+00	
-1.319636e-01	8.370798e-03	1.228371e+00	4.489365e+01	-1.749481e-05	2.550859e+05	1.017062e+05	2.884352e+02	1.073451e-01	3.180199e-01	0.000000e+00	
-1.404822e-01	1.526811e-02	1.228371e+00	4.489363e+01	-3.529325e-06	2.550859e+05	1.017062e+05	2.884352e+02	1.073451e-01	3.180426e-01	0.000000e+00	
-1.423211e-01	1.619555e-02	1.228371e+00	4.489363e+01	-2.537041e-06	2.550860e+05	1.017062e+05	2.884353e+02	1.073451e-01	3.180474e-01	0.000000e+00	
-1.387208e-01	1.431176e-02	1.228371e+00	4.489363e+01	-4.427096e-06	2.550859e+05	1.017062e+05	2.884352e+02	1.073451e-01	3.180380e-01	0.000000e+00	
-1.370032e-01	1.333826e-02	1.228371e+00	4.489364e+01	-5.303770e-06	2.550859e+05	1.017062e+05	2.884352e+02	1.073451e-01	3.180334e-01	0.000000e+00	
-1.442744e-01	1.708190e-02	1.228371e+00	4.489363e+01	-1.568037e-06	2.550860e+05	1.017062e+05	2.884353e+02	1.073451e-01	3.180522e-01	0.000000e+00	
-1.353066e-01	1.235552e-02	1.228371e+00	4.489364e+01	-6.624903e-06	2.550859e+05	1.017062e+05	2.884352e+02	1.073451e-01	3.180289e-01	0.000000e+00	
-1.463627e-01	1.792131e-02	1.228371e+00	4.489362e+01	-7.635618e-07	2.550860e+05	1.017062e+05	2.884353e+02	1.073450e-01	3.180575e-01	0.000000e+00	
-1.336192e-01	1.136681e-02	1.228371e+00	4.489364e+01	-9.056438e-06	2.550859e+05	1.017062e+05	2.884352e+02	1.073451e-01	3.180244e-01	0.000000e+00	
-1.485702e-01	1.872142e-02	1.228371e+00	4.489362e+01	-1.995289e-07	2.550860e+05	1.017063e+05	2.884353e+02	1.073450e-01	3.180623e-01	0.000000e+00	
-1.319357e-01	1.037112e-02	1.228371e+00	4.489364e+01	-1.302233e-05	2.550859e+05	1.017062e+05	2.884352e+02	1.073451e-01	3.180199e-01	0.000000e+00	
-1.308572e-01	1.429194e-03	1.228371e+00	4.489366e+01	-3.330048e-06	2.550859e+05	1.017062e+05	2.884352e+02	1.073452e-01	3.180170e-01	0.000000e+00	
-1.304303e-01	3.173585e-03	1.228371e+00	4.489367e+01	-1.383911e-05	2.550859e+05	1.017062e+05	2.884352e+02	1.073452e-01	3.180160e-01	0.000000e+00	
-1.500000e-01	1.963462e-02	1.228371e+00	4.489362e+01	1.266201e-07	2.550860e+05	1.017063e+05	2.884353e+02	1.073450e-01	3.180679e-01	0.000000e+00	
-1.303462e-01	5.249774e-03	1.228371e+00	4.489367e+01	-2.171461e-05	2.550859e+05	1.017062e+05	2.884352e+02	1.073452e-01	3.180156e-01	0.000000e+00	
-1.302882e-01	7.335124e-03	1.228371e+00	4.489365e+01	-2.266591e-05	2.550859e+05	1.017062e+05	2.884352e+02	1.073452e-01	3.180155e-01	0.000000e+00	
-1.302542e-01	9.364216e-03	1.228371e+00	4.489364e+01	-1.828110e-05	2.550859e+05	1.017062e+05	2.884352e+02	1.073451e-01	3.180154e-01	0.000000e+00	
-1.387128e-01	1.626674e-02	1.228371e+00	4.489363e+01	-4.313329e-06	2.550859e+05	1.017062e+05	2.884352e+02	1.073451e-01	3.180380e-01	0.000000e+00	
-1.404751e-01	1.722229e-02	1.228371e+00	4.489363e+01	-3.292874e-06	2.550859e+05	1.017062e+05	2.884352e+02	1.073451e-01	3.180426e-01	0.000000e+00	
-1.423151e-01	1.815007e-02	1.228371e+00	4.489363e+01	-2.251080e-06	2.550860e+05	1.017062e+05	2.884353e+02	1.073451e-01	3.180474e-01	0.000000e+00	
-1.369941e-01	1.529513e-02	1.228371e+00	4.489363e+01	-5.202904e-06	2.550859e+05	1.017062e+05	2.884352e+02	1.073451e-01	3.180334e-01	0.000000e+00	
-1.352961e-01	1.431546e-02	1.228371e+00	4.489364e+01	-6.035357e-06	2.550859e+05	1.017062e+05	2.884352e+02	1.073451e-01	3.180288e-01	0.000000e+00	
-1.442698e-01	1.903790e-02	1.228371e+00	4.489362e+01	-1.339788e-06	2.550860e+05	1.017062e+05	2.884353e+02	1.073451e-01	3.180522e-01	0.000000e+00	
-1.336064e-01	1.333164e-02	1.228371e+00	4.489364e+01	-7.213421e-06	2.550859e+05	1.017062e+05	2.884352e+02	1.073451e-01	3.180243e-01	0.000000e+00	
-1.463604e-01	1.987991e-02	1.228371e+00	4.489362e+01	-6.352838e-07	2.550860e+05	1.017062e+05	2.884353e+02	1.073450e-01	3.180575e-01	0.000000e+00	
-1.319201e-01	1.234441e-02	1.228371e+00	4.489364e+01	-9.351597e-06	2.550859e+05	1.017062e+05	2.884352e+02	1.073451e-01	3.180199e-01	0.000000e+00	
-1.485706e-01	2.068350e-02	1.228371e+00	4.489362e+01	-1.601786e-07	2.550860e+05	1.017063e+05	2.884353e+02	1.073450e-01	3.180623e-01	0.000000e+00	
-1.302352e-01	1.135235e-02	1.228371e+00	4.489364e+01	-1.284757e-05	2.550859e+05	1.017062e+05	2.884352e+02	1.073451e-01	3.180154e-01	0.000000e+00	
-1.287406e-01	2.075382e-03	1.228371e+00	4.489368e+01	-5.584944e-06	2.550859e+05	1.017062e+05	2.884352e+02	1.073452e-01	3.180116e-01	0.000000e+00	
-1.286807e-01	4.045868e-03	1.228371e+00	4.489369e+01	-2.027072e-05	2.550859e+05	1.017062e+05	2.884352e+02	1.073452e-01	3.180112e-01	0.000000e+00	
-1.500000e-01	2.159808e-02	1.228371e+00	4.489362e+01	1.008543e-07	2.550860e+05	1.017063e+05	2.884353e+02	1.073450e-01	3.180679e-01	0.000000e+00	
-1.286124e-01	6.263213e-03	1.228371e+00	4.489367e+01	-2.665617e-05	2.550859e+05	1.017062e+05	2.884352e+02	1.073452e-01	3.180111e-01	0.000000e+00	
-1.285729e-01	8.341695e-03	1.228371e+00	4.489364e+01	-2.381669e-05	2.550859e+05	1.017062e+05	2.884352e+02	1.073451e-01	3.180110e-01	0.000000e+00	
-1.285508e-01	1.035342e-02	1.228371e+00	4.489364e+01	-1.765944e-05	2.550859e+05	1.017062e+05	2.884352e+02	1.073451e-01	3.180110e-01	0.000000e+00	
-1.369863e-01	1.724871e-02	1.228371e+00	4.489363e+01	-4.941165e-06	2.550859e+05	1.017062e+05	2.884352e+02	1.073451e-01	3.180334e-01	0.000000e+00	
-1.387054e-01	1.821988e-02	1.228371e+00	4.489363e+01	-3.927605e-06	2.550859e+05	1.017062e+05	2.884352e+02	1.073451e-01	3.180379e-01	0.000000e+00	
-1.404682e-01	1.917558e-02	1.228371e+00	4.489363e+01	-2.864256e-06	2.550859e+05	1.017062e+05	2.884352e+02	1.073451e-01	3.180426e-01	0.000000e+00	
-1.423091e-01	2.010422e-02	1.228371e+00	4.489363e+01	-1.893818e-06	2.550860e+05	1.017062e+05	2.884353e+02	1.073451e-01	3.180474e-01	0.000000e+00	
-1.352877e-01	1.627003e-02	1.228371e+00	4.489363e+01	-5.784208e-06	2.550859e+05	1.017062e+05	2.884352e+02	1.073451e-01	3.180288e-01	0.000000e+00	
-1.335973e-01	1.528805e-02	1.228371e+00	4.489364e+01	-6.510400e-06	2.550859e+05	1.017062e+05	2.884352e+02	1.073451e-01	3.180243e-01	0.000000e+00	
-1.442654e-01	2.099378e-02	1.228371e+00	4.489362e+01	-1.099815e-06	2.550860e+05	1.017062e+05	2.884353e+02	1.073451e-01	3.180522e-01	0.000000e+00	
-1.319099e-01	1.430427e-02	1.228371e+00	4.489364e+01	-7.438417e-06	2.550859e+05	1.017062e+05	2.884352e+02	1.073451e-01	3.180199e-01	0.000000e+00	
-1.463581e-01	2.183847e-02	1.228371e+00	4.489362e+01	-5.036668e-07	2.550860e+05	1.017062e+05	2.884353e+02	1.073450e-01	3.180575e-01	0.000000e+00	
-1.302235e-01	1.331859e-02	1.228371e+00	4.489364e+01	-9.106580e-06	2.550859e+05	1.017062e+05	2.884352e+02	1.073451e-01	3.180154e-01	0.000000e+00	
-1.485710e-01	2.264556e-02	1.228371e+00	4.489362e+01	-1.104503e-07	2.550860e+05	1.017063e+05	2.884353e+02	1.073450e-01	3.180623e-01	0.000000e+00	
-1.285375e-01	1.233021e-02	1.228371e+00	4.489364e+01	-1.187805e-05	2.550859e+05	1.017062e+05	2.884352e+02	1.073451e-01	3.180110e-01	0.000000e+00	
-1.270334e-01	3.042225e-03	1.228371e+00	4.489370e+01	-1.470487e-05	2.550858e+05	1.017062e+05	2.884352e+02	1.073453e-01	3.180069e-01	0.000000e+00	
-1.269844e-01	1.386434e-03	1.228371e+00	4.489370e+01	-1.414596e-07	2.550858e+05	1.017062e+05	2.884352e+02	1.073453e-01	3.180069e-01	0.000000e+00	
-1.269274e-01	5.193247e-03	1.228371e+00	4.489368e+01	-2.731609e-05	2.550858e+05	1.017062e+05	2.884352e+02	1.073452e-01	3.180067e-01	0.000000e+00	
-1.500000e-01	2.356154e-02	1.228371e+00	4.489362e+01	8.554618e-08	2.550860e+05	1.017063e+05	2.884353e+02	1.073450e-01	3.180680e-01	0.000000e+00	
-1.268869e-01	7.308392e-03	1.228371e+00	4.489365e+01	-2.855644e-05	2.550858e+05	1.017062e+05	2.884352e+02	1.073452e-01	3.180067e-01	0.000000e+00	
-1.268650e-01	9.347479e-03	1.228371e+00	4.489364e+01	-2.288738e-05	2.550858e+05	1.017062e+05	2.884352e+02	1.073451e-01	3.180066e-01	0.000000e+00	
-1.268513e-01	1.133853e-02	1.228371e+00	4.489363e+01	-1.580180e-05	2.550858e+05	1.017062e+05	2.884352e+02	1.073451e-01	3.180066e-01	0.000000e+00	
-1.352800e-01	1.822286e-02	1.228371e+00	4.489363e+01	-5.395991e-06	2.550859e+05	1.017062e+05	2.884352e+02	1.073451e-01	3.180288e-01	0.000000e+00	
-1.369788e-01	1.920131e-02	1.228371e+00	4.489363e+01	-4.415555e-06	2.550859e+05	1.017062e+05	2.884352e+02	1.073451e-01	3.180334e-01	0.000000e+00	
-1.386981e-01	2.017254e-02	1.228371e+00	4.489363e+01	-3.363170e-06	2.550859e+05	1.017062e+05	2.884352e+02	1.073451e-01	3.180379e-01	0.000000e+00	
-1.404613e-01	2.112867e-02	1.228371e+00	4.489363e+01	-2.379177e-06	2.550859e+05	1.017062e+05	2.884352e+02	1.073451e-01	3.180426e-01	0.000000e+00	
-1.423031e-01	2.205830e-02	1.228371e+00	4.489363e+01	-1.538807e-06	2.550860e+05	1.017062e+05	2.884353e+02	1.073451e-01	3.180474e-01	0.000000e+00	
-1.335894e-01	1.724142e-02	1.228371e+00	4.489364e+01	-6.171683e-06	2.550859e+05	1.017062e+05	2.884352e+02	1.073451e-01	3.180243e-01	0.000000e+00	
-1.319016e-01	1.625878e-02	1.228371e+00	4.489364e+01	-6.758227e-06	2.550859e+05	1.017062e+05	2.884352e+02	1.073451e-01	3.180198e-01	0.000000e+00	
-1.442609e-01	2.294964e-02	1.228371e+00	4.489362e+01	-8.662263e-07	2.550860e+05	1.017062e+05	2.884353e+02	1.073451e-01	3.180522e-01	0.000000e+00	
-1.302147e-01	1.527538e-02	1.228371e+00	4.489364e+01	-7.384880e-06	2.550859e+05	1.017062e+05	2.884352e+02	1.073451e-01	3.180154e-01	0.000000e+00	
-1.463558e-01	2.379703e-02	1.228371e+00	4.489362e+01	-3.644657e-07	2.550860e+05	1.017062e+05	2.884353e+02	1.073450e-01	3.180575e-01	0.000000e+00	
-1.285280e-01	1.429105e-02	1.228371e+00	4.489364e+01	-8.496089e-06	2.550859e+05	1.017062e+05	2.884352e+02	1.073451e-01	3.180110e-01	0.000000e+00	
-1.485715e-01	2.460763e-02	1.228371e+00	4.489362e+01	-5.116329e-08	2.550860e+05	1.017063e+05	2.884353e+02	1.073450e-01	3.180623e-01	0.000000e+00	
-1.268414e-01	1.330546e-02	1.228371e+00	4.489364e+01	-1.042736e-05	2.550858e+05	1.017062e+05	2.884352e+02	1.073451e-01	3.180066e-01	0.000000e+00	
-1.251836e-01	4.115296e-03	1.228371e+00	4.489371e+01	-2.354281e-05	2.550858e+05	1.017062e+05	2.884352e+02	1.073453e-01	3.180023e-01	0.000000e+00	
-1.250932e-01	1.681339e-03	1.228371e+00	4.489372e+01	-5.620578e-06	2.550858e+05	1.017062e+05	2.884352e+02	1.073453e-01	3.180022e-01	0.000000e+00	
-1.251839e-01	6.272877e-03	1.228371e+00	4.489367e+01	-3.018437e-05	2.550858e+05	1.017062e+05	2.884352e+02	1.073452e-01	3.180023e-01	0.000000e+00	
-1.500000e-01	2.552500e-02	1.228371e+00	4.489362e+01	7.328869e-08	2.550860e+05	1.017063e+05	2.884353e+02	1.073450e-01	3.180680e-01	0.000000e+00	
-1.251736e-01	8.337026e-03	1.228371e+00	4.489364e+01	-2.738805e-05	2.550858e+05	1.017062e+05	2.884352e+02	1.073451e-01	3.180023e-01	0.000000e+00	
-1.251634e-01	1.034368e-02	1.228371e+00	4.489363e+01	-2.018156e-05	2.550858e+05	1.017062e+05	2.884352e+02	1.073451e-01	3.180022e-01	0.000000e+00	
-1.251544e-01	1.231838e-02	1.228371e+00	4.489363e+01	-1.327915e-05	2.550858e+05	1.017062e+05	2.884352e+02	1.073451e-01	3.180022e-01	0.000000e+00	
-1.335818e-01	1.919390e-02	1.228371e+00	4.489363e+01	-5.679227e-06	2.550859e+05	1.017062e+05	2.884352e+02	1.073451e-01	3.180243e-01	0.000000e+00	
-1.352725e-01	2.017522e-02	1.228371e+00	4.489363e+01	-4.748920e-06	2.550859e+05	1.017062e+05	2.884352e+02	1.073451e-01	3.180288e-01	0.000000e+00	
-1.369713e-01	2.115368e-02	1.228371e+00	4.489363e+01	-3.733172e-06	2.550859e+05	1.017062e+05	2.884352e+02	1.073451e-01	3.180333e-01	0.000000e+00	
-1.386909e-01	2.212510e-02	1.228371e+00	4.489363e+01	-2.765023e-06	2.550859e+05	1.017062e+05	2.884352e+02	1.073451e-01	3.180379e-01	0.000000e+00	
-1.404545e-01	2.308172e-02	1.228371e+00	4.489363e+01	-1.917357e-06	2.550859e+05	1.017062e+05	2.884352e+02	1.073451e-01	3.180425e-01	0.000000e+00	
-1.422972e-01	2.401236e-02	1.228371e+00	4.489363e+01	-1.205013e-06	2.550860e+05	1.017062e+05	2.884353e+02	1.073451e-01	3.180474e-01	0.000000e+00	
-1.318939e-01	1.821157e-02	1.228371e+00	4.489364e+01	-6.378257e-06	2.550859e+05	1.017062e+05	2.884352e+02	1.073451e-01	3.180198e-01	0.000000e+00	
-1.302068e-01	1.722884e-02	1.228371e+00	4.489364e+01	-6.817174e-06	2.550859e+05	1.017062e+05	2.884352e+02	1.073451e-01	3.180154e-01	0.000000e+00	
-1.442564e-01	2.490550e-02	1.228371e+00	4.489362e+01	-6.341140e-07	2.550860e+05	1.017062e+05	2.884353e+02	1.073451e-01	3.180522e-01	0.000000e+00	
-1.285199e-01	1.624580e-02	1.228371e+00	4.489364e+01	-7.142086e-06	2.550859e+05	1.017062e+05	2.884352e+02	1.073451e-01	3.180109e-01	0.000000e+00	
-1.463535e-01	2.575559e-02	1.228371e+00	4.489362e+01	-2.207556e-07	2.550860e+05	1.017062e+05	2.884353e+02	1.073450e-01	3.180575e-01	0.000000e+00	
-1.268331e-01	1.526237e-02	1.228371e+00	4.489364e+01	-7.700246e-06	2.550858e+05	1.017062e+05	2.884352e+02	1.073451e-01	3.180065e-01	0.000000e+00	
-1.485720e-01	2.656970e-02	1.228371e+00	4.489362e+01	5.393875e-09	2.550860e+05	1.017063e+05	2.884353e+02	1.073450e-01	3.180623e-01	0.000000e+00	
-1.251463e-01	1.427840e-02	1.228371e+00	4.489364e+01	-8.805808e-06	2.550858e+05	1.017062e+05	2.884352e+02	1.073451e-01	3.180022e-01	0.000000e+00	
-1.234611e-01	5.251159e-03	1.228371e+00	4.489370e+01	-3.024251e-05	2.550858e+05	1.017062e+05	2.884352e+02	1.073453e-01	3.179980e-01	0.000000e+00	
-1.234046e-01	3.143695e-03	1.228371e+00	4.489373e+01	-1.975463e-05	2.550858e+05	1.017062e+05	2.884352e+02	1.073454e-01	3.179976e-01	0.000000e+00	
-1.231959e-01	1.399954e-03	1.228371e+00	4.489374e+01	-5.171617e-06	2.550858e+05	1.017062e+05	2.884352e+02	1.073454e-01	3.179972e-01	0.000000e+00	
-1.234734e-01	7.325357e-03	1.228371e+00	4.489365e+01	-3.021792e-05	2.550858e+05	1.017062e+05	2.884352e+02	1.073452e-01	3.179979e-01	0.000000e+00	
-1.500000e-01	2.748846e-02	1.228371e+00	4.489362e+01	4.934281e-08	2.550860e+05	1.017063e+05	2.884353e+02	1.073450e-01	3.180680e-01	0.000000e+00	
-1.234721e-01	9.345870e-03	1.228371e+00	4.489363e+01	-2.442301e-05	2.550858e+05	1.017062e+05	2.884352e+02	1.073451e-01	3.179979e-01	0.000000e+00	
-1.234662e-01	1.132944e-02	1.228371e+00	4.489363e+01	-1.672824e-05	2.550858e+05	1.017062e+05	2.884352e+02	1.073451e-01	3.179978e-01	0.000000e+00	
-1.234591e-01	1.329364e-02	1.228371e+00	4.489364e+01	-1.064966e-05	2.550858e+05	1.017062e+05	2.884352e+02	1.073451e-01	3.179978e-01	0.000000e+00	
-1.318864e-01	2.016389e-02	1.228371e+00	4.489364e+01	-5.792223e-06	2.550859e+05	1.017062e+05	2.884352e+02	1.073451e-01	3.180198e-01	0.000000e+00	
-1.335743e-01	2.114616e-02	1.228371e+00	4.489363e+01	-4.924629e-06	2.550859e+05	1.017062e+05	2.884352e+02	1.073451e-01	3.180243e-01	0.000000e+00	
-1.352650e-01	2.212748e-02	1.228371e+00	4.489363e+01	-3.962899e-06	2.550859e+05	1.017062e+05	2.884352e+02	1.073451e-01	3.180288e-01	0.000000e+00	
-1.369639e-01	2.310601e-02	1.228371e+00	4.489363e+01	-3.033357e-06	2.550859e+05	1.017062e+05	2.884352e+02	1.073451e-01	3.180333e-01	0.000000e+00	
-1.386836e-01	2.407763e-02	1.228371e+00	4.489363e+01	-2.201729e-06	2.550859e+05	1.017062e+05	2.884352e+02	1.073451e-01	3.180379e-01	0.000000e+00	
-1.404477e-01	2.503475e-02	1.228371e+00	4.489363e+01	-1.481779e-06	2.550859e+05	1.017062e+05	2.884352e+02	1.073451e-01	3.180425e-01	0.000000e+00	
-1.422912e-01	2.596642e-02	1.228371e+00	4.489363e+01	-8.730762e-07	2.550860e+05	1.017062e+05	2.884353e+02	1.073451e-01	3.180474e-01	0.000000e+00	
-1.301992e-01	1.918133e-02	1.228371e+00	4.489364e+01	-6.413031e-06	2.550859e+05	1.017062e+05	2.884352e+02	1.073451e-01	3.180154e-01	0.000000e+00	
-1.285123e-01	1.819864e-02	1.228371e+00	4.489364e+01	-6.719084e-06	2.550858e+05	1.017062e+05	2.884352e+02	1.073451e-01	3.180109e-01	0.000000e+00	
-1.442519e-01	2.686135e-02	1.228371e+00	4.489362e+01	-3.949076e-07	2.550860e+05	1.017062e+05	2.884353e+02	1.073451e-01	3.180522e-01	0.000000e+00	
-1.268254e-01	1.721584e-02	1.228371e+00	4.489364e+01	-6.788981e-06	2.550858e+05	1.017062e+05	2.884352e+02	1.073451e-01	3.180065e-01	0.000000e+00	
-1.463512e-01	2.771415e-02	1.228371e+00	4.489362e+01	-7.672102e-08	2.550860e+05	1.017062e+05	2.884353e+02	1.073450e-01	3.180575e-01	0.000000e+00	
-1.251385e-01	1.623288e-02	1.228371e+00	4.489364e+01	-6.881224e-06	2.550858e+05	1.017062e+05	2.884352e+02	1.073452e-01	3.180021e-01	0.000000e+00	
-1.485725e-01	2.853178e-02	1.228371e+00	4.489362e+01	5.018078e-08	2.550860e+05	1.017063e+05	2.884353e+02	1.073450e-01	3.180623e-01	0.000000e+00	
-1.234516e-01	1.524967e-02	1.228371e+00	4.489364e+01	-7.290452e-06	2.550858e+05	1.017062e+05	2.884352e+02	1.073452e-01	3.179978e-01	0.000000e+00	
-1.217445e-01	4.228910e-03	1.228371e+00	4.489373e+01	-2.816868e-05	2.550858e+05	1.017062e+05	2.884352e+02	1.073454e-01	3.179935e-01	0.000000e+00	
-1.217667e-01	6.309589e-03	1.228371e+00	4.489368e+01	-3.197695e-05	2.550858e+05	1.017062e+05	2.884352e+02	1.073452e-01	3.179935e-01	0.000000e+00	
-1.217397e-01	2.090549e-03	1.228371e+00	4.489375e+01	-1.350847e-05	2.550858e+05	1.017062e+05	2.884352e+02	1.073454e-01	3.179935e-01	0.000000e+00	
-1.217761e-01	8.342975e-03	1.228371e+00	4.489363e+01	-2.818341e-05	2.550858e+05	1.017062e+05	2.884352e+02	1.073451e-01	3.179936e-01	0.000000e+00	
-1.500000e-01	2.945192e-02	1.228371e+00	4.489362e+01	5.569133e-09	2.550860e+05	1.017063e+05	2.884353e+02	1.073450e-01	3.180680e-01	0.000000e+00	
-1.217759e-01	1.033720e-02	1.228371e+00	4.489362e+01	-2.056300e-05	2.550858e+05	1.017062e+05	2.884352e+02	1.073451e-01	3.179935e-01	0.000000e+00	
-1.217711e-01	1.230735e-02	1.228371e+00	4.489363e+01	-1.322868e-05	2.550858e+05	1.017062e+05	2.884352e+02	1.073451e-01	3.179935e-01	0.000000e+00	
-1.217644e-01	1.426591e-02	1.228371e+00	4.489364e+01	-8.276503e-06	2.550858e+05	1.017062e+05	2.884352e+02	1.073452e-01	3.179935e-01	0.000000e+00	
-1.199762e-01	1.157702e-03	1.228370e+00	4.489377e+01	-4.128747e-06	2.550858e+05	1.017062e+05	2.884352e+02	1.073455e-01	3.179894e-01	0.000000e+00	
-1.301917e-01	2.113359e-02	1.228371e+00	4.489364e+01	-5.743196e-06	2.550859e+05	1.017062e+05	2.884352e+02	1.073451e-01	3.180154e-01	0.000000e+00	
-1.318788e-01	2.211612e-02	1.228371e+00	4.489363e+01	-4.943335e-06	2.550859e+05	1.017062e+05	2.884352e+02	1.073451e-01	3.180198e-01	0.000000e+00	
-1.335668e-01	2.309839e-02	1.228371e+00	4.489363e+01	-4.044378e-06	2.550859e+05	1.017062e+05	2.884352e+02	1.073451e-01	3.180243e-01	0.000000e+00	
-1.352575e-01	2.407972e-02	1.228371e+00	4.489363e+01	-3.163614e-06	2.550859e+05	1.017062e+05	2.884352e+02	1.073451e-01	3.180288e-01	0.000000e+00	
-1.369565e-01	2.505833e-02	1.228371e+00	4.489363e+01	-2.360754e-06	2.550859e+05	1.017062e+05	2.884352e+02	1.073451e-01	3.180333e-01	0.000000e+00	
-1.386764e-01	2.603017e-02	1.228371e+00	4.489363e+01	-1.647171e-06	2.550859e+05	1.017062e+05	2.884352e+02	1.073451e-01	3.180379e-01	0.000000e+00	
-1.404409e-01	2.698779e-02	1.228371e+00	4.489363e+01	-1.025452e-06	2.550859e+05	1.017062e+05	2.884352e+02	1.073451e-01	3.180425e-01	0.000000e+00	
-1.422853e-01	2.792049e-02	1.228371e+00	4.489362e+01	-5.088823e-07	2.550860e+05	1.017062e+05	2.884353e+02	1.073451e-01	3.180473e-01	0.000000e+00	
-1.285047e-01	2.015097e-02	1.228371e+00	4.489364e+01	-6.292244e-06	2.550858e+05	1.017062e+05	2.884352e+02	1.073451e-01	3.180109e-01	0.000000e+00	
-1.268178e-01	1.916833e-02	1.228371e+00	4.489364e+01	-6.495692e-06	2.550858e+05	1.017062e+05	2.884352e+02	1.073451e-01	3.180065e-01	0.000000e+00	
-1.442475e-01	2.881721e-02	1.228371e+00	4.489362e+01	-1.307432e-07	2.550860e+05	1.017062e+05	2.884353e+02	1.073451e-01	3.180522e-01	0.000000e+00	