TITLE = "Visualization of the volumetric solution"
VARIABLES = "x","y","Density","Momentum_x","Momentum_y","Energy","Pressure","Temperature","Mach","C<sub>p</sub>","Roe_Dissipation"
ZONE NODES= 1054, ELEMENTS= 1972, DATAPACKING=POINT, ZONETYPE=FEQUADRILATERAL
-1.500000e-01	3.002941e-03	1.222441e+00	6.058846e+01	-8.097209e-06	2.540503e+05	1.010195e+05	2.878775e+02	1.457167e-01	-2.548385e-01	0.000000e+00	
-1.462057e-01	2.741604e-03	1.222441e+00	6.058846e+01	-1.323163e-05	2.540504e+05	1.010195e+05	2.878775e+02	1.457166e-01	-2.548243e-01	0.000000e+00	
-1.480039e-01	5.803974e-03	1.222441e+00	6.058846e+01	-5.721620e-06	2.540503e+05	1.010195e+05	2.878775e+02	1.457166e-01	-2.548298e-01	0.000000e+00	
-1.500000e-01	6.005882e-03	1.222441e+00	6.058847e+01	-1.197572e-06	2.540503e+05	1.010195e+05	2.878775e+02	1.457167e-01	-2.548386e-01	0.000000e+00	
-1.447476e-01	5.454265e-03	1.222441e+00	6.058845e+01	-9.762775e-06	2.540504e+05	1.010196e+05	2.878775e+02	1.457166e-01	-2.548210e-01	0.000000e+00	
-1.428598e-01	2.595994e-03	1.222441e+00	6.058846e+01	-1.058802e-05	2.540504e+05	1.010196e+05	2.878775e+02	1.457166e-01	-2.548151e-01	0.000000e+00	
-1.500000e-01	9.008824e-03	1.222441e+00	6.058847e+01	1.700785e-06	2.540503e+05	1.010195e+05	2.878775e+02	1.457167e-01	-2.548381e-01	0.000000e+00	
-1.466154e-01	8.273641e-03	1.222441e+00	6.058846e+01	-3.480749e-06	2.540504e+05	1.010195e+05	2.878775e+02	1.457166e-01	-2.548256e-01	0.000000e+00	
-1.432957e-01	8.029385e-03	1.222441e+00	6.058845e+01	-7.422645e-06	2.540504e+05	1.010196e+05	2.878775e+02	1.457166e-01	-2.548160e-01	0.000000e+00	
-1.415253e-01	5.300643e-03	1.222442e+00	6.058844e+01	-1.017033e-05	2.540504e+05	1.010196e+05	2.878775e+02	1.457166e-01	-2.548108e-01	0.000000e+00	
-1.397477e-01	2.544736e-03	1.222442e+00	6.058846e+01	-5.537193e-06	2.540504e+05	1.010196e+05	2.878775e+02	1.457166e-01	-2.548051e-01	0.000000e+00	
-1.478165e-01	1.064613e-02	1.222441e+00	6.058846e+01	1.285608e-06	2.540503e+05	1.010195e+05	2.878775e+02	1.457166e-01	-2.548291e-01	0.000000e+00	
-1.450285e-01	1.067262e-02	1.222441e+00	6.058846e+01	-1.892118e-06	2.540504e+05	1.010196e+05	2.878775e+02	1.457166e-01	-2.548214e-01	0.000000e+00	
-1.500000e-01	1.201176e-02	1.222441e+00	6.058847e+01	3.260820e-06	2.540503e+05	1.010195e+05	2.878775e+02	1.457167e-01	-2.548384e-01	0.000000e+00	
-1.401210e-01	7.911109e-03	1.222442e+00	6.058844e+01	-7.735457e-06	2.540504e+05	1.010196e+05	2.878775e+02	1.457166e-01	-2.548063e-01	0.000000e+00	
-1.418071e-01	1.055517e-02	1.222442e+00	6.058845e+01	-4.572454e-06	2.540504e+05	1.010196e+05	2.878775e+02	1.457166e-01	-2.548115e-01	0.000000e+00	
-1.384198e-01	5.232070e-03	1.222442e+00	6.058844e+01	-5.318773e-06	2.540504e+05	1.010196e+05	2.878775e+02	1.457166e-01	-2.548013e-01	0.000000e+00	
-1.367026e-01	2.525804e-03	1.222442e+00	6.058846e+01	1.336147e-06	2.540504e+05	1.010196e+05	2.878775e+02	1.457166e-01	-2.547957e-01	0.000000e+00	
-1.471689e-01	1.336196e-02	1.222441e+00	6.058846e+01	3.020637e-07	2.540504e+05	1.010195e+05	2.878775e+02	1.457166e-01	-2.548272e-01	0.000000e+00	
-1.435344e-01	1.319164e-02	1.222441e+00	6.058845e+01	-1.638980e-06	2.540504e+05	1.010196e+05	2.878775e+02	1.457166e-01	-2.548165e-01	0.000000e+00	
-1.500000e-01	1.501471e-02	1.222441e+00	6.058847e+01	-1.302988e-06	2.540503e+05	1.010195e+05	2.878775e+02	1.457167e-01	-2.548384e-01	0.000000e+00	
-1.370402e-01	7.844068e-03	1.222442e+00	6.058843e+01	-4.767110e-06	2.540504e+05	1.010196e+05	2.878775e+02	1.457165e-01	-2.547968e-01	0.000000e+00	
-1.386821e-01	1.046779e-02	1.222442e+00	6.058844e+01	-5.188590e-06	2.540504e+05	1.010196e+05	2.878775e+02	1.457166e-01	-2.548019e-01	0.000000e+00	
-1.403121e-01	1.307978e-02	1.222442e+00	6.058845e+01	-3.865751e-06	2.540504e+05	1.010196e+05	2.878775e+02	1.457166e-01	-2.548070e-01	0.000000e+00	
-1.353734e-01	5.193863e-03	1.222442e+00	6.058843e+01	1.495855e-06	2.540505e+05	1.010196e+05	2.878775e+02	1.457165e-01	-2.547918e-01	0.000000e+00	
-1.336823e-01	2.514887e-03	1.222442e+00	6.058846e+01	8.350120e-06	2.540505e+05	1.010196e+05	2.878775e+02	1.457166e-01	-2.547862e-01	0.000000e+00	
-1.450990e-01	1.583037e-02	1.222441e+00	6.058846e+01	-5.590810e-07	2.540504e+05	1.010196e+05	2.878775e+02	1.457166e-01	-2.548215e-01	0.000000e+00	
-1.478707e-01	1.613585e-02	1.222441e+00	6.058846e+01	-3.921387e-07	2.540503e+05	1.010195e+05	2.878775e+02	1.457167e-01	-2.548292e-01	0.000000e+00	
-1.419022e-01	1.568881e-02	1.222442e+00	6.058845e+01	-2.120979e-06	2.540504e+05	1.010196e+05	2.878775e+02	1.457166e-01	-2.548116e-01	0.000000e+00	
-1.500000e-01	1.801765e-02	1.222441e+00	6.058847e+01	-4.814520e-07	2.540503e+05	1.010195e+05	2.878775e+02	1.457167e-01	-2.548384e-01	0.000000e+00	
-1.356289e-01	1.040407e-02	1.222442e+00	6.058843e+01	-4.212614e-06	2.540505e+05	1.010196e+05	2.878775e+02	1.457165e-01	-2.547925e-01	0.000000e+00	
-1.340050e-01	7.796619e-03	1.222442e+00	6.058843e+01	3.602482e-07	2.540505e+05	1.010196e+05	2.878775e+02	1.457165e-01	-2.547874e-01	0.000000e+00	
-1.372258e-01	1.299953e-02	1.222442e+00	6.058844e+01	-5.257381e-06	2.540504e+05	1.010196e+05	2.878775e+02	1.457166e-01	-2.547973e-01	0.000000e+00	
-1.387956e-01	1.559308e-02	1.222442e+00	6.058845e+01	-4.250146e-06	2.540504e+05	1.010196e+05	2.878775e+02	1.457166e-01	-2.548022e-01	0.000000e+00	
-1.323510e-01	5.164541e-03	1.222442e+00	6.058843e+01	9.272388e-06	2.540505e+05	1.010196e+05	2.878775e+02	1.457165e-01	-2.547824e-01	0.000000e+00	
-1.306712e-01	2.504964e-03	1.222442e+00	6.058846e+01	1.512988e-05	2.540505e+05	1.010196e+05	2.878775e+02	1.457166e-01	-2.547769e-01	0.000000e+00	
-1.467319e-01	1.834610e-02	1.222441e+00	6.058846e+01	-1.390642e-06	2.540504e+05	1.010195e+05	2.878775e+02	1.457167e-01	-2.548259e-01	0.000000e+00	
-1.434885e-01	1.827187e-02	1.222441e+00	6.058846e+01	-1.676351e-06	2.540504e+05	1.010196e+05	2.878775e+02	1.457166e-01	-2.548164e-01	0.000000e+00	
-1.403520e-01	1.818206e-02	1.222442e+00	6.058845e+01	-2.562281e-06	2.540504e+05	1.010196e+05	2.878775e+02	1.457166e-01	-2.548069e-01	0.000000e+00	
-1.481715e-01	2.097905e-02	1.222441e+00	6.058847e+01	-3.787469e-07	2.540503e+05	1.010195e+05	2.878775e+02	1.457167e-01	-2.548301e-01	0.000000e+00	
-1.326057e-01	1.035220e-02	1.222442e+00	6.058843e+01	-1.266356e-06	2.540505e+05	1.010196e+05	2.878775e+02	1.457165e-01	-2.547831e-01	0.000000e+00	
-1.341945e-01	1.293647e-02	1.222442e+00	6.058844e+01	-5.345992e-06	2.540505e+05	1.010196e+05	2.878775e+02	1.457165e-01	-2.547880e-01	0.000000e+00	
-1.309873e-01	7.756649e-03	1.222442e+00	6.058843e+01	6.832619e-06	2.540505e+05	1.010196e+05	2.878775e+02	1.457165e-01	-2.547781e-01	0.000000e+00	
-1.357556e-01	1.551994e-02	1.222442e+00	6.058844e+01	-5.408780e-06	2.540505e+05	1.010196e+05	2.878775e+02	1.457166e-01	-2.547928e-01	0.000000e+00	
-1.372955e-01	1.810520e-02	1.222442e+00	6.058845e+01	-3.799449e-06	2.540504e+05	1.010196e+05	2.878775e+02	1.457166e-01	-2.547975e-01	0.000000e+00	
-1.293393e-01	5.138454e-03	1.222442e+00	6.058843e+01	1.730998e-05	2.540505e+05	1.010196e+05	2.878775e+02	1.457165e-01	-2.547731e-01	0.000000e+00	
-1.276663e-01	2.495584e-03	1.222442e+00	6.058845e+01	2.138580e-05	2.540505e+05	1.010196e+05	2.878776e+02	1.457165e-01	-2.547677e-01	0.000000e+00	
-1.450777e-01	2.086378e-02	1.222441e+00	6.058846e+01	-8.826551e-07	2.540504e+05	1.010196e+05	2.878775e+02	1.457167e-01	-2.548214e-01	0.000000e+00	
-1.419106e-01	2.076874e-02	1.222442e+00	6.058846e+01	-1.322167e-06	2.540504e+05	1.010196e+05	2.878775e+02	1.457166e-01	-2.548116e-01	0.000000e+00	
-1.500000e-01	2.102059e-02	1.222441e+00	6.058848e+01	7.361981e-09	2.540503e+05	1.010195e+05	2.878775e+02	1.457167e-01	-2.548389e-01	0.000000e+00	
-1.388253e-01	2.068998e-02	1.222442e+00	6.058845e+01	-1.863276e-06	2.540504e+05	1.010196e+05	2.878775e+02	1.457166e-01	-2.548022e-01	0.000000e+00	
-1.467610e-01	2.347826e-02	1.222441e+00	6.058846e+01	3.691403e-07	2.540504e+05	1.010195e+05	2.878775e+02	1.457167e-01	-2.548259e-01	0.000000e+00	
-1.500000e-01	2.402353e-02	1.222441e+00	6.058847e+01	5.654244e-07	2.540503e+05	1.010195e+05	2.878775e+02	1.457167e-01	-2.548384e-01	0.000000e+00	
-1.295943e-01	1.030755e-02	1.222442e+00	6.058843e+01	3.220736e-06	2.540505e+05	1.010196e+05	2.878775e+02	1.457165e-01	-2.547739e-01	0.000000e+00	
-1.311803e-01	1.288319e-02	1.222442e+00	6.058843e+01	-3.976440e-06	2.540505e+05	1.010196e+05	2.878775e+02	1.457165e-01	-2.547787e-01	0.000000e+00	
-1.327406e-01	1.545913e-02	1.222442e+00	6.058844e+01	-5.916733e-06	2.540505e+05	1.010196e+05	2.878775e+02	1.457165e-01	-2.547835e-01	0.000000e+00	
-1.279810e-01	7.721967e-03	1.222442e+00	6.058843e+01	1.417041e-05	2.540505e+05	1.010196e+05	2.878776e+02	1.457165e-01	-2.547689e-01	0.000000e+00	
-1.342778e-01	1.803944e-02	1.222442e+00	6.058844e+01	-4.764049e-06	2.540505e+05	1.010196e+05	2.878775e+02	1.457165e-01	-2.547882e-01	0.000000e+00	
-1.357969e-01	2.062199e-02	1.222442e+00	6.058844e+01	-2.531103e-06	2.540505e+05	1.010196e+05	2.878775e+02	1.457166e-01	-2.547928e-01	0.000000e+00	
-1.263393e-01	5.115896e-03	1.222442e+00	6.058843e+01	2.521511e-05	2.540505e+05	1.010196e+05	2.878776e+02	1.457165e-01	-2.547640e-01	0.000000e+00	
-1.246694e-01	2.487703e-03	1.222442e+00	6.058844e+01	2.691590e-05	2.540506e+05	1.010196e+05	2.878776e+02	1.457165e-01	-2.547586e-01	0.000000e+00	
-1.435019e-01	2.334987e-02	1.222441e+00	6.058846e+01	-3.227783e-07	2.540504e+05	1.010196e+05	2.878775e+02	1.457166e-01	-2.548165e-01	0.000000e+00	
-1.403617e-01	2.326932e-02	1.222442e+00	6.058845e+01	-5.858807e-07	2.540504e+05	1.010196e+05	2.878775e+02	1.457166e-01	-2.548068e-01	0.000000e+00	
-1.373061e-01	2.320168e-02	1.222442e+00	6.058845e+01	-7.196557e-07	2.540504e+05	1.010196e+05	2.878775e+02	1.457166e-01	-2.547975e-01	0.000000e+00	
-1.479067e-01	2.576030e-02	1.222441e+00	6.058846e+01	2.773527e-07	2.540503e+05	1.010195e+05	2.878775e+02	1.457167e-01	-2.548292e-01	0.000000e+00	
-1.451321e-01	2.588081e-02	1.222441e+00	6.058846e+01	-3.864375e-07	2.540504e+05	1.010196e+05	2.878775e+02	1.457166e-01	-2.548216e-01	0.000000e+00	
-1.265964e-01	1.027024e-02	1.222442e+00	6.058844e+01	8.896663e-06	2.540505e+05	1.010196e+05	2.878776e+02	1.457165e-01	-2.547648e-01	0.000000e+00	
-1.281752e-01	1.283792e-02	1.222442e+00	6.058843e+01	-1.235642e-06	2.540505e+05	1.010196e+05	2.878776e+02	1.457165e-01	-2.547695e-01	0.000000e+00	
-1.297321e-01	1.540691e-02	1.222442e+00	6.058843e+01	-5.434247e-06	2.540505e+05	1.010196e+05	2.878775e+02	1.457165e-01	-2.547743e-01	0.000000e+00	
-1.312690e-01	1.798184e-02	1.222442e+00	6.058843e+01	-5.349040e-06	2.540505e+05	1.010196e+05	2.878775e+02	1.457165e-01	-2.547789e-01	0.000000e+00	
-1.249921e-01	7.693725e-03	1.222442e+00	6.058843e+01	2.185573e-05	2.540506e+05	1.010196e+05	2.878776e+02	1.457165e-01	-2.547598e-01	0.000000e+00	
-1.327874e-01	2.056130e-02	1.222442e+00	6.058844e+01	-3.268142e-06	2.540505e+05	1.010196e+05	2.878775e+02	1.457165e-01	-2.547836e-01	0.000000e+00	
-1.342900e-01	2.314049e-02	1.222442e+00	6.058844e+01	-1.274521e-06	2.540505e+05	1.010196e+05	2.878775e+02	1.457165e-01	-2.547882e-01	0.000000e+00	
-1.233565e-01	5.098229e-03	1.222442e+00	6.058843e+01	3.259751e-05	2.540506e+05	1.010196e+05	2.878776e+02	1.457165e-01	-2.547550e-01	0.000000e+00	
-1.216838e-01	2.482090e-03	1.222442e+00	6.058842e+01	3.152967e-05	2.540506e+05	1.010196e+05	2.878776e+02	1.457164e-01	-2.547497e-01	0.000000e+00	
-1.419244e-01	2.583345e-02	1.222442e+00	6.058845e+01	-2.057775e-07	2.540504e+05	1.010196e+05	2.878775e+02	1.457166e-01	-2.548116e-01	0.000000e+00	
-1.388173e-01	2.577346e-02	1.222442e+00	6.058845e+01	2.700973e-07	2.540504e+05	1.010196e+05	2.878775e+02	1.457166e-01	-2.548021e-01	0.000000e+00	
-1.500000e-01	2.702647e-02	1.222441e+00	6.058847e+01	1.844146e-06	2.540503e+05	1.010195e+05	2.878775e+02	1.457167e-01	-2.548384e-01	0.000000e+00	
-1.357815e-01	2.571460e-02	1.222442e+00	6.058844e+01	-2.426198e-07	2.540505e+05	1.010196e+05	2.878775e+02	1.457166e-01	-2.547927e-01	0.000000e+00	
-1.472305e-01	2.847952e-02	1.222441e+00	6.058846e+01	-5.447950e-07	2.540504e+05	1.010195e+05	2.878775e+02	1.457166e-01	-2.548273e-01	0.000000e+00	
-1.435741e-01	2.840552e-02	1.222441e+00	6.058845e+01	-2.835630e-07	2.540504e+05	1.010196e+05	2.878775e+02	1.457166e-01	-2.548165e-01	0.000000e+00	
-1.251869e-01	1.280142e-02	1.222442e+00	6.058843e+01	2.639237e-06	2.540505e+05	1.010196e+05	2.878776e+02	1.457165e-01	-2.547605e-01	0.000000e+00	
-1.236210e-01	1.024159e-02	1.222442e+00	6.058844e+01	1.524725e-05	2.540506e+05	1.010196e+05	2.878776e+02	1.457165e-01	-2.547558e-01	0.000000e+00	
-1.267332e-01	1.536305e-02	1.222442e+00	6.058843e+01	-3.994031e-06	2.540505e+05	1.010196e+05	2.878776e+02	1.457165e-01	-2.547651e-01	0.000000e+00	
-1.282637e-01	1.793172e-02	1.222442e+00	6.058842e+01	-5.417937e-06	2.540505e+05	1.010196e+05	2.878776e+02	1.457165e-01	-2.547698e-01	0.000000e+00	
-1.297796e-01	2.050686e-02	1.222442e+00	6.058843e+01	-3.943454e-06	2.540505e+05	1.010196e+05	2.878775e+02	1.457165e-01	-2.547743e-01	0.000000e+00	
-1.220279e-01	7.673345e-03	1.222442e+00	6.058844e+01	2.938234e-05	2.540506e+05	1.010196e+05	2.878776e+02	1.457165e-01	-2.547509e-01	0.000000e+00	
-1.312812e-01	2.308427e-02	1.222442e+00	6.058843e+01	-2.090067e-06	2.540505e+05	1.010196e+05	2.878775e+02	1.457165e-01	-2.547789e-01	0.000000e+00	
-1.327690e-01	2.565905e-02	1.222442e+00	6.058844e+01	-1.077660e-06	2.540505e+05	1.010196e+05	2.878775e+02	1.457165e-01	-2.547834e-01	0.000000e+00	
-1.203962e-01	5.086842e-03	1.222442e+00	6.058842e+01	3.914050e-05	2.540506e+05	1.010196e+05	2.878776e+02	1.457164e-01	-2.547461e-01	0.000000e+00	
-1.187131e-01	2.480038e-03	1.222442e+00	6.058841e+01	3.520430e-05	2.540506e+05	1.010196e+05	2.878776e+02	1.457164e-01	-2.547408e-01	0.000000e+00	
-1.403484e-01	2.834124e-02	1.222442e+00	6.058845e+01	-1.913590e-08	2.540504e+05	1.010196e+05	2.878775e+02	1.457166e-01	-2.548070e-01	0.000000e+00	
-1.372683e-01	2.828227e-02	1.222442e+00	6.058844e+01	-3.311738e-07	2.540504e+05	1.010196e+05	2.878775e+02	1.457166e-01	-2.547973e-01	0.000000e+00	
-1.500000e-01	3.002941e-02	1.222441e+00	6.058847e+01	-2.491681e-06	2.540503e+05	1.010195e+05	2.878775e+02	1.457167e-01	-2.548384e-01	0.000000e+00	
-1.342442e-01	2.822796e-02	1.222442e+00	6.058844e+01	-1.232520e-06	2.540505e+05	1.010196e+05	2.878775e+02	1.457165e-01	-2.547880e-01	0.000000e+00	
-1.450978e-01	3.098985e-02	1.222441e+00	6.058846e+01	-8.889449e-08	2.540504e+05	1.010196e+05	2.878775e+02	1.457166e-01	-2.548214e-01	0.000000e+00	
-1.479001e-01	3.122529e-02	1.222441e+00	6.058846e+01	-1.180874e-06	2.540503e+05	1.010195e+05	2.878775e+02	1.457166e-01	-2.548292e-01	0.000000e+00	
-1.418678e-01	3.090732e-02	1.222442e+00	6.058845e+01	2.200459e-07	2.540504e+05	1.010196e+05	2.878775e+02	1.457166e-01	-2.548115e-01	0.000000e+00	
-1.237538e-01	1.532821e-02	1.222442e+00	6.058842e+01	-1.663722e-06	2.540506e+05	1.010196e+05	2.878776e+02	1.457165e-01	-2.547562e-01	0.000000e+00	
-1.222238e-01	1.277456e-02	1.222442e+00	6.058844e+01	7.278765e-06	2.540506e+05	1.010196e+05	2.878776e+02	1.457165e-01	-2.547516e-01	0.000000e+00	
-1.206743e-01	1.022252e-02	1.222442e+00	6.058845e+01	2.177890e-05	2.540506e+05	1.010196e+05	2.878776e+02	1.457165e-01	-2.547470e-01	0.000000e+00	
-1.252707e-01	1.788953e-02	1.222442e+00	6.058842e+01	-4.895767e-06	2.540505e+05	1.010196e+05	2.878776e+02	1.457165e-01	-2.547607e-01	0.000000e+00	
-1.267769e-01	2.045899e-02	1.222442e+00	6.058842e+01	-4.410499e-06	2.540505e+05	1.010196e+05	2.878776e+02	1.457165e-01	-2.547652e-01	0.000000e+00	
-1.282729e-01	2.303321e-02	1.222442e+00	6.058843e+01	-3.010462e-06	2.540505e+05	1.010196e+05	2.878776e+02	1.457165e-01	-2.547697e-01	0.000000e+00	
-1.190936e-01	7.662065e-03	1.222442e+00	6.058844e+01	3.625385e-05	2.540506e+05	1.010196e+05	2.878776e+02	1.457165e-01	-2.547422e-01	0.000000e+00	
-1.297579e-01	2.560753e-02	1.222442e+00	6.058843e+01	-2.255240e-06	2.540505e+05	1.010196e+05	2.878775e+02	1.457165e-01	-2.547742e-01	0.000000e+00	
-1.312312e-01	2.817793e-02	1.222442e+00	6.058843e+01	-2.588310e-06	2.540505e+05	1.010196e+05	2.878775e+02	1.457165e-01	-2.547787e-01	0.000000e+00	
-1.174648e-01	5.084400e-03	1.222442e+00	6.058842e+01	4.466230e-05	2.540506e+05	1.010197e+05	2.878776e+02	1.457164e-01	-2.547375e-01	0.000000e+00	
-1.157653e-01	2.485996e-03	1.222442e+00	6.058838e+01	3.814569e-05	2.540506e+05	1.010197e+05	2.878776e+02	1.457163e-01	-2.547322e-01	0.000000e+00	
-1.387490e-01	3.084427e-02	1.222442e+00	6.058845e+01	-7.240408e-07	2.540504e+05	1.010196e+05	2.878775e+02	1.457166e-01	-2.548019e-01	0.000000e+00	
-1.357075e-01	3.079001e-02	1.222442e+00	6.058844e+01	-1.868066e-06	2.540505e+05	1.010196e+05	2.878775e+02	1.457165e-01	-2.547925e-01	0.000000e+00	
-1.500000e-01	3.303235e-02	1.222441e+00	6.058847e+01	-1.299099e-06	2.540503e+05	1.010195e+05	2.878775e+02	1.457167e-01	-2.548382e-01	0.000000e+00	
-1.326916e-01	3.074206e-02	1.222442e+00	6.058844e+01	-3.563170e-06	2.540505e+05	1.010196e+05	2.878775e+02	1.457165e-01	-2.547832e-01	0.000000e+00	
-1.433984e-01	3.345105e-02	1.222441e+00	6.058845e+01	1.068429e-06	2.540504e+05	1.010196e+05	2.878775e+02	1.457166e-01	-2.548162e-01	0.000000e+00	
-1.467150e-01	3.345256e-02	1.222441e+00	6.058846e+01	-7.605409e-08	2.540504e+05	1.010195e+05	2.878775e+02	1.457166e-01	-2.548258e-01	0.000000e+00	
-1.402294e-01	3.339861e-02	1.222442e+00	6.058845e+01	2.021911e-07	2.540504e+05	1.010196e+05	2.878775e+02	1.457166e-01	-2.548065e-01	0.000000e+00	
-1.208001e-01	1.530241e-02	1.222442e+00	6.058842e+01	1.355488e-06	2.540506e+05	1.010196e+05	2.878776e+02	1.457164e-01	-2.547473e-01	0.000000e+00	
-1.222989e-01	1.785543e-02	1.222442e+00	6.058841e+01	-3.761546e-06	2.540506e+05	1.010196e+05	2.878776e+02	1.457164e-01	-2.547517e-01	0.000000e+00	
-1.192895e-01	1.275713e-02	1.222442e+00	6.058844e+01	1.229704e-05	2.540506e+05	1.010196e+05	2.878776e+02	1.457165e-01	-2.547428e-01	0.000000e+00	
-1.177590e-01	1.021303e-02	1.222442e+00	6.058846e+01	2.790467e-05	2.540506e+05	1.010197e+05	2.878776e+02	1.457165e-01	-2.547384e-01	0.000000e+00	
-1.237898e-01	2.041796e-02	1.222442e+00	6.058841e+01	-4.560154e-06	2.540506e+05	1.010196e+05	2.878776e+02	1.457164e-01	-2.547562e-01	0.000000e+00	
-1.252738e-01	2.298767e-02	1.222442e+00	6.058842e+01	-3.871956e-06	2.540505e+05	1.010196e+05	2.878776e+02	1.457165e-01	-2.547606e-01	0.000000e+00	
-1.267505e-01	2.556038e-02	1.222442e+00	6.058843e+01	-3.533681e-06	2.540505e+05	1.010196e+05	2.878776e+02	1.457165e-01	-2.547651e-01	0.000000e+00	
-1.161950e-01	7.661606e-03	1.222442e+00	6.058845e+01	4.199829e-05	2.540506e+05	1.010197e+05	2.878776e+02	1.457165e-01	-2.547337e-01	0.000000e+00	
-1.282190e-01	2.813183e-02	1.222442e+00	6.058843e+01	-4.179081e-06	2.540505e+05	1.010196e+05	2.878776e+02	1.457165e-01	-2.547695e-01	0.000000e+00	
-1.296778e-01	3.069874e-02	1.222442e+00	6.058843e+01	-5.486357e-06	2.540505e+05	1.010196e+05	2.878775e+02	1.457165e-01	-2.547739e-01	0.000000e+00	
-1.145775e-01	5.097497e-03	1.222442e+00	6.058841e+01	4.863291e-05	2.540506e+05	1.010197e+05	2.878776e+02	1.457164e-01	-2.547292e-01	0.000000e+00	
-1.128668e-01	2.514714e-03	1.222442e+00	6.058836e+01	3.948209e-05	2.540507e+05	1.010197e+05	2.878776e+02	1.457163e-01	-2.547238e-01	0.000000e+00	
-1.371612e-01	3.334556e-02	1.222442e+00	6.058844e+01	-1.817503e-06	2.540504e+05	1.010196e+05	2.878775e+02	1.457166e-01	-2.547970e-01	0.000000e+00	
-1.341389e-01	3.329935e-02	1.222442e+00	6.058844e+01	-4.144148e-06	2.540505e+05	1.010196e+05	2.878775e+02	1.457165e-01	-2.547876e-01	0.000000e+00	
-1.481313e-01	3.605411e-02	1.222441e+00	6.058846e+01	2.419213e-06	2.540503e+05	1.010195e+05	2.878775e+02	1.457167e-01	-2.548298e-01	0.000000e+00	
-1.311255e-01	3.325922e-02	1.222442e+00	6.058843e+01	-6.566241e-06	2.540505e+05	1.010196e+05	2.878775e+02	1.457165e-01	-2.547783e-01	0.000000e+00	
-1.417091e-01	3.595705e-02	1.222442e+00	6.058845e+01	1.889613e-06	2.540504e+05	1.010196e+05	2.878775e+02	1.457166e-01	-2.548110e-01	0.000000e+00	
-1.449274e-01	3.602256e-02	1.222441e+00	6.058845e+01	3.044225e-06	2.540504e+05	1.010196e+05	2.878775e+02	1.457166e-01	-2.548211e-01	0.000000e+00	
-1.500000e-01	3.603529e-02	1.222441e+00	6.058847e+01	9.725467e-07	2.540503e+05	1.010195e+05	2.878775e+02	1.457167e-01	-2.548386e-01	0.000000e+00	
-1.386080e-01	3.589867e-02	1.222442e+00	6.058844e+01	-1.029150e-06	2.540504e+05	1.010196e+05	2.878775e+02	1.457166e-01	-2.548015e-01	0.000000e+00	
-1.193509e-01	1.782842e-02	1.222442e+00	6.058841e+01	-2.051919e-06	2.540506e+05	1.010196e+05	2.878776e+02	1.457164e-01	-2.547430e-01	0.000000e+00	
-1.178716e-01	1.528399e-02	1.222442e+00	6.058843e+01	4.887373e-06	2.540506e+05	1.010197e+05	2.878776e+02	1.457164e-01	-2.547386e-01	0.000000e+00	
-1.208243e-01	2.038324e-02	1.222442e+00	6.058841e+01	-4.292377e-06	2.540506e+05	1.010196e+05	2.878776e+02	1.457164e-01	-2.547473e-01	0.000000e+00	
-1.163825e-01	1.274706e-02	1.222442e+00	6.058845e+01	1.722711e-05	2.540506e+05	1.010197e+05	2.878776e+02	1.457165e-01	-2.547342e-01	0.000000e+00	
-1.148769e-01	1.021185e-02	1.222442e+00	6.058847e+01	3.306267e-05	2.540506e+05	1.010197e+05	2.878776e+02	1.457165e-01	-2.547300e-01	0.000000e+00	
-1.222928e-01	2.294743e-02	1.222442e+00	6.058841e+01	-4.530729e-06	2.540506e+05	1.010196e+05	2.878776e+02	1.457164e-01	-2.547517e-01	0.000000e+00	
-1.237565e-01	2.551750e-02	1.222442e+00	6.058842e+01	-4.761655e-06	2.540506e+05	1.010196e+05	2.878776e+02	1.457164e-01	-2.547560e-01	0.000000e+00	
-1.252149e-01	2.808922e-02	1.222442e+00	6.058843e+01	-5.817992e-06	2.540505e+05	1.010196e+05	2.878776e+02	1.457165e-01	-2.547604e-01	0.000000e+00	
-1.133458e-01	7.674878e-03	1.222442e+00	6.058845e+01	4.530728e-05	2.540507e+05	1.010197e+05	2.878776e+02	1.457165e-01	-2.547254e-01	0.000000e+00	
-1.266671e-01	3.065869e-02	1.222442e+00	6.058843e+01	-7.522830e-06	2.540505e+05	1.010196e+05	2.878776e+02	1.457165e-01	-2.547648e-01	0.000000e+00	
-1.281122e-01	3.322293e-02	1.222442e+00	6.058843e+01	-9.097117e-06	2.540505e+05	1.010196e+05	2.878776e+02	1.457165e-01	-2.547691e-01	0.000000e+00	
-1.117759e-01	5.141788e-03	1.222442e+00	6.058840e+01	4.966710e-05	2.540507e+05	1.010197e+05	2.878776e+02	1.457164e-01	-2.547213e-01	0.000000e+00	
-1.101166e-01	2.618483e-03	1.222443e+00	6.058834e+01	3.801614e-05	2.540507e+05	1.010197e+05	2.878776e+02	1.457162e-01	-2.547161e-01	0.000000e+00	
-1.355741e-01	3.585144e-02	1.222442e+00	6.058844e+01	-3.797940e-06	2.540505e+05	1.010196e+05	2.878775e+02	1.457165e-01	-2.547921e-01	0.000000e+00	
-1.325610e-01	3.581326e-02	1.222442e+00	6.058843e+01	-6.735252e-06	2.540505e+05	1.010196e+05	2.878775e+02	1.457165e-01	-2.547828e-01	0.000000e+00	
-1.500000e-01	3.903824e-02	1.222441e+00	6.058847e+01	4.249473e-06	2.540503e+05	1.010195e+05	2.878775e+02	1.457167e-01	-2.548385e-01	0.000000e+00	
-1.465444e-01	3.868542e-02	1.222441e+00	6.058845e+01	5.885418e-06	2.540504e+05	1.010195e+05	2.878775e+02	1.457166e-01	-2.548253e-01	0.000000e+00	
-1.295487e-01	3.578061e-02	1.222442e+00	6.058843e+01	-9.807729e-06	2.540505e+05	1.010196e+05	2.878775e+02	1.457165e-01	-2.547735e-01	0.000000e+00	
-1.400472e-01	3.845313e-02	1.222442e+00	6.058844e+01	6.441476e-07	2.540504e+05	1.010196e+05	2.878775e+02	1.457166e-01	-2.548059e-01	0.000000e+00	
-1.431856e-01	3.852925e-02	1.222441e+00	6.058845e+01	3.082475e-06	2.540504e+05	1.010196e+05	2.878775e+02	1.457166e-01	-2.548158e-01	0.000000e+00	
-1.369984e-01	3.840085e-02	1.222442e+00	6.058844e+01	-2.012567e-06	2.540504e+05	1.010196e+05	2.878775e+02	1.457165e-01	-2.547965e-01	0.000000e+00	
-1.164233e-01	1.780566e-02	1.222442e+00	6.058841e+01	2.492907e-07	2.540506e+05	1.010197e+05	2.878776e+02	1.457164e-01	-2.547343e-01	0.000000e+00	
-1.178795e-01	2.035309e-02	1.222442e+00	6.058840e+01	-3.511129e-06	2.540506e+05	1.010197e+05	2.878776e+02	1.457164e-01	-2.547386e-01	0.000000e+00	
-1.149635e-01	1.526873e-02	1.222442e+00	6.058843e+01	8.741206e-06	2.540506e+05	1.010197e+05	2.878776e+02	1.457164e-01	-2.547301e-01	0.000000e+00	
-1.193324e-01	2.291144e-02	1.222442e+00	6.058841e+01	-4.840351e-06	2.540506e+05	1.010196e+05	2.878776e+02	1.457164e-01	-2.547428e-01	0.000000e+00	
-1.134993e-01	1.273894e-02	1.222442e+00	6.058846e+01	2.184640e-05	2.540507e+05	1.010197e+05	2.878776e+02	1.457165e-01	-2.547258e-01	0.000000e+00	
-1.120315e-01	1.021386e-02	1.222442e+00	6.058847e+01	3.666175e-05	2.540507e+05	1.010197e+05	2.878776e+02	1.457165e-01	-2.547217e-01	0.000000e+00	
-1.207818e-01	2.547823e-02	1.222442e+00	6.058842e+01	-5.772515e-06	2.540506e+05	1.010196e+05	2.878776e+02	1.457164e-01	-2.547471e-01	0.000000e+00	
-1.222273e-01	2.804948e-02	1.222442e+00	6.058842e+01	-7.330058e-06	2.540506e+05	1.010196e+05	2.878776e+02	1.457164e-01	-2.547514e-01	0.000000e+00	
-1.236687e-01	3.062089e-02	1.222442e+00	6.058843e+01	-9.513039e-06	2.540506e+05	1.010196e+05	2.878776e+02	1.457165e-01	-2.547557e-01	0.000000e+00	
-1.105707e-01	7.703226e-03	1.222443e+00	6.058845e+01	4.689044e-05	2.540507e+05	1.010197e+05	2.878776e+02	1.457165e-01	-2.547176e-01	0.000000e+00	
-1.251059e-01	3.318866e-02	1.222442e+00	6.058843e+01	-1.167176e-05	2.540505e+05	1.010196e+05	2.878776e+02	1.457165e-01	-2.547600e-01	0.000000e+00	
-1.265384e-01	3.575042e-02	1.222442e+00	6.058842e+01	-1.312522e-05	2.540505e+05	1.010196e+05	2.878776e+02	1.457165e-01	-2.547643e-01	0.000000e+00	
-1.091538e-01	5.256503e-03	1.222443e+00	6.058840e+01	4.883642e-05	2.540507e+05	1.010197e+05	2.878776e+02	1.457163e-01	-2.547135e-01	0.000000e+00	
-1.079433e-01	3.123314e-03	1.222443e+00	6.058833e+01	4.026267e-05	2.540507e+05	1.010197e+05	2.878776e+02	1.457162e-01	-2.547098e-01	0.000000e+00	
-1.339844e-01	3.836253e-02	1.222442e+00	6.058843e+01	-4.981117e-06	2.540505e+05	1.010196e+05	2.878775e+02	1.457165e-01	-2.547871e-01	0.000000e+00	
-1.309755e-01	3.833245e-02	1.222442e+00	6.058842e+01	-8.541589e-06	2.540505e+05	1.010196e+05	2.878775e+02	1.457165e-01	-2.547778e-01	0.000000e+00	
-1.474691e-01	4.123429e-02	1.222441e+00	6.058847e+01	4.725216e-06	2.540503e+05	1.010195e+05	2.878775e+02	1.457167e-01	-2.548283e-01	0.000000e+00	
-1.445937e-01	4.109491e-02	1.222441e+00	6.058847e+01	5.315750e-06	2.540504e+05	1.010196e+05	2.878775e+02	1.457167e-01	-2.548199e-01	0.000000e+00	
-1.279654e-01	3.830614e-02	1.222442e+00	6.058842e+01	-1.263876e-05	2.540505e+05	1.010196e+05	2.878776e+02	1.457165e-01	-2.547686e-01	0.000000e+00	
-1.057941e-01	2.601948e-03	1.222443e+00	6.058830e+01	3.320342e-05	2.540507e+05	1.010197e+05	2.878776e+02	1.457161e-01	-2.547035e-01	0.000000e+00	
-1.384111e-01	4.094598e-02	1.222442e+00	6.058844e+01	1.959352e-06	2.540504e+05	1.010196e+05	2.878775e+02	1.457166e-01	-2.548009e-01	0.000000e+00	
-1.414634e-01	4.099907e-02	1.222442e+00	6.058846e+01	3.000912e-06	2.540504e+05	1.010196e+05	2.878775e+02	1.457166e-01	-2.548103e-01	0.000000e+00	
-1.500000e-01	4.204118e-02	1.222441e+00	6.058848e+01	4.491343e-07	2.540503e+05	1.010195e+05	2.878775e+02	1.457167e-01	-2.548390e-01	0.000000e+00	
-1.353965e-01	4.090846e-02	1.222442e+00	6.058843e+01	-9.769659e-07	2.540505e+05	1.010196e+05	2.878775e+02	1.457165e-01	-2.547915e-01	0.000000e+00	
-1.135094e-01	1.778191e-02	1.222442e+00	6.058841e+01	3.191402e-06	2.540507e+05	1.010197e+05	2.878776e+02	1.457164e-01	-2.547258e-01	0.000000e+00	
-1.149502e-01	2.032420e-02	1.222442e+00	6.058840e+01	-2.095251e-06	2.540506e+05	1.010197e+05	2.878776e+02	1.457164e-01	-2.547300e-01	0.000000e+00	
-1.163894e-01	2.287770e-02	1.222442e+00	6.058840e+01	-4.646240e-06	2.540506e+05	1.010197e+05	2.878776e+02	1.457164e-01	-2.547342e-01	0.000000e+00	
-1.120689e-01	1.524885e-02	1.222442e+00	6.058844e+01	1.299475e-05	2.540507e+05	1.010197e+05	2.878776e+02	1.457164e-01	-2.547217e-01	0.000000e+00	
-1.178258e-01	2.544133e-02	1.222442e+00	6.058841e+01	-6.409386e-06	2.540506e+05	1.010197e+05	2.878776e+02	1.457164e-01	-2.547384e-01	0.000000e+00	
-1.106337e-01	1.272133e-02	1.222443e+00	6.058847e+01	2.646269e-05	2.540507e+05	1.010197e+05	2.878776e+02	1.457165e-01	-2.547176e-01	0.000000e+00	
-1.092184e-01	1.019917e-02	1.222443e+00	6.058848e+01	4.039053e-05	2.540507e+05	1.010197e+05	2.878776e+02	1.457165e-01	-2.547136e-01	0.000000e+00	
-1.192587e-01	2.801177e-02	1.222442e+00	6.058842e+01	-8.563924e-06	2.540506e+05	1.010196e+05	2.878776e+02	1.457164e-01	-2.547426e-01	0.000000e+00	
-1.206881e-01	3.058457e-02	1.222442e+00	6.058843e+01	-1.131979e-05	2.540506e+05	1.010196e+05	2.878776e+02	1.457164e-01	-2.547468e-01	0.000000e+00	
-1.221144e-01	3.315530e-02	1.222442e+00	6.058842e+01	-1.419628e-05	2.540506e+05	1.010196e+05	2.878776e+02	1.457165e-01	-2.547510e-01	0.000000e+00	
-1.078613e-01	7.693796e-03	1.222443e+00	6.058845e+01	4.909232e-05	2.540507e+05	1.010197e+05	2.878776e+02	1.457165e-01	-2.547096e-01	0.000000e+00	
-1.235384e-01	3.572083e-02	1.222442e+00	6.058842e+01	-1.658235e-05	2.540506e+05	1.010196e+05	2.878776e+02	1.457164e-01	-2.547553e-01	0.000000e+00	
-1.249602e-01	3.828066e-02	1.222442e+00	6.058841e+01	-1.715735e-05	2.540506e+05	1.010196e+05	2.878776e+02	1.457164e-01	-2.547595e-01	0.000000e+00	
-1.066573e-01	5.228838e-03	1.222443e+00	6.058838e+01	4.859187e-05	2.540507e+05	1.010197e+05	2.878776e+02	1.457163e-01	-2.547063e-01	0.000000e+00	
-1.323921e-01	4.088067e-02	1.222442e+00	6.058842e+01	-4.792500e-06	2.540505e+05	1.010196e+05	2.878775e+02	1.457165e-01	-2.547822e-01	0.000000e+00	
-1.293855e-01	4.085818e-02	1.222442e+00	6.058841e+01	-9.607815e-06	2.540505e+05	1.010196e+05	2.878775e+02	1.457165e-01	-2.547730e-01	0.000000e+00	
-1.457965e-01	4.349798e-02	1.222441e+00	6.058848e+01	7.692303e-06	2.540504e+05	1.010195e+05	2.878775e+02	1.457167e-01	-2.548236e-01	0.000000e+00	
-1.480845e-01	4.353964e-02	1.222441e+00	6.058848e+01	3.334944e-06	2.540503e+05	1.010195e+05	2.878775e+02	1.457167e-01	-2.548307e-01	0.000000e+00	
-1.428762e-01	4.350876e-02	1.222442e+00	6.058847e+01	9.806767e-06	2.540504e+05	1.010196e+05	2.878775e+02	1.457166e-01	-2.548143e-01	0.000000e+00	
-1.263790e-01	4.083733e-02	1.222442e+00	6.058841e+01	-1.502025e-05	2.540505e+05	1.010196e+05	2.878776e+02	1.457164e-01	-2.547638e-01	0.000000e+00	
-1.030540e-01	2.477423e-03	1.222443e+00	6.058827e+01	2.346703e-05	2.540507e+05	1.010197e+05	2.878776e+02	1.457160e-01	-2.546964e-01	0.000000e+00	