TITLE = "SU2 Simulation"
VARIABLES = "Iteration","CL","CD","CSF","CMx","CMy","CMz","CFx","CFy","CFz","CL/CD","AoA","Custom_ObjFunc","Res_Flow[0]","Res_Flow[1]","Res_Flow[2]","Res_Flow[3]","Res_Flow[4]","Linear_Solver_Iterations","CFL_Number","Time(min)"
ZONE T= "Convergence history"
           0, 0.00000000e+00, 0.00000000e+00, 0.00000000e+00, 0.00000000e+00, 0.00000000e+00, 0.00000000e+00, 0.00000000e+00, 0.00000000e+00, 0.00000000e+00, 0.00000000e+00, 0.00000000e+00, 0.00000000e+00, -3.44269318e+00, -9.70552696e-01, -1.36462793e+01, 1.99774660e+00, 0.00000000e+00, 5.0000000000, 6.0000000000, 0.0003526667
           1, 0.00000000e+00, 0.00000000e+00, 0.00000000e+00, 0.00000000e+00, 0.00000000e+00, 0.00000000e+00, 0.00000000e+00, 0.00000000e+00, 0.00000000e+00, 0.00000000e+00, 0.00000000e+00, 0.00000000e+00, -3.68954461e+00, -1.22212412e+00, -3.07231668e+00, 1.75278863e+00, 0.00000000e+00, 5.0000000000, 6.0000000000, 0.0007331333
           2, 0.00000000e+00, 0.00000000e+00, 0.00000000e+00, 0.00000000e+00, 0.00000000e+00, 0.00000000e+00, 0.00000000e+00, 0.00000000e+00, 0.00000000e+00, 0.00000000e+00, 0.00000000e+00, 0.00000000e+00, -3.62287717e+00, -1.07594840e+00, -1.88988560e+00, 1.84624402e+00, 0.00000000e+00, 5.0000000000, 6.0000000000, 0.0010949167
           3, 0.00000000e+00, 0.00000000e+00, 0.00000000e+00, 0.00000000e+00, 0.00000000e+00, 0.00000000e+00, 0.00000000e+00, 0.00000000e+00, 0.00000000e+00, 0.00000000e+00, 0.00000000e+00, 0.00000000e+00, -3.54764496e+00, -9.83707635e-01, -1.62164712e+00, 1.92826869e+00, 0.00000000e+00, 5.0000000000, 6.0000000000, 0.0014144500
           4, 0.00000000e+00, 0.00000000e+00, 0.00000000e+00, 0.00000000e+00, 0.00000000e+00, 0.00000000e+00, 0.00000000e+00, 0.00000000e+00, 0.00000000e+00, 0.00000000e+00, 0.00000000e+00, 0.00000000e+00, -3.54011005e+00, -9.72054625e-01, -1.47600305e+00, 1.93779400e+00, 0.00000000e+00, 5.0000000000, 6.0000000000, 0.0017776167
           5, 0.00000000e+00, 0.00000000e+00, 0.00000000e+00, 0.00000000e+00, 0.00000000e+00, 0.00000000e+00, 0.00000000e+00, 0.00000000e+00, 0.00000000e+00, 0.00000000e+00, 0.00000000e+00, 0.00000000e+00, -3.55932755e+00, -9.89558681e-01, -1.38036480e+00, 1.91943006e+00, 0.00000000e+00, 5.0000000000, 6.0000000000, 0.0021319167
           6, 0.00000000e+00, 0.00000000e+00, 0.00000000e+00, 0.00000000e+00, 0.00000000e+00, 0.00000000e+00, 0.00000000e+00, 0.00000000e+00, 0.00000000e+00, 0.00000000e+00, 0.00000000e+00, 0.00000000e+00, -3.58611297e+00, -1.01620928e+00, -1.31178608e+00, 1.89282967e+00, 0.00000000e+00, 5.0000000000, 6.0000000000, 0.0024627500
           7, 0.00000000e+00, 0.00000000e+00, 0.00000000e+00, 0.00000000e+00, 0.00000000e+00, 0.00000000e+00, 0.00000000e+00, 0.00000000e+00, 0.00000000e+00, 0.00000000e+00, 0.00000000e+00, 0.00000000e+00, -3.61272665e+00, -1.04369397e+00, -1.25999772e+00, 1.86601249e+00, 0.00000000e+00, 5.0000000000, 6.0000000000, 0.0027965667
           8, 0.00000000e+00, 0.00000000e+00, 0.00000000e+00, 0.00000000e+00, 0.00000000e+00, 0.00000000e+00, 0.00000000e+00, 0.00000000e+00, 0.00000000e+00, 0.00000000e+00, 0.00000000e+00, 0.00000000e+00, -3.63634622e+00, -1.06839092e+00, -1.21953642e+00, 1.84206660e+00, 0.00000000e+00, 5.0000000000, 6.0000000000, 0.0031356667
           9, 0.00000000e+00, 0.00000000e+00, 0.00000000e+00, 0.00000000e+00, 0.00000000e+00, 0.00000000e+00, 0.00000000e+00, 0.00000000e+00, 0.00000000e+00, 0.00000000e+00, 0.00000000e+00, 0.00000000e+00, -3.65599128e+00, -1.08879467e+00, -1.18716265e+00, 1.82214021e+00, 0.00000000e+00, 5.0000000000, 6.0000000000, 0.0034612833
          10, 0.00000000e+00, 0.00000000e+00, 0.00000000e+00, 0.00000000e+00, 0.00000000e+00, 0.00000000e+00, 0.00000000e+00, 0.00000000e+00, 0.00000000e+00, 0.00000000e+00, 0.00000000e+00, 0.00000000e+00, -3.67150355e+00, -1.10465421e+00, -1.16079564e+00, 1.80644672e+00, 0.00000000e+00, 5.0000000000, 6.0000000000, 0.0038018000
          11, 0.00000000e+00, 0.00000000e+00, 0.00000000e+00, 0.00000000e+00, 0.00000000e+00, 0.00000000e+00, 0.00000000e+00, 0.00000000e+00, 0.00000000e+00, 0.00000000e+00, 0.00000000e+00, 0.00000000e+00, -3.68328475e+00, -1.11665394e+00, -1.13900885e+00, 1.79456168e+00, 0.00000000e+00, 5.0000000000, 6.0000000000, 0.0041485500
          12, 0.00000000e+00, 0.00000000e+00, 0.00000000e+00, 0.00000000e+00, 0.00000000e+00, 0.00000000e+00, 0.00000000e+00, 0.00000000e+00, 0.00000000e+00, 0.00000000e+00, 0.00000000e+00, 0.00000000e+00, -3.69199811e+00, -1.12609609e+00, -1.12078668e+00, 1.78576170e+00, 0.00000000e+00, 5.0000000000, 6.0000000000, 0.0044871667
          13, 0.00000000e+00, 0.00000000e+00, 0.00000000e+00, 0.00000000e+00, 0.00000000e+00, 0.00000000e+00, 0.00000000e+00, 0.00000000e+00, 0.00000000e+00, 0.00000000e+00, 0.00000000e+00, 0.00000000e+00, -3.69812104e+00, -1.13456472e+00, -1.10538441e+00, 1.77949696e+00, 0.00000000e+00, 5.0000000000, 6.0000000000, 0.0048107167
          14, 0.00000000e+00, 0.00000000e+00, 0.00000000e+00, 0.00000000e+00, 0.00000000e+00, 0.00000000e+00, 0.00000000e+00, 0.00000000e+00, 0.00000000e+00, 0.00000000e+00, 0.00000000e+00, 0.00000000e+00, -3.70158099e+00, -1.14374538e+00, -1.09224605e+00, 1.77576380e+00, 0.00000000e+00, 5.0000000000, 6.0000000000, 0.0051550000
          15, 0.00000000e+00, 0.00000000e+00, 0.00000000e+00, 0.00000000e+00, 0.00000000e+00, 0.00000000e+00, 0.00000000e+00, 0.00000000e+00, 0.00000000e+00, 0.00000000e+00, 0.00000000e+00, 0.00000000e+00, -3.70171037e+00, -1.15542661e+00, -1.08095015e+00, 1.77515695e+00, 0.00000000e+00, 5.0000000000, 6.0000000000, 0.0054726667
          16, 0.00000000e+00, 0.00000000e+00, 0.00000000e+00, 0.00000000e+00, 0.00000000e+00, 0.00000000e+00, 0.00000000e+00, 0.00000000e+00, 0.00000000e+00, 0.00000000e+00, 0.00000000e+00, 0.00000000e+00, -3.69763663e+00, -1.17153484e+00, -1.07117309e+00, 1.77850440e+00, 0.00000000e+00, 5.0000000000, 6.0000000000, 0.0058221333
          17, 0.00000000e+00, 0.00000000e+00, 0.00000000e+00, 0.00000000e+00, 0.00000000e+00, 0.00000000e+00, 0.00000000e+00, 0.00000000e+00, 0.00000000e+00, 0.00000000e+00, 0.00000000e+00, 0.00000000e+00, -3.68901687e+00, -1.19403607e+00, -1.06266567e+00, 1.78617143e+00, 0.00000000e+00, 5.0000000000, 6.0000000000, 0.0061670833
          18, 0.00000000e+00, 0.00000000e+00, 0.00000000e+00, 0.00000000e+00, 0.00000000e+00, 0.00000000e+00, 0.00000000e+00, 0.00000000e+00, 0.00000000e+00, 0.00000000e+00, 0.00000000e+00, 0.00000000e+00, -3.67671542e+00, -1.22459116e+00, -1.05523647e+00, 1.79739913e+00, 0.00000000e+00, 5.0000000000, 6.0000000000, 0.0065172833
          19, 0.00000000e+00, 0.00000000e+00, 0.00000000e+00, 0.00000000e+00, 0.00000000e+00, 0.00000000e+00, 0.00000000e+00, 0.00000000e+00, 0.00000000e+00, 0.00000000e+00, 0.00000000e+00, 0.00000000e+00, -3.66291621e+00, -1.26381524e+00, -1.04873430e+00, 1.81015661e+00, 0.00000000e+00, 5.0000000000, 6.0000000000, 0.0068378167
          20, 0.00000000e+00, 0.00000000e+00, 0.00000000e+00, 0.00000000e+00, 0.00000000e+00, 0.00000000e+00, 0.00000000e+00, 0.00000000e+00, 0.00000000e+00, 0.00000000e+00, 0.00000000e+00, 0.00000000e+00, -3.65057420e+00, -1.30983100e+00, -1.04303330e+00, 1.82162812e+00, 0.00000000e+00, 5.0000000000, 6.0000000000, 0.0071626667
          21, 0.00000000e+00, 0.00000000e+00, 0.00000000e+00, 0.00000000e+00, 0.00000000e+00, 0.00000000e+00, 0.00000000e+00, 0.00000000e+00, 0.00000000e+00, 0.00000000e+00, 0.00000000e+00, 0.00000000e+00, -3.64262611e+00, -1.35589293e+00, -1.03802665e+00, 1.82896566e+00, 0.00000000e+00, 5.0000000000, 6.0000000000, 0.0075004167
          22, 0.00000000e+00, 0.00000000e+00, 0.00000000e+00, 0.00000000e+00, 0.00000000e+00, 0.00000000e+00, 0.00000000e+00, 0.00000000e+00, 0.00000000e+00, 0.00000000e+00, 0.00000000e+00, 0.00000000e+00, -3.64140995e+00, -1.38883791e+00, -1.03362308e+00, 1.82987270e+00, 0.00000000e+00, 5.0000000000, 6.0000000000, 0.0078380167
          23, 0.00000000e+00, 0.00000000e+00, 0.00000000e+00, 0.00000000e+00, 0.00000000e+00, 0.00000000e+00, 0.00000000e+00, 0.00000000e+00, 0.00000000e+00, 0.00000000e+00, 0.00000000e+00, 0.00000000e+00, -3.64841458e+00, -1.39470661e+00, -1.02974552e+00, 1.82287750e+00, 0.00000000e+00, 5.0000000000, 6.0000000000, 0.0081599333
          24, 0.00000000e+00, 0.00000000e+00, 0.00000000e+00, 0.00000000e+00, 0.00000000e+00, 0.00000000e+00, 0.00000000e+00, 0.00000000e+00, 0.00000000e+00, 0.00000000e+00, 0.00000000e+00, 0.00000000e+00, -3.66423586e+00, -1.37199529e+00, -1.02633070e+00, 1.80739795e+00, 0.00000000e+00, 5.0000000000, 6.0000000000, 0.0084985667
          25, 0.00000000e+00, 0.00000000e+00, 0.00000000e+00, 0.00000000e+00, 0.00000000e+00, 0.00000000e+00, 0.00000000e+00, 0.00000000e+00, 0.00000000e+00, 0.00000000e+00, 0.00000000e+00, 0.00000000e+00, -3.68858245e+00, -1.33336754e+00, -1.02332651e+00, 1.78374530e+00, 0.00000000e+00, 5.0000000000, 6.0000000000, 0.0088147833
          26, 0.00000000e+00, 0.00000000e+00, 0.00000000e+00, 0.00000000e+00, 0.00000000e+00, 0.00000000e+00, 0.00000000e+00, 0.00000000e+00, 0.00000000e+00, 0.00000000e+00, 0.00000000e+00, 0.00000000e+00, -3.72024679e+00, -1.29278250e+00, -1.02068943e+00, 1.75314753e+00, 0.00000000e+00, 5.0000000000, 6.0000000000, 0.0091405333
          27, 0.00000000e+00, 0.00000000e+00, 0.00000000e+00, 0.00000000e+00, 0.00000000e+00, 0.00000000e+00, 0.00000000e+00, 0.00000000e+00, 0.00000000e+00, 0.00000000e+00, 0.00000000e+00, 0.00000000e+00, -3.75705841e+00, -1.25809888e+00, -1.01838245e+00, 1.71777062e+00, 0.00000000e+00, 5.0000000000, 6.0000000000, 0.0094735833
          28, 0.00000000e+00, 0.00000000e+00, 0.00000000e+00, 0.00000000e+00, 0.00000000e+00, 0.00000000e+00, 0.00000000e+00, 0.00000000e+00, 0.00000000e+00, 0.00000000e+00, 0.00000000e+00, 0.00000000e+00, -3.79596256e+00, -1.23195401e+00, -1.01637304e+00, 1.68059481e+00, 0.00000000e+00, 5.0000000000, 6.0000000000, 0.0098167333
          29, 0.00000000e+00, 0.00000000e+00, 0.00000000e+00, 0.00000000e+00, 0.00000000e+00, 0.00000000e+00, 0.00000000e+00, 0.00000000e+00, 0.00000000e+00, 0.00000000e+00, 0.00000000e+00, 0.00000000e+00, -3.83347859e+00, -1.21418990e+00, -1.01463271e+00, 1.64491439e+00, 0.00000000e+00, 5.0000000000, 6.0000000000, 0.0101428833
          30, 0.00000000e+00, 0.00000000e+00, 0.00000000e+00, 0.00000000e+00, 0.00000000e+00, 0.00000000e+00, 0.00000000e+00, 0.00000000e+00, 0.00000000e+00, 0.00000000e+00, 0.00000000e+00, 0.00000000e+00, -3.86669586e+00, -1.20338587e+00, -1.01313619e+00, 1.61335918e+00, 0.00000000e+00, 5.0000000000, 6.0000000000, 0.0104686667
          31, 0.00000000e+00, 0.00000000e+00, 0.00000000e+00, 0.00000000e+00, 0.00000000e+00, 0.00000000e+00, 0.00000000e+00, 0.00000000e+00, 0.00000000e+00, 0.00000000e+00, 0.00000000e+00, 0.00000000e+00, -3.89445966e+00, -1.19763880e+00, -1.01186210e+00, 1.58681835e+00, 0.00000000e+00, 5.0000000000, 6.0000000000, 0.0108082000
          32, 0.00000000e+00, 0.00000000e+00, 0.00000000e+00, 0.00000000e+00, 0.00000000e+00, 0.00000000e+00, 0.00000000e+00, 0.00000000e+00, 0.00000000e+00, 0.00000000e+00, 0.00000000e+00, 0.00000000e+00, -3.91789493e+00, -1.19500995e+00, -1.01079236e+00, 1.56403920e+00, 0.00000000e+00, 5.0000000000, 6.0000000000, 0.0111510000
          33, 0.00000000e+00, 0.00000000e+00, 0.00000000e+00, 0.00000000e+00, 0.00000000e+00, 0.00000000e+00, 0.00000000e+00, 0.00000000e+00, 0.00000000e+00, 0.00000000e+00, 0.00000000e+00, 0.00000000e+00, -3.93979297e+00, -1.19386299e+00, -1.00991166e+00, 1.54224701e+00, 0.00000000e+00, 5.0000000000, 6.0000000000, 0.0114745167
          34, 0.00000000e+00, 0.00000000e+00, 0.00000000e+00, 0.00000000e+00, 0.00000000e+00, 0.00000000e+00, 0.00000000e+00, 0.00000000e+00, 0.00000000e+00, 0.00000000e+00, 0.00000000e+00, 0.00000000e+00, -3.96336512e+00, -1.19314310e+00, -1.00920739e+00, 1.51827749e+00, 0.00000000e+00, 5.0000000000, 6.0000000000, 0.0118165833
          35, 0.00000000e+00, 0.00000000e+00, 0.00000000e+00, 0.00000000e+00, 0.00000000e+00, 0.00000000e+00, 0.00000000e+00, 0.00000000e+00, 0.00000000e+00, 0.00000000e+00, 0.00000000e+00, 0.00000000e+00, -3.99111870e+00, -1.19254480e+00, -1.00866905e+00, 1.48956030e+00, 0.00000000e+00, 5.0000000000, 6.0000000000, 0.0121410000
          36, 0.00000000e+00, 0.00000000e+00, 0.00000000e+00, 0.00000000e+00, 0.00000000e+00, 0.00000000e+00, 0.00000000e+00, 0.00000000e+00, 0.00000000e+00, 0.00000000e+00, 0.00000000e+00, 0.00000000e+00, -4.02400802e+00, -1.19250588e+00, -1.00828756e+00, 1.45485251e+00, 0.00000000e+00, 5.0000000000, 6.0000000000, 0.0124722833
          37, 0.00000000e+00, 0.00000000e+00, 0.00000000e+00, 0.00000000e+00, 0.00000000e+00, 0.00000000e+00, 0.00000000e+00, 0.00000000e+00, 0.00000000e+00, 0.00000000e+00, 0.00000000e+00, 0.00000000e+00, -4.06048610e+00, -1.19403444e+00, -1.00805480e+00, 1.41511279e+00, 0.00000000e+00, 5.0000000000, 6.0000000000, 0.0127985500
          38, 0.00000000e+00, 0.00000000e+00, 0.00000000e+00, 0.00000000e+00, 0.00000000e+00, 0.00000000e+00, 0.00000000e+00, 0.00000000e+00, 0.00000000e+00, 0.00000000e+00, 0.00000000e+00, 0.00000000e+00, -4.09522369e+00, -1.19845404e+00, -1.00796328e+00, 1.37490816e+00, 0.00000000e+00, 5.0000000000, 6.0000000000, 0.0131365833
          39, 0.00000000e+00, 0.00000000e+00, 0.00000000e+00, 0.00000000e+00, 0.00000000e+00, 0.00000000e+00, 0.00000000e+00, 0.00000000e+00, 0.00000000e+00, 0.00000000e+00, 0.00000000e+00, 0.00000000e+00, -4.11862449e+00, -1.20716985e+00, -1.00800539e+00, 1.34368013e+00, 0.00000000e+00, 5.0000000000, 6.0000000000, 0.0134568833
          40, 0.00000000e+00, 0.00000000e+00, 0.00000000e+00, 0.00000000e+00, 0.00000000e+00, 0.00000000e+00, 0.00000000e+00, 0.00000000e+00, 0.00000000e+00, 0.00000000e+00, 0.00000000e+00, 0.00000000e+00, -4.12050387e+00, -1.22151531e+00, -1.00817291e+00, 1.33340566e+00, 0.00000000e+00, 5.0000000000, 6.0000000000, 0.0137974333
          41, 0.00000000e+00, 0.00000000e+00, 0.00000000e+00, 0.00000000e+00, 0.00000000e+00, 0.00000000e+00, 0.00000000e+00, 0.00000000e+00, 0.00000000e+00, 0.00000000e+00, 0.00000000e+00, 0.00000000e+00, -4.09820014e+00, -1.24268449e+00, -1.00845661e+00, 1.34986894e+00, 0.00000000e+00, 5.0000000000, 6.0000000000, 0.0141151333
          42, 0.00000000e+00, 0.00000000e+00, 0.00000000e+00, 0.00000000e+00, 0.00000000e+00, 0.00000000e+00, 0.00000000e+00, 0.00000000e+00, 0.00000000e+00, 0.00000000e+00, 0.00000000e+00, 0.00000000e+00, -4.05934863e+00, -1.27172290e+00, -1.00884589e+00, 1.38668702e+00, 0.00000000e+00, 5.0000000000, 6.0000000000, 0.0144443833
          43, 0.00000000e+00, 0.00000000e+00, 0.00000000e+00, 0.00000000e+00, 0.00000000e+00, 0.00000000e+00, 0.00000000e+00, 0.00000000e+00, 0.00000000e+00, 0.00000000e+00, 0.00000000e+00, 0.00000000e+00, -4.01498988e+00, -1.30953866e+00, -1.00932859e+00, 1.43162076e+00, 0.00000000e+00, 5.0000000000, 6.0000000000, 0.0147736000
          44, 0.00000000e+00, 0.00000000e+00, 0.00000000e+00, 0.00000000e+00, 0.00000000e+00, 0.00000000e+00, 0.00000000e+00, 0.00000000e+00, 0.00000000e+00, 0.00000000e+00, 0.00000000e+00, 0.00000000e+00, -3.97318746e+00, -1.35689022e+00, -1.00989122e+00, 1.47504252e+00, 0.00000000e+00, 5.0000000000, 6.0000000000, 0.0151189333
          45, 0.00000000e+00, 0.00000000e+00, 0.00000000e+00, 0.00000000e+00, 0.00000000e+00, 0.00000000e+00, 0.00000000e+00, 0.00000000e+00, 0.00000000e+00, 0.00000000e+00, 0.00000000e+00, 0.00000000e+00, -3.93806135e+00, -1.41428077e+00, -1.01051910e+00, 1.51192373e+00, 0.00000000e+00, 5.0000000000, 6.0000000000, 0.0154442667
          46, 0.00000000e+00, 0.00000000e+00, 0.00000000e+00, 0.00000000e+00, 0.00000000e+00, 0.00000000e+00, 0.00000000e+00, 0.00000000e+00, 0.00000000e+00, 0.00000000e+00, 0.00000000e+00, 0.00000000e+00, -3.91113157e+00, -1.48161091e+00, -1.01119701e+00, 1.54037439e+00, 0.00000000e+00, 5.0000000000, 6.0000000000, 0.0157776500
          47, 0.00000000e+00, 0.00000000e+00, 0.00000000e+00, 0.00000000e+00, 0.00000000e+00, 0.00000000e+00, 0.00000000e+00, 0.00000000e+00, 0.00000000e+00, 0.00000000e+00, 0.00000000e+00, 0.00000000e+00, -3.89256249e+00, -1.55726642e+00, -1.01190990e+00, 1.56011961e+00, 0.00000000e+00, 5.0000000000, 6.0000000000, 0.0161200000
          48, 0.00000000e+00, 0.00000000e+00, 0.00000000e+00, 0.00000000e+00, 0.00000000e+00, 0.00000000e+00, 0.00000000e+00, 0.00000000e+00, 0.00000000e+00, 0.00000000e+00, 0.00000000e+00, 0.00000000e+00, -3.88187137e+00, -1.63610650e+00, -1.01264360e+00, 1.57162925e+00, 0.00000000e+00, 5.0000000000, 6.0000000000, 0.0164634833
          49, 0.00000000e+00, 0.00000000e+00, 0.00000000e+00, 0.00000000e+00, 0.00000000e+00, 0.00000000e+00, 0.00000000e+00, 0.00000000e+00, 0.00000000e+00, 0.00000000e+00, 0.00000000e+00, 0.00000000e+00, -3.87826864e+00, -1.70648591e+00, -1.01338552e+00, 1.57570834e+00, 0.00000000e+00, 5.0000000000, 6.0000000000, 0.0167843167
          50, 0.00000000e+00, 0.00000000e+00, 0.00000000e+00, 0.00000000e+00, 0.00000000e+00, 0.00000000e+00, 0.00000000e+00, 0.00000000e+00, 0.00000000e+00, 0.00000000e+00, 0.00000000e+00, 0.00000000e+00, -3.88080769e+00, -1.75082061e+00, -1.01412514e+00, 1.57332209e+00, 0.00000000e+00, 5.0000000000, 6.0000000000, 0.0171287000
          51, 0.00000000e+00, 0.00000000e+00, 0.00000000e+00, 0.00000000e+00, 0.00000000e+00, 0.00000000e+00, 0.00000000e+00, 0.00000000e+00, 0.00000000e+00, 0.00000000e+00, 0.00000000e+00, 0.00000000e+00, -3.88844859e+00, -1.75791638e+00, -1.01485437e+00, 1.56552604e+00, 0.00000000e+00, 5.0000000000, 6.0000000000, 0.0174692000
          52, 0.00000000e+00, 0.00000000e+00, 0.00000000e+00, 0.00000000e+00, 0.00000000e+00, 0.00000000e+00, 0.00000000e+00, 0.00000000e+00, 0.00000000e+00, 0.00000000e+00, 0.00000000e+00, 0.00000000e+00, -3.90008996e+00, -1.73540537e+00, -1.01556766e+00, 1.55343577e+00, 0.00000000e+00, 5.0000000000, 6.0000000000, 0.0178103833
          53, 0.00000000e+00, 0.00000000e+00, 0.00000000e+00, 0.00000000e+00, 0.00000000e+00, 0.00000000e+00, 0.00000000e+00, 0.00000000e+00, 0.00000000e+00, 0.00000000e+00, 0.00000000e+00, 0.00000000e+00, -3.91459805e+00, -1.70025084e+00, -1.01626184e+00, 1.53820296e+00, 0.00000000e+00, 5.0000000000, 6.0000000000, 0.0181409500
          54, 0.00000000e+00, 0.00000000e+00, 0.00000000e+00, 0.00000000e+00, 0.00000000e+00, 0.00000000e+00, 0.00000000e+00, 0.00000000e+00, 0.00000000e+00, 0.00000000e+00, 0.00000000e+00, 0.00000000e+00, -3.93084877e+00, -1.66465272e+00, -1.01693573e+00, 1.52097934e+00, 0.00000000e+00, 5.0000000000, 6.0000000000, 0.0184881167
          55, 0.00000000e+00, 0.00000000e+00, 0.00000000e+00, 0.00000000e+00, 0.00000000e+00, 0.00000000e+00, 0.00000000e+00, 0.00000000e+00, 0.00000000e+00, 0.00000000e+00, 0.00000000e+00, 0.00000000e+00, -3.94778812e+00, -1.63394300e+00, -1.01758983e+00, 1.50286062e+00, 0.00000000e+00, 5.0000000000, 6.0000000000, 0.0188128167
          56, 0.00000000e+00, 0.00000000e+00, 0.00000000e+00, 0.00000000e+00, 0.00000000e+00, 0.00000000e+00, 0.00000000e+00, 0.00000000e+00, 0.00000000e+00, 0.00000000e+00, 0.00000000e+00, 0.00000000e+00, -3.96450580e+00, -1.60949793e+00, -1.01822585e+00, 1.48481318e+00, 0.00000000e+00, 5.0000000000, 6.0000000000, 0.0191445667
          57, 0.00000000e+00, 0.00000000e+00, 0.00000000e+00, 0.00000000e+00, 0.00000000e+00, 0.00000000e+00, 0.00000000e+00, 0.00000000e+00, 0.00000000e+00, 0.00000000e+00, 0.00000000e+00, 0.00000000e+00, -3.98030553e+00, -1.59100571e+00, -1.01884606e+00, 1.46759834e+00, 0.00000000e+00, 5.0000000000, 6.0000000000, 0.0194981833
          58, 0.00000000e+00, 0.00000000e+00, 0.00000000e+00, 0.00000000e+00, 0.00000000e+00, 0.00000000e+00, 0.00000000e+00, 0.00000000e+00, 0.00000000e+00, 0.00000000e+00, 0.00000000e+00, 0.00000000e+00, -3.99475024e+00, -1.57756309e+00, -1.01945291e+00, 1.45171673e+00, 0.00000000e+00, 5.0000000000, 6.0000000000, 0.0199151500
          59, 0.00000000e+00, 0.00000000e+00, 0.00000000e+00, 0.00000000e+00, 0.00000000e+00, 0.00000000e+00, 0.00000000e+00, 0.00000000e+00, 0.00000000e+00, 0.00000000e+00, 0.00000000e+00, 0.00000000e+00, -4.00766488e+00, -1.56813797e+00, -1.02004872e+00, 1.43739401e+00, 0.00000000e+00, 5.0000000000, 6.0000000000, 0.0203067333
          60, 0.00000000e+00, 0.00000000e+00, 0.00000000e+00, 0.00000000e+00, 0.00000000e+00, 0.00000000e+00, 0.00000000e+00, 0.00000000e+00, 0.00000000e+00, 0.00000000e+00, 0.00000000e+00, 0.00000000e+00, -4.01909403e+00, -1.56175888e+00, -1.02063507e+00, 1.42461508e+00, 0.00000000e+00, 5.0000000000, 6.0000000000, 0.0207214167
          61, 0.00000000e+00, 0.00000000e+00, 0.00000000e+00, 0.00000000e+00, 0.00000000e+00, 0.00000000e+00, 0.00000000e+00, 0.00000000e+00, 0.00000000e+00, 0.00000000e+00, 0.00000000e+00, 0.00000000e+00, -4.02922802e+00, -1.55759404e+00, -1.02121277e+00, 1.41319634e+00, 0.00000000e+00, 5.0000000000, 6.0000000000, 0.0210942500
          62, 0.00000000e+00, 0.00000000e+00, 0.00000000e+00, 0.00000000e+00, 0.00000000e+00, 0.00000000e+00, 0.00000000e+00, 0.00000000e+00, 0.00000000e+00, 0.00000000e+00, 0.00000000e+00, 0.00000000e+00, -4.03831988e+00, -1.55498365e+00, -1.02178168e+00, 1.40287322e+00, 0.00000000e+00, 5.0000000000, 6.0000000000, 0.0214885333
          63, 0.00000000e+00, 0.00000000e+00, 0.00000000e+00, 0.00000000e+00, 0.00000000e+00, 0.00000000e+00, 0.00000000e+00, 0.00000000e+00, 0.00000000e+00, 0.00000000e+00, 0.00000000e+00, 0.00000000e+00, -4.04661380e+00, -1.55344813e+00, -1.02234076e+00, 1.39337990e+00, 0.00000000e+00, 5.0000000000, 6.0000000000, 0.0218769333
          64, 0.00000000e+00, 0.00000000e+00, 0.00000000e+00, 0.00000000e+00, 0.00000000e+00, 0.00000000e+00, 0.00000000e+00, 0.00000000e+00, 0.00000000e+00, 0.00000000e+00, 0.00000000e+00, 0.00000000e+00, -4.05429704e+00, -1.55267992e+00, -1.02288801e+00, 1.38450607e+00, 0.00000000e+00, 5.0000000000, 6.0000000000, 0.0222738167
          65, 0.00000000e+00, 0.00000000e+00, 0.00000000e+00, 0.00000000e+00, 0.00000000e+00, 0.00000000e+00, 0.00000000e+00, 0.00000000e+00, 0.00000000e+00, 0.00000000e+00, 0.00000000e+00, 0.00000000e+00, -4.06147809e+00, -1.55252228e+00, -1.02342062e+00, 1.37612599e+00, 0.00000000e+00, 5.0000000000, 6.0000000000, 0.0226577500
          66, 0.00000000e+00, 0.00000000e+00, 0.00000000e+00, 0.00000000e+00, 0.00000000e+00, 0.00000000e+00, 0.00000000e+00, 0.00000000e+00, 0.00000000e+00, 0.00000000e+00, 0.00000000e+00, 0.00000000e+00, -4.06818808e+00, -1.55293904e+00, -1.02393509e+00, 1.36820190e+00, 0.00000000e+00, 5.0000000000, 6.0000000000, 0.0230609667
          67, 0.00000000e+00, 0.00000000e+00, 0.00000000e+00, 0.00000000e+00, 0.00000000e+00, 0.00000000e+00, 0.00000000e+00, 0.00000000e+00, 0.00000000e+00, 0.00000000e+00, 0.00000000e+00, 0.00000000e+00, -4.07439950e+00, -1.55398007e+00, -1.02442744e+00, 1.36076745e+00, 0.00000000e+00, 5.0000000000, 6.0000000000, 0.0234402833
          68, 0.00000000e+00, 0.00000000e+00, 0.00000000e+00, 0.00000000e+00, 0.00000000e+00, 0.00000000e+00, 0.00000000e+00, 0.00000000e+00, 0.00000000e+00, 0.00000000e+00, 0.00000000e+00, 0.00000000e+00, -4.08005618e+00, -1.55574756e+00, -1.02489338e+00, 1.35389739e+00, 0.00000000e+00, 5.0000000000, 6.0000000000, 0.0238643333
          69, 0.00000000e+00, 0.00000000e+00, 0.00000000e+00, 0.00000000e+00, 0.00000000e+00, 0.00000000e+00, 0.00000000e+00, 0.00000000e+00, 0.00000000e+00, 0.00000000e+00, 0.00000000e+00, 0.00000000e+00, -4.08510810e+00, -1.55836716e+00, -1.02532858e+00, 1.34767006e+00, 0.00000000e+00, 5.0000000000, 6.0000000000, 0.0242582000
          70, 0.00000000e+00, 0.00000000e+00, 0.00000000e+00, 0.00000000e+00, 0.00000000e+00, 0.00000000e+00, 0.00000000e+00, 0.00000000e+00, 0.00000000e+00, 0.00000000e+00, 0.00000000e+00, 0.00000000e+00, -4.08954494e+00, -1.56196606e+00, -1.02572891e+00, 1.34212918e+00, 0.00000000e+00, 5.0000000000, 6.0000000000, 0.0246593000
          71, 0.00000000e+00, 0.00000000e+00, 0.00000000e+00, 0.00000000e+00, 0.00000000e+00, 0.00000000e+00, 0.00000000e+00, 0.00000000e+00, 0.00000000e+00, 0.00000000e+00, 0.00000000e+00, 0.00000000e+00, -4.09342284e+00, -1.56665865e+00, -1.02609073e+00, 1.33725145e+00, 0.00000000e+00, 5.0000000000, 6.0000000000, 0.0250277333
          72, 0.00000000e+00, 0.00000000e+00, 0.00000000e+00, 0.00000000e+00, 0.00000000e+00, 0.00000000e+00, 0.00000000e+00, 0.00000000e+00, 0.00000000e+00, 0.00000000e+00, 0.00000000e+00, 0.00000000e+00, -4.09688052e+00, -1.57253870e+00, -1.02641112e+00, 1.33292486e+00, 0.00000000e+00, 5.0000000000, 6.0000000000, 0.0254246333
          73, 0.00000000e+00, 0.00000000e+00, 0.00000000e+00, 0.00000000e+00, 0.00000000e+00, 0.00000000e+00, 0.00000000e+00, 0.00000000e+00, 0.00000000e+00, 0.00000000e+00, 0.00000000e+00, 0.00000000e+00, -4.10014301e+00, -1.57967651e+00, -1.02668816e+00, 1.32894080e+00, 0.00000000e+00, 5.0000000000, 6.0000000000, 0.0257978833
          74, 0.00000000e+00, 0.00000000e+00, 0.00000000e+00, 0.00000000e+00, 0.00000000e+00, 0.00000000e+00, 0.00000000e+00, 0.00000000e+00, 0.00000000e+00, 0.00000000e+00, 0.00000000e+00, 0.00000000e+00, -4.10351452e+00, -1.58811908e+00, -1.02692114e+00, 1.32499923e+00, 0.00000000e+00, 5.0000000000, 6.0000000000, 0.0261911667
          75, 0.00000000e+00, 0.00000000e+00, 0.00000000e+00, 0.00000000e+00, 0.00000000e+00, 0.00000000e+00, 0.00000000e+00, 0.00000000e+00, 0.00000000e+00, 0.00000000e+00, 0.00000000e+00, 0.00000000e+00, -4.10736376e+00, -1.59789142e+00, -1.02711071e+00, 1.32072358e+00, 0.00000000e+00, 5.0000000000, 6.0000000000, 0.0265899833
          76, 0.00000000e+00, 0.00000000e+00, 0.00000000e+00, 0.00000000e+00, 0.00000000e+00, 0.00000000e+00, 0.00000000e+00, 0.00000000e+00, 0.00000000e+00, 0.00000000e+00, 0.00000000e+00, 0.00000000e+00, -4.11210644e+00, -1.60899741e+00, -1.02725898e+00, 1.31568043e+00, 0.00000000e+00, 5.0000000000, 6.0000000000, 0.0269999167
          77, 0.00000000e+00, 0.00000000e+00, 0.00000000e+00, 0.00000000e+00, 0.00000000e+00, 0.00000000e+00, 0.00000000e+00, 0.00000000e+00, 0.00000000e+00, 0.00000000e+00, 0.00000000e+00, 0.00000000e+00, -4.11818890e+00, -1.62141902e+00, -1.02736953e+00, 1.30939869e+00, 0.00000000e+00, 5.0000000000, 6.0000000000, 0.0273862667
          78, 0.00000000e+00, 0.00000000e+00, 0.00000000e+00, 0.00000000e+00, 0.00000000e+00, 0.00000000e+00, 0.00000000e+00, 0.00000000e+00, 0.00000000e+00, 0.00000000e+00, 0.00000000e+00, 0.00000000e+00, -4.12607582e+00, -1.63511300e+00, -1.02744730e+00, 1.30138498e+00, 0.00000000e+00, 5.0000000000, 6.0000000000, 0.0277744833
          79, 0.00000000e+00, 0.00000000e+00, 0.00000000e+00, 0.00000000e+00, 0.00000000e+00, 0.00000000e+00, 0.00000000e+00, 0.00000000e+00, 0.00000000e+00, 0.00000000e+00, 0.00000000e+00, 0.00000000e+00, -4.13624337e+00, -1.65000492e+00, -1.02749846e+00, 1.29113307e+00, 0.00000000e+00, 5.0000000000, 6.0000000000, 0.0281367333
          80, 0.00000000e+00, 0.00000000e+00, 0.00000000e+00, 0.00000000e+00, 0.00000000e+00, 0.00000000e+00, 0.00000000e+00, 0.00000000e+00, 0.00000000e+00, 0.00000000e+00, 0.00000000e+00, 0.00000000e+00, -4.14917772e+00, -1.66598086e+00, -1.02753012e+00, 1.27812753e+00, 0.00000000e+00, 5.0000000000, 6.0000000000, 0.0285217667
          81, 0.00000000e+00, 0.00000000e+00, 0.00000000e+00, 0.00000000e+00, 0.00000000e+00, 0.00000000e+00, 0.00000000e+00, 0.00000000e+00, 0.00000000e+00, 0.00000000e+00, 0.00000000e+00, 0.00000000e+00, -4.16537814e+00, -1.68287793e+00, -1.02754998e+00, 1.26184272e+00, 0.00000000e+00, 5.0000000000, 6.0000000000, 0.0288918333
          82, 0.00000000e+00, 0.00000000e+00, 0.00000000e+00, 0.00000000e+00, 0.00000000e+00, 0.00000000e+00, 0.00000000e+00, 0.00000000e+00, 0.00000000e+00, 0.00000000e+00, 0.00000000e+00, 0.00000000e+00, -4.18536272e+00, -1.70047582e+00, -1.02756596e+00, 1.24173969e+00, 0.00000000e+00, 5.0000000000, 6.0000000000, 0.0293114667
          83, 0.00000000e+00, 0.00000000e+00, 0.00000000e+00, 0.00000000e+00, 0.00000000e+00, 0.00000000e+00, 0.00000000e+00, 0.00000000e+00, 0.00000000e+00, 0.00000000e+00, 0.00000000e+00, 0.00000000e+00, -4.20967406e+00, -1.71849225e+00, -1.02758586e+00, 1.21726566e+00, 0.00000000e+00, 5.0000000000, 6.0000000000, 0.0297313167
          84, 0.00000000e+00, 0.00000000e+00, 0.00000000e+00, 0.00000000e+00, 0.00000000e+00, 0.00000000e+00, 0.00000000e+00, 0.00000000e+00, 0.00000000e+00, 0.00000000e+00, 0.00000000e+00, 0.00000000e+00, -4.23887893e+00, -1.73658616e+00, -1.02761686e+00, 1.18786479e+00, 0.00000000e+00, 5.0000000000, 6.0000000000, 0.0301124333
          85, 0.00000000e+00, 0.00000000e+00, 0.00000000e+00, 0.00000000e+00, 0.00000000e+00, 0.00000000e+00, 0.00000000e+00, 0.00000000e+00, 0.00000000e+00, 0.00000000e+00, 0.00000000e+00, 0.00000000e+00, -4.27354975e+00, -1.75437209e+00, -1.02766524e+00, 1.15301914e+00, 0.00000000e+00, 5.0000000000, 6.0000000000, 0.0304721000
          86, 0.00000000e+00, 0.00000000e+00, 0.00000000e+00, 0.00000000e+00, 0.00000000e+00, 0.00000000e+00, 0.00000000e+00, 0.00000000e+00, 0.00000000e+00, 0.00000000e+00, 0.00000000e+00, 0.00000000e+00, -4.31419956e+00, -1.77144742e+00, -1.02773602e+00, 1.11236136e+00, 0.00000000e+00, 5.0000000000, 6.0000000000, 0.0308500667
          87, 0.00000000e+00, 0.00000000e+00, 0.00000000e+00, 0.00000000e+00, 0.00000000e+00, 0.00000000e+00, 0.00000000e+00, 0.00000000e+00, 0.00000000e+00, 0.00000000e+00, 0.00000000e+00, 0.00000000e+00, -4.36110512e+00, -1.78743061e+00, -1.02783273e+00, 1.06595044e+00, 0.00000000e+00, 5.0000000000, 6.0000000000, 0.0312318667
          88, 0.00000000e+00, 0.00000000e+00, 0.00000000e+00, 0.00000000e+00, 0.00000000e+00, 0.00000000e+00, 0.00000000e+00, 0.00000000e+00, 0.00000000e+00, 0.00000000e+00, 0.00000000e+00, 0.00000000e+00, -4.41387352e+00, -1.80200286e+00, -1.02795725e+00, 1.01489415e+00, 0.00000000e+00, 5.0000000000, 6.0000000000, 0.0316284667
          89, 0.00000000e+00, 0.00000000e+00, 0.00000000e+00, 0.00000000e+00, 0.00000000e+00, 0.00000000e+00, 0.00000000e+00, 0.00000000e+00, 0.00000000e+00, 0.00000000e+00, 0.00000000e+00, 0.00000000e+00, -4.47046991e+00, -1.81494142e+00, -1.02810975e+00, 9.62595091e-01, 0.00000000e+00, 5.0000000000, 6.0000000000, 0.0319866833