TITLE = "SU2 Simulation"
VARIABLES = "Iteration","CL","CD","CSF","CMx","CMy","CMz","CFx","CFy","CFz","CL/CD","AoA","Custom_ObjFunc","Res_Flow[0]","Res_Flow[1]","Res_Flow[2]","Res_Flow[3]","Res_Flow[4]","Linear_Solver_Iterations","CFL_Number","Time(min)"
ZONE T= "Convergence history"
           0, 0.00000000e+00, 0.00000000e+00, 0.00000000e+00, 0.00000000e+00, 0.00000000e+00, 0.00000000e+00, 0.00000000e+00, 0.00000000e+00, 0.00000000e+00, 0.00000000e+00, 0.00000000e+00, 0.00000000e+00, -1.68697817e+01, -1.35618770e+01, -1.35544733e+01, -1.14372707e+01, 0.00000000e+00, 5.0000000000, 6.0000000000, 0.0003526667
           1, 0.00000000e+00, 0.00000000e+00, 0.00000000e+00, 0.00000000e+00, 0.00000000e+00, 0.00000000e+00, 0.00000000e+00, 0.00000000e+00, 0.00000000e+00, 0.00000000e+00, 0.00000000e+00, 0.00000000e+00, -1.63861717e+01, -4.07077878e-01, -4.54256596e-01, 1.23872363e+00, 0.00000000e+00, 5.0000000000, 6.0000000000, 0.0007331333
           2, 0.00000000e+00, 0.00000000e+00, 0.00000000e+00, 0.00000000e+00, 0.00000000e+00, 0.00000000e+00, 0.00000000e+00, 0.00000000e+00, 0.00000000e+00, 0.00000000e+00, 0.00000000e+00, 0.00000000e+00, -3.67322119e+00, -4.88439733e-01, -4.78361008e-01, 1.78127344e+00, 0.00000000e+00, 5.0000000000, 6.0000000000, 0.0010949167
           3, 0.00000000e+00, 0.00000000e+00, 0.00000000e+00, 0.00000000e+00, 0.00000000e+00, 0.00000000e+00, 0.00000000e+00, 0.00000000e+00, 0.00000000e+00, 0.00000000e+00, 0.00000000e+00, 0.00000000e+00, -3.47666593e+00, -5.88549254e-01, -5.02235410e-01, 1.97349567e+00, 0.00000000e+00, 5.0000000000, 6.0000000000, 0.0014144500
           4, 0.00000000e+00, 0.00000000e+00, 0.00000000e+00, 0.00000000e+00, 0.00000000e+00, 0.00000000e+00, 0.00000000e+00, 0.00000000e+00, 0.00000000e+00, 0.00000000e+00, 0.00000000e+00, 0.00000000e+00, -3.40107312e+00, -7.04516479e-01, -5.26029071e-01, 2.04835425e+00, 0.00000000e+00, 5.0000000000, 6.0000000000, 0.0017776167
           5, 0.00000000e+00, 0.00000000e+00, 0.00000000e+00, 0.00000000e+00, 0.00000000e+00, 0.00000000e+00, 0.00000000e+00, 0.00000000e+00, 0.00000000e+00, 0.00000000e+00, 0.00000000e+00, 0.00000000e+00, -3.37761207e+00, -8.29372332e-01, -5.49695759e-01, 2.07105422e+00, 0.00000000e+00, 5.0000000000, 6.0000000000, 0.0021319167
           6, 0.00000000e+00, 0.00000000e+00, 0.00000000e+00, 0.00000000e+00, 0.00000000e+00, 0.00000000e+00, 0.00000000e+00, 0.00000000e+00, 0.00000000e+00, 0.00000000e+00, 0.00000000e+00, 0.00000000e+00, -3.38623276e+00, -9.46305614e-01, -5.73023966e-01, 2.06135365e+00, 0.00000000e+00, 5.0000000000, 6.0000000000, 0.0024627500
           7, 0.00000000e+00, 0.00000000e+00, 0.00000000e+00, 0.00000000e+00, 0.00000000e+00, 0.00000000e+00, 0.00000000e+00, 0.00000000e+00, 0.00000000e+00, 0.00000000e+00, 0.00000000e+00, 0.00000000e+00, -3.41705986e+00, -1.03105033e+00, -5.95850783e-01, 2.02916606e+00, 0.00000000e+00, 5.0000000000, 6.0000000000, 0.0027965667
           8, 0.00000000e+00, 0.00000000e+00, 0.00000000e+00, 0.00000000e+00, 0.00000000e+00, 0.00000000e+00, 0.00000000e+00, 0.00000000e+00, 0.00000000e+00, 0.00000000e+00, 0.00000000e+00, 0.00000000e+00, -3.46315671e+00, -1.07589645e+00, -6.18141974e-01, 1.98163278e+00, 0.00000000e+00, 5.0000000000, 6.0000000000, 0.0031356667
           9, 0.00000000e+00, 0.00000000e+00, 0.00000000e+00, 0.00000000e+00, 0.00000000e+00, 0.00000000e+00, 0.00000000e+00, 0.00000000e+00, 0.00000000e+00, 0.00000000e+00, 0.00000000e+00, 0.00000000e+00, -3.51958958e+00, -1.09935305e+00, -6.39965375e-01, 1.92398393e+00, 0.00000000e+00, 5.0000000000, 6.0000000000, 0.0034612833
          10, 0.00000000e+00, 0.00000000e+00, 0.00000000e+00, 0.00000000e+00, 0.00000000e+00, 0.00000000e+00, 0.00000000e+00, 0.00000000e+00, 0.00000000e+00, 0.00000000e+00, 0.00000000e+00, 0.00000000e+00, -3.58397546e+00, -1.12153829e+00, -6.61444623e-01, 1.85884222e+00, 0.00000000e+00, 5.0000000000, 6.0000000000, 0.0038018000
          11, 0.00000000e+00, 0.00000000e+00, 0.00000000e+00, 0.00000000e+00, 0.00000000e+00, 0.00000000e+00, 0.00000000e+00, 0.00000000e+00, 0.00000000e+00, 0.00000000e+00, 0.00000000e+00, 0.00000000e+00, -3.65646694e+00, -1.15143628e+00, -6.82726837e-01, 1.78611721e+00, 0.00000000e+00, 5.0000000000, 6.0000000000, 0.0041485500
          12, 0.00000000e+00, 0.00000000e+00, 0.00000000e+00, 0.00000000e+00, 0.00000000e+00, 0.00000000e+00, 0.00000000e+00, 0.00000000e+00, 0.00000000e+00, 0.00000000e+00, 0.00000000e+00, 0.00000000e+00, -3.73847469e+00, -1.19054721e+00, -7.03962314e-01, 1.70430206e+00, 0.00000000e+00, 5.0000000000, 6.0000000000, 0.0044871667
          13, 0.00000000e+00, 0.00000000e+00, 0.00000000e+00, 0.00000000e+00, 0.00000000e+00, 0.00000000e+00, 0.00000000e+00, 0.00000000e+00, 0.00000000e+00, 0.00000000e+00, 0.00000000e+00, 0.00000000e+00, -3.83045976e+00, -1.23718505e+00, -7.25287727e-01, 1.61277615e+00, 0.00000000e+00, 5.0000000000, 6.0000000000, 0.0048107167
          14, 0.00000000e+00, 0.00000000e+00, 0.00000000e+00, 0.00000000e+00, 0.00000000e+00, 0.00000000e+00, 0.00000000e+00, 0.00000000e+00, 0.00000000e+00, 0.00000000e+00, 0.00000000e+00, 0.00000000e+00, -3.92887423e+00, -1.28828401e+00, -7.46812054e-01, 1.51488385e+00, 0.00000000e+00, 5.0000000000, 6.0000000000, 0.0051550000
          15, 0.00000000e+00, 0.00000000e+00, 0.00000000e+00, 0.00000000e+00, 0.00000000e+00, 0.00000000e+00, 0.00000000e+00, 0.00000000e+00, 0.00000000e+00, 0.00000000e+00, 0.00000000e+00, 0.00000000e+00, -4.02215090e+00, -1.34010506e+00, -7.68609426e-01, 1.42184381e+00, 0.00000000e+00, 5.0000000000, 6.0000000000, 0.0054726667
          16, 0.00000000e+00, 0.00000000e+00, 0.00000000e+00, 0.00000000e+00, 0.00000000e+00, 0.00000000e+00, 0.00000000e+00, 0.00000000e+00, 0.00000000e+00, 0.00000000e+00, 0.00000000e+00, 0.00000000e+00, -4.09050700e+00, -1.38902783e+00, -7.90719910e-01, 1.35300337e+00, 0.00000000e+00, 5.0000000000, 6.0000000000, 0.0058221333
          17, 0.00000000e+00, 0.00000000e+00, 0.00000000e+00, 0.00000000e+00, 0.00000000e+00, 0.00000000e+00, 0.00000000e+00, 0.00000000e+00, 0.00000000e+00, 0.00000000e+00, 0.00000000e+00, 0.00000000e+00, -4.12074557e+00, -1.43270699e+00, -8.13155142e-01, 1.32167368e+00, 0.00000000e+00, 5.0000000000, 6.0000000000, 0.0061670833
          18, 0.00000000e+00, 0.00000000e+00, 0.00000000e+00, 0.00000000e+00, 0.00000000e+00, 0.00000000e+00, 0.00000000e+00, 0.00000000e+00, 0.00000000e+00, 0.00000000e+00, 0.00000000e+00, 0.00000000e+00, -4.12218410e+00, -1.47091391e+00, -8.35904604e-01, 1.31928420e+00, 0.00000000e+00, 5.0000000000, 6.0000000000, 0.0065172833
          19, 0.00000000e+00, 0.00000000e+00, 0.00000000e+00, 0.00000000e+00, 0.00000000e+00, 0.00000000e+00, 0.00000000e+00, 0.00000000e+00, 0.00000000e+00, 0.00000000e+00, 0.00000000e+00, 0.00000000e+00, -4.11424684e+00, -1.50527619e+00, -8.58947039e-01, 1.32682409e+00, 0.00000000e+00, 5.0000000000, 6.0000000000, 0.0068378167
          20, 0.00000000e+00, 0.00000000e+00, 0.00000000e+00, 0.00000000e+00, 0.00000000e+00, 0.00000000e+00, 0.00000000e+00, 0.00000000e+00, 0.00000000e+00, 0.00000000e+00, 0.00000000e+00, 0.00000000e+00, -4.10954549e+00, -1.53812476e+00, -8.82262959e-01, 1.33163381e+00, 0.00000000e+00, 5.0000000000, 6.0000000000, 0.0071626667
          21, 0.00000000e+00, 0.00000000e+00, 0.00000000e+00, 0.00000000e+00, 0.00000000e+00, 0.00000000e+00, 0.00000000e+00, 0.00000000e+00, 0.00000000e+00, 0.00000000e+00, 0.00000000e+00, 0.00000000e+00, -4.11256175e+00, -1.57138416e+00, -9.05839638e-01, 1.32908685e+00, 0.00000000e+00, 5.0000000000, 6.0000000000, 0.0075004167
          22, 0.00000000e+00, 0.00000000e+00, 0.00000000e+00, 0.00000000e+00, 0.00000000e+00, 0.00000000e+00, 0.00000000e+00, 0.00000000e+00, 0.00000000e+00, 0.00000000e+00, 0.00000000e+00, 0.00000000e+00, -4.12354282e+00, -1.60606521e+00, -9.29670911e-01, 1.31882119e+00, 0.00000000e+00, 5.0000000000, 6.0000000000, 0.0078380167
          23, 0.00000000e+00, 0.00000000e+00, 0.00000000e+00, 0.00000000e+00, 0.00000000e+00, 0.00000000e+00, 0.00000000e+00, 0.00000000e+00, 0.00000000e+00, 0.00000000e+00, 0.00000000e+00, 0.00000000e+00, -4.14113505e+00, -1.64227915e+00, -9.53755088e-01, 1.30210057e+00, 0.00000000e+00, 5.0000000000, 6.0000000000, 0.0081599333
          24, 0.00000000e+00, 0.00000000e+00, 0.00000000e+00, 0.00000000e+00, 0.00000000e+00, 0.00000000e+00, 0.00000000e+00, 0.00000000e+00, 0.00000000e+00, 0.00000000e+00, 0.00000000e+00, 0.00000000e+00, -4.16360607e+00, -1.67949067e+00, -9.78092397e-01, 1.28057754e+00, 0.00000000e+00, 5.0000000000, 6.0000000000, 0.0084985667
          25, 0.00000000e+00, 0.00000000e+00, 0.00000000e+00, 0.00000000e+00, 0.00000000e+00, 0.00000000e+00, 0.00000000e+00, 0.00000000e+00, 0.00000000e+00, 0.00000000e+00, 0.00000000e+00, 0.00000000e+00, -4.18936644e+00, -1.71681318e+00, -1.00268275e+00, 1.25577130e+00, 0.00000000e+00, 5.0000000000, 6.0000000000, 0.0088147833
          26, 0.00000000e+00, 0.00000000e+00, 0.00000000e+00, 0.00000000e+00, 0.00000000e+00, 0.00000000e+00, 0.00000000e+00, 0.00000000e+00, 0.00000000e+00, 0.00000000e+00, 0.00000000e+00, 0.00000000e+00, -4.21716776e+00, -1.75325879e+00, -1.02752413e+00, 1.22887816e+00, 0.00000000e+00, 5.0000000000, 6.0000000000, 0.0091405333
          27, 0.00000000e+00, 0.00000000e+00, 0.00000000e+00, 0.00000000e+00, 0.00000000e+00, 0.00000000e+00, 0.00000000e+00, 0.00000000e+00, 0.00000000e+00, 0.00000000e+00, 0.00000000e+00, 0.00000000e+00, -4.24612510e+00, -1.78790881e+00, -1.05261178e+00, 1.20075735e+00, 0.00000000e+00, 5.0000000000, 6.0000000000, 0.0094735833
          28, 0.00000000e+00, 0.00000000e+00, 0.00000000e+00, 0.00000000e+00, 0.00000000e+00, 0.00000000e+00, 0.00000000e+00, 0.00000000e+00, 0.00000000e+00, 0.00000000e+00, 0.00000000e+00, 0.00000000e+00, -4.27562848e+00, -1.81999021e+00, -1.07793787e+00, 1.17202160e+00, 0.00000000e+00, 5.0000000000, 6.0000000000, 0.0098167333
          29, 0.00000000e+00, 0.00000000e+00, 0.00000000e+00, 0.00000000e+00, 0.00000000e+00, 0.00000000e+00, 0.00000000e+00, 0.00000000e+00, 0.00000000e+00, 0.00000000e+00, 0.00000000e+00, 0.00000000e+00, -4.30518328e+00, -1.84885626e+00, -1.10349106e+00, 1.14319160e+00, 0.00000000e+00, 5.0000000000, 6.0000000000, 0.0101428833
          30, 0.00000000e+00, 0.00000000e+00, 0.00000000e+00, 0.00000000e+00, 0.00000000e+00, 0.00000000e+00, 0.00000000e+00, 0.00000000e+00, 0.00000000e+00, 0.00000000e+00, 0.00000000e+00, 0.00000000e+00, -4.33420276e+00, -1.87388424e+00, -1.12925619e+00, 1.11489335e+00, 0.00000000e+00, 5.0000000000, 6.0000000000, 0.0104686667
          31, 0.00000000e+00, 0.00000000e+00, 0.00000000e+00, 0.00000000e+00, 0.00000000e+00, 0.00000000e+00, 0.00000000e+00, 0.00000000e+00, 0.00000000e+00, 0.00000000e+00, 0.00000000e+00, 0.00000000e+00, -4.36175937e+00, -1.89432224e+00, -1.15521347e+00, 1.08809207e+00, 0.00000000e+00, 5.0000000000, 6.0000000000, 0.0108082000
          32, 0.00000000e+00, 0.00000000e+00, 0.00000000e+00, 0.00000000e+00, 0.00000000e+00, 0.00000000e+00, 0.00000000e+00, 0.00000000e+00, 0.00000000e+00, 0.00000000e+00, 0.00000000e+00, 0.00000000e+00, -4.38630768e+00, -1.90914542e+00, -1.18133741e+00, 1.06434715e+00, 0.00000000e+00, 5.0000000000, 6.0000000000, 0.0111510000
          33, 0.00000000e+00, 0.00000000e+00, 0.00000000e+00, 0.00000000e+00, 0.00000000e+00, 0.00000000e+00, 0.00000000e+00, 0.00000000e+00, 0.00000000e+00, 0.00000000e+00, 0.00000000e+00, 0.00000000e+00, -4.40545756e+00, -1.91701596e+00, -1.20759565e+00, 1.04600678e+00, 0.00000000e+00, 5.0000000000, 6.0000000000, 0.0114745167
          34, 0.00000000e+00, 0.00000000e+00, 0.00000000e+00, 0.00000000e+00, 0.00000000e+00, 0.00000000e+00, 0.00000000e+00, 0.00000000e+00, 0.00000000e+00, 0.00000000e+00, 0.00000000e+00, 0.00000000e+00, -4.41602791e+00, -1.91646274e+00, -1.23394798e+00, 1.03612443e+00, 0.00000000e+00, 5.0000000000, 6.0000000000, 0.0118165833
          35, 0.00000000e+00, 0.00000000e+00, 0.00000000e+00, 0.00000000e+00, 0.00000000e+00, 0.00000000e+00, 0.00000000e+00, 0.00000000e+00, 0.00000000e+00, 0.00000000e+00, 0.00000000e+00, 0.00000000e+00, -4.41472683e+00, -1.90633491e+00, -1.26034542e+00, 1.03779273e+00, 0.00000000e+00, 5.0000000000, 6.0000000000, 0.0121410000
          36, 0.00000000e+00, 0.00000000e+00, 0.00000000e+00, 0.00000000e+00, 0.00000000e+00, 0.00000000e+00, 0.00000000e+00, 0.00000000e+00, 0.00000000e+00, 0.00000000e+00, 0.00000000e+00, 0.00000000e+00, -4.39950851e+00, -1.88638408e+00, -1.28673106e+00, 1.05288501e+00, 0.00000000e+00, 5.0000000000, 6.0000000000, 0.0124722833
          37, 0.00000000e+00, 0.00000000e+00, 0.00000000e+00, 0.00000000e+00, 0.00000000e+00, 0.00000000e+00, 0.00000000e+00, 0.00000000e+00, 0.00000000e+00, 0.00000000e+00, 0.00000000e+00, 0.00000000e+00, -4.37081569e+00, -1.85762180e+00, -1.31304104e+00, 1.08093992e+00, 0.00000000e+00, 5.0000000000, 6.0000000000, 0.0127985500
          38, 0.00000000e+00, 0.00000000e+00, 0.00000000e+00, 0.00000000e+00, 0.00000000e+00, 0.00000000e+00, 0.00000000e+00, 0.00000000e+00, 0.00000000e+00, 0.00000000e+00, 0.00000000e+00, 0.00000000e+00, -4.33157598e+00, -1.82217240e+00, -1.33920704e+00, 1.11918473e+00, 0.00000000e+00, 5.0000000000, 6.0000000000, 0.0131365833
          39, 0.00000000e+00, 0.00000000e+00, 0.00000000e+00, 0.00000000e+00, 0.00000000e+00, 0.00000000e+00, 0.00000000e+00, 0.00000000e+00, 0.00000000e+00, 0.00000000e+00, 0.00000000e+00, 0.00000000e+00, -4.28593500e+00, -1.78271671e+00, -1.36516005e+00, 1.16369411e+00, 0.00000000e+00, 5.0000000000, 6.0000000000, 0.0134568833
          40, 0.00000000e+00, 0.00000000e+00, 0.00000000e+00, 0.00000000e+00, 0.00000000e+00, 0.00000000e+00, 0.00000000e+00, 0.00000000e+00, 0.00000000e+00, 0.00000000e+00, 0.00000000e+00, 0.00000000e+00, -4.23785259e+00, -1.74188847e+00, -1.39083496e+00, 1.21068332e+00, 0.00000000e+00, 5.0000000000, 6.0000000000, 0.0137974333
          41, 0.00000000e+00, 0.00000000e+00, 0.00000000e+00, 0.00000000e+00, 0.00000000e+00, 0.00000000e+00, 0.00000000e+00, 0.00000000e+00, 0.00000000e+00, 0.00000000e+00, 0.00000000e+00, 0.00000000e+00, -4.19037761e+00, -1.70189429e+00, -1.41617554e+00, 1.25719868e+00, 0.00000000e+00, 5.0000000000, 6.0000000000, 0.0141151333
          42, 0.00000000e+00, 0.00000000e+00, 0.00000000e+00, 0.00000000e+00, 0.00000000e+00, 0.00000000e+00, 0.00000000e+00, 0.00000000e+00, 0.00000000e+00, 0.00000000e+00, 0.00000000e+00, 0.00000000e+00, -4.14556284e+00, -1.66439018e+00, -1.44113949e+00, 1.30122017e+00, 0.00000000e+00, 5.0000000000, 6.0000000000, 0.0144443833
          43, 0.00000000e+00, 0.00000000e+00, 0.00000000e+00, 0.00000000e+00, 0.00000000e+00, 0.00000000e+00, 0.00000000e+00, 0.00000000e+00, 0.00000000e+00, 0.00000000e+00, 0.00000000e+00, 0.00000000e+00, -4.10466437e+00, -1.63051690e+00, -1.46570199e+00, 1.34148973e+00, 0.00000000e+00, 5.0000000000, 6.0000000000, 0.0147736000
          44, 0.00000000e+00, 0.00000000e+00, 0.00000000e+00, 0.00000000e+00, 0.00000000e+00, 0.00000000e+00, 0.00000000e+00, 0.00000000e+00, 0.00000000e+00, 0.00000000e+00, 0.00000000e+00, 0.00000000e+00, -4.06838100e+00, -1.60099561e+00, -1.48985697e+00, 1.37729159e+00, 0.00000000e+00, 5.0000000000, 6.0000000000, 0.0151189333
          45, 0.00000000e+00, 0.00000000e+00, 0.00000000e+00, 0.00000000e+00, 0.00000000e+00, 0.00000000e+00, 0.00000000e+00, 0.00000000e+00, 0.00000000e+00, 0.00000000e+00, 0.00000000e+00, 0.00000000e+00, -4.03704254e+00, -1.57622567e+00, -1.51361535e+00, 1.40827443e+00, 0.00000000e+00, 5.0000000000, 6.0000000000, 0.0154442667
          46, 0.00000000e+00, 0.00000000e+00, 0.00000000e+00, 0.00000000e+00, 0.00000000e+00, 0.00000000e+00, 0.00000000e+00, 0.00000000e+00, 0.00000000e+00, 0.00000000e+00, 0.00000000e+00, 0.00000000e+00, -4.01074142e+00, -1.55636816e+00, -1.53700042e+00, 1.43432443e+00, 0.00000000e+00, 5.0000000000, 6.0000000000, 0.0157776500
          47, 0.00000000e+00, 0.00000000e+00, 0.00000000e+00, 0.00000000e+00, 0.00000000e+00, 0.00000000e+00, 0.00000000e+00, 0.00000000e+00, 0.00000000e+00, 0.00000000e+00, 0.00000000e+00, 0.00000000e+00, -3.98941783e+00, -1.54140794e+00, -1.56004053e+00, 1.45548178e+00, 0.00000000e+00, 5.0000000000, 6.0000000000, 0.0161200000
          48, 0.00000000e+00, 0.00000000e+00, 0.00000000e+00, 0.00000000e+00, 0.00000000e+00, 0.00000000e+00, 0.00000000e+00, 0.00000000e+00, 0.00000000e+00, 0.00000000e+00, 0.00000000e+00, 0.00000000e+00, -3.97291439e+00, -1.53119831e+00, -1.58276000e+00, 1.47188627e+00, 0.00000000e+00, 5.0000000000, 6.0000000000, 0.0164634833
          49, 0.00000000e+00, 0.00000000e+00, 0.00000000e+00, 0.00000000e+00, 0.00000000e+00, 0.00000000e+00, 0.00000000e+00, 0.00000000e+00, 0.00000000e+00, 0.00000000e+00, 0.00000000e+00, 0.00000000e+00, -3.96101371e+00, -1.52549540e+00, -1.60516956e+00, 1.48373964e+00, 0.00000000e+00, 5.0000000000, 6.0000000000, 0.0167843167
          50, 0.00000000e+00, 0.00000000e+00, 0.00000000e+00, 0.00000000e+00, 0.00000000e+00, 0.00000000e+00, 0.00000000e+00, 0.00000000e+00, 0.00000000e+00, 0.00000000e+00, 0.00000000e+00, 0.00000000e+00, -3.95346605e+00, -1.52398715e+00, -1.62725786e+00, 1.49127766e+00, 0.00000000e+00, 5.0000000000, 6.0000000000, 0.0171287000
          51, 0.00000000e+00, 0.00000000e+00, 0.00000000e+00, 0.00000000e+00, 0.00000000e+00, 0.00000000e+00, 0.00000000e+00, 0.00000000e+00, 0.00000000e+00, 0.00000000e+00, 0.00000000e+00, 0.00000000e+00, -3.95001192e+00, -1.52632075e+00, -1.64898575e+00, 1.49474745e+00, 0.00000000e+00, 5.0000000000, 6.0000000000, 0.0174692000
          52, 0.00000000e+00, 0.00000000e+00, 0.00000000e+00, 0.00000000e+00, 0.00000000e+00, 0.00000000e+00, 0.00000000e+00, 0.00000000e+00, 0.00000000e+00, 0.00000000e+00, 0.00000000e+00, 0.00000000e+00, -3.95040162e+00, -1.53213101e+00, -1.67028411e+00, 1.49438794e+00, 0.00000000e+00, 5.0000000000, 6.0000000000, 0.0178103833
          53, 0.00000000e+00, 0.00000000e+00, 0.00000000e+00, 0.00000000e+00, 0.00000000e+00, 0.00000000e+00, 0.00000000e+00, 0.00000000e+00, 0.00000000e+00, 0.00000000e+00, 0.00000000e+00, 0.00000000e+00, -3.95441238e+00, -1.54107012e+00, -1.69105732e+00, 1.49041290e+00, 0.00000000e+00, 5.0000000000, 6.0000000000, 0.0181409500
          54, 0.00000000e+00, 0.00000000e+00, 0.00000000e+00, 0.00000000e+00, 0.00000000e+00, 0.00000000e+00, 0.00000000e+00, 0.00000000e+00, 0.00000000e+00, 0.00000000e+00, 0.00000000e+00, 0.00000000e+00, -3.96186254e+00, -1.55283696e+00, -1.71119164e+00, 1.48299695e+00, 0.00000000e+00, 5.0000000000, 6.0000000000, 0.0184881167
          55, 0.00000000e+00, 0.00000000e+00, 0.00000000e+00, 0.00000000e+00, 0.00000000e+00, 0.00000000e+00, 0.00000000e+00, 0.00000000e+00, 0.00000000e+00, 0.00000000e+00, 0.00000000e+00, 0.00000000e+00, -3.97262172e+00, -1.56720325e+00, -1.73056886e+00, 1.47226557e+00, 0.00000000e+00, 5.0000000000, 6.0000000000, 0.0188128167
          56, 0.00000000e+00, 0.00000000e+00, 0.00000000e+00, 0.00000000e+00, 0.00000000e+00, 0.00000000e+00, 0.00000000e+00, 0.00000000e+00, 0.00000000e+00, 0.00000000e+00, 0.00000000e+00, 0.00000000e+00, -3.98661586e+00, -1.58403262e+00, -1.74908349e+00, 1.45829009e+00, 0.00000000e+00, 5.0000000000, 6.0000000000, 0.0191445667
          57, 0.00000000e+00, 0.00000000e+00, 0.00000000e+00, 0.00000000e+00, 0.00000000e+00, 0.00000000e+00, 0.00000000e+00, 0.00000000e+00, 0.00000000e+00, 0.00000000e+00, 0.00000000e+00, 0.00000000e+00, -4.00382636e+00, -1.60329043e+00, -1.76666111e+00, 1.44108854e+00, 0.00000000e+00, 5.0000000000, 6.0000000000, 0.0194981833
          58, 0.00000000e+00, 0.00000000e+00, 0.00000000e+00, 0.00000000e+00, 0.00000000e+00, 0.00000000e+00, 0.00000000e+00, 0.00000000e+00, 0.00000000e+00, 0.00000000e+00, 0.00000000e+00, 0.00000000e+00, -4.02428319e+00, -1.62504325e+00, -1.78327442e+00, 1.42063225e+00, 0.00000000e+00, 5.0000000000, 6.0000000000, 0.0199151500
          59, 0.00000000e+00, 0.00000000e+00, 0.00000000e+00, 0.00000000e+00, 0.00000000e+00, 0.00000000e+00, 0.00000000e+00, 0.00000000e+00, 0.00000000e+00, 0.00000000e+00, 0.00000000e+00, 0.00000000e+00, -4.04805238e+00, -1.64945000e+00, -1.79895378e+00, 1.39685816e+00, 0.00000000e+00, 5.0000000000, 6.0000000000, 0.0203067333
          60, 0.00000000e+00, 0.00000000e+00, 0.00000000e+00, 0.00000000e+00, 0.00000000e+00, 0.00000000e+00, 0.00000000e+00, 0.00000000e+00, 0.00000000e+00, 0.00000000e+00, 0.00000000e+00, 0.00000000e+00, -4.07521771e+00, -1.67674779e+00, -1.81379083e+00, 1.36968678e+00, 0.00000000e+00, 5.0000000000, 6.0000000000, 0.0207214167
          61, 0.00000000e+00, 0.00000000e+00, 0.00000000e+00, 0.00000000e+00, 0.00000000e+00, 0.00000000e+00, 0.00000000e+00, 0.00000000e+00, 0.00000000e+00, 0.00000000e+00, 0.00000000e+00, 0.00000000e+00, -4.10585587e+00, -1.70723611e+00, -1.82793397e+00, 1.33904693e+00, 0.00000000e+00, 5.0000000000, 6.0000000000, 0.0210942500
          62, 0.00000000e+00, 0.00000000e+00, 0.00000000e+00, 0.00000000e+00, 0.00000000e+00, 0.00000000e+00, 0.00000000e+00, 0.00000000e+00, 0.00000000e+00, 0.00000000e+00, 0.00000000e+00, 0.00000000e+00, -4.14000140e+00, -1.74126057e+00, -1.84157685e+00, 1.30491071e+00, 0.00000000e+00, 5.0000000000, 6.0000000000, 0.0214885333
          63, 0.00000000e+00, 0.00000000e+00, 0.00000000e+00, 0.00000000e+00, 0.00000000e+00, 0.00000000e+00, 0.00000000e+00, 0.00000000e+00, 0.00000000e+00, 0.00000000e+00, 0.00000000e+00, 0.00000000e+00, -4.17759349e+00, -1.77919227e+00, -1.85494390e+00, 1.26734695e+00, 0.00000000e+00, 5.0000000000, 6.0000000000, 0.0218769333
          64, 0.00000000e+00, 0.00000000e+00, 0.00000000e+00, 0.00000000e+00, 0.00000000e+00, 0.00000000e+00, 0.00000000e+00, 0.00000000e+00, 0.00000000e+00, 0.00000000e+00, 0.00000000e+00, 0.00000000e+00, -4.21838881e+00, -1.82138779e+00, -1.86827484e+00, 1.22660870e+00, 0.00000000e+00, 5.0000000000, 6.0000000000, 0.0222738167
          65, 0.00000000e+00, 0.00000000e+00, 0.00000000e+00, 0.00000000e+00, 0.00000000e+00, 0.00000000e+00, 0.00000000e+00, 0.00000000e+00, 0.00000000e+00, 0.00000000e+00, 0.00000000e+00, 0.00000000e+00, -4.26181343e+00, -1.86809120e+00, -1.88181117e+00, 1.18328168e+00, 0.00000000e+00, 5.0000000000, 6.0000000000, 0.0226577500
          66, 0.00000000e+00, 0.00000000e+00, 0.00000000e+00, 0.00000000e+00, 0.00000000e+00, 0.00000000e+00, 0.00000000e+00, 0.00000000e+00, 0.00000000e+00, 0.00000000e+00, 0.00000000e+00, 0.00000000e+00, -4.30671563e+00, -1.91918717e+00, -1.89578702e+00, 1.13853112e+00, 0.00000000e+00, 5.0000000000, 6.0000000000, 0.0230609667
          67, 0.00000000e+00, 0.00000000e+00, 0.00000000e+00, 0.00000000e+00, 0.00000000e+00, 0.00000000e+00, 0.00000000e+00, 0.00000000e+00, 0.00000000e+00, 0.00000000e+00, 0.00000000e+00, 0.00000000e+00, -4.35099130e+00, -1.97360778e+00, -1.91042450e+00, 1.09447379e+00, 0.00000000e+00, 5.0000000000, 6.0000000000, 0.0234402833
          68, 0.00000000e+00, 0.00000000e+00, 0.00000000e+00, 0.00000000e+00, 0.00000000e+00, 0.00000000e+00, 0.00000000e+00, 0.00000000e+00, 0.00000000e+00, 0.00000000e+00, 0.00000000e+00, 0.00000000e+00, -4.39114990e+00, -2.02804845e+00, -1.92593508e+00, 1.05460483e+00, 0.00000000e+00, 5.0000000000, 6.0000000000, 0.0238643333
          69, 0.00000000e+00, 0.00000000e+00, 0.00000000e+00, 0.00000000e+00, 0.00000000e+00, 0.00000000e+00, 0.00000000e+00, 0.00000000e+00, 0.00000000e+00, 0.00000000e+00, 0.00000000e+00, 0.00000000e+00, -4.42218053e+00, -2.07482418e+00, -1.94252495e+00, 1.02391875e+00, 0.00000000e+00, 5.0000000000, 6.0000000000, 0.0242582000
          70, 0.00000000e+00, 0.00000000e+00, 0.00000000e+00, 0.00000000e+00, 0.00000000e+00, 0.00000000e+00, 0.00000000e+00, 0.00000000e+00, 0.00000000e+00, 0.00000000e+00, 0.00000000e+00, 0.00000000e+00, -4.43847463e+00, -2.10067419e+00, -1.96040431e+00, 1.00797815e+00, 0.00000000e+00, 5.0000000000, 6.0000000000, 0.0246593000
          71, 0.00000000e+00, 0.00000000e+00, 0.00000000e+00, 0.00000000e+00, 0.00000000e+00, 0.00000000e+00, 0.00000000e+00, 0.00000000e+00, 0.00000000e+00, 0.00000000e+00, 0.00000000e+00, 0.00000000e+00, -4.43620808e+00, -2.09232661e+00, -1.97980006e+00, 1.01054993e+00, 0.00000000e+00, 5.0000000000, 6.0000000000, 0.0250277333
          72, 0.00000000e+00, 0.00000000e+00, 0.00000000e+00, 0.00000000e+00, 0.00000000e+00, 0.00000000e+00, 0.00000000e+00, 0.00000000e+00, 0.00000000e+00, 0.00000000e+00, 0.00000000e+00, 0.00000000e+00, -4.41567935e+00, -2.04863640e+00, -2.00097106e+00, 1.03131027e+00, 0.00000000e+00, 5.0000000000, 6.0000000000, 0.0254246333
          73, 0.00000000e+00, 0.00000000e+00, 0.00000000e+00, 0.00000000e+00, 0.00000000e+00, 0.00000000e+00, 0.00000000e+00, 0.00000000e+00, 0.00000000e+00, 0.00000000e+00, 0.00000000e+00, 0.00000000e+00, -4.38111166e+00, -1.98189793e+00, -2.02422511e+00, 1.06605980e+00, 0.00000000e+00, 5.0000000000, 6.0000000000, 0.0257978833
          74, 0.00000000e+00, 0.00000000e+00, 0.00000000e+00, 0.00000000e+00, 0.00000000e+00, 0.00000000e+00, 0.00000000e+00, 0.00000000e+00, 0.00000000e+00, 0.00000000e+00, 0.00000000e+00, 0.00000000e+00, -4.33816172e+00, -1.90601465e+00, -2.04993735e+00, 1.10918659e+00, 0.00000000e+00, 5.0000000000, 6.0000000000, 0.0261911667
          75, 0.00000000e+00, 0.00000000e+00, 0.00000000e+00, 0.00000000e+00, 0.00000000e+00, 0.00000000e+00, 0.00000000e+00, 0.00000000e+00, 0.00000000e+00, 0.00000000e+00, 0.00000000e+00, 0.00000000e+00, -4.29170663e+00, -1.82953853e+00, -2.07856754e+00, 1.15584833e+00, 0.00000000e+00, 5.0000000000, 6.0000000000, 0.0265899833
          76, 0.00000000e+00, 0.00000000e+00, 0.00000000e+00, 0.00000000e+00, 0.00000000e+00, 0.00000000e+00, 0.00000000e+00, 0.00000000e+00, 0.00000000e+00, 0.00000000e+00, 0.00000000e+00, 0.00000000e+00, -4.24511514e+00, -1.75631393e+00, -2.11067552e+00, 1.20269340e+00, 0.00000000e+00, 5.0000000000, 6.0000000000, 0.0269999167
          77, 0.00000000e+00, 0.00000000e+00, 0.00000000e+00, 0.00000000e+00, 0.00000000e+00, 0.00000000e+00, 0.00000000e+00, 0.00000000e+00, 0.00000000e+00, 0.00000000e+00, 0.00000000e+00, 0.00000000e+00, -4.20046091e+00, -1.68769018e+00, -2.14692646e+00, 1.24765314e+00, 0.00000000e+00, 5.0000000000, 6.0000000000, 0.0273862667
          78, 0.00000000e+00, 0.00000000e+00, 0.00000000e+00, 0.00000000e+00, 0.00000000e+00, 0.00000000e+00, 0.00000000e+00, 0.00000000e+00, 0.00000000e+00, 0.00000000e+00, 0.00000000e+00, 0.00000000e+00, -4.15895933e+00, -1.62394351e+00, -2.18806634e+00, 1.28951187e+00, 0.00000000e+00, 5.0000000000, 6.0000000000, 0.0277744833
          79, 0.00000000e+00, 0.00000000e+00, 0.00000000e+00, 0.00000000e+00, 0.00000000e+00, 0.00000000e+00, 0.00000000e+00, 0.00000000e+00, 0.00000000e+00, 0.00000000e+00, 0.00000000e+00, 0.00000000e+00, -4.12132139e+00, -1.56495192e+00, -2.23481324e+00, 1.32755738e+00, 0.00000000e+00, 5.0000000000, 6.0000000000, 0.0281367333
          80, 0.00000000e+00, 0.00000000e+00, 0.00000000e+00, 0.00000000e+00, 0.00000000e+00, 0.00000000e+00, 0.00000000e+00, 0.00000000e+00, 0.00000000e+00, 0.00000000e+00, 0.00000000e+00, 0.00000000e+00, -4.08797966e+00, -1.51047939e+00, -2.28752120e+00, 1.36135727e+00, 0.00000000e+00, 5.0000000000, 6.0000000000, 0.0285217667
          81, 0.00000000e+00, 0.00000000e+00, 0.00000000e+00, 0.00000000e+00, 0.00000000e+00, 0.00000000e+00, 0.00000000e+00, 0.00000000e+00, 0.00000000e+00, 0.00000000e+00, 0.00000000e+00, 0.00000000e+00, -4.05921941e+00, -1.46028644e+00, -2.34525971e+00, 1.39062900e+00, 0.00000000e+00, 5.0000000000, 6.0000000000, 0.0288918333
          82, 0.00000000e+00, 0.00000000e+00, 0.00000000e+00, 0.00000000e+00, 0.00000000e+00, 0.00000000e+00, 0.00000000e+00, 0.00000000e+00, 0.00000000e+00, 0.00000000e+00, 0.00000000e+00, 0.00000000e+00, -4.03525238e+00, -1.41416813e+00, -2.40358675e+00, 1.41516703e+00, 0.00000000e+00, 5.0000000000, 6.0000000000, 0.0293114667
          83, 0.00000000e+00, 0.00000000e+00, 0.00000000e+00, 0.00000000e+00, 0.00000000e+00, 0.00000000e+00, 0.00000000e+00, 0.00000000e+00, 0.00000000e+00, 0.00000000e+00, 0.00000000e+00, 0.00000000e+00, -4.01625844e+00, -1.37196285e+00, -2.45064105e+00, 1.43480199e+00, 0.00000000e+00, 5.0000000000, 6.0000000000, 0.0297313167
          84, 0.00000000e+00, 0.00000000e+00, 0.00000000e+00, 0.00000000e+00, 0.00000000e+00, 0.00000000e+00, 0.00000000e+00, 0.00000000e+00, 0.00000000e+00, 0.00000000e+00, 0.00000000e+00, 0.00000000e+00, -4.00241029e+00, -1.33355040e+00, -2.46628582e+00, 1.44937731e+00, 0.00000000e+00, 5.0000000000, 6.0000000000, 0.0301124333
          85, 0.00000000e+00, 0.00000000e+00, 0.00000000e+00, 0.00000000e+00, 0.00000000e+00, 0.00000000e+00, 0.00000000e+00, 0.00000000e+00, 0.00000000e+00, 0.00000000e+00, 0.00000000e+00, 0.00000000e+00, -3.99388909e+00, -1.29884664e+00, -2.43652367e+00, 1.45873543e+00, 0.00000000e+00, 5.0000000000, 6.0000000000, 0.0304721000
          86, 0.00000000e+00, 0.00000000e+00, 0.00000000e+00, 0.00000000e+00, 0.00000000e+00, 0.00000000e+00, 0.00000000e+00, 0.00000000e+00, 0.00000000e+00, 0.00000000e+00, 0.00000000e+00, 0.00000000e+00, -3.99089513e+00, -1.26779770e+00, -2.37081861e+00, 1.46271005e+00, 0.00000000e+00, 5.0000000000, 6.0000000000, 0.0308500667
          87, 0.00000000e+00, 0.00000000e+00, 0.00000000e+00, 0.00000000e+00, 0.00000000e+00, 0.00000000e+00, 0.00000000e+00, 0.00000000e+00, 0.00000000e+00, 0.00000000e+00, 0.00000000e+00, 0.00000000e+00, -3.99365533e+00, -1.24037475e+00, -2.29011625e+00, 1.46112307e+00, 0.00000000e+00, 5.0000000000, 6.0000000000, 0.0312318667
          88, 0.00000000e+00, 0.00000000e+00, 0.00000000e+00, 0.00000000e+00, 0.00000000e+00, 0.00000000e+00, 0.00000000e+00, 0.00000000e+00, 0.00000000e+00, 0.00000000e+00, 0.00000000e+00, 0.00000000e+00, -4.00242725e+00, -1.21656979e+00, -2.20877258e+00, 1.45378744e+00, 0.00000000e+00, 5.0000000000, 6.0000000000, 0.0316284667
          89, 0.00000000e+00, 0.00000000e+00, 0.00000000e+00, 0.00000000e+00, 0.00000000e+00, 0.00000000e+00, 0.00000000e+00, 0.00000000e+00, 0.00000000e+00, 0.00000000e+00, 0.00000000e+00, 0.00000000e+00, -4.01749742e+00, -1.19639225e+00, -2.13283506e+00, 1.44051914e+00, 0.00000000e+00, 5.0000000000, 6.0000000000, 0.0319866833