/*--------------------------------*- C++ -*----------------------------------*\
  =========                 |
  \\      /  F ield         | OpenFOAM: The Open Source CFD Toolbox
   \\    /   O peration     | Website:  https://openfoam.org
    \\  /    A nd           | Version:  6
     \\/     M anipulation  |
\*---------------------------------------------------------------------------*/
FoamFile
{
    version     2.0;
    format      ascii;
    class       volScalarField;
    location    "110";
    object      p;
}
// * * * * * * * * * * * * * * * * * * * * * * * * * * * * * * * * * * * * * //

dimensions      [0 2 -2 0 0 0 0];

internalField   nonuniform List<scalar> 
4000
(
-1.39076e-09
-1.37947e-09
-1.34164e-09
-1.32643e-09
-1.32527e-09
-1.31504e-09
-1.3107e-09
-1.30744e-09
-1.28605e-09
-1.2661e-09
-1.27147e-09
-1.25877e-09
-1.22621e-09
-1.22808e-09
-1.22663e-09
-1.2123e-09
-1.18505e-09
-1.16166e-09
-1.15381e-09
-1.12289e-09
-1.10911e-09
-1.0765e-09
-1.0486e-09
-1.01937e-09
-9.91049e-10
-9.65273e-10
-9.53132e-10
-9.25141e-10
-8.97162e-10
-8.77635e-10
-8.44793e-10
-8.34149e-10
-8.41825e-10
-8.50386e-10
-8.63163e-10
-8.87991e-10
-9.07783e-10
-9.03654e-10
-8.70592e-10
-8.69909e-10
-8.55642e-10
-8.41782e-10
-8.26807e-10
-8.06043e-10
-7.93324e-10
-7.53924e-10
-7.38504e-10
-7.29412e-10
-7.04535e-10
-6.77648e-10
-6.38799e-10
-6.18096e-10
-6.02314e-10
-5.80102e-10
-5.56381e-10
-5.41983e-10
-5.24088e-10
-5.06784e-10
-4.9446e-10
-4.85611e-10
-4.75512e-10
-4.66937e-10
-4.62413e-10
-4.6044e-10
-4.38912e-10
-4.06146e-10
-3.80793e-10
-3.5159e-10
-3.23812e-10
-3.07772e-10
-2.91389e-10
-2.74762e-10
-2.58463e-10
-2.48811e-10
-2.2752e-10
-2.25039e-10
-2.21887e-10
-2.09822e-10
-2.03031e-10
-2.07077e-10
-2.11109e-10
-2.13524e-10
-2.09166e-10
-2.06787e-10
-1.90317e-10
-1.68227e-10
-1.52182e-10
-1.41395e-10
-1.32686e-10
-1.35648e-10
-1.3018e-10
-1.31251e-10
-1.32163e-10
-1.16637e-10
-1.04323e-10
-9.49941e-11
-9.57149e-11
-1.08119e-10
-1.07632e-10
-9.30641e-11
-1.10987e-10
-1.02873e-10
-9.84102e-11
-8.46495e-11
-8.81645e-11
-8.23617e-11
-7.86849e-11
-7.39675e-11
-7.14504e-11
-6.65384e-11
-6.37107e-11
-5.62022e-11
-3.90008e-11
-2.52572e-11
-4.55152e-12
1.7707e-11
3.85742e-11
6.06676e-11
7.68316e-11
8.99231e-11
1.12757e-10
1.36188e-10
1.55366e-10
1.67077e-10
1.52936e-10
1.44246e-10
1.50342e-10
1.52214e-10
1.37898e-10
1.09892e-10
8.87731e-11
7.08805e-11
4.13761e-11
1.2178e-11
3.72964e-12
-1.26033e-11
-1.88565e-11
-3.73304e-11
-4.62395e-11
-5.64698e-11
-6.3715e-11
-7.61439e-11
-8.19448e-11
-7.5743e-11
-6.83697e-11
-8.03325e-11
-8.90413e-11
-7.12128e-11
-4.16671e-11
-3.9069e-11
-4.52447e-11
-4.62636e-11
-3.4159e-11
-2.11966e-11
-3.43291e-11
-4.7329e-11
-6.69798e-11
-9.3211e-11
-1.22351e-10
-1.60976e-10
-2.07096e-10
-2.60431e-10
-2.8935e-10
-3.06509e-10
-3.40492e-10
-3.63554e-10
-3.78433e-10
-3.86062e-10
-3.87316e-10
-3.72562e-10
-3.64708e-10
-3.55927e-10
-3.39454e-10
-3.26121e-10
-3.0732e-10
-3.05989e-10
-3.05549e-10
-2.91931e-10
-2.86545e-10
-2.73997e-10
-2.64986e-10
-2.56113e-10
-2.2349e-10
-1.88514e-10
-1.47675e-10
-1.43334e-10
-1.26872e-10
-1.0141e-10
-7.52958e-11
-4.10841e-11
-2.28515e-11
-2.45759e-12
2.75521e-11
2.82253e-11
2.56204e-11
2.81859e-11
2.1452e-11
1.91196e-11
1.77281e-11
8.45059e-12
-1.40571e-09
-1.3837e-09
-1.34693e-09
-1.33656e-09
-1.33704e-09
-1.32046e-09
-1.31573e-09
-1.31122e-09
-1.28409e-09
-1.26061e-09
-1.27204e-09
-1.25019e-09
-1.22706e-09
-1.22294e-09
-1.21877e-09
-1.21118e-09
-1.17933e-09
-1.15281e-09
-1.16453e-09
-1.15444e-09
-1.12373e-09
-1.09411e-09
-1.05766e-09
-1.0228e-09
-9.94849e-10
-9.70562e-10
-9.50605e-10
-9.23616e-10
-8.99474e-10
-8.8177e-10
-8.62457e-10
-8.52652e-10
-8.56907e-10
-8.43773e-10
-8.61602e-10
-8.97004e-10
-9.0692e-10
-8.99369e-10
-8.76915e-10
-8.71845e-10
-8.59947e-10
-8.41549e-10
-8.17574e-10
-8.01425e-10
-7.90505e-10
-7.54948e-10
-7.41169e-10
-7.24655e-10
-6.99415e-10
-6.79377e-10
-6.48838e-10
-6.18724e-10
-6.03967e-10
-5.76237e-10
-5.47529e-10
-5.39507e-10
-5.25806e-10
-5.11882e-10
-4.97017e-10
-4.86897e-10
-4.78774e-10
-4.66922e-10
-4.67554e-10
-4.65487e-10
-4.37253e-10
-4.03964e-10
-3.682e-10
-3.44616e-10
-3.15801e-10
-2.96276e-10
-2.83916e-10
-2.65834e-10
-2.58217e-10
-2.47496e-10
-2.22175e-10
-2.08703e-10
-2.05262e-10
-2.06161e-10
-1.99033e-10
-1.97257e-10
-2.07497e-10
-2.10274e-10
-1.98654e-10
-1.96744e-10
-1.82305e-10
-1.72514e-10
-1.66542e-10
-1.53063e-10
-1.4106e-10
-1.43767e-10
-1.34406e-10
-1.33934e-10
-1.22246e-10
-1.02798e-10
-1.03427e-10
-1.05733e-10
-9.66038e-11
-1.12585e-10
-1.15434e-10
-1.09437e-10
-1.07774e-10
-9.91217e-11
-1.00003e-10
-9.94803e-11
-9.7175e-11
-8.78877e-11
-8.41441e-11
-8.55221e-11
-7.78472e-11
-7.11703e-11
-6.8209e-11
-6.79153e-11
-4.2599e-11
-3.65595e-11
-2.11872e-11
4.31513e-12
3.7612e-11
7.39337e-11
8.55461e-11
9.84668e-11
1.27283e-10
1.57204e-10
1.79201e-10
1.81455e-10
1.64285e-10
1.54109e-10
1.57228e-10
1.56769e-10
1.45256e-10
1.07409e-10
7.32957e-11
6.40415e-11
3.88263e-11
5.96224e-12
-7.44222e-12
-1.10125e-11
-1.89297e-11
-4.40365e-11
-4.62324e-11
-5.01629e-11
-5.89172e-11
-6.95992e-11
-7.65117e-11
-6.35901e-11
-5.3569e-11
-6.79892e-11
-7.88041e-11
-6.05149e-11
-4.77482e-11
-4.03509e-11
-4.75899e-11
-5.32863e-11
-4.76637e-11
-3.1906e-11
-3.08682e-11
-1.85376e-11
-5.06396e-11
-8.06853e-11
-1.03988e-10
-1.31144e-10
-1.86106e-10
-2.53665e-10
-2.94733e-10
-3.15558e-10
-3.50852e-10
-3.81793e-10
-3.90408e-10
-4.02883e-10
-3.91877e-10
-3.74266e-10
-3.69246e-10
-3.6114e-10
-3.42317e-10
-3.30666e-10
-3.11792e-10
-3.09302e-10
-3.1413e-10
-2.99338e-10
-2.88924e-10
-2.79908e-10
-2.70382e-10
-2.58029e-10
-2.29945e-10
-1.93723e-10
-1.52648e-10
-1.39007e-10
-1.24046e-10
-1.07678e-10
-8.21122e-11
-4.79837e-11
-2.16497e-11
-1.78915e-12
2.08798e-11
3.96002e-11
3.8961e-11
3.4676e-11
2.68512e-11
3.02784e-11
3.23255e-11
1.75664e-11
-1.39403e-09
-1.38675e-09
-1.36336e-09
-1.3447e-09
-1.34649e-09
-1.34065e-09
-1.3349e-09
-1.32539e-09
-1.2914e-09
-1.26977e-09
-1.26712e-09
-1.24598e-09
-1.2228e-09
-1.23033e-09
-1.23261e-09
-1.20604e-09
-1.17737e-09
-1.17046e-09
-1.1732e-09
-1.16494e-09
-1.13337e-09
-1.09794e-09
-1.06208e-09
-1.03294e-09
-1.00419e-09
-9.68812e-10
-9.48016e-10
-9.16483e-10
-8.99486e-10
-8.92923e-10
-8.7546e-10
-8.69543e-10
-8.56433e-10
-8.46272e-10
-8.5368e-10
-8.92191e-10
-9.06633e-10
-8.84791e-10
-8.63838e-10
-8.74408e-10
-8.65152e-10
-8.31143e-10
-8.07826e-10
-8.00555e-10
-7.89883e-10
-7.62779e-10
-7.38679e-10
-7.18461e-10
-6.92616e-10
-6.67043e-10
-6.50199e-10
-6.27566e-10
-5.94903e-10
-5.62899e-10
-5.4546e-10
-5.38999e-10
-5.31177e-10
-5.30582e-10
-5.01478e-10
-4.89323e-10
-4.78634e-10
-4.71446e-10
-4.77636e-10
-4.68094e-10
-4.38982e-10
-4.041e-10
-3.73002e-10
-3.39468e-10
-3.15845e-10
-2.94429e-10
-2.70607e-10
-2.52714e-10
-2.43768e-10
-2.39964e-10
-2.21404e-10
-2.07575e-10
-1.95406e-10
-2.04172e-10
-1.95155e-10
-1.82216e-10
-1.83684e-10
-1.94374e-10
-1.81873e-10
-1.79519e-10
-1.68415e-10
-1.55295e-10
-1.53493e-10
-1.52841e-10
-1.52418e-10
-1.3749e-10
-1.19733e-10
-1.32264e-10
-1.13923e-10
-1.13611e-10
-1.04259e-10
-1.05349e-10
-1.09856e-10
-1.21474e-10
-1.39317e-10
-1.24519e-10
-1.15435e-10
-1.06072e-10
-1.03932e-10
-1.13106e-10
-9.62991e-11
-8.02087e-11
-8.43494e-11
-9.13124e-11
-7.46386e-11
-6.75302e-11
-6.49365e-11
-6.70777e-11
-4.37757e-11
-4.06732e-11
-1.70943e-11
1.31328e-11
3.1463e-11
6.97276e-11
9.41157e-11
1.06653e-10
1.33324e-10
1.64705e-10
1.78579e-10
1.79391e-10
1.69929e-10
1.62766e-10
1.5837e-10
1.62155e-10
1.28539e-10
9.70746e-11
7.4599e-11
4.94638e-11
3.14644e-11
7.97555e-12
-9.26997e-12
-2.09129e-11
-1.56945e-11
-3.45064e-11
-4.15452e-11
-4.09664e-11
-4.97776e-11
-5.61788e-11
-5.39735e-11
-4.74917e-11
-4.28018e-11
-4.31463e-11
-4.93012e-11
-5.10022e-11
-5.34365e-11
-5.26185e-11
-4.05427e-11
-5.1086e-11
-5.26117e-11
-4.34733e-11
-3.4317e-11
-1.68348e-11
-3.55565e-11
-8.06704e-11
-1.07236e-10
-1.30952e-10
-1.90864e-10
-2.4584e-10
-2.86896e-10
-3.11719e-10
-3.41677e-10
-3.76214e-10
-3.84822e-10
-3.85055e-10
-3.84753e-10
-3.78162e-10
-3.76849e-10
-3.67729e-10
-3.42645e-10
-3.38213e-10
-3.17845e-10
-3.12485e-10
-3.03535e-10
-2.91479e-10
-2.7814e-10
-2.62072e-10
-2.59095e-10
-2.55212e-10
-2.20384e-10
-1.92131e-10
-1.62421e-10
-1.3874e-10
-1.28061e-10
-9.80847e-11
-7.39145e-11
-6.11938e-11
-3.09541e-11
-3.71312e-12
1.29058e-11
2.86353e-11
4.06111e-11
6.63659e-11
5.89047e-11
4.93835e-11
3.36353e-11
1.19439e-11
-1.39138e-09
-1.38665e-09
-1.37781e-09
-1.36053e-09
-1.35813e-09
-1.35352e-09
-1.34068e-09
-1.32647e-09
-1.3063e-09
-1.27631e-09
-1.26503e-09
-1.24968e-09
-1.2257e-09
-1.23211e-09
-1.23096e-09
-1.2201e-09
-1.18781e-09
-1.18986e-09
-1.18238e-09
-1.15746e-09
-1.13598e-09
-1.09814e-09
-1.07512e-09
-1.05438e-09
-1.01232e-09
-9.71982e-10
-9.48232e-10
-9.25643e-10
-9.15238e-10
-8.97794e-10
-8.88095e-10
-8.68364e-10
-8.55273e-10
-8.55242e-10
-8.47954e-10
-8.74746e-10
-8.95304e-10
-8.71962e-10
-8.50197e-10
-8.53768e-10
-8.49291e-10
-8.37309e-10
-8.05844e-10
-7.95809e-10
-7.72442e-10
-7.62433e-10
-7.37255e-10
-7.1132e-10
-6.92753e-10
-6.61202e-10
-6.38847e-10
-6.32631e-10
-6.00413e-10
-5.60704e-10
-5.53464e-10
-5.53089e-10
-5.48782e-10
-5.46992e-10
-5.19852e-10
-5.06698e-10
-4.79266e-10
-4.67662e-10
-4.71779e-10
-4.56015e-10
-4.28658e-10
-3.9239e-10
-3.58975e-10
-3.32507e-10
-3.0948e-10
-2.86697e-10
-2.66022e-10
-2.41852e-10
-2.30368e-10
-2.24623e-10
-2.13185e-10
-2.00466e-10
-1.94201e-10
-1.99298e-10
-1.9323e-10
-1.85773e-10
-1.78704e-10
-1.68576e-10
-1.68919e-10
-1.6392e-10
-1.54541e-10
-1.49984e-10
-1.49025e-10
-1.59876e-10
-1.58617e-10
-1.34728e-10
-1.27289e-10
-1.23848e-10
-1.25805e-10
-1.19654e-10
-1.1132e-10
-1.09938e-10
-1.20477e-10
-1.40298e-10
-1.56328e-10
-1.39699e-10
-1.2115e-10
-1.01192e-10
-1.13103e-10
-1.07855e-10
-8.91142e-11
-7.9412e-11
-8.27674e-11
-7.5074e-11
-5.76796e-11
-4.75976e-11
-4.80095e-11
-5.56787e-11
-4.45849e-11
-2.17143e-11
-1.245e-12
2.3822e-11
4.25143e-11
6.28186e-11
1.06904e-10
1.12833e-10
1.20831e-10
1.5678e-10
1.82955e-10
1.75168e-10
1.64638e-10
1.66211e-10
1.63476e-10
1.42782e-10
1.19751e-10
8.17701e-11
6.01898e-11
5.47459e-11
2.80137e-11
1.3241e-12
-9.05442e-12
-1.30416e-11
-1.24046e-11
-3.46945e-11
-2.87255e-11
-2.94092e-11
-4.26628e-11
-4.58953e-11
-3.80132e-11
-3.45996e-11
-2.71162e-11
-3.04831e-11
-3.88569e-11
-3.94441e-11
-4.47632e-11
-4.76428e-11
-4.55013e-11
-5.46661e-11
-4.54703e-11
-4.13774e-11
-4.00383e-11
-3.18768e-11
-4.32503e-11
-8.28707e-11
-1.14461e-10
-1.39613e-10
-1.91181e-10
-2.47309e-10
-2.81827e-10
-3.13254e-10
-3.43302e-10
-3.64861e-10
-3.75296e-10
-3.77428e-10
-3.80152e-10
-3.79014e-10
-3.8037e-10
-3.68264e-10
-3.55853e-10
-3.46064e-10
-3.23162e-10
-3.14345e-10
-3.02051e-10
-2.90258e-10
-2.75665e-10
-2.53636e-10
-2.43718e-10
-2.33502e-10
-1.95359e-10
-1.82554e-10
-1.69507e-10
-1.49284e-10
-1.35089e-10
-1.11858e-10
-9.21678e-11
-6.92374e-11
-4.34783e-11
-1.66862e-11
6.35654e-12
1.17219e-11
4.90892e-11
7.35749e-11
7.23686e-11
7.04374e-11
5.24976e-11
2.56479e-11
-1.39512e-09
-1.39306e-09
-1.3871e-09
-1.37859e-09
-1.36667e-09
-1.36251e-09
-1.35052e-09
-1.33969e-09
-1.3124e-09
-1.28632e-09
-1.27753e-09
-1.26455e-09
-1.24457e-09
-1.24659e-09
-1.23867e-09
-1.21544e-09
-1.19914e-09
-1.19548e-09
-1.17771e-09
-1.15428e-09
-1.13134e-09
-1.10613e-09
-1.0748e-09
-1.05595e-09
-1.01865e-09
-9.8376e-10
-9.63675e-10
-9.37943e-10
-9.16075e-10
-8.95528e-10
-8.83262e-10
-8.48587e-10
-8.35401e-10
-8.38758e-10
-8.53559e-10
-8.76989e-10
-8.80562e-10
-8.60197e-10
-8.46915e-10
-8.52722e-10
-8.4327e-10
-8.33996e-10
-8.14875e-10
-7.95875e-10
-7.67902e-10
-7.52581e-10
-7.2958e-10
-7.07901e-10
-6.85981e-10
-6.6596e-10
-6.49484e-10
-6.35114e-10
-6.07777e-10
-5.80901e-10
-5.7058e-10
-5.67799e-10
-5.7292e-10
-5.58792e-10
-5.34239e-10
-5.18337e-10
-4.85297e-10
-4.57854e-10
-4.55655e-10
-4.48336e-10
-4.11846e-10
-3.77917e-10
-3.47589e-10
-3.25852e-10
-3.00046e-10
-2.64051e-10
-2.40955e-10
-2.26274e-10
-2.18739e-10
-2.22255e-10
-2.08236e-10
-1.87566e-10
-1.92622e-10
-2.02677e-10
-1.91439e-10
-1.76653e-10
-1.61207e-10
-1.67217e-10
-1.53126e-10
-1.618e-10
-1.49843e-10
-1.44107e-10
-1.52636e-10
-1.66735e-10
-1.70516e-10
-1.36363e-10
-1.30146e-10
-1.26565e-10
-1.18882e-10
-1.22481e-10
-1.2707e-10
-1.26998e-10
-1.21912e-10
-1.48298e-10
-1.64408e-10
-1.48734e-10
-1.25761e-10
-1.04466e-10
-9.78533e-11
-1.09865e-10
-8.68196e-11
-6.40335e-11
-6.59172e-11
-6.62461e-11
-4.56911e-11
-3.17668e-11
-3.1146e-11
-4.14469e-11
-4.02161e-11
-1.00214e-11
1.9971e-11
3.52549e-11
5.0677e-11
7.44561e-11
9.11513e-11
1.00685e-10
1.18857e-10
1.49429e-10
1.63696e-10
1.58555e-10
1.6674e-10
1.63729e-10
1.51433e-10
1.38169e-10
1.0441e-10
7.22048e-11
4.79267e-11
4.08089e-11
2.92342e-11
3.73114e-12
-6.35509e-12
-6.65945e-12
-2.16189e-11
-2.54233e-11
-3.07251e-11
-2.14395e-11
-3.65772e-11
-2.92838e-11
-2.6566e-11
-2.85546e-11
-2.75655e-11
-2.14919e-11
-2.21186e-11
-2.28449e-11
-3.69185e-11
-4.75254e-11
-3.40725e-11
-3.96662e-11
-4.88706e-11
-4.9909e-11
-3.95677e-11
-3.55237e-11
-4.85582e-11
-8.43255e-11
-1.27403e-10
-1.54013e-10
-1.96518e-10
-2.52198e-10
-2.83454e-10
-3.13421e-10
-3.33252e-10
-3.45683e-10
-3.68182e-10
-3.72959e-10
-3.78263e-10
-3.73148e-10
-3.84437e-10
-3.75197e-10
-3.61335e-10
-3.52165e-10
-3.26258e-10
-3.17322e-10
-3.10801e-10
-2.83064e-10
-2.62456e-10
-2.3396e-10
-2.28247e-10
-2.13885e-10
-1.84198e-10
-1.7026e-10
-1.58336e-10
-1.49139e-10
-1.34023e-10
-1.12785e-10
-9.45242e-11
-7.43821e-11
-4.81082e-11
-2.28086e-11
2.85138e-12
1.73925e-11
4.5275e-11
6.23661e-11
6.8476e-11
7.37378e-11
5.20154e-11
2.41855e-11
-1.40215e-09
-1.39855e-09
-1.38338e-09
-1.37413e-09
-1.36954e-09
-1.36573e-09
-1.35121e-09
-1.35081e-09
-1.3194e-09
-1.295e-09
-1.28235e-09
-1.27021e-09
-1.25476e-09
-1.2543e-09
-1.24514e-09
-1.22799e-09
-1.20823e-09
-1.19392e-09
-1.16962e-09
-1.14265e-09
-1.11783e-09
-1.09073e-09
-1.0731e-09
-1.06233e-09
-1.02343e-09
-9.93162e-10
-9.71776e-10
-9.41449e-10
-9.13247e-10
-8.85042e-10
-8.5646e-10
-8.29648e-10
-8.21003e-10
-8.32063e-10
-8.47648e-10
-8.58541e-10
-8.56599e-10
-8.52997e-10
-8.46054e-10
-8.40771e-10
-8.49695e-10
-8.35169e-10
-8.15418e-10
-7.95664e-10
-7.65716e-10
-7.42257e-10
-7.24975e-10
-7.07371e-10
-6.90822e-10
-6.7065e-10
-6.68909e-10
-6.4751e-10
-6.24773e-10
-6.0885e-10
-5.89792e-10
-5.82911e-10
-5.87225e-10
-5.67866e-10
-5.38149e-10
-5.25272e-10
-4.91893e-10
-4.65332e-10
-4.47084e-10
-4.22988e-10
-3.88504e-10
-3.59649e-10
-3.44e-10
-3.22777e-10
-3.01084e-10
-2.63393e-10
-2.30615e-10
-2.19556e-10
-2.17174e-10
-2.15035e-10
-2.06017e-10
-1.94419e-10
-1.94261e-10
-2.06376e-10
-1.94786e-10
-1.73248e-10
-1.54153e-10
-1.60461e-10
-1.60469e-10
-1.56803e-10
-1.54871e-10
-1.57653e-10
-1.57534e-10
-1.62836e-10
-1.64114e-10
-1.50885e-10
-1.4473e-10
-1.38058e-10
-1.3325e-10
-1.33572e-10
-1.36981e-10
-1.31541e-10
-1.32049e-10
-1.55853e-10
-1.56057e-10
-1.39787e-10
-1.26918e-10
-1.05283e-10
-9.59841e-11
-9.18145e-11
-7.33828e-11
-5.11245e-11
-4.65398e-11
-5.1835e-11
-3.17165e-11
-2.30139e-11
-2.9419e-11
-2.71843e-11
-7.80309e-12
9.33039e-12
2.45552e-11
5.00128e-11
6.51792e-11
8.18684e-11
8.41515e-11
9.62462e-11
1.14553e-10
1.43406e-10
1.3919e-10
1.41776e-10
1.48193e-10
1.4655e-10
1.37405e-10
1.20146e-10
1.01336e-10
7.98406e-11
5.10302e-11
4.78647e-11
4.06879e-11
1.45536e-11
9.64853e-13
-1.17271e-11
-1.4613e-11
-1.97777e-11
-3.0154e-11
-2.74499e-11
-3.5169e-11
-3.33278e-11
-2.80322e-11
-3.02115e-11
-3.07866e-11
-2.20171e-11
-1.72949e-11
-3.00733e-11
-2.84341e-11
-2.85842e-11
-4.46586e-11
-4.65988e-11
-5.56892e-11
-4.71249e-11
-4.23018e-11
-4.73055e-11
-6.50502e-11
-1.04173e-10
-1.26649e-10
-1.60226e-10
-2.06356e-10
-2.34224e-10
-2.62427e-10
-3.0116e-10
-3.34588e-10
-3.46438e-10
-3.58104e-10
-3.60643e-10
-3.70337e-10
-3.61921e-10
-3.63023e-10
-3.6007e-10
-3.58518e-10
-3.65003e-10
-3.50906e-10
-3.22817e-10
-2.9699e-10
-2.80276e-10
-2.5682e-10
-2.34208e-10
-2.28727e-10
-2.07572e-10
-1.73824e-10
-1.57156e-10
-1.44822e-10
-1.5036e-10
-1.30918e-10
-1.12949e-10
-8.8855e-11
-6.82615e-11
-4.95276e-11
-2.20203e-11
-1.16897e-11
1.51994e-11
4.00067e-11
5.52617e-11
6.48469e-11
5.76552e-11
4.28714e-11
1.45336e-11
-1.40662e-09
-1.40533e-09
-1.3848e-09
-1.37819e-09
-1.36401e-09
-1.35503e-09
-1.34946e-09
-1.34426e-09
-1.33443e-09
-1.31221e-09
-1.29664e-09
-1.27377e-09
-1.2635e-09
-1.25585e-09
-1.25089e-09
-1.22943e-09
-1.20686e-09
-1.1978e-09
-1.16502e-09
-1.13095e-09
-1.10731e-09
-1.07887e-09
-1.06895e-09
-1.05008e-09
-1.02106e-09
-9.86731e-10
-9.59702e-10
-9.40762e-10
-9.18359e-10
-8.84526e-10
-8.62577e-10
-8.2349e-10
-8.16043e-10
-8.25476e-10
-8.31172e-10
-8.38209e-10
-8.38255e-10
-8.33821e-10
-8.28799e-10
-8.35726e-10
-8.60185e-10
-8.39848e-10
-8.13022e-10
-7.81857e-10
-7.61716e-10
-7.46001e-10
-7.29732e-10
-7.15996e-10
-6.94745e-10
-6.76554e-10
-6.86895e-10
-6.55582e-10
-6.43484e-10
-6.27172e-10
-5.94478e-10
-5.94877e-10
-6.04078e-10
-5.67595e-10
-5.2667e-10
-5.20721e-10
-4.92439e-10
-4.55308e-10
-4.39353e-10
-4.21957e-10
-3.8139e-10
-3.50563e-10
-3.29091e-10
-3.14761e-10
-2.86614e-10
-2.52266e-10
-2.2708e-10
-2.1589e-10
-2.19005e-10
-2.17611e-10
-2.13835e-10
-1.94009e-10
-1.90644e-10
-2.05152e-10
-2.04478e-10
-1.7353e-10
-1.54588e-10
-1.67581e-10
-1.63036e-10
-1.57678e-10
-1.68668e-10
-1.80784e-10
-1.70776e-10
-1.61907e-10
-1.63112e-10
-1.61232e-10
-1.50552e-10
-1.36642e-10
-1.39708e-10
-1.36889e-10
-1.53292e-10
-1.3585e-10
-1.40333e-10
-1.43569e-10
-1.41601e-10
-1.40609e-10
-1.16548e-10
-1.0114e-10
-8.53288e-11
-7.52504e-11
-6.58463e-11
-4.24083e-11
-3.47015e-11
-3.2006e-11
-2.33441e-11
-2.06376e-11
-2.6498e-11
-1.68171e-11
2.12952e-12
2.22945e-11
4.42176e-11
6.15065e-11
6.80634e-11
8.17569e-11
7.77482e-11
8.58998e-11
1.11513e-10
1.28231e-10
1.29371e-10
1.42522e-10
1.3879e-10
1.3441e-10
1.26956e-10
1.24623e-10
1.13842e-10
8.40058e-11
6.64349e-11
5.73212e-11
4.45568e-11
3.18526e-11
7.20741e-12
-1.2755e-11
-2.00494e-11
-3.22768e-11
-4.92946e-11
-5.32401e-11
-5.11664e-11
-4.79015e-11
-3.02125e-11
-2.88209e-11
-2.37107e-11
-2.605e-11
-2.59897e-11
-1.92639e-11
-2.31182e-11
-2.46718e-11
-2.24023e-11
-3.31717e-11
-5.30825e-11
-4.45509e-11
-3.17844e-11
-5.72307e-11
-8.76252e-11
-1.08597e-10
-1.24052e-10
-1.66795e-10
-2.01305e-10
-2.22471e-10
-2.51975e-10
-2.94211e-10
-3.32835e-10
-3.62332e-10
-3.66262e-10
-3.60936e-10
-3.62547e-10
-3.6596e-10
-3.5508e-10
-3.56984e-10
-3.57193e-10
-3.6726e-10
-3.64063e-10
-3.32237e-10
-3.05762e-10
-2.8706e-10
-2.6606e-10
-2.4276e-10
-2.07662e-10
-1.90936e-10
-1.72585e-10
-1.51725e-10
-1.42482e-10
-1.36698e-10
-1.34118e-10
-1.16609e-10
-8.77989e-11
-6.02604e-11
-4.19404e-11
-2.83454e-11
-1.45443e-11
1.97796e-11
3.56625e-11
5.03148e-11
5.78836e-11
5.48321e-11
3.46057e-11
1.09968e-11
-1.39299e-09
-1.38931e-09
-1.38106e-09
-1.37024e-09
-1.35636e-09
-1.34653e-09
-1.35345e-09
-1.34589e-09
-1.33464e-09
-1.32267e-09
-1.31102e-09
-1.27401e-09
-1.26379e-09
-1.26077e-09
-1.24404e-09
-1.23614e-09
-1.2166e-09
-1.178e-09
-1.15392e-09
-1.12629e-09
-1.0947e-09
-1.07585e-09
-1.06023e-09
-1.0432e-09
-1.01862e-09
-9.90719e-10
-9.56366e-10
-9.24871e-10
-8.98522e-10
-8.84311e-10
-8.58272e-10
-8.31543e-10
-8.17078e-10
-8.22976e-10
-8.10368e-10
-8.16666e-10
-8.16869e-10
-8.23553e-10
-8.23524e-10
-8.43772e-10
-8.58977e-10
-8.4013e-10
-8.22056e-10
-7.975e-10
-7.71507e-10
-7.59319e-10
-7.40264e-10
-7.21425e-10
-6.99982e-10
-6.93003e-10
-6.89773e-10
-6.69361e-10
-6.48907e-10
-6.34756e-10
-6.10247e-10
-6.01068e-10
-6.03884e-10
-5.75042e-10
-5.29677e-10
-5.09308e-10
-4.8448e-10
-4.48837e-10
-4.25333e-10
-4.04753e-10
-3.79441e-10
-3.49849e-10
-3.32612e-10
-3.05564e-10
-2.81712e-10
-2.54356e-10
-2.18528e-10
-2.34706e-10
-2.34702e-10
-2.2636e-10
-2.18842e-10
-1.9556e-10
-2.03743e-10
-2.1591e-10
-2.07416e-10
-1.99597e-10
-1.80785e-10
-1.81109e-10
-1.75413e-10
-1.81175e-10
-1.8407e-10
-1.8127e-10
-1.71485e-10
-1.63878e-10
-1.61468e-10
-1.5886e-10
-1.46456e-10
-1.3294e-10
-1.37813e-10
-1.48243e-10
-1.4768e-10
-1.33786e-10
-1.35463e-10
-1.31329e-10
-1.40716e-10
-1.24367e-10
-1.02424e-10
-9.44044e-11
-8.01196e-11
-7.61188e-11
-5.4266e-11
-3.40546e-11
-2.30748e-11
-9.64982e-12
-1.40741e-11
-1.79681e-11
-1.66571e-11
8.73489e-12
2.12111e-11
3.33912e-11
5.69804e-11
6.88587e-11
7.35153e-11
7.99978e-11
7.1968e-11
8.53055e-11
9.78774e-11
1.09251e-10
1.20539e-10
1.23791e-10
1.31827e-10
1.33649e-10
1.36733e-10
1.38438e-10
1.28618e-10
1.04729e-10
8.30205e-11
6.32921e-11
3.26098e-11
2.87655e-11
8.72114e-12
-1.88732e-11
-3.28378e-11
-5.54382e-11
-6.3779e-11
-6.9755e-11
-7.41194e-11
-7.25964e-11
-4.81894e-11
-3.844e-11
-3.29756e-11
-4.15397e-11
-3.14816e-11
-1.44358e-11
-1.62409e-11
-8.95391e-12
-1.69669e-11
-3.18259e-11
-5.09659e-11
-4.87496e-11
-3.02639e-11
-5.95112e-11
-8.50255e-11
-9.30713e-11
-1.25607e-10
-1.52929e-10
-1.83532e-10
-2.16819e-10
-2.47564e-10
-2.81167e-10
-3.30133e-10
-3.60174e-10
-3.69774e-10
-3.61529e-10
-3.52597e-10
-3.5634e-10
-3.5719e-10
-3.58906e-10
-3.5968e-10
-3.65236e-10
-3.54066e-10
-3.35412e-10
-3.15081e-10
-2.97351e-10
-2.63841e-10
-2.39492e-10
-2.10108e-10
-1.96315e-10
-1.85056e-10
-1.55167e-10
-1.36431e-10
-1.35839e-10
-1.32388e-10
-1.14903e-10
-8.14242e-11
-5.44653e-11
-4.19072e-11
-1.9748e-11
-4.0289e-12
1.46062e-11
3.99249e-11
4.66024e-11
5.2292e-11
5.3306e-11
4.63486e-11
2.09386e-11
-1.38499e-09
-1.38825e-09
-1.37205e-09
-1.36244e-09
-1.35652e-09
-1.34439e-09
-1.34516e-09
-1.34385e-09
-1.32764e-09
-1.31527e-09
-1.30807e-09
-1.27526e-09
-1.26704e-09
-1.27016e-09
-1.25908e-09
-1.25031e-09
-1.21031e-09
-1.16567e-09
-1.14451e-09
-1.12174e-09
-1.09555e-09
-1.06375e-09
-1.04107e-09
-1.01211e-09
-9.98141e-10
-9.70925e-10
-9.40208e-10
-9.03486e-10
-8.86423e-10
-8.8235e-10
-8.59205e-10
-8.43941e-10
-8.26422e-10
-8.17353e-10
-8.15144e-10
-8.0351e-10
-8.11945e-10
-8.12703e-10
-8.18293e-10
-8.35034e-10
-8.45979e-10
-8.39788e-10
-8.27321e-10
-8.05701e-10
-7.74656e-10
-7.73304e-10
-7.58765e-10
-7.41045e-10
-7.13976e-10
-7.04982e-10
-6.95784e-10
-6.71254e-10
-6.58312e-10
-6.36843e-10
-6.09233e-10
-6.00438e-10
-5.89213e-10
-5.67037e-10
-5.33873e-10
-4.94687e-10
-4.74e-10
-4.38987e-10
-4.18951e-10
-3.99651e-10
-3.73068e-10
-3.42627e-10
-3.15608e-10
-2.93732e-10
-2.80587e-10
-2.58702e-10
-2.43047e-10
-2.43732e-10
-2.45265e-10
-2.38271e-10
-2.26812e-10
-2.07975e-10
-2.20009e-10
-2.2123e-10
-2.07482e-10
-1.94917e-10
-1.87172e-10
-1.94868e-10
-1.84351e-10
-1.92327e-10
-1.97915e-10
-1.94734e-10
-1.82884e-10
-1.70599e-10
-1.5884e-10
-1.5434e-10
-1.57017e-10
-1.42454e-10
-1.42005e-10
-1.50664e-10
-1.40387e-10
-1.34801e-10
-1.34015e-10
-1.29562e-10
-1.23212e-10
-1.10786e-10
-1.00022e-10
-9.03498e-11
-8.07813e-11
-7.53327e-11
-5.19377e-11
-3.61344e-11
-2.29531e-11
-1.81654e-11
-6.52215e-12
-1.51936e-12
1.32333e-12
1.97843e-11
2.92263e-11
3.33515e-11
5.58847e-11
7.84146e-11
6.75928e-11
6.5868e-11
8.10031e-11
8.82095e-11
9.98308e-11
1.15375e-10
1.20681e-10
1.26087e-10
1.40956e-10
1.42201e-10
1.49782e-10
1.50566e-10
1.36954e-10
1.16328e-10
8.42501e-11
6.5168e-11
4.36343e-11
2.19274e-11
-7.03655e-12
-2.87471e-11
-4.05623e-11
-6.46933e-11
-8.1347e-11
-8.55175e-11
-8.82864e-11
-7.80054e-11
-5.9981e-11
-5.30138e-11
-4.70429e-11
-4.07242e-11
-1.90519e-11
-4.96488e-12
-1.21824e-11
3.61007e-12
4.60216e-12
-2.28778e-11
-5.3617e-11
-5.51752e-11
-3.50628e-11
-5.8041e-11
-6.92322e-11
-8.44577e-11
-1.21789e-10
-1.46807e-10
-1.74422e-10
-2.13475e-10
-2.55491e-10
-2.97034e-10
-3.30534e-10
-3.57942e-10
-3.67424e-10
-3.61673e-10
-3.66266e-10
-3.76238e-10
-3.70486e-10
-3.66974e-10
-3.60756e-10
-3.59325e-10
-3.55743e-10
-3.36261e-10
-3.22381e-10
-3.08488e-10
-2.74586e-10
-2.429e-10
-2.15643e-10
-2.02625e-10
-1.90153e-10
-1.62426e-10
-1.44131e-10
-1.27763e-10
-1.23509e-10
-1.06501e-10
-7.87363e-11
-5.07373e-11
-3.35221e-11
1.11722e-12
4.38332e-12
1.5336e-11
3.61237e-11
4.93994e-11
4.9815e-11
4.74505e-11
4.20165e-11
1.1863e-11
-1.37366e-09
-1.37733e-09
-1.35238e-09
-1.34635e-09
-1.35313e-09
-1.34821e-09
-1.34093e-09
-1.33693e-09
-1.3246e-09
-1.31958e-09
-1.30665e-09
-1.2845e-09
-1.26583e-09
-1.27017e-09
-1.2575e-09
-1.24264e-09
-1.21219e-09
-1.17578e-09
-1.13407e-09
-1.09335e-09
-1.06992e-09
-1.04999e-09
-1.03338e-09
-1.00545e-09
-9.7749e-10
-9.54498e-10
-9.36696e-10
-8.97568e-10
-8.75316e-10
-8.86273e-10
-8.66592e-10
-8.51504e-10
-8.29615e-10
-8.13831e-10
-8.13865e-10
-8.11601e-10
-8.26397e-10
-8.2084e-10
-8.11315e-10
-8.44558e-10
-8.50819e-10
-8.36502e-10
-8.2831e-10
-8.13882e-10
-7.97612e-10
-7.81754e-10
-7.8281e-10
-7.63642e-10
-7.30871e-10
-7.08184e-10
-6.94204e-10
-6.79843e-10
-6.56838e-10
-6.33557e-10
-6.05111e-10
-5.89547e-10
-5.69762e-10
-5.56702e-10
-5.32348e-10
-5.00617e-10
-4.61232e-10
-4.2912e-10
-4.10648e-10
-3.99028e-10
-3.69347e-10
-3.35405e-10
-3.00325e-10
-2.82456e-10
-2.7745e-10
-2.64395e-10
-2.57346e-10
-2.52105e-10
-2.52227e-10
-2.52083e-10
-2.39263e-10
-2.29041e-10
-2.37609e-10
-2.25545e-10
-2.26983e-10
-2.0256e-10
-2.04594e-10
-2.12823e-10
-1.90659e-10
-2.00697e-10
-1.94544e-10
-1.8667e-10
-1.91237e-10
-1.78577e-10
-1.80019e-10
-1.57586e-10
-1.52592e-10
-1.5195e-10
-1.50899e-10
-1.58495e-10
-1.42993e-10
-1.35151e-10
-1.27843e-10
-1.25251e-10
-1.27044e-10
-1.12785e-10
-1.0172e-10
-8.30279e-11
-7.04809e-11
-6.25959e-11
-5.48833e-11
-4.26e-11
-2.19727e-11
-9.79116e-12
-4.58643e-12
5.04464e-12
1.29335e-11
3.03873e-11
3.32591e-11
3.62977e-11
4.96179e-11
6.59568e-11
6.28949e-11
6.9498e-11
6.45276e-11
8.87906e-11
1.09068e-10
1.12032e-10
1.12839e-10
1.12779e-10
1.30772e-10
1.40104e-10
1.45732e-10
1.48161e-10
1.32483e-10
1.11537e-10
9.22737e-11
7.21534e-11
4.88597e-11
2.17392e-11
-7.46279e-12
-3.07662e-11
-4.14298e-11
-7.57738e-11
-8.36747e-11
-9.3341e-11
-9.41719e-11
-8.80933e-11
-7.66583e-11
-7.82887e-11
-6.82795e-11
-5.17844e-11
-3.12197e-11
-1.84353e-11
-1.50116e-11
-3.9757e-12
3.74653e-13
-1.93736e-11
-3.72642e-11
-4.4015e-11
-3.6084e-11
-4.57372e-11
-6.09921e-11
-7.71304e-11
-1.11157e-10
-1.35414e-10
-1.73629e-10
-2.05535e-10
-2.51794e-10
-2.92077e-10
-3.32796e-10
-3.44039e-10
-3.54965e-10
-3.61835e-10
-3.68757e-10
-3.83331e-10
-3.84672e-10
-3.6704e-10
-3.51579e-10
-3.44115e-10
-3.43336e-10
-3.44043e-10
-3.26984e-10
-3.08982e-10
-2.80876e-10
-2.49903e-10
-2.27122e-10
-2.11922e-10
-1.9676e-10
-1.70676e-10
-1.42459e-10
-1.27489e-10
-1.19943e-10
-1.01389e-10
-6.60095e-11
-3.61483e-11
-2.71996e-11
2.55362e-12
1.33934e-11
2.25952e-11
4.70422e-11
4.69767e-11
4.73824e-11
4.47011e-11
3.45209e-11
1.08647e-11
-1.35915e-09
-1.36773e-09
-1.34055e-09
-1.31751e-09
-1.33191e-09
-1.33161e-09
-1.32817e-09
-1.32704e-09
-1.3209e-09
-1.31601e-09
-1.29999e-09
-1.28635e-09
-1.26683e-09
-1.27393e-09
-1.26044e-09
-1.2367e-09
-1.21408e-09
-1.17562e-09
-1.12697e-09
-1.0859e-09
-1.05351e-09
-1.03336e-09
-1.01582e-09
-9.82096e-10
-9.62976e-10
-9.36942e-10
-9.3062e-10
-9.07601e-10
-8.76156e-10
-8.81184e-10
-8.71526e-10
-8.56482e-10
-8.35506e-10
-8.13274e-10
-8.17691e-10
-8.23848e-10
-8.30948e-10
-8.35058e-10
-8.2987e-10
-8.39976e-10
-8.48801e-10
-8.46219e-10
-8.35108e-10
-8.24618e-10
-8.01933e-10
-7.90042e-10
-7.9124e-10
-7.67238e-10
-7.3784e-10
-7.1636e-10
-6.91587e-10
-6.72942e-10
-6.49763e-10
-6.16461e-10
-6.07176e-10
-5.94253e-10
-5.68741e-10
-5.48991e-10
-5.24221e-10
-4.90467e-10
-4.58606e-10
-4.30923e-10
-4.04275e-10
-3.89913e-10
-3.68774e-10
-3.2283e-10
-2.96387e-10
-2.88738e-10
-2.77432e-10
-2.64922e-10
-2.63413e-10
-2.59332e-10
-2.63409e-10
-2.67955e-10
-2.51462e-10
-2.39761e-10
-2.33264e-10
-2.2897e-10
-2.31266e-10
-2.12573e-10
-2.11148e-10
-2.15891e-10
-2.1627e-10
-2.10621e-10
-2.01875e-10
-1.90061e-10
-1.90187e-10
-1.96246e-10
-1.93958e-10
-1.68182e-10
-1.4892e-10
-1.40665e-10
-1.50047e-10
-1.63895e-10
-1.58219e-10
-1.36218e-10
-1.25031e-10
-1.17267e-10
-1.20055e-10
-1.12722e-10
-9.07189e-11
-7.68373e-11
-7.67341e-11
-6.68176e-11
-5.50641e-11
-3.60288e-11
-2.2861e-11
-8.69824e-12
-8.92478e-12
1.37794e-12
2.20534e-11
3.4285e-11
3.20633e-11
3.35734e-11
4.7142e-11
5.78482e-11
6.76351e-11
7.84264e-11
6.85178e-11
8.43438e-11
1.03759e-10
1.14175e-10
1.22045e-10
1.15504e-10
1.27754e-10
1.36302e-10
1.365e-10
1.29018e-10
1.2226e-10
9.33016e-11
7.4901e-11
7.0048e-11
4.49034e-11
1.90959e-11
-9.7937e-12
-3.70673e-11
-5.77749e-11
-8.0379e-11
-9.55269e-11
-1.03995e-10
-1.00457e-10
-9.23585e-11
-8.99071e-11
-8.33793e-11
-7.05759e-11
-5.55016e-11
-2.98721e-11
-1.63164e-11
-1.33664e-11
-1.18054e-11
-4.74314e-12
-2.03331e-11
-3.07146e-11
-3.5683e-11
-4.77276e-11
-4.83312e-11
-6.2531e-11
-9.07876e-11
-1.16187e-10
-1.45611e-10
-1.77612e-10
-2.19611e-10
-2.50915e-10
-2.97722e-10
-3.23773e-10
-3.41648e-10
-3.45539e-10
-3.50832e-10
-3.61973e-10
-3.74255e-10
-3.76647e-10
-3.63529e-10
-3.44776e-10
-3.33735e-10
-3.29144e-10
-3.35066e-10
-3.25228e-10
-3.17037e-10
-2.81151e-10
-2.56869e-10
-2.38451e-10
-2.25187e-10
-2.01054e-10
-1.69571e-10
-1.4266e-10
-1.2683e-10
-1.04097e-10
-7.92963e-11
-4.44718e-11
-2.96359e-11
-1.47243e-11
9.13232e-13
1.33695e-11
3.13777e-11
4.95871e-11
3.95234e-11
4.11903e-11
3.82248e-11
2.49216e-11
1.32977e-11
-1.34751e-09
-1.35449e-09
-1.33655e-09
-1.30348e-09
-1.30947e-09
-1.31642e-09
-1.32415e-09
-1.32866e-09
-1.31383e-09
-1.31203e-09
-1.29694e-09
-1.28006e-09
-1.26963e-09
-1.25771e-09
-1.24084e-09
-1.22516e-09
-1.20188e-09
-1.17458e-09
-1.11649e-09
-1.06554e-09
-1.04471e-09
-1.01661e-09
-1.00283e-09
-9.6818e-10
-9.43476e-10
-9.35198e-10
-9.33246e-10
-9.06477e-10
-8.64165e-10
-8.64778e-10
-8.66967e-10
-8.56073e-10
-8.32536e-10
-8.05433e-10
-8.04008e-10
-8.17105e-10
-8.30249e-10
-8.40947e-10
-8.45033e-10
-8.44012e-10
-8.53822e-10
-8.46728e-10
-8.42864e-10
-8.31529e-10
-7.93419e-10
-7.95176e-10
-7.92265e-10
-7.70446e-10
-7.3662e-10
-7.09255e-10
-6.89142e-10
-6.73707e-10
-6.42626e-10
-6.17106e-10
-6.05922e-10
-5.91466e-10
-5.71924e-10
-5.39272e-10
-5.12226e-10
-4.82398e-10
-4.49415e-10
-4.24433e-10
-4.05414e-10
-3.90894e-10
-3.64629e-10
-3.24169e-10
-2.92164e-10
-2.89951e-10
-2.82413e-10
-2.76156e-10
-2.63363e-10
-2.50386e-10
-2.68212e-10
-2.79662e-10
-2.73053e-10
-2.52869e-10
-2.30596e-10
-2.32734e-10
-2.30768e-10
-2.17411e-10
-2.22428e-10
-2.29636e-10
-2.21853e-10
-2.0845e-10
-2.07761e-10
-2.05489e-10
-2.0221e-10
-1.95001e-10
-1.817e-10
-1.67889e-10
-1.65373e-10
-1.67645e-10
-1.64105e-10
-1.60891e-10
-1.5659e-10
-1.49239e-10
-1.20565e-10
-1.06552e-10
-1.03426e-10
-1.01929e-10