/*--------------------------------*- C++ -*----------------------------------*\
  =========                 |
  \\      /  F ield         | OpenFOAM: The Open Source CFD Toolbox
   \\    /   O peration     | Website:  https://openfoam.org
    \\  /    A nd           | Version:  6
     \\/     M anipulation  |
\*---------------------------------------------------------------------------*/
FoamFile
{
    version     2.0;
    format      ascii;
    class       volVectorField;
    location    "110";
    object      U;
}
// * * * * * * * * * * * * * * * * * * * * * * * * * * * * * * * * * * * * * //

dimensions      [0 1 -1 0 0 0 0];

internalField   nonuniform List<vector> 
4000
(
(400 5.60145e-14 0)
(400 6.97212e-14 0)
(400 6.27188e-14 0)
(400 6.07853e-14 0)
(400 7.46509e-14 0)
(400 8.04378e-14 0)
(400 8.29124e-14 0)
(400 8.61356e-14 0)
(400 8.17229e-14 0)
(400 4.78351e-14 0)
(400 3.26007e-14 0)
(400 2.1799e-14 0)
(400 -2.83023e-15 0)
(400 -1.57775e-14 0)
(400 -1.26001e-14 0)
(400 -8.3431e-15 0)
(400 -1.93055e-14 0)
(400 -3.84315e-14 0)
(400 -2.39917e-14 0)
(400 2.73102e-15 0)
(400 3.25583e-14 0)
(400 5.22071e-14 0)
(400 6.2695e-14 0)
(400 6.94656e-14 0)
(400 7.5738e-14 0)
(400 7.73409e-14 0)
(400 7.42369e-14 0)
(400 7.68004e-14 0)
(400 7.13604e-14 0)
(400 5.31992e-14 0)
(400 3.34781e-14 0)
(400 1.73561e-14 0)
(400 1.93791e-14 0)
(400 1.62683e-14 0)
(400 1.68557e-14 0)
(400 3.24894e-14 0)
(400 3.9071e-14 0)
(400 4.20594e-14 0)
(400 4.11196e-14 0)
(400 3.88116e-14 0)
(400 4.24173e-14 0)
(400 4.77005e-14 0)
(400 3.72062e-14 0)
(400 3.09836e-14 0)
(400 4.19803e-14 0)
(400 4.6271e-14 0)
(400 4.94305e-14 0)
(400 3.35269e-14 0)
(400 8.04996e-15 0)
(400 3.92793e-15 0)
(400 1.00949e-14 0)
(400 1.34633e-14 0)
(400 2.06026e-14 0)
(400 1.97461e-14 0)
(400 5.05881e-15 0)
(400 3.39882e-15 0)
(400 -4.34755e-15 0)
(400 -8.87561e-15 0)
(400 -9.98882e-15 0)
(400 -1.01908e-14 0)
(400 -9.62489e-15 0)
(400 -9.75762e-15 0)
(400 8.01606e-15 0)
(400 3.63398e-14 0)
(400 5.08837e-14 0)
(400 5.16908e-14 0)
(400 5.14472e-14 0)
(400 5.43744e-14 0)
(400 5.04959e-14 0)
(400 3.99369e-14 0)
(400 2.94374e-14 0)
(400 1.0682e-14 0)
(400 6.40487e-15 0)
(400 1.2566e-14 0)
(400 1.51099e-14 0)
(400 2.34416e-14 0)
(400 1.48834e-14 0)
(400 1.45386e-14 0)
(400 1.28873e-14 0)
(400 -9.42167e-15 0)
(400 -9.09897e-15 0)
(400 2.84332e-16 0)
(400 -7.9805e-15 0)
(400 -1.87686e-14 0)
(400 -2.98847e-14 0)
(400 -3.68194e-14 0)
(400 -2.914e-14 0)
(400 -3.73568e-14 0)
(400 -4.75697e-14 0)
(400 -3.04648e-14 0)
(400 -4.31154e-15 0)
(400 2.48352e-14 0)
(400 2.12754e-14 0)
(400 -5.30569e-15 0)
(400 -4.6128e-15 0)
(400 8.0036e-15 0)
(400 2.45501e-15 0)
(400 2.49606e-14 0)
(400 3.81224e-14 0)
(400 4.08873e-14 0)
(400 3.34494e-14 0)
(400 1.11335e-14 0)
(400 6.12787e-15 0)
(400 2.95319e-15 0)
(400 -4.1454e-15 0)
(400 -1.37061e-14 0)
(400 -1.69298e-14 0)
(400 -6.44192e-15 0)
(400 4.1493e-15 0)
(400 1.28242e-14 0)
(400 1.98733e-14 0)
(400 4.21678e-14 0)
(400 4.7731e-14 0)
(400 6.15787e-14 0)
(400 7.3478e-14 0)
(400 8.4239e-14 0)
(400 7.71926e-14 0)
(400 5.77175e-14 0)
(400 6.0112e-14 0)
(400 6.66339e-14 0)
(400 5.39188e-14 0)
(400 1.93372e-14 0)
(400 -1.45477e-14 0)
(400 -2.75113e-14 0)
(400 -3.12706e-14 0)
(400 -2.34791e-14 0)
(400 -1.74697e-14 0)
(400 -3.08472e-14 0)
(400 -4.51294e-14 0)
(400 -3.80296e-14 0)
(400 -2.82019e-14 0)
(400 -3.99227e-14 0)
(400 -5.0445e-14 0)
(400 -5.01798e-14 0)
(400 -4.27265e-14 0)
(400 -4.16596e-14 0)
(400 -4.47129e-14 0)
(400 -2.33083e-14 0)
(400 -1.87676e-14 0)
(400 -7.68744e-15 0)
(400 2.33255e-15 0)
(400 -6.14333e-15 0)
(400 4.04126e-15 0)
(400 -2.84275e-15 0)
(400 -1.54138e-14 0)
(400 -6.46781e-15 0)
(400 -2.02788e-15 0)
(400 -6.28771e-15 0)
(400 -5.00371e-15 0)
(400 2.23988e-15 0)
(400 2.84296e-14 0)
(400 5.73114e-14 0)
(400 7.33397e-14 0)
(400 8.35022e-14 0)
(400 9.44474e-14 0)
(400 6.74674e-14 0)
(400 6.10374e-14 0)
(400 5.6541e-14 0)
(400 3.41541e-14 0)
(400 3.17553e-15 0)
(400 -1.32836e-14 0)
(400 -1.00265e-14 0)
(400 -5.38277e-15 0)
(400 -1.18046e-14 0)
(400 -9.03507e-15 0)
(400 2.70359e-15 0)
(400 1.49086e-14 0)
(400 2.37461e-14 0)
(400 1.42219e-14 0)
(400 2.13475e-15 0)
(400 4.97803e-15 0)
(400 7.8977e-15 0)
(400 3.08569e-15 0)
(400 4.17991e-15 0)
(400 -8.74455e-15 0)
(400 -2.54373e-14 0)
(400 -2.53486e-14 0)
(400 -1.88529e-14 0)
(400 -1.64212e-14 0)
(400 -2.25019e-14 0)
(400 -7.3281e-15 0)
(400 -1.15362e-15 0)
(400 -1.03895e-14 0)
(400 -2.30731e-14 0)
(400 -4.2513e-14 0)
(400 -4.12259e-14 0)
(400 -4.00963e-14 0)
(400 -2.6208e-14 0)
(400 -1.63779e-14 0)
(400 -1.20347e-14 0)
(400 -7.97896e-15 0)
(400 -6.69578e-15 0)
(400 -3.13836e-15 0)
(400 -3.32294e-15 0)
(400 5.42692e-15 0)
(400 4.16668e-15 0)
(400 8.48313e-15 0)
(400 1.70856e-14 0)
(400 2.92061e-14 0)
(400 3.6293e-14 0)
(400 3.38918e-15 0)
(400 7.93313e-15 0)
(400 2.44868e-14 0)
(400 3.29549e-14 0)
(400 4.05783e-14 0)
(400 5.30529e-14 0)
(400 6.50467e-14 0)
(400 6.67971e-14 0)
(400 5.22038e-14 0)
(400 3.85653e-14 0)
(400 1.44428e-14 0)
(400 -1.53711e-14 0)
(400 -2.77559e-14 0)
(400 -3.19185e-14 0)
(400 -2.60541e-14 0)
(400 -2.95682e-14 0)
(400 -3.28406e-14 0)
(400 -1.77819e-14 0)
(400 -2.06068e-15 0)
(400 3.70731e-14 0)
(400 5.51823e-14 0)
(400 7.14177e-14 0)
(400 7.3597e-14 0)
(400 7.76319e-14 0)
(400 8.54264e-14 0)
(400 8.01385e-14 0)
(400 6.93871e-14 0)
(400 6.08248e-14 0)
(400 5.12472e-14 0)
(400 3.93966e-14 0)
(400 5.12811e-14 0)
(400 7.61447e-14 0)
(400 8.58181e-14 0)
(400 7.72807e-14 0)
(400 6.39655e-14 0)
(400 7.24098e-14 0)
(400 7.24989e-14 0)
(400 4.86492e-14 0)
(400 3.34716e-14 0)
(400 2.78256e-14 0)
(400 3.21902e-14 0)
(400 1.64348e-14 0)
(400 -3.9086e-15 0)
(400 -4.495e-15 0)
(400 3.70666e-15 0)
(400 2.50993e-14 0)
(400 3.46144e-14 0)
(400 2.82711e-14 0)
(400 2.23827e-14 0)
(400 1.86085e-14 0)
(400 3.6386e-14 0)
(400 4.45183e-14 0)
(400 3.6687e-14 0)
(400 2.29173e-14 0)
(400 7.73599e-15 0)
(400 -2.28245e-15 0)
(400 -3.66486e-15 0)
(400 1.5417e-14 0)
(400 1.33817e-14 0)
(400 9.59608e-15 0)
(400 4.0615e-15 0)
(400 1.43118e-15 0)
(400 1.39795e-14 0)
(400 1.7189e-14 0)
(400 2.16566e-14 0)
(400 2.93723e-14 0)
(400 3.09582e-14 0)
(400 2.90356e-14 0)
(400 3.4804e-14 0)
(400 3.11864e-14 0)
(400 1.86886e-14 0)
(400 3.87346e-15 0)
(400 -3.72021e-15 0)
(400 -6.80964e-15 0)
(400 2.70542e-15 0)
(400 6.56306e-15 0)
(400 -2.87426e-16 0)
(400 2.56923e-14 0)
(400 4.13236e-14 0)
(400 4.12091e-14 0)
(400 4.35982e-14 0)
(400 5.3568e-14 0)
(400 5.12633e-14 0)
(400 5.07267e-14 0)
(400 4.65617e-14 0)
(400 3.35853e-14 0)
(400 2.94446e-14 0)
(400 3.31868e-14 0)
(400 5.38981e-14 0)
(400 5.68942e-14 0)
(400 4.41883e-14 0)
(400 4.45128e-14 0)
(400 2.54259e-14 0)
(400 2.72647e-14 0)
(400 2.27678e-14 0)
(400 1.87503e-14 0)
(400 1.57875e-14 0)
(400 5.98519e-15 0)
(400 1.86578e-14 0)
(400 3.44674e-14 0)
(400 1.91829e-14 0)
(400 1.12381e-14 0)
(400 9.15501e-15 0)
(400 3.19241e-14 0)
(400 2.45885e-14 0)
(400 8.89064e-15 0)
(400 1.073e-14 0)
(400 2.76305e-14 0)
(400 2.80518e-14 0)
(400 2.55861e-14 0)
(400 1.71321e-14 0)
(400 2.56517e-14 0)
(400 2.58975e-14 0)
(400 3.2271e-14 0)
(400 3.41167e-14 0)
(400 2.86594e-14 0)
(400 3.21962e-14 0)
(400 2.12123e-14 0)
(400 9.89325e-15 0)
(400 2.23883e-16 0)
(400 -1.08069e-14 0)
(400 -2.54098e-14 0)
(400 -4.19757e-14 0)
(400 -4.91633e-14 0)
(400 -5.49518e-14 0)
(400 -6.44929e-14 0)
(400 -6.40453e-14 0)
(400 -7.31967e-14 0)
(400 -6.18583e-14 0)
(400 -5.12407e-14 0)
(400 -4.46117e-14 0)
(400 -3.36044e-14 0)
(400 -3.95835e-14 0)
(400 -4.35203e-14 0)
(400 -3.28013e-14 0)
(400 -2.81804e-14 0)
(400 -3.13917e-14 0)
(400 -3.01903e-14 0)
(400 -2.77909e-14 0)
(400 -2.82086e-14 0)
(400 -2.10515e-14 0)
(400 -1.71433e-14 0)
(400 -1.48333e-14 0)
(400 -1.16024e-14 0)
(400 -3.53335e-15 0)
(400 -1.82441e-14 0)
(400 -4.3246e-14 0)
(400 -4.78167e-14 0)
(400 -1.58939e-14 0)
(400 7.54363e-15 0)
(400 4.86889e-15 0)
(400 1.51183e-14 0)
(400 4.19224e-14 0)
(400 7.66085e-14 0)
(400 8.8703e-14 0)
(400 7.62802e-14 0)
(400 6.42646e-14 0)
(400 7.48193e-14 0)
(400 8.18426e-14 0)
(400 6.88654e-14 0)
(400 6.27338e-14 0)
(400 4.98616e-14 0)
(400 4.36423e-14 0)
(400 4.09831e-14 0)
(400 3.94655e-14 0)
(400 5.1685e-14 0)
(400 6.2716e-14 0)
(400 6.48403e-14 0)
(400 5.67756e-14 0)
(400 4.89502e-14 0)
(400 4.73774e-14 0)
(400 5.14117e-14 0)
(400 3.94884e-14 0)
(400 4.14017e-14 0)
(400 4.04198e-14 0)
(400 4.57083e-14 0)
(400 4.40143e-14 0)
(400 4.89319e-14 0)
(400 4.6692e-14 0)
(400 4.62663e-14 0)
(400 4.77963e-14 0)
(400 4.4794e-14 0)
(400 3.98498e-14 0)
(400 3.4651e-14 0)
(400 3.78917e-14 0)
(400 2.27301e-14 0)
(400 2.20849e-14 0)
(400 2.60349e-14 0)
(400 3.70068e-14 0)
(400 6.66621e-14 0)
(400 7.03015e-14 0)
(400 6.84537e-14 0)
(400 8.69747e-14 0)
(400 9.71512e-14 0)
(400 1.02276e-13 0)
(400 8.5888e-14 0)
(400 7.67995e-14 0)
(400 7.7492e-14 0)
(400 8.98291e-14 0)
(400 9.67083e-14 0)
(400 -1.84579e-14 0)
(400 -1.74415e-14 0)
(400 1.22629e-14 0)
(400 2.54796e-14 0)
(400 3.75126e-14 0)
(400 5.49269e-14 0)
(400 5.16686e-14 0)
(400 3.77643e-14 0)
(400 3.16655e-14 0)
(400 1.78374e-14 0)
(400 -1.88204e-14 0)
(400 -3.65693e-14 0)
(400 -5.0833e-14 0)
(400 -4.78004e-14 0)
(400 -4.08803e-14 0)
(400 -3.80735e-14 0)
(400 -3.38378e-14 0)
(400 4.94801e-15 0)
(400 1.9825e-14 0)
(400 1.55333e-14 0)
(400 2.35436e-14 0)
(400 2.46693e-14 0)
(400 3.95567e-14 0)
(400 6.63087e-14 0)
(400 7.15342e-14 0)
(400 5.13427e-14 0)
(400 3.45138e-14 0)
(400 2.81927e-14 0)
(400 3.15015e-14 0)
(400 2.68928e-14 0)
(400 4.16162e-14 0)
(400 5.3731e-14 0)
(400 5.30713e-14 0)
(400 6.98099e-14 0)
(400 5.88701e-14 0)
(400 4.73754e-14 0)
(400 4.83241e-14 0)
(400 2.1884e-14 0)
(400 -7.41148e-15 0)
(400 -1.88881e-14 0)
(400 -1.84238e-14 0)
(400 -1.70401e-14 0)
(400 -2.60453e-14 0)
(400 -1.9677e-14 0)
(400 -2.42009e-14 0)
(400 4.17637e-15 0)
(400 1.23968e-14 0)
(400 5.75744e-15 0)
(400 5.21959e-15 0)
(400 -1.08006e-14 0)
(400 -2.23239e-14 0)
(400 -3.63088e-15 0)
(400 -9.24684e-15 0)
(400 -3.40307e-14 0)
(400 -4.19838e-14 0)
(400 -4.44131e-14 0)
(400 -2.96616e-14 0)
(400 -1.35163e-15 0)
(400 1.49237e-14 0)
(400 3.64414e-14 0)
(400 3.78945e-14 0)
(400 4.18078e-14 0)
(400 4.36167e-14 0)
(400 3.30409e-14 0)
(400 2.91714e-14 0)
(400 2.55252e-14 0)
(400 2.2704e-14 0)
(400 1.91291e-14 0)
(400 2.41169e-14 0)
(400 2.73283e-14 0)
(400 2.01572e-14 0)
(400 5.03986e-15 0)
(400 -1.60209e-14 0)
(400 -3.30154e-14 0)
(400 -3.61881e-14 0)
(400 -3.08063e-14 0)
(400 -1.7738e-14 0)
(400 2.95705e-15 0)
(400 2.41202e-14 0)
(400 3.97719e-14 0)
(400 3.62947e-14 0)
(400 1.52772e-14 0)
(400 7.52654e-15 0)
(400 -1.0118e-14 0)
(400 -2.49447e-14 0)
(400 -3.79517e-14 0)
(400 -5.05119e-14 0)
(400 -3.50207e-14 0)
(400 -8.91943e-15 0)
(400 -2.17287e-14 0)
(400 -2.98612e-14 0)
(400 -4.02314e-14 0)
(400 -3.3649e-14 0)
(400 -1.28023e-14 0)
(400 -7.38071e-15 0)
(400 -1.03183e-14 0)
(400 4.62348e-15 0)
(400 1.07163e-14 0)
(400 3.01924e-14 0)
(400 4.38188e-14 0)
(400 4.54955e-14 0)
(400 4.39197e-14 0)
(400 6.31387e-14 0)
(400 7.25068e-14 0)
(400 6.05712e-14 0)
(400 4.8076e-14 0)
(400 5.11716e-14 0)
(400 5.21718e-14 0)
(400 4.90971e-14 0)
(400 3.95425e-14 0)
(400 3.45665e-14 0)
(400 3.9891e-14 0)
(400 5.88999e-14 0)
(400 5.09771e-14 0)
(400 3.53812e-14 0)
(400 1.70302e-14 0)
(400 1.77273e-14 0)
(400 3.60005e-14 0)
(400 1.54258e-14 0)
(400 -3.07878e-16 0)
(400 7.17462e-15 0)
(400 1.46627e-14 0)
(400 8.92102e-15 0)
(400 4.26672e-15 0)
(400 -7.70411e-15 0)
(400 -2.86855e-14 0)
(400 -4.78701e-14 0)
(400 -4.61634e-14 0)
(400 -3.4355e-14 0)
(400 -2.53933e-14 0)
(400 -2.29825e-14 0)
(400 -1.42854e-14 0)
(400 2.90659e-15 0)
(400 1.14364e-14 0)
(400 9.70745e-15 0)
(400 1.18504e-14 0)
(400 8.77045e-15 0)
(400 4.39323e-16 0)
(400 -1.88647e-14 0)
(400 -2.72739e-14 0)
(400 -2.04306e-14 0)
(400 -1.89373e-14 0)
(400 -3.32626e-14 0)
(400 -2.95636e-14 0)
(400 -2.41349e-14 0)
(400 -3.7121e-14 0)
(400 -5.9566e-14 0)
(400 -6.07846e-14 0)
(400 -4.36624e-14 0)
(400 -2.15721e-14 0)
(400 -1.51215e-14 0)
(400 -6.52381e-15 0)
(400 -1.00083e-14 0)
(400 3.47675e-16 0)
(400 1.32211e-14 0)
(400 3.66069e-14 0)
(400 3.91394e-14 0)
(400 5.39111e-14 0)
(400 7.01873e-14 0)
(400 7.87511e-14 0)
(400 8.65225e-14 0)
(400 7.73183e-14 0)
(400 6.42585e-14 0)
(400 7.1869e-14 0)
(400 6.62165e-14 0)
(400 4.37022e-14 0)
(400 3.10706e-14 0)
(400 1.21616e-14 0)
(400 6.61038e-15 0)
(400 1.97425e-15 0)
(400 -4.50945e-15 0)
(400 -6.19992e-15 0)
(400 6.5868e-15 0)
(400 2.77536e-14 0)
(400 4.54133e-14 0)
(400 5.60925e-14 0)
(400 5.55426e-14 0)
(400 6.4065e-14 0)
(400 7.12478e-14 0)
(400 6.26576e-14 0)
(400 4.83996e-14 0)
(400 3.5289e-14 0)
(400 8.72978e-15 0)
(400 -2.13879e-16 0)
(400 8.80132e-15 0)
(400 1.33689e-15 0)
(400 4.08834e-15 0)
(400 -3.29943e-15 0)
(400 -7.4275e-15 0)
(400 2.38768e-16 0)
(400 8.62209e-15 0)
(400 1.45537e-14 0)
(400 2.49053e-14 0)
(400 5.62495e-14 0)
(400 4.88386e-14 0)
(400 2.85208e-14 0)
(400 1.17735e-14 0)
(400 3.27273e-15 0)
(400 8.40055e-15 0)
(400 1.44449e-14 0)
(400 3.34934e-16 0)
(400 3.83972e-15 0)
(400 2.46386e-14 0)
(400 5.32524e-14 0)
(400 6.24753e-14 0)
(400 6.16975e-14 0)
(400 4.32304e-14 0)
(400 2.91704e-14 0)
(400 2.54226e-14 0)
(400 1.40085e-14 0)
(400 -1.5036e-15 0)
(400 -4.56484e-15 0)
(400 -6.33426e-16 0)
(400 2.95609e-15 0)
(400 -3.71348e-15 0)
(400 -9.08444e-15 0)
(400 -1.36632e-15 0)
(400 1.85673e-14 0)
(400 2.686e-14 0)
(400 1.54551e-14 0)
(400 1.07657e-14 0)
(400 1.90904e-14 0)
(400 3.32732e-14 0)
(400 4.98557e-14 0)
(400 3.95759e-14 0)
(400 3.25087e-14 0)
(400 3.26917e-14 0)
(400 4.09772e-14 0)
(400 5.19506e-14 0)
(400 5.61276e-14 0)
(400 7.23218e-14 0)
(400 6.01772e-14 0)
(400 4.92462e-14 0)
(400 4.8129e-14 0)
(400 5.15021e-14 0)
(400 3.5558e-14 0)
(400 1.2288e-14 0)
(400 -1.82417e-15 0)
(400 -5.81801e-15 0)
(400 -9.43119e-15 0)
(400 -1.76672e-14 0)
(400 -5.94503e-15 0)
(400 4.0881e-15 0)
(400 7.54569e-15 0)
(400 -8.49786e-15 0)
(400 -9.20768e-15 0)
(400 -1.06322e-14 0)
(400 -1.69464e-14 0)
(400 -2.56048e-14 0)
(400 -3.65629e-14 0)
(400 -5.05203e-14 0)
(400 -5.63468e-14 0)
(400 -7.03964e-14 0)
(400 -7.6493e-14 0)
(400 -6.74653e-14 0)
(400 -5.27954e-14 0)
(400 -1.61104e-14 0)
(400 1.36043e-15 0)
(400 3.08788e-14 0)
(400 6.12082e-14 0)
(400 7.41835e-14 0)
(400 6.51781e-14 0)
(400 4.79045e-14 0)
(400 4.80523e-14 0)
(400 4.14332e-14 0)
(400 3.58514e-14 0)
(400 3.19202e-14 0)
(400 4.13093e-14 0)
(400 4.45464e-14 0)
(400 3.37275e-14 0)
(400 2.34115e-14 0)
(400 1.45392e-14 0)
(400 -2.41281e-15 0)
(400 -1.25872e-14 0)
(400 -2.03322e-14 0)
(400 -3.46547e-14 0)
(400 -1.599e-14 0)
(400 5.98415e-15 0)
(400 3.17889e-14 0)
(400 5.73149e-14 0)
(400 4.95064e-14 0)
(400 3.05758e-14 0)
(400 9.45452e-15 0)
(400 -1.39297e-15 0)
(400 -1.86684e-14 0)
(400 -2.60613e-14 0)
(400 -2.30715e-14 0)
(400 -4.94557e-15 0)
(400 7.36407e-15 0)
(400 -6.33e-15 0)
(400 1.10277e-15 0)
(400 -1.20588e-14 0)
(400 -1.24628e-14 0)
(400 -1.36103e-14 0)
(400 -2.76822e-15 0)
(400 4.38375e-15 0)
(400 -6.82855e-16 0)
(400 1.24295e-14 0)
(400 2.43103e-14 0)
(400 4.71967e-14 0)
(400 5.76054e-14 0)
(400 5.67795e-14 0)
(400 5.1478e-14 0)
(400 5.29049e-14 0)
(400 5.16269e-14 0)
(400 4.39534e-14 0)
(400 3.77288e-14 0)
(400 3.65424e-14 0)
(400 3.50326e-14 0)
(400 2.02369e-14 0)
(400 7.61471e-15 0)
(400 1.51183e-15 0)
(400 2.02211e-14 0)
(400 5.878e-15 0)
(400 -2.11342e-14 0)
(400 -3.8209e-14 0)
(400 -5.694e-14 0)
(400 -6.03181e-14 0)
(400 -6.49365e-14 0)
(400 -6.97191e-14 0)
(400 -6.71707e-14 0)
(400 -6.96541e-14 0)
(400 -6.60629e-14 0)
(400 -4.66744e-14 0)
(400 -5.26997e-14 0)
(400 -5.9595e-14 0)
(400 -6.34641e-14 0)
(400 -5.34069e-14 0)
(400 -4.11765e-14 0)
(400 -2.83035e-14 0)
(400 -4.84058e-15 0)
(400 9.04538e-15 0)
(400 2.06199e-14 0)
(400 3.48601e-14 0)
(400 3.7899e-14 0)
(400 2.57769e-14 0)
(400 3.76836e-14 0)
(400 2.4639e-14 0)
(400 7.0429e-15 0)
(400 -1.81393e-14 0)
(400 -2.53774e-14 0)
(400 -4.82407e-14 0)
(400 -6.21609e-14 0)
(400 -5.71935e-14 0)
(400 -5.05982e-14 0)
(400 -4.72396e-14 0)
(400 -5.20269e-14 0)
(400 -5.67955e-14 0)
(400 -4.8823e-14 0)
(400 -3.09281e-14 0)
(400 -2.21975e-14 0)
(400 -2.56591e-14 0)
(400 -1.89114e-14 0)
(400 -4.6927e-15 0)
(400 2.35087e-15 0)
(400 2.26224e-14 0)
(400 3.70034e-14 0)
(400 4.311e-14 0)
(400 6.84494e-14 0)
(400 9.71009e-14 0)
(400 1.13079e-13 0)
(400 1.36124e-13 0)
(400 1.4434e-13 0)
(400 1.57077e-13 0)
(400 1.52451e-13 0)
(400 1.18867e-13 0)
(400 9.6352e-14 0)
(400 7.7221e-14 0)
(400 6.44694e-14 0)
(400 4.73826e-14 0)
(400 3.51466e-14 0)
(400 3.03008e-14 0)
(400 5.99603e-14 0)
(400 9.11581e-14 0)
(400 1.09871e-13 0)
(400 1.20803e-13 0)
(400 1.42568e-13 0)
(400 1.46741e-13 0)
(400 1.46394e-13 0)
(400 1.31434e-13 0)
(400 1.14632e-13 0)
(400 8.4685e-14 0)
(400 5.81565e-14 0)
(400 4.10381e-14 0)
(400 3.98758e-14 0)
(400 4.44444e-14 0)
(400 3.97057e-14 0)
(400 3.86222e-14 0)
(400 3.75855e-14 0)
(400 3.10528e-14 0)
(400 3.72832e-14 0)
(400 5.1754e-14 0)
(400 5.04505e-14 0)
(400 4.95762e-14 0)
(400 3.97928e-14 0)
(400 5.56274e-14 0)
(400 5.46056e-14 0)
(400 3.74548e-14 0)
(400 2.71322e-14 0)
(400 2.68028e-14 0)
(400 1.26915e-14 0)
(400 2.52223e-14 0)
(400 3.10749e-14 0)
(400 4.593e-14 0)
(400 5.07195e-14 0)
(400 4.98788e-14 0)
(400 3.767e-14 0)
(400 3.99436e-14 0)
(400 2.60122e-14 0)
(400 2.23964e-14 0)
(400 1.77253e-14 0)
(400 1.79654e-14 0)
(400 3.01386e-14 0)
(400 3.56009e-14 0)
(400 3.47946e-14 0)
(400 3.11518e-14 0)
(400 4.60258e-14 0)
(400 5.33833e-14 0)
(400 4.94647e-14 0)
(400 4.71561e-14 0)
(400 4.45474e-14 0)
(400 4.54451e-14 0)
(400 4.58702e-14 0)
(400 4.9135e-14 0)
(400 4.536e-14 0)
(400 5.95063e-14 0)
(400 8.05697e-14 0)
(400 9.28418e-14 0)
(400 9.46148e-14 0)
(400 9.75464e-14 0)
(400 8.1707e-14 0)
(400 5.63666e-14 0)
(400 2.96654e-14 0)
(400 1.23549e-14 0)
(400 1.80198e-14 0)
(400 3.37569e-15 0)
(400 -3.04886e-14 0)
(400 -3.64516e-14 0)
(400 -2.47409e-14 0)
(400 -2.91233e-14 0)
(400 -2.19652e-14 0)
(400 -1.42826e-14 0)
(400 6.57472e-15 0)
(400 1.23078e-14 0)
(400 1.18895e-14 0)
(400 -9.03718e-15 0)
(400 -2.39825e-14 0)
(400 -3.21834e-14 0)
(400 -4.70534e-14 0)
(400 -5.41247e-14 0)
(400 -4.08546e-14 0)
(400 -5.55267e-14 0)
(400 -6.28178e-14 0)
(400 -4.30046e-14 0)
(400 -2.58529e-14 0)
(400 -7.74862e-15 0)
(400 2.17591e-14 0)
(400 2.73789e-14 0)
(400 3.94008e-14 0)
(400 5.57122e-14 0)
(400 7.30838e-14 0)
(400 7.64782e-14 0)
(400 6.00626e-14 0)
(400 4.7026e-14 0)
(400 3.11788e-14 0)
(400 2.35743e-14 0)
(400 3.18355e-14 0)
(400 3.35357e-14 0)
(400 3.26636e-14 0)
(400 1.6973e-14 0)
(400 -7.23958e-15 0)
(400 -1.61295e-14 0)
(400 -2.40372e-14 0)
(400 -3.51927e-14 0)
(400 -4.19103e-14 0)
(400 -4.84828e-14 0)
(400 -4.56872e-14 0)
(400 -3.3615e-14 0)
(400 -2.42182e-14 0)
(400 -2.23228e-14 0)
(400 -3.51248e-14 0)
(400 -3.26667e-14 0)
(400 -4.00934e-14 0)
(400 -4.74823e-14 0)
(400 -4.4989e-14 0)
(400 -3.65177e-14 0)
(400 -3.06553e-14 0)
(400 -3.34015e-14 0)
(400 -3.49582e-14 0)
(400 -2.51532e-14 0)
(400 -1.51195e-14 0)
(400 -1.00694e-14 0)
(400 -1.49485e-14 0)
(400 -1.36882e-14 0)
(400 5.50938e-16 0)
(400 9.28666e-15 0)
(400 1.16487e-14 0)
(400 3.15985e-14 0)
(400 3.62253e-14 0)
(400 4.71959e-14 0)
(400 6.80984e-14 0)
(400 8.42733e-14 0)
(400 7.74596e-14 0)
(400 7.40905e-14 0)
(400 7.31196e-14 0)
(400 6.0406e-14 0)
(400 4.1692e-14 0)
(400 4.21397e-14 0)
(400 3.41763e-14 0)
(400 3.2248e-14 0)
(400 3.82982e-14 0)
(400 3.14492e-14 0)
(400 1.52099e-14 0)
(400 1.01564e-14 0)
(400 3.58994e-15 0)
(400 -1.45528e-14 0)
(400 -3.53641e-14 0)
(400 -6.17893e-14 0)
(400 -5.03677e-14 0)
(400 -5.33564e-14 0)
(400 -6.77428e-14 0)
(400 -7.38571e-14 0)
(400 -3.52793e-14 0)
(400 -3.0336e-15 0)
(400 7.66893e-15 0)
(400 1.73896e-14 0)
(400 3.22947e-14 0)
(400 4.25579e-14 0)
(400 5.13509e-14 0)
(400 4.7805e-14 0)
(400 5.98283e-14 0)
(400 7.35514e-14 0)
(400 6.20759e-14 0)
(400 4.53788e-14 0)
(400 4.62747e-14 0)
(400 5.41929e-14 0)
(400 5.66591e-14 0)
(400 3.35385e-14 0)
(400 3.24762e-14 0)
(400 2.031e-14 0)
(400 9.64208e-15 0)
(400 -4.46394e-15 0)
(400 -1.43643e-14 0)
(400 -1.80504e-14 0)
(400 -7.76535e-15 0)
(400 -8.11683e-15 0)
(400 -2.78932e-14 0)
(400 -2.82106e-14 0)
(400 -4.06021e-14 0)
(400 -6.15531e-14 0)
(400 -6.58764e-14 0)
(400 -7.87433e-14 0)
(400 -5.98574e-14 0)
(400 -5.60509e-14 0)
(400 -6.24078e-14 0)
(400 -5.49277e-14 0)
(400 -3.98878e-14 0)
(400 -2.34789e-14 0)
(400 -1.40946e-14 0)
(400 1.31721e-14 0)
(400 3.95885e-14 0)
(400 4.76158e-14 0)
(400 4.89229e-14 0)
(400 4.90858e-14 0)
(400 4.53689e-14 0)
(400 3.56071e-14 0)
(400 2.90782e-14 0)
(400 1.9071e-14 0)
(400 1.6341e-14 0)
(400 1.68439e-15 0)
(400 -1.31523e-14 0)
(400 -1.872e-14 0)
(400 -8.32137e-15 0)
(400 1.94986e-14 0)
(400 5.0345e-14 0)
(400 5.7195e-14 0)
(400 5.6261e-14 0)
(400 5.5017e-14 0)
(400 5.03959e-14 0)
(400 5.42633e-14 0)
(400 6.67956e-14 0)
(400 5.97865e-14 0)
(400 5.22686e-14 0)
(400 3.45165e-14 0)
(400 2.14558e-14 0)
(400 3.31398e-14 0)
(400 1.98669e-14 0)
(400 1.15193e-14 0)
(400 -4.5578e-15 0)
(400 -1.2783e-14 0)
(400 -8.58113e-15 0)
(400 -9.03743e-15 0)
(400 -3.04096e-15 0)
(400 -2.43052e-14 0)
(400 -2.96967e-14 0)
(400 -2.73003e-14 0)
(400 -3.34225e-14 0)
(400 -2.63715e-14 0)
(400 -1.67665e-14 0)
(400 5.56847e-15 0)
(400 1.55321e-14 0)
(400 3.38614e-14 0)
(400 3.27535e-14 0)
(400 3.47921e-14 0)
(400 3.19353e-14 0)
(400 2.38185e-14 0)
(400 1.97988e-14 0)
(400 1.28619e-14 0)
(400 2.26653e-14 0)
(400 3.65619e-14 0)
(400 4.7658e-14 0)
(400 5.0515e-14 0)
(400 6.49907e-14 0)
(400 6.17581e-14 0)
(400 6.38631e-14 0)
(400 7.37435e-14 0)
(400 8.41139e-14 0)
(400 9.25965e-14 0)
(400 8.58536e-14 0)
(400 6.98815e-14 0)
(400 5.4377e-14 0)
(400 3.78732e-14 0)
(400 4.12466e-14 0)
(400 3.40785e-14 0)
(400 3.62453e-14 0)
(400 4.35555e-14 0)
(400 4.60753e-14 0)
(400 5.82556e-14 0)
(400 6.83474e-14 0)
(400 6.72494e-14 0)
(400 5.98517e-14 0)
(400 4.46729e-14 0)
(400 3.38182e-14 0)
(400 3.43493e-14 0)
(400 3.22e-14 0)
(400 1.38411e-14 0)
(400 -1.06775e-14 0)
(400 -2.82086e-14 0)
(400 -3.34986e-14 0)
(400 -4.31879e-14 0)
(400 -2.52401e-14 0)
(400 -1.65244e-14 0)
(400 -9.33193e-15 0)
(400 -2.36854e-14 0)
(400 -2.97008e-14 0)
(400 -4.18186e-14 0)
(400 -5.11239e-14 0)
(400 -5.69152e-14 0)
(400 -6.79733e-14 0)
(400 -7.60813e-14 0)
(400 -5.21157e-14 0)
(400 -5.30276e-14 0)
(400 -3.08197e-14 0)
(400 -2.18326e-15 0)
(400 2.65311e-15 0)
(400 1.91783e-14 0)
(400 4.08512e-14 0)
(400 4.13612e-14 0)
(400 2.76112e-14 0)
(400 3.10256e-14 0)
(400 4.53603e-14 0)
(400 5.28488e-14 0)
(400 5.50347e-14 0)
(400 4.67635e-14 0)
(400 3.42602e-14 0)
(400 2.11807e-14 0)
(400 1.06069e-14 0)
(400 5.78212e-16 0)
(400 -4.6755e-15 0)
(400 -2.80794e-15 0)
(400 -5.78432e-15 0)
(400 -1.38808e-14 0)
(400 -1.5003e-14 0)
(400 -2.61762e-14 0)
(400 -2.35979e-14 0)
(400 -1.66609e-14 0)
(400 -1.92921e-14 0)
(400 -2.11926e-14 0)
(400 -1.56084e-14 0)
(400 -2.39077e-14 0)
(400 -2.29406e-14 0)
(400 -1.99593e-14 0)
(400 -1.27624e-14 0)
(400 -2.50266e-14 0)
(400 -7.68736e-15 0)
(400 2.92457e-14 0)
(400 4.03481e-14 0)
(400 2.20116e-14 0)
(400 7.12064e-15 0)
(400 2.44822e-14 0)
(400 2.64259e-14 0)
(400 2.07285e-14 0)
(400 2.77422e-14 0)
(400 2.03555e-14 0)
(400 3.49788e-14 0)
(400 3.25471e-14 0)
(400 5.09478e-14 0)
(400 5.9318e-14 0)
(400 5.59503e-14 0)
(400 6.03898e-14 0)
(400 6.46301e-14 0)
(400 7.87666e-14 0)
(400 8.63734e-14 0)
(400 6.7045e-14 0)
(400 6.33101e-14 0)
(400 6.11856e-14 0)
(400 5.14942e-14 0)
(400 3.37826e-14 0)
(400 2.66447e-14 0)
(400 3.13976e-14 0)
(400 4.3068e-14 0)
(400 3.32123e-14 0)
(400 6.06294e-15 0)
(400 -5.33526e-15 0)
(400 -3.35822e-15 0)
(400 -1.52025e-14 0)
(400 -3.18562e-14 0)
(400 -4.90623e-14 0)
(400 -4.91161e-14 0)
(400 -5.59885e-14 0)
(400 -7.23188e-14 0)
(400 -6.55113e-14 0)
(400 -4.02e-14 0)
(400 -3.89824e-14 0)
(400 -1.90844e-14 0)
(400 2.70719e-16 0)
(400 2.16551e-14 0)
(400 4.19253e-14 0)
(400 3.58057e-14 0)
(400 3.29782e-14 0)
(400 2.29839e-14 0)
(400 1.06453e-14 0)
(400 -3.13909e-15 0)
(400 -3.60534e-14 0)
(400 -4.95691e-14 0)
(400 -5.06539e-14 0)
(400 -6.91519e-14 0)
(400 -7.33851e-14 0)
(400 -5.94597e-14 0)
(400 -3.5246e-14 0)
(400 -3.04982e-14 0)
(400 -1.14144e-14 0)
(400 -1.36852e-14 0)
(400 -2.3724e-14 0)
(400 -3.16651e-14 0)
(400 -1.92298e-14 0)
(400 -3.72738e-15 0)
(400 -3.27967e-15 0)
(400 -1.90544e-14 0)
(400 -4.22708e-14 0)
(400 -4.85069e-14 0)
(400 -4.92464e-14 0)
(400 -4.26699e-14 0)
(400 -5.39746e-14 0)
(400 -6.98024e-14 0)
(400 -4.76845e-14 0)
(400 -6.55266e-15 0)
(400 1.15354e-14 0)
(400 2.23455e-15 0)
(400 2.76587e-14 0)
(400 4.78119e-14 0)
(400 3.38748e-14 0)
(400 2.17497e-14 0)
(400 1.77155e-14 0)
(400 3.04937e-14 0)
(400 6.48467e-14 0)
(400 7.80189e-14 0)
(400 8.13412e-14 0)
(400 8.0559e-14 0)
(400 8.8828e-14 0)
(400 7.14336e-14 0)
(400 6.10062e-14 0)
(400 5.11417e-14 0)
(400 5.40901e-14 0)
(400 9.0071e-14 0)
(400 9.89607e-14 0)
(400 8.37274e-14 0)
(400 8.35481e-14 0)
(400 8.76452e-14 0)
(400 1.05938e-13 0)
(400 9.6284e-14 0)
(400 8.54838e-14 0)
(400 8.11393e-14 0)
(400 6.37442e-14 0)
(400 4.947e-14 0)
(400 4.11402e-14 0)
(400 3.80333e-14 0)
(400 3.18867e-14 0)
(400 2.09354e-14 0)
(400 1.11055e-14 0)
(400 7.81996e-15 0)
(400 3.62224e-15 0)
(400 1.13893e-14 0)
(400 -1.03499e-14 0)
(400 -1.88043e-14 0)
(400 -2.90524e-14 0)
(400 -3.87221e-14 0)
(400 -3.74233e-14 0)
(400 -3.46509e-14 0)
(400 -2.23886e-14 0)
(400 -6.97086e-15 0)
(400 -6.38083e-15 0)
(400 -2.29023e-15 0)
(400 2.4623e-15 0)
(400 -4.15486e-15 0)
(400 -1.46701e-14 0)
(400 -2.39131e-15 0)
(400 -7.9074e-15 0)
(400 9.59998e-15 0)
(400 3.91522e-14 0)
(400 7.34478e-14 0)
(400 7.95702e-14 0)
(400 9.24753e-14 0)
(400 9.48142e-14 0)
(400 8.60326e-14 0)
(400 9.37791e-14 0)
(400 1.07634e-13 0)
(400 9.27094e-14 0)
(400 8.33419e-14 0)
(400 6.72678e-14 0)
(400 3.69455e-14 0)
(400 2.57539e-14 0)
(400 1.62367e-14 0)
(400 -7.81624e-16 0)
(400 3.12942e-15 0)
(400 1.1148e-14 0)
(400 5.58283e-15 0)
(400 9.20405e-16 0)
(400 -7.08078e-15 0)
(400 -4.51953e-15 0)
(400 -7.48043e-16 0)
(400 4.6175e-15 0)
(400 7.49163e-15 0)
(400 1.24431e-14 0)
(400 -5.26347e-15 0)
(400 -1.54902e-14 0)
(400 -3.16237e-14 0)
(400 -4.48031e-14 0)
(400 -5.5129e-14 0)
(400 -3.95117e-14 0)
(400 -3.63397e-14 0)
(400 -4.24115e-14 0)
(400 -4.45494e-14 0)
(400 -6.0617e-14 0)
(400 -7.19481e-14 0)
(400 -6.3863e-14 0)
(400 -5.7602e-14 0)
(400 -5.64435e-14 0)
(400 -5.78064e-14 0)
(400 -4.0532e-14 0)
(400 -2.68119e-14 0)
(400 -1.10277e-14 0)
(400 9.32857e-15 0)
(400 3.33956e-14 0)
(400 5.17645e-14 0)
(400 6.66718e-14 0)
(400 8.32496e-14 0)
(400 9.53375e-14 0)
(400 9.05438e-14 0)
(400 7.42114e-14 0)
(400 7.26353e-14 0)
(400 6.52484e-14 0)
(400 5.75541e-14 0)
(400 4.99496e-14 0)
(400 4.79351e-14 0)
(400 3.76723e-14 0)
(400 2.26902e-14 0)
(400 5.47578e-15 0)
(400 -9.72653e-15 0)
(400 -1.36075e-14 0)
(400 -3.17722e-14 0)
(400 -2.60919e-14 0)
(400 -1.66606e-14 0)
(400 -1.0115e-14 0)
(400 -9.45523e-15 0)
(400 -2.65326e-14 0)
(400 -3.06419e-14 0)
(400 -3.7187e-14 0)
(400 -4.40113e-14 0)
(400 -3.44729e-14 0)
(400 -2.20059e-14 0)
(400 -1.98364e-14 0)
(400 -1.7933e-14 0)
(400 -5.10628e-15 0)
(400 1.04928e-14 0)
(400 2.54869e-14 0)
(400 3.37516e-14 0)
(400 3.39959e-14 0)
(400 3.31441e-14 0)
(400 4.19094e-14 0)
(400 3.84697e-14 0)
(400 3.10356e-14 0)
(400 3.83975e-14 0)
(400 5.12606e-14 0)
(400 6.07372e-14 0)
(400 6.19891e-14 0)
(400 7.31609e-14 0)
(400 6.21531e-14 0)
(400 7.22105e-14 0)
(400 7.34142e-14 0)
(400 6.24627e-14 0)
(400 7.17476e-14 0)
(400 6.54781e-14 0)
(400 5.83533e-14 0)
(400 4.67761e-14 0)
(400 4.36976e-14 0)
(400 3.96718e-14 0)
(400 6.32102e-15 0)
(400 2.41216e-15 0)
(400 1.19586e-14 0)
(400 1.7483e-14 0)
(400 1.89037e-16 0)
(400 -9.39254e-15 0)
(400 -1.50693e-14 0)
(400 -2.78154e-14 0)
(400 -3.02221e-14 0)
(400 -3.92225e-14 0)
(400 -4.62274e-14 0)
(400 -4.24663e-14 0)
(400 -4.04318e-14 0)
(400 -3.04922e-14 0)
(400 1.12506e-15 0)
(400 1.50451e-14 0)
(400 2.77941e-14 0)
(400 3.76782e-14 0)
(400 5.33299e-14 0)
(400 6.53765e-14 0)
(400 6.34418e-14 0)
(400 5.48398e-14 0)
(400 4.69423e-14 0)
(400 1.88659e-14 0)
(400 -3.50699e-17 0)
(400 1.40981e-15 0)
(400 -2.25976e-14 0)
(400 -4.63632e-14 0)
(400 -6.30134e-14 0)
(400 -7.04726e-14 0)
(400 -5.58917e-14 0)
(400 -4.54699e-14 0)
(400 -1.99006e-14 0)
(400 -3.20059e-16 0)
(400 2.98759e-14 0)
(400 4.17373e-14 0)
(400 4.49138e-14 0)
(400 3.75159e-14 0)
(400 5.45832e-14 0)
(400 7.43172e-14 0)
(400 5.96708e-14 0)
(400 5.38524e-14 0)
(400 4.24564e-14 0)
(400 2.34782e-14 0)
(400 1.15557e-14 0)
(400 -3.00476e-15 0)
(400 -9.25157e-15 0)
(400 -2.87401e-14 0)
(400 -1.24093e-14 0)
(400 1.38839e-14 0)
(400 -2.20611e-15 0)
(400 -1.81881e-15 0)
(400 -3.749e-16 0)
(400 -1.04606e-14 0)
(400 -1.56276e-14 0)
(400 -1.57163e-14 0)
(400 -2.2542e-14 0)
(400 -1.23274e-14 0)
(400 1.5025e-14 0)
(400 4.30396e-14 0)
(400 5.96582e-14 0)
(400 5.30629e-14 0)
(400 6.02529e-14 0)
(400 5.98702e-14 0)
(400 5.8596e-14 0)
(400 5.09489e-14 0)
(400 3.63301e-14 0)
(400 3.07476e-14 0)
(400 4.48969e-14 0)
(400 5.96876e-14 0)
(400 6.44899e-14 0)
(400 6.00774e-14 0)
(400 6.06581e-14 0)
(400 3.96219e-14 0)
(400 3.41188e-14 0)
(400 4.6661e-14 0)
(400 3.84944e-14 0)
(400 2.59098e-14 0)
(400 9.58275e-15 0)
(400 2.07816e-14 0)
(400 2.26962e-14 0)
(400 1.44832e-14 0)
(400 7.38405e-15 0)
(400 5.74569e-15 0)
(400 3.25184e-15 0)
(400 -8.04042e-15 0)
(400 -1.94971e-14 0)
(400 -2.98772e-14 0)
(400 -3.09181e-14 0)
(400 -2.95776e-14 0)
(400 -3.77562e-14 0)
(400 -5.14256e-14 0)
(400 -6.0516e-14 0)
(400 -1.94609e-14 0)
(400 -1.51319e-14 0)
(400 -5.09292e-15 0)
(400 -2.53475e-15 0)
(400 4.69423e-15 0)
(400 7.25048e-15 0)
(400 1.66097e-14 0)
(400 2.78661e-14 0)
(400 2.65966e-14 0)
(400 3.56818e-14 0)
(400 5.1509e-14 0)
(400 4.44061e-14 0)
(400 4.12995e-14 0)
(400 5.18774e-14 0)
(400 5.39368e-14 0)
(400 7.3412e-14 0)
(400 7.53406e-14 0)
(400 4.48218e-14 0)
(400 4.56023e-14 0)
(400 5.86563e-14 0)
(400 6.3271e-14 0)
(400 5.91108e-14 0)
(400 4.00115e-14 0)
(400 1.60366e-14 0)
(400 1.2181e-14 0)
(400 1.24277e-14 0)
(400 3.83088e-15 0)
(400 -2.68721e-14 0)
(400 -5.24947e-14 0)
(400 -5.00974e-14 0)
(400 -5.86771e-14 0)
(400 -3.72587e-14 0)
(400 -2.36398e-14 0)
(400 -2.04136e-14 0)
(400 -1.93487e-14 0)
(400 -3.51563e-14 0)
(400 -3.70307e-14 0)
(400 -3.77139e-14 0)
(400 -4.05747e-14 0)
(400 -4.15678e-14 0)
(400 -6.10805e-14 0)
(400 -7.40302e-14 0)
(400 -8.07412e-14 0)
(400 -8.38405e-14 0)
(400 -1.0037e-13 0)
(400 -9.21194e-14 0)
(400 -7.67416e-14 0)