VARIABLES = "x"
 "y"
 "Density"
 "Momentum_x"
 "Momentum_y"
 "Energy"
 "Pressure"
 "Temperature"
 "Mach"
 "C<sub>p</sub>"
 "Roe_Dissipation"
ZONE
DT=(DOUBLE,DOUBLE,DOUBLE,DOUBLE,DOUBLE,DOUBLE,DOUBLE,DOUBLE,DOUBLE,DOUBLE,DOUBLE)
                      2                    1.25        1.22504603862762        41.8273086547852       0.576996803283691           254014.203125                  101320        288.119689941406       0.100349098443985    -0.00704943761229515                       0 
                      2        1.24874937468734        1.22504603862762        41.8273086547852       0.576996803283691           254014.203125                  101320        288.119689941406       0.100349098443985    -0.00704943761229515                       0 
                      2        1.24749874937469        1.22504603862762        41.8273086547852       0.576996803283691           254014.203125                  101320        288.119689941406       0.100349098443985    -0.00704943761229515                       0 
                      2        1.24624812406203        1.22504603862762        41.8273086547852       0.576996803283691           254014.203125                  101320        288.119689941406       0.100349098443985    -0.00704943761229515                       0 
                      2        1.24499749874937        1.22504603862762        41.8273086547852       0.576996803283691           254014.203125                  101320        288.119689941406       0.100349098443985    -0.00704943761229515                       0 
                      2        1.24374687343672        1.22504603862762        41.8273086547852       0.576996803283691           254014.203125                  101320        288.119689941406       0.100349098443985    -0.00704943761229515                       0 
                      2        1.24249624812406        1.22504603862762        41.8273086547852       0.576996803283691           254014.203125                  101320        288.119689941406       0.100349098443985    -0.00704943761229515                       0 
                      2        1.24124562281141        1.22504603862762        41.8273086547852       0.576996803283691           254014.203125                  101320        288.119689941406       0.100349098443985    -0.00704943761229515                       0 
                      2        1.23999499749875        1.22504603862762        41.8273086547852       0.576996803283691           254014.203125                  101320        288.119689941406       0.100349098443985    -0.00704943761229515                       0 
                      2        1.23874437218609        1.22504603862762        41.8273086547852       0.576996803283691           254014.203125                  101320        288.119689941406       0.100349098443985    -0.00704943761229515                       0 
                      2        1.23749374687344        1.22504603862762        41.8273086547852       0.576996803283691           254014.203125                  101320        288.119689941406       0.100349098443985    -0.00704943761229515                       0 
                      2        1.23624312156078        1.22504603862762        41.8273086547852       0.576996803283691           254014.203125                  101320        288.119689941406       0.100349098443985    -0.00704943761229515                       0 
                      2        1.23499249624812        1.22504603862762        41.8273086547852       0.576996803283691           254014.203125                  101320        288.119689941406       0.100349098443985    -0.00704943761229515                       0 
                      2        1.23374187093547        1.22504603862762        41.8273086547852       0.576996803283691           254014.203125                  101320        288.119689941406       0.100349098443985    -0.00704943761229515                       0 
                      2        1.23249124562281        1.22504603862762        41.8273086547852       0.576996803283691           254014.203125                  101320        288.119689941406       0.100349098443985    -0.00704943761229515                       0 
                      2        1.23124062031016        1.22504603862762        41.8273086547852       0.576996803283691           254014.203125                  101320        288.119689941406       0.100349098443985    -0.00704943761229515                       0 
                      2         1.2299899949975        1.22504603862762        41.8273086547852       0.576996803283691           254014.203125                  101320        288.119689941406       0.100349098443985    -0.00704943761229515                       0 
                      2        1.22873936968484        1.22504603862762        41.8273086547852       0.576996803283691           254014.203125                  101320        288.119689941406       0.100349098443985    -0.00704943761229515                       0 
                      2        1.22748874437219        1.22504603862762        41.8273086547852       0.576996803283691           254014.203125                  101320        288.119689941406       0.100349098443985    -0.00704943761229515                       0 
                      2        1.22623811905953        1.22504603862762        41.8273086547852       0.576996803283691           254014.203125                  101320        288.119689941406       0.100349098443985    -0.00704943761229515                       0 
                      2        1.22498749374687        1.22504603862762        41.8273086547852       0.576996803283691           254014.203125                  101320        288.119689941406       0.100349098443985    -0.00704943761229515                       0 
                      2        1.22373686843422        1.22504603862762        41.8273086547852       0.576996803283691           254014.203125                  101320        288.119689941406       0.100349098443985    -0.00704943761229515                       0 
                      2        1.22248624312156        1.22504603862762        41.8273086547852       0.576996803283691           254014.203125                  101320        288.119689941406       0.100349098443985    -0.00704943761229515                       0 
                      2         1.2212356178089        1.22504603862762        41.8273086547852       0.576996803283691           254014.203125                  101320        288.119689941406       0.100349098443985    -0.00704943761229515                       0 
                      2        1.21998499249625        1.22504603862762        41.8273086547852       0.576996803283691           254014.203125                  101320        288.119689941406       0.100349098443985    -0.00704943761229515                       0 
                      2        1.21873436718359        1.22504603862762        41.8273086547852       0.576996803283691           254014.203125                  101320        288.119689941406       0.100349098443985    -0.00704943761229515                       0 
                      2        1.21748374187094        1.22504603862762        41.8273086547852       0.576996803283691           254014.203125                  101320        288.119689941406       0.100349098443985    -0.00704943761229515                       0 
                      2        1.21623311655828        1.22504603862762        41.8273086547852       0.576996803283691           254014.203125                  101320        288.119689941406       0.100349098443985    -0.00704943761229515                       0 
                      2        1.21498249124562        1.22504603862762        41.8273086547852       0.576996803283691           254014.203125                  101320        288.119689941406       0.100349098443985    -0.00704943761229515                       0 
                      2        1.21373186593297        1.22504603862762        41.8273086547852       0.576996803283691           254014.203125                  101320        288.119689941406       0.100349098443985    -0.00704943761229515                       0 
                      2        1.21248124062031        1.22504603862762        41.8273086547852       0.576996803283691           254014.203125                  101320        288.119689941406       0.100349098443985    -0.00704943761229515                       0 
                      2        1.21123061530765        1.22504603862762        41.8273086547852       0.576996803283691           254014.203125                  101320        288.119689941406       0.100349098443985    -0.00704943761229515                       0 
                      2          1.209979989995        1.22504603862762        41.8273086547852       0.576996803283691           254014.203125                  101320        288.119689941406       0.100349098443985    -0.00704943761229515                       0 
                      2        1.20872936468234        1.22504603862762        41.8273086547852       0.576996803283691           254014.203125                  101320        288.119689941406       0.100349098443985    -0.00704943761229515                       0 
                      2        1.20747873936968        1.22504603862762        41.8273086547852       0.576996803283691           254014.203125                  101320        288.119689941406       0.100349098443985    -0.00704943761229515                       0 
                      2        1.20622811405703        1.22504603862762        41.8273086547852       0.576996803283691           254014.203125                  101320        288.119689941406       0.100349098443985    -0.00704943761229515                       0 
                      2        1.20497748874437        1.22504603862762        41.8273086547852       0.576996803283691           254014.203125                  101320        288.119689941406       0.100349098443985    -0.00704943761229515                       0 
                      2        1.20372686343172        1.22504603862762        41.8273086547852       0.576996803283691           254014.203125                  101320        288.119689941406       0.100349098443985    -0.00704943761229515                       0 
                      2        1.20247623811906        1.22504603862762        41.8273086547852       0.576996803283691           254014.203125                  101320        288.119689941406       0.100349098443985    -0.00704943761229515                       0 
                      2         1.2012256128064        1.22504603862762        41.8273086547852       0.576996803283691           254014.203125                  101320        288.119689941406       0.100349098443985    -0.00704943761229515                       0 
                      2        1.19997498749375        1.22504603862762        41.8273086547852       0.576996803283691           254014.203125                  101320        288.119689941406       0.100349098443985    -0.00704943761229515                       0 
                      2        1.19872436218109        1.22504603862762        41.8273086547852       0.576996803283691           254014.203125                  101320        288.119689941406       0.100349098443985    -0.00704943761229515                       0 
                      2        1.19747373686843        1.22504603862762        41.8273086547852       0.576996803283691           254014.203125                  101320        288.119689941406       0.100349098443985    -0.00704943761229515                       0 
                      2        1.19622311155578        1.22504603862762        41.8273086547852       0.576996803283691           254014.203125                  101320        288.119689941406       0.100349098443985    -0.00704943761229515                       0 
                      2        1.19497248624312        1.22504603862762        41.8273086547852       0.576996803283691           254014.203125                  101320        288.119689941406       0.100349098443985    -0.00704943761229515                       0 
                      2        1.19372186093047        1.22504603862762        41.8273086547852       0.576996803283691           254014.203125                  101320        288.119689941406       0.100349098443985    -0.00704943761229515                       0 
                      2        1.19247123561781        1.22504603862762        41.8273086547852       0.576996803283691           254014.203125                  101320        288.119689941406       0.100349098443985    -0.00704943761229515                       0 
                      2        1.19122061030515        1.22504603862762        41.8273086547852       0.576996803283691           254014.203125                  101320        288.119689941406       0.100349098443985    -0.00704943761229515                       0 
                      2         1.1899699849925        1.22504603862762        41.8273086547852       0.576996803283691           254014.203125                  101320        288.119689941406       0.100349098443985    -0.00704943761229515                       0 
                      2        1.18871935967984        1.22504603862762        41.8273086547852       0.576996803283691           254014.203125                  101320        288.119689941406       0.100349098443985    -0.00704943761229515                       0 
                      2        1.18746873436718        1.22504603862762        41.8273086547852       0.576996803283691           254014.203125                  101320        288.119689941406       0.100349098443985    -0.00704943761229515                       0 
                      2        1.18621810905453        1.22504603862762        41.8273086547852       0.576996803283691           254014.203125                  101320        288.119689941406       0.100349098443985    -0.00704943761229515                       0 
                      2        1.18496748374187        1.22504603862762        41.8273086547852       0.576996803283691           254014.203125                  101320        288.119689941406       0.100349098443985    -0.00704943761229515                       0 
                      2        1.18371685842921        1.22504603862762        41.8273086547852       0.576996803283691           254014.203125                  101320        288.119689941406       0.100349098443985    -0.00704943761229515                       0 
                      2        1.18246623311656        1.22504603862762        41.8273086547852       0.576996803283691           254014.203125                  101320        288.119689941406       0.100349098443985    -0.00704943761229515                       0 
                      2         1.1812156078039        1.22504603862762        41.8273086547852       0.576996803283691           254014.203125                  101320        288.119689941406       0.100349098443985    -0.00704943761229515                       0 
                      2        1.17996498249125        1.22504603862762        41.8273086547852       0.576996803283691           254014.203125                  101320        288.119689941406       0.100349098443985    -0.00704943761229515                       0 
                      2        1.17871435717859        1.22504603862762        41.8273086547852       0.576996803283691           254014.203125                  101320        288.119689941406       0.100349098443985    -0.00704943761229515                       0 
                      2        1.17746373186593        1.22504603862762        41.8273086547852       0.576996803283691           254014.203125                  101320        288.119689941406       0.100349098443985    -0.00704943761229515                       0 
                      2        1.17621310655328        1.22504603862762        41.8273086547852       0.576996803283691           254014.203125                  101320        288.119689941406       0.100349098443985    -0.00704943761229515                       0 
                      2        1.17496248124062        1.22504603862762        41.8273086547852       0.576996803283691           254014.203125                  101320        288.119689941406       0.100349098443985    -0.00704943761229515                       0 
                      2        1.17371185592796        1.22504603862762        41.8273086547852       0.576996803283691           254014.203125                  101320        288.119689941406       0.100349098443985    -0.00704943761229515                       0 
                      2        1.17246123061531        1.22504603862762        41.8273086547852       0.576996803283691           254014.203125                  101320        288.119689941406       0.100349098443985    -0.00704943761229515                       0 
                      2        1.17121060530265        1.22504603862762        41.8273086547852       0.576996803283691           254014.203125                  101320        288.119689941406       0.100349098443985    -0.00704943761229515                       0 
                      2        1.16995997998999        1.22504603862762        41.8273086547852       0.576996803283691           254014.203125                  101320        288.119689941406       0.100349098443985    -0.00704943761229515                       0 
                      2        1.16870935467734        1.22504603862762        41.8273086547852       0.576996803283691           254014.203125                  101320        288.119689941406       0.100349098443985    -0.00704943761229515                       0 
                      2        1.16745872936468        1.22504603862762        41.8273086547852       0.576996803283691           254014.203125                  101320        288.119689941406       0.100349098443985    -0.00704943761229515                       0 
                      2        1.16620810405203        1.22504603862762        41.8273086547852       0.576996803283691           254014.203125                  101320        288.119689941406       0.100349098443985    -0.00704943761229515                       0 
                      2        1.16495747873937        1.22504603862762        41.8273086547852       0.576996803283691           254014.203125                  101320        288.119689941406       0.100349098443985    -0.00704943761229515                       0 
                      2        1.16370685342671        1.22504603862762        41.8273086547852       0.576996803283691           254014.203125                  101320        288.119689941406       0.100349098443985    -0.00704943761229515                       0 
                      2        1.16245622811406        1.22504603862762        41.8273086547852       0.576996803283691           254014.203125                  101320        288.119689941406       0.100349098443985    -0.00704943761229515                       0 
                      2         1.1612056028014        1.22504603862762        41.8273086547852       0.576996803283691           254014.203125                  101320        288.119689941406       0.100349098443985    -0.00704943761229515                       0 
                      2        1.15995497748874        1.22504603862762        41.8273086547852       0.576996803283691           254014.203125                  101320        288.119689941406       0.100349098443985    -0.00704943761229515                       0 
                      2        1.15870435217609        1.22504603862762        41.8273086547852       0.576996803283691           254014.203125                  101320        288.119689941406       0.100349098443985    -0.00704943761229515                       0 
                      2        1.15745372686343        1.22504603862762        41.8273086547852       0.576996803283691           254014.203125                  101320        288.119689941406       0.100349098443985    -0.00704943761229515                       0 
                      2        1.15620310155078        1.22504603862762        41.8273086547852       0.576996803283691           254014.203125                  101320        288.119689941406       0.100349098443985    -0.00704943761229515                       0 
                      2        1.15495247623812        1.22504603862762        41.8273086547852       0.576996803283691           254014.203125                  101320        288.119689941406       0.100349098443985    -0.00704943761229515                       0 
                      2        1.15370185092546        1.22504603862762        41.8273086547852       0.576996803283691           254014.203125                  101320        288.119689941406       0.100349098443985    -0.00704943761229515                       0 
                      2        1.15245122561281        1.22504603862762        41.8273086547852       0.576996803283691           254014.203125                  101320        288.119689941406       0.100349098443985    -0.00704943761229515                       0 
                      2        1.15120060030015        1.22504603862762        41.8273086547852       0.576996803283691           254014.203125                  101320        288.119689941406       0.100349098443985    -0.00704943761229515                       0 
                      2        1.14994997498749        1.22504603862762        41.8273086547852       0.576996803283691           254014.203125                  101320        288.119689941406       0.100349098443985    -0.00704943761229515                       0 
                      2        1.14869934967484        1.22504603862762        41.8273086547852       0.576996803283691           254014.203125                  101320        288.119689941406       0.100349098443985    -0.00704943761229515                       0 
                      2        1.14744872436218        1.22504603862762        41.8273086547852       0.576996803283691           254014.203125                  101320        288.119689941406       0.100349098443985    -0.00704943761229515                       0 
                      2        1.14619809904952        1.22504603862762        41.8273086547852       0.576996803283691           254014.203125                  101320        288.119689941406       0.100349098443985    -0.00704943761229515                       0 
                      2        1.14494747373687        1.22504603862762        41.8273086547852       0.576996803283691           254014.203125                  101320        288.119689941406       0.100349098443985    -0.00704943761229515                       0 
                      2        1.14369684842421        1.22504603862762        41.8273086547852       0.576996803283691           254014.203125                  101320        288.119689941406       0.100349098443985    -0.00704943761229515                       0 
                      2        1.14244622311156        1.22504603862762        41.8273086547852       0.576996803283691           254014.203125                  101320        288.119689941406       0.100349098443985    -0.00704943761229515                       0 
                      2         1.1411955977989        1.22504603862762        41.8273086547852       0.576996803283691           254014.203125                  101320        288.119689941406       0.100349098443985    -0.00704943761229515                       0 
                      2        1.13994497248624        1.22504603862762        41.8273086547852       0.576996803283691           254014.203125                  101320        288.119689941406       0.100349098443985    -0.00704943761229515                       0 
                      2        1.13869434717359        1.22504603862762        41.8273086547852       0.576996803283691           254014.203125                  101320        288.119689941406       0.100349098443985    -0.00704943761229515                       0 
                      2        1.13744372186093        1.22504603862762        41.8273086547852       0.576996803283691           254014.203125                  101320        288.119689941406       0.100349098443985    -0.00704943761229515                       0 
                      2        1.13619309654827        1.22504603862762        41.8273086547852       0.576996803283691           254014.203125                  101320        288.119689941406       0.100349098443985    -0.00704943761229515                       0 
                      2        1.13494247123562        1.22504603862762        41.8273086547852       0.576996803283691           254014.203125                  101320        288.119689941406       0.100349098443985    -0.00704943761229515                       0 
                      2        1.13369184592296        1.22504603862762        41.8273086547852       0.576996803283691           254014.203125                  101320        288.119689941406       0.100349098443985    -0.00704943761229515                       0 
                      2        1.13244122061031        1.22504603862762        41.8273086547852       0.576996803283691           254014.203125                  101320        288.119689941406       0.100349098443985    -0.00704943761229515                       0 
                      2        1.13119059529765        1.22504603862762        41.8273086547852       0.576996803283691           254014.203125                  101320        288.119689941406       0.100349098443985    -0.00704943761229515                       0 
                      2        1.12993996998499        1.22504603862762        41.8273086547852       0.576996803283691           254014.203125                  101320        288.119689941406       0.100349098443985    -0.00704943761229515                       0 
                      2        1.12868934467234        1.22504603862762        41.8273086547852       0.576996803283691           254014.203125                  101320        288.119689941406       0.100349098443985    -0.00704943761229515                       0 
                      2        1.12743871935968        1.22504603862762        41.8273086547852       0.576996803283691           254014.203125                  101320        288.119689941406       0.100349098443985    -0.00704943761229515                       0 
                      2        1.12618809404702        1.22504603862762        41.8273086547852       0.576996803283691           254014.203125                  101320        288.119689941406       0.100349098443985    -0.00704943761229515                       0 
                      2        1.12493746873437        1.22504603862762        41.8273086547852       0.576996803283691           254014.203125                  101320        288.119689941406       0.100349098443985    -0.00704943761229515                       0 
                      2        1.12368684342171        1.22504603862762        41.8273086547852       0.576996803283691           254014.203125                  101320        288.119689941406       0.100349098443985    -0.00704943761229515                       0 
                      2        1.12243621810905        1.22504603862762        41.8273086547852       0.576996803283691           254014.203125                  101320        288.119689941406       0.100349098443985    -0.00704943761229515                       0 
                      2         1.1211855927964        1.22504603862762        41.8273086547852       0.576996803283691           254014.203125                  101320        288.119689941406       0.100349098443985    -0.00704943761229515                       0 
                      2        1.11993496748374        1.22504603862762        41.8273086547852       0.576996803283691           254014.203125                  101320        288.119689941406       0.100349098443985    -0.00704943761229515                       0 
                      2        1.11868434217109        1.22504603862762        41.8273086547852       0.576996803283691           254014.203125                  101320        288.119689941406       0.100349098443985    -0.00704943761229515                       0 
                      2        1.11743371685843        1.22504603862762        41.8273086547852       0.576996803283691           254014.203125                  101320        288.119689941406       0.100349098443985    -0.00704943761229515                       0 
                      2        1.11618309154577        1.22504603862762        41.8273086547852       0.576996803283691           254014.203125                  101320        288.119689941406       0.100349098443985    -0.00704943761229515                       0 
                      2        1.11493246623312        1.22504603862762        41.8273086547852       0.576996803283691           254014.203125                  101320        288.119689941406       0.100349098443985    -0.00704943761229515                       0 
                      2        1.11368184092046        1.22504603862762        41.8273086547852       0.576996803283691           254014.203125                  101320        288.119689941406       0.100349098443985    -0.00704943761229515                       0 
                      2         1.1124312156078        1.22504603862762        41.8273086547852       0.576996803283691           254014.203125                  101320        288.119689941406       0.100349098443985    -0.00704943761229515                       0 
                      2        1.11118059029515        1.22504603862762        41.8273086547852       0.576996803283691           254014.203125                  101320        288.119689941406       0.100349098443985    -0.00704943761229515                       0 