TITLE = "Visualization of the volumetric solution"
VARIABLES = "x","y","Density","Momentum_x","Momentum_y","Energy","Pressure","Temperature","Mach","C<sub>p</sub>","Roe_Dissipation"
ZONE NODES= 1524, ELEMENTS= 2886, DATAPACKING=POINT, ZONETYPE=FEQUADRILATERAL
-1.500000e-01	2.552500e-03	1.224525e+00	5.560912e+01	-3.819416e-06	2.544144e+05	1.012607e+05	2.880737e+02	1.334682e-01	-5.365325e-02	0.000000e+00	
-1.468273e-01	2.277231e-03	1.224525e+00	5.560911e+01	-1.001948e-05	2.544144e+05	1.012607e+05	2.880737e+02	1.334682e-01	-5.364610e-02	0.000000e+00	
-1.483787e-01	4.958793e-03	1.224525e+00	5.560911e+01	-3.821329e-06	2.544144e+05	1.012607e+05	2.880737e+02	1.334682e-01	-5.364892e-02	0.000000e+00	
-1.500000e-01	5.105000e-03	1.224525e+00	5.560912e+01	-5.383219e-07	2.544144e+05	1.012607e+05	2.880737e+02	1.334682e-01	-5.365322e-02	0.000000e+00	
-1.455779e-01	4.621961e-03	1.224525e+00	5.560911e+01	-8.376899e-06	2.544144e+05	1.012607e+05	2.880737e+02	1.334681e-01	-5.364449e-02	0.000000e+00	
-1.440138e-01	2.142483e-03	1.224525e+00	5.560911e+01	-1.261775e-05	2.544144e+05	1.012607e+05	2.880737e+02	1.334682e-01	-5.364175e-02	0.000000e+00	
-1.500000e-01	7.657500e-03	1.224525e+00	5.560912e+01	1.129732e-06	2.544144e+05	1.012607e+05	2.880737e+02	1.334682e-01	-5.365293e-02	0.000000e+00	
-1.472060e-01	7.087746e-03	1.224525e+00	5.560911e+01	-2.078727e-06	2.544144e+05	1.012607e+05	2.880737e+02	1.334682e-01	-5.364681e-02	0.000000e+00	
-1.428595e-01	4.492268e-03	1.224525e+00	5.560910e+01	-1.154570e-05	2.544144e+05	1.012607e+05	2.880737e+02	1.334681e-01	-5.363930e-02	0.000000e+00	
-1.443107e-01	6.845577e-03	1.224525e+00	5.560910e+01	-5.361435e-06	2.544144e+05	1.012607e+05	2.880737e+02	1.334681e-01	-5.364190e-02	0.000000e+00	
-1.414139e-01	2.100258e-03	1.224525e+00	5.560911e+01	-1.227641e-05	2.544145e+05	1.012607e+05	2.880737e+02	1.334681e-01	-5.363664e-02	0.000000e+00	
-1.481676e-01	9.110528e-03	1.224525e+00	5.560911e+01	2.031235e-06	2.544144e+05	1.012607e+05	2.880737e+02	1.334682e-01	-5.364846e-02	0.000000e+00	
-1.457996e-01	9.166301e-03	1.224525e+00	5.560911e+01	8.048441e-07	2.544144e+05	1.012607e+05	2.880737e+02	1.334681e-01	-5.364459e-02	0.000000e+00	
-1.500000e-01	1.021000e-02	1.224525e+00	5.560912e+01	2.422049e-06	2.544144e+05	1.012607e+05	2.880737e+02	1.334682e-01	-5.365304e-02	0.000000e+00	
-1.416298e-01	6.740705e-03	1.224525e+00	5.560910e+01	-7.261066e-06	2.544144e+05	1.012607e+05	2.880737e+02	1.334681e-01	-5.363701e-02	0.000000e+00	
-1.402569e-01	4.436204e-03	1.224525e+00	5.560910e+01	-1.069559e-05	2.544145e+05	1.012607e+05	2.880737e+02	1.334681e-01	-5.363452e-02	0.000000e+00	
-1.429909e-01	9.006157e-03	1.224525e+00	5.560910e+01	-1.652114e-06	2.544144e+05	1.012607e+05	2.880737e+02	1.334681e-01	-5.363946e-02	0.000000e+00	
-1.388732e-01	2.087757e-03	1.224525e+00	5.560912e+01	-8.579159e-06	2.544145e+05	1.012607e+05	2.880737e+02	1.334681e-01	-5.363181e-02	0.000000e+00	
-1.475171e-01	1.144748e-02	1.224525e+00	5.560911e+01	3.558808e-06	2.544144e+05	1.012607e+05	2.880737e+02	1.334681e-01	-5.364733e-02	0.000000e+00	
-1.444134e-01	1.129181e-02	1.224525e+00	5.560911e+01	2.221603e-06	2.544144e+05	1.012607e+05	2.880737e+02	1.334681e-01	-5.364199e-02	0.000000e+00	
-1.500000e-01	1.276250e-02	1.224525e+00	5.560911e+01	8.898829e-07	2.544144e+05	1.012607e+05	2.880737e+02	1.334682e-01	-5.365316e-02	0.000000e+00	
-1.390505e-01	6.681197e-03	1.224525e+00	5.560909e+01	-7.524021e-06	2.544145e+05	1.012607e+05	2.880737e+02	1.334681e-01	-5.363216e-02	0.000000e+00	
-1.403660e-01	8.915720e-03	1.224525e+00	5.560909e+01	-3.870530e-06	2.544145e+05	1.012607e+05	2.880737e+02	1.334681e-01	-5.363461e-02	0.000000e+00	
-1.377125e-01	4.405820e-03	1.224525e+00	5.560909e+01	-8.032651e-06	2.544145e+05	1.012607e+05	2.880737e+02	1.334681e-01	-5.362966e-02	0.000000e+00	
-1.416645e-01	1.113600e-02	1.224525e+00	5.560910e+01	-8.154813e-07	2.544144e+05	1.012607e+05	2.880737e+02	1.334681e-01	-5.363701e-02	0.000000e+00	
-1.363540e-01	2.081346e-03	1.224525e+00	5.560912e+01	-4.856195e-06	2.544145e+05	1.012607e+05	2.880737e+02	1.334681e-01	-5.362701e-02	0.000000e+00	
-1.454680e-01	1.354638e-02	1.224525e+00	5.560911e+01	4.140939e-06	2.544144e+05	1.012607e+05	2.880737e+02	1.334682e-01	-5.364399e-02	0.000000e+00	
-1.479273e-01	1.419071e-02	1.224525e+00	5.560911e+01	3.075914e-06	2.544144e+05	1.012607e+05	2.880737e+02	1.334682e-01	-5.364831e-02	0.000000e+00	
-1.429396e-01	1.339082e-02	1.224525e+00	5.560911e+01	1.180439e-06	2.544144e+05	1.012607e+05	2.880737e+02	1.334681e-01	-5.363920e-02	0.000000e+00	
-1.500000e-01	1.531500e-02	1.224525e+00	5.560912e+01	5.215380e-07	2.544144e+05	1.012607e+05	2.880737e+02	1.334682e-01	-5.365316e-02	0.000000e+00	
-1.365169e-01	6.640531e-03	1.224525e+00	5.560908e+01	-6.376432e-06	2.544145e+05	1.012607e+05	2.880737e+02	1.334681e-01	-5.362738e-02	0.000000e+00	
-1.378176e-01	8.855004e-03	1.224525e+00	5.560909e+01	-5.144973e-06	2.544145e+05	1.012607e+05	2.880737e+02	1.334681e-01	-5.362984e-02	0.000000e+00	
-1.390919e-01	1.104900e-02	1.224525e+00	5.560910e+01	-3.237638e-06	2.544145e+05	1.012607e+05	2.880737e+02	1.334681e-01	-5.363218e-02	0.000000e+00	
-1.351893e-01	4.382266e-03	1.224525e+00	5.560909e+01	-4.728074e-06	2.544145e+05	1.012607e+05	2.880737e+02	1.334681e-01	-5.362491e-02	0.000000e+00	
-1.403369e-01	1.324484e-02	1.224525e+00	5.560911e+01	-1.612791e-06	2.544145e+05	1.012607e+05	2.880737e+02	1.334681e-01	-5.363445e-02	0.000000e+00	
-1.338415e-01	2.074988e-03	1.224525e+00	5.560912e+01	-1.187233e-06	2.544145e+05	1.012607e+05	2.880737e+02	1.334681e-01	-5.362227e-02	0.000000e+00	
-1.440610e-01	1.553409e-02	1.224525e+00	5.560912e+01	2.601486e-06	2.544144e+05	1.012607e+05	2.880737e+02	1.334682e-01	-5.364111e-02	0.000000e+00	
-1.461927e-01	1.553839e-02	1.224525e+00	5.560912e+01	3.519866e-06	2.544144e+05	1.012607e+05	2.880737e+02	1.334682e-01	-5.364531e-02	0.000000e+00	
-1.479199e-01	1.661210e-02	1.224525e+00	5.560912e+01	2.250560e-06	2.544144e+05	1.012607e+05	2.880737e+02	1.334682e-01	-5.364841e-02	0.000000e+00	
-1.415963e-01	1.546339e-02	1.224525e+00	5.560911e+01	3.137838e-07	2.544145e+05	1.012607e+05	2.880737e+02	1.334681e-01	-5.363668e-02	0.000000e+00	
-1.500000e-01	1.786750e-02	1.224525e+00	5.560912e+01	1.114474e-06	2.544144e+05	1.012607e+05	2.880737e+02	1.334682e-01	-5.365328e-02	0.000000e+00	
-1.352969e-01	8.809763e-03	1.224525e+00	5.560909e+01	-5.312894e-06	2.544145e+05	1.012607e+05	2.880737e+02	1.334681e-01	-5.362509e-02	0.000000e+00	
-1.339967e-01	6.606931e-03	1.224525e+00	5.560908e+01	-4.475667e-06	2.544145e+05	1.012607e+05	2.880737e+02	1.334680e-01	-5.362263e-02	0.000000e+00	
-1.365694e-01	1.098883e-02	1.224525e+00	5.560909e+01	-4.839723e-06	2.544145e+05	1.012607e+05	2.880737e+02	1.334681e-01	-5.362745e-02	0.000000e+00	
-1.378159e-01	1.316559e-02	1.224525e+00	5.560910e+01	-3.702776e-06	2.544145e+05	1.012607e+05	2.880737e+02	1.334681e-01	-5.362975e-02	0.000000e+00	
-1.326720e-01	4.360732e-03	1.224525e+00	5.560909e+01	-1.288859e-06	2.544145e+05	1.012607e+05	2.880737e+02	1.334681e-01	-5.362018e-02	0.000000e+00	
-1.390447e-01	1.534973e-02	1.224525e+00	5.560911e+01	-2.042539e-06	2.544145e+05	1.012607e+05	2.880737e+02	1.334681e-01	-5.363197e-02	0.000000e+00	
-1.313318e-01	2.068856e-03	1.224525e+00	5.560912e+01	2.257638e-06	2.544145e+05	1.012607e+05	2.880737e+02	1.334681e-01	-5.361756e-02	0.000000e+00	
-1.427994e-01	1.762827e-02	1.224525e+00	5.560912e+01	1.436173e-06	2.544144e+05	1.012607e+05	2.880737e+02	1.334682e-01	-5.363880e-02	0.000000e+00	
-1.455711e-01	1.775674e-02	1.224525e+00	5.560912e+01	2.313384e-06	2.544144e+05	1.012607e+05	2.880737e+02	1.334682e-01	-5.364412e-02	0.000000e+00	
-1.478372e-01	1.904167e-02	1.224525e+00	5.560912e+01	1.747696e-06	2.544144e+05	1.012607e+05	2.880737e+02	1.334682e-01	-5.364821e-02	0.000000e+00	
-1.403067e-01	1.756419e-02	1.224525e+00	5.560911e+01	-5.685575e-07	2.544145e+05	1.012607e+05	2.880737e+02	1.334681e-01	-5.363430e-02	0.000000e+00	
-1.500000e-01	2.042000e-02	1.224525e+00	5.560912e+01	1.127711e-06	2.544144e+05	1.012607e+05	2.880737e+02	1.334682e-01	-5.365346e-02	0.000000e+00	
-1.340597e-01	1.094344e-02	1.224525e+00	5.560909e+01	-5.610734e-06	2.544145e+05	1.012607e+05	2.880737e+02	1.334681e-01	-5.362274e-02	0.000000e+00	
-1.327822e-01	8.772232e-03	1.224525e+00	5.560908e+01	-4.622742e-06	2.544145e+05	1.012607e+05	2.880737e+02	1.334681e-01	-5.362038e-02	0.000000e+00	
-1.314804e-01	6.577166e-03	1.224525e+00	5.560908e+01	-2.039638e-06	2.544145e+05	1.012607e+05	2.880737e+02	1.334680e-01	-5.361792e-02	0.000000e+00	
-1.353127e-01	1.311001e-02	1.224525e+00	5.560910e+01	-5.228590e-06	2.544145e+05	1.012607e+05	2.880737e+02	1.334681e-01	-5.362507e-02	0.000000e+00	
-1.365464e-01	1.528365e-02	1.224525e+00	5.560911e+01	-3.992969e-06	2.544145e+05	1.012607e+05	2.880737e+02	1.334681e-01	-5.362733e-02	0.000000e+00	
-1.301591e-01	4.341508e-03	1.224525e+00	5.560909e+01	2.188333e-06	2.544145e+05	1.012607e+05	2.880737e+02	1.334681e-01	-5.361548e-02	0.000000e+00	
-1.377713e-01	1.746662e-02	1.224525e+00	5.560911e+01	-2.442023e-06	2.544145e+05	1.012607e+05	2.880737e+02	1.334681e-01	-5.362958e-02	0.000000e+00	
-1.288255e-01	2.064056e-03	1.224525e+00	5.560912e+01	5.531679e-06	2.544145e+05	1.012607e+05	2.880737e+02	1.334681e-01	-5.361289e-02	0.000000e+00	
-1.414667e-01	1.972392e-02	1.224525e+00	5.560912e+01	-5.956829e-07	2.544145e+05	1.012607e+05	2.880737e+02	1.334682e-01	-5.363641e-02	0.000000e+00	
-1.439431e-01	1.983998e-02	1.224525e+00	5.560912e+01	-3.716404e-07	2.544144e+05	1.012607e+05	2.880737e+02	1.334682e-01	-5.364096e-02	0.000000e+00	
-1.460181e-01	2.009756e-02	1.224525e+00	5.560912e+01	-1.427499e-07	2.544144e+05	1.012607e+05	2.880737e+02	1.334682e-01	-5.364505e-02	0.000000e+00	
-1.476339e-01	2.180460e-02	1.224525e+00	5.560912e+01	-1.771596e-06	2.544144e+05	1.012607e+05	2.880737e+02	1.334682e-01	-5.364788e-02	0.000000e+00	
-1.390230e-01	1.967336e-02	1.224525e+00	5.560912e+01	-1.297997e-06	2.544145e+05	1.012607e+05	2.880737e+02	1.334681e-01	-5.363183e-02	0.000000e+00	
-1.500000e-01	2.297250e-02	1.224525e+00	5.560912e+01	-1.074414e-06	2.544144e+05	1.012607e+05	2.880737e+02	1.334682e-01	-5.365342e-02	0.000000e+00	
-1.328120e-01	1.306706e-02	1.224525e+00	5.560910e+01	-6.175381e-06	2.544145e+05	1.012607e+05	2.880737e+02	1.334681e-01	-5.362040e-02	0.000000e+00	
-1.315522e-01	1.090585e-02	1.224525e+00	5.560909e+01	-5.676090e-06	2.544145e+05	1.012607e+05	2.880737e+02	1.334681e-01	-5.361806e-02	0.000000e+00	
-1.302712e-01	8.739564e-03	1.224525e+00	5.560908e+01	-3.273216e-06	2.544145e+05	1.012607e+05	2.880737e+02	1.334680e-01	-5.361570e-02	0.000000e+00	
-1.289704e-01	6.551116e-03	1.224525e+00	5.560908e+01	7.123392e-07	2.544145e+05	1.012607e+05	2.880737e+02	1.334680e-01	-5.361325e-02	0.000000e+00	
-1.340528e-01	1.523382e-02	1.224525e+00	5.560910e+01	-5.346145e-06	2.544145e+05	1.012607e+05	2.880737e+02	1.334681e-01	-5.362269e-02	0.000000e+00	
-1.352808e-01	1.740860e-02	1.224525e+00	5.560911e+01	-3.724232e-06	2.544145e+05	1.012607e+05	2.880737e+02	1.334681e-01	-5.362495e-02	0.000000e+00	
-1.276531e-01	4.325345e-03	1.224525e+00	5.560909e+01	5.618190e-06	2.544145e+05	1.012607e+05	2.880737e+02	1.334681e-01	-5.361082e-02	0.000000e+00	
-1.365041e-01	1.958771e-02	1.224525e+00	5.560911e+01	-1.969050e-06	2.544145e+05	1.012607e+05	2.880737e+02	1.334681e-01	-5.362721e-02	0.000000e+00	
-1.263236e-01	2.060940e-03	1.224525e+00	5.560912e+01	8.588406e-06	2.544145e+05	1.012607e+05	2.880737e+02	1.334681e-01	-5.360824e-02	0.000000e+00	
-1.402057e-01	2.181674e-02	1.224525e+00	5.560912e+01	-7.159314e-07	2.544145e+05	1.012607e+05	2.880737e+02	1.334682e-01	-5.363406e-02	0.000000e+00	
-1.426932e-01	2.188220e-02	1.224525e+00	5.560912e+01	-2.085622e-06	2.544144e+05	1.012607e+05	2.880737e+02	1.334682e-01	-5.363862e-02	0.000000e+00	
-1.451574e-01	2.193954e-02	1.224525e+00	5.560912e+01	-2.972137e-06	2.544144e+05	1.012607e+05	2.880737e+02	1.334682e-01	-5.364325e-02	0.000000e+00	
-1.483456e-01	2.405850e-02	1.224525e+00	5.560912e+01	-3.904720e-06	2.544144e+05	1.012607e+05	2.880737e+02	1.334682e-01	-5.364915e-02	0.000000e+00	
-1.377603e-01	2.178184e-02	1.224525e+00	5.560912e+01	-1.701814e-07	2.544145e+05	1.012607e+05	2.880737e+02	1.334681e-01	-5.362950e-02	0.000000e+00	
-1.464060e-01	2.394406e-02	1.224525e+00	5.560912e+01	-4.641775e-06	2.544144e+05	1.012607e+05	2.880737e+02	1.334682e-01	-5.364568e-02	0.000000e+00	
-1.500000e-01	2.552500e-02	1.224525e+00	5.560912e+01	-1.157632e-06	2.544144e+05	1.012607e+05	2.880737e+02	1.334682e-01	-5.365338e-02	0.000000e+00	
-1.315590e-01	1.519319e-02	1.224525e+00	5.560910e+01	-6.238345e-06	2.544145e+05	1.012607e+05	2.880737e+02	1.334681e-01	-5.361805e-02	0.000000e+00	
-1.303128e-01	1.303075e-02	1.224525e+00	5.560909e+01	-6.595984e-06	2.544145e+05	1.012607e+05	2.880737e+02	1.334681e-01	-5.361575e-02	0.000000e+00	
-1.290496e-01	1.087308e-02	1.224525e+00	5.560909e+01	-5.127909e-06	2.544145e+05	1.012607e+05	2.880737e+02	1.334681e-01	-5.361341e-02	0.000000e+00	
-1.277686e-01	8.710977e-03	1.224525e+00	5.560909e+01	-1.433991e-06	2.544145e+05	1.012607e+05	2.880737e+02	1.334680e-01	-5.361105e-02	0.000000e+00	
-1.264702e-01	6.528807e-03	1.224525e+00	5.560908e+01	3.643431e-06	2.544145e+05	1.012607e+05	2.880737e+02	1.334680e-01	-5.360861e-02	0.000000e+00	
-1.327918e-01	1.736206e-02	1.224525e+00	5.560910e+01	-4.629244e-06	2.544145e+05	1.012607e+05	2.880737e+02	1.334681e-01	-5.362033e-02	0.000000e+00	
-1.340173e-01	1.953434e-02	1.224525e+00	5.560911e+01	-2.469711e-06	2.544145e+05	1.012607e+05	2.880737e+02	1.334681e-01	-5.362258e-02	0.000000e+00	
-1.251555e-01	4.312129e-03	1.224525e+00	5.560909e+01	8.919936e-06	2.544145e+05	1.012607e+05	2.880737e+02	1.334681e-01	-5.360621e-02	0.000000e+00	
-1.352430e-01	2.170490e-02	1.224525e+00	5.560911e+01	-2.107726e-07	2.544145e+05	1.012607e+05	2.880737e+02	1.334681e-01	-5.362486e-02	0.000000e+00	
-1.238262e-01	2.059167e-03	1.224526e+00	5.560911e+01	1.138840e-05	2.544145e+05	1.012607e+05	2.880737e+02	1.334681e-01	-5.360363e-02	0.000000e+00	
-1.389580e-01	2.391734e-02	1.224525e+00	5.560911e+01	9.668704e-07	2.544145e+05	1.012607e+05	2.880737e+02	1.334681e-01	-5.363178e-02	0.000000e+00	
-1.414607e-01	2.396800e-02	1.224525e+00	5.560912e+01	-8.680384e-07	2.544145e+05	1.012607e+05	2.880737e+02	1.334682e-01	-5.363644e-02	0.000000e+00	
-1.439678e-01	2.399475e-02	1.224525e+00	5.560912e+01	-3.160292e-06	2.544144e+05	1.012607e+05	2.880737e+02	1.334682e-01	-5.364098e-02	0.000000e+00	
-1.479362e-01	2.611720e-02	1.224525e+00	5.560912e+01	-3.985018e-06	2.544144e+05	1.012607e+05	2.880737e+02	1.334682e-01	-5.364811e-02	0.000000e+00	
-1.365026e-01	2.388598e-02	1.224525e+00	5.560911e+01	1.770361e-06	2.544145e+05	1.012607e+05	2.880737e+02	1.334681e-01	-5.362717e-02	0.000000e+00	
-1.453825e-01	2.611497e-02	1.224525e+00	5.560912e+01	-3.871922e-06	2.544144e+05	1.012607e+05	2.880737e+02	1.334682e-01	-5.364376e-02	0.000000e+00	
-1.500000e-01	2.807750e-02	1.224525e+00	5.560912e+01	-2.389784e-06	2.544144e+05	1.012607e+05	2.880737e+02	1.334682e-01	-5.365314e-02	0.000000e+00	
-1.303039e-01	1.732224e-02	1.224525e+00	5.560910e+01	-5.250623e-06	2.544145e+05	1.012607e+05	2.880737e+02	1.334681e-01	-5.361571e-02	0.000000e+00	
-1.290684e-01	1.515757e-02	1.224525e+00	5.560910e+01	-6.738686e-06	2.544145e+05	1.012607e+05	2.880737e+02	1.334681e-01	-5.361343e-02	0.000000e+00	
-1.278202e-01	1.299842e-02	1.224525e+00	5.560909e+01	-6.525908e-06	2.544145e+05	1.012607e+05	2.880737e+02	1.334681e-01	-5.361113e-02	0.000000e+00	
-1.265571e-01	1.084395e-02	1.224525e+00	5.560909e+01	-4.077584e-06	2.544145e+05	1.012607e+05	2.880737e+02	1.334681e-01	-5.360880e-02	0.000000e+00	
-1.252777e-01	8.685969e-03	1.224525e+00	5.560909e+01	7.359074e-07	2.544145e+05	1.012607e+05	2.880737e+02	1.334680e-01	-5.360645e-02	0.000000e+00	
-1.239811e-01	6.509714e-03	1.224526e+00	5.560909e+01	6.609204e-06	2.544145e+05	1.012607e+05	2.880737e+02	1.334680e-01	-5.360402e-02	0.000000e+00	
-1.315309e-01	1.948910e-02	1.224525e+00	5.560910e+01	-2.907487e-06	2.544145e+05	1.012607e+05	2.880737e+02	1.334681e-01	-5.361797e-02	0.000000e+00	
-1.327551e-01	2.165399e-02	1.224525e+00	5.560911e+01	-3.551390e-07	2.544145e+05	1.012607e+05	2.880737e+02	1.334681e-01	-5.362023e-02	0.000000e+00	
-1.226663e-01	4.301168e-03	1.224526e+00	5.560909e+01	1.200588e-05	2.544146e+05	1.012607e+05	2.880737e+02	1.334680e-01	-5.360163e-02	0.000000e+00	
-1.339823e-01	2.381341e-02	1.224525e+00	5.560911e+01	1.732723e-06	2.544145e+05	1.012607e+05	2.880737e+02	1.334681e-01	-5.362252e-02	0.000000e+00	
-1.213331e-01	2.058168e-03	1.224526e+00	5.560911e+01	1.385029e-05	2.544146e+05	1.012608e+05	2.880737e+02	1.334681e-01	-5.359906e-02	0.000000e+00	
-1.377062e-01	2.601502e-02	1.224525e+00	5.560911e+01	2.465257e-06	2.544145e+05	1.012607e+05	2.880737e+02	1.334681e-01	-5.362948e-02	0.000000e+00	
-1.402211e-01	2.606847e-02	1.224525e+00	5.560911e+01	1.018409e-06	2.544145e+05	1.012607e+05	2.880737e+02	1.334681e-01	-5.363417e-02	0.000000e+00	
-1.427734e-01	2.610728e-02	1.224525e+00	5.560911e+01	-8.537269e-07	2.544144e+05	1.012607e+05	2.880737e+02	1.334681e-01	-5.363888e-02	0.000000e+00	
-1.470834e-01	2.826826e-02	1.224525e+00	5.560911e+01	-2.998722e-06	2.544144e+05	1.012607e+05	2.880737e+02	1.334681e-01	-5.364655e-02	0.000000e+00	
-1.352405e-01	2.598137e-02	1.224525e+00	5.560910e+01	2.831965e-06	2.544145e+05	1.012607e+05	2.880737e+02	1.334681e-01	-5.362484e-02	0.000000e+00	
-1.441774e-01	2.826100e-02	1.224525e+00	5.560911e+01	-1.160220e-06	2.544144e+05	1.012607e+05	2.880737e+02	1.334681e-01	-5.364170e-02	0.000000e+00	
-1.483964e-01	3.059379e-02	1.224525e+00	5.560911e+01	3.440236e-07	2.544144e+05	1.012607e+05	2.880737e+02	1.334682e-01	-5.364869e-02	0.000000e+00	
-1.290479e-01	1.944908e-02	1.224525e+00	5.560910e+01	-3.321217e-06	2.544145e+05	1.012607e+05	2.880737e+02	1.334681e-01	-5.361337e-02	0.000000e+00	
-1.278214e-01	1.728629e-02	1.224525e+00	5.560910e+01	-5.678060e-06	2.544145e+05	1.012607e+05	2.880737e+02	1.334681e-01	-5.361111e-02	0.000000e+00	
-1.265859e-01	1.512504e-02	1.224525e+00	5.560909e+01	-6.888607e-06	2.544145e+05	1.012607e+05	2.880737e+02	1.334681e-01	-5.360884e-02	0.000000e+00	
-1.253384e-01	1.296902e-02	1.224525e+00	5.560909e+01	-6.021463e-06	2.544145e+05	1.012607e+05	2.880737e+02	1.334681e-01	-5.360655e-02	0.000000e+00	
-1.240769e-01	1.081785e-02	1.224525e+00	5.560909e+01	-2.637901e-06	2.544145e+05	1.012607e+05	2.880737e+02	1.334680e-01	-5.360423e-02	0.000000e+00	
-1.227991e-01	8.663939e-03	1.224526e+00	5.560909e+01	3.091721e-06	2.544146e+05	1.012607e+05	2.880737e+02	1.334680e-01	-5.360189e-02	0.000000e+00	
-1.215028e-01	6.493130e-03	1.224526e+00	5.560909e+01	9.487395e-06	2.544146e+05	1.012608e+05	2.880737e+02	1.334680e-01	-5.359948e-02	0.000000e+00	
-1.302698e-01	2.160930e-02	1.224525e+00	5.560910e+01	-6.833473e-07	2.544145e+05	1.012607e+05	2.880737e+02	1.334681e-01	-5.361563e-02	0.000000e+00	
-1.314919e-01	2.376412e-02	1.224525e+00	5.560910e+01	1.461364e-06	2.544145e+05	1.012607e+05	2.880737e+02	1.334681e-01	-5.361788e-02	0.000000e+00	
-1.201850e-01	4.291764e-03	1.224526e+00	5.560909e+01	1.478014e-05	2.544146e+05	1.012608e+05	2.880737e+02	1.334680e-01	-5.359709e-02	0.000000e+00	
-1.327173e-01	2.591208e-02	1.224525e+00	5.560910e+01	2.442784e-06	2.544145e+05	1.012607e+05	2.880737e+02	1.334681e-01	-5.362017e-02	0.000000e+00	
-1.188442e-01	2.057462e-03	1.224526e+00	5.560911e+01	1.589966e-05	2.544146e+05	1.012608e+05	2.880737e+02	1.334681e-01	-5.359453e-02	0.000000e+00	
-1.364425e-01	2.810345e-02	1.224525e+00	5.560910e+01	2.192319e-06	2.544145e+05	1.012607e+05	2.880737e+02	1.334681e-01	-5.362714e-02	0.000000e+00	
-1.389582e-01	2.816194e-02	1.224525e+00	5.560910e+01	1.634738e-06	2.544145e+05	1.012607e+05	2.880737e+02	1.334681e-01	-5.363187e-02	0.000000e+00	
-1.415162e-01	2.821714e-02	1.224525e+00	5.560910e+01	5.412317e-07	2.544144e+05	1.012607e+05	2.880737e+02	1.334681e-01	-5.363664e-02	0.000000e+00	
-1.456138e-01	3.047563e-02	1.224525e+00	5.560911e+01	5.342438e-07	2.544144e+05	1.012607e+05	2.880737e+02	1.334681e-01	-5.364433e-02	0.000000e+00	
-1.500000e-01	3.063000e-02	1.224525e+00	5.560912e+01	9.893943e-08	2.544144e+05	1.012607e+05	2.880737e+02	1.334682e-01	-5.365312e-02	0.000000e+00	
-1.339697e-01	2.806804e-02	1.224525e+00	5.560910e+01	2.061097e-06	2.544145e+05	1.012607e+05	2.880737e+02	1.334681e-01	-5.362247e-02	0.000000e+00	
-1.428308e-01	3.038392e-02	1.224525e+00	5.560910e+01	6.200050e-07	2.544144e+05	1.012607e+05	2.880737e+02	1.334681e-01	-5.363905e-02	0.000000e+00	
-1.470719e-01	3.276619e-02	1.224525e+00	5.560911e+01	3.858884e-06	2.544144e+05	1.012607e+05	2.880737e+02	1.334681e-01	-5.364655e-02	0.000000e+00	
-1.500000e-01	3.318250e-02	1.224525e+00	5.560912e+01	3.001444e-06	2.544144e+05	1.012607e+05	2.880737e+02	1.334682e-01	-5.365314e-02	0.000000e+00	
-1.277910e-01	2.156911e-02	1.224525e+00	5.560910e+01	-1.142697e-06	2.544145e+05	1.012607e+05	2.880737e+02	1.334681e-01	-5.361104e-02	0.000000e+00	
-1.265723e-01	1.941232e-02	1.224525e+00	5.560909e+01	-3.734984e-06	2.544145e+05	1.012607e+05	2.880737e+02	1.334681e-01	-5.360879e-02	0.000000e+00	
-1.253477e-01	1.725283e-02	1.224525e+00	5.560909e+01	-5.925623e-06	2.544145e+05	1.012607e+05	2.880737e+02	1.334680e-01	-5.360655e-02	0.000000e+00	
-1.241140e-01	1.509482e-02	1.224525e+00	5.560909e+01	-6.720887e-06	2.544145e+05	1.012607e+05	2.880737e+02	1.334680e-01	-5.360429e-02	0.000000e+00	
-1.228685e-01	1.294207e-02	1.224526e+00	5.560909e+01	-5.153195e-06	2.544146e+05	1.012607e+05	2.880737e+02	1.334680e-01	-5.360201e-02	0.000000e+00	
-1.216089e-01	1.079438e-02	1.224526e+00	5.560909e+01	-9.277524e-07	2.544146e+05	1.012608e+05	2.880737e+02	1.334680e-01	-5.359970e-02	0.000000e+00	
-1.203322e-01	8.644474e-03	1.224526e+00	5.560909e+01	5.499947e-06	2.544146e+05	1.012608e+05	2.880737e+02	1.334680e-01	-5.359738e-02	0.000000e+00	
-1.190348e-01	6.478664e-03	1.224526e+00	5.560909e+01	1.215953e-05	2.544146e+05	1.012608e+05	2.880737e+02	1.334680e-01	-5.359498e-02	0.000000e+00	
-1.290076e-01	2.372043e-02	1.224525e+00	5.560910e+01	9.381634e-07	2.544145e+05	1.012607e+05	2.880737e+02	1.334681e-01	-5.361328e-02	0.000000e+00	
-1.302256e-01	2.586515e-02	1.224525e+00	5.560910e+01	1.865734e-06	2.544145e+05	1.012607e+05	2.880737e+02	1.334681e-01	-5.361553e-02	0.000000e+00	
-1.177119e-01	4.283586e-03	1.224526e+00	5.560909e+01	1.715244e-05	2.544146e+05	1.012608e+05	2.880737e+02	1.334680e-01	-5.359260e-02	0.000000e+00	
-1.314464e-01	2.800324e-02	1.224525e+00	5.560910e+01	1.365610e-06	2.544145e+05	1.012607e+05	2.880737e+02	1.334681e-01	-5.361780e-02	0.000000e+00	
-1.163599e-01	2.056811e-03	1.224526e+00	5.560910e+01	1.751324e-05	2.544146e+05	1.012608e+05	2.880737e+02	1.334681e-01	-5.359004e-02	0.000000e+00	
-1.351668e-01	3.018405e-02	1.224525e+00	5.560910e+01	4.313076e-07	2.544145e+05	1.012607e+05	2.880737e+02	1.334681e-01	-5.362476e-02	0.000000e+00	
-1.376769e-01	3.024360e-02	1.224525e+00	5.560910e+01	5.292290e-07	2.544145e+05	1.012607e+05	2.880737e+02	1.334681e-01	-5.362946e-02	0.000000e+00	
-1.402139e-01	3.030961e-02	1.224525e+00	5.560910e+01	6.201446e-07	2.544145e+05	1.012607e+05	2.880737e+02	1.334681e-01	-5.363427e-02	0.000000e+00	
-1.441276e-01	3.257612e-02	1.224525e+00	5.560911e+01	2.086787e-06	2.544144e+05	1.012607e+05	2.880737e+02	1.334681e-01	-5.364164e-02	0.000000e+00	
-1.326905e-01	3.014965e-02	1.224525e+00	5.560910e+01	-1.228392e-08	2.544145e+05	1.012607e+05	2.880737e+02	1.334681e-01	-5.362009e-02	0.000000e+00	
-1.414585e-01	3.246603e-02	1.224525e+00	5.560910e+01	6.252092e-07	2.544145e+05	1.012607e+05	2.880737e+02	1.334681e-01	-5.363656e-02	0.000000e+00	
-1.452865e-01	3.475334e-02	1.224525e+00	5.560912e+01	3.867793e-06	2.544144e+05	1.012607e+05	2.880737e+02	1.334682e-01	-5.364364e-02	0.000000e+00	
-1.478940e-01	3.492999e-02	1.224525e+00	5.560912e+01	3.861560e-06	2.544144e+05	1.012607e+05	2.880737e+02	1.334682e-01	-5.364813e-02	0.000000e+00	
-1.265325e-01	2.368075e-02	1.224525e+00	5.560909e+01	2.406189e-07	2.544145e+05	1.012607e+05	2.880737e+02	1.334681e-01	-5.360870e-02	0.000000e+00	
-1.253209e-01	2.153178e-02	1.224525e+00	5.560909e+01	-1.722889e-06	2.544145e+05	1.012607e+05	2.880737e+02	1.334680e-01	-5.360648e-02	0.000000e+00	
-1.241057e-01	1.937769e-02	1.224525e+00	5.560909e+01	-4.129645e-06	2.544145e+05	1.012607e+05	2.880737e+02	1.334680e-01	-5.360425e-02	0.000000e+00	
-1.228839e-01	1.722126e-02	1.224526e+00	5.560909e+01	-6.003580e-06	2.544146e+05	1.012607e+05	2.880737e+02	1.334680e-01	-5.360202e-02	0.000000e+00	
-1.216527e-01	1.506663e-02	1.224526e+00	5.560909e+01	-6.275867e-06	2.544146e+05	1.012608e+05	2.880737e+02	1.334680e-01	-5.359977e-02	0.000000e+00	
-1.204097e-01	1.291746e-02	1.224526e+00	5.560909e+01	-4.003597e-06	2.544146e+05	1.012608e+05	2.880737e+02	1.334680e-01	-5.359752e-02	0.000000e+00	
-1.191523e-01	1.077353e-02	1.224526e+00	5.560910e+01	9.357098e-07	2.544146e+05	1.012608e+05	2.880737e+02	1.334680e-01	-5.359522e-02	0.000000e+00	
-1.178768e-01	8.627689e-03	1.224526e+00	5.560910e+01	7.834025e-06	2.544146e+05	1.012608e+05	2.880737e+02	1.334680e-01	-5.359292e-02	0.000000e+00	
-1.165779e-01	6.466521e-03	1.224526e+00	5.560910e+01	1.451203e-05	2.544146e+05	1.012608e+05	2.880737e+02	1.334680e-01	-5.359054e-02	0.000000e+00	
-1.277435e-01	2.582346e-02	1.224525e+00	5.560910e+01	1.088156e-06	2.544145e+05	1.012607e+05	2.880737e+02	1.334681e-01	-5.361093e-02	0.000000e+00	
-1.289560e-01	2.795988e-02	1.224525e+00	5.560910e+01	6.122512e-07	2.544145e+05	1.012607e+05	2.880737e+02	1.334681e-01	-5.361317e-02	0.000000e+00	
-1.152484e-01	4.276899e-03	1.224526e+00	5.560909e+01	1.906340e-05	2.544146e+05	1.012608e+05	2.880737e+02	1.334680e-01	-5.358817e-02	0.000000e+00	
-1.301706e-01	3.009071e-02	1.224525e+00	5.560910e+01	-7.877034e-07	2.544145e+05	1.012607e+05	2.880737e+02	1.334681e-01	-5.361542e-02	0.000000e+00	
-1.138818e-01	2.056417e-03	1.224526e+00	5.560910e+01	1.869329e-05	2.544146e+05	1.012608e+05	2.880737e+02	1.334680e-01	-5.358560e-02	0.000000e+00	
-1.338831e-01	3.226165e-02	1.224525e+00	5.560910e+01	-1.403826e-06	2.544145e+05	1.012607e+05	2.880737e+02	1.334681e-01	-5.362235e-02	0.000000e+00	
-1.363867e-01	3.231739e-02	1.224525e+00	5.560910e+01	-1.027146e-06	2.544145e+05	1.012607e+05	2.880737e+02	1.334681e-01	-5.362704e-02	0.000000e+00	
-1.389011e-01	3.238404e-02	1.224525e+00	5.560910e+01	-4.003174e-07	2.544145e+05	1.012607e+05	2.880737e+02	1.334681e-01	-5.363179e-02	0.000000e+00	
-1.426565e-01	3.462410e-02	1.224525e+00	5.560911e+01	1.457788e-06	2.544144e+05	1.012607e+05	2.880737e+02	1.334681e-01	-5.363875e-02	0.000000e+00	
-1.500000e-01	3.573500e-02	1.224525e+00	5.560912e+01	9.453579e-07	2.544144e+05	1.012607e+05	2.880737e+02	1.334682e-01	-5.365345e-02	0.000000e+00	
-1.314064e-01	3.223042e-02	1.224525e+00	5.560910e+01	-1.944439e-06	2.544145e+05	1.012607e+05	2.880737e+02	1.334681e-01	-5.361769e-02	0.000000e+00	
-1.401036e-01	3.452719e-02	1.224525e+00	5.560911e+01	3.872513e-07	2.544145e+05	1.012607e+05	2.880737e+02	1.334681e-01	-5.363402e-02	0.000000e+00	
-1.437839e-01	3.676027e-02	1.224525e+00	5.560912e+01	3.420818e-06	2.544144e+05	1.012607e+05	2.880737e+02	1.334682e-01	-5.364070e-02	0.000000e+00	
-1.462409e-01	3.684619e-02	1.224525e+00	5.560913e+01	3.199974e-06	2.544144e+05	1.012607e+05	2.880737e+02	1.334682e-01	-5.364549e-02	0.000000e+00	
-1.483010e-01	3.694336e-02	1.224525e+00	5.560913e+01	2.255181e-06	2.544144e+05	1.012607e+05	2.880737e+02	1.334682e-01	-5.364908e-02	0.000000e+00	
-1.252724e-01	2.578511e-02	1.224525e+00	5.560909e+01	1.802354e-07	2.544145e+05	1.012607e+05	2.880737e+02	1.334681e-01	-5.360636e-02	0.000000e+00	
-1.240672e-01	2.364346e-02	1.224525e+00	5.560909e+01	-5.981778e-07	2.544145e+05	1.012607e+05	2.880737e+02	1.334680e-01	-5.360415e-02	0.000000e+00	
-1.228599e-01	2.149624e-02	1.224526e+00	5.560909e+01	-2.372419e-06	2.544146e+05	1.012607e+05	2.880737e+02	1.334680e-01	-5.360195e-02	0.000000e+00	
-1.216481e-01	1.934464e-02	1.224526e+00	5.560908e+01	-4.483842e-06	2.544146e+05	1.012608e+05	2.880737e+02	1.334680e-01	-5.359974e-02	0.000000e+00	
-1.204293e-01	1.719139e-02	1.224526e+00	5.560908e+01	-5.921449e-06	2.544146e+05	1.012608e+05	2.880737e+02	1.334680e-01	-5.359753e-02	0.000000e+00	
-1.192011e-01	1.504051e-02	1.224526e+00	5.560909e+01	-5.602216e-06	2.544146e+05	1.012608e+05	2.880737e+02	1.334680e-01	-5.359530e-02	0.000000e+00	
-1.179612e-01	1.289548e-02	1.224526e+00	5.560909e+01	-2.662234e-06	2.544146e+05	1.012608e+05	2.880737e+02	1.334680e-01	-5.359307e-02	0.000000e+00	
-1.167070e-01	1.075584e-02	1.224526e+00	5.560910e+01	2.835548e-06	2.544146e+05	1.012608e+05	2.880737e+02	1.334681e-01	-5.359080e-02	0.000000e+00	
-1.154339e-01	8.614331e-03	1.224526e+00	5.560910e+01	9.962360e-06	2.544146e+05	1.012608e+05	2.880737e+02	1.334681e-01	-5.358852e-02	0.000000e+00	
-1.141342e-01	6.457641e-03	1.224526e+00	5.560910e+01	1.644297e-05	2.544146e+05	1.012608e+05	2.880737e+02	1.334680e-01	-5.358616e-02	0.000000e+00	
-1.264778e-01	2.792103e-02	1.224525e+00	5.560910e+01	-2.552323e-07	2.544145e+05	1.012607e+05	2.880737e+02	1.334681e-01	-5.360858e-02	0.000000e+00	
-1.276847e-01	3.005162e-02	1.224525e+00	5.560910e+01	-1.523051e-06	2.544145e+05	1.012607e+05	2.880737e+02	1.334681e-01	-5.361080e-02	0.000000e+00	
-1.127975e-01	4.272937e-03	1.224526e+00	5.560909e+01	2.048391e-05	2.544146e+05	1.012608e+05	2.880737e+02	1.334680e-01	-5.358380e-02	0.000000e+00	
-1.288934e-01	3.217780e-02	1.224525e+00	5.560910e+01	-2.709593e-06	2.544145e+05	1.012607e+05	2.880737e+02	1.334681e-01	-5.361304e-02	0.000000e+00	
-1.114126e-01	2.057541e-03	1.224526e+00	5.560909e+01	1.950461e-05	2.544146e+05	1.012608e+05	2.880737e+02	1.334680e-01	-5.358121e-02	0.000000e+00	
-1.325967e-01	3.434060e-02	1.224525e+00	5.560910e+01	-1.892058e-06	2.544145e+05	1.012607e+05	2.880737e+02	1.334681e-01	-5.361993e-02	0.000000e+00	
-1.350943e-01	3.439000e-02	1.224525e+00	5.560910e+01	-1.347437e-06	2.544145e+05	1.012607e+05	2.880737e+02	1.334681e-01	-5.362460e-02	0.000000e+00	
-1.375931e-01	3.445095e-02	1.224525e+00	5.560911e+01	-6.407420e-07	2.544145e+05	1.012607e+05	2.880737e+02	1.334681e-01	-5.362930e-02	0.000000e+00	