TITLE = "SU2 Simulation"
VARIABLES = "Iteration","CL","CD","CSF","CMx","CMy","CMz","CFx","CFy","CFz","CL/CD","AoA","Custom_ObjFunc","Res_Flow[0]","Res_Flow[1]","Res_Flow[2]","Res_Flow[3]","Res_Flow[4]","Linear_Solver_Iterations","CFL_Number","Time(min)"
ZONE T= "Convergence history"
           0, 0.00000000e+00, 0.00000000e+00, 0.00000000e+00, 0.00000000e+00, 0.00000000e+00, 0.00000000e+00, 0.00000000e+00, 0.00000000e+00, 0.00000000e+00, 0.00000000e+00, 0.00000000e+00, 0.00000000e+00, -5.00783903e+00, -2.37308277e+00, -1.38413397e+01, 5.32964552e-01, 0.00000000e+00, 5.0000000000, 6.0000000000, 0.0005642833
           1, 0.00000000e+00, 0.00000000e+00, 0.00000000e+00, 0.00000000e+00, 0.00000000e+00, 0.00000000e+00, 0.00000000e+00, 0.00000000e+00, 0.00000000e+00, 0.00000000e+00, 0.00000000e+00, 0.00000000e+00, -5.43652540e+00, -2.78745316e+00, -4.58556310e+00, 1.27021093e-01, 0.00000000e+00, 5.0000000000, 6.0000000000, 0.0012818000
           2, 0.00000000e+00, 0.00000000e+00, 0.00000000e+00, 0.00000000e+00, 0.00000000e+00, 0.00000000e+00, 0.00000000e+00, 0.00000000e+00, 0.00000000e+00, 0.00000000e+00, 0.00000000e+00, 0.00000000e+00, -4.52043265e+00, -2.04728412e+00, -4.51014002e+00, 9.19818202e-01, 0.00000000e+00, 5.0000000000, 6.0000000000, 0.0018928333
           3, 0.00000000e+00, 0.00000000e+00, 0.00000000e+00, 0.00000000e+00, 0.00000000e+00, 0.00000000e+00, 0.00000000e+00, 0.00000000e+00, 0.00000000e+00, 0.00000000e+00, 0.00000000e+00, 0.00000000e+00, -4.34989038e+00, -1.87965687e+00, -3.98553302e+00, 1.09014239e+00, 0.00000000e+00, 5.0000000000, 6.0000000000, 0.0025073000
           4, 0.00000000e+00, 0.00000000e+00, 0.00000000e+00, 0.00000000e+00, 0.00000000e+00, 0.00000000e+00, 0.00000000e+00, 0.00000000e+00, 0.00000000e+00, 0.00000000e+00, 0.00000000e+00, 0.00000000e+00, -4.31879978e+00, -1.84845406e+00, -3.69831721e+00, 1.12165835e+00, 0.00000000e+00, 5.0000000000, 6.0000000000, 0.0031003000
           5, 0.00000000e+00, 0.00000000e+00, 0.00000000e+00, 0.00000000e+00, 0.00000000e+00, 0.00000000e+00, 0.00000000e+00, 0.00000000e+00, 0.00000000e+00, 0.00000000e+00, 0.00000000e+00, 0.00000000e+00, -4.34488044e+00, -1.87319051e+00, -3.55241795e+00, 1.09579721e+00, 0.00000000e+00, 5.0000000000, 6.0000000000, 0.0036866333
           6, 0.00000000e+00, 0.00000000e+00, 0.00000000e+00, 0.00000000e+00, 0.00000000e+00, 0.00000000e+00, 0.00000000e+00, 0.00000000e+00, 0.00000000e+00, 0.00000000e+00, 0.00000000e+00, 0.00000000e+00, -4.39343204e+00, -1.92105012e+00, -3.47700431e+00, 1.04718312e+00, 0.00000000e+00, 5.0000000000, 6.0000000000, 0.0042046167
           7, 0.00000000e+00, 0.00000000e+00, 0.00000000e+00, 0.00000000e+00, 0.00000000e+00, 0.00000000e+00, 0.00000000e+00, 0.00000000e+00, 0.00000000e+00, 0.00000000e+00, 0.00000000e+00, 0.00000000e+00, -4.44022266e+00, -1.96880315e+00, -3.44733112e+00, 1.00033980e+00, 0.00000000e+00, 5.0000000000, 6.0000000000, 0.0047744333
           8, 0.00000000e+00, 0.00000000e+00, 0.00000000e+00, 0.00000000e+00, 0.00000000e+00, 0.00000000e+00, 0.00000000e+00, 0.00000000e+00, 0.00000000e+00, 0.00000000e+00, 0.00000000e+00, 0.00000000e+00, -4.46682471e+00, -1.99702410e+00, -3.44556696e+00, 9.74011006e-01, 0.00000000e+00, 5.0000000000, 6.0000000000, 0.0053607167
           9, 0.00000000e+00, 0.00000000e+00, 0.00000000e+00, 0.00000000e+00, 0.00000000e+00, 0.00000000e+00, 0.00000000e+00, 0.00000000e+00, 0.00000000e+00, 0.00000000e+00, 0.00000000e+00, 0.00000000e+00, -4.46514315e+00, -1.99585573e+00, -3.45420231e+00, 9.76168893e-01, 0.00000000e+00, 5.0000000000, 6.0000000000, 0.0059994167
          10, 0.00000000e+00, 0.00000000e+00, 0.00000000e+00, 0.00000000e+00, 0.00000000e+00, 0.00000000e+00, 0.00000000e+00, 0.00000000e+00, 0.00000000e+00, 0.00000000e+00, 0.00000000e+00, 0.00000000e+00, -4.44007310e+00, -1.97000986e+00, -3.46060283e+00, 1.00152867e+00, 0.00000000e+00, 5.0000000000, 6.0000000000, 0.0066012667
          11, 0.00000000e+00, 0.00000000e+00, 0.00000000e+00, 0.00000000e+00, 0.00000000e+00, 0.00000000e+00, 0.00000000e+00, 0.00000000e+00, 0.00000000e+00, 0.00000000e+00, 0.00000000e+00, 0.00000000e+00, -4.40309978e+00, -1.93196279e+00, -3.46211890e+00, 1.03846335e+00, 0.00000000e+00, 5.0000000000, 6.0000000000, 0.0072386000
          12, 0.00000000e+00, 0.00000000e+00, 0.00000000e+00, 0.00000000e+00, 0.00000000e+00, 0.00000000e+00, 0.00000000e+00, 0.00000000e+00, 0.00000000e+00, 0.00000000e+00, 0.00000000e+00, 0.00000000e+00, -4.36438325e+00, -1.89251911e+00, -3.46150035e+00, 1.07692256e+00, 0.00000000e+00, 5.0000000000, 6.0000000000, 0.0078248667
          13, 0.00000000e+00, 0.00000000e+00, 0.00000000e+00, 0.00000000e+00, 0.00000000e+00, 0.00000000e+00, 0.00000000e+00, 0.00000000e+00, 0.00000000e+00, 0.00000000e+00, 0.00000000e+00, 0.00000000e+00, -4.33012922e+00, -1.85796447e+00, -3.45945668e+00, 1.11084009e+00, 0.00000000e+00, 5.0000000000, 6.0000000000, 0.0084070000
          14, 0.00000000e+00, 0.00000000e+00, 0.00000000e+00, 0.00000000e+00, 0.00000000e+00, 0.00000000e+00, 0.00000000e+00, 0.00000000e+00, 0.00000000e+00, 0.00000000e+00, 0.00000000e+00, 0.00000000e+00, -4.30331468e+00, -1.83113519e+00, -3.45444631e+00, 1.13732259e+00, 0.00000000e+00, 5.0000000000, 6.0000000000, 0.0089982833
          15, 0.00000000e+00, 0.00000000e+00, 0.00000000e+00, 0.00000000e+00, 0.00000000e+00, 0.00000000e+00, 0.00000000e+00, 0.00000000e+00, 0.00000000e+00, 0.00000000e+00, 0.00000000e+00, 0.00000000e+00, -4.28490617e+00, -1.81283949e+00, -3.44664665e+00, 1.15544057e+00, 0.00000000e+00, 5.0000000000, 6.0000000000, 0.0095179833
          16, 0.00000000e+00, 0.00000000e+00, 0.00000000e+00, 0.00000000e+00, 0.00000000e+00, 0.00000000e+00, 0.00000000e+00, 0.00000000e+00, 0.00000000e+00, 0.00000000e+00, 0.00000000e+00, 0.00000000e+00, -4.27469020e+00, -1.80273467e+00, -3.43916848e+00, 1.16542096e+00, 0.00000000e+00, 5.0000000000, 6.0000000000, 0.0100843000
          17, 0.00000000e+00, 0.00000000e+00, 0.00000000e+00, 0.00000000e+00, 0.00000000e+00, 0.00000000e+00, 0.00000000e+00, 0.00000000e+00, 0.00000000e+00, 0.00000000e+00, 0.00000000e+00, 0.00000000e+00, -4.27174085e+00, -1.79978859e+00, -3.43565886e+00, 1.16819337e+00, 0.00000000e+00, 5.0000000000, 6.0000000000, 0.0106123500
          18, 0.00000000e+00, 0.00000000e+00, 0.00000000e+00, 0.00000000e+00, 0.00000000e+00, 0.00000000e+00, 0.00000000e+00, 0.00000000e+00, 0.00000000e+00, 0.00000000e+00, 0.00000000e+00, 0.00000000e+00, -4.27469220e+00, -1.80254938e+00, -3.43804229e+00, 1.16512335e+00, 0.00000000e+00, 5.0000000000, 6.0000000000, 0.0111683000
          19, 0.00000000e+00, 0.00000000e+00, 0.00000000e+00, 0.00000000e+00, 0.00000000e+00, 0.00000000e+00, 0.00000000e+00, 0.00000000e+00, 0.00000000e+00, 0.00000000e+00, 0.00000000e+00, 0.00000000e+00, -4.28193775e+00, -1.80936995e+00, -3.44613450e+00, 1.15781442e+00, 0.00000000e+00, 5.0000000000, 6.0000000000, 0.0116920833
          20, 0.00000000e+00, 0.00000000e+00, 0.00000000e+00, 0.00000000e+00, 0.00000000e+00, 0.00000000e+00, 0.00000000e+00, 0.00000000e+00, 0.00000000e+00, 0.00000000e+00, 0.00000000e+00, 0.00000000e+00, -4.29181936e+00, -1.81865236e+00, -3.45834939e+00, 1.14792001e+00, 0.00000000e+00, 5.0000000000, 6.0000000000, 0.0122762000
          21, 0.00000000e+00, 0.00000000e+00, 0.00000000e+00, 0.00000000e+00, 0.00000000e+00, 0.00000000e+00, 0.00000000e+00, 0.00000000e+00, 0.00000000e+00, 0.00000000e+00, 0.00000000e+00, 0.00000000e+00, -4.30281673e+00, -1.82909929e+00, -3.47258193e+00, 1.13695587e+00, 0.00000000e+00, 5.0000000000, 6.0000000000, 0.0128536833
          22, 0.00000000e+00, 0.00000000e+00, 0.00000000e+00, 0.00000000e+00, 0.00000000e+00, 0.00000000e+00, 0.00000000e+00, 0.00000000e+00, 0.00000000e+00, 0.00000000e+00, 0.00000000e+00, 0.00000000e+00, -4.31371144e+00, -1.83989402e+00, -3.48690590e+00, 1.12613861e+00, 0.00000000e+00, 5.0000000000, 6.0000000000, 0.0134352667
          23, 0.00000000e+00, 0.00000000e+00, 0.00000000e+00, 0.00000000e+00, 0.00000000e+00, 0.00000000e+00, 0.00000000e+00, 0.00000000e+00, 0.00000000e+00, 0.00000000e+00, 0.00000000e+00, 0.00000000e+00, -4.32369153e+00, -1.85072398e+00, -3.49998160e+00, 1.11628193e+00, 0.00000000e+00, 5.0000000000, 6.0000000000, 0.0139478000
          24, 0.00000000e+00, 0.00000000e+00, 0.00000000e+00, 0.00000000e+00, 0.00000000e+00, 0.00000000e+00, 0.00000000e+00, 0.00000000e+00, 0.00000000e+00, 0.00000000e+00, 0.00000000e+00, 0.00000000e+00, -4.33238128e+00, -1.86162899e+00, -3.51114147e+00, 1.10776328e+00, 0.00000000e+00, 5.0000000000, 6.0000000000, 0.0145122500
          25, 0.00000000e+00, 0.00000000e+00, 0.00000000e+00, 0.00000000e+00, 0.00000000e+00, 0.00000000e+00, 0.00000000e+00, 0.00000000e+00, 0.00000000e+00, 0.00000000e+00, 0.00000000e+00, 0.00000000e+00, -4.33980312e+00, -1.87274291e+00, -3.52019804e+00, 1.10055487e+00, 0.00000000e+00, 5.0000000000, 6.0000000000, 0.0150127833
          26, 0.00000000e+00, 0.00000000e+00, 0.00000000e+00, 0.00000000e+00, 0.00000000e+00, 0.00000000e+00, 0.00000000e+00, 0.00000000e+00, 0.00000000e+00, 0.00000000e+00, 0.00000000e+00, 0.00000000e+00, -4.34629111e+00, -1.88404566e+00, -3.52714449e+00, 1.09430338e+00, 0.00000000e+00, 5.0000000000, 6.0000000000, 0.0155352000
          27, 0.00000000e+00, 0.00000000e+00, 0.00000000e+00, 0.00000000e+00, 0.00000000e+00, 0.00000000e+00, 0.00000000e+00, 0.00000000e+00, 0.00000000e+00, 0.00000000e+00, 0.00000000e+00, 0.00000000e+00, -4.35237558e+00, -1.89522695e+00, -3.53198832e+00, 1.08844422e+00, 0.00000000e+00, 5.0000000000, 6.0000000000, 0.0160317000
          28, 0.00000000e+00, 0.00000000e+00, 0.00000000e+00, 0.00000000e+00, 0.00000000e+00, 0.00000000e+00, 0.00000000e+00, 0.00000000e+00, 0.00000000e+00, 0.00000000e+00, 0.00000000e+00, 0.00000000e+00, -4.35865145e+00, -1.90571105e+00, -3.53481472e+00, 1.08233915e+00, 0.00000000e+00, 5.0000000000, 6.0000000000, 0.0165569167
          29, 0.00000000e+00, 0.00000000e+00, 0.00000000e+00, 0.00000000e+00, 0.00000000e+00, 0.00000000e+00, 0.00000000e+00, 0.00000000e+00, 0.00000000e+00, 0.00000000e+00, 0.00000000e+00, 0.00000000e+00, -4.36564479e+00, -1.91483233e+00, -3.53597441e+00, 1.07542040e+00, 0.00000000e+00, 5.0000000000, 6.0000000000, 0.0170688667
          30, 0.00000000e+00, 0.00000000e+00, 0.00000000e+00, 0.00000000e+00, 0.00000000e+00, 0.00000000e+00, 0.00000000e+00, 0.00000000e+00, 0.00000000e+00, 0.00000000e+00, 0.00000000e+00, 0.00000000e+00, -4.37369846e+00, -1.92209162e+00, -3.53620855e+00, 1.06731591e+00, 0.00000000e+00, 5.0000000000, 6.0000000000, 0.0176280667
          31, 0.00000000e+00, 0.00000000e+00, 0.00000000e+00, 0.00000000e+00, 0.00000000e+00, 0.00000000e+00, 0.00000000e+00, 0.00000000e+00, 0.00000000e+00, 0.00000000e+00, 0.00000000e+00, 0.00000000e+00, -4.38289839e+00, -1.92737519e+00, -3.53656846e+00, 1.05793106e+00, 0.00000000e+00, 5.0000000000, 6.0000000000, 0.0181391000
          32, 0.00000000e+00, 0.00000000e+00, 0.00000000e+00, 0.00000000e+00, 0.00000000e+00, 0.00000000e+00, 0.00000000e+00, 0.00000000e+00, 0.00000000e+00, 0.00000000e+00, 0.00000000e+00, 0.00000000e+00, -4.39305564e+00, -1.93102426e+00, -3.53815779e+00, 1.04747042e+00, 0.00000000e+00, 5.0000000000, 6.0000000000, 0.0186723333
          33, 0.00000000e+00, 0.00000000e+00, 0.00000000e+00, 0.00000000e+00, 0.00000000e+00, 0.00000000e+00, 0.00000000e+00, 0.00000000e+00, 0.00000000e+00, 0.00000000e+00, 0.00000000e+00, 0.00000000e+00, -4.40374904e+00, -1.93372467e+00, -3.54185376e+00, 1.03639397e+00, 0.00000000e+00, 5.0000000000, 6.0000000000, 0.0191580833
          34, 0.00000000e+00, 0.00000000e+00, 0.00000000e+00, 0.00000000e+00, 0.00000000e+00, 0.00000000e+00, 0.00000000e+00, 0.00000000e+00, 0.00000000e+00, 0.00000000e+00, 0.00000000e+00, 0.00000000e+00, -4.41442154e+00, -1.93628711e+00, -3.54814376e+00, 1.02531407e+00, 0.00000000e+00, 5.0000000000, 6.0000000000, 0.0196897167
          35, 0.00000000e+00, 0.00000000e+00, 0.00000000e+00, 0.00000000e+00, 0.00000000e+00, 0.00000000e+00, 0.00000000e+00, 0.00000000e+00, 0.00000000e+00, 0.00000000e+00, 0.00000000e+00, 0.00000000e+00, -4.42450954e+00, -1.93942830e+00, -3.55710263e+00, 1.01485390e+00, 0.00000000e+00, 5.0000000000, 6.0000000000, 0.0202057167
          36, 0.00000000e+00, 0.00000000e+00, 0.00000000e+00, 0.00000000e+00, 0.00000000e+00, 0.00000000e+00, 0.00000000e+00, 0.00000000e+00, 0.00000000e+00, 0.00000000e+00, 0.00000000e+00, 0.00000000e+00, -4.43357085e+00, -1.94362876e+00, -3.56846299e+00, 1.00550454e+00, 0.00000000e+00, 5.0000000000, 6.0000000000, 0.0207446833
          37, 0.00000000e+00, 0.00000000e+00, 0.00000000e+00, 0.00000000e+00, 0.00000000e+00, 0.00000000e+00, 0.00000000e+00, 0.00000000e+00, 0.00000000e+00, 0.00000000e+00, 0.00000000e+00, 0.00000000e+00, -4.44137256e+00, -1.94908371e+00, -3.58172272e+00, 9.97524655e-01, 0.00000000e+00, 5.0000000000, 6.0000000000, 0.0212711500
          38, 0.00000000e+00, 0.00000000e+00, 0.00000000e+00, 0.00000000e+00, 0.00000000e+00, 0.00000000e+00, 0.00000000e+00, 0.00000000e+00, 0.00000000e+00, 0.00000000e+00, 0.00000000e+00, 0.00000000e+00, -4.44791323e+00, -1.95572640e+00, -3.59626368e+00, 9.90913663e-01, 0.00000000e+00, 5.0000000000, 6.0000000000, 0.0218608833
          39, 0.00000000e+00, 0.00000000e+00, 0.00000000e+00, 0.00000000e+00, 0.00000000e+00, 0.00000000e+00, 0.00000000e+00, 0.00000000e+00, 0.00000000e+00, 0.00000000e+00, 0.00000000e+00, 0.00000000e+00, -4.45338139e+00, -1.96329296e+00, -3.61146541e+00, 9.85458151e-01, 0.00000000e+00, 5.0000000000, 6.0000000000, 0.0223926333
          40, 0.00000000e+00, 0.00000000e+00, 0.00000000e+00, 0.00000000e+00, 0.00000000e+00, 0.00000000e+00, 0.00000000e+00, 0.00000000e+00, 0.00000000e+00, 0.00000000e+00, 0.00000000e+00, 0.00000000e+00, -4.45807727e+00, -1.97140287e+00, -3.62678490e+00, 9.80821207e-01, 0.00000000e+00, 5.0000000000, 6.0000000000, 0.0229496500
          41, 0.00000000e+00, 0.00000000e+00, 0.00000000e+00, 0.00000000e+00, 0.00000000e+00, 0.00000000e+00, 0.00000000e+00, 0.00000000e+00, 0.00000000e+00, 0.00000000e+00, 0.00000000e+00, 0.00000000e+00, -4.46233233e+00, -1.97963638e+00, -3.64177975e+00, 9.76634619e-01, 0.00000000e+00, 5.0000000000, 6.0000000000, 0.0234886833
          42, 0.00000000e+00, 0.00000000e+00, 0.00000000e+00, 0.00000000e+00, 0.00000000e+00, 0.00000000e+00, 0.00000000e+00, 0.00000000e+00, 0.00000000e+00, 0.00000000e+00, 0.00000000e+00, 0.00000000e+00, -4.46645079e+00, -1.98759689e+00, -3.65608827e+00, 9.72565935e-01, 0.00000000e+00, 5.0000000000, 6.0000000000, 0.0240515667
          43, 0.00000000e+00, 0.00000000e+00, 0.00000000e+00, 0.00000000e+00, 0.00000000e+00, 0.00000000e+00, 0.00000000e+00, 0.00000000e+00, 0.00000000e+00, 0.00000000e+00, 0.00000000e+00, 0.00000000e+00, -4.47067952e+00, -1.99495281e+00, -3.66940007e+00, 9.68352741e-01, 0.00000000e+00, 5.0000000000, 6.0000000000, 0.0245620000
          44, 0.00000000e+00, 0.00000000e+00, 0.00000000e+00, 0.00000000e+00, 0.00000000e+00, 0.00000000e+00, 0.00000000e+00, 0.00000000e+00, 0.00000000e+00, 0.00000000e+00, 0.00000000e+00, 0.00000000e+00, -4.47519973e+00, -2.00146028e+00, -3.68144258e+00, 9.63811971e-01, 0.00000000e+00, 5.0000000000, 6.0000000000, 0.0251485167
          45, 0.00000000e+00, 0.00000000e+00, 0.00000000e+00, 0.00000000e+00, 0.00000000e+00, 0.00000000e+00, 0.00000000e+00, 0.00000000e+00, 0.00000000e+00, 0.00000000e+00, 0.00000000e+00, 0.00000000e+00, -4.48012805e+00, -2.00697398e+00, -3.69198896e+00, 9.58838163e-01, 0.00000000e+00, 5.0000000000, 6.0000000000, 0.0257077333
          46, 0.00000000e+00, 0.00000000e+00, 0.00000000e+00, 0.00000000e+00, 0.00000000e+00, 0.00000000e+00, 0.00000000e+00, 0.00000000e+00, 0.00000000e+00, 0.00000000e+00, 0.00000000e+00, 0.00000000e+00, -4.48551578e+00, -2.01145587e+00, -3.70088028e+00, 9.53403404e-01, 0.00000000e+00, 5.0000000000, 6.0000000000, 0.0263065500
          47, 0.00000000e+00, 0.00000000e+00, 0.00000000e+00, 0.00000000e+00, 0.00000000e+00, 0.00000000e+00, 0.00000000e+00, 0.00000000e+00, 0.00000000e+00, 0.00000000e+00, 0.00000000e+00, 0.00000000e+00, -4.49133913e+00, -2.01498954e+00, -3.70806229e+00, 9.47566787e-01, 0.00000000e+00, 5.0000000000, 6.0000000000, 0.0269261500
          48, 0.00000000e+00, 0.00000000e+00, 0.00000000e+00, 0.00000000e+00, 0.00000000e+00, 0.00000000e+00, 0.00000000e+00, 0.00000000e+00, 0.00000000e+00, 0.00000000e+00, 0.00000000e+00, 0.00000000e+00, -4.49747861e+00, -2.01780141e+00, -3.71364183e+00, 9.41494982e-01, 0.00000000e+00, 5.0000000000, 6.0000000000, 0.0275723333
          49, 0.00000000e+00, 0.00000000e+00, 0.00000000e+00, 0.00000000e+00, 0.00000000e+00, 0.00000000e+00, 0.00000000e+00, 0.00000000e+00, 0.00000000e+00, 0.00000000e+00, 0.00000000e+00, 0.00000000e+00, -4.50369210e+00, -2.02028297e+00, -3.71794133e+00, 9.35488437e-01, 0.00000000e+00, 5.0000000000, 6.0000000000, 0.0282104000
          50, 0.00000000e+00, 0.00000000e+00, 0.00000000e+00, 0.00000000e+00, 0.00000000e+00, 0.00000000e+00, 0.00000000e+00, 0.00000000e+00, 0.00000000e+00, 0.00000000e+00, 0.00000000e+00, 0.00000000e+00, -4.50959270e+00, -2.02300382e+00, -3.72150404e+00, 9.29999805e-01, 0.00000000e+00, 5.0000000000, 6.0000000000, 0.0288848667
          51, 0.00000000e+00, 0.00000000e+00, 0.00000000e+00, 0.00000000e+00, 0.00000000e+00, 0.00000000e+00, 0.00000000e+00, 0.00000000e+00, 0.00000000e+00, 0.00000000e+00, 0.00000000e+00, 0.00000000e+00, -4.51464969e+00, -2.02670652e+00, -3.72505048e+00, 9.25623768e-01, 0.00000000e+00, 5.0000000000, 6.0000000000, 0.0294724333
          52, 0.00000000e+00, 0.00000000e+00, 0.00000000e+00, 0.00000000e+00, 0.00000000e+00, 0.00000000e+00, 0.00000000e+00, 0.00000000e+00, 0.00000000e+00, 0.00000000e+00, 0.00000000e+00, 0.00000000e+00, -4.51823410e+00, -2.03227947e+00, -3.72943270e+00, 9.23034897e-01, 0.00000000e+00, 5.0000000000, 6.0000000000, 0.0300571833
          53, 0.00000000e+00, 0.00000000e+00, 0.00000000e+00, 0.00000000e+00, 0.00000000e+00, 0.00000000e+00, 0.00000000e+00, 0.00000000e+00, 0.00000000e+00, 0.00000000e+00, 0.00000000e+00, 0.00000000e+00, -4.51972470e+00, -2.04070954e+00, -3.73560189e+00, 9.22860150e-01, 0.00000000e+00, 5.0000000000, 6.0000000000, 0.0306500333
          54, 0.00000000e+00, 0.00000000e+00, 0.00000000e+00, 0.00000000e+00, 0.00000000e+00, 0.00000000e+00, 0.00000000e+00, 0.00000000e+00, 0.00000000e+00, 0.00000000e+00, 0.00000000e+00, 0.00000000e+00, -4.51866770e+00, -2.05301621e+00, -3.74456572e+00, 9.25501748e-01, 0.00000000e+00, 5.0000000000, 6.0000000000, 0.0311720167
          55, 0.00000000e+00, 0.00000000e+00, 0.00000000e+00, 0.00000000e+00, 0.00000000e+00, 0.00000000e+00, 0.00000000e+00, 0.00000000e+00, 0.00000000e+00, 0.00000000e+00, 0.00000000e+00, 0.00000000e+00, -4.51494738e+00, -2.07015908e+00, -3.75731028e+00, 9.30965592e-01, 0.00000000e+00, 5.0000000000, 6.0000000000, 0.0317345833
          56, 0.00000000e+00, 0.00000000e+00, 0.00000000e+00, 0.00000000e+00, 0.00000000e+00, 0.00000000e+00, 0.00000000e+00, 0.00000000e+00, 0.00000000e+00, 0.00000000e+00, 0.00000000e+00, 0.00000000e+00, -4.50889931e+00, -2.09288718e+00, -3.77466873e+00, 9.38770183e-01, 0.00000000e+00, 5.0000000000, 6.0000000000, 0.0322550500
          57, 0.00000000e+00, 0.00000000e+00, 0.00000000e+00, 0.00000000e+00, 0.00000000e+00, 0.00000000e+00, 0.00000000e+00, 0.00000000e+00, 0.00000000e+00, 0.00000000e+00, 0.00000000e+00, 0.00000000e+00, -4.50131126e+00, -2.12145378e+00, -3.79710504e+00, 9.47982611e-01, 0.00000000e+00, 5.0000000000, 6.0000000000, 0.0328313667
          58, 0.00000000e+00, 0.00000000e+00, 0.00000000e+00, 0.00000000e+00, 0.00000000e+00, 0.00000000e+00, 0.00000000e+00, 0.00000000e+00, 0.00000000e+00, 0.00000000e+00, 0.00000000e+00, 0.00000000e+00, -4.49331060e+00, -2.15505052e+00, -3.82434797e+00, 9.57364165e-01, 0.00000000e+00, 5.0000000000, 6.0000000000, 0.0333562000
          59, 0.00000000e+00, 0.00000000e+00, 0.00000000e+00, 0.00000000e+00, 0.00000000e+00, 0.00000000e+00, 0.00000000e+00, 0.00000000e+00, 0.00000000e+00, 0.00000000e+00, 0.00000000e+00, 0.00000000e+00, -4.48619087e+00, -2.19077197e+00, -3.85479446e+00, 9.65558286e-01, 0.00000000e+00, 5.0000000000, 6.0000000000, 0.0339127667
          60, 0.00000000e+00, 0.00000000e+00, 0.00000000e+00, 0.00000000e+00, 0.00000000e+00, 0.00000000e+00, 0.00000000e+00, 0.00000000e+00, 0.00000000e+00, 0.00000000e+00, 0.00000000e+00, 0.00000000e+00, -4.48124548e+00, -2.22222689e+00, -3.88472579e+00, 9.71252482e-01, 0.00000000e+00, 5.0000000000, 6.0000000000, 0.0345050667
          61, 0.00000000e+00, 0.00000000e+00, 0.00000000e+00, 0.00000000e+00, 0.00000000e+00, 0.00000000e+00, 0.00000000e+00, 0.00000000e+00, 0.00000000e+00, 0.00000000e+00, 0.00000000e+00, 0.00000000e+00, -4.47965060e+00, -2.23934508e+00, -3.90791185e+00, 9.73280609e-01, 0.00000000e+00, 5.0000000000, 6.0000000000, 0.0351738667
          62, 0.00000000e+00, 0.00000000e+00, 0.00000000e+00, 0.00000000e+00, 0.00000000e+00, 0.00000000e+00, 0.00000000e+00, 0.00000000e+00, 0.00000000e+00, 0.00000000e+00, 0.00000000e+00, 0.00000000e+00, -4.48240368e+00, -2.23272054e+00, -3.91707295e+00, 9.70668621e-01, 0.00000000e+00, 5.0000000000, 6.0000000000, 0.0358493500
          63, 0.00000000e+00, 0.00000000e+00, 0.00000000e+00, 0.00000000e+00, 0.00000000e+00, 0.00000000e+00, 0.00000000e+00, 0.00000000e+00, 0.00000000e+00, 0.00000000e+00, 0.00000000e+00, 0.00000000e+00, -4.49029960e+00, -2.20134808e+00, -3.90800351e+00, 9.62646954e-01, 0.00000000e+00, 5.0000000000, 6.0000000000, 0.0365255500
          64, 0.00000000e+00, 0.00000000e+00, 0.00000000e+00, 0.00000000e+00, 0.00000000e+00, 0.00000000e+00, 0.00000000e+00, 0.00000000e+00, 0.00000000e+00, 0.00000000e+00, 0.00000000e+00, 0.00000000e+00, -4.50391713e+00, -2.15372394e+00, -3.88300122e+00, 9.48658115e-01, 0.00000000e+00, 5.0000000000, 6.0000000000, 0.0372639333
          65, 0.00000000e+00, 0.00000000e+00, 0.00000000e+00, 0.00000000e+00, 0.00000000e+00, 0.00000000e+00, 0.00000000e+00, 0.00000000e+00, 0.00000000e+00, 0.00000000e+00, 0.00000000e+00, 0.00000000e+00, -4.52358677e+00, -2.10057432e+00, -3.84917795e+00, 9.28388583e-01, 0.00000000e+00, 5.0000000000, 6.0000000000, 0.0378678333
          66, 0.00000000e+00, 0.00000000e+00, 0.00000000e+00, 0.00000000e+00, 0.00000000e+00, 0.00000000e+00, 0.00000000e+00, 0.00000000e+00, 0.00000000e+00, 0.00000000e+00, 0.00000000e+00, 0.00000000e+00, -4.54930774e+00, -2.04939283e+00, -3.81396428e+00, 9.01858263e-01, 0.00000000e+00, 5.0000000000, 6.0000000000, 0.0384500667
          67, 0.00000000e+00, 0.00000000e+00, 0.00000000e+00, 0.00000000e+00, 0.00000000e+00, 0.00000000e+00, 0.00000000e+00, 0.00000000e+00, 0.00000000e+00, 0.00000000e+00, 0.00000000e+00, 0.00000000e+00, -4.58057468e+00, -2.00399226e+00, -3.78258314e+00, 8.69610636e-01, 0.00000000e+00, 5.0000000000, 6.0000000000, 0.0390413000
          68, 0.00000000e+00, 0.00000000e+00, 0.00000000e+00, 0.00000000e+00, 0.00000000e+00, 0.00000000e+00, 0.00000000e+00, 0.00000000e+00, 0.00000000e+00, 0.00000000e+00, 0.00000000e+00, 0.00000000e+00, -4.61607330e+00, -1.96585398e+00, -3.75797061e+00, 8.33050651e-01, 0.00000000e+00, 5.0000000000, 6.0000000000, 0.0395500500
          69, 0.00000000e+00, 0.00000000e+00, 0.00000000e+00, 0.00000000e+00, 0.00000000e+00, 0.00000000e+00, 0.00000000e+00, 0.00000000e+00, 0.00000000e+00, 0.00000000e+00, 0.00000000e+00, 0.00000000e+00, -4.65325078e+00, -1.93526654e+00, -3.74152574e+00, 7.94926760e-01, 0.00000000e+00, 5.0000000000, 6.0000000000, 0.0401071000
          70, 0.00000000e+00, 0.00000000e+00, 0.00000000e+00, 0.00000000e+00, 0.00000000e+00, 0.00000000e+00, 0.00000000e+00, 0.00000000e+00, 0.00000000e+00, 0.00000000e+00, 0.00000000e+00, 0.00000000e+00, -4.68795881e+00, -1.91196033e+00, -3.73375664e+00, 7.59729572e-01, 0.00000000e+00, 5.0000000000, 6.0000000000, 0.0405943667
          71, 0.00000000e+00, 0.00000000e+00, 0.00000000e+00, 0.00000000e+00, 0.00000000e+00, 0.00000000e+00, 0.00000000e+00, 0.00000000e+00, 0.00000000e+00, 0.00000000e+00, 0.00000000e+00, 0.00000000e+00, -4.71476732e+00, -1.89540939e+00, -3.73463989e+00, 7.33306213e-01, 0.00000000e+00, 5.0000000000, 6.0000000000, 0.0411274667
          72, 0.00000000e+00, 0.00000000e+00, 0.00000000e+00, 0.00000000e+00, 0.00000000e+00, 0.00000000e+00, 0.00000000e+00, 0.00000000e+00, 0.00000000e+00, 0.00000000e+00, 0.00000000e+00, 0.00000000e+00, -4.72870470e+00, -1.88496016e+00, -3.74376629e+00, 7.20833752e-01, 0.00000000e+00, 5.0000000000, 6.0000000000, 0.0416238667
          73, 0.00000000e+00, 0.00000000e+00, 0.00000000e+00, 0.00000000e+00, 0.00000000e+00, 0.00000000e+00, 0.00000000e+00, 0.00000000e+00, 0.00000000e+00, 0.00000000e+00, 0.00000000e+00, 0.00000000e+00, -4.72793878e+00, -1.87987809e+00, -3.76036606e+00, 7.23849820e-01, 0.00000000e+00, 5.0000000000, 6.0000000000, 0.0421548500
          74, 0.00000000e+00, 0.00000000e+00, 0.00000000e+00, 0.00000000e+00, 0.00000000e+00, 0.00000000e+00, 0.00000000e+00, 0.00000000e+00, 0.00000000e+00, 0.00000000e+00, 0.00000000e+00, 0.00000000e+00, -4.71494145e+00, -1.87935968e+00, -3.78322700e+00, 7.39246268e-01, 0.00000000e+00, 5.0000000000, 6.0000000000, 0.0426438000
          75, 0.00000000e+00, 0.00000000e+00, 0.00000000e+00, 0.00000000e+00, 0.00000000e+00, 0.00000000e+00, 0.00000000e+00, 0.00000000e+00, 0.00000000e+00, 0.00000000e+00, 0.00000000e+00, 0.00000000e+00, -4.69476401e+00, -1.88253610e+00, -3.81046472e+00, 7.61459298e-01, 0.00000000e+00, 5.0000000000, 6.0000000000, 0.0431779833
          76, 0.00000000e+00, 0.00000000e+00, 0.00000000e+00, 0.00000000e+00, 0.00000000e+00, 0.00000000e+00, 0.00000000e+00, 0.00000000e+00, 0.00000000e+00, 0.00000000e+00, 0.00000000e+00, 0.00000000e+00, -4.67238738e+00, -1.88848557e+00, -3.83921353e+00, 7.85327311e-01, 0.00000000e+00, 5.0000000000, 6.0000000000, 0.0436874000
          77, 0.00000000e+00, 0.00000000e+00, 0.00000000e+00, 0.00000000e+00, 0.00000000e+00, 0.00000000e+00, 0.00000000e+00, 0.00000000e+00, 0.00000000e+00, 0.00000000e+00, 0.00000000e+00, 0.00000000e+00, -4.65130536e+00, -1.89626743e+00, -3.86552244e+00, 8.07402321e-01, 0.00000000e+00, 5.0000000000, 6.0000000000, 0.0442229167
          78, 0.00000000e+00, 0.00000000e+00, 0.00000000e+00, 0.00000000e+00, 0.00000000e+00, 0.00000000e+00, 0.00000000e+00, 0.00000000e+00, 0.00000000e+00, 0.00000000e+00, 0.00000000e+00, 0.00000000e+00, -4.63340883e+00, -1.90498572e+00, -3.88490087e+00, 8.25914292e-01, 0.00000000e+00, 5.0000000000, 6.0000000000, 0.0447277500
          79, 0.00000000e+00, 0.00000000e+00, 0.00000000e+00, 0.00000000e+00, 0.00000000e+00, 0.00000000e+00, 0.00000000e+00, 0.00000000e+00, 0.00000000e+00, 0.00000000e+00, 0.00000000e+00, 0.00000000e+00, -4.61937275e+00, -1.91387995e+00, -3.89376817e+00, 8.40305760e-01, 0.00000000e+00, 5.0000000000, 6.0000000000, 0.0452934167
          80, 0.00000000e+00, 0.00000000e+00, 0.00000000e+00, 0.00000000e+00, 0.00000000e+00, 0.00000000e+00, 0.00000000e+00, 0.00000000e+00, 0.00000000e+00, 0.00000000e+00, 0.00000000e+00, 0.00000000e+00, -4.60904686e+00, -1.92242600e+00, -3.89112822e+00, 8.50819423e-01, 0.00000000e+00, 5.0000000000, 6.0000000000, 0.0458634500
          81, 0.00000000e+00, 0.00000000e+00, 0.00000000e+00, 0.00000000e+00, 0.00000000e+00, 0.00000000e+00, 0.00000000e+00, 0.00000000e+00, 0.00000000e+00, 0.00000000e+00, 0.00000000e+00, 0.00000000e+00, -4.60172245e+00, -1.93041805e+00, -3.87900287e+00, 8.58233003e-01, 0.00000000e+00, 5.0000000000, 6.0000000000, 0.0463641833
          82, 0.00000000e+00, 0.00000000e+00, 0.00000000e+00, 0.00000000e+00, 0.00000000e+00, 0.00000000e+00, 0.00000000e+00, 0.00000000e+00, 0.00000000e+00, 0.00000000e+00, 0.00000000e+00, 0.00000000e+00, -4.59630538e+00, -1.93800217e+00, -3.86117924e+00, 8.63692906e-01, 0.00000000e+00, 5.0000000000, 6.0000000000, 0.0468982167
          83, 0.00000000e+00, 0.00000000e+00, 0.00000000e+00, 0.00000000e+00, 0.00000000e+00, 0.00000000e+00, 0.00000000e+00, 0.00000000e+00, 0.00000000e+00, 0.00000000e+00, 0.00000000e+00, 0.00000000e+00, -4.59146252e+00, -1.94564970e+00, -3.84151541e+00, 8.68572831e-01, 0.00000000e+00, 5.0000000000, 6.0000000000, 0.0473984167
          84, 0.00000000e+00, 0.00000000e+00, 0.00000000e+00, 0.00000000e+00, 0.00000000e+00, 0.00000000e+00, 0.00000000e+00, 0.00000000e+00, 0.00000000e+00, 0.00000000e+00, 0.00000000e+00, 0.00000000e+00, -4.58579946e+00, -1.95408314e+00, -3.82298413e+00, 8.74297560e-01, 0.00000000e+00, 5.0000000000, 6.0000000000, 0.0479167500
          85, 0.00000000e+00, 0.00000000e+00, 0.00000000e+00, 0.00000000e+00, 0.00000000e+00, 0.00000000e+00, 0.00000000e+00, 0.00000000e+00, 0.00000000e+00, 0.00000000e+00, 0.00000000e+00, 0.00000000e+00, -4.57809092e+00, -1.96418472e+00, -3.80752785e+00, 8.82110984e-01, 0.00000000e+00, 5.0000000000, 6.0000000000, 0.0483838833
          86, 0.00000000e+00, 0.00000000e+00, 0.00000000e+00, 0.00000000e+00, 0.00000000e+00, 0.00000000e+00, 0.00000000e+00, 0.00000000e+00, 0.00000000e+00, 0.00000000e+00, 0.00000000e+00, 0.00000000e+00, -4.56752710e+00, -1.97691851e+00, -3.79628709e+00, 8.92827567e-01, 0.00000000e+00, 5.0000000000, 6.0000000000, 0.0488805833
          87, 0.00000000e+00, 0.00000000e+00, 0.00000000e+00, 0.00000000e+00, 0.00000000e+00, 0.00000000e+00, 0.00000000e+00, 0.00000000e+00, 0.00000000e+00, 0.00000000e+00, 0.00000000e+00, 0.00000000e+00, -4.55388753e+00, -1.99328539e+00, -3.78987476e+00, 9.06658901e-01, 0.00000000e+00, 5.0000000000, 6.0000000000, 0.0493545500
          88, 0.00000000e+00, 0.00000000e+00, 0.00000000e+00, 0.00000000e+00, 0.00000000e+00, 0.00000000e+00, 0.00000000e+00, 0.00000000e+00, 0.00000000e+00, 0.00000000e+00, 0.00000000e+00, 0.00000000e+00, -4.53755916e+00, -2.01431649e+00, -3.78857527e+00, 9.23200077e-01, 0.00000000e+00, 5.0000000000, 6.0000000000, 0.0498834500
          89, 0.00000000e+00, 0.00000000e+00, 0.00000000e+00, 0.00000000e+00, 0.00000000e+00, 0.00000000e+00, 0.00000000e+00, 0.00000000e+00, 0.00000000e+00, 0.00000000e+00, 0.00000000e+00, 0.00000000e+00, -4.51939235e+00, -2.04110533e+00, -3.79245405e+00, 9.41580656e-01, 0.00000000e+00, 5.0000000000, 6.0000000000, 0.0503711500