TITLE = "Visualization of the volumetric solution"
VARIABLES = "x","y","Density","Momentum_x","Momentum_y","Energy","Pressure","Temperature","Mach","C<sub>p</sub>","Roe_Dissipation"
ZONE NODES= 1720, ELEMENTS= 3288, DATAPACKING=POINT, ZONETYPE=FEQUADRILATERAL
1.040621e+00	-1.209117e+00	1.276352e+00	5.261181e+01	-1.144587e+02	2.747517e+05	1.074141e+05	2.931710e+02	2.875358e-01	8.584935e+00	0.000000e+00	
1.000000e+00	-1.190476e+00	1.276370e+00	5.261281e+01	-1.144691e+02	2.747488e+05	1.074126e+05	2.931629e+02	2.875585e-01	8.582815e+00	0.000000e+00	
1.049910e+00	-1.157894e+00	1.276308e+00	5.262563e+01	-1.144631e+02	2.747505e+05	1.074131e+05	2.931785e+02	2.875644e-01	8.583610e+00	0.000000e+00	
1.093743e+00	-1.191849e+00	1.276272e+00	5.262188e+01	-1.144549e+02	2.747531e+05	1.074145e+05	2.931904e+02	2.875462e-01	8.585469e+00	0.000000e+00	
1.000000e+00	-1.130952e+00	1.276337e+00	5.262978e+01	-1.144725e+02	2.747469e+05	1.074113e+05	2.931669e+02	2.875871e-01	8.581070e+00	0.000000e+00	
1.095476e+00	-1.132804e+00	1.276219e+00	5.263936e+01	-1.144650e+02	2.747529e+05	1.074137e+05	2.932004e+02	2.875908e-01	8.584335e+00	0.000000e+00	
1.048314e+00	-1.101041e+00	1.276262e+00	5.264251e+01	-1.144693e+02	2.747495e+05	1.074122e+05	2.931865e+02	2.875998e-01	8.582231e+00	0.000000e+00	
1.144982e+00	-1.160302e+00	1.276169e+00	5.264030e+01	-1.144636e+02	2.747565e+05	1.074150e+05	2.932157e+02	2.875927e-01	8.586226e+00	0.000000e+00	
1.000000e+00	-1.071429e+00	1.276302e+00	5.264874e+01	-1.144755e+02	2.747459e+05	1.074105e+05	2.931727e+02	2.876165e-01	8.579844e+00	0.000000e+00	
1.148009e+00	-1.206784e+00	1.276208e+00	5.262817e+01	-1.144542e+02	2.747578e+05	1.074161e+05	2.932097e+02	2.875557e-01	8.587833e+00	0.000000e+00	
1.095648e+00	-1.071244e+00	1.276167e+00	5.265656e+01	-1.144737e+02	2.747528e+05	1.074129e+05	2.932103e+02	2.876320e-01	8.583266e+00	0.000000e+00	
1.145729e+00	-1.102380e+00	1.276122e+00	5.265587e+01	-1.144752e+02	2.747565e+05	1.074142e+05	2.932244e+02	2.876379e-01	8.585166e+00	0.000000e+00	
1.049733e+00	-1.041321e+00	1.276214e+00	5.266078e+01	-1.144748e+02	2.747493e+05	1.074115e+05	2.931956e+02	2.876350e-01	8.581277e+00	0.000000e+00	
1.192761e+00	-1.192577e+00	1.276125e+00	5.264341e+01	-1.144641e+02	2.747594e+05	1.074160e+05	2.932285e+02	2.876002e-01	8.587686e+00	0.000000e+00	
1.195107e+00	-1.133762e+00	1.276083e+00	5.265792e+01	-1.144792e+02	2.747602e+05	1.074155e+05	2.932366e+02	2.876510e-01	8.586877e+00	0.000000e+00	
1.000000e+00	-1.011905e+00	1.276259e+00	5.266776e+01	-1.144771e+02	2.747454e+05	1.074098e+05	2.931809e+02	2.876436e-01	8.578928e+00	0.000000e+00	
1.094413e+00	-1.012480e+00	1.276118e+00	5.267480e+01	-1.144816e+02	2.747531e+05	1.074124e+05	2.932201e+02	2.876721e-01	8.582503e+00	0.000000e+00	
1.144800e+00	-1.042146e+00	1.276077e+00	5.267339e+01	-1.144861e+02	2.747570e+05	1.074137e+05	2.932331e+02	2.876831e-01	8.584364e+00	0.000000e+00	
1.194807e+00	-1.073419e+00	1.276047e+00	5.267424e+01	-1.144924e+02	2.747605e+05	1.074148e+05	2.932431e+02	2.876988e-01	8.585922e+00	0.000000e+00	
1.046483e+00	-9.824203e-01	1.276166e+00	5.267937e+01	-1.144793e+02	2.747494e+05	1.074110e+05	2.932052e+02	2.876681e-01	8.580559e+00	0.000000e+00	
1.243114e+00	-1.166395e+00	1.276058e+00	5.266135e+01	-1.144850e+02	2.747635e+05	1.074165e+05	2.932451e+02	2.876676e-01	8.588329e+00	0.000000e+00	
1.243982e+00	-1.104797e+00	1.276032e+00	5.267720e+01	-1.145002e+02	2.747640e+05	1.074158e+05	2.932494e+02	2.877182e-01	8.587393e+00	0.000000e+00	
1.000000e+00	-9.523810e-01	1.276213e+00	5.268750e+01	-1.144784e+02	2.747456e+05	1.074094e+05	2.931903e+02	2.876708e-01	8.578375e+00	0.000000e+00	
1.143063e+00	-9.807371e-01	1.276040e+00	5.269111e+01	-1.144958e+02	2.747576e+05	1.074132e+05	2.932402e+02	2.877248e-01	8.583696e+00	0.000000e+00	
1.092059e+00	-9.503938e-01	1.276076e+00	5.269316e+01	-1.144882e+02	2.747539e+05	1.074120e+05	2.932288e+02	2.877086e-01	8.582057e+00	0.000000e+00	
1.193442e+00	-1.011838e+00	1.276022e+00	5.269117e+01	-1.145046e+02	2.747613e+05	1.074143e+05	2.932477e+02	2.877437e-01	8.585305e+00	0.000000e+00	
1.243532e+00	-1.043138e+00	1.276020e+00	5.269307e+01	-1.145143e+02	2.747648e+05	1.074153e+05	2.932507e+02	2.877645e-01	8.586718e+00	0.000000e+00	
1.045466e+00	-9.241753e-01	1.276122e+00	5.269808e+01	-1.144826e+02	2.747500e+05	1.074107e+05	2.932148e+02	2.876984e-01	8.580170e+00	0.000000e+00	
1.292216e+00	-1.195962e+00	1.276044e+00	5.266646e+01	-1.144941e+02	2.747659e+05	1.074170e+05	2.932498e+02	2.876923e-01	8.589081e+00	0.000000e+00	
1.293053e+00	-1.132219e+00	1.276036e+00	5.268243e+01	-1.145107e+02	2.747675e+05	1.074168e+05	2.932510e+02	2.877433e-01	8.588706e+00	0.000000e+00	
1.293488e+00	-1.073063e+00	1.276036e+00	5.269698e+01	-1.145249e+02	2.747680e+05	1.074162e+05	2.932494e+02	2.877873e-01	8.587952e+00	0.000000e+00	
1.000000e+00	-8.928571e-01	1.276166e+00	5.270698e+01	-1.144780e+02	2.747467e+05	1.074095e+05	2.932013e+02	2.876939e-01	8.578448e+00	0.000000e+00	
1.139604e+00	-9.191736e-01	1.276016e+00	5.270881e+01	-1.145040e+02	2.747587e+05	1.074130e+05	2.932455e+02	2.877617e-01	8.583454e+00	0.000000e+00	
1.191101e+00	-9.499658e-01	1.276008e+00	5.270808e+01	-1.145151e+02	2.747623e+05	1.074140e+05	2.932500e+02	2.877836e-01	8.584887e+00	0.000000e+00	
1.086165e+00	-8.914965e-01	1.276042e+00	5.271138e+01	-1.144931e+02	2.747545e+05	1.074117e+05	2.932358e+02	2.877403e-01	8.581601e+00	0.000000e+00	
1.242086e+00	-9.812383e-01	1.276020e+00	5.270903e+01	-1.145265e+02	2.747657e+05	1.074150e+05	2.932498e+02	2.878054e-01	8.586251e+00	0.000000e+00	
1.292812e+00	-1.012013e+00	1.276050e+00	5.271144e+01	-1.145380e+02	2.747688e+05	1.074159e+05	2.932454e+02	2.878271e-01	8.587455e+00	0.000000e+00	
1.036811e+00	-8.675911e-01	1.276088e+00	5.271437e+01	-1.144838e+02	2.747508e+05	1.074106e+05	2.932222e+02	2.877201e-01	8.580057e+00	0.000000e+00	
1.341812e+00	-1.209973e+00	1.276047e+00	5.267616e+01	-1.145068e+02	2.747699e+05	1.074180e+05	2.932519e+02	2.877263e-01	8.590423e+00	0.000000e+00	
1.346003e+00	-1.158948e+00	1.276058e+00	5.268919e+01	-1.145228e+02	2.747708e+05	1.074176e+05	2.932483e+02	2.877712e-01	8.589893e+00	0.000000e+00	
1.344501e+00	-1.101571e+00	1.276069e+00	5.270251e+01	-1.145364e+02	2.747710e+05	1.074170e+05	2.932439e+02	2.878115e-01	8.589005e+00	0.000000e+00	
1.343694e+00	-1.041833e+00	1.276094e+00	5.271517e+01	-1.145497e+02	2.747718e+05	1.074167e+05	2.932374e+02	2.878488e-01	8.588594e+00	0.000000e+00	
1.000000e+00	-8.333333e-01	1.276116e+00	5.272565e+01	-1.144754e+02	2.747482e+05	1.074097e+05	2.932134e+02	2.877116e-01	8.578825e+00	0.000000e+00	
1.135849e+00	-8.580295e-01	1.276001e+00	5.272613e+01	-1.145103e+02	2.747599e+05	1.074130e+05	2.932486e+02	2.877931e-01	8.583351e+00	0.000000e+00	
1.188203e+00	-8.888722e-01	1.276006e+00	5.272439e+01	-1.145237e+02	2.747635e+05	1.074139e+05	2.932502e+02	2.878174e-01	8.584727e+00	0.000000e+00	
1.240135e+00	-9.198651e-01	1.276031e+00	5.272439e+01	-1.145367e+02	2.747668e+05	1.074148e+05	2.932467e+02	2.878402e-01	8.585994e+00	0.000000e+00	
1.060587e+00	-8.131532e-01	1.276027e+00	5.273217e+01	-1.144924e+02	2.747550e+05	1.074116e+05	2.932388e+02	2.877606e-01	8.581393e+00	0.000000e+00	
1.291525e+00	-9.506591e-01	1.276073e+00	5.272577e+01	-1.145492e+02	2.747698e+05	1.074156e+05	2.932395e+02	2.878616e-01	8.587149e+00	0.000000e+00	
1.342746e+00	-9.809885e-01	1.276125e+00	5.272799e+01	-1.145607e+02	2.747725e+05	1.074164e+05	2.932295e+02	2.878809e-01	8.588171e+00	0.000000e+00	
1.396074e+00	-1.192578e+00	1.276088e+00	5.269481e+01	-1.145319e+02	2.747726e+05	1.074180e+05	2.932423e+02	2.877914e-01	8.590405e+00	0.000000e+00	
1.395764e+00	-1.131440e+00	1.276116e+00	5.270860e+01	-1.145485e+02	2.747741e+05	1.074178e+05	2.932353e+02	2.878362e-01	8.590133e+00	0.000000e+00	
1.394808e+00	-1.071143e+00	1.276146e+00	5.271949e+01	-1.145604e+02	2.747743e+05	1.074173e+05	2.932271e+02	2.878685e-01	8.589478e+00	0.000000e+00	
1.393992e+00	-1.010751e+00	1.276182e+00	5.273082e+01	-1.145712e+02	2.747750e+05	1.074171e+05	2.932182e+02	2.878980e-01	8.589141e+00	0.000000e+00	
1.000000e+00	-7.738095e-01	1.276073e+00	5.274284e+01	-1.144733e+02	2.747502e+05	1.074103e+05	2.932248e+02	2.877279e-01	8.579543e+00	0.000000e+00	
1.136070e+00	-7.973420e-01	1.275994e+00	5.274229e+01	-1.145161e+02	2.747621e+05	1.074133e+05	2.932513e+02	2.878207e-01	8.583897e+00	0.000000e+00	
1.187499e+00	-8.298549e-01	1.276015e+00	5.273960e+01	-1.145309e+02	2.747650e+05	1.074141e+05	2.932485e+02	2.878457e-01	8.584894e+00	0.000000e+00	
1.238805e+00	-8.599060e-01	1.276053e+00	5.273880e+01	-1.145452e+02	2.747680e+05	1.074148e+05	2.932418e+02	2.878691e-01	8.586011e+00	0.000000e+00	
1.290245e+00	-8.900452e-01	1.276104e+00	5.273921e+01	-1.145583e+02	2.747708e+05	1.074156e+05	2.932321e+02	2.878901e-01	8.587027e+00	0.000000e+00	
1.341669e+00	-9.201922e-01	1.276161e+00	5.274029e+01	-1.145701e+02	2.747733e+05	1.074163e+05	2.932208e+02	2.879080e-01	8.588004e+00	0.000000e+00	
1.393077e+00	-9.501287e-01	1.276220e+00	5.274162e+01	-1.145799e+02	2.747755e+05	1.074169e+05	2.932091e+02	2.879222e-01	8.588877e+00	0.000000e+00	
1.043305e+00	-7.483473e-01	1.276007e+00	5.275033e+01	-1.144883e+02	2.747557e+05	1.074117e+05	2.932437e+02	2.877715e-01	8.581565e+00	0.000000e+00	
1.446081e+00	-1.157621e+00	1.276173e+00	5.271448e+01	-1.145598e+02	2.747763e+05	1.074182e+05	2.932235e+02	2.878581e-01	8.590812e+00	0.000000e+00	
1.450844e+00	-1.210365e+00	1.276153e+00	5.270627e+01	-1.145500e+02	2.747764e+05	1.074188e+05	2.932296e+02	2.878316e-01	8.591538e+00	0.000000e+00	
1.445809e+00	-1.099210e+00	1.276204e+00	5.272419e+01	-1.145705e+02	2.747767e+05	1.074179e+05	2.932155e+02	2.878865e-01	8.590379e+00	0.000000e+00	
1.091832e+00	-7.665481e-01	1.275984e+00	5.274743e+01	-1.145036e+02	2.747594e+05	1.074126e+05	2.932515e+02	2.878020e-01	8.582855e+00	0.000000e+00	
1.445317e+00	-1.039826e+00	1.276240e+00	5.273356e+01	-1.145799e+02	2.747770e+05	1.074176e+05	2.932065e+02	2.879113e-01	8.589955e+00	0.000000e+00	
1.444508e+00	-9.797257e-01	1.276276e+00	5.274288e+01	-1.145874e+02	2.747774e+05	1.074175e+05	2.931978e+02	2.879319e-01	8.589689e+00	0.000000e+00	
1.000000e+00	-7.142857e-01	1.276038e+00	5.275845e+01	-1.144722e+02	2.747530e+05	1.074111e+05	2.932351e+02	2.877433e-01	8.580715e+00	0.000000e+00	
1.188570e+00	-7.715395e-01	1.276038e+00	5.275344e+01	-1.145372e+02	2.747667e+05	1.074143e+05	2.932439e+02	2.878690e-01	8.585296e+00	0.000000e+00	
1.141157e+00	-7.415263e-01	1.276007e+00	5.275595e+01	-1.145219e+02	2.747643e+05	1.074138e+05	2.932496e+02	2.878437e-01	8.584537e+00	0.000000e+00	
1.238579e+00	-8.011049e-01	1.276085e+00	5.275200e+01	-1.145522e+02	2.747695e+05	1.074150e+05	2.932349e+02	2.878925e-01	8.586243e+00	0.000000e+00	
1.289445e+00	-8.304909e-01	1.276141e+00	5.275162e+01	-1.145657e+02	2.747719e+05	1.074156e+05	2.932237e+02	2.879130e-01	8.587120e+00	0.000000e+00	
1.340723e+00	-8.600896e-01	1.276200e+00	5.275157e+01	-1.145772e+02	2.747742e+05	1.074162e+05	2.932119e+02	2.879293e-01	8.587977e+00	0.000000e+00	
1.392142e+00	-8.897883e-01	1.276257e+00	5.275159e+01	-1.145863e+02	2.747762e+05	1.074168e+05	2.932003e+02	2.879409e-01	8.588783e+00	0.000000e+00	
1.443585e+00	-9.194397e-01	1.276309e+00	5.275124e+01	-1.145924e+02	2.747778e+05	1.074173e+05	2.931899e+02	2.879467e-01	8.589528e+00	0.000000e+00	
1.090456e+00	-7.145167e-01	1.275992e+00	5.275950e+01	-1.145054e+02	2.747612e+05	1.074131e+05	2.932511e+02	2.878156e-01	8.583515e+00	0.000000e+00	
1.039997e+00	-6.903901e-01	1.275994e+00	5.276465e+01	-1.144878e+02	2.747585e+05	1.074125e+05	2.932491e+02	2.877845e-01	8.582748e+00	0.000000e+00	
1.498196e+00	-1.126038e+00	1.276264e+00	5.272836e+01	-1.145789e+02	2.747785e+05	1.074184e+05	2.932032e+02	2.879005e-01	8.591057e+00	0.000000e+00	
1.510399e+00	-1.196264e+00	1.276240e+00	5.272128e+01	-1.145702e+02	2.747790e+05	1.074190e+05	2.932102e+02	2.878776e-01	8.591837e+00	0.000000e+00	
1.497132e+00	-1.068254e+00	1.276296e+00	5.273630e+01	-1.145865e+02	2.747789e+05	1.074182e+05	2.931952e+02	2.879205e-01	8.590749e+00	0.000000e+00	
1.496082e+00	-1.009007e+00	1.276325e+00	5.274361e+01	-1.145920e+02	2.747789e+05	1.074180e+05	2.931877e+02	2.879359e-01	8.590409e+00	0.000000e+00	
1.495030e+00	-9.489896e-01	1.276352e+00	5.275023e+01	-1.145952e+02	2.747790e+05	1.074178e+05	2.931812e+02	2.879459e-01	8.590209e+00	0.000000e+00	
1.000000e+00	-6.547619e-01	1.276008e+00	5.277232e+01	-1.144702e+02	2.747567e+05	1.074124e+05	2.932455e+02	2.877541e-01	8.582515e+00	0.000000e+00	
1.238355e+00	-7.426163e-01	1.276125e+00	5.276406e+01	-1.145579e+02	2.747711e+05	1.074153e+05	2.932267e+02	2.879109e-01	8.586698e+00	0.000000e+00	
1.188580e+00	-7.135674e-01	1.276073e+00	5.276589e+01	-1.145424e+02	2.747688e+05	1.074148e+05	2.932373e+02	2.878871e-01	8.585985e+00	0.000000e+00	
1.138284e+00	-6.855143e-01	1.276030e+00	5.276822e+01	-1.145249e+02	2.747663e+05	1.074143e+05	2.932458e+02	2.878585e-01	8.585309e+00	0.000000e+00	
1.288905e+00	-7.716261e-01	1.276182e+00	5.276283e+01	-1.145714e+02	2.747732e+05	1.074158e+05	2.932149e+02	2.879305e-01	8.587405e+00	0.000000e+00	
1.339977e+00	-8.007426e-01	1.276240e+00	5.276170e+01	-1.145824e+02	2.747752e+05	1.074164e+05	2.932031e+02	2.879450e-01	8.588137e+00	0.000000e+00	
1.391303e+00	-8.300433e-01	1.276293e+00	5.276038e+01	-1.145903e+02	2.747768e+05	1.074168e+05	2.931922e+02	2.879537e-01	8.588835e+00	0.000000e+00	
1.442698e+00	-8.594594e-01	1.276339e+00	5.275853e+01	-1.145949e+02	2.747781e+05	1.074173e+05	2.931830e+02	2.879556e-01	8.589503e+00	0.000000e+00	
1.494070e+00	-8.889202e-01	1.276376e+00	5.275585e+01	-1.145958e+02	2.747790e+05	1.074178e+05	2.931757e+02	2.879500e-01	8.590130e+00	0.000000e+00	
1.087729e+00	-6.605235e-01	1.275999e+00	5.277143e+01	-1.145051e+02	2.747636e+05	1.074139e+05	2.932515e+02	2.878246e-01	8.584614e+00	0.000000e+00	
1.036519e+00	-6.389016e-01	1.275985e+00	5.277546e+01	-1.144862e+02	2.747606e+05	1.074132e+05	2.932531e+02	2.877915e-01	8.583760e+00	0.000000e+00	
1.547027e+00	-1.151126e+00	1.276315e+00	5.273227e+01	-1.145850e+02	2.747802e+05	1.074189e+05	2.931928e+02	2.879105e-01	8.591747e+00	0.000000e+00	
1.549649e+00	-1.096695e+00	1.276343e+00	5.273771e+01	-1.145901e+02	2.747801e+05	1.074186e+05	2.931856e+02	2.879234e-01	8.591349e+00	0.000000e+00	
1.572311e+00	-1.200555e+00	1.276323e+00	5.273003e+01	-1.145832e+02	2.747807e+05	1.074192e+05	2.931919e+02	2.879033e-01	8.592187e+00	0.000000e+00	
1.547814e+00	-1.038373e+00	1.276367e+00	5.274339e+01	-1.145934e+02	2.747799e+05	1.074184e+05	2.931794e+02	2.879332e-01	8.591023e+00	0.000000e+00	
1.546431e+00	-9.785191e-01	1.276387e+00	5.274824e+01	-1.145944e+02	2.747798e+05	1.074183e+05	2.931744e+02	2.879378e-01	8.590847e+00	0.000000e+00	
1.545361e+00	-9.183948e-01	1.276404e+00	5.275205e+01	-1.145925e+02	2.747794e+05	1.074182e+05	2.931703e+02	2.879359e-01	8.590692e+00	0.000000e+00	
1.000000e+00	-5.952381e-01	1.275984e+00	5.278361e+01	-1.144694e+02	2.747605e+05	1.074137e+05	2.932544e+02	2.877643e-01	8.584339e+00	0.000000e+00	
1.236479e+00	-6.844404e-01	1.276165e+00	5.277452e+01	-1.145613e+02	2.747727e+05	1.074157e+05	2.932187e+02	2.879229e-01	8.587278e+00	0.000000e+00	
1.287827e+00	-7.131044e-01	1.276223e+00	5.277256e+01	-1.145749e+02	2.747745e+05	1.074161e+05	2.932064e+02	2.879420e-01	8.587842e+00	0.000000e+00	
1.184572e+00	-6.562751e-01	1.276106e+00	5.277663e+01	-1.145446e+02	2.747705e+05	1.074153e+05	2.932310e+02	2.878975e-01	8.586680e+00	0.000000e+00	
1.131451e+00	-6.297704e-01	1.276054e+00	5.277858e+01	-1.145248e+02	2.747683e+05	1.074150e+05	2.932422e+02	2.878645e-01	8.586249e+00	0.000000e+00	
1.339147e+00	-7.419103e-01	1.276277e+00	5.277040e+01	-1.145852e+02	2.747761e+05	1.074166e+05	2.931950e+02	2.879547e-01	8.588442e+00	0.000000e+00	
1.390516e+00	-7.708705e-01	1.276325e+00	5.276784e+01	-1.145920e+02	2.747775e+05	1.074170e+05	2.931852e+02	2.879604e-01	8.589029e+00	0.000000e+00	
1.441888e+00	-7.999823e-01	1.276365e+00	5.276453e+01	-1.145949e+02	2.747784e+05	1.074174e+05	2.931772e+02	2.879583e-01	8.589606e+00	0.000000e+00	
1.493214e+00	-8.292045e-01	1.276395e+00	5.276024e+01	-1.145937e+02	2.747789e+05	1.074178e+05	2.931713e+02	2.879476e-01	8.590152e+00	0.000000e+00	
1.544461e+00	-8.584941e-01	1.276416e+00	5.275476e+01	-1.145881e+02	2.747790e+05	1.074182e+05	2.931674e+02	2.879279e-01	8.590678e+00	0.000000e+00	
1.076336e+00	-6.075870e-01	1.276010e+00	5.278123e+01	-1.145014e+02	2.747649e+05	1.074144e+05	2.932504e+02	2.878244e-01	8.585330e+00	0.000000e+00	
1.600550e+00	-1.133089e+00	1.276376e+00	5.273724e+01	-1.145891e+02	2.747808e+05	1.074190e+05	2.931791e+02	2.879167e-01	8.591933e+00	0.000000e+00	
1.598755e+00	-1.069283e+00	1.276400e+00	5.274206e+01	-1.145914e+02	2.747808e+05	1.074189e+05	2.931731e+02	2.879235e-01	8.591727e+00	0.000000e+00	
1.634718e+00	-1.200848e+00	1.276386e+00	5.273489e+01	-1.145873e+02	2.747819e+05	1.074196e+05	2.931783e+02	2.879087e-01	8.592689e+00	0.000000e+00	
1.597484e+00	-1.008162e+00	1.276413e+00	5.274489e+01	-1.145894e+02	2.747800e+05	1.074186e+05	2.931696e+02	2.879209e-01	8.591355e+00	0.000000e+00	
1.596469e+00	-9.478281e-01	1.276423e+00	5.274701e+01	-1.145852e+02	2.747794e+05	1.074186e+05	2.931669e+02	2.879131e-01	8.591245e+00	0.000000e+00	
1.595591e+00	-8.877928e-01	1.276430e+00	5.274794e+01	-1.145781e+02	2.747786e+05	1.074185e+05	2.931651e+02	2.878986e-01	8.591151e+00	0.000000e+00	
1.069329e+00	-5.546983e-01	1.276026e+00	5.278974e+01	-1.144981e+02	2.747675e+05	1.074154e+05	2.932496e+02	2.878225e-01	8.586823e+00	0.000000e+00	
1.232605e+00	-6.269239e-01	1.276202e+00	5.278309e+01	-1.145625e+02	2.747742e+05	1.074163e+05	2.932114e+02	2.879285e-01	8.588010e+00	0.000000e+00	
1.285629e+00	-6.549535e-01	1.276261e+00	5.278058e+01	-1.145762e+02	2.747758e+05	1.074166e+05	2.931988e+02	2.879476e-01	8.588428e+00	0.000000e+00	
1.337846e+00	-6.834172e-01	1.276312e+00	5.277753e+01	-1.145858e+02	2.747771e+05	1.074169e+05	2.931880e+02	2.879585e-01	8.588889e+00	0.000000e+00	
1.178506e+00	-5.999571e-01	1.276139e+00	5.278539e+01	-1.145447e+02	2.747723e+05	1.074160e+05	2.932251e+02	2.879014e-01	8.587575e+00	0.000000e+00	
1.123578e+00	-5.753637e-01	1.276078e+00	5.278724e+01	-1.145233e+02	2.747702e+05	1.074157e+05	2.932385e+02	2.878660e-01	8.587267e+00	0.000000e+00	
1.389598e+00	-7.121037e-01	1.276354e+00	5.277379e+01	-1.145913e+02	2.747781e+05	1.074172e+05	2.931792e+02	2.879611e-01	8.589355e+00	0.000000e+00	
1.441092e+00	-7.409554e-01	1.276386e+00	5.276911e+01	-1.145924e+02	2.747787e+05	1.074175e+05	2.931727e+02	2.879547e-01	8.589828e+00	0.000000e+00	
1.492432e+00	-7.699347e-01	1.276410e+00	5.276328e+01	-1.145890e+02	2.747788e+05	1.074179e+05	2.931681e+02	2.879389e-01	8.590294e+00	0.000000e+00	
1.543664e+00	-7.990048e-01	1.276426e+00	5.275616e+01	-1.145809e+02	2.747785e+05	1.074182e+05	2.931654e+02	2.879133e-01	8.590740e+00	0.000000e+00	
1.594803e+00	-8.281254e-01	1.276435e+00	5.274774e+01	-1.145685e+02	2.747778e+05	1.074185e+05	2.931641e+02	2.878781e-01	8.591174e+00	0.000000e+00	
1.000000e+00	-5.357143e-01	1.275983e+00	5.279209e+01	-1.144686e+02	2.747645e+05	1.074152e+05	2.932589e+02	2.877687e-01	8.586478e+00	0.000000e+00	
1.648946e+00	-1.094829e+00	1.276421e+00	5.273913e+01	-1.145845e+02	2.747804e+05	1.074191e+05	2.931688e+02	2.879038e-01	8.592023e+00	0.000000e+00	
1.654747e+00	-1.149486e+00	1.276415e+00	5.273733e+01	-1.145864e+02	2.747812e+05	1.074194e+05	2.931710e+02	2.879062e-01	8.592399e+00	0.000000e+00	
1.648102e+00	-1.036534e+00	1.276431e+00	5.274052e+01	-1.145807e+02	2.747799e+05	1.074190e+05	2.931665e+02	2.878961e-01	8.591914e+00	0.000000e+00	
1.696459e+00	-1.196388e+00	1.276427e+00	5.273452e+01	-1.145799e+02	2.747814e+05	1.074197e+05	2.931693e+02	2.878882e-01	8.592922e+00	0.000000e+00	
1.647343e+00	-9.768803e-01	1.276436e+00	5.274053e+01	-1.145735e+02	2.747788e+05	1.074189e+05	2.931650e+02	2.878809e-01	8.591691e+00	0.000000e+00	
1.646583e+00	-9.169782e-01	1.276439e+00	5.273986e+01	-1.145640e+02	2.747778e+05	1.074188e+05	2.931641e+02	2.878604e-01	8.591608e+00	0.000000e+00	
1.645850e+00	-8.572406e-01	1.276440e+00	5.273808e+01	-1.145522e+02	2.747766e+05	1.074188e+05	2.931637e+02	2.878340e-01	8.591572e+00	0.000000e+00	
1.118466e+00	-5.207647e-01	1.276111e+00	5.279423e+01	-1.145217e+02	2.747724e+05	1.074166e+05	2.932334e+02	2.878644e-01	8.588504e+00	0.000000e+00	
1.067657e+00	-4.976080e-01	1.276056e+00	5.279638e+01	-1.144968e+02	2.747703e+05	1.074165e+05	2.932458e+02	2.878213e-01	8.588388e+00	0.000000e+00	
1.282527e+00	-5.972533e-01	1.276296e+00	5.278694e+01	-1.145756e+02	2.747771e+05	1.074170e+05	2.931921e+02	2.879478e-01	8.589120e+00	0.000000e+00	
1.227972e+00	-5.700864e-01	1.276239e+00	5.278992e+01	-1.145619e+02	2.747758e+05	1.074169e+05	2.932046e+02	2.879290e-01	8.588860e+00	0.000000e+00	
1.335955e+00	-6.252197e-01	1.276342e+00	5.278306e+01	-1.145844e+02	2.747781e+05	1.074173e+05	2.931820e+02	2.879567e-01	8.589450e+00	0.000000e+00	
1.388405e+00	-6.536085e-01	1.276378e+00	5.277821e+01	-1.145883e+02	2.747787e+05	1.074175e+05	2.931745e+02	2.879559e-01	8.589793e+00	0.000000e+00	
1.172776e+00	-5.443829e-01	1.276174e+00	5.279236e+01	-1.145437e+02	2.747741e+05	1.074167e+05	2.932189e+02	2.879010e-01	8.588586e+00	0.000000e+00	
1.440217e+00	-6.822398e-01	1.276404e+00	5.277218e+01	-1.145874e+02	2.747788e+05	1.074178e+05	2.931692e+02	2.879451e-01	8.590160e+00	0.000000e+00	
1.491668e+00	-7.110241e-01	1.276421e+00	5.276488e+01	-1.145817e+02	2.747786e+05	1.074180e+05	2.931659e+02	2.879239e-01	8.590530e+00	0.000000e+00	
1.542926e+00	-7.399089e-01	1.276432e+00	5.275624e+01	-1.145713e+02	2.747779e+05	1.074183e+05	2.931642e+02	2.878925e-01	8.590905e+00	0.000000e+00	
1.594075e+00	-7.688581e-01	1.276437e+00	5.274633e+01	-1.145566e+02	2.747768e+05	1.074186e+05	2.931637e+02	2.878516e-01	8.591268e+00	0.000000e+00	
1.645149e+00	-7.978403e-01	1.276440e+00	5.273535e+01	-1.145382e+02	2.747753e+05	1.074188e+05	2.931638e+02	2.878025e-01	8.591623e+00	0.000000e+00	
1.000000e+00	-4.761905e-01	1.276006e+00	5.279849e+01	-1.144676e+02	2.747683e+05	1.074166e+05	2.932576e+02	2.877682e-01	8.588540e+00	0.000000e+00	
1.699338e+00	-1.064432e+00	1.276441e+00	5.273421e+01	-1.145673e+02	2.747790e+05	1.074193e+05	2.931648e+02	2.878608e-01	8.592256e+00	0.000000e+00	
1.701258e+00	-1.122386e+00	1.276439e+00	5.273485e+01	-1.145744e+02	2.747804e+05	1.074196e+05	2.931661e+02	2.878762e-01	8.592660e+00	0.000000e+00	
1.698266e+00	-1.005530e+00	1.276443e+00	5.273285e+01	-1.145581e+02	2.747779e+05	1.074192e+05	2.931641e+02	2.878403e-01	8.592151e+00	0.000000e+00	
1.751835e+00	-1.208439e+00	1.276445e+00	5.273038e+01	-1.145677e+02	2.747804e+05	1.074199e+05	2.931656e+02	2.878569e-01	8.593112e+00	0.000000e+00	
1.697504e+00	-9.459863e-01	1.276443e+00	5.273053e+01	-1.145463e+02	2.747765e+05	1.074191e+05	2.931639e+02	2.878139e-01	8.591999e+00	0.000000e+00	
1.696824e+00	-8.863085e-01	1.276442e+00	5.272746e+01	-1.145326e+02	2.747751e+05	1.074191e+05	2.931639e+02	2.877826e-01	8.591954e+00	0.000000e+00	
1.696166e+00	-8.268316e-01	1.276441e+00	5.272360e+01	-1.145172e+02	2.747735e+05	1.074191e+05	2.931643e+02	2.877471e-01	8.591954e+00	0.000000e+00	
1.116174e+00	-4.640064e-01	1.276154e+00	5.279937e+01	-1.145210e+02	2.747750e+05	1.074177e+05	2.932264e+02	2.878617e-01	8.590001e+00	0.000000e+00	
1.168895e+00	-4.883350e-01	1.276215e+00	5.279769e+01	-1.145425e+02	2.747762e+05	1.074175e+05	2.932120e+02	2.878981e-01	8.589798e+00	0.000000e+00	
1.066592e+00	-4.393951e-01	1.276098e+00	5.280101e+01	-1.144966e+02	2.747735e+05	1.074178e+05	2.932398e+02	2.878187e-01	8.590247e+00	0.000000e+00	
1.751889e+00	-1.152379e+00	1.276446e+00	5.272903e+01	-1.145604e+02	2.747793e+05	1.074197e+05	2.931650e+02	2.878405e-01	8.592908e+00	0.000000e+00	
1.333726e+00	-5.672619e-01	1.276369e+00	5.278699e+01	-1.145811e+02	2.747790e+05	1.074178e+05	2.931771e+02	2.879499e-01	8.590123e+00	0.000000e+00	
1.279278e+00	-5.398617e-01	1.276328e+00	5.279168e+01	-1.145735e+02	2.747784e+05	1.074176e+05	2.931862e+02	2.879435e-01	8.589942e+00	0.000000e+00	
1.223918e+00	-5.134628e-01	1.276276e+00	5.279511e+01	-1.145605e+02	2.747775e+05	1.074176e+05	2.931981e+02	2.879258e-01	8.589849e+00	0.000000e+00	
1.386957e+00	-5.953011e-01	1.276399e+00	5.278104e+01	-1.145832e+02	2.747792e+05	1.074179e+05	2.931708e+02	2.879452e-01	8.590338e+00	0.000000e+00	
1.439218e+00	-6.237155e-01	1.276418e+00	5.277371e+01	-1.145801e+02	2.747789e+05	1.074181e+05	2.931668e+02	2.879293e-01	8.590590e+00	0.000000e+00	
1.490873e+00	-6.523436e-01	1.276430e+00	5.276501e+01	-1.145720e+02	2.747783e+05	1.074183e+05	2.931646e+02	2.879027e-01	8.590864e+00	0.000000e+00	
1.542206e+00	-6.810933e-01	1.276436e+00	5.275496e+01	-1.145593e+02	2.747772e+05	1.074185e+05	2.931638e+02	2.878657e-01	8.591151e+00	0.000000e+00	
1.593379e+00	-7.099137e-01	1.276439e+00	5.274376e+01	-1.145425e+02	2.747758e+05	1.074187e+05	2.931638e+02	2.878197e-01	8.591446e+00	0.000000e+00	
1.644471e+00	-7.387760e-01	1.276439e+00	5.273167e+01	-1.145226e+02	2.747740e+05	1.074189e+05	2.931642e+02	2.877665e-01	8.591739e+00	0.000000e+00	
1.695515e+00	-7.676637e-01	1.276439e+00	5.271912e+01	-1.145006e+02	2.747720e+05	1.074191e+05	2.931647e+02	2.877085e-01	8.592028e+00	0.000000e+00	
1.000000e+00	-4.166667e-01	1.276040e+00	5.280226e+01	-1.144670e+02	2.747721e+05	1.074182e+05	2.932540e+02	2.877647e-01	8.590755e+00	0.000000e+00	
1.750541e+00	-1.093258e+00	1.276447e+00	5.272667e+01	-1.145506e+02	2.747779e+05	1.074196e+05	2.931642e+02	2.878181e-01	8.592648e+00	0.000000e+00	
1.749304e+00	-1.034386e+00	1.276447e+00	5.272372e+01	-1.145392e+02	2.747765e+05	1.074195e+05	2.931640e+02	2.877918e-01	8.592513e+00	0.000000e+00	
1.748434e+00	-9.750108e-01	1.276445e+00	5.272032e+01	-1.145258e+02	2.747749e+05	1.074194e+05	2.931641e+02	2.877610e-01	8.592374e+00	0.000000e+00	
1.800221e+00	-1.182159e+00	1.276453e+00	5.272238e+01	-1.145448e+02	2.747786e+05	1.074201e+05	2.931643e+02	2.878005e-01	8.593446e+00	0.000000e+00	
1.747758e+00	-9.153829e-01	1.276443e+00	5.271614e+01	-1.145107e+02	2.747732e+05	1.074193e+05	2.931644e+02	2.877260e-01	8.592294e+00	0.000000e+00	
1.747140e+00	-8.558444e-01	1.276441e+00	5.271154e+01	-1.144945e+02	2.747716e+05	1.074193e+05	2.931648e+02	2.876882e-01	8.592272e+00	0.000000e+00	
1.746524e+00	-7.965773e-01	1.276439e+00	5.270658e+01	-1.144776e+02	2.747699e+05	1.074193e+05	2.931652e+02	2.876488e-01	8.592302e+00	0.000000e+00	
1.114880e+00	-4.060739e-01	1.276201e+00	5.280261e+01	-1.145203e+02	2.747775e+05	1.074188e+05	2.932186e+02	2.878565e-01	8.591537e+00	0.000000e+00	
1.166696e+00	-4.311516e-01	1.276258e+00	5.280121e+01	-1.145412e+02	2.747783e+05	1.074185e+05	2.932046e+02	2.878924e-01	8.591103e+00	0.000000e+00	
1.221074e+00	-4.564179e-01	1.276313e+00	5.279859e+01	-1.145582e+02	2.747791e+05	1.074183e+05	2.931916e+02	2.879192e-01	8.590943e+00	0.000000e+00	
1.065819e+00	-3.806343e-01	1.276144e+00	5.280340e+01	-1.144962e+02	2.747766e+05	1.074191e+05	2.932325e+02	2.878132e-01	8.592061e+00	0.000000e+00	
1.800616e+00	-1.123297e+00	1.276449e+00	5.271794e+01	-1.145313e+02	2.747763e+05	1.074198e+05	2.931642e+02	2.877692e-01	8.592948e+00	0.000000e+00	
1.849631e+00	-1.210478e+00	1.276454e+00	5.271417e+01	-1.145252e+02	2.747766e+05	1.074202e+05	2.931643e+02	2.877518e-01	8.593511e+00	0.000000e+00	
1.385424e+00	-5.370981e-01	1.276416e+00	5.278221e+01	-1.145760e+02	2.747796e+05	1.074184e+05	2.931681e+02	2.879288e-01	8.590969e+00	0.000000e+00	
1.331571e+00	-5.093972e-01	1.276393e+00	5.278925e+01	-1.145760e+02	2.747799e+05	1.074183e+05	2.931731e+02	2.879381e-01	8.590887e+00	0.000000e+00	
1.276546e+00	-4.824460e-01	1.276359e+00	5.279472e+01	-1.145700e+02	2.747797e+05	1.074183e+05	2.931809e+02	2.879349e-01	8.590858e+00	0.000000e+00	
1.438132e+00	-5.652974e-01	1.276429e+00	5.277363e+01	-1.145705e+02	2.747789e+05	1.074185e+05	2.931653e+02	2.879076e-01	8.591106e+00	0.000000e+00	
1.490036e+00	-5.937899e-01	1.276436e+00	5.276362e+01	-1.145600e+02	2.747779e+05	1.074186e+05	2.931641e+02	2.878754e-01	8.591277e+00	0.000000e+00	
1.541481e+00	-6.224415e-01	1.276438e+00	5.275234e+01	-1.145451e+02	2.747764e+05	1.074187e+05	2.931639e+02	2.878333e-01	8.591477e+00	0.000000e+00	
1.592697e+00	-6.511767e-01	1.276439e+00	5.274006e+01	-1.145266e+02	2.747746e+05	1.074189e+05	2.931642e+02	2.877830e-01	8.591694e+00	0.000000e+00	
1.643806e+00	-6.799565e-01	1.276439e+00	5.272716e+01	-1.145056e+02	2.747726e+05	1.074190e+05	2.931647e+02	2.877268e-01	8.591924e+00	0.000000e+00	
1.694866e+00	-7.087628e-01	1.276438e+00	5.271412e+01	-1.144832e+02	2.747705e+05	1.074192e+05	2.931652e+02	2.876677e-01	8.592157e+00	0.000000e+00	
1.745898e+00	-7.375912e-01	1.276438e+00	5.270146e+01	-1.144607e+02	2.747683e+05	1.074194e+05	2.931657e+02	2.876088e-01	8.592390e+00	0.000000e+00	
1.000000e+00	-3.571429e-01	1.276084e+00	5.280352e+01	-1.144673e+02	2.747758e+05	1.074197e+05	2.932480e+02	2.877593e-01	8.592905e+00	0.000000e+00	
1.799997e+00	-1.063912e+00	1.276449e+00	5.271389e+01	-1.145183e+02	2.747749e+05	1.074197e+05	2.931643e+02	2.877384e-01	8.592911e+00	0.000000e+00	
1.799274e+00	-1.004360e+00	1.276445e+00	5.270948e+01	-1.145033e+02	2.747730e+05	1.074196e+05	2.931646e+02	2.877038e-01	8.592681e+00	0.000000e+00	
1.798648e+00	-9.446210e-01	1.276443e+00	5.270464e+01	-1.144877e+02	2.747713e+05	1.074195e+05	2.931649e+02	2.876670e-01	8.592624e+00	0.000000e+00	
1.850071e+00	-1.152401e+00	1.276451e+00	5.270891e+01	-1.145106e+02	2.747747e+05	1.074200e+05	2.931645e+02	2.877171e-01	8.593293e+00	0.000000e+00	
1.798078e+00	-8.849494e-01	1.276441e+00	5.269960e+01	-1.144714e+02	2.747695e+05	1.074195e+05	2.931654e+02	2.876287e-01	8.592557e+00	0.000000e+00	
1.797506e+00	-8.255463e-01	1.276439e+00	5.269457e+01	-1.144551e+02	2.747679e+05	1.074195e+05	2.931659e+02	2.875904e-01	8.592567e+00	0.000000e+00	
1.796910e+00	-7.664523e-01	1.276436e+00	5.268968e+01	-1.144393e+02	2.747663e+05	1.074195e+05	2.931665e+02	2.875533e-01	8.592615e+00	0.000000e+00	
1.165428e+00	-3.731207e-01	1.276302e+00	5.280282e+01	-1.145395e+02	2.747805e+05	1.074194e+05	2.931972e+02	2.878843e-01	8.592501e+00	0.000000e+00	
1.114066e+00	-3.475137e-01	1.276249e+00	5.280378e+01	-1.145196e+02	2.747801e+05	1.074199e+05	2.932105e+02	2.878491e-01	8.593137e+00	0.000000e+00	