TITLE = "SU2 Simulation"
VARIABLES = "Iteration","CL","CD","CSF","CMx","CMy","CMz","CFx","CFy","CFz","CL/CD","AoA","Custom_ObjFunc","Res_Flow[0]","Res_Flow[1]","Res_Flow[2]","Res_Flow[3]","Res_Flow[4]","Linear_Solver_Iterations","CFL_Number","Time(min)"
ZONE T= "Convergence history"
           0, 0.00000000e+00, 0.00000000e+00, 0.00000000e+00, 0.00000000e+00, 0.00000000e+00, 0.00000000e+00, 0.00000000e+00, 0.00000000e+00, 0.00000000e+00, 0.00000000e+00, 0.00000000e+00, 0.00000000e+00, -1.56881189e+01, 2.63257648e+00, 2.14440602e+00, 4.16443464e+00, 0.00000000e+00, 5.0000000000, 5.0000000000, 0.0021936311
           1, 0.00000000e+00, 0.00000000e+00, 0.00000000e+00, 0.00000000e+00, 0.00000000e+00, 0.00000000e+00, 0.00000000e+00, 0.00000000e+00, 0.00000000e+00, 0.00000000e+00, 0.00000000e+00, 0.00000000e+00, -7.85579725e-01, 2.46954575e+00, 2.25367718e+00, 4.70143590e+00, 0.00000000e+00, 5.0000000000, 5.0000000000, 0.0041595258
           2, 0.00000000e+00, 0.00000000e+00, 0.00000000e+00, 0.00000000e+00, 0.00000000e+00, 0.00000000e+00, 0.00000000e+00, 0.00000000e+00, 0.00000000e+00, 0.00000000e+00, 0.00000000e+00, 0.00000000e+00, -6.56290873e-01, 2.27220151e+00, 2.24601737e+00, 4.81461920e+00, 0.00000000e+00, 5.0000000000, 5.0000000000, 0.0063009067
           3, 0.00000000e+00, 0.00000000e+00, 0.00000000e+00, 0.00000000e+00, 0.00000000e+00, 0.00000000e+00, 0.00000000e+00, 0.00000000e+00, 0.00000000e+00, 0.00000000e+00, 0.00000000e+00, 0.00000000e+00, -6.40231484e-01, 2.04485890e+00, 2.19309495e+00, 4.82492242e+00, 0.00000000e+00, 5.0000000000, 5.0000000000, 0.0085420191
           4, 0.00000000e+00, 0.00000000e+00, 0.00000000e+00, 0.00000000e+00, 0.00000000e+00, 0.00000000e+00, 0.00000000e+00, 0.00000000e+00, 0.00000000e+00, 0.00000000e+00, 0.00000000e+00, 0.00000000e+00, -6.54556098e-01, 1.78236669e+00, 2.12049057e+00, 4.80789852e+00, 0.00000000e+00, 5.0000000000, 5.0000000000, 0.0112044969
           5, 0.00000000e+00, 0.00000000e+00, 0.00000000e+00, 0.00000000e+00, 0.00000000e+00, 0.00000000e+00, 0.00000000e+00, 0.00000000e+00, 0.00000000e+00, 0.00000000e+00, 0.00000000e+00, 0.00000000e+00, -6.77968288e-01, 1.51050035e+00, 2.04037681e+00, 4.78351910e+00, 0.00000000e+00, 5.0000000000, 5.0000000000, 0.0140793993
           6, 0.00000000e+00, 0.00000000e+00, 0.00000000e+00, 0.00000000e+00, 0.00000000e+00, 0.00000000e+00, 0.00000000e+00, 0.00000000e+00, 0.00000000e+00, 0.00000000e+00, 0.00000000e+00, 0.00000000e+00, -7.11833860e-01, 1.47575931e+00, 1.95930615e+00, 4.74944178e+00, 0.00000000e+00, 5.0000000000, 5.0000000000, 0.0162428047
           7, 0.00000000e+00, 0.00000000e+00, 0.00000000e+00, 0.00000000e+00, 0.00000000e+00, 0.00000000e+00, 0.00000000e+00, 0.00000000e+00, 0.00000000e+00, 0.00000000e+00, 0.00000000e+00, 0.00000000e+00, -7.65206709e-01, 1.62269067e+00, 1.88069724e+00, 4.69581114e+00, 0.00000000e+00, 5.0000000000, 5.0000000000, 0.0179735299
           8, 0.00000000e+00, 0.00000000e+00, 0.00000000e+00, 0.00000000e+00, 0.00000000e+00, 0.00000000e+00, 0.00000000e+00, 0.00000000e+00, 0.00000000e+00, 0.00000000e+00, 0.00000000e+00, 0.00000000e+00, -8.49305215e-01, 1.73732517e+00, 1.80601221e+00, 4.61086373e+00, 0.00000000e+00, 5.0000000000, 5.0000000000, 0.0196906438
           9, 0.00000000e+00, 0.00000000e+00, 0.00000000e+00, 0.00000000e+00, 0.00000000e+00, 0.00000000e+00, 0.00000000e+00, 0.00000000e+00, 0.00000000e+00, 0.00000000e+00, 0.00000000e+00, 0.00000000e+00, -9.78387373e-01, 1.80978022e+00, 1.73580724e+00, 4.47997325e+00, 0.00000000e+00, 5.0000000000, 5.0000000000, 0.0214554334
          10, 0.00000000e+00, 0.00000000e+00, 0.00000000e+00, 0.00000000e+00, 0.00000000e+00, 0.00000000e+00, 0.00000000e+00, 0.00000000e+00, 0.00000000e+00, 0.00000000e+00, 0.00000000e+00, 0.00000000e+00, -1.17288516e+00, 1.85065907e+00, 1.67055805e+00, 4.28288833e+00, 0.00000000e+00, 5.0000000000, 5.0000000000, 0.0232233593
          11, 0.00000000e+00, 0.00000000e+00, 0.00000000e+00, 0.00000000e+00, 0.00000000e+00, 0.00000000e+00, 0.00000000e+00, 0.00000000e+00, 0.00000000e+00, 0.00000000e+00, 0.00000000e+00, 0.00000000e+00, -1.41215272e+00, 1.86714314e+00, 1.61118675e+00, 4.04900165e+00, 0.00000000e+00, 5.0000000000, 5.0000000000, 0.0249641812
          12, 0.00000000e+00, 0.00000000e+00, 0.00000000e+00, 0.00000000e+00, 0.00000000e+00, 0.00000000e+00, 0.00000000e+00, 0.00000000e+00, 0.00000000e+00, 0.00000000e+00, 0.00000000e+00, 0.00000000e+00, -1.36433095e+00, 1.86411169e+00, 1.55892704e+00, 4.11155183e+00, 0.00000000e+00, 5.0000000000, 5.0000000000, 0.0267075508
          13, 0.00000000e+00, 0.00000000e+00, 0.00000000e+00, 0.00000000e+00, 0.00000000e+00, 0.00000000e+00, 0.00000000e+00, 0.00000000e+00, 0.00000000e+00, 0.00000000e+00, 0.00000000e+00, 0.00000000e+00, -1.17363624e+00, 1.84551838e+00, 1.51454096e+00, 4.29758412e+00, 0.00000000e+00, 5.0000000000, 5.0000000000, 0.0284605800
          14, 0.00000000e+00, 0.00000000e+00, 0.00000000e+00, 0.00000000e+00, 0.00000000e+00, 0.00000000e+00, 0.00000000e+00, 0.00000000e+00, 0.00000000e+00, 0.00000000e+00, 0.00000000e+00, 0.00000000e+00, -1.05070778e+00, 1.81502483e+00, 1.47764455e+00, 4.41604354e+00, 0.00000000e+00, 5.0000000000, 5.0000000000, 0.0302653239
          15, 0.00000000e+00, 0.00000000e+00, 0.00000000e+00, 0.00000000e+00, 0.00000000e+00, 0.00000000e+00, 0.00000000e+00, 0.00000000e+00, 0.00000000e+00, 0.00000000e+00, 0.00000000e+00, 0.00000000e+00, -9.80385750e-01, 1.77614292e+00, 1.44670859e+00, 4.48296894e+00, 0.00000000e+00, 5.0000000000, 5.0000000000, 0.0325140878
          16, 0.00000000e+00, 0.00000000e+00, 0.00000000e+00, 0.00000000e+00, 0.00000000e+00, 0.00000000e+00, 0.00000000e+00, 0.00000000e+00, 0.00000000e+00, 0.00000000e+00, 0.00000000e+00, 0.00000000e+00, -9.43735551e-01, 1.73209240e+00, 1.41972284e+00, 4.51666347e+00, 0.00000000e+00, 5.0000000000, 5.0000000000, 0.0348502323
          17, 0.00000000e+00, 0.00000000e+00, 0.00000000e+00, 0.00000000e+00, 0.00000000e+00, 0.00000000e+00, 0.00000000e+00, 0.00000000e+00, 0.00000000e+00, 0.00000000e+00, 0.00000000e+00, 0.00000000e+00, -9.29101923e-01, 1.68556436e+00, 1.39489190e+00, 4.52849567e+00, 0.00000000e+00, 5.0000000000, 5.0000000000, 0.0367881720
          18, 0.00000000e+00, 0.00000000e+00, 0.00000000e+00, 0.00000000e+00, 0.00000000e+00, 0.00000000e+00, 0.00000000e+00, 0.00000000e+00, 0.00000000e+00, 0.00000000e+00, 0.00000000e+00, 0.00000000e+00, -9.29009592e-01, 1.63855505e+00, 1.37094148e+00, 4.52588116e+00, 0.00000000e+00, 5.0000000000, 5.0000000000, 0.0387845027
          19, 0.00000000e+00, 0.00000000e+00, 0.00000000e+00, 0.00000000e+00, 0.00000000e+00, 0.00000000e+00, 0.00000000e+00, 0.00000000e+00, 0.00000000e+00, 0.00000000e+00, 0.00000000e+00, 0.00000000e+00, -9.38594388e-01, 1.59234463e+00, 1.34706647e+00, 4.51377070e+00, 0.00000000e+00, 5.0000000000, 5.0000000000, 0.0408791795
          20, 0.00000000e+00, 0.00000000e+00, 0.00000000e+00, 0.00000000e+00, 0.00000000e+00, 0.00000000e+00, 0.00000000e+00, 0.00000000e+00, 0.00000000e+00, 0.00000000e+00, 0.00000000e+00, 0.00000000e+00, -9.54968736e-01, 1.54752312e+00, 1.32275247e+00, 4.49521535e+00, 0.00000000e+00, 5.0000000000, 5.0000000000, 0.0426166462
          21, 0.00000000e+00, 0.00000000e+00, 0.00000000e+00, 0.00000000e+00, 0.00000000e+00, 0.00000000e+00, 0.00000000e+00, 0.00000000e+00, 0.00000000e+00, 0.00000000e+00, 0.00000000e+00, 0.00000000e+00, -9.76842806e-01, 1.50399083e+00, 1.29762784e+00, 4.47167184e+00, 0.00000000e+00, 5.0000000000, 5.0000000000, 0.0443875022
          22, 0.00000000e+00, 0.00000000e+00, 0.00000000e+00, 0.00000000e+00, 0.00000000e+00, 0.00000000e+00, 0.00000000e+00, 0.00000000e+00, 0.00000000e+00, 0.00000000e+00, 0.00000000e+00, 0.00000000e+00, -1.00411419e+00, 1.46097707e+00, 1.27139818e+00, 4.44335632e+00, 0.00000000e+00, 5.0000000000, 5.0000000000, 0.0462367246
          23, 0.00000000e+00, 0.00000000e+00, 0.00000000e+00, 0.00000000e+00, 0.00000000e+00, 0.00000000e+00, 0.00000000e+00, 0.00000000e+00, 0.00000000e+00, 0.00000000e+00, 0.00000000e+00, 0.00000000e+00, -1.03738737e+00, 1.41720406e+00, 1.24388896e+00, 4.40970928e+00, 0.00000000e+00, 5.0000000000, 5.0000000000, 0.0480920848
          24, 0.00000000e+00, 0.00000000e+00, 0.00000000e+00, 0.00000000e+00, 0.00000000e+00, 0.00000000e+00, 0.00000000e+00, 0.00000000e+00, 0.00000000e+00, 0.00000000e+00, 0.00000000e+00, 0.00000000e+00, -1.07749095e+00, 1.37124924e+00, 1.21510525e+00, 4.36989860e+00, 0.00000000e+00, 5.0000000000, 5.0000000000, 0.0499390466
          25, 0.00000000e+00, 0.00000000e+00, 0.00000000e+00, 0.00000000e+00, 0.00000000e+00, 0.00000000e+00, 0.00000000e+00, 0.00000000e+00, 0.00000000e+00, 0.00000000e+00, 0.00000000e+00, 0.00000000e+00, -1.12506716e+00, 1.32201256e+00, 1.18528830e+00, 4.32327082e+00, 0.00000000e+00, 5.0000000000, 5.0000000000, 0.0518106505
          26, 0.00000000e+00, 0.00000000e+00, 0.00000000e+00, 0.00000000e+00, 0.00000000e+00, 0.00000000e+00, 0.00000000e+00, 0.00000000e+00, 0.00000000e+00, 0.00000000e+00, 0.00000000e+00, 0.00000000e+00, -1.18022581e+00, 1.26917475e+00, 1.15492719e+00, 4.26973712e+00, 0.00000000e+00, 5.0000000000, 5.0000000000, 0.0536655808
          27, 0.00000000e+00, 0.00000000e+00, 0.00000000e+00, 0.00000000e+00, 0.00000000e+00, 0.00000000e+00, 0.00000000e+00, 0.00000000e+00, 0.00000000e+00, 0.00000000e+00, 0.00000000e+00, 0.00000000e+00, -1.24213543e+00, 1.21364941e+00, 1.12472754e+00, 4.21020894e+00, 0.00000000e+00, 5.0000000000, 5.0000000000, 0.0554511243
          28, 0.00000000e+00, 0.00000000e+00, 0.00000000e+00, 0.00000000e+00, 0.00000000e+00, 0.00000000e+00, 0.00000000e+00, 0.00000000e+00, 0.00000000e+00, 0.00000000e+00, 0.00000000e+00, 0.00000000e+00, -1.30840308e+00, 1.15803740e+00, 1.09554875e+00, 4.14720629e+00, 0.00000000e+00, 5.0000000000, 5.0000000000, 0.0573937167
          29, 0.00000000e+00, 0.00000000e+00, 0.00000000e+00, 0.00000000e+00, 0.00000000e+00, 0.00000000e+00, 0.00000000e+00, 0.00000000e+00, 0.00000000e+00, 0.00000000e+00, 0.00000000e+00, 0.00000000e+00, -1.37414336e+00, 1.10695212e+00, 1.06831658e+00, 4.08566899e+00, 0.00000000e+00, 5.0000000000, 5.0000000000, 0.0592826058
          30, 0.00000000e+00, 0.00000000e+00, 0.00000000e+00, 0.00000000e+00, 0.00000000e+00, 0.00000000e+00, 0.00000000e+00, 0.00000000e+00, 0.00000000e+00, 0.00000000e+00, 0.00000000e+00, 0.00000000e+00, -1.43122287e+00, 1.06662283e+00, 1.04392707e+00, 4.03340247e+00, 0.00000000e+00, 5.0000000000, 5.0000000000, 0.0613888920
          31, 0.00000000e+00, 0.00000000e+00, 0.00000000e+00, 0.00000000e+00, 0.00000000e+00, 0.00000000e+00, 0.00000000e+00, 0.00000000e+00, 0.00000000e+00, 0.00000000e+00, 0.00000000e+00, 0.00000000e+00, -1.46964939e+00, 1.04286708e+00, 1.02313208e+00, 3.99938621e+00, 0.00000000e+00, 5.0000000000, 5.0000000000, 0.0639428873
          32, 0.00000000e+00, 0.00000000e+00, 0.00000000e+00, 0.00000000e+00, 0.00000000e+00, 0.00000000e+00, 0.00000000e+00, 0.00000000e+00, 0.00000000e+00, 0.00000000e+00, 0.00000000e+00, 0.00000000e+00, -1.48305664e+00, 1.03783337e+00, 1.00641925e+00, 3.98875909e+00, 0.00000000e+00, 5.0000000000, 5.0000000000, 0.0657598511
          33, 0.00000000e+00, 0.00000000e+00, 0.00000000e+00, 0.00000000e+00, 0.00000000e+00, 0.00000000e+00, 0.00000000e+00, 0.00000000e+00, 0.00000000e+00, 0.00000000e+00, 0.00000000e+00, 0.00000000e+00, -1.47388818e+00, 1.04854333e+00, 9.93906853e-01, 3.99879692e+00, 0.00000000e+00, 5.0000000000, 5.0000000000, 0.0681086977
          34, 0.00000000e+00, 0.00000000e+00, 0.00000000e+00, 0.00000000e+00, 0.00000000e+00, 0.00000000e+00, 0.00000000e+00, 0.00000000e+00, 0.00000000e+00, 0.00000000e+00, 0.00000000e+00, 0.00000000e+00, -1.45108517e+00, 1.06896020e+00, 9.85302678e-01, 4.02132030e+00, 0.00000000e+00, 5.0000000000, 5.0000000000, 0.0699852645
          35, 0.00000000e+00, 0.00000000e+00, 0.00000000e+00, 0.00000000e+00, 0.00000000e+00, 0.00000000e+00, 0.00000000e+00, 0.00000000e+00, 0.00000000e+00, 0.00000000e+00, 0.00000000e+00, 0.00000000e+00, -1.42371455e+00, 1.09310764e+00, 9.79944098e-01, 4.04811688e+00, 0.00000000e+00, 5.0000000000, 5.0000000000, 0.0718581264
          36, 0.00000000e+00, 0.00000000e+00, 0.00000000e+00, 0.00000000e+00, 0.00000000e+00, 0.00000000e+00, 0.00000000e+00, 0.00000000e+00, 0.00000000e+00, 0.00000000e+00, 0.00000000e+00, 0.00000000e+00, -1.39770715e+00, 1.11671764e+00, 9.76932691e-01, 4.07370615e+00, 0.00000000e+00, 5.0000000000, 5.0000000000, 0.0738696701
          37, 0.00000000e+00, 0.00000000e+00, 0.00000000e+00, 0.00000000e+00, 0.00000000e+00, 0.00000000e+00, 0.00000000e+00, 0.00000000e+00, 0.00000000e+00, 0.00000000e+00, 0.00000000e+00, 0.00000000e+00, -1.37603173e+00, 1.13730485e+00, 9.75301519e-01, 4.09524798e+00, 0.00000000e+00, 5.0000000000, 5.0000000000, 0.0763817673
          38, 0.00000000e+00, 0.00000000e+00, 0.00000000e+00, 0.00000000e+00, 0.00000000e+00, 0.00000000e+00, 0.00000000e+00, 0.00000000e+00, 0.00000000e+00, 0.00000000e+00, 0.00000000e+00, 0.00000000e+00, -1.35975067e+00, 1.15368996e+00, 9.74166444e-01, 4.11166226e+00, 0.00000000e+00, 5.0000000000, 5.0000000000, 0.0789575449
          39, 0.00000000e+00, 0.00000000e+00, 0.00000000e+00, 0.00000000e+00, 0.00000000e+00, 0.00000000e+00, 0.00000000e+00, 0.00000000e+00, 0.00000000e+00, 0.00000000e+00, 0.00000000e+00, 0.00000000e+00, -1.34884485e+00, 1.16551829e+00, 9.72819963e-01, 4.12290416e+00, 0.00000000e+00, 5.0000000000, 5.0000000000, 0.0812217862
          40, 0.00000000e+00, 0.00000000e+00, 0.00000000e+00, 0.00000000e+00, 0.00000000e+00, 0.00000000e+00, 0.00000000e+00, 0.00000000e+00, 0.00000000e+00, 0.00000000e+00, 0.00000000e+00, 0.00000000e+00, -1.34269603e+00, 1.17291869e+00, 9.70764731e-01, 4.12952035e+00, 0.00000000e+00, 5.0000000000, 5.0000000000, 0.0835565551
          41, 0.00000000e+00, 0.00000000e+00, 0.00000000e+00, 0.00000000e+00, 0.00000000e+00, 0.00000000e+00, 0.00000000e+00, 0.00000000e+00, 0.00000000e+00, 0.00000000e+00, 0.00000000e+00, 0.00000000e+00, -1.34037672e+00, 1.17626744e+00, 9.67696895e-01, 4.13237086e+00, 0.00000000e+00, 5.0000000000, 5.0000000000, 0.0857460343
          42, 0.00000000e+00, 0.00000000e+00, 0.00000000e+00, 0.00000000e+00, 0.00000000e+00, 0.00000000e+00, 0.00000000e+00, 0.00000000e+00, 0.00000000e+00, 0.00000000e+00, 0.00000000e+00, 0.00000000e+00, -1.34084366e+00, 1.17602970e+00, 9.63461217e-01, 4.13243728e+00, 0.00000000e+00, 5.0000000000, 5.0000000000, 0.0882755632
          43, 0.00000000e+00, 0.00000000e+00, 0.00000000e+00, 0.00000000e+00, 0.00000000e+00, 0.00000000e+00, 0.00000000e+00, 0.00000000e+00, 0.00000000e+00, 0.00000000e+00, 0.00000000e+00, 0.00000000e+00, -1.34308517e+00, 1.17265040e+00, 9.57997728e-01, 4.13067625e+00, 0.00000000e+00, 5.0000000000, 5.0000000000, 0.0908385150
          44, 0.00000000e+00, 0.00000000e+00, 0.00000000e+00, 0.00000000e+00, 0.00000000e+00, 0.00000000e+00, 0.00000000e+00, 0.00000000e+00, 0.00000000e+00, 0.00000000e+00, 0.00000000e+00, 0.00000000e+00, -1.34623343e+00, 1.16648057e+00, 9.51293491e-01, 4.12790912e+00, 0.00000000e+00, 5.0000000000, 5.0000000000, 0.0925785709
          45, 0.00000000e+00, 0.00000000e+00, 0.00000000e+00, 0.00000000e+00, 0.00000000e+00, 0.00000000e+00, 0.00000000e+00, 0.00000000e+00, 0.00000000e+00, 0.00000000e+00, 0.00000000e+00, 0.00000000e+00, -1.34963121e+00, 1.15773066e+00, 9.43346123e-01, 4.12475882e+00, 0.00000000e+00, 5.0000000000, 5.0000000000, 0.0944882138
          46, 0.00000000e+00, 0.00000000e+00, 0.00000000e+00, 0.00000000e+00, 0.00000000e+00, 0.00000000e+00, 0.00000000e+00, 0.00000000e+00, 0.00000000e+00, 0.00000000e+00, 0.00000000e+00, 0.00000000e+00, -1.35284458e+00, 1.14644275e+00, 9.34141530e-01, 4.12164078e+00, 0.00000000e+00, 5.0000000000, 5.0000000000, 0.0968053224
          47, 0.00000000e+00, 0.00000000e+00, 0.00000000e+00, 0.00000000e+00, 0.00000000e+00, 0.00000000e+00, 0.00000000e+00, 0.00000000e+00, 0.00000000e+00, 0.00000000e+00, 0.00000000e+00, 0.00000000e+00, -1.35562502e+00, 1.13247670e+00, 9.23643641e-01, 4.11880288e+00, 0.00000000e+00, 5.0000000000, 5.0000000000, 0.0993874915
          48, 0.00000000e+00, 0.00000000e+00, 0.00000000e+00, 0.00000000e+00, 0.00000000e+00, 0.00000000e+00, 0.00000000e+00, 0.00000000e+00, 0.00000000e+00, 0.00000000e+00, 0.00000000e+00, 0.00000000e+00, -1.35783930e+00, 1.11551078e+00, 9.11794252e-01, 4.11639533e+00, 0.00000000e+00, 5.0000000000, 5.0000000000, 0.1016999945
          49, 0.00000000e+00, 0.00000000e+00, 0.00000000e+00, 0.00000000e+00, 0.00000000e+00, 0.00000000e+00, 0.00000000e+00, 0.00000000e+00, 0.00000000e+00, 0.00000000e+00, 0.00000000e+00, 0.00000000e+00, -1.35939192e+00, 1.09506403e+00, 8.98520352e-01, 4.11454573e+00, 0.00000000e+00, 5.0000000000, 5.0000000000, 0.1036616677
          50, 0.00000000e+00, 0.00000000e+00, 0.00000000e+00, 0.00000000e+00, 0.00000000e+00, 0.00000000e+00, 0.00000000e+00, 0.00000000e+00, 0.00000000e+00, 0.00000000e+00, 0.00000000e+00, 0.00000000e+00, -1.36016149e+00, 1.07055898e+00, 8.83745969e-01, 4.11341852e+00, 0.00000000e+00, 5.0000000000, 5.0000000000, 0.1058129057
          51, 0.00000000e+00, 0.00000000e+00, 0.00000000e+00, 0.00000000e+00, 0.00000000e+00, 0.00000000e+00, 0.00000000e+00, 0.00000000e+00, 0.00000000e+00, 0.00000000e+00, 0.00000000e+00, 0.00000000e+00, -1.35996345e+00, 1.04146526e+00, 8.67408383e-01, 4.11324673e+00, 0.00000000e+00, 5.0000000000, 5.0000000000, 0.1080386128
          52, 0.00000000e+00, 0.00000000e+00, 0.00000000e+00, 0.00000000e+00, 0.00000000e+00, 0.00000000e+00, 0.00000000e+00, 0.00000000e+00, 0.00000000e+00, 0.00000000e+00, 0.00000000e+00, 0.00000000e+00, -1.35854391e+00, 1.00761370e+00, 8.49478629e-01, 4.11433176e+00, 0.00000000e+00, 5.0000000000, 5.0000000000, 0.1101737969
          53, 0.00000000e+00, 0.00000000e+00, 0.00000000e+00, 0.00000000e+00, 0.00000000e+00, 0.00000000e+00, 0.00000000e+00, 0.00000000e+00, 0.00000000e+00, 0.00000000e+00, 0.00000000e+00, 0.00000000e+00, -1.35560506e+00, 9.69862988e-01, 8.29985808e-01, 4.11701100e+00, 0.00000000e+00, 5.0000000000, 5.0000000000, 0.1134257320
          54, 0.00000000e+00, 0.00000000e+00, 0.00000000e+00, 0.00000000e+00, 0.00000000e+00, 0.00000000e+00, 0.00000000e+00, 0.00000000e+00, 0.00000000e+00, 0.00000000e+00, 0.00000000e+00, 0.00000000e+00, -1.35085688e+00, 9.31397921e-01, 8.09045322e-01, 4.12159976e+00, 0.00000000e+00, 5.0000000000, 5.0000000000, 0.1160283468
          55, 0.00000000e+00, 0.00000000e+00, 0.00000000e+00, 0.00000000e+00, 0.00000000e+00, 0.00000000e+00, 0.00000000e+00, 0.00000000e+00, 0.00000000e+00, 0.00000000e+00, 0.00000000e+00, 0.00000000e+00, -1.34408597e+00, 8.99621932e-01, 7.86889056e-01, 4.12831842e+00, 0.00000000e+00, 5.0000000000, 5.0000000000, 0.1186892903
          56, 0.00000000e+00, 0.00000000e+00, 0.00000000e+00, 0.00000000e+00, 0.00000000e+00, 0.00000000e+00, 0.00000000e+00, 0.00000000e+00, 0.00000000e+00, 0.00000000e+00, 0.00000000e+00, 0.00000000e+00, -1.33522475e+00, 8.86635585e-01, 7.63894849e-01, 4.13722334e+00, 0.00000000e+00, 5.0000000000, 5.0000000000, 0.1211181300
          57, 0.00000000e+00, 0.00000000e+00, 0.00000000e+00, 0.00000000e+00, 0.00000000e+00, 0.00000000e+00, 0.00000000e+00, 0.00000000e+00, 0.00000000e+00, 0.00000000e+00, 0.00000000e+00, 0.00000000e+00, -1.32440090e+00, 9.03468200e-01, 7.40609136e-01, 4.14816203e+00, 0.00000000e+00, 5.0000000000, 5.0000000000, 0.1230306707
          58, 0.00000000e+00, 0.00000000e+00, 0.00000000e+00, 0.00000000e+00, 0.00000000e+00, 0.00000000e+00, 0.00000000e+00, 0.00000000e+00, 0.00000000e+00, 0.00000000e+00, 0.00000000e+00, 0.00000000e+00, -1.31195065e+00, 9.49970942e-01, 7.17752882e-01, 4.16076774e+00, 0.00000000e+00, 5.0000000000, 5.0000000000, 0.1251444840
          59, 0.00000000e+00, 0.00000000e+00, 0.00000000e+00, 0.00000000e+00, 0.00000000e+00, 0.00000000e+00, 0.00000000e+00, 0.00000000e+00, 0.00000000e+00, 0.00000000e+00, 0.00000000e+00, 0.00000000e+00, -1.29839353e+00, 1.01486695e+00, 6.96196334e-01, 4.17449280e+00, 0.00000000e+00, 5.0000000000, 5.0000000000, 0.1271564712
          60, 0.00000000e+00, 0.00000000e+00, 0.00000000e+00, 0.00000000e+00, 0.00000000e+00, 0.00000000e+00, 0.00000000e+00, 0.00000000e+00, 0.00000000e+00, 0.00000000e+00, 0.00000000e+00, 0.00000000e+00, -1.28437728e+00, 1.08586726e+00, 6.76893258e-01, 4.18866945e+00, 0.00000000e+00, 5.0000000000, 5.0000000000, 0.1292697006
          61, 0.00000000e+00, 0.00000000e+00, 0.00000000e+00, 0.00000000e+00, 0.00000000e+00, 0.00000000e+00, 0.00000000e+00, 0.00000000e+00, 0.00000000e+00, 0.00000000e+00, 0.00000000e+00, 0.00000000e+00, -1.27061263e+00, 1.15537764e+00, 6.60769824e-01, 4.20257720e+00, 0.00000000e+00, 5.0000000000, 5.0000000000, 0.1315613208
          62, 0.00000000e+00, 0.00000000e+00, 0.00000000e+00, 0.00000000e+00, 0.00000000e+00, 0.00000000e+00, 0.00000000e+00, 0.00000000e+00, 0.00000000e+00, 0.00000000e+00, 0.00000000e+00, 0.00000000e+00, -1.25781590e+00, 1.21999586e+00, 6.48591936e-01, 4.21549951e+00, 0.00000000e+00, 5.0000000000, 5.0000000000, 0.1338214718
          63, 0.00000000e+00, 0.00000000e+00, 0.00000000e+00, 0.00000000e+00, 0.00000000e+00, 0.00000000e+00, 0.00000000e+00, 0.00000000e+00, 0.00000000e+00, 0.00000000e+00, 0.00000000e+00, 0.00000000e+00, -1.24667030e+00, 1.27863112e+00, 6.40856934e-01, 4.22676030e+00, 0.00000000e+00, 5.0000000000, 5.0000000000, 0.1358997668
          64, 0.00000000e+00, 0.00000000e+00, 0.00000000e+00, 0.00000000e+00, 0.00000000e+00, 0.00000000e+00, 0.00000000e+00, 0.00000000e+00, 0.00000000e+00, 0.00000000e+00, 0.00000000e+00, 0.00000000e+00, -1.23780724e+00, 1.33123038e+00, 6.37759700e-01, 4.23574039e+00, 0.00000000e+00, 5.0000000000, 5.0000000000, 0.1381690313
          65, 0.00000000e+00, 0.00000000e+00, 0.00000000e+00, 0.00000000e+00, 0.00000000e+00, 0.00000000e+00, 0.00000000e+00, 0.00000000e+00, 0.00000000e+00, 0.00000000e+00, 0.00000000e+00, 0.00000000e+00, -1.23180319e+00, 1.37813959e+00, 6.39253375e-01, 4.24187900e+00, 0.00000000e+00, 5.0000000000, 5.0000000000, 0.1403456364
          66, 0.00000000e+00, 0.00000000e+00, 0.00000000e+00, 0.00000000e+00, 0.00000000e+00, 0.00000000e+00, 0.00000000e+00, 0.00000000e+00, 0.00000000e+00, 0.00000000e+00, 0.00000000e+00, 0.00000000e+00, -1.22919206e+00, 1.41981503e+00, 6.45171442e-01, 4.24466121e+00, 0.00000000e+00, 5.0000000000, 5.0000000000, 0.1426609045
          67, 0.00000000e+00, 0.00000000e+00, 0.00000000e+00, 0.00000000e+00, 0.00000000e+00, 0.00000000e+00, 0.00000000e+00, 0.00000000e+00, 0.00000000e+00, 0.00000000e+00, 0.00000000e+00, 0.00000000e+00, -1.23048454e+00, 1.45670224e+00, 6.55353163e-01, 4.24359957e+00, 0.00000000e+00, 5.0000000000, 5.0000000000, 0.1452256801
          68, 0.00000000e+00, 0.00000000e+00, 0.00000000e+00, 0.00000000e+00, 0.00000000e+00, 0.00000000e+00, 0.00000000e+00, 0.00000000e+00, 0.00000000e+00, 0.00000000e+00, 0.00000000e+00, 0.00000000e+00, -1.23619146e+00, 1.48919021e+00, 6.69708301e-01, 4.23821304e+00, 0.00000000e+00, 5.0000000000, 5.0000000000, 0.1472146320
          69, 0.00000000e+00, 0.00000000e+00, 0.00000000e+00, 0.00000000e+00, 0.00000000e+00, 0.00000000e+00, 0.00000000e+00, 0.00000000e+00, 0.00000000e+00, 0.00000000e+00, 0.00000000e+00, 0.00000000e+00, -1.24685442e+00, 1.51759713e+00, 6.88187033e-01, 4.22800055e+00, 0.00000000e+00, 5.0000000000, 5.0000000000, 0.1489226412
          70, 0.00000000e+00, 0.00000000e+00, 0.00000000e+00, 0.00000000e+00, 0.00000000e+00, 0.00000000e+00, 0.00000000e+00, 0.00000000e+00, 0.00000000e+00, 0.00000000e+00, 0.00000000e+00, 0.00000000e+00, -1.26308280e+00, 1.54217037e+00, 7.10671610e-01, 4.21241122e+00, 0.00000000e+00, 5.0000000000, 5.0000000000, 0.1507723207
          71, 0.00000000e+00, 0.00000000e+00, 0.00000000e+00, 0.00000000e+00, 0.00000000e+00, 0.00000000e+00, 0.00000000e+00, 0.00000000e+00, 0.00000000e+00, 0.00000000e+00, 0.00000000e+00, 0.00000000e+00, -1.28559620e+00, 1.56309395e+00, 7.36854967e-01, 4.19081291e+00, 0.00000000e+00, 5.0000000000, 5.0000000000, 0.1527237185
          72, 0.00000000e+00, 0.00000000e+00, 0.00000000e+00, 0.00000000e+00, 0.00000000e+00, 0.00000000e+00, 0.00000000e+00, 0.00000000e+00, 0.00000000e+00, 0.00000000e+00, 0.00000000e+00, 0.00000000e+00, -1.31528248e+00, 1.58049516e+00, 7.66154951e-01, 4.16245462e+00, 0.00000000e+00, 5.0000000000, 5.0000000000, 0.1549274386
          73, 0.00000000e+00, 0.00000000e+00, 0.00000000e+00, 0.00000000e+00, 0.00000000e+00, 0.00000000e+00, 0.00000000e+00, 0.00000000e+00, 0.00000000e+00, 0.00000000e+00, 0.00000000e+00, 0.00000000e+00, -1.35326193e+00, 1.59445185e+00, 7.97717595e-01, 4.12643846e+00, 0.00000000e+00, 5.0000000000, 5.0000000000, 0.1570437587
          74, 0.00000000e+00, 0.00000000e+00, 0.00000000e+00, 0.00000000e+00, 0.00000000e+00, 0.00000000e+00, 0.00000000e+00, 0.00000000e+00, 0.00000000e+00, 0.00000000e+00, 0.00000000e+00, 0.00000000e+00, -1.40094530e+00, 1.60499951e+00, 8.30504452e-01, 4.08172766e+00, 0.00000000e+00, 5.0000000000, 5.0000000000, 0.1593561070
          75, 0.00000000e+00, 0.00000000e+00, 0.00000000e+00, 0.00000000e+00, 0.00000000e+00, 0.00000000e+00, 0.00000000e+00, 0.00000000e+00, 0.00000000e+00, 0.00000000e+00, 0.00000000e+00, 0.00000000e+00, -1.46000950e+00, 1.61213555e+00, 8.63414708e-01, 4.02729160e+00, 0.00000000e+00, 5.0000000000, 5.0000000000, 0.1619820797
          76, 0.00000000e+00, 0.00000000e+00, 0.00000000e+00, 0.00000000e+00, 0.00000000e+00, 0.00000000e+00, 0.00000000e+00, 0.00000000e+00, 0.00000000e+00, 0.00000000e+00, 0.00000000e+00, 0.00000000e+00, -1.53197503e+00, 1.61582313e+00, 8.95400033e-01, 3.96270910e+00, 0.00000000e+00, 5.0000000000, 5.0000000000, 0.1642001432
          77, 0.00000000e+00, 0.00000000e+00, 0.00000000e+00, 0.00000000e+00, 0.00000000e+00, 0.00000000e+00, 0.00000000e+00, 0.00000000e+00, 0.00000000e+00, 0.00000000e+00, 0.00000000e+00, 0.00000000e+00, -1.61622811e+00, 1.61599209e+00, 9.25543577e-01, 3.89015603e+00, 0.00000000e+00, 5.0000000000, 5.0000000000, 0.1670166678
          78, 0.00000000e+00, 0.00000000e+00, 0.00000000e+00, 0.00000000e+00, 0.00000000e+00, 0.00000000e+00, 0.00000000e+00, 0.00000000e+00, 0.00000000e+00, 0.00000000e+00, 0.00000000e+00, 0.00000000e+00, -1.70286523e+00, 1.61253642e+00, 9.53093723e-01, 3.81975745e+00, 0.00000000e+00, 5.0000000000, 5.0000000000, 0.1692133310
          79, 0.00000000e+00, 0.00000000e+00, 0.00000000e+00, 0.00000000e+00, 0.00000000e+00, 0.00000000e+00, 0.00000000e+00, 0.00000000e+00, 0.00000000e+00, 0.00000000e+00, 0.00000000e+00, 0.00000000e+00, -1.75761099e+00, 1.60531062e+00, 9.77463467e-01, 3.77715320e+00, 0.00000000e+00, 5.0000000000, 5.0000000000, 0.1713704201
          80, 0.00000000e+00, 0.00000000e+00, 0.00000000e+00, 0.00000000e+00, 0.00000000e+00, 0.00000000e+00, 0.00000000e+00, 0.00000000e+00, 0.00000000e+00, 0.00000000e+00, 0.00000000e+00, 0.00000000e+00, -1.73539041e+00, 1.59412307e+00, 9.98211122e-01, 3.79160630e+00, 0.00000000e+00, 5.0000000000, 5.0000000000, 0.1734231546
          81, 0.00000000e+00, 0.00000000e+00, 0.00000000e+00, 0.00000000e+00, 0.00000000e+00, 0.00000000e+00, 0.00000000e+00, 0.00000000e+00, 0.00000000e+00, 0.00000000e+00, 0.00000000e+00, 0.00000000e+00, -1.65024673e+00, 1.57872489e+00, 1.01501410e+00, 3.85711750e+00, 0.00000000e+00, 5.0000000000, 5.0000000000, 0.1756310246
          82, 0.00000000e+00, 0.00000000e+00, 0.00000000e+00, 0.00000000e+00, 0.00000000e+00, 0.00000000e+00, 0.00000000e+00, 0.00000000e+00, 0.00000000e+00, 0.00000000e+00, 0.00000000e+00, 0.00000000e+00, -1.55014937e+00, 1.55879281e+00, 1.02764137e+00, 3.94170465e+00, 0.00000000e+00, 5.0000000000, 5.0000000000, 0.1778178006
          83, 0.00000000e+00, 0.00000000e+00, 0.00000000e+00, 0.00000000e+00, 0.00000000e+00, 0.00000000e+00, 0.00000000e+00, 0.00000000e+00, 0.00000000e+00, 0.00000000e+00, 0.00000000e+00, 0.00000000e+00, -1.45855859e+00, 1.53390406e+00, 1.03592712e+00, 4.02411943e+00, 0.00000000e+00, 5.0000000000, 5.0000000000, 0.1802420599
          84, 0.00000000e+00, 0.00000000e+00, 0.00000000e+00, 0.00000000e+00, 0.00000000e+00, 0.00000000e+00, 0.00000000e+00, 0.00000000e+00, 0.00000000e+00, 0.00000000e+00, 0.00000000e+00, 0.00000000e+00, -1.38054298e+00, 1.50350119e+00, 1.03974811e+00, 4.09706032e+00, 0.00000000e+00, 5.0000000000, 5.0000000000, 0.1826169115
          85, 0.00000000e+00, 0.00000000e+00, 0.00000000e+00, 0.00000000e+00, 0.00000000e+00, 0.00000000e+00, 0.00000000e+00, 0.00000000e+00, 0.00000000e+00, 0.00000000e+00, 0.00000000e+00, 0.00000000e+00, -1.31558353e+00, 1.46684021e+00, 1.03900421e+00, 4.15928663e+00, 0.00000000e+00, 5.0000000000, 5.0000000000, 0.1844923259
          86, 0.00000000e+00, 0.00000000e+00, 0.00000000e+00, 0.00000000e+00, 0.00000000e+00, 0.00000000e+00, 0.00000000e+00, 0.00000000e+00, 0.00000000e+00, 0.00000000e+00, 0.00000000e+00, 0.00000000e+00, -1.26209935e+00, 1.42291768e+00, 1.03360175e+00, 4.21139593e+00, 0.00000000e+00, 5.0000000000, 5.0000000000, 0.1862735061
          87, 0.00000000e+00, 0.00000000e+00, 0.00000000e+00, 0.00000000e+00, 0.00000000e+00, 0.00000000e+00, 0.00000000e+00, 0.00000000e+00, 0.00000000e+00, 0.00000000e+00, 0.00000000e+00, 0.00000000e+00, -1.21858878e+00, 1.37036776e+00, 1.02343948e+00, 4.25435932e+00, 0.00000000e+00, 5.0000000000, 5.0000000000, 0.1884411115
          88, 0.00000000e+00, 0.00000000e+00, 0.00000000e+00, 0.00000000e+00, 0.00000000e+00, 0.00000000e+00, 0.00000000e+00, 0.00000000e+00, 0.00000000e+00, 0.00000000e+00, 0.00000000e+00, 0.00000000e+00, -1.18383855e+00, 1.30732808e+00, 1.00839641e+00, 4.28909200e+00, 0.00000000e+00, 5.0000000000, 5.0000000000, 0.1915134895
          89, 0.00000000e+00, 0.00000000e+00, 0.00000000e+00, 0.00000000e+00, 0.00000000e+00, 0.00000000e+00, 0.00000000e+00, 0.00000000e+00, 0.00000000e+00, 0.00000000e+00, 0.00000000e+00, 0.00000000e+00, -1.15691334e+00, 1.23131668e+00, 9.88320910e-01, 4.31635084e+00, 0.00000000e+00, 5.0000000000, 5.0000000000, 0.1941550138