TITLE = "SU2 Simulation"
VARIABLES = "Iteration","CL","CD","CSF","CMx","CMy","CMz","CFx","CFy","CFz","CL/CD","AoA","Custom_ObjFunc","Res_Flow[0]","Res_Flow[1]","Res_Flow[2]","Res_Flow[3]","Res_Flow[4]","Linear_Solver_Iterations","CFL_Number","Time(min)"
ZONE T= "Convergence history"
           0, 0.00000000e+00, 0.00000000e+00, 0.00000000e+00, 0.00000000e+00, 0.00000000e+00, 0.00000000e+00, 0.00000000e+00, 0.00000000e+00, 0.00000000e+00, 0.00000000e+00, 0.00000000e+00, 0.00000000e+00, -3.43373958e+00, -8.23975863e-01, -1.23277511e+01, 2.08572544e+00, 0.00000000e+00, 5.0000000000, 5.0000000000, 0.0021936311
           1, 0.00000000e+00, 0.00000000e+00, 0.00000000e+00, 0.00000000e+00, 0.00000000e+00, 0.00000000e+00, 0.00000000e+00, 0.00000000e+00, 0.00000000e+00, 0.00000000e+00, 0.00000000e+00, 0.00000000e+00, -1.01089249e+00, 1.46606631e+00, -6.73052259e-01, 4.42909947e+00, 0.00000000e+00, 5.0000000000, 5.0000000000, 0.0041595258
           2, 0.00000000e+00, 0.00000000e+00, 0.00000000e+00, 0.00000000e+00, 0.00000000e+00, 0.00000000e+00, 0.00000000e+00, 0.00000000e+00, 0.00000000e+00, 0.00000000e+00, 0.00000000e+00, 0.00000000e+00, -8.85035462e-01, 1.58131535e+00, -2.34400305e-01, 4.54887156e+00, 0.00000000e+00, 5.0000000000, 5.0000000000, 0.0063009067
           3, 0.00000000e+00, 0.00000000e+00, 0.00000000e+00, 0.00000000e+00, 0.00000000e+00, 0.00000000e+00, 0.00000000e+00, 0.00000000e+00, 0.00000000e+00, 0.00000000e+00, 0.00000000e+00, 0.00000000e+00, -8.69181052e-01, 1.58975280e+00, -1.02446133e-01, 4.56018806e+00, 0.00000000e+00, 5.0000000000, 5.0000000000, 0.0085420191
           4, 0.00000000e+00, 0.00000000e+00, 0.00000000e+00, 0.00000000e+00, 0.00000000e+00, 0.00000000e+00, 0.00000000e+00, 0.00000000e+00, 0.00000000e+00, 0.00000000e+00, 0.00000000e+00, 0.00000000e+00, -8.83093008e-01, 1.57093320e+00, -9.76055076e-02, 4.54339280e+00, 0.00000000e+00, 5.0000000000, 5.0000000000, 0.0112044969
           5, 0.00000000e+00, 0.00000000e+00, 0.00000000e+00, 0.00000000e+00, 0.00000000e+00, 0.00000000e+00, 0.00000000e+00, 0.00000000e+00, 0.00000000e+00, 0.00000000e+00, 0.00000000e+00, 0.00000000e+00, -9.03169431e-01, 1.54759582e+00, -1.41509228e-01, 4.52157527e+00, 0.00000000e+00, 5.0000000000, 5.0000000000, 0.0140793993
           6, 0.00000000e+00, 0.00000000e+00, 0.00000000e+00, 0.00000000e+00, 0.00000000e+00, 0.00000000e+00, 0.00000000e+00, 0.00000000e+00, 0.00000000e+00, 0.00000000e+00, 0.00000000e+00, 0.00000000e+00, -9.22275487e-01, 1.52626549e+00, -1.78879017e-01, 4.50143478e+00, 0.00000000e+00, 5.0000000000, 5.0000000000, 0.0162428047
           7, 0.00000000e+00, 0.00000000e+00, 0.00000000e+00, 0.00000000e+00, 0.00000000e+00, 0.00000000e+00, 0.00000000e+00, 0.00000000e+00, 0.00000000e+00, 0.00000000e+00, 0.00000000e+00, 0.00000000e+00, -9.38965141e-01, 1.50810813e+00, -1.83971021e-01, 4.48418799e+00, 0.00000000e+00, 5.0000000000, 5.0000000000, 0.0179735299
           8, 0.00000000e+00, 0.00000000e+00, 0.00000000e+00, 0.00000000e+00, 0.00000000e+00, 0.00000000e+00, 0.00000000e+00, 0.00000000e+00, 0.00000000e+00, 0.00000000e+00, 0.00000000e+00, 0.00000000e+00, -9.53464257e-01, 1.49275680e+00, -1.74610940e-01, 4.46944838e+00, 0.00000000e+00, 5.0000000000, 5.0000000000, 0.0196906438
           9, 0.00000000e+00, 0.00000000e+00, 0.00000000e+00, 0.00000000e+00, 0.00000000e+00, 0.00000000e+00, 0.00000000e+00, 0.00000000e+00, 0.00000000e+00, 0.00000000e+00, 0.00000000e+00, 0.00000000e+00, -9.66270355e-01, 1.47954793e+00, -1.73332296e-01, 4.45656327e+00, 0.00000000e+00, 5.0000000000, 5.0000000000, 0.0214554334
          10, 0.00000000e+00, 0.00000000e+00, 0.00000000e+00, 0.00000000e+00, 0.00000000e+00, 0.00000000e+00, 0.00000000e+00, 0.00000000e+00, 0.00000000e+00, 0.00000000e+00, 0.00000000e+00, 0.00000000e+00, -9.77758247e-01, 1.46790451e+00, -1.84640430e-01, 4.44504884e+00, 0.00000000e+00, 5.0000000000, 5.0000000000, 0.0232233593
          11, 0.00000000e+00, 0.00000000e+00, 0.00000000e+00, 0.00000000e+00, 0.00000000e+00, 0.00000000e+00, 0.00000000e+00, 0.00000000e+00, 0.00000000e+00, 0.00000000e+00, 0.00000000e+00, 0.00000000e+00, -9.88204398e-01, 1.45738623e+00, -2.02442812e-01, 4.43458013e+00, 0.00000000e+00, 5.0000000000, 5.0000000000, 0.0249641812
          12, 0.00000000e+00, 0.00000000e+00, 0.00000000e+00, 0.00000000e+00, 0.00000000e+00, 0.00000000e+00, 0.00000000e+00, 0.00000000e+00, 0.00000000e+00, 0.00000000e+00, 0.00000000e+00, 0.00000000e+00, -9.97828971e-01, 1.44769265e+00, -2.19816315e-01, 4.42493280e+00, 0.00000000e+00, 5.0000000000, 5.0000000000, 0.0267075508
          13, 0.00000000e+00, 0.00000000e+00, 0.00000000e+00, 0.00000000e+00, 0.00000000e+00, 0.00000000e+00, 0.00000000e+00, 0.00000000e+00, 0.00000000e+00, 0.00000000e+00, 0.00000000e+00, 0.00000000e+00, -1.00680837e+00, 1.43862910e+00, -2.34310511e-01, 4.41594071e+00, 0.00000000e+00, 5.0000000000, 5.0000000000, 0.0284605800
          14, 0.00000000e+00, 0.00000000e+00, 0.00000000e+00, 0.00000000e+00, 0.00000000e+00, 0.00000000e+00, 0.00000000e+00, 0.00000000e+00, 0.00000000e+00, 0.00000000e+00, 0.00000000e+00, 0.00000000e+00, -1.01525052e+00, 1.43009490e+00, -2.47950264e-01, 4.40750004e+00, 0.00000000e+00, 5.0000000000, 5.0000000000, 0.0302653239
          15, 0.00000000e+00, 0.00000000e+00, 0.00000000e+00, 0.00000000e+00, 0.00000000e+00, 0.00000000e+00, 0.00000000e+00, 0.00000000e+00, 0.00000000e+00, 0.00000000e+00, 0.00000000e+00, 0.00000000e+00, -1.02316058e+00, 1.42208812e+00, -2.63898640e-01, 4.39959302e+00, 0.00000000e+00, 5.0000000000, 5.0000000000, 0.0325140878
          16, 0.00000000e+00, 0.00000000e+00, 0.00000000e+00, 0.00000000e+00, 0.00000000e+00, 0.00000000e+00, 0.00000000e+00, 0.00000000e+00, 0.00000000e+00, 0.00000000e+00, 0.00000000e+00, 0.00000000e+00, -1.03040001e+00, 1.41472856e+00, -2.83495307e-01, 4.39232735e+00, 0.00000000e+00, 5.0000000000, 5.0000000000, 0.0348502323
          17, 0.00000000e+00, 0.00000000e+00, 0.00000000e+00, 0.00000000e+00, 0.00000000e+00, 0.00000000e+00, 0.00000000e+00, 0.00000000e+00, 0.00000000e+00, 0.00000000e+00, 0.00000000e+00, 0.00000000e+00, -1.03664996e+00, 1.40828513e+00, -3.05522699e-01, 4.38597569e+00, 0.00000000e+00, 5.0000000000, 5.0000000000, 0.0367881720
          18, 0.00000000e+00, 0.00000000e+00, 0.00000000e+00, 0.00000000e+00, 0.00000000e+00, 0.00000000e+00, 0.00000000e+00, 0.00000000e+00, 0.00000000e+00, 0.00000000e+00, 0.00000000e+00, 0.00000000e+00, -1.04140125e+00, 1.40319007e+00, -3.26762221e-01, 4.38099433e+00, 0.00000000e+00, 5.0000000000, 5.0000000000, 0.0387845027
          19, 0.00000000e+00, 0.00000000e+00, 0.00000000e+00, 0.00000000e+00, 0.00000000e+00, 0.00000000e+00, 0.00000000e+00, 0.00000000e+00, 0.00000000e+00, 0.00000000e+00, 0.00000000e+00, 0.00000000e+00, -1.04401260e+00, 1.40000812e+00, -3.43336481e-01, 4.37798153e+00, 0.00000000e+00, 5.0000000000, 5.0000000000, 0.0408791795
          20, 0.00000000e+00, 0.00000000e+00, 0.00000000e+00, 0.00000000e+00, 0.00000000e+00, 0.00000000e+00, 0.00000000e+00, 0.00000000e+00, 0.00000000e+00, 0.00000000e+00, 0.00000000e+00, 0.00000000e+00, -1.04387483e+00, 1.39932628e+00, -3.52421486e-01, 4.37753812e+00, 0.00000000e+00, 5.0000000000, 5.0000000000, 0.0426166462
          21, 0.00000000e+00, 0.00000000e+00, 0.00000000e+00, 0.00000000e+00, 0.00000000e+00, 0.00000000e+00, 0.00000000e+00, 0.00000000e+00, 0.00000000e+00, 0.00000000e+00, 0.00000000e+00, 0.00000000e+00, -1.04067081e+00, 1.40155572e+00, -3.53441424e-01, 4.38003019e+00, 0.00000000e+00, 5.0000000000, 5.0000000000, 0.0443875022
          22, 0.00000000e+00, 0.00000000e+00, 0.00000000e+00, 0.00000000e+00, 0.00000000e+00, 0.00000000e+00, 0.00000000e+00, 0.00000000e+00, 0.00000000e+00, 0.00000000e+00, 0.00000000e+00, 0.00000000e+00, -1.03462836e+00, 1.40670274e+00, -3.47806961e-01, 4.38533546e+00, 0.00000000e+00, 5.0000000000, 5.0000000000, 0.0462367246
          23, 0.00000000e+00, 0.00000000e+00, 0.00000000e+00, 0.00000000e+00, 0.00000000e+00, 0.00000000e+00, 0.00000000e+00, 0.00000000e+00, 0.00000000e+00, 0.00000000e+00, 0.00000000e+00, 0.00000000e+00, -1.02660840e+00, 1.41423696e+00, -3.37732045e-01, 4.39271891e+00, 0.00000000e+00, 5.0000000000, 5.0000000000, 0.0480920848
          24, 0.00000000e+00, 0.00000000e+00, 0.00000000e+00, 0.00000000e+00, 0.00000000e+00, 0.00000000e+00, 0.00000000e+00, 0.00000000e+00, 0.00000000e+00, 0.00000000e+00, 0.00000000e+00, 0.00000000e+00, -1.01793589e+00, 1.42317455e+00, -3.25192933e-01, 4.40094739e+00, 0.00000000e+00, 5.0000000000, 5.0000000000, 0.0499390466
          25, 0.00000000e+00, 0.00000000e+00, 0.00000000e+00, 0.00000000e+00, 0.00000000e+00, 0.00000000e+00, 0.00000000e+00, 0.00000000e+00, 0.00000000e+00, 0.00000000e+00, 0.00000000e+00, 0.00000000e+00, -1.01004071e+00, 1.43238029e+00, -3.11526044e-01, 4.40861161e+00, 0.00000000e+00, 5.0000000000, 5.0000000000, 0.0518106505
          26, 0.00000000e+00, 0.00000000e+00, 0.00000000e+00, 0.00000000e+00, 0.00000000e+00, 0.00000000e+00, 0.00000000e+00, 0.00000000e+00, 0.00000000e+00, 0.00000000e+00, 0.00000000e+00, 0.00000000e+00, -1.00410070e+00, 1.44094238e+00, -2.97565543e-01, 4.41448355e+00, 0.00000000e+00, 5.0000000000, 5.0000000000, 0.0536655808
          27, 0.00000000e+00, 0.00000000e+00, 0.00000000e+00, 0.00000000e+00, 0.00000000e+00, 0.00000000e+00, 0.00000000e+00, 0.00000000e+00, 0.00000000e+00, 0.00000000e+00, 0.00000000e+00, 0.00000000e+00, -1.00084945e+00, 1.44843390e+00, -2.84028191e-01, 4.41773772e+00, 0.00000000e+00, 5.0000000000, 5.0000000000, 0.0554511243
          28, 0.00000000e+00, 0.00000000e+00, 0.00000000e+00, 0.00000000e+00, 0.00000000e+00, 0.00000000e+00, 0.00000000e+00, 0.00000000e+00, 0.00000000e+00, 0.00000000e+00, 0.00000000e+00, 0.00000000e+00, -1.00057410e+00, 1.45497160e+00, -2.71841904e-01, 4.41798782e+00, 0.00000000e+00, 5.0000000000, 5.0000000000, 0.0573937167
          29, 0.00000000e+00, 0.00000000e+00, 0.00000000e+00, 0.00000000e+00, 0.00000000e+00, 0.00000000e+00, 0.00000000e+00, 0.00000000e+00, 0.00000000e+00, 0.00000000e+00, 0.00000000e+00, 0.00000000e+00, -1.00324224e+00, 1.46107831e+00, -2.62215828e-01, 4.41518366e+00, 0.00000000e+00, 5.0000000000, 5.0000000000, 0.0592826058
          30, 0.00000000e+00, 0.00000000e+00, 0.00000000e+00, 0.00000000e+00, 0.00000000e+00, 0.00000000e+00, 0.00000000e+00, 0.00000000e+00, 0.00000000e+00, 0.00000000e+00, 0.00000000e+00, 0.00000000e+00, -1.00866633e+00, 1.46742729e+00, -2.56367948e-01, 4.40945688e+00, 0.00000000e+00, 5.0000000000, 5.0000000000, 0.0613888920
          31, 0.00000000e+00, 0.00000000e+00, 0.00000000e+00, 0.00000000e+00, 0.00000000e+00, 0.00000000e+00, 0.00000000e+00, 0.00000000e+00, 0.00000000e+00, 0.00000000e+00, 0.00000000e+00, 0.00000000e+00, -1.01663121e+00, 1.47457446e+00, -2.55191122e-01, 4.40099374e+00, 0.00000000e+00, 5.0000000000, 5.0000000000, 0.0639428873
          32, 0.00000000e+00, 0.00000000e+00, 0.00000000e+00, 0.00000000e+00, 0.00000000e+00, 0.00000000e+00, 0.00000000e+00, 0.00000000e+00, 0.00000000e+00, 0.00000000e+00, 0.00000000e+00, 0.00000000e+00, -1.02694537e+00, 1.48277451e+00, -2.58902702e-01, 4.38998262e+00, 0.00000000e+00, 5.0000000000, 5.0000000000, 0.0657598511
          33, 0.00000000e+00, 0.00000000e+00, 0.00000000e+00, 0.00000000e+00, 0.00000000e+00, 0.00000000e+00, 0.00000000e+00, 0.00000000e+00, 0.00000000e+00, 0.00000000e+00, 0.00000000e+00, 0.00000000e+00, -1.03941915e+00, 1.49192352e+00, -2.66964881e-01, 4.37663758e+00, 0.00000000e+00, 5.0000000000, 5.0000000000, 0.0681086977
          34, 0.00000000e+00, 0.00000000e+00, 0.00000000e+00, 0.00000000e+00, 0.00000000e+00, 0.00000000e+00, 0.00000000e+00, 0.00000000e+00, 0.00000000e+00, 0.00000000e+00, 0.00000000e+00, 0.00000000e+00, -1.05379348e+00, 1.50161165e+00, -2.78109681e-01, 4.36127775e+00, 0.00000000e+00, 5.0000000000, 5.0000000000, 0.0699852645
          35, 0.00000000e+00, 0.00000000e+00, 0.00000000e+00, 0.00000000e+00, 0.00000000e+00, 0.00000000e+00, 0.00000000e+00, 0.00000000e+00, 0.00000000e+00, 0.00000000e+00, 0.00000000e+00, 0.00000000e+00, -1.06964070e+00, 1.51123489e+00, -2.90658543e-01, 4.34444052e+00, 0.00000000e+00, 5.0000000000, 5.0000000000, 0.0718581264
          36, 0.00000000e+00, 0.00000000e+00, 0.00000000e+00, 0.00000000e+00, 0.00000000e+00, 0.00000000e+00, 0.00000000e+00, 0.00000000e+00, 0.00000000e+00, 0.00000000e+00, 0.00000000e+00, 0.00000000e+00, -1.08625795e+00, 1.52011085e+00, -3.02885714e-01, 4.32700638e+00, 0.00000000e+00, 5.0000000000, 5.0000000000, 0.0738696701
          37, 0.00000000e+00, 0.00000000e+00, 0.00000000e+00, 0.00000000e+00, 0.00000000e+00, 0.00000000e+00, 0.00000000e+00, 0.00000000e+00, 0.00000000e+00, 0.00000000e+00, 0.00000000e+00, 0.00000000e+00, -1.10257736e+00, 1.52756556e+00, -3.13406373e-01, 4.31030144e+00, 0.00000000e+00, 5.0000000000, 5.0000000000, 0.0763817673
          38, 0.00000000e+00, 0.00000000e+00, 0.00000000e+00, 0.00000000e+00, 0.00000000e+00, 0.00000000e+00, 0.00000000e+00, 0.00000000e+00, 0.00000000e+00, 0.00000000e+00, 0.00000000e+00, 0.00000000e+00, -1.11713866e+00, 1.53298283e+00, -3.21411321e-01, 4.29611175e+00, 0.00000000e+00, 5.0000000000, 5.0000000000, 0.0789575449
          39, 0.00000000e+00, 0.00000000e+00, 0.00000000e+00, 0.00000000e+00, 0.00000000e+00, 0.00000000e+00, 0.00000000e+00, 0.00000000e+00, 0.00000000e+00, 0.00000000e+00, 0.00000000e+00, 0.00000000e+00, -1.12819659e+00, 1.53582258e+00, -3.26694355e-01, 4.28650650e+00, 0.00000000e+00, 5.0000000000, 5.0000000000, 0.0812217862
          40, 0.00000000e+00, 0.00000000e+00, 0.00000000e+00, 0.00000000e+00, 0.00000000e+00, 0.00000000e+00, 0.00000000e+00, 0.00000000e+00, 0.00000000e+00, 0.00000000e+00, 0.00000000e+00, 0.00000000e+00, -1.13402756e+00, 1.53562053e+00, -3.29494996e-01, 4.28339623e+00, 0.00000000e+00, 5.0000000000, 5.0000000000, 0.0835565551
          41, 0.00000000e+00, 0.00000000e+00, 0.00000000e+00, 0.00000000e+00, 0.00000000e+00, 0.00000000e+00, 0.00000000e+00, 0.00000000e+00, 0.00000000e+00, 0.00000000e+00, 0.00000000e+00, 0.00000000e+00, -1.13340457e+00, 1.53198002e+00, -3.30242167e-01, 4.28791741e+00, 0.00000000e+00, 5.0000000000, 5.0000000000, 0.0857460343
          42, 0.00000000e+00, 0.00000000e+00, 0.00000000e+00, 0.00000000e+00, 0.00000000e+00, 0.00000000e+00, 0.00000000e+00, 0.00000000e+00, 0.00000000e+00, 0.00000000e+00, 0.00000000e+00, 0.00000000e+00, -1.12603951e+00, 1.52456386e+00, -3.29389915e-01, 4.29996625e+00, 0.00000000e+00, 5.0000000000, 5.0000000000, 0.0882755632
          43, 0.00000000e+00, 0.00000000e+00, 0.00000000e+00, 0.00000000e+00, 0.00000000e+00, 0.00000000e+00, 0.00000000e+00, 0.00000000e+00, 0.00000000e+00, 0.00000000e+00, 0.00000000e+00, 0.00000000e+00, -1.11271904e+00, 1.51309029e+00, -3.27395838e-01, 4.31821228e+00, 0.00000000e+00, 5.0000000000, 5.0000000000, 0.0908385150
          44, 0.00000000e+00, 0.00000000e+00, 0.00000000e+00, 0.00000000e+00, 0.00000000e+00, 0.00000000e+00, 0.00000000e+00, 0.00000000e+00, 0.00000000e+00, 0.00000000e+00, 0.00000000e+00, 0.00000000e+00, -1.09503623e+00, 1.49733465e+00, -3.24776493e-01, 4.34058351e+00, 0.00000000e+00, 5.0000000000, 5.0000000000, 0.0925785709
          45, 0.00000000e+00, 0.00000000e+00, 0.00000000e+00, 0.00000000e+00, 0.00000000e+00, 0.00000000e+00, 0.00000000e+00, 0.00000000e+00, 0.00000000e+00, 0.00000000e+00, 0.00000000e+00, 0.00000000e+00, -1.07489704e+00, 1.47713718e+00, -3.22161483e-01, 4.36488920e+00, 0.00000000e+00, 5.0000000000, 5.0000000000, 0.0944882138
          46, 0.00000000e+00, 0.00000000e+00, 0.00000000e+00, 0.00000000e+00, 0.00000000e+00, 0.00000000e+00, 0.00000000e+00, 0.00000000e+00, 0.00000000e+00, 0.00000000e+00, 0.00000000e+00, 0.00000000e+00, -1.05407717e+00, 1.45241688e+00, -3.20254191e-01, 4.38926167e+00, 0.00000000e+00, 5.0000000000, 5.0000000000, 0.0968053224
          47, 0.00000000e+00, 0.00000000e+00, 0.00000000e+00, 0.00000000e+00, 0.00000000e+00, 0.00000000e+00, 0.00000000e+00, 0.00000000e+00, 0.00000000e+00, 0.00000000e+00, 0.00000000e+00, 0.00000000e+00, -1.03397499e+00, 1.42319206e+00, -3.19637599e-01, 4.41233345e+00, 0.00000000e+00, 5.0000000000, 5.0000000000, 0.0993874915
          48, 0.00000000e+00, 0.00000000e+00, 0.00000000e+00, 0.00000000e+00, 0.00000000e+00, 0.00000000e+00, 0.00000000e+00, 0.00000000e+00, 0.00000000e+00, 0.00000000e+00, 0.00000000e+00, 0.00000000e+00, -1.01554864e+00, 1.38960944e+00, -3.20605242e-01, 4.43322892e+00, 0.00000000e+00, 5.0000000000, 5.0000000000, 0.1016999945
          49, 0.00000000e+00, 0.00000000e+00, 0.00000000e+00, 0.00000000e+00, 0.00000000e+00, 0.00000000e+00, 0.00000000e+00, 0.00000000e+00, 0.00000000e+00, 0.00000000e+00, 0.00000000e+00, 0.00000000e+00, -9.99361311e-01, 1.35198508e+00, -3.23159469e-01, 4.45147386e+00, 0.00000000e+00, 5.0000000000, 5.0000000000, 0.1036616677
          50, 0.00000000e+00, 0.00000000e+00, 0.00000000e+00, 0.00000000e+00, 0.00000000e+00, 0.00000000e+00, 0.00000000e+00, 0.00000000e+00, 0.00000000e+00, 0.00000000e+00, 0.00000000e+00, 0.00000000e+00, -9.85667820e-01, 1.31086201e+00, -3.27127204e-01, 4.46688838e+00, 0.00000000e+00, 5.0000000000, 5.0000000000, 0.1058129057
          51, 0.00000000e+00, 0.00000000e+00, 0.00000000e+00, 0.00000000e+00, 0.00000000e+00, 0.00000000e+00, 0.00000000e+00, 0.00000000e+00, 0.00000000e+00, 0.00000000e+00, 0.00000000e+00, 0.00000000e+00, -9.74505216e-01, 1.26709084e+00, -3.32303747e-01, 4.47949123e+00, 0.00000000e+00, 5.0000000000, 5.0000000000, 0.1080386128
          52, 0.00000000e+00, 0.00000000e+00, 0.00000000e+00, 0.00000000e+00, 0.00000000e+00, 0.00000000e+00, 0.00000000e+00, 0.00000000e+00, 0.00000000e+00, 0.00000000e+00, 0.00000000e+00, 0.00000000e+00, -9.65773119e-01, 1.22193849e+00, -3.38538093e-01, 4.48942177e+00, 0.00000000e+00, 5.0000000000, 5.0000000000, 0.1101737969
          53, 0.00000000e+00, 0.00000000e+00, 0.00000000e+00, 0.00000000e+00, 0.00000000e+00, 0.00000000e+00, 0.00000000e+00, 0.00000000e+00, 0.00000000e+00, 0.00000000e+00, 0.00000000e+00, 0.00000000e+00, -9.59300139e-01, 1.17722218e+00, -3.45681375e-01, 4.49687842e+00, 0.00000000e+00, 5.0000000000, 5.0000000000, 0.1134257320
          54, 0.00000000e+00, 0.00000000e+00, 0.00000000e+00, 0.00000000e+00, 0.00000000e+00, 0.00000000e+00, 0.00000000e+00, 0.00000000e+00, 0.00000000e+00, 0.00000000e+00, 0.00000000e+00, 0.00000000e+00, -9.54897080e-01, 1.13544046e+00, -3.53418209e-01, 4.50207055e+00, 0.00000000e+00, 5.0000000000, 5.0000000000, 0.1160283468
          55, 0.00000000e+00, 0.00000000e+00, 0.00000000e+00, 0.00000000e+00, 0.00000000e+00, 0.00000000e+00, 0.00000000e+00, 0.00000000e+00, 0.00000000e+00, 0.00000000e+00, 0.00000000e+00, 0.00000000e+00, -9.52398093e-01, 1.09981193e+00, -3.61082858e-01, 4.50518171e+00, 0.00000000e+00, 5.0000000000, 5.0000000000, 0.1186892903
          56, 0.00000000e+00, 0.00000000e+00, 0.00000000e+00, 0.00000000e+00, 0.00000000e+00, 0.00000000e+00, 0.00000000e+00, 0.00000000e+00, 0.00000000e+00, 0.00000000e+00, 0.00000000e+00, 0.00000000e+00, -9.51690580e-01, 1.07403425e+00, -3.67626985e-01, 4.50634305e+00, 0.00000000e+00, 5.0000000000, 5.0000000000, 0.1211181300
          57, 0.00000000e+00, 0.00000000e+00, 0.00000000e+00, 0.00000000e+00, 0.00000000e+00, 0.00000000e+00, 0.00000000e+00, 0.00000000e+00, 0.00000000e+00, 0.00000000e+00, 0.00000000e+00, 0.00000000e+00, -9.52734787e-01, 1.06155248e+00, -3.71784589e-01, 4.50561601e+00, 0.00000000e+00, 5.0000000000, 5.0000000000, 0.1230306707
          58, 0.00000000e+00, 0.00000000e+00, 0.00000000e+00, 0.00000000e+00, 0.00000000e+00, 0.00000000e+00, 0.00000000e+00, 0.00000000e+00, 0.00000000e+00, 0.00000000e+00, 0.00000000e+00, 0.00000000e+00, -9.55573499e-01, 1.06439955e+00, -3.72461877e-01, 4.50298424e+00, 0.00000000e+00, 5.0000000000, 5.0000000000, 0.1251444840
          59, 0.00000000e+00, 0.00000000e+00, 0.00000000e+00, 0.00000000e+00, 0.00000000e+00, 0.00000000e+00, 0.00000000e+00, 0.00000000e+00, 0.00000000e+00, 0.00000000e+00, 0.00000000e+00, 0.00000000e+00, -9.60333128e-01, 1.08224840e+00, -3.69238171e-01, 4.49835384e+00, 0.00000000e+00, 5.0000000000, 5.0000000000, 0.1271564712
          60, 0.00000000e+00, 0.00000000e+00, 0.00000000e+00, 0.00000000e+00, 0.00000000e+00, 0.00000000e+00, 0.00000000e+00, 0.00000000e+00, 0.00000000e+00, 0.00000000e+00, 0.00000000e+00, 0.00000000e+00, -9.67217366e-01, 1.11245852e+00, -3.62634072e-01, 4.49156103e+00, 0.00000000e+00, 5.0000000000, 5.0000000000, 0.1292697006
          61, 0.00000000e+00, 0.00000000e+00, 0.00000000e+00, 0.00000000e+00, 0.00000000e+00, 0.00000000e+00, 0.00000000e+00, 0.00000000e+00, 0.00000000e+00, 0.00000000e+00, 0.00000000e+00, 0.00000000e+00, -9.76494075e-01, 1.15110387e+00, -3.53944499e-01, 4.48238696e+00, 0.00000000e+00, 5.0000000000, 5.0000000000, 0.1315613208
          62, 0.00000000e+00, 0.00000000e+00, 0.00000000e+00, 0.00000000e+00, 0.00000000e+00, 0.00000000e+00, 0.00000000e+00, 0.00000000e+00, 0.00000000e+00, 0.00000000e+00, 0.00000000e+00, 0.00000000e+00, -9.88475594e-01, 1.19417128e+00, -3.44766719e-01, 4.47057956e+00, 0.00000000e+00, 5.0000000000, 5.0000000000, 0.1338214718
          63, 0.00000000e+00, 0.00000000e+00, 0.00000000e+00, 0.00000000e+00, 0.00000000e+00, 0.00000000e+00, 0.00000000e+00, 0.00000000e+00, 0.00000000e+00, 0.00000000e+00, 0.00000000e+00, 0.00000000e+00, -1.00349178e+00, 1.23828037e+00, -3.36487242e-01, 4.45588293e+00, 0.00000000e+00, 5.0000000000, 5.0000000000, 0.1358997668
          64, 0.00000000e+00, 0.00000000e+00, 0.00000000e+00, 0.00000000e+00, 0.00000000e+00, 0.00000000e+00, 0.00000000e+00, 0.00000000e+00, 0.00000000e+00, 0.00000000e+00, 0.00000000e+00, 0.00000000e+00, -1.02185479e+00, 1.28087955e+00, -3.29998980e-01, 4.43807419e+00, 0.00000000e+00, 5.0000000000, 5.0000000000, 0.1381690313
          65, 0.00000000e+00, 0.00000000e+00, 0.00000000e+00, 0.00000000e+00, 0.00000000e+00, 0.00000000e+00, 0.00000000e+00, 0.00000000e+00, 0.00000000e+00, 0.00000000e+00, 0.00000000e+00, 0.00000000e+00, -1.04381401e+00, 1.32015997e+00, -3.25627211e-01, 4.41700870e+00, 0.00000000e+00, 5.0000000000, 5.0000000000, 0.1403456364
          66, 0.00000000e+00, 0.00000000e+00, 0.00000000e+00, 0.00000000e+00, 0.00000000e+00, 0.00000000e+00, 0.00000000e+00, 0.00000000e+00, 0.00000000e+00, 0.00000000e+00, 0.00000000e+00, 0.00000000e+00, -1.06950731e+00, 1.35490034e+00, -3.23116343e-01, 4.39266342e+00, 0.00000000e+00, 5.0000000000, 5.0000000000, 0.1426609045
          67, 0.00000000e+00, 0.00000000e+00, 0.00000000e+00, 0.00000000e+00, 0.00000000e+00, 0.00000000e+00, 0.00000000e+00, 0.00000000e+00, 0.00000000e+00, 0.00000000e+00, 0.00000000e+00, 0.00000000e+00, -1.09888837e+00, 1.38433592e+00, -3.21925254e-01, 4.36520637e+00, 0.00000000e+00, 5.0000000000, 5.0000000000, 0.1452256801
          68, 0.00000000e+00, 0.00000000e+00, 0.00000000e+00, 0.00000000e+00, 0.00000000e+00, 0.00000000e+00, 0.00000000e+00, 0.00000000e+00, 0.00000000e+00, 0.00000000e+00, 0.00000000e+00, 0.00000000e+00, -1.13171174e+00, 1.40807079e+00, -3.21448182e-01, 4.33498314e+00, 0.00000000e+00, 5.0000000000, 5.0000000000, 0.1472146320
          69, 0.00000000e+00, 0.00000000e+00, 0.00000000e+00, 0.00000000e+00, 0.00000000e+00, 0.00000000e+00, 0.00000000e+00, 0.00000000e+00, 0.00000000e+00, 0.00000000e+00, 0.00000000e+00, 0.00000000e+00, -1.16754747e+00, 1.42605583e+00, -3.21230853e-01, 4.30247414e+00, 0.00000000e+00, 5.0000000000, 5.0000000000, 0.1489226412
          70, 0.00000000e+00, 0.00000000e+00, 0.00000000e+00, 0.00000000e+00, 0.00000000e+00, 0.00000000e+00, 0.00000000e+00, 0.00000000e+00, 0.00000000e+00, 0.00000000e+00, 0.00000000e+00, 0.00000000e+00, -1.20589141e+00, 1.43858491e+00, -3.21090727e-01, 4.26815587e+00, 0.00000000e+00, 5.0000000000, 5.0000000000, 0.1507723207
          71, 0.00000000e+00, 0.00000000e+00, 0.00000000e+00, 0.00000000e+00, 0.00000000e+00, 0.00000000e+00, 0.00000000e+00, 0.00000000e+00, 0.00000000e+00, 0.00000000e+00, 0.00000000e+00, 0.00000000e+00, -1.24638554e+00, 1.44628587e+00, -3.21121086e-01, 4.23227646e+00, 0.00000000e+00, 5.0000000000, 5.0000000000, 0.1527237185
          72, 0.00000000e+00, 0.00000000e+00, 0.00000000e+00, 0.00000000e+00, 0.00000000e+00, 0.00000000e+00, 0.00000000e+00, 0.00000000e+00, 0.00000000e+00, 0.00000000e+00, 0.00000000e+00, 0.00000000e+00, -1.28910889e+00, 1.45007674e+00, -3.21581298e-01, 4.19461244e+00, 0.00000000e+00, 5.0000000000, 5.0000000000, 0.1549274386
          73, 0.00000000e+00, 0.00000000e+00, 0.00000000e+00, 0.00000000e+00, 0.00000000e+00, 0.00000000e+00, 0.00000000e+00, 0.00000000e+00, 0.00000000e+00, 0.00000000e+00, 0.00000000e+00, 0.00000000e+00, -1.33484321e+00, 1.45106161e+00, -3.22783877e-01, 4.15430649e+00, 0.00000000e+00, 5.0000000000, 5.0000000000, 0.1570437587
          74, 0.00000000e+00, 0.00000000e+00, 0.00000000e+00, 0.00000000e+00, 0.00000000e+00, 0.00000000e+00, 0.00000000e+00, 0.00000000e+00, 0.00000000e+00, 0.00000000e+00, 0.00000000e+00, 0.00000000e+00, -1.38518902e+00, 1.45036290e+00, -3.25036454e-01, 4.10988932e+00, 0.00000000e+00, 5.0000000000, 5.0000000000, 0.1593561070
          75, 0.00000000e+00, 0.00000000e+00, 0.00000000e+00, 0.00000000e+00, 0.00000000e+00, 0.00000000e+00, 0.00000000e+00, 0.00000000e+00, 0.00000000e+00, 0.00000000e+00, 0.00000000e+00, 0.00000000e+00, -1.44246955e+00, 1.44891753e+00, -3.28632894e-01, 4.05951787e+00, 0.00000000e+00, 5.0000000000, 5.0000000000, 0.1619820797
          76, 0.00000000e+00, 0.00000000e+00, 0.00000000e+00, 0.00000000e+00, 0.00000000e+00, 0.00000000e+00, 0.00000000e+00, 0.00000000e+00, 0.00000000e+00, 0.00000000e+00, 0.00000000e+00, 0.00000000e+00, -1.50934663e+00, 1.44730187e+00, -3.33849555e-01, 4.00150450e+00, 0.00000000e+00, 5.0000000000, 5.0000000000, 0.1642001432
          77, 0.00000000e+00, 0.00000000e+00, 0.00000000e+00, 0.00000000e+00, 0.00000000e+00, 0.00000000e+00, 0.00000000e+00, 0.00000000e+00, 0.00000000e+00, 0.00000000e+00, 0.00000000e+00, 0.00000000e+00, -1.58769694e+00, 1.44565393e+00, -3.40906323e-01, 3.93551794e+00, 0.00000000e+00, 5.0000000000, 5.0000000000, 0.1670166678
          78, 0.00000000e+00, 0.00000000e+00, 0.00000000e+00, 0.00000000e+00, 0.00000000e+00, 0.00000000e+00, 0.00000000e+00, 0.00000000e+00, 0.00000000e+00, 0.00000000e+00, 0.00000000e+00, 0.00000000e+00, -1.67487110e+00, 1.44371920e+00, -3.49869235e-01, 3.86556867e+00, 0.00000000e+00, 5.0000000000, 5.0000000000, 0.1692133310
          79, 0.00000000e+00, 0.00000000e+00, 0.00000000e+00, 0.00000000e+00, 0.00000000e+00, 0.00000000e+00, 0.00000000e+00, 0.00000000e+00, 0.00000000e+00, 0.00000000e+00, 0.00000000e+00, 0.00000000e+00, -1.75282576e+00, 1.44098853e+00, -3.60512402e-01, 3.80607156e+00, 0.00000000e+00, 5.0000000000, 5.0000000000, 0.1713704201
          80, 0.00000000e+00, 0.00000000e+00, 0.00000000e+00, 0.00000000e+00, 0.00000000e+00, 0.00000000e+00, 0.00000000e+00, 0.00000000e+00, 0.00000000e+00, 0.00000000e+00, 0.00000000e+00, 0.00000000e+00, -1.77784690e+00, 1.43686183e+00, -3.72218258e-01, 3.78415070e+00, 0.00000000e+00, 5.0000000000, 5.0000000000, 0.1734231546
          81, 0.00000000e+00, 0.00000000e+00, 0.00000000e+00, 0.00000000e+00, 0.00000000e+00, 0.00000000e+00, 0.00000000e+00, 0.00000000e+00, 0.00000000e+00, 0.00000000e+00, 0.00000000e+00, 0.00000000e+00, -1.72528518e+00, 1.43078275e+00, -3.84032414e-01, 3.81633547e+00, 0.00000000e+00, 5.0000000000, 5.0000000000, 0.1756310246
          82, 0.00000000e+00, 0.00000000e+00, 0.00000000e+00, 0.00000000e+00, 0.00000000e+00, 0.00000000e+00, 0.00000000e+00, 0.00000000e+00, 0.00000000e+00, 0.00000000e+00, 0.00000000e+00, 0.00000000e+00, -1.63298503e+00, 1.42232205e+00, -3.94939116e-01, 3.88470695e+00, 0.00000000e+00, 5.0000000000, 5.0000000000, 0.1778178006
          83, 0.00000000e+00, 0.00000000e+00, 0.00000000e+00, 0.00000000e+00, 0.00000000e+00, 0.00000000e+00, 0.00000000e+00, 0.00000000e+00, 0.00000000e+00, 0.00000000e+00, 0.00000000e+00, 0.00000000e+00, -1.53945970e+00, 1.41121427e+00, -4.04079928e-01, 3.96210483e+00, 0.00000000e+00, 5.0000000000, 5.0000000000, 0.1802420599
          84, 0.00000000e+00, 0.00000000e+00, 0.00000000e+00, 0.00000000e+00, 0.00000000e+00, 0.00000000e+00, 0.00000000e+00, 0.00000000e+00, 0.00000000e+00, 0.00000000e+00, 0.00000000e+00, 0.00000000e+00, -1.45784274e+00, 1.39736290e+00, -4.11016806e-01, 4.03420890e+00, 0.00000000e+00, 5.0000000000, 5.0000000000, 0.1826169115
          85, 0.00000000e+00, 0.00000000e+00, 0.00000000e+00, 0.00000000e+00, 0.00000000e+00, 0.00000000e+00, 0.00000000e+00, 0.00000000e+00, 0.00000000e+00, 0.00000000e+00, 0.00000000e+00, 0.00000000e+00, -1.38973339e+00, 1.38082838e+00, -4.16008120e-01, 4.09665839e+00, 0.00000000e+00, 5.0000000000, 5.0000000000, 0.1844923259
          86, 0.00000000e+00, 0.00000000e+00, 0.00000000e+00, 0.00000000e+00, 0.00000000e+00, 0.00000000e+00, 0.00000000e+00, 0.00000000e+00, 0.00000000e+00, 0.00000000e+00, 0.00000000e+00, 0.00000000e+00, -1.33373482e+00, 1.36180727e+00, -4.20049279e-01, 4.14910683e+00, 0.00000000e+00, 5.0000000000, 5.0000000000, 0.1862735061
          87, 0.00000000e+00, 0.00000000e+00, 0.00000000e+00, 0.00000000e+00, 0.00000000e+00, 0.00000000e+00, 0.00000000e+00, 0.00000000e+00, 0.00000000e+00, 0.00000000e+00, 0.00000000e+00, 0.00000000e+00, -1.28803290e+00, 1.34060560e+00, -4.24663139e-01, 4.19242863e+00, 0.00000000e+00, 5.0000000000, 5.0000000000, 0.1884411115
          88, 0.00000000e+00, 0.00000000e+00, 0.00000000e+00, 0.00000000e+00, 0.00000000e+00, 0.00000000e+00, 0.00000000e+00, 0.00000000e+00, 0.00000000e+00, 0.00000000e+00, 0.00000000e+00, 0.00000000e+00, -1.25100993e+00, 1.31760573e+00, -4.31569997e-01, 4.22773708e+00, 0.00000000e+00, 5.0000000000, 5.0000000000, 0.1915134895
          89, 0.00000000e+00, 0.00000000e+00, 0.00000000e+00, 0.00000000e+00, 0.00000000e+00, 0.00000000e+00, 0.00000000e+00, 0.00000000e+00, 0.00000000e+00, 0.00000000e+00, 0.00000000e+00, 0.00000000e+00, -1.22133498e+00, 1.29322554e+00, -4.42397954e-01, 4.25608253e+00, 0.00000000e+00, 5.0000000000, 5.0000000000, 0.1941550138