TITLE = "Visualization of the volumetric solution"
VARIABLES = "x","y","Density","Momentum_x","Momentum_y","Energy","Pressure","Temperature","Mach","C<sub>p</sub>","Roe_Dissipation"
ZONE NODES= 3200, ELEMENTS= 3081, DATAPACKING=POINT, ZONETYPE=FEQUADRILATERAL
-2.000000e+00	1.250000e+00	1.225097e+00	4.166161e+01	-5.727541e-11	2.540230e+05	1.013258e+05	2.881245e+02	9.993709e-02	1.185260e-03	0.000000e+00	
-2.000000e+00	1.218354e+00	1.225097e+00	4.166161e+01	-6.291150e-09	2.540230e+05	1.013258e+05	2.881245e+02	9.993709e-02	1.185259e-03	0.000000e+00	
-1.948718e+00	1.218354e+00	1.225097e+00	4.166161e+01	-1.511676e-08	2.540230e+05	1.013258e+05	2.881245e+02	9.993709e-02	1.185251e-03	0.000000e+00	
-1.948718e+00	1.250000e+00	1.225097e+00	4.166161e+01	-1.657059e-09	2.540230e+05	1.013258e+05	2.881245e+02	9.993709e-02	1.185252e-03	0.000000e+00	
-2.000000e+00	1.186709e+00	1.225097e+00	4.166161e+01	-6.344571e-09	2.540230e+05	1.013258e+05	2.881245e+02	9.993709e-02	1.185259e-03	0.000000e+00	
-1.948718e+00	1.186709e+00	1.225097e+00	4.166161e+01	-2.088436e-08	2.540230e+05	1.013258e+05	2.881245e+02	9.993709e-02	1.185251e-03	0.000000e+00	
-2.000000e+00	1.155063e+00	1.225097e+00	4.166161e+01	-3.862062e-09	2.540230e+05	1.013258e+05	2.881245e+02	9.993709e-02	1.185258e-03	0.000000e+00	
-1.948718e+00	1.155063e+00	1.225097e+00	4.166161e+01	-2.247687e-08	2.540230e+05	1.013258e+05	2.881245e+02	9.993709e-02	1.185251e-03	0.000000e+00	
-2.000000e+00	1.123418e+00	1.225097e+00	4.166161e+01	-1.405894e-09	2.540230e+05	1.013258e+05	2.881245e+02	9.993709e-02	1.185257e-03	0.000000e+00	
-1.948718e+00	1.123418e+00	1.225097e+00	4.166161e+01	-2.225219e-08	2.540230e+05	1.013258e+05	2.881245e+02	9.993709e-02	1.185250e-03	0.000000e+00	
-2.000000e+00	1.091772e+00	1.225097e+00	4.166161e+01	-2.067704e-10	2.540230e+05	1.013258e+05	2.881245e+02	9.993709e-02	1.185257e-03	0.000000e+00	
-1.948718e+00	1.091772e+00	1.225097e+00	4.166161e+01	-2.273766e-08	2.540230e+05	1.013258e+05	2.881245e+02	9.993709e-02	1.185250e-03	0.000000e+00	
-2.000000e+00	1.060127e+00	1.225097e+00	4.166161e+01	1.274522e-12	2.540230e+05	1.013258e+05	2.881245e+02	9.993709e-02	1.185256e-03	0.000000e+00	
-1.948718e+00	1.060127e+00	1.225097e+00	4.166161e+01	-2.416033e-08	2.540230e+05	1.013258e+05	2.881245e+02	9.993709e-02	1.185249e-03	0.000000e+00	
-2.000000e+00	1.028481e+00	1.225097e+00	4.166161e+01	-1.841085e-10	2.540230e+05	1.013258e+05	2.881245e+02	9.993709e-02	1.185255e-03	0.000000e+00	
-1.948718e+00	1.028481e+00	1.225097e+00	4.166161e+01	-2.616039e-08	2.540230e+05	1.013258e+05	2.881245e+02	9.993709e-02	1.185248e-03	0.000000e+00	
-2.000000e+00	9.968354e-01	1.225097e+00	4.166161e+01	-3.375149e-10	2.540230e+05	1.013258e+05	2.881245e+02	9.993709e-02	1.185254e-03	0.000000e+00	
-1.948718e+00	9.968354e-01	1.225097e+00	4.166161e+01	-2.815689e-08	2.540230e+05	1.013258e+05	2.881245e+02	9.993709e-02	1.185247e-03	0.000000e+00	
-2.000000e+00	9.651899e-01	1.225097e+00	4.166161e+01	-3.627423e-10	2.540230e+05	1.013258e+05	2.881245e+02	9.993709e-02	1.185254e-03	0.000000e+00	
-1.948718e+00	9.651899e-01	1.225097e+00	4.166161e+01	-2.992507e-08	2.540230e+05	1.013258e+05	2.881245e+02	9.993709e-02	1.185247e-03	0.000000e+00	
-2.000000e+00	9.335443e-01	1.225097e+00	4.166161e+01	-3.141902e-10	2.540230e+05	1.013258e+05	2.881245e+02	9.993709e-02	1.185253e-03	0.000000e+00	
-1.948718e+00	9.335443e-01	1.225097e+00	4.166161e+01	-3.143244e-08	2.540230e+05	1.013258e+05	2.881245e+02	9.993709e-02	1.185246e-03	0.000000e+00	
-2.000000e+00	9.018987e-01	1.225097e+00	4.166161e+01	-2.664018e-10	2.540230e+05	1.013258e+05	2.881245e+02	9.993709e-02	1.185252e-03	0.000000e+00	
-1.948718e+00	9.018987e-01	1.225097e+00	4.166161e+01	-3.274984e-08	2.540230e+05	1.013258e+05	2.881245e+02	9.993709e-02	1.185245e-03	0.000000e+00	
-2.000000e+00	8.702532e-01	1.225097e+00	4.166161e+01	-2.484464e-10	2.540230e+05	1.013258e+05	2.881245e+02	9.993709e-02	1.185251e-03	0.000000e+00	
-1.948718e+00	8.702532e-01	1.225097e+00	4.166161e+01	-3.391834e-08	2.540230e+05	1.013258e+05	2.881245e+02	9.993709e-02	1.185244e-03	0.000000e+00	
-2.000000e+00	8.386076e-01	1.225097e+00	4.166161e+01	-2.562241e-10	2.540230e+05	1.013258e+05	2.881245e+02	9.993709e-02	1.185250e-03	0.000000e+00	
-1.948718e+00	8.386076e-01	1.225097e+00	4.166161e+01	-3.494497e-08	2.540230e+05	1.013258e+05	2.881245e+02	9.993709e-02	1.185243e-03	0.000000e+00	
-2.000000e+00	8.069620e-01	1.225097e+00	4.166161e+01	-2.741084e-10	2.540230e+05	1.013258e+05	2.881245e+02	9.993710e-02	1.185248e-03	0.000000e+00	
-1.948718e+00	8.069620e-01	1.225097e+00	4.166161e+01	-3.581129e-08	2.540230e+05	1.013258e+05	2.881245e+02	9.993710e-02	1.185242e-03	0.000000e+00	
-2.000000e+00	7.753165e-01	1.225097e+00	4.166161e+01	-2.917953e-10	2.540230e+05	1.013258e+05	2.881245e+02	9.993710e-02	1.185247e-03	0.000000e+00	
-1.948718e+00	7.753165e-01	1.225097e+00	4.166161e+01	-3.649765e-08	2.540230e+05	1.013258e+05	2.881245e+02	9.993710e-02	1.185241e-03	0.000000e+00	
-2.000000e+00	7.436709e-01	1.225097e+00	4.166161e+01	-3.052591e-10	2.540230e+05	1.013258e+05	2.881245e+02	9.993710e-02	1.185246e-03	0.000000e+00	
-1.948718e+00	7.436709e-01	1.225097e+00	4.166161e+01	-3.699049e-08	2.540230e+05	1.013258e+05	2.881245e+02	9.993710e-02	1.185240e-03	0.000000e+00	
-2.000000e+00	7.120253e-01	1.225097e+00	4.166161e+01	-3.141638e-10	2.540230e+05	1.013258e+05	2.881245e+02	9.993710e-02	1.185245e-03	0.000000e+00	
-1.948718e+00	7.120253e-01	1.225097e+00	4.166161e+01	-3.728248e-08	2.540230e+05	1.013258e+05	2.881245e+02	9.993710e-02	1.185238e-03	0.000000e+00	
-2.000000e+00	6.803797e-01	1.225097e+00	4.166161e+01	-3.201198e-10	2.540230e+05	1.013258e+05	2.881245e+02	9.993710e-02	1.185244e-03	0.000000e+00	
-1.948718e+00	6.803797e-01	1.225097e+00	4.166161e+01	-3.737020e-08	2.540230e+05	1.013258e+05	2.881245e+02	9.993710e-02	1.185237e-03	0.000000e+00	
-2.000000e+00	6.487342e-01	1.225097e+00	4.166161e+01	-3.235683e-10	2.540230e+05	1.013258e+05	2.881245e+02	9.993710e-02	1.185243e-03	0.000000e+00	
-1.948718e+00	6.487342e-01	1.225097e+00	4.166161e+01	-3.725242e-08	2.540230e+05	1.013258e+05	2.881245e+02	9.993710e-02	1.185236e-03	0.000000e+00	
-2.000000e+00	6.170886e-01	1.225097e+00	4.166161e+01	-3.248827e-10	2.540230e+05	1.013258e+05	2.881245e+02	9.993710e-02	1.185242e-03	0.000000e+00	
-1.948718e+00	6.170886e-01	1.225097e+00	4.166161e+01	-3.692863e-08	2.540230e+05	1.013258e+05	2.881245e+02	9.993710e-02	1.185235e-03	0.000000e+00	
-2.000000e+00	5.854430e-01	1.225097e+00	4.166161e+01	-3.235870e-10	2.540230e+05	1.013258e+05	2.881245e+02	9.993710e-02	1.185241e-03	0.000000e+00	
-1.948718e+00	5.854430e-01	1.225097e+00	4.166161e+01	-3.639944e-08	2.540230e+05	1.013258e+05	2.881245e+02	9.993710e-02	1.185234e-03	0.000000e+00	
-2.000000e+00	5.537975e-01	1.225097e+00	4.166161e+01	-3.200781e-10	2.540230e+05	1.013258e+05	2.881245e+02	9.993710e-02	1.185240e-03	0.000000e+00	
-1.948718e+00	5.537975e-01	1.225097e+00	4.166161e+01	-3.566716e-08	2.540230e+05	1.013258e+05	2.881245e+02	9.993710e-02	1.185233e-03	0.000000e+00	
-2.000000e+00	5.221519e-01	1.225097e+00	4.166161e+01	-3.147403e-10	2.540230e+05	1.013258e+05	2.881245e+02	9.993710e-02	1.185239e-03	0.000000e+00	
-1.948718e+00	5.221519e-01	1.225097e+00	4.166161e+01	-3.473547e-08	2.540230e+05	1.013258e+05	2.881245e+02	9.993710e-02	1.185232e-03	0.000000e+00	
-2.000000e+00	4.905063e-01	1.225097e+00	4.166161e+01	-3.069913e-10	2.540230e+05	1.013258e+05	2.881245e+02	9.993710e-02	1.185237e-03	0.000000e+00	
-1.948718e+00	4.905063e-01	1.225097e+00	4.166161e+01	-3.360893e-08	2.540230e+05	1.013258e+05	2.881245e+02	9.993710e-02	1.185231e-03	0.000000e+00	
-2.000000e+00	4.588608e-01	1.225097e+00	4.166161e+01	-2.971654e-10	2.540230e+05	1.013258e+05	2.881245e+02	9.993710e-02	1.185236e-03	0.000000e+00	
-1.948718e+00	4.588608e-01	1.225097e+00	4.166161e+01	-3.229371e-08	2.540230e+05	1.013258e+05	2.881245e+02	9.993710e-02	1.185230e-03	0.000000e+00	
-2.000000e+00	4.272152e-01	1.225097e+00	4.166161e+01	-2.856816e-10	2.540230e+05	1.013258e+05	2.881245e+02	9.993710e-02	1.185236e-03	0.000000e+00	
-1.948718e+00	4.272152e-01	1.225097e+00	4.166161e+01	-3.079744e-08	2.540230e+05	1.013258e+05	2.881245e+02	9.993710e-02	1.185229e-03	0.000000e+00	
-2.000000e+00	3.955696e-01	1.225097e+00	4.166161e+01	-2.724584e-10	2.540230e+05	1.013258e+05	2.881245e+02	9.993710e-02	1.185235e-03	0.000000e+00	
-1.948718e+00	3.955696e-01	1.225097e+00	4.166161e+01	-2.912846e-08	2.540230e+05	1.013258e+05	2.881245e+02	9.993710e-02	1.185228e-03	0.000000e+00	
-2.000000e+00	3.639241e-01	1.225097e+00	4.166161e+01	-2.577180e-10	2.540230e+05	1.013258e+05	2.881245e+02	9.993710e-02	1.185234e-03	0.000000e+00	
-1.948718e+00	3.639241e-01	1.225097e+00	4.166161e+01	-2.729630e-08	2.540230e+05	1.013258e+05	2.881245e+02	9.993710e-02	1.185227e-03	0.000000e+00	
-2.000000e+00	3.322785e-01	1.225097e+00	4.166161e+01	-2.414052e-10	2.540230e+05	1.013258e+05	2.881245e+02	9.993710e-02	1.185233e-03	0.000000e+00	
-1.948718e+00	3.322785e-01	1.225097e+00	4.166161e+01	-2.531143e-08	2.540230e+05	1.013258e+05	2.881245e+02	9.993710e-02	1.185227e-03	0.000000e+00	
-2.000000e+00	3.006329e-01	1.225097e+00	4.166161e+01	-2.237822e-10	2.540230e+05	1.013258e+05	2.881245e+02	9.993710e-02	1.185232e-03	0.000000e+00	
-1.948718e+00	3.006329e-01	1.225097e+00	4.166161e+01	-2.318504e-08	2.540230e+05	1.013258e+05	2.881245e+02	9.993710e-02	1.185226e-03	0.000000e+00	
-2.000000e+00	2.689873e-01	1.225097e+00	4.166161e+01	-2.049963e-10	2.540230e+05	1.013258e+05	2.881245e+02	9.993710e-02	1.185232e-03	0.000000e+00	
-1.948718e+00	2.689873e-01	1.225097e+00	4.166161e+01	-2.092909e-08	2.540230e+05	1.013258e+05	2.881245e+02	9.993710e-02	1.185225e-03	0.000000e+00	
-2.000000e+00	2.373418e-01	1.225097e+00	4.166161e+01	-1.852906e-10	2.540230e+05	1.013258e+05	2.881245e+02	9.993710e-02	1.185231e-03	0.000000e+00	
-1.948718e+00	2.373418e-01	1.225097e+00	4.166161e+01	-1.855649e-08	2.540230e+05	1.013258e+05	2.881245e+02	9.993710e-02	1.185225e-03	0.000000e+00	
-2.000000e+00	2.056962e-01	1.225097e+00	4.166161e+01	-1.646051e-10	2.540230e+05	1.013258e+05	2.881245e+02	9.993710e-02	1.185230e-03	0.000000e+00	
-1.948718e+00	2.056962e-01	1.225097e+00	4.166161e+01	-1.608050e-08	2.540230e+05	1.013258e+05	2.881245e+02	9.993710e-02	1.185224e-03	0.000000e+00	
-2.000000e+00	1.740506e-01	1.225097e+00	4.166161e+01	-1.431872e-10	2.540230e+05	1.013258e+05	2.881245e+02	9.993710e-02	1.185230e-03	0.000000e+00	
-1.948718e+00	1.740506e-01	1.225097e+00	4.166161e+01	-1.351518e-08	2.540230e+05	1.013258e+05	2.881245e+02	9.993710e-02	1.185224e-03	0.000000e+00	
-2.000000e+00	1.424051e-01	1.225097e+00	4.166161e+01	-1.212434e-10	2.540230e+05	1.013258e+05	2.881245e+02	9.993710e-02	1.185230e-03	0.000000e+00	
-1.948718e+00	1.424051e-01	1.225097e+00	4.166161e+01	-1.087470e-08	2.540230e+05	1.013258e+05	2.881245e+02	9.993710e-02	1.185223e-03	0.000000e+00	
-2.000000e+00	1.107595e-01	1.225097e+00	4.166161e+01	-9.870466e-11	2.540230e+05	1.013258e+05	2.881245e+02	9.993710e-02	1.185229e-03	0.000000e+00	
-1.948718e+00	1.107595e-01	1.225097e+00	4.166161e+01	-8.173895e-09	2.540230e+05	1.013258e+05	2.881245e+02	9.993710e-02	1.185223e-03	0.000000e+00	
-2.000000e+00	7.911392e-02	1.225097e+00	4.166161e+01	-7.586507e-11	2.540230e+05	1.013258e+05	2.881245e+02	9.993710e-02	1.185229e-03	0.000000e+00	
-1.948718e+00	7.911392e-02	1.225097e+00	4.166161e+01	-5.427691e-09	2.540230e+05	1.013258e+05	2.881245e+02	9.993710e-02	1.185223e-03	0.000000e+00	
-2.000000e+00	4.746835e-02	1.225097e+00	4.166161e+01	-5.282985e-11	2.540230e+05	1.013258e+05	2.881245e+02	9.993710e-02	1.185229e-03	0.000000e+00	
-1.948718e+00	4.746835e-02	1.225097e+00	4.166161e+01	-2.651444e-09	2.540230e+05	1.013258e+05	2.881245e+02	9.993710e-02	1.185223e-03	0.000000e+00	
-2.000000e+00	1.582278e-02	1.225097e+00	4.166161e+01	-2.953842e-11	2.540230e+05	1.013258e+05	2.881245e+02	9.993710e-02	1.185229e-03	0.000000e+00	
-1.948718e+00	1.582278e-02	1.225097e+00	4.166161e+01	1.396160e-10	2.540230e+05	1.013258e+05	2.881245e+02	9.993710e-02	1.185223e-03	0.000000e+00	
-2.000000e+00	-1.582278e-02	1.225097e+00	4.166161e+01	-6.224157e-12	2.540230e+05	1.013258e+05	2.881245e+02	9.993710e-02	1.185229e-03	0.000000e+00	
-1.948718e+00	-1.582278e-02	1.225097e+00	4.166161e+01	2.929883e-09	2.540230e+05	1.013258e+05	2.881245e+02	9.993710e-02	1.185223e-03	0.000000e+00	
-2.000000e+00	-4.746835e-02	1.225097e+00	4.166161e+01	1.689071e-11	2.540230e+05	1.013258e+05	2.881245e+02	9.993710e-02	1.185229e-03	0.000000e+00	
-1.948718e+00	-4.746835e-02	1.225097e+00	4.166161e+01	5.703955e-09	2.540230e+05	1.013258e+05	2.881245e+02	9.993710e-02	1.185223e-03	0.000000e+00	
-2.000000e+00	-7.911392e-02	1.225097e+00	4.166161e+01	3.969292e-11	2.540230e+05	1.013258e+05	2.881245e+02	9.993710e-02	1.185229e-03	0.000000e+00	
-1.948718e+00	-7.911392e-02	1.225097e+00	4.166161e+01	8.446113e-09	2.540230e+05	1.013258e+05	2.881245e+02	9.993710e-02	1.185223e-03	0.000000e+00	
-2.000000e+00	-1.107595e-01	1.225097e+00	4.166161e+01	6.233019e-11	2.540230e+05	1.013258e+05	2.881245e+02	9.993710e-02	1.185230e-03	0.000000e+00	
-1.948718e+00	-1.107595e-01	1.225097e+00	4.166161e+01	1.114155e-08	2.540230e+05	1.013258e+05	2.881245e+02	9.993710e-02	1.185223e-03	0.000000e+00	
-2.000000e+00	-1.424051e-01	1.225097e+00	4.166161e+01	8.446831e-11	2.540230e+05	1.013258e+05	2.881245e+02	9.993710e-02	1.185230e-03	0.000000e+00	
-1.948718e+00	-1.424051e-01	1.225097e+00	4.166161e+01	1.377479e-08	2.540230e+05	1.013258e+05	2.881245e+02	9.993710e-02	1.185224e-03	0.000000e+00	
-2.000000e+00	-1.740506e-01	1.225097e+00	4.166161e+01	1.059359e-10	2.540230e+05	1.013258e+05	2.881245e+02	9.993710e-02	1.185231e-03	0.000000e+00	
-1.948718e+00	-1.740506e-01	1.225097e+00	4.166161e+01	1.633107e-08	2.540230e+05	1.013258e+05	2.881245e+02	9.993710e-02	1.185224e-03	0.000000e+00	
-2.000000e+00	-2.056962e-01	1.225097e+00	4.166161e+01	1.267851e-10	2.540230e+05	1.013258e+05	2.881245e+02	9.993710e-02	1.185231e-03	0.000000e+00	
-1.948718e+00	-2.056962e-01	1.225097e+00	4.166161e+01	1.879627e-08	2.540230e+05	1.013258e+05	2.881245e+02	9.993710e-02	1.185225e-03	0.000000e+00	
-2.000000e+00	-2.373418e-01	1.225097e+00	4.166161e+01	1.469372e-10	2.540230e+05	1.013258e+05	2.881245e+02	9.993710e-02	1.185232e-03	0.000000e+00	
-1.948718e+00	-2.373418e-01	1.225097e+00	4.166161e+01	2.115617e-08	2.540230e+05	1.013258e+05	2.881245e+02	9.993710e-02	1.185225e-03	0.000000e+00	
-2.000000e+00	-2.689873e-01	1.225097e+00	4.166161e+01	1.659823e-10	2.540230e+05	1.013258e+05	2.881245e+02	9.993710e-02	1.185232e-03	0.000000e+00	
-1.948718e+00	-2.689873e-01	1.225097e+00	4.166161e+01	2.339728e-08	2.540230e+05	1.013258e+05	2.881245e+02	9.993710e-02	1.185226e-03	0.000000e+00	
-2.000000e+00	-3.006329e-01	1.225097e+00	4.166161e+01	1.839237e-10	2.540230e+05	1.013258e+05	2.881245e+02	9.993710e-02	1.185233e-03	0.000000e+00	
-1.948718e+00	-3.006329e-01	1.225097e+00	4.166161e+01	2.550678e-08	2.540230e+05	1.013258e+05	2.881245e+02	9.993710e-02	1.185227e-03	0.000000e+00	
-2.000000e+00	-3.322785e-01	1.225097e+00	4.166161e+01	2.003737e-10	2.540230e+05	1.013258e+05	2.881245e+02	9.993710e-02	1.185234e-03	0.000000e+00	
-1.948718e+00	-3.322785e-01	1.225097e+00	4.166161e+01	2.747221e-08	2.540230e+05	1.013258e+05	2.881245e+02	9.993710e-02	1.185227e-03	0.000000e+00	
-2.000000e+00	-3.639241e-01	1.225097e+00	4.166161e+01	2.154947e-10	2.540230e+05	1.013258e+05	2.881245e+02	9.993710e-02	1.185235e-03	0.000000e+00	
-1.948718e+00	-3.639241e-01	1.225097e+00	4.166161e+01	2.928254e-08	2.540230e+05	1.013258e+05	2.881245e+02	9.993710e-02	1.185228e-03	0.000000e+00	
-2.000000e+00	-3.955696e-01	1.225097e+00	4.166161e+01	2.287942e-10	2.540230e+05	1.013258e+05	2.881245e+02	9.993710e-02	1.185236e-03	0.000000e+00	
-1.948718e+00	-3.955696e-01	1.225097e+00	4.166161e+01	3.092687e-08	2.540230e+05	1.013258e+05	2.881245e+02	9.993710e-02	1.185229e-03	0.000000e+00	
-2.000000e+00	-4.272152e-01	1.225097e+00	4.166161e+01	2.406162e-10	2.540230e+05	1.013258e+05	2.881245e+02	9.993710e-02	1.185237e-03	0.000000e+00	
-1.948718e+00	-4.272152e-01	1.225097e+00	4.166161e+01	3.239598e-08	2.540230e+05	1.013258e+05	2.881245e+02	9.993710e-02	1.185230e-03	0.000000e+00	
-2.000000e+00	-4.588608e-01	1.225097e+00	4.166161e+01	2.506916e-10	2.540230e+05	1.013258e+05	2.881245e+02	9.993710e-02	1.185238e-03	0.000000e+00	
-1.948718e+00	-4.588608e-01	1.225097e+00	4.166161e+01	3.368114e-08	2.540230e+05	1.013258e+05	2.881245e+02	9.993710e-02	1.185231e-03	0.000000e+00	
-2.000000e+00	-4.905063e-01	1.225097e+00	4.166161e+01	2.587745e-10	2.540230e+05	1.013258e+05	2.881245e+02	9.993710e-02	1.185239e-03	0.000000e+00	
-1.948718e+00	-4.905063e-01	1.225097e+00	4.166161e+01	3.477492e-08	2.540230e+05	1.013258e+05	2.881245e+02	9.993710e-02	1.185232e-03	0.000000e+00	
-2.000000e+00	-5.221519e-01	1.225097e+00	4.166161e+01	2.646871e-10	2.540230e+05	1.013258e+05	2.881245e+02	9.993710e-02	1.185240e-03	0.000000e+00	
-1.948718e+00	-5.221519e-01	1.225097e+00	4.166161e+01	3.567093e-08	2.540230e+05	1.013258e+05	2.881245e+02	9.993710e-02	1.185233e-03	0.000000e+00	
-2.000000e+00	-5.537975e-01	1.225097e+00	4.166161e+01	2.681836e-10	2.540230e+05	1.013258e+05	2.881245e+02	9.993710e-02	1.185241e-03	0.000000e+00	
-1.948718e+00	-5.537975e-01	1.225097e+00	4.166161e+01	3.636411e-08	2.540230e+05	1.013258e+05	2.881245e+02	9.993710e-02	1.185234e-03	0.000000e+00	
-2.000000e+00	-5.854430e-01	1.225097e+00	4.166161e+01	2.694084e-10	2.540230e+05	1.013258e+05	2.881245e+02	9.993710e-02	1.185242e-03	0.000000e+00	
-1.948718e+00	-5.854430e-01	1.225097e+00	4.166161e+01	3.685113e-08	2.540230e+05	1.013258e+05	2.881245e+02	9.993710e-02	1.185235e-03	0.000000e+00	
-2.000000e+00	-6.170886e-01	1.225097e+00	4.166161e+01	2.682626e-10	2.540230e+05	1.013258e+05	2.881245e+02	9.993710e-02	1.185243e-03	0.000000e+00	
-1.948718e+00	-6.170886e-01	1.225097e+00	4.166161e+01	3.712979e-08	2.540230e+05	1.013258e+05	2.881245e+02	9.993710e-02	1.185236e-03	0.000000e+00	
-2.000000e+00	-6.487342e-01	1.225097e+00	4.166161e+01	2.647740e-10	2.540230e+05	1.013258e+05	2.881245e+02	9.993710e-02	1.185244e-03	0.000000e+00	
-1.948718e+00	-6.487342e-01	1.225097e+00	4.166161e+01	3.719941e-08	2.540230e+05	1.013258e+05	2.881245e+02	9.993710e-02	1.185237e-03	0.000000e+00	
-2.000000e+00	-6.803797e-01	1.225097e+00	4.166161e+01	2.588292e-10	2.540230e+05	1.013258e+05	2.881245e+02	9.993710e-02	1.185245e-03	0.000000e+00	
-1.948718e+00	-6.803797e-01	1.225097e+00	4.166161e+01	3.706085e-08	2.540230e+05	1.013258e+05	2.881245e+02	9.993710e-02	1.185239e-03	0.000000e+00	
-2.000000e+00	-7.120253e-01	1.225097e+00	4.166161e+01	2.502475e-10	2.540230e+05	1.013258e+05	2.881245e+02	9.993710e-02	1.185246e-03	0.000000e+00	
-1.948718e+00	-7.120253e-01	1.225097e+00	4.166161e+01	3.671619e-08	2.540230e+05	1.013258e+05	2.881245e+02	9.993710e-02	1.185240e-03	0.000000e+00	
-2.000000e+00	-7.436709e-01	1.225097e+00	4.166161e+01	2.385265e-10	2.540230e+05	1.013258e+05	2.881245e+02	9.993710e-02	1.185247e-03	0.000000e+00	
-1.948718e+00	-7.436709e-01	1.225097e+00	4.166161e+01	3.616878e-08	2.540230e+05	1.013258e+05	2.881245e+02	9.993710e-02	1.185241e-03	0.000000e+00	
-2.000000e+00	-7.753165e-01	1.225097e+00	4.166161e+01	2.225156e-10	2.540230e+05	1.013258e+05	2.881245e+02	9.993710e-02	1.185249e-03	0.000000e+00	
-1.948718e+00	-7.753165e-01	1.225097e+00	4.166161e+01	3.542371e-08	2.540230e+05	1.013258e+05	2.881245e+02	9.993710e-02	1.185242e-03	0.000000e+00	
-2.000000e+00	-8.069620e-01	1.225097e+00	4.166161e+01	2.018102e-10	2.540230e+05	1.013258e+05	2.881245e+02	9.993709e-02	1.185250e-03	0.000000e+00	
-1.948718e+00	-8.069620e-01	1.225097e+00	4.166161e+01	3.448982e-08	2.540230e+05	1.013258e+05	2.881245e+02	9.993709e-02	1.185243e-03	0.000000e+00	
-2.000000e+00	-8.386076e-01	1.225097e+00	4.166161e+01	1.809743e-10	2.540230e+05	1.013258e+05	2.881245e+02	9.993709e-02	1.185251e-03	0.000000e+00	
-1.948718e+00	-8.386076e-01	1.225097e+00	4.166161e+01	3.338315e-08	2.540230e+05	1.013258e+05	2.881245e+02	9.993709e-02	1.185244e-03	0.000000e+00	
-2.000000e+00	-8.702532e-01	1.225097e+00	4.166161e+01	1.705800e-10	2.540230e+05	1.013258e+05	2.881245e+02	9.993709e-02	1.185252e-03	0.000000e+00	
-1.948718e+00	-8.702532e-01	1.225097e+00	4.166161e+01	3.212501e-08	2.540230e+05	1.013258e+05	2.881245e+02	9.993709e-02	1.185245e-03	0.000000e+00	
-2.000000e+00	-9.018987e-01	1.225097e+00	4.166161e+01	1.857204e-10	2.540230e+05	1.013258e+05	2.881245e+02	9.993709e-02	1.185253e-03	0.000000e+00	
-1.948718e+00	-9.018987e-01	1.225097e+00	4.166161e+01	3.073572e-08	2.540230e+05	1.013258e+05	2.881245e+02	9.993709e-02	1.185246e-03	0.000000e+00	
-2.000000e+00	-9.335443e-01	1.225097e+00	4.166161e+01	2.306867e-10	2.540230e+05	1.013258e+05	2.881245e+02	9.993709e-02	1.185253e-03	0.000000e+00	
-1.948718e+00	-9.335443e-01	1.225097e+00	4.166161e+01	2.921033e-08	2.540230e+05	1.013258e+05	2.881245e+02	9.993709e-02	1.185247e-03	0.000000e+00	
-2.000000e+00	-9.651899e-01	1.225097e+00	4.166161e+01	2.766486e-10	2.540230e+05	1.013258e+05	2.881245e+02	9.993709e-02	1.185254e-03	0.000000e+00	
-1.948718e+00	-9.651899e-01	1.225097e+00	4.166161e+01	2.750988e-08	2.540230e+05	1.013258e+05	2.881245e+02	9.993709e-02	1.185247e-03	0.000000e+00	
-2.000000e+00	-9.968354e-01	1.225097e+00	4.166161e+01	2.502055e-10	2.540230e+05	1.013258e+05	2.881245e+02	9.993709e-02	1.185255e-03	0.000000e+00	
-1.948718e+00	-9.968354e-01	1.225097e+00	4.166161e+01	2.556636e-08	2.540230e+05	1.013258e+05	2.881245e+02	9.993709e-02	1.185248e-03	0.000000e+00	
-2.000000e+00	-1.028481e+00	1.225097e+00	4.166161e+01	9.785367e-11	2.540230e+05	1.013258e+05	2.881245e+02	9.993709e-02	1.185256e-03	0.000000e+00	
-1.948718e+00	-1.028481e+00	1.225097e+00	4.166161e+01	2.341457e-08	2.540230e+05	1.013258e+05	2.881245e+02	9.993709e-02	1.185249e-03	0.000000e+00	
-2.000000e+00	-1.060127e+00	1.225097e+00	4.166161e+01	-8.291051e-11	2.540230e+05	1.013258e+05	2.881245e+02	9.993709e-02	1.185257e-03	0.000000e+00	
-1.948718e+00	-1.060127e+00	1.225097e+00	4.166161e+01	2.128090e-08	2.540230e+05	1.013258e+05	2.881245e+02	9.993709e-02	1.185249e-03	0.000000e+00	
-2.000000e+00	-1.091772e+00	1.225097e+00	4.166161e+01	1.316230e-10	2.540230e+05	1.013258e+05	2.881245e+02	9.993709e-02	1.185257e-03	0.000000e+00	
-1.948718e+00	-1.091772e+00	1.225097e+00	4.166161e+01	1.974440e-08	2.540230e+05	1.013258e+05	2.881245e+02	9.993709e-02	1.185250e-03	0.000000e+00	
-2.000000e+00	-1.123418e+00	1.225097e+00	4.166161e+01	1.335427e-09	2.540230e+05	1.013258e+05	2.881245e+02	9.993709e-02	1.185258e-03	0.000000e+00	
-1.948718e+00	-1.123418e+00	1.225097e+00	4.166161e+01	1.916140e-08	2.540230e+05	1.013258e+05	2.881245e+02	9.993709e-02	1.185251e-03	0.000000e+00	
-2.000000e+00	-1.155063e+00	1.225097e+00	4.166161e+01	3.787891e-09	2.540230e+05	1.013258e+05	2.881245e+02	9.993709e-02	1.185258e-03	0.000000e+00	
-1.948718e+00	-1.155063e+00	1.225097e+00	4.166161e+01	1.929872e-08	2.540230e+05	1.013258e+05	2.881245e+02	9.993709e-02	1.185251e-03	0.000000e+00	
-2.000000e+00	-1.186709e+00	1.225097e+00	4.166161e+01	6.257254e-09	2.540230e+05	1.013258e+05	2.881245e+02	9.993709e-02	1.185259e-03	0.000000e+00	
-1.948718e+00	-1.186709e+00	1.225097e+00	4.166161e+01	1.763388e-08	2.540230e+05	1.013258e+05	2.881245e+02	9.993709e-02	1.185251e-03	0.000000e+00	
-2.000000e+00	-1.218354e+00	1.225097e+00	4.166161e+01	6.191014e-09	2.540230e+05	1.013258e+05	2.881245e+02	9.993709e-02	1.185260e-03	0.000000e+00	
-1.948718e+00	-1.218354e+00	1.225097e+00	4.166161e+01	1.180793e-08	2.540230e+05	1.013258e+05	2.881245e+02	9.993709e-02	1.185251e-03	0.000000e+00	
-1.897436e+00	1.218354e+00	1.225097e+00	4.166161e+01	-2.384386e-08	2.540230e+05	1.013258e+05	2.881245e+02	9.993709e-02	1.185246e-03	0.000000e+00	
-1.897436e+00	1.250000e+00	1.225097e+00	4.166161e+01	-3.322095e-09	2.540230e+05	1.013258e+05	2.881245e+02	9.993709e-02	1.185247e-03	0.000000e+00	
-1.897436e+00	1.186709e+00	1.225097e+00	4.166161e+01	-3.623456e-08	2.540230e+05	1.013258e+05	2.881245e+02	9.993709e-02	1.185246e-03	0.000000e+00	
-1.897436e+00	1.155063e+00	1.225097e+00	4.166161e+01	-4.215975e-08	2.540230e+05	1.013258e+05	2.881245e+02	9.993709e-02	1.185246e-03	0.000000e+00	
-1.897436e+00	1.123418e+00	1.225097e+00	4.166161e+01	-4.428341e-08	2.540230e+05	1.013258e+05	2.881245e+02	9.993709e-02	1.185245e-03	0.000000e+00	
-1.897436e+00	1.091772e+00	1.225097e+00	4.166161e+01	-4.622166e-08	2.540230e+05	1.013258e+05	2.881245e+02	9.993709e-02	1.185245e-03	0.000000e+00	
-1.897436e+00	1.060127e+00	1.225097e+00	4.166161e+01	-4.901301e-08	2.540230e+05	1.013258e+05	2.881245e+02	9.993709e-02	1.185244e-03	0.000000e+00	
-1.897436e+00	1.028481e+00	1.225097e+00	4.166161e+01	-5.265599e-08	2.540230e+05	1.013258e+05	2.881245e+02	9.993709e-02	1.185243e-03	0.000000e+00	
-1.897436e+00	9.968354e-01	1.225097e+00	4.166161e+01	-5.646188e-08	2.540230e+05	1.013258e+05	2.881245e+02	9.993709e-02	1.185243e-03	0.000000e+00	
-1.897436e+00	9.651899e-01	1.225097e+00	4.166161e+01	-6.001968e-08	2.540230e+05	1.013258e+05	2.881245e+02	9.993709e-02	1.185242e-03	0.000000e+00	
-1.897436e+00	9.335443e-01	1.225097e+00	4.166161e+01	-6.315396e-08	2.540230e+05	1.013258e+05	2.881245e+02	9.993709e-02	1.185241e-03	0.000000e+00	
-1.897436e+00	9.018987e-01	1.225097e+00	4.166161e+01	-6.589737e-08	2.540230e+05	1.013258e+05	2.881245e+02	9.993709e-02	1.185240e-03	0.000000e+00	
-1.897436e+00	8.702532e-01	1.225097e+00	4.166161e+01	-6.829704e-08	2.540230e+05	1.013258e+05	2.881245e+02	9.993709e-02	1.185239e-03	0.000000e+00	
-1.897436e+00	8.386076e-01	1.225097e+00	4.166161e+01	-7.037582e-08	2.540230e+05	1.013258e+05	2.881245e+02	9.993709e-02	1.185238e-03	0.000000e+00	
-1.897436e+00	8.069620e-01	1.225097e+00	4.166161e+01	-7.211807e-08	2.540230e+05	1.013258e+05	2.881245e+02	9.993710e-02	1.185237e-03	0.000000e+00	
-1.897436e+00	7.753165e-01	1.225097e+00	4.166161e+01	-7.349750e-08	2.540230e+05	1.013258e+05	2.881245e+02	9.993710e-02	1.185236e-03	0.000000e+00	
-1.897436e+00	7.436709e-01	1.225097e+00	4.166161e+01	-7.449001e-08	2.540230e+05	1.013258e+05	2.881245e+02	9.993710e-02	1.185235e-03	0.000000e+00	
-1.897436e+00	7.120253e-01	1.225097e+00	4.166161e+01	-7.508017e-08	2.540230e+05	1.013258e+05	2.881245e+02	9.993710e-02	1.185234e-03	0.000000e+00	
-1.897436e+00	6.803797e-01	1.225097e+00	4.166161e+01	-7.525910e-08	2.540230e+05	1.013258e+05	2.881245e+02	9.993710e-02	1.185232e-03	0.000000e+00	
-1.897436e+00	6.487342e-01	1.225097e+00	4.166161e+01	-7.502319e-08	2.540230e+05	1.013258e+05	2.881245e+02	9.993710e-02	1.185231e-03	0.000000e+00	
-1.897436e+00	6.170886e-01	1.225097e+00	4.166161e+01	-7.437120e-08	2.540230e+05	1.013258e+05	2.881245e+02	9.993710e-02	1.185230e-03	0.000000e+00	
-1.897436e+00	5.854430e-01	1.225097e+00	4.166161e+01	-7.330513e-08	2.540230e+05	1.013258e+05	2.881245e+02	9.993710e-02	1.185229e-03	0.000000e+00	
-1.897436e+00	5.537975e-01	1.225097e+00	4.166161e+01	-7.182941e-08	2.540230e+05	1.013258e+05	2.881245e+02	9.993710e-02	1.185228e-03	0.000000e+00	
-1.897436e+00	5.221519e-01	1.225097e+00	4.166161e+01	-6.995138e-08	2.540230e+05	1.013258e+05	2.881245e+02	9.993710e-02	1.185227e-03	0.000000e+00	
-1.897436e+00	4.905063e-01	1.225097e+00	4.166161e+01	-6.768087e-08	2.540230e+05	1.013258e+05	2.881245e+02	9.993710e-02	1.185226e-03	0.000000e+00	
-1.897436e+00	4.588608e-01	1.225097e+00	4.166161e+01	-6.503040e-08	2.540230e+05	1.013258e+05	2.881245e+02	9.993710e-02	1.185225e-03	0.000000e+00	
-1.897436e+00	4.272152e-01	1.225097e+00	4.166161e+01	-6.201495e-08	2.540230e+05	1.013258e+05	2.881245e+02	9.993710e-02	1.185224e-03	0.000000e+00	
-1.897436e+00	3.955696e-01	1.225097e+00	4.166161e+01	-5.865169e-08	2.540230e+05	1.013258e+05	2.881245e+02	9.993710e-02	1.185223e-03	0.000000e+00	
-1.897436e+00	3.639241e-01	1.225097e+00	4.166161e+01	-5.495975e-08	2.540230e+05	1.013258e+05	2.881245e+02	9.993710e-02	1.185222e-03	0.000000e+00	
-1.897436e+00	3.322785e-01	1.225097e+00	4.166161e+01	-5.096033e-08	2.540230e+05	1.013258e+05	2.881245e+02	9.993710e-02	1.185221e-03	0.000000e+00	
-1.897436e+00	3.006329e-01	1.225097e+00	4.166161e+01	-4.667595e-08	2.540230e+05	1.013258e+05	2.881245e+02	9.993710e-02	1.185220e-03	0.000000e+00	
-1.897436e+00	2.689873e-01	1.225097e+00	4.166161e+01	-4.213099e-08	2.540230e+05	1.013258e+05	2.881245e+02	9.993710e-02	1.185220e-03	0.000000e+00	
-1.897436e+00	2.373418e-01	1.225097e+00	4.166161e+01	-3.735107e-08	2.540230e+05	1.013258e+05	2.881245e+02	9.993710e-02	1.185219e-03	0.000000e+00	
-1.897436e+00	2.056962e-01	1.225097e+00	4.166161e+01	-3.236316e-08	2.540230e+05	1.013258e+05	2.881245e+02	9.993710e-02	1.185219e-03	0.000000e+00	
-1.897436e+00	1.740506e-01	1.225097e+00	4.166161e+01	-2.719526e-08	2.540230e+05	1.013258e+05	2.881245e+02	9.993710e-02	1.185218e-03	0.000000e+00	
-1.897436e+00	1.424051e-01	1.225097e+00	4.166161e+01	-2.187609e-08	2.540230e+05	1.013258e+05	2.881245e+02	9.993710e-02	1.185218e-03	0.000000e+00	
-1.897436e+00	1.107595e-01	1.225097e+00	4.166161e+01	-1.643543e-08	2.540230e+05	1.013258e+05	2.881245e+02	9.993710e-02	1.185218e-03	0.000000e+00	
-1.897436e+00	7.911392e-02	1.225097e+00	4.166161e+01	-1.090350e-08	2.540230e+05	1.013258e+05	2.881245e+02	9.993710e-02	1.185217e-03	0.000000e+00	
-1.897436e+00	4.746835e-02	1.225097e+00	4.166161e+01	-5.310917e-09	2.540230e+05	1.013258e+05	2.881245e+02	9.993710e-02	1.185217e-03	0.000000e+00	
-1.897436e+00	1.582278e-02	1.225097e+00	4.166161e+01	3.111616e-10	2.540230e+05	1.013258e+05	2.881245e+02	9.993710e-02	1.185217e-03	0.000000e+00	
-1.897436e+00	-1.582278e-02	1.225097e+00	4.166161e+01	5.931931e-09	2.540230e+05	1.013258e+05	2.881245e+02	9.993710e-02	1.185217e-03	0.000000e+00	
-1.897436e+00	-4.746835e-02	1.225097e+00	4.166161e+01	1.151984e-08	2.540230e+05	1.013258e+05	2.881245e+02	9.993710e-02	1.185217e-03	0.000000e+00	
-1.897436e+00	-7.911392e-02	1.225097e+00	4.166161e+01	1.704410e-08	2.540230e+05	1.013258e+05	2.881245e+02	9.993710e-02	1.185218e-03	0.000000e+00	
-1.897436e+00	-1.107595e-01	1.225097e+00	4.166161e+01	2.247386e-08	2.540230e+05	1.013258e+05	2.881245e+02	9.993710e-02	1.185218e-03	0.000000e+00	
-1.897436e+00	-1.424051e-01	1.225097e+00	4.166161e+01	2.777872e-08	2.540230e+05	1.013258e+05	2.881245e+02	9.993710e-02	1.185218e-03	0.000000e+00	