TITLE = "SU2 Simulation"
VARIABLES = "Iteration","CL","CD","CSF","CMx","CMy","CMz","CFx","CFy","CFz","CL/CD","AoA","Custom_ObjFunc","Res_Flow[0]","Res_Flow[1]","Res_Flow[2]","Res_Flow[3]","Res_Flow[4]","Linear_Solver_Iterations","CFL_Number","Time(min)"
ZONE T= "Convergence history"
           0, 0.00000000e+00, 0.00000000e+00, 0.00000000e+00, 0.00000000e+00, 0.00000000e+00, 0.00000000e+00, 0.00000000e+00, 0.00000000e+00, 0.00000000e+00, 0.00000000e+00, 0.00000000e+00, 0.00000000e+00, -2.90074493e+00, -4.14838242e-01, -1.26119551e+01, 2.54397277e+00, 0.00000000e+00, 5.0000000000, 5.0000000000, 0.0029406498
           1, 0.00000000e+00, 0.00000000e+00, 0.00000000e+00, 0.00000000e+00, 0.00000000e+00, 0.00000000e+00, 0.00000000e+00, 0.00000000e+00, 0.00000000e+00, 0.00000000e+00, 0.00000000e+00, 0.00000000e+00, -3.08344077e+00, -6.03527128e-01, -1.12390185e+00, 2.36185065e+00, 0.00000000e+00, 5.0000000000, 5.0000000000, 0.0068080584
           2, 0.00000000e+00, 0.00000000e+00, 0.00000000e+00, 0.00000000e+00, 0.00000000e+00, 0.00000000e+00, 0.00000000e+00, 0.00000000e+00, 0.00000000e+00, 0.00000000e+00, 0.00000000e+00, 0.00000000e+00, -3.19974895e+00, -7.16162557e-01, -8.42072522e-01, 2.24664996e+00, 0.00000000e+00, 5.0000000000, 5.0000000000, 0.0110315923
           3, 0.00000000e+00, 0.00000000e+00, 0.00000000e+00, 0.00000000e+00, 0.00000000e+00, 0.00000000e+00, 0.00000000e+00, 0.00000000e+00, 0.00000000e+00, 0.00000000e+00, 0.00000000e+00, 0.00000000e+00, -3.24808210e+00, -7.60051343e-01, -6.85162303e-01, 2.19788034e+00, 0.00000000e+00, 5.0000000000, 5.0000000000, 0.0150402669
           4, 0.00000000e+00, 0.00000000e+00, 0.00000000e+00, 0.00000000e+00, 0.00000000e+00, 0.00000000e+00, 0.00000000e+00, 0.00000000e+00, 0.00000000e+00, 0.00000000e+00, 0.00000000e+00, 0.00000000e+00, -3.26895022e+00, -7.81223025e-01, -5.78961411e-01, 2.17676929e+00, 0.00000000e+00, 5.0000000000, 5.0000000000, 0.0205106230
           5, 0.00000000e+00, 0.00000000e+00, 0.00000000e+00, 0.00000000e+00, 0.00000000e+00, 0.00000000e+00, 0.00000000e+00, 0.00000000e+00, 0.00000000e+00, 0.00000000e+00, 0.00000000e+00, 0.00000000e+00, -3.28460739e+00, -7.96706604e-01, -5.00319047e-01, 2.16182100e+00, 0.00000000e+00, 5.0000000000, 5.0000000000, 0.0237302020
           6, 0.00000000e+00, 0.00000000e+00, 0.00000000e+00, 0.00000000e+00, 0.00000000e+00, 0.00000000e+00, 0.00000000e+00, 0.00000000e+00, 0.00000000e+00, 0.00000000e+00, 0.00000000e+00, 0.00000000e+00, -3.29764561e+00, -8.06143230e-01, -4.38871658e-01, 2.15011347e+00, 0.00000000e+00, 5.0000000000, 5.0000000000, 0.0265720832
           7, 0.00000000e+00, 0.00000000e+00, 0.00000000e+00, 0.00000000e+00, 0.00000000e+00, 0.00000000e+00, 0.00000000e+00, 0.00000000e+00, 0.00000000e+00, 0.00000000e+00, 0.00000000e+00, 0.00000000e+00, -3.30585986e+00, -8.08438204e-01, -3.89162638e-01, 2.14347969e+00, 0.00000000e+00, 5.0000000000, 5.0000000000, 0.0299231649
           8, 0.00000000e+00, 0.00000000e+00, 0.00000000e+00, 0.00000000e+00, 0.00000000e+00, 0.00000000e+00, 0.00000000e+00, 0.00000000e+00, 0.00000000e+00, 0.00000000e+00, 0.00000000e+00, 0.00000000e+00, -3.30849043e+00, -8.04859624e-01, -3.47972723e-01, 2.14250576e+00, 0.00000000e+00, 5.0000000000, 5.0000000000, 0.0328541008
           9, 0.00000000e+00, 0.00000000e+00, 0.00000000e+00, 0.00000000e+00, 0.00000000e+00, 0.00000000e+00, 0.00000000e+00, 0.00000000e+00, 0.00000000e+00, 0.00000000e+00, 0.00000000e+00, 0.00000000e+00, -3.30657983e+00, -7.97292929e-01, -3.13234196e-01, 2.14610100e+00, 0.00000000e+00, 5.0000000000, 5.0000000000, 0.0361670467
          10, 0.00000000e+00, 0.00000000e+00, 0.00000000e+00, 0.00000000e+00, 0.00000000e+00, 0.00000000e+00, 0.00000000e+00, 0.00000000e+00, 0.00000000e+00, 0.00000000e+00, 0.00000000e+00, 0.00000000e+00, -3.30160680e+00, -7.87117489e-01, -2.83540061e-01, 2.15276204e+00, 0.00000000e+00, 5.0000000000, 5.0000000000, 0.0390698503
          11, 0.00000000e+00, 0.00000000e+00, 0.00000000e+00, 0.00000000e+00, 0.00000000e+00, 0.00000000e+00, 0.00000000e+00, 0.00000000e+00, 0.00000000e+00, 0.00000000e+00, 0.00000000e+00, 0.00000000e+00, -3.29465780e+00, -7.75229377e-01, -2.57890151e-01, 2.16136326e+00, 0.00000000e+00, 5.0000000000, 5.0000000000, 0.0429719133
          12, 0.00000000e+00, 0.00000000e+00, 0.00000000e+00, 0.00000000e+00, 0.00000000e+00, 0.00000000e+00, 0.00000000e+00, 0.00000000e+00, 0.00000000e+00, 0.00000000e+00, 0.00000000e+00, 0.00000000e+00, -3.28637957e+00, -7.62301341e-01, -2.35548181e-01, 2.17121246e+00, 0.00000000e+00, 5.0000000000, 5.0000000000, 0.0470257638
          13, 0.00000000e+00, 0.00000000e+00, 0.00000000e+00, 0.00000000e+00, 0.00000000e+00, 0.00000000e+00, 0.00000000e+00, 0.00000000e+00, 0.00000000e+00, 0.00000000e+00, 0.00000000e+00, 0.00000000e+00, -3.27719020e+00, -7.48895428e-01, -2.15956270e-01, 2.18185620e+00, 0.00000000e+00, 5.0000000000, 5.0000000000, 0.0513816972
          14, 0.00000000e+00, 0.00000000e+00, 0.00000000e+00, 0.00000000e+00, 0.00000000e+00, 0.00000000e+00, 0.00000000e+00, 0.00000000e+00, 0.00000000e+00, 0.00000000e+00, 0.00000000e+00, 0.00000000e+00, -3.26741321e+00, -7.35482835e-01, -1.98681260e-01, 2.19295260e+00, 0.00000000e+00, 5.0000000000, 5.0000000000, 0.0549389092
          15, 0.00000000e+00, 0.00000000e+00, 0.00000000e+00, 0.00000000e+00, 0.00000000e+00, 0.00000000e+00, 0.00000000e+00, 0.00000000e+00, 0.00000000e+00, 0.00000000e+00, 0.00000000e+00, 0.00000000e+00, -3.25729598e+00, -7.22464051e-01, -1.83379749e-01, 2.20425024e+00, 0.00000000e+00, 5.0000000000, 5.0000000000, 0.0583187405
          16, 0.00000000e+00, 0.00000000e+00, 0.00000000e+00, 0.00000000e+00, 0.00000000e+00, 0.00000000e+00, 0.00000000e+00, 0.00000000e+00, 0.00000000e+00, 0.00000000e+00, 0.00000000e+00, 0.00000000e+00, -3.24698186e+00, -7.10208264e-01, -1.69774579e-01, 2.21560944e+00, 0.00000000e+00, 5.0000000000, 5.0000000000, 0.0625539316
          17, 0.00000000e+00, 0.00000000e+00, 0.00000000e+00, 0.00000000e+00, 0.00000000e+00, 0.00000000e+00, 0.00000000e+00, 0.00000000e+00, 0.00000000e+00, 0.00000000e+00, 0.00000000e+00, 0.00000000e+00, -3.23648899e+00, -6.99095650e-01, -1.57638624e-01, 2.22701773e+00, 0.00000000e+00, 5.0000000000, 5.0000000000, 0.0673830688
          18, 0.00000000e+00, 0.00000000e+00, 0.00000000e+00, 0.00000000e+00, 0.00000000e+00, 0.00000000e+00, 0.00000000e+00, 0.00000000e+00, 0.00000000e+00, 0.00000000e+00, 0.00000000e+00, 0.00000000e+00, -3.22571303e+00, -6.89547748e-01, -1.46783323e-01, 2.23858365e+00, 0.00000000e+00, 5.0000000000, 5.0000000000, 0.0709552554
          19, 0.00000000e+00, 0.00000000e+00, 0.00000000e+00, 0.00000000e+00, 0.00000000e+00, 0.00000000e+00, 0.00000000e+00, 0.00000000e+00, 0.00000000e+00, 0.00000000e+00, 0.00000000e+00, 0.00000000e+00, -3.21445703e+00, -6.82039529e-01, -1.37050269e-01, 2.25050567e+00, 0.00000000e+00, 5.0000000000, 5.0000000000, 0.0741752419
          20, 0.00000000e+00, 0.00000000e+00, 0.00000000e+00, 0.00000000e+00, 0.00000000e+00, 0.00000000e+00, 0.00000000e+00, 0.00000000e+00, 0.00000000e+00, 0.00000000e+00, 0.00000000e+00, 0.00000000e+00, -3.20248935e+00, -6.77091854e-01, -1.28304966e-01, 2.26301511e+00, 0.00000000e+00, 5.0000000000, 5.0000000000, 0.0773868322
          21, 0.00000000e+00, 0.00000000e+00, 0.00000000e+00, 0.00000000e+00, 0.00000000e+00, 0.00000000e+00, 0.00000000e+00, 0.00000000e+00, 0.00000000e+00, 0.00000000e+00, 0.00000000e+00, 0.00000000e+00, -3.18962506e+00, -6.75246071e-01, -1.20432256e-01, 2.27629715e+00, 0.00000000e+00, 5.0000000000, 5.0000000000, 0.0807852919
          22, 0.00000000e+00, 0.00000000e+00, 0.00000000e+00, 0.00000000e+00, 0.00000000e+00, 0.00000000e+00, 0.00000000e+00, 0.00000000e+00, 0.00000000e+00, 0.00000000e+00, 0.00000000e+00, 0.00000000e+00, -3.17581306e+00, -6.77024951e-01, -1.13332713e-01, 2.29040704e+00, 0.00000000e+00, 5.0000000000, 5.0000000000, 0.0837917845
          23, 0.00000000e+00, 0.00000000e+00, 0.00000000e+00, 0.00000000e+00, 0.00000000e+00, 0.00000000e+00, 0.00000000e+00, 0.00000000e+00, 0.00000000e+00, 0.00000000e+00, 0.00000000e+00, 0.00000000e+00, -3.16119973e+00, -6.82884871e-01, -1.06919910e-01, 2.30520917e+00, 0.00000000e+00, 5.0000000000, 5.0000000000, 0.0866895601
          24, 0.00000000e+00, 0.00000000e+00, 0.00000000e+00, 0.00000000e+00, 0.00000000e+00, 0.00000000e+00, 0.00000000e+00, 0.00000000e+00, 0.00000000e+00, 0.00000000e+00, 0.00000000e+00, 0.00000000e+00, -3.14614226e+00, -6.93162270e-01, -1.01118300e-01, 2.32036435e+00, 0.00000000e+00, 5.0000000000, 5.0000000000, 0.0901565052
          25, 0.00000000e+00, 0.00000000e+00, 0.00000000e+00, 0.00000000e+00, 0.00000000e+00, 0.00000000e+00, 0.00000000e+00, 0.00000000e+00, 0.00000000e+00, 0.00000000e+00, 0.00000000e+00, 0.00000000e+00, -3.13116437e+00, -7.08013239e-01, -9.58615761e-02, 2.33537223e+00, 0.00000000e+00, 5.0000000000, 5.0000000000, 0.0929138756
          26, 0.00000000e+00, 0.00000000e+00, 0.00000000e+00, 0.00000000e+00, 0.00000000e+00, 0.00000000e+00, 0.00000000e+00, 0.00000000e+00, 0.00000000e+00, 0.00000000e+00, 0.00000000e+00, 0.00000000e+00, -3.11687165e+00, -7.27340146e-01, -9.10913829e-02, 2.34965254e+00, 0.00000000e+00, 5.0000000000, 5.0000000000, 0.0965895750
          27, 0.00000000e+00, 0.00000000e+00, 0.00000000e+00, 0.00000000e+00, 0.00000000e+00, 0.00000000e+00, 0.00000000e+00, 0.00000000e+00, 0.00000000e+00, 0.00000000e+00, 0.00000000e+00, 0.00000000e+00, -3.10385786e+00, -7.50695147e-01, -8.67562789e-02, 2.36263539e+00, 0.00000000e+00, 5.0000000000, 5.0000000000, 0.0998218804
          28, 0.00000000e+00, 0.00000000e+00, 0.00000000e+00, 0.00000000e+00, 0.00000000e+00, 0.00000000e+00, 0.00000000e+00, 0.00000000e+00, 0.00000000e+00, 0.00000000e+00, 0.00000000e+00, 0.00000000e+00, -3.09263010e+00, -7.77151401e-01, -8.28108821e-02, 2.37383390e+00, 0.00000000e+00, 5.0000000000, 5.0000000000, 0.1031585726
          29, 0.00000000e+00, 0.00000000e+00, 0.00000000e+00, 0.00000000e+00, 0.00000000e+00, 0.00000000e+00, 0.00000000e+00, 0.00000000e+00, 0.00000000e+00, 0.00000000e+00, 0.00000000e+00, 0.00000000e+00, -3.08356685e+00, -8.05147691e-01, -7.92151564e-02, 2.38288524e+00, 0.00000000e+00, 5.0000000000, 5.0000000000, 0.1064809965
          30, 0.00000000e+00, 0.00000000e+00, 0.00000000e+00, 0.00000000e+00, 0.00000000e+00, 0.00000000e+00, 0.00000000e+00, 0.00000000e+00, 0.00000000e+00, 0.00000000e+00, 0.00000000e+00, 0.00000000e+00, -3.07690929e+00, -8.32358212e-01, -7.59337758e-02, 2.38955972e+00, 0.00000000e+00, 5.0000000000, 5.0000000000, 0.1092523600
          31, 0.00000000e+00, 0.00000000e+00, 0.00000000e+00, 0.00000000e+00, 0.00000000e+00, 0.00000000e+00, 0.00000000e+00, 0.00000000e+00, 0.00000000e+00, 0.00000000e+00, 0.00000000e+00, 0.00000000e+00, -3.07277715e+00, -8.55728385e-01, -7.29355537e-02, 2.39374565e+00, 0.00000000e+00, 5.0000000000, 5.0000000000, 0.1120205208
          32, 0.00000000e+00, 0.00000000e+00, 0.00000000e+00, 0.00000000e+00, 0.00000000e+00, 0.00000000e+00, 0.00000000e+00, 0.00000000e+00, 0.00000000e+00, 0.00000000e+00, 0.00000000e+00, 0.00000000e+00, -3.07119839e+00, -8.71898420e-01, -7.01929036e-02, 2.39542074e+00, 0.00000000e+00, 5.0000000000, 5.0000000000, 0.1158382434
          33, 0.00000000e+00, 0.00000000e+00, 0.00000000e+00, 0.00000000e+00, 0.00000000e+00, 0.00000000e+00, 0.00000000e+00, 0.00000000e+00, 0.00000000e+00, 0.00000000e+00, 0.00000000e+00, 0.00000000e+00, -3.07214221e+00, -8.78122156e-01, -6.76813357e-02, 2.39462005e+00, 0.00000000e+00, 5.0000000000, 5.0000000000, 0.1204071537
          34, 0.00000000e+00, 0.00000000e+00, 0.00000000e+00, 0.00000000e+00, 0.00000000e+00, 0.00000000e+00, 0.00000000e+00, 0.00000000e+00, 0.00000000e+00, 0.00000000e+00, 0.00000000e+00, 0.00000000e+00, -3.07554726e+00, -8.73326528e-01, -6.53789946e-02, 2.39140849e+00, 0.00000000e+00, 5.0000000000, 5.0000000000, 0.1237421621
          35, 0.00000000e+00, 0.00000000e+00, 0.00000000e+00, 0.00000000e+00, 0.00000000e+00, 0.00000000e+00, 0.00000000e+00, 0.00000000e+00, 0.00000000e+00, 0.00000000e+00, 0.00000000e+00, 0.00000000e+00, -3.08134008e+00, -8.58547810e-01, -6.32662752e-02, 2.38586303e+00, 0.00000000e+00, 5.0000000000, 5.0000000000, 0.1278690357
          36, 0.00000000e+00, 0.00000000e+00, 0.00000000e+00, 0.00000000e+00, 0.00000000e+00, 0.00000000e+00, 0.00000000e+00, 0.00000000e+00, 0.00000000e+00, 0.00000000e+00, 0.00000000e+00, 0.00000000e+00, -3.08944157e+00, -8.36366113e-01, -6.13256097e-02, 2.37806653e+00, 0.00000000e+00, 5.0000000000, 5.0000000000, 0.1311870527
          37, 0.00000000e+00, 0.00000000e+00, 0.00000000e+00, 0.00000000e+00, 0.00000000e+00, 0.00000000e+00, 0.00000000e+00, 0.00000000e+00, 0.00000000e+00, 0.00000000e+00, 0.00000000e+00, 0.00000000e+00, -3.09976246e+00, -8.09835896e-01, -5.95417693e-02, 2.36811236e+00, 0.00000000e+00, 5.0000000000, 5.0000000000, 0.1345448988
          38, 0.00000000e+00, 0.00000000e+00, 0.00000000e+00, 0.00000000e+00, 0.00000000e+00, 0.00000000e+00, 0.00000000e+00, 0.00000000e+00, 0.00000000e+00, 0.00000000e+00, 0.00000000e+00, 0.00000000e+00, -3.11219159e+00, -7.81649555e-01, -5.79022372e-02, 2.35611590e+00, 0.00000000e+00, 5.0000000000, 5.0000000000, 0.1377674121
          39, 0.00000000e+00, 0.00000000e+00, 0.00000000e+00, 0.00000000e+00, 0.00000000e+00, 0.00000000e+00, 0.00000000e+00, 0.00000000e+00, 0.00000000e+00, 0.00000000e+00, 0.00000000e+00, 0.00000000e+00, -3.12658204e+00, -7.53798613e-01, -5.63955894e-02, 2.34222786e+00, 0.00000000e+00, 5.0000000000, 5.0000000000, 0.1414261601
          40, 0.00000000e+00, 0.00000000e+00, 0.00000000e+00, 0.00000000e+00, 0.00000000e+00, 0.00000000e+00, 0.00000000e+00, 0.00000000e+00, 0.00000000e+00, 0.00000000e+00, 0.00000000e+00, 0.00000000e+00, -3.14274068e+00, -7.27582971e-01, -5.50102170e-02, 2.32664414e+00, 0.00000000e+00, 5.0000000000, 5.0000000000, 0.1445183008
          41, 0.00000000e+00, 0.00000000e+00, 0.00000000e+00, 0.00000000e+00, 0.00000000e+00, 0.00000000e+00, 0.00000000e+00, 0.00000000e+00, 0.00000000e+00, 0.00000000e+00, 0.00000000e+00, 0.00000000e+00, -3.16042664e+00, -7.03754579e-01, -5.37351053e-02, 2.30960661e+00, 0.00000000e+00, 5.0000000000, 5.0000000000, 0.1473827945
          42, 0.00000000e+00, 0.00000000e+00, 0.00000000e+00, 0.00000000e+00, 0.00000000e+00, 0.00000000e+00, 0.00000000e+00, 0.00000000e+00, 0.00000000e+00, 0.00000000e+00, 0.00000000e+00, 0.00000000e+00, -3.17936323e+00, -6.82672329e-01, -5.25603851e-02, 2.29139074e+00, 0.00000000e+00, 5.0000000000, 5.0000000000, 0.1502530193
          43, 0.00000000e+00, 0.00000000e+00, 0.00000000e+00, 0.00000000e+00, 0.00000000e+00, 0.00000000e+00, 0.00000000e+00, 0.00000000e+00, 0.00000000e+00, 0.00000000e+00, 0.00000000e+00, 0.00000000e+00, -3.19926509e+00, -6.64425732e-01, -5.14773522e-02, 2.27227849e+00, 0.00000000e+00, 5.0000000000, 5.0000000000, 0.1530543008
          44, 0.00000000e+00, 0.00000000e+00, 0.00000000e+00, 0.00000000e+00, 0.00000000e+00, 0.00000000e+00, 0.00000000e+00, 0.00000000e+00, 0.00000000e+00, 0.00000000e+00, 0.00000000e+00, 0.00000000e+00, -3.21987867e+00, -6.48924158e-01, -5.04783460e-02, 2.25251880e+00, 0.00000000e+00, 5.0000000000, 5.0000000000, 0.1558539898
          45, 0.00000000e+00, 0.00000000e+00, 0.00000000e+00, 0.00000000e+00, 0.00000000e+00, 0.00000000e+00, 0.00000000e+00, 0.00000000e+00, 0.00000000e+00, 0.00000000e+00, 0.00000000e+00, 0.00000000e+00, -3.24102960e+00, -6.35960299e-01, -4.95565779e-02, 2.23228235e+00, 0.00000000e+00, 5.0000000000, 5.0000000000, 0.1586264765
          46, 0.00000000e+00, 0.00000000e+00, 0.00000000e+00, 0.00000000e+00, 0.00000000e+00, 0.00000000e+00, 0.00000000e+00, 0.00000000e+00, 0.00000000e+00, 0.00000000e+00, 0.00000000e+00, 0.00000000e+00, -3.26266696e+00, -6.25256933e-01, -4.87061439e-02, 2.21162033e+00, 0.00000000e+00, 5.0000000000, 5.0000000000, 0.1615301585
          47, 0.00000000e+00, 0.00000000e+00, 0.00000000e+00, 0.00000000e+00, 0.00000000e+00, 0.00000000e+00, 0.00000000e+00, 0.00000000e+00, 0.00000000e+00, 0.00000000e+00, 0.00000000e+00, 0.00000000e+00, -3.28489303e+00, -6.16503454e-01, -4.79222344e-02, 2.19043792e+00, 0.00000000e+00, 5.0000000000, 5.0000000000, 0.1646608901
          48, 0.00000000e+00, 0.00000000e+00, 0.00000000e+00, 0.00000000e+00, 0.00000000e+00, 0.00000000e+00, 0.00000000e+00, 0.00000000e+00, 0.00000000e+00, 0.00000000e+00, 0.00000000e+00, 0.00000000e+00, -3.30797098e+00, -6.09385831e-01, -4.72009338e-02, 2.16848955e+00, 0.00000000e+00, 5.0000000000, 5.0000000000, 0.1674169359
          49, 0.00000000e+00, 0.00000000e+00, 0.00000000e+00, 0.00000000e+00, 0.00000000e+00, 0.00000000e+00, 0.00000000e+00, 0.00000000e+00, 0.00000000e+00, 0.00000000e+00, 0.00000000e+00, 0.00000000e+00, -3.33230823e+00, -6.03611524e-01, -4.65390287e-02, 2.14539723e+00, 0.00000000e+00, 5.0000000000, 5.0000000000, 0.1702139304
          50, 0.00000000e+00, 0.00000000e+00, 0.00000000e+00, 0.00000000e+00, 0.00000000e+00, 0.00000000e+00, 0.00000000e+00, 0.00000000e+00, 0.00000000e+00, 0.00000000e+00, 0.00000000e+00, 0.00000000e+00, -3.35841994e+00, -5.98929502e-01, -4.59340489e-02, 2.12068758e+00, 0.00000000e+00, 5.0000000000, 5.0000000000, 0.1729390529
          51, 0.00000000e+00, 0.00000000e+00, 0.00000000e+00, 0.00000000e+00, 0.00000000e+00, 0.00000000e+00, 0.00000000e+00, 0.00000000e+00, 0.00000000e+00, 0.00000000e+00, 0.00000000e+00, 0.00000000e+00, -3.38687821e+00, -5.95144852e-01, -4.53842406e-02, 2.09384169e+00, 0.00000000e+00, 5.0000000000, 5.0000000000, 0.1766852462
          52, 0.00000000e+00, 0.00000000e+00, 0.00000000e+00, 0.00000000e+00, 0.00000000e+00, 0.00000000e+00, 0.00000000e+00, 0.00000000e+00, 0.00000000e+00, 0.00000000e+00, 0.00000000e+00, 0.00000000e+00, -3.41824839e+00, -5.92127487e-01, -4.48884094e-02, 2.06435586e+00, 0.00000000e+00, 5.0000000000, 5.0000000000, 0.1795445105
          53, 0.00000000e+00, 0.00000000e+00, 0.00000000e+00, 0.00000000e+00, 0.00000000e+00, 0.00000000e+00, 0.00000000e+00, 0.00000000e+00, 0.00000000e+00, 0.00000000e+00, 0.00000000e+00, 0.00000000e+00, -3.45300168e+00, -5.89814887e-01, -4.44458401e-02, 2.03182125e+00, 0.00000000e+00, 5.0000000000, 5.0000000000, 0.1823430927
          54, 0.00000000e+00, 0.00000000e+00, 0.00000000e+00, 0.00000000e+00, 0.00000000e+00, 0.00000000e+00, 0.00000000e+00, 0.00000000e+00, 0.00000000e+00, 0.00000000e+00, 0.00000000e+00, 0.00000000e+00, -3.49137307e+00, -5.88209465e-01, -4.40560770e-02, 1.99604598e+00, 0.00000000e+00, 5.0000000000, 5.0000000000, 0.1851119622
          55, 0.00000000e+00, 0.00000000e+00, 0.00000000e+00, 0.00000000e+00, 0.00000000e+00, 0.00000000e+00, 0.00000000e+00, 0.00000000e+00, 0.00000000e+00, 0.00000000e+00, 0.00000000e+00, 0.00000000e+00, -3.53310184e+00, -5.87371699e-01, -4.37188111e-02, 1.95726555e+00, 0.00000000e+00, 5.0000000000, 5.0000000000, 0.1879967485
          56, 0.00000000e+00, 0.00000000e+00, 0.00000000e+00, 0.00000000e+00, 0.00000000e+00, 0.00000000e+00, 0.00000000e+00, 0.00000000e+00, 0.00000000e+00, 0.00000000e+00, 0.00000000e+00, 0.00000000e+00, -3.57695580e+00, -5.87410540e-01, -4.34337031e-02, 1.91651021e+00, 0.00000000e+00, 5.0000000000, 5.0000000000, 0.1909081803
          57, 0.00000000e+00, 0.00000000e+00, 0.00000000e+00, 0.00000000e+00, 0.00000000e+00, 0.00000000e+00, 0.00000000e+00, 0.00000000e+00, 0.00000000e+00, 0.00000000e+00, 0.00000000e+00, 0.00000000e+00, -3.61995762e+00, -5.88472594e-01, -4.32002521e-02, 1.87618184e+00, 0.00000000e+00, 5.0000000000, 5.0000000000, 0.1939242999
          58, 0.00000000e+00, 0.00000000e+00, 0.00000000e+00, 0.00000000e+00, 0.00000000e+00, 0.00000000e+00, 0.00000000e+00, 0.00000000e+00, 0.00000000e+00, 0.00000000e+00, 0.00000000e+00, 0.00000000e+00, -3.65652936e+00, -5.90731369e-01, -4.30176780e-02, 1.84070251e+00, 0.00000000e+00, 5.0000000000, 5.0000000000, 0.1979292736
          59, 0.00000000e+00, 0.00000000e+00, 0.00000000e+00, 0.00000000e+00, 0.00000000e+00, 0.00000000e+00, 0.00000000e+00, 0.00000000e+00, 0.00000000e+00, 0.00000000e+00, 0.00000000e+00, 0.00000000e+00, -3.67870223e+00, -5.94377517e-01, -4.28848356e-02, 1.81651735e+00, 0.00000000e+00, 5.0000000000, 5.0000000000, 0.2010876616
          60, 0.00000000e+00, 0.00000000e+00, 0.00000000e+00, 0.00000000e+00, 0.00000000e+00, 0.00000000e+00, 0.00000000e+00, 0.00000000e+00, 0.00000000e+00, 0.00000000e+00, 0.00000000e+00, 0.00000000e+00, -3.67928676e+00, -5.99610605e-01, -4.28001626e-02, 1.81013203e+00, 0.00000000e+00, 5.0000000000, 5.0000000000, 0.2043674727
          61, 0.00000000e+00, 0.00000000e+00, 0.00000000e+00, 0.00000000e+00, 0.00000000e+00, 0.00000000e+00, 0.00000000e+00, 0.00000000e+00, 0.00000000e+00, 0.00000000e+00, 0.00000000e+00, 0.00000000e+00, -3.65697927e+00, -6.06632650e-01, -4.27616565e-02, 1.82426072e+00, 0.00000000e+00, 5.0000000000, 5.0000000000, 0.2075145012
          62, 0.00000000e+00, 0.00000000e+00, 0.00000000e+00, 0.00000000e+00, 0.00000000e+00, 0.00000000e+00, 0.00000000e+00, 0.00000000e+00, 0.00000000e+00, 0.00000000e+00, 0.00000000e+00, 0.00000000e+00, -3.61751127e+00, -6.15643586e-01, -4.27669141e-02, 1.85573021e+00, 0.00000000e+00, 5.0000000000, 5.0000000000, 0.2112200498
          63, 0.00000000e+00, 0.00000000e+00, 0.00000000e+00, 0.00000000e+00, 0.00000000e+00, 0.00000000e+00, 0.00000000e+00, 0.00000000e+00, 0.00000000e+00, 0.00000000e+00, 0.00000000e+00, 0.00000000e+00, -3.56920896e+00, -6.26838692e-01, -4.28131881e-02, 1.89784271e+00, 0.00000000e+00, 5.0000000000, 5.0000000000, 0.2143084578
          64, 0.00000000e+00, 0.00000000e+00, 0.00000000e+00, 0.00000000e+00, 0.00000000e+00, 0.00000000e+00, 0.00000000e+00, 0.00000000e+00, 0.00000000e+00, 0.00000000e+00, 0.00000000e+00, 0.00000000e+00, -3.51872594e+00, -6.40407733e-01, -4.28973896e-02, 1.94417327e+00, 0.00000000e+00, 5.0000000000, 5.0000000000, 0.2177457067
          65, 0.00000000e+00, 0.00000000e+00, 0.00000000e+00, 0.00000000e+00, 0.00000000e+00, 0.00000000e+00, 0.00000000e+00, 0.00000000e+00, 0.00000000e+00, 0.00000000e+00, 0.00000000e+00, 0.00000000e+00, -3.46999075e+00, -6.56535295e-01, -4.30162911e-02, 1.99035314e+00, 0.00000000e+00, 5.0000000000, 5.0000000000, 0.2221309192
          66, 0.00000000e+00, 0.00000000e+00, 0.00000000e+00, 0.00000000e+00, 0.00000000e+00, 0.00000000e+00, 0.00000000e+00, 0.00000000e+00, 0.00000000e+00, 0.00000000e+00, 0.00000000e+00, 0.00000000e+00, -3.42489582e+00, -6.75401823e-01, -4.31665995e-02, 2.03397175e+00, 0.00000000e+00, 5.0000000000, 5.0000000000, 0.2252626998
          67, 0.00000000e+00, 0.00000000e+00, 0.00000000e+00, 0.00000000e+00, 0.00000000e+00, 0.00000000e+00, 0.00000000e+00, 0.00000000e+00, 0.00000000e+00, 0.00000000e+00, 0.00000000e+00, 0.00000000e+00, -3.38416287e+00, -6.97184828e-01, -4.33450544e-02, 2.07391131e+00, 0.00000000e+00, 5.0000000000, 5.0000000000, 0.2283444094
          68, 0.00000000e+00, 0.00000000e+00, 0.00000000e+00, 0.00000000e+00, 0.00000000e+00, 0.00000000e+00, 0.00000000e+00, 0.00000000e+00, 0.00000000e+00, 0.00000000e+00, 0.00000000e+00, 0.00000000e+00, -3.34792149e+00, -7.22059475e-01, -4.35485348e-02, 2.10977962e+00, 0.00000000e+00, 5.0000000000, 5.0000000000, 0.2313921106
          69, 0.00000000e+00, 0.00000000e+00, 0.00000000e+00, 0.00000000e+00, 0.00000000e+00, 0.00000000e+00, 0.00000000e+00, 0.00000000e+00, 0.00000000e+00, 0.00000000e+00, 0.00000000e+00, 0.00000000e+00, -3.31602697e+00, -7.50197311e-01, -4.37741146e-02, 2.14155629e+00, 0.00000000e+00, 5.0000000000, 5.0000000000, 0.2346181983
          70, 0.00000000e+00, 0.00000000e+00, 0.00000000e+00, 0.00000000e+00, 0.00000000e+00, 0.00000000e+00, 0.00000000e+00, 0.00000000e+00, 0.00000000e+00, 0.00000000e+00, 0.00000000e+00, 0.00000000e+00, -3.28822066e+00, -7.81761024e-01, -4.40191225e-02, 2.16939802e+00, 0.00000000e+00, 5.0000000000, 5.0000000000, 0.2379438815
          71, 0.00000000e+00, 0.00000000e+00, 0.00000000e+00, 0.00000000e+00, 0.00000000e+00, 0.00000000e+00, 0.00000000e+00, 0.00000000e+00, 0.00000000e+00, 0.00000000e+00, 0.00000000e+00, 0.00000000e+00, -3.26420677e+00, -8.16891641e-01, -4.42811849e-02, 2.19353769e+00, 0.00000000e+00, 5.0000000000, 5.0000000000, 0.2413686927
          72, 0.00000000e+00, 0.00000000e+00, 0.00000000e+00, 0.00000000e+00, 0.00000000e+00, 0.00000000e+00, 0.00000000e+00, 0.00000000e+00, 0.00000000e+00, 0.00000000e+00, 0.00000000e+00, 0.00000000e+00, -3.24368733e+00, -8.55681709e-01, -4.45582296e-02, 2.21423425e+00, 0.00000000e+00, 5.0000000000, 5.0000000000, 0.2447134201
          73, 0.00000000e+00, 0.00000000e+00, 0.00000000e+00, 0.00000000e+00, 0.00000000e+00, 0.00000000e+00, 0.00000000e+00, 0.00000000e+00, 0.00000000e+00, 0.00000000e+00, 0.00000000e+00, 0.00000000e+00, -3.22637670e+00, -8.98123182e-01, -4.48484849e-02, 2.23174896e+00, 0.00000000e+00, 5.0000000000, 5.0000000000, 0.2490020808
          74, 0.00000000e+00, 0.00000000e+00, 0.00000000e+00, 0.00000000e+00, 0.00000000e+00, 0.00000000e+00, 0.00000000e+00, 0.00000000e+00, 0.00000000e+00, 0.00000000e+00, 0.00000000e+00, 0.00000000e+00, -3.21200629e+00, -9.44010823e-01, -4.51504717e-02, 2.24633507e+00, 0.00000000e+00, 5.0000000000, 5.0000000000, 0.2529650581
          75, 0.00000000e+00, 0.00000000e+00, 0.00000000e+00, 0.00000000e+00, 0.00000000e+00, 0.00000000e+00, 0.00000000e+00, 0.00000000e+00, 0.00000000e+00, 0.00000000e+00, 0.00000000e+00, 0.00000000e+00, -3.20032479e+00, -9.92771545e-01, -4.54629723e-02, 2.25823427e+00, 0.00000000e+00, 5.0000000000, 5.0000000000, 0.2560471567
          76, 0.00000000e+00, 0.00000000e+00, 0.00000000e+00, 0.00000000e+00, 0.00000000e+00, 0.00000000e+00, 0.00000000e+00, 0.00000000e+00, 0.00000000e+00, 0.00000000e+00, 0.00000000e+00, 0.00000000e+00, -3.19109652e+00, -1.04318481e+00, -4.57849850e-02, 2.26767629e+00, 0.00000000e+00, 5.0000000000, 5.0000000000, 0.2592373090
          77, 0.00000000e+00, 0.00000000e+00, 0.00000000e+00, 0.00000000e+00, 0.00000000e+00, 0.00000000e+00, 0.00000000e+00, 0.00000000e+00, 0.00000000e+00, 0.00000000e+00, 0.00000000e+00, 0.00000000e+00, -3.18409910e+00, -1.09298916e+00, -4.61157133e-02, 2.27487989e+00, 0.00000000e+00, 5.0000000000, 5.0000000000, 0.2623017164
          78, 0.00000000e+00, 0.00000000e+00, 0.00000000e+00, 0.00000000e+00, 0.00000000e+00, 0.00000000e+00, 0.00000000e+00, 0.00000000e+00, 0.00000000e+00, 0.00000000e+00, 0.00000000e+00, 0.00000000e+00, -3.17912120e+00, -1.13851099e+00, -4.64545348e-02, 2.28005444e+00, 0.00000000e+00, 5.0000000000, 5.0000000000, 0.2653600411
          79, 0.00000000e+00, 0.00000000e+00, 0.00000000e+00, 0.00000000e+00, 0.00000000e+00, 0.00000000e+00, 0.00000000e+00, 0.00000000e+00, 0.00000000e+00, 0.00000000e+00, 0.00000000e+00, 0.00000000e+00, -3.17596064e+00, -1.17477592e+00, -4.68009813e-02, 2.28340126e+00, 0.00000000e+00, 5.0000000000, 5.0000000000, 0.2684732262
          80, 0.00000000e+00, 0.00000000e+00, 0.00000000e+00, 0.00000000e+00, 0.00000000e+00, 0.00000000e+00, 0.00000000e+00, 0.00000000e+00, 0.00000000e+00, 0.00000000e+00, 0.00000000e+00, 0.00000000e+00, -3.17442304e+00, -1.19680528e+00, -4.71547119e-02, 2.28511468e+00, 0.00000000e+00, 5.0000000000, 5.0000000000, 0.2726211424
          81, 0.00000000e+00, 0.00000000e+00, 0.00000000e+00, 0.00000000e+00, 0.00000000e+00, 0.00000000e+00, 0.00000000e+00, 0.00000000e+00, 0.00000000e+00, 0.00000000e+00, 0.00000000e+00, 0.00000000e+00, -3.17432121e+00, -1.20201779e+00, -4.75154955e-02, 2.28538253e+00, 0.00000000e+00, 5.0000000000, 5.0000000000, 0.2756328399
          82, 0.00000000e+00, 0.00000000e+00, 0.00000000e+00, 0.00000000e+00, 0.00000000e+00, 0.00000000e+00, 0.00000000e+00, 0.00000000e+00, 0.00000000e+00, 0.00000000e+00, 0.00000000e+00, 0.00000000e+00, -3.17547521e+00, -1.19183113e+00, -4.78831989e-02, 2.28438582e+00, 0.00000000e+00, 5.0000000000, 5.0000000000, 0.2787380587
          83, 0.00000000e+00, 0.00000000e+00, 0.00000000e+00, 0.00000000e+00, 0.00000000e+00, 0.00000000e+00, 0.00000000e+00, 0.00000000e+00, 0.00000000e+00, 0.00000000e+00, 0.00000000e+00, 0.00000000e+00, -3.17771334e+00, -1.17068370e+00, -4.82577782e-02, 2.28229778e+00, 0.00000000e+00, 5.0000000000, 5.0000000000, 0.2819808107
          84, 0.00000000e+00, 0.00000000e+00, 0.00000000e+00, 0.00000000e+00, 0.00000000e+00, 0.00000000e+00, 0.00000000e+00, 0.00000000e+00, 0.00000000e+00, 0.00000000e+00, 0.00000000e+00, 0.00000000e+00, -3.18087375e+00, -1.14359873e+00, -4.86392696e-02, 2.27928207e+00, 0.00000000e+00, 5.0000000000, 5.0000000000, 0.2851975376
          85, 0.00000000e+00, 0.00000000e+00, 0.00000000e+00, 0.00000000e+00, 0.00000000e+00, 0.00000000e+00, 0.00000000e+00, 0.00000000e+00, 0.00000000e+00, 0.00000000e+00, 0.00000000e+00, 0.00000000e+00, -3.18480683e+00, -1.11450745e+00, -4.90277805e-02, 2.27549036e+00, 0.00000000e+00, 5.0000000000, 5.0000000000, 0.2888429380
          86, 0.00000000e+00, 0.00000000e+00, 0.00000000e+00, 0.00000000e+00, 0.00000000e+00, 0.00000000e+00, 0.00000000e+00, 0.00000000e+00, 0.00000000e+00, 0.00000000e+00, 0.00000000e+00, 0.00000000e+00, -3.18937798e+00, -1.08588063e+00, -4.94234813e-02, 2.27105946e+00, 0.00000000e+00, 5.0000000000, 5.0000000000, 0.2920193309
          87, 0.00000000e+00, 0.00000000e+00, 0.00000000e+00, 0.00000000e+00, 0.00000000e+00, 0.00000000e+00, 0.00000000e+00, 0.00000000e+00, 0.00000000e+00, 0.00000000e+00, 0.00000000e+00, 0.00000000e+00, -3.19447058e+00, -1.05903238e+00, -4.98265931e-02, 2.26610827e+00, 0.00000000e+00, 5.0000000000, 5.0000000000, 0.2952836796
          88, 0.00000000e+00, 0.00000000e+00, 0.00000000e+00, 0.00000000e+00, 0.00000000e+00, 0.00000000e+00, 0.00000000e+00, 0.00000000e+00, 0.00000000e+00, 0.00000000e+00, 0.00000000e+00, 0.00000000e+00, -3.19998876e+00, -1.03453327e+00, -5.02373762e-02, 2.26073488e+00, 0.00000000e+00, 5.0000000000, 5.0000000000, 0.2986328290
          89, 0.00000000e+00, 0.00000000e+00, 0.00000000e+00, 0.00000000e+00, 0.00000000e+00, 0.00000000e+00, 0.00000000e+00, 0.00000000e+00, 0.00000000e+00, 0.00000000e+00, 0.00000000e+00, 0.00000000e+00, -3.20585969e+00, -1.01252662e+00, -5.06561137e-02, 2.25501426e+00, 0.00000000e+00, 5.0000000000, 5.0000000000, 0.3029263030