VARIABLES = "x"
 "y"
 "Density"
 "Momentum_x"
 "Momentum_y"
 "Energy"
 "Pressure"
 "Temperature"
 "Mach"
 "C<sub>p</sub>"
 "Roe_Dissipation"
ZONE
DT=(DOUBLE,DOUBLE,DOUBLE,DOUBLE,DOUBLE,DOUBLE,DOUBLE,DOUBLE,DOUBLE,DOUBLE,DOUBLE)
                      2                    1.25        1.22426605224609          41.66162109375        15.1628704071045           253877.796875                  101230        288.047393798828        0.10643669962883      -0.133938752114773                       0 
                      2         1.2474974974975        1.22426605224609          41.66162109375        15.1628704071045           253877.796875                  101230        288.047393798828        0.10643669962883      -0.133938752114773                       0 
                      2        1.24499499499499        1.22426605224609          41.66162109375        15.1628704071045           253877.796875                  101230        288.047393798828        0.10643669962883      -0.133938752114773                       0 
                      2        1.24249249249249        1.22426605224609          41.66162109375        15.1628704071045           253877.796875                  101230        288.047393798828        0.10643669962883      -0.133938752114773                       0 
                      2        1.23998998998999        1.22426605224609          41.66162109375        15.1628704071045           253877.796875                  101230        288.047393798828        0.10643669962883      -0.133938752114773                       0 
                      2        1.23748748748749        1.22426605224609          41.66162109375        15.1628704071045           253877.796875                  101230        288.047393798828        0.10643669962883      -0.133938752114773                       0 
                      2        1.23498498498498        1.22426605224609          41.66162109375        15.1628704071045           253877.796875                  101230        288.047393798828        0.10643669962883      -0.133938752114773                       0 
                      2        1.23248248248248        1.22426605224609          41.66162109375        15.1628704071045           253877.796875                  101230        288.047393798828        0.10643669962883      -0.133938752114773                       0 
                      2        1.22997997997998        1.22426605224609          41.66162109375        15.1628704071045           253877.796875                  101230        288.047393798828        0.10643669962883      -0.133938752114773                       0 
                      2        1.22747747747748        1.22426605224609          41.66162109375        15.1628704071045           253877.796875                  101230        288.047393798828        0.10643669962883      -0.133938752114773                       0 
                      2        1.22497497497497        1.22426605224609          41.66162109375        15.1628704071045           253877.796875                  101230        288.047393798828        0.10643669962883      -0.133938752114773                       0 
                      2        1.22247247247247        1.22426605224609          41.66162109375        15.1628704071045           253877.796875                  101230        288.047393798828        0.10643669962883      -0.133938752114773                       0 
                      2        1.21996996996997        1.22426605224609          41.66162109375        15.1628704071045           253877.796875                  101230        288.047393798828        0.10643669962883      -0.133938752114773                       0 
                      2        1.21746746746747        1.22426605224609          41.66162109375        15.1628704071045           253877.796875                  101230        288.047393798828        0.10643669962883      -0.133938752114773                       0 
                      2        1.21496496496496        1.22426605224609          41.66162109375        15.1628704071045           253877.796875                  101230        288.047393798828        0.10643669962883      -0.133938752114773                       0 
                      2        1.21246246246246        1.22426605224609          41.66162109375        15.1628704071045           253877.796875                  101230        288.047393798828        0.10643669962883      -0.133938752114773                       0 
                      2        1.20995995995996        1.22426605224609          41.66162109375        15.1628704071045           253877.796875                  101230        288.047393798828        0.10643669962883      -0.133938752114773                       0 
                      2        1.20745745745746        1.22426605224609          41.66162109375        15.1628704071045           253877.796875                  101230        288.047393798828        0.10643669962883      -0.133938752114773                       0 
                      2        1.20495495495495        1.22426605224609          41.66162109375        15.1628704071045           253877.796875                  101230        288.047393798828        0.10643669962883      -0.133938752114773                       0 
                      2        1.20245245245245        1.22426605224609          41.66162109375        15.1628704071045           253877.796875                  101230        288.047393798828        0.10643669962883      -0.133938752114773                       0 
                      2        1.19994994994995        1.22426605224609          41.66162109375        15.1628704071045           253877.796875                  101230        288.047393798828        0.10643669962883      -0.133938752114773                       0 
                      2        1.19744744744745        1.22426605224609          41.66162109375        15.1628704071045           253877.796875                  101230        288.047393798828        0.10643669962883      -0.133938752114773                       0 
                      2        1.19494494494494        1.22426605224609          41.66162109375        15.1628704071045           253877.796875                  101230        288.047393798828        0.10643669962883      -0.133938752114773                       0 
                      2        1.19244244244244        1.22426605224609          41.66162109375        15.1628704071045           253877.796875                  101230        288.047393798828        0.10643669962883      -0.133938752114773                       0 
                      2        1.18993993993994        1.22426605224609          41.66162109375        15.1628704071045           253877.796875                  101230        288.047393798828        0.10643669962883      -0.133938752114773                       0 
                      2        1.18743743743744        1.22426605224609          41.66162109375        15.1628704071045           253877.796875                  101230        288.047393798828        0.10643669962883      -0.133938752114773                       0 
                      2        1.18493493493493        1.22426605224609          41.66162109375        15.1628704071045           253877.796875                  101230        288.047393798828        0.10643669962883      -0.133938752114773                       0 
                      2        1.18243243243243        1.22426605224609          41.66162109375        15.1628704071045           253877.796875                  101230        288.047393798828        0.10643669962883      -0.133938752114773                       0 
                      2        1.17992992992993        1.22426605224609          41.66162109375        15.1628704071045           253877.796875                  101230        288.047393798828        0.10643669962883      -0.133938752114773                       0 
                      2        1.17742742742743        1.22426605224609          41.66162109375        15.1628704071045           253877.796875                  101230        288.047393798828        0.10643669962883      -0.133938752114773                       0 
                      2        1.17492492492492        1.22426605224609          41.66162109375        15.1628704071045           253877.796875                  101230        288.047393798828        0.10643669962883      -0.133938752114773                       0 
                      2        1.17242242242242        1.22426605224609          41.66162109375        15.1628704071045           253877.796875                  101230        288.047393798828        0.10643669962883      -0.133938752114773                       0 
                      2        1.16991991991992        1.22426605224609          41.66162109375        15.1628704071045           253877.796875                  101230        288.047393798828        0.10643669962883      -0.133938752114773                       0 
                      2        1.16741741741742        1.22426605224609          41.66162109375        15.1628704071045           253877.796875                  101230        288.047393798828        0.10643669962883      -0.133938752114773                       0 
                      2        1.16491491491491        1.22426605224609          41.66162109375        15.1628704071045           253877.796875                  101230        288.047393798828        0.10643669962883      -0.133938752114773                       0 
                      2        1.16241241241241        1.22426605224609          41.66162109375        15.1628704071045           253877.796875                  101230        288.047393798828        0.10643669962883      -0.133938752114773                       0 
                      2        1.15990990990991        1.22426605224609          41.66162109375        15.1628704071045           253877.796875                  101230        288.047393798828        0.10643669962883      -0.133938752114773                       0 
                      2        1.15740740740741        1.22426605224609          41.66162109375        15.1628704071045           253877.796875                  101230        288.047393798828        0.10643669962883      -0.133938752114773                       0 
                      2         1.1549049049049        1.22426605224609          41.66162109375        15.1628704071045           253877.796875                  101230        288.047393798828        0.10643669962883      -0.133938752114773                       0 
                      2         1.1524024024024        1.22426605224609          41.66162109375        15.1628704071045           253877.796875                  101230        288.047393798828        0.10643669962883      -0.133938752114773                       0 
                      2         1.1498998998999        1.22426605224609          41.66162109375        15.1628704071045           253877.796875                  101230        288.047393798828        0.10643669962883      -0.133938752114773                       0 
                      2         1.1473973973974        1.22426605224609          41.66162109375        15.1628704071045           253877.796875                  101230        288.047393798828        0.10643669962883      -0.133938752114773                       0 
                      2        1.14489489489489        1.22426605224609          41.66162109375        15.1628704071045           253877.796875                  101230        288.047393798828        0.10643669962883      -0.133938752114773                       0 
                      2        1.14239239239239        1.22426605224609          41.66162109375        15.1628704071045           253877.796875                  101230        288.047393798828        0.10643669962883      -0.133938752114773                       0 
                      2        1.13988988988989        1.22426605224609          41.66162109375        15.1628704071045           253877.796875                  101230        288.047393798828        0.10643669962883      -0.133938752114773                       0 
                      2        1.13738738738739        1.22426605224609          41.66162109375        15.1628704071045           253877.796875                  101230        288.047393798828        0.10643669962883      -0.133938752114773                       0 
                      2        1.13488488488488        1.22426605224609          41.66162109375        15.1628704071045           253877.796875                  101230        288.047393798828        0.10643669962883      -0.133938752114773                       0 
                      2        1.13238238238238        1.22426605224609          41.66162109375        15.1628704071045           253877.796875                  101230        288.047393798828        0.10643669962883      -0.133938752114773                       0 
                      2        1.12987987987988        1.22426605224609          41.66162109375        15.1628704071045           253877.796875                  101230        288.047393798828        0.10643669962883      -0.133938752114773                       0 
                      2        1.12737737737738        1.22426605224609          41.66162109375        15.1628704071045           253877.796875                  101230        288.047393798828        0.10643669962883      -0.133938752114773                       0 
                      2        1.12487487487487        1.22426605224609          41.66162109375        15.1628704071045           253877.796875                  101230        288.047393798828        0.10643669962883      -0.133938752114773                       0 
                      2        1.12237237237237        1.22426605224609          41.66162109375        15.1628704071045           253877.796875                  101230        288.047393798828        0.10643669962883      -0.133938752114773                       0 
                      2        1.11986986986987        1.22426605224609          41.66162109375        15.1628704071045           253877.796875                  101230        288.047393798828        0.10643669962883      -0.133938752114773                       0 
                      2        1.11736736736737        1.22426605224609          41.66162109375        15.1628704071045           253877.796875                  101230        288.047393798828        0.10643669962883      -0.133938752114773                       0 
                      2        1.11486486486486        1.22426605224609          41.66162109375        15.1628704071045           253877.796875                  101230        288.047393798828        0.10643669962883      -0.133938752114773                       0 
                      2        1.11236236236236        1.22426605224609          41.66162109375        15.1628704071045           253877.796875                  101230        288.047393798828        0.10643669962883      -0.133938752114773                       0 
                      2        1.10985985985986        1.22426605224609          41.66162109375        15.1628704071045           253877.796875                  101230        288.047393798828        0.10643669962883      -0.133938752114773                       0 
                      2        1.10735735735736        1.22426605224609          41.66162109375        15.1628704071045           253877.796875                  101230        288.047393798828        0.10643669962883      -0.133938752114773                       0 
                      2        1.10485485485485        1.22426605224609          41.66162109375        15.1628704071045           253877.796875                  101230        288.047393798828        0.10643669962883      -0.133938752114773                       0 
                      2        1.10235235235235        1.22426605224609          41.66162109375        15.1628704071045           253877.796875                  101230        288.047393798828        0.10643669962883      -0.133938752114773                       0 
                      2        1.09984984984985        1.22426605224609          41.66162109375        15.1628704071045           253877.796875                  101230        288.047393798828        0.10643669962883      -0.133938752114773                       0 
                      2        1.09734734734735        1.22426605224609          41.66162109375        15.1628704071045           253877.796875                  101230        288.047393798828        0.10643669962883      -0.133938752114773                       0 
                      2        1.09484484484484        1.22426605224609          41.66162109375        15.1628704071045           253877.796875                  101230        288.047393798828        0.10643669962883      -0.133938752114773                       0 
                      2        1.09234234234234        1.22426605224609          41.66162109375        15.1628704071045           253877.796875                  101230        288.047393798828        0.10643669962883      -0.133938752114773                       0 
                      2        1.08983983983984        1.22426605224609          41.66162109375        15.1628704071045           253877.796875                  101230        288.047393798828        0.10643669962883      -0.133938752114773                       0 
                      2        1.08733733733734        1.22426605224609          41.66162109375        15.1628704071045           253877.796875                  101230        288.047393798828        0.10643669962883      -0.133938752114773                       0 
                      2        1.08483483483483        1.22426605224609          41.66162109375        15.1628704071045           253877.796875                  101230        288.047393798828        0.10643669962883      -0.133938752114773                       0 
                      2        1.08233233233233        1.22426605224609          41.66162109375        15.1628704071045           253877.796875                  101230        288.047393798828        0.10643669962883      -0.133938752114773                       0 
                      2        1.07982982982983        1.22426605224609          41.66162109375        15.1628704071045           253877.796875                  101230        288.047393798828        0.10643669962883      -0.133938752114773                       0 
                      2        1.07732732732733        1.22426605224609          41.66162109375        15.1628704071045           253877.796875                  101230        288.047393798828        0.10643669962883      -0.133938752114773                       0 
                      2        1.07482482482482        1.22426605224609          41.66162109375        15.1628704071045           253877.796875                  101230        288.047393798828        0.10643669962883      -0.133938752114773                       0 
                      2        1.07232232232232        1.22426605224609          41.66162109375        15.1628704071045           253877.796875                  101230        288.047393798828        0.10643669962883      -0.133938752114773                       0 
                      2        1.06981981981982        1.22426605224609          41.66162109375        15.1628704071045           253877.796875                  101230        288.047393798828        0.10643669962883      -0.133938752114773                       0 
                      2        1.06731731731732        1.22426605224609          41.66162109375        15.1628704071045           253877.796875                  101230        288.047393798828        0.10643669962883      -0.133938752114773                       0 
                      2        1.06481481481481        1.22426605224609          41.66162109375        15.1628704071045           253877.796875                  101230        288.047393798828        0.10643669962883      -0.133938752114773                       0 
                      2        1.06231231231231        1.22426605224609          41.66162109375        15.1628704071045           253877.796875                  101230        288.047393798828        0.10643669962883      -0.133938752114773                       0 
                      2        1.05980980980981        1.22426605224609          41.66162109375        15.1628704071045           253877.796875                  101230        288.047393798828        0.10643669962883      -0.133938752114773                       0 
                      2        1.05730730730731        1.22426605224609          41.66162109375        15.1628704071045           253877.796875                  101230        288.047393798828        0.10643669962883      -0.133938752114773                       0 
                      2         1.0548048048048        1.22426605224609          41.66162109375        15.1628704071045           253877.796875                  101230        288.047393798828        0.10643669962883      -0.133938752114773                       0 
                      2         1.0523023023023        1.22426605224609          41.66162109375        15.1628704071045           253877.796875                  101230        288.047393798828        0.10643669962883      -0.133938752114773                       0 
                      2         1.0497997997998        1.22426605224609          41.66162109375        15.1628704071045           253877.796875                  101230        288.047393798828        0.10643669962883      -0.133938752114773                       0 
                      2         1.0472972972973        1.22426605224609          41.66162109375        15.1628704071045           253877.796875                  101230        288.047393798828        0.10643669962883      -0.133938752114773                       0 
                      2        1.04479479479479        1.22426605224609          41.66162109375        15.1628704071045           253877.796875                  101230        288.047393798828        0.10643669962883      -0.133938752114773                       0 
                      2        1.04229229229229        1.22426605224609          41.66162109375        15.1628704071045           253877.796875                  101230        288.047393798828        0.10643669962883      -0.133938752114773                       0 
                      2        1.03978978978979        1.22426605224609          41.66162109375        15.1628704071045           253877.796875                  101230        288.047393798828        0.10643669962883      -0.133938752114773                       0 
                      2        1.03728728728729        1.22426605224609          41.66162109375        15.1628704071045           253877.796875                  101230        288.047393798828        0.10643669962883      -0.133938752114773                       0 
                      2        1.03478478478478        1.22426605224609          41.66162109375        15.1628704071045           253877.796875                  101230        288.047393798828        0.10643669962883      -0.133938752114773                       0 
                      2        1.03228228228228        1.22426605224609          41.66162109375        15.1628704071045           253877.796875                  101230        288.047393798828        0.10643669962883      -0.133938752114773                       0 
                      2        1.02977977977978        1.22426605224609          41.66162109375        15.1628704071045           253877.796875                  101230        288.047393798828        0.10643669962883      -0.133938752114773                       0 
                      2        1.02727727727728        1.22426605224609          41.66162109375        15.1628704071045           253877.796875                  101230        288.047393798828        0.10643669962883      -0.133938752114773                       0 
                      2        1.02477477477477        1.22426605224609          41.66162109375        15.1628704071045           253877.796875                  101230        288.047393798828        0.10643669962883      -0.133938752114773                       0 
                      2        1.02227227227227        1.22426605224609          41.66162109375        15.1628704071045           253877.796875                  101230        288.047393798828        0.10643669962883      -0.133938752114773                       0 
                      2        1.01976976976977        1.22426605224609          41.66162109375        15.1628704071045           253877.796875                  101230        288.047393798828        0.10643669962883      -0.133938752114773                       0 
                      2        1.01726726726727        1.22426605224609          41.66162109375        15.1628704071045           253877.796875                  101230        288.047393798828        0.10643669962883      -0.133938752114773                       0 
                      2        1.01476476476476        1.22426605224609          41.66162109375        15.1628704071045           253877.796875                  101230        288.047393798828        0.10643669962883      -0.133938752114773                       0 
                      2        1.01226226226226        1.22426605224609          41.66162109375        15.1628704071045           253877.796875                  101230        288.047393798828        0.10643669962883      -0.133938752114773                       0 
                      2        1.00975975975976        1.22426605224609          41.66162109375        15.1628704071045           253877.796875                  101230        288.047393798828        0.10643669962883      -0.133938752114773                       0 
                      2        1.00725725725726        1.22426605224609          41.66162109375        15.1628704071045           253877.796875                  101230        288.047393798828        0.10643669962883      -0.133938752114773                       0 
                      2        1.00475475475475        1.22426605224609          41.66162109375        15.1628704071045           253877.796875                  101230        288.047393798828        0.10643669962883      -0.133938752114773                       0 
                      2        1.00225225225225        1.22426605224609          41.66162109375        15.1628704071045           253877.796875                  101230        288.047393798828        0.10643669962883      -0.133938752114773                       0 
                      2        0.99974974974975        1.22426605224609          41.66162109375        15.1628704071045           253877.796875                  101230        288.047393798828        0.10643669962883      -0.133938752114773                       0 
                      2       0.997247247247247        1.22426605224609          41.66162109375        15.1628704071045           253877.796875                  101230        288.047393798828        0.10643669962883      -0.133938752114773                       0 
                      2       0.994744744744745        1.22426605224609          41.66162109375        15.1628704071045           253877.796875                  101230        288.047393798828        0.10643669962883      -0.133938752114773                       0 
                      2       0.992242242242242        1.22426605224609          41.66162109375        15.1628704071045           253877.796875                  101230        288.047393798828        0.10643669962883      -0.133938752114773                       0 
                      2        0.98973973973974        1.22426605224609          41.66162109375        15.1628704071045           253877.796875                  101230        288.047393798828        0.10643669962883      -0.133938752114773                       0 
                      2       0.987237237237237        1.22426605224609          41.66162109375        15.1628704071045           253877.796875                  101230        288.047393798828        0.10643669962883      -0.133938752114773                       0 
                      2       0.984734734734735        1.22426605224609          41.66162109375        15.1628704071045           253877.796875                  101230        288.047393798828        0.10643669962883      -0.133938752114773                       0 
                      2       0.982232232232232        1.22426605224609          41.66162109375        15.1628704071045           253877.796875                  101230        288.047393798828        0.10643669962883      -0.133938752114773                       0 
                      2        0.97972972972973        1.22426605224609          41.66162109375        15.1628704071045           253877.796875                  101230        288.047393798828        0.10643669962883      -0.133938752114773                       0 
                      2       0.977227227227227        1.22426605224609          41.66162109375        15.1628704071045           253877.796875                  101230        288.047393798828        0.10643669962883      -0.133938752114773                       0 
                      2       0.974724724724725        1.22426605224609          41.66162109375        15.1628704071045           253877.796875                  101230        288.047393798828        0.10643669962883      -0.133938752114773                       0 
                      2       0.972222222222222        1.22426605224609          41.66162109375        15.1628704071045           253877.796875                  101230        288.047393798828        0.10643669962883      -0.133938752114773                       0 