VARIABLES = "x"
 "y"
 "Density"
 "Momentum_x"
 "Momentum_y"
 "Energy"
 "Pressure"
 "Temperature"
 "Mach"
 "C<sub>p</sub>"
 "Roe_Dissipation"
ZONE
DT=(DOUBLE,DOUBLE,DOUBLE,DOUBLE,DOUBLE,DOUBLE,DOUBLE,DOUBLE,DOUBLE,DOUBLE,DOUBLE)
                     -2                     0.6        1.22509694099426        41.6616096496582   -3.24183019006851E-10                  254023           101325.796875         288.12451171875      0.0999371036887169      0.0011852414673196                       0 
      -1.99749874937469                     0.6        1.22509694099426        41.6616096496582   -2.09663462555778E-09                  254023           101325.796875         288.12451171875      0.0999371036887169     0.00118524112663443                       0 
      -1.99499749874937                     0.6        1.22509694099426        41.6616096496582   -3.86908623210887E-09                  254023           101325.796875         288.12451171875      0.0999371036887169     0.00118524078594925                       0 
      -1.99249624812406                     0.6        1.22509694099426        41.6616096496582   -5.64153783865981E-09                  254023           101325.796875         288.12451171875      0.0999371036887169     0.00118524044526407                       0 
      -1.98999499749875                     0.6        1.22509694099426        41.6616096496582   -7.41398944521074E-09                  254023           101325.796875         288.12451171875      0.0999371036887169     0.00118524010457889                       0 
      -1.98749374687344                     0.6        1.22509694099426        41.6616096496582   -9.18644105176168E-09                  254023           101325.796875         288.12451171875      0.0999371036887169     0.00118523976389371                       0 
      -1.98499249624812                     0.6        1.22509694099426        41.6616096496582   -1.09588926583128E-08                  254023           101325.796875         288.12451171875      0.0999371036887169     0.00118523942320853                       0 
      -1.98249124562281                     0.6        1.22509694099426        41.6616096496582   -1.27313442648637E-08                  254023           101325.796875         288.12451171875      0.0999371036887169     0.00118523908252335                       0 
       -1.9799899949975                     0.6        1.22509694099426        41.6616096496582   -1.45037958714146E-08                  254023           101325.796875         288.12451171875      0.0999371036887169     0.00118523874183817                       0 
      -1.97748874437219                     0.6        1.22509694099426        41.6616096496582   -1.62762474779657E-08                  254023           101325.796875         288.12451171875      0.0999371036887169     0.00118523840115299                       0 
      -1.97498749374687                     0.6        1.22509694099426        41.6616096496582   -1.80413762474315E-08                  254023           101325.796875         288.12451171875      0.0999371036887169     0.00118523806046781                       0 
      -1.97248624312156                     0.6        1.22509694099426        41.6616096496582   -1.98009540574201E-08                  254023           101325.796875         288.12451171875      0.0999371036887169     0.00118523771978263                       0 
      -1.96998499249625                     0.6        1.22509694099426        41.6616096496582   -2.15724867311649E-08                  254023           101325.796875         288.12451171875      0.0999371036887169     0.00118523737909745                       0 
      -1.96748374187094                     0.6        1.22509694099426        41.6616096496582   -2.33449383377158E-08                  254023           101325.796875         288.12451171875      0.0999371036887169     0.00118523703841227                       0 
      -1.96498249124562                     0.6        1.22509694099426        41.6616096496582   -2.51173899442667E-08                  254023           101325.796875         288.12451171875      0.0999371036887169     0.00118523669772709                       0 
      -1.96248124062031                     0.6        1.22509694099426        41.6616096496582   -2.68898415508177E-08                  254023           101325.796875         288.12451171875      0.0999371036887169     0.00118523635704192                       0 
        -1.959979989995                     0.6        1.22509694099426        41.6616096496582   -2.86622931573688E-08                  254023           101325.796875         288.12451171875      0.0999371036887169     0.00118523601635674                       0 
      -1.95747873936968                     0.6        1.22509694099426        41.6616096496582   -3.04347447639197E-08                  254023           101325.796875         288.12451171875      0.0999371036887169     0.00118523567567156                       0 
      -1.95497748874437                     0.6        1.22509694099426        41.6616096496582   -3.22071963704706E-08                  254023           101325.796875         288.12451171875      0.0999371036887169     0.00118523533498638                       0 
      -1.95247623811906                     0.6        1.22509694099426        41.6616096496582   -3.39796479770217E-08                  254023           101325.796875         288.12451171875      0.0999371036887169      0.0011852349943012                       0 
      -1.94997498749375                     0.6        1.22509694099426        41.6616096496582   -3.57520995835727E-08                  254023           101325.796875         288.12451171875      0.0999371036887169     0.00118523465361602                       0 
      -1.94747373686843                     0.6        1.22509694099426        41.6616096496582   -3.75447959596474E-08                  254023           101325.796875         288.12451171875      0.0999371036887169      0.0011852343609469                       0 
      -1.94497248624312                     0.6        1.22509694099426        41.6616096496582   -3.93579457142273E-08                  254023           101325.796875         288.12451171875      0.0999371036887169     0.00118523411678862                       0 
      -1.94247123561781                     0.6        1.22509694099426        41.6616096496582   -4.11710954688071E-08                  254023           101325.796875         288.12451171875      0.0999371036887169     0.00118523387263034                       0 
       -1.9399699849925                     0.6        1.22509694099426        41.6616096496582   -4.29842452233868E-08                  254023           101325.796875         288.12451171875      0.0999371036887169     0.00118523362847207                       0 
      -1.93746873436718                     0.6        1.22509694099426        41.6616096496582   -4.47973949779666E-08                  254023           101325.796875         288.12451171875      0.0999371036887169     0.00118523338431379                       0 
      -1.93496748374187                     0.6        1.22509694099426        41.6616096496582   -4.66105447325465E-08                  254023           101325.796875         288.12451171875      0.0999371036887169     0.00118523314015551                       0 
      -1.93246623311656                     0.6        1.22509694099426        41.6616096496582   -4.84236944871262E-08                  254023           101325.796875         288.12451171875      0.0999371036887169     0.00118523289599723                       0 
      -1.92996498249125                     0.6        1.22509694099426        41.6616096496582    -5.0236844241706E-08                  254023           101325.796875         288.12451171875      0.0999371036887169     0.00118523265183895                       0 
      -1.92746373186593                     0.6        1.22509694099426        41.6616096496582   -5.20499939962859E-08                  254023           101325.796875         288.12451171875      0.0999371036887169     0.00118523240768067                       0 
      -1.92496248124062                     0.6        1.22509694099426        41.6616096496582   -5.38622759899019E-08                  254023           101325.796875         288.12451171875      0.0999371036887169     0.00118523216352239                       0 
      -1.92246123061531                     0.6        1.22509694099426        41.6616096496582    -5.5662332654862E-08                  254023           101325.796875         288.12451171875      0.0999371036887169     0.00118523191936411                       0 
      -1.91995997998999                     0.6        1.22509694099426        41.6616096496582   -5.74679680596104E-08                  254023           101325.796875         288.12451171875      0.0999371036887169     0.00118523167520583                       0 
      -1.91745872936468                     0.6        1.22509694099426        41.6616096496582   -5.92811178141902E-08                  254023           101325.796875         288.12451171875      0.0999371036887169     0.00118523143104755                       0 
      -1.91495747873937                     0.6        1.22509694099426        41.6616096496582   -6.10942675687699E-08                  254023           101325.796875         288.12451171875      0.0999371036887169     0.00118523118688927                       0 
      -1.91245622811406                     0.6        1.22509694099426        41.6616096496582   -6.29074173233497E-08                  254023           101325.796875         288.12451171875      0.0999371036887169     0.00118523094273099                       0 
      -1.90995497748874                     0.6        1.22509694099426        41.6616096496582   -6.47205670779296E-08                  254023           101325.796875         288.12451171875      0.0999371036887169     0.00118523069857271                       0 
      -1.90745372686343                     0.6        1.22509694099426        41.6616096496582   -6.65337168325093E-08                  254023           101325.796875         288.12451171875      0.0999371036887169     0.00118523045441443                       0 
      -1.90495247623812                     0.6        1.22509694099426        41.6616096496582   -6.83468665870891E-08                  254023           101325.796875         288.12451171875      0.0999371036887169     0.00118523021025615                       0 
      -1.90245122561281                     0.6        1.22509694099426        41.6616096496582    -7.0160016341669E-08                  254023           101325.796875         288.12451171875      0.0999371036887169     0.00118522996609788                       0 
      -1.89994997498749                     0.6        1.22509694099426        41.6616096496582   -7.19731660962488E-08                  254023           101325.796875         288.12451171875      0.0999371036887169      0.0011852297219396                       0 
      -1.89744872436218                     0.6        1.22509694099426        41.6616096496582   -7.37863158508285E-08                  254023           101325.796875         288.12451171875      0.0999371036887169     0.00118522947778132                       0 
      -1.89494747373687                     0.6        1.22509694099426        41.6616096496582   -7.56463626372634E-08                  254023           101325.796875         288.12451171875      0.0999371036887169     0.00118522918560496                       0 
      -1.89244622311156                     0.6        1.22509694099426        41.6616096496582   -7.75066487870813E-08                  254023           101325.796875         288.12451171875      0.0999371036887169     0.00118522889318351                       0 
      -1.88994497248624                     0.6        1.22509694099426        41.6616096496582   -7.93669349368992E-08                  254023           101325.796875         288.12451171875      0.0999371036887169     0.00118522860076207                       0 
      -1.88744372186093                     0.6        1.22509694099426        41.6616096496582   -8.12272210867171E-08                  254023           101325.796875         288.12451171875      0.0999371036887169     0.00118522830834062                       0 
      -1.88494247123562                     0.6        1.22509694099426        41.6616096496582   -8.30875072365351E-08                  254023           101325.796875         288.12451171875      0.0999371036887169     0.00118522801591917                       0 
      -1.88244122061031                     0.6        1.22509694099426        41.6616096496582   -8.49477933863531E-08                  254023           101325.796875         288.12451171875      0.0999371036887169     0.00118522772349773                       0 
      -1.87993996998499                     0.6        1.22509694099426        41.6616096496582    -8.6808079536171E-08                  254023           101325.796875         288.12451171875      0.0999371036887169     0.00118522743107628                       0 
      -1.87743871935968                     0.6        1.22509694099426        41.6616096496582    -8.8668365685989E-08                  254023           101325.796875         288.12451171875      0.0999371036887169     0.00118522713865484                       0 
      -1.87493746873437                     0.6        1.22509694099426        41.6616096496582   -9.05286518358069E-08                  254023           101325.796875         288.12451171875      0.0999371036887169     0.00118522684623339                       0 
      -1.87243621810905                     0.6        1.22509694099426        41.6616096496582   -9.23814050639141E-08                  254023           101325.796875         288.12451171875      0.0999371036887169     0.00118522655221147                       0 
      -1.86993496748374                     0.6        1.22509694099426        41.6616096496582   -9.42283287885454E-08                  254023           101325.796875         288.12451171875      0.0999371036887169     0.00118522625695098                       0 
      -1.86743371685843                     0.6        1.22509694099426        41.6616096496582   -9.60875932714532E-08                  254023           101325.796875         288.12451171875      0.0999371036887169     0.00118522596431246                       0 
      -1.86493246623312                     0.6        1.22509694099426        41.6616096496582   -9.79478794212711E-08                  254023           101325.796875         288.12451171875      0.0999371036887169     0.00118522567189102                       0 
       -1.8624312156078                     0.6        1.22509694099426        41.6616096496582    -9.9808165571089E-08                  254023           101325.796875         288.12451171875      0.0999371036887169     0.00118522537946957                       0 
      -1.85992996498249                     0.6        1.22509694099426        41.6616096496582   -1.01668451720907E-07                  254023           101325.796875         288.12451171875      0.0999371036887169     0.00118522508704813                       0 
      -1.85742871435718                     0.6        1.22509694099426        41.6616096496582   -1.03528737870725E-07                  254023           101325.796875         288.12451171875      0.0999371036887169     0.00118522479462668                       0 
      -1.85492746373187                     0.6        1.22509694099426        41.6616096496582   -1.05389024020543E-07                  254023           101325.796875         288.12451171875      0.0999371036887169     0.00118522450220524                       0 
      -1.85242621310655                     0.6        1.22509694099426        41.6616096496582   -1.07249310170361E-07                  254023           101325.796875         288.12451171875      0.0999371036887169     0.00118522420978379                       0 
      -1.84992496248124                     0.6        1.22509694099426        41.6616096496582   -1.09109596320179E-07                  254023           101325.796875         288.12451171875      0.0999371036887169     0.00118522391736235                       0 
      -1.84742371185593                     0.6        1.22509694099426        41.6616096496582   -1.10969882469997E-07                  254023           101325.796875         288.12451171875      0.0999371036887169      0.0011852236249409                       0 
      -1.84492246123062                     0.6        1.22509694099426        41.6616096496582   -1.12870345102428E-07                  254023           101325.796875         288.12451171875      0.0999371036887169     0.00118522334509961                       0 
       -1.8424212106053                     0.6        1.22509694099426        41.6616096496582    -1.1481223122527E-07                  254023           101325.796875         288.12451171875      0.0999371036887169     0.00118522307822893                       0 
      -1.83991995997999                     0.6        1.22509694099426        41.6616096496582   -1.16754117348113E-07                  254023           101325.796875         288.12451171875      0.0999371036887169     0.00118522281135825                       0 
      -1.83741870935468                     0.6        1.22509694099426        41.6616096496582   -1.18696003470955E-07                  254023           101325.796875         288.12451171875      0.0999371036887169     0.00118522254448757                       0 
      -1.83491745872936                     0.6        1.22509694099426        41.6616096496582   -1.20637889593797E-07                  254023           101325.796875         288.12451171875      0.0999371036887169      0.0011852222776169                       0 
      -1.83241620810405                     0.6        1.22509694099426        41.6616096496582   -1.22579775716639E-07                  254023           101325.796875         288.12451171875      0.0999371036887169     0.00118522201074622                       0 
      -1.82991495747874                     0.6        1.22509694099426        41.6616096496582   -1.24521661839481E-07                  254023           101325.796875         288.12451171875      0.0999371036887169     0.00118522174387554                       0 
      -1.82741370685343                     0.6        1.22509694099426        41.6616096496582   -1.26463547962323E-07                  254023           101325.796875         288.12451171875      0.0999371036887169     0.00118522147700486                       0 
      -1.82491245622811                     0.6        1.22509694099426        41.6616096496582   -1.28405434085165E-07                  254023           101325.796875         288.12451171875      0.0999371036887169     0.00118522121013419                       0 
       -1.8224112056028                     0.6        1.22509694099426        41.6616096496582    -1.3034647173962E-07                  254023           101325.796875         288.12451171875      0.0999371036887169     0.00118522094187355                       0 
      -1.81990995497749                     0.6        1.22509694099426        41.6616096496582   -1.32274493581988E-07                  254023           101325.796875         288.12451171875      0.0999371036887169     0.00118522065229048                       0 
      -1.81740870435218                     0.6        1.22509694099426        41.6616096496582   -1.34208352351055E-07                  254023           101325.796875         288.12451171875      0.0999371036887169     0.00118522037226943                       0 
      -1.81490745372686                     0.6        1.22509694099426        41.6616096496582   -1.36150238473897E-07                  254023           101325.796875         288.12451171875      0.0999371036887169     0.00118522010539875                       0 
      -1.81240620310155                     0.6        1.22509694099426        41.6616096496582   -1.38092124596739E-07                  254023           101325.796875         288.12451171875      0.0999371036887169     0.00118521983852807                       0 
      -1.80990495247624                     0.6        1.22509694099426        41.6616096496582   -1.40034010719581E-07                  254023           101325.796875         288.12451171875      0.0999371036887169     0.00118521957165739                       0 
      -1.80740370185093                     0.6        1.22509694099426        41.6616096496582   -1.41975896842423E-07                  254023           101325.796875         288.12451171875      0.0999371036887169     0.00118521930478672                       0 
      -1.80490245122561                     0.6        1.22509694099426        41.6616096496582   -1.43917782965265E-07                  254023           101325.796875         288.12451171875      0.0999371036887169     0.00118521903791604                       0 
       -1.8024012006003                     0.6        1.22509694099426        41.6616096496582   -1.45859669088107E-07                  254023           101325.796875         288.12451171875      0.0999371036887169     0.00118521877104536                       0 
      -1.79989994997499                     0.6        1.22509694099426        41.6616096496582   -1.47801555210949E-07                  254023           101325.796875         288.12451171875      0.0999371036887169     0.00118521850417469                       0 
      -1.79739869934967                     0.6        1.22509694099426        41.6616096496582   -1.49743441333791E-07                  254023           101325.796875         288.12451171875      0.0999371036887169     0.00118521823730401                       0 
      -1.79489744872436                     0.6        1.22509694099426        41.6616096496582   -1.51685327456633E-07                  254023           101325.796875         288.12451171875      0.0999371036887169     0.00118521797043333                       0 
      -1.79239619809905                     0.6        1.22509694099426        41.6616096496582   -1.53731081539761E-07                  254023           101325.796875         288.12451171875      0.0999371036887169     0.00118521770075306                       0 
      -1.78989494747374                     0.6        1.22509694099426        41.6616096496582   -1.55777901350654E-07                  254023           101325.796875         288.12451171875      0.0999371036887169     0.00118521743104396                       0 
      -1.78739369684842                     0.6        1.22509694099426        41.6616096496582   -1.57824721161548E-07                  254023           101325.796875         288.12451171875      0.0999371036887169     0.00118521716133486                       0 
      -1.78489244622311                     0.6        1.22509694099426        41.6616096496582   -1.59871540972441E-07                  254023           101325.796875         288.12451171875      0.0999371036887169     0.00118521689162576                       0 
       -1.7823911955978                     0.6        1.22509694099426        41.6616096496582   -1.61918360783334E-07                  254023           101325.796875         288.12451171875      0.0999371036887169     0.00118521662191666                       0 
      -1.77988994497249                     0.6        1.22509694099426        41.6616096496582   -1.63965180594227E-07                  254023           101325.796875         288.12451171875      0.0999371036887169     0.00118521635220756                       0 
      -1.77738869434717                     0.6        1.22509694099426        41.6616096496582    -1.6601200040512E-07                  254023           101325.796875         288.12451171875      0.0999371036887169     0.00118521608249846                       0 
      -1.77488744372186                     0.6        1.22509694099426        41.6616096496582   -1.68058820216013E-07                  254023           101325.796875         288.12451171875      0.0999371036887169     0.00118521581278936                       0 
      -1.77238619309655                     0.6        1.22509694099426        41.6616096496582   -1.70105640026907E-07                  254023           101325.796875         288.12451171875      0.0999371036887169     0.00118521554308026                       0 
      -1.76988494247124                     0.6        1.22509694099426        41.6616096496582   -1.72144338623574E-07                  254023           101325.796875         288.12451171875      0.0999371036887169     0.00118521528764572                       0 
      -1.76738369184592                     0.6        1.22509694099426        41.6616096496582    -1.7417662150766E-07                  254023           101325.796875         288.12451171875      0.0999371036887169     0.00118521504348801                       0 
      -1.76488244122061                     0.6        1.22509694099426        41.6616096496582   -1.76222256031384E-07                  254023           101325.796875         288.12451171875      0.0999371036887169     0.00118521477586227                       0 
       -1.7623811905953                     0.6        1.22509694099426        41.6616096496582   -1.78269075842277E-07                  254023           101325.796875         288.12451171875      0.0999371036887169     0.00118521450615317                       0 
      -1.75987993996998                     0.6        1.22509694099426        41.6616096496582   -1.80315895653171E-07                  254023           101325.796875         288.12451171875      0.0999371036887169     0.00118521423644407                       0 
      -1.75737868934467                     0.6        1.22509694099426        41.6616096496582   -1.82362715464064E-07                  254023           101325.796875         288.12451171875      0.0999371036887169     0.00118521396673497                       0 
      -1.75487743871936                     0.6        1.22509694099426        41.6616096496582   -1.84409535274957E-07                  254023           101325.796875         288.12451171875      0.0999371036887169     0.00118521369702587                       0 
      -1.75237618809405                     0.6        1.22509694099426        41.6616096496582    -1.8645635508585E-07                  254023           101325.796875         288.12451171875      0.0999371036887169     0.00118521342731677                       0 
      -1.74987493746873                     0.6        1.22509694099426        41.6616096496582   -1.88503174896744E-07                  254023           101325.796875         288.12451171875      0.0999371036887169     0.00118521315760767                       0 
      -1.74737368684342                     0.6        1.22509694099426        41.6616096496582   -1.90549994707637E-07                  254023           101325.796875         288.12451171875      0.0999371036887169     0.00118521288789857                       0 
      -1.74487243621811                     0.6        1.22509694099426        41.6616096496582    -1.9259681451853E-07                  254023           101325.796875         288.12451171875      0.0999371036887169     0.00118521261818947                       0 
       -1.7423711855928                     0.6        1.22509694099426        41.6616096496582   -1.94711357830316E-07                  254023           101325.796875         288.12451171875      0.0999371036887169     0.00118521233741308                       0 
      -1.73986993496748                     0.6        1.22509694099426        41.6616096496582   -1.96897160101853E-07                  254023           101325.796875         288.12451171875      0.0999371036887169     0.00118521204499163                       0 
      -1.73736868434217                     0.6        1.22509694099426        41.6616096496582   -1.99082962373391E-07                  254023           101325.796875         288.12451171875      0.0999371036887169     0.00118521175257019                       0 
      -1.73486743371686                     0.6        1.22509694099426        41.6616096496582   -2.01268764644928E-07                  254023           101325.796875         288.12451171875      0.0999371036887169     0.00118521146014874                       0 
      -1.73236618309155                     0.6        1.22509694099426        41.6616096496582   -2.03454566916465E-07                  254023           101325.796875         288.12451171875      0.0999371036887169      0.0011852111677273                       0 
      -1.72986493246623                     0.6        1.22509694099426        41.6616096496582   -2.05640369188003E-07                  254023           101325.796875         288.12451171875      0.0999371036887169     0.00118521087530585                       0 
      -1.72736368184092                     0.6        1.22509694099426        41.6616096496582    -2.0782617145954E-07                  254023           101325.796875         288.12451171875      0.0999371036887169     0.00118521058288441                       0 
      -1.72486243121561                     0.6        1.22509694099426        41.6616096496582   -2.10011973731078E-07                  254023           101325.796875         288.12451171875      0.0999371036887169     0.00118521029046296                       0 
       -1.7223611805903                     0.6        1.22509694099426        41.6616096496582   -2.12197776002615E-07                  254023           101325.796875         288.12451171875      0.0999371036887169     0.00118520999804152                       0 