TITLE = "Visualization of the volumetric solution"
VARIABLES = "x","y","Density","Momentum_x","Momentum_y","Energy","Pressure","Temperature","Mach","C<sub>p</sub>","Roe_Dissipation"
ZONE NODES= 1720, ELEMENTS= 3288, DATAPACKING=POINT, ZONETYPE=FEQUADRILATERAL
-2.000000e+00	-1.190476e+00	1.224674e+00	4.306139e+01	2.943483e-07	2.539494e+05	1.012769e+05	2.880847e+02	1.033376e-01	-6.778043e-02	0.000000e+00	
-1.913018e+00	-1.184272e+00	1.224674e+00	4.306139e+01	1.248476e-05	2.539494e+05	1.012769e+05	2.880847e+02	1.033376e-01	-6.778047e-02	0.000000e+00	
-1.954560e+00	-1.150209e+00	1.224674e+00	4.306140e+01	8.324030e-06	2.539494e+05	1.012769e+05	2.880847e+02	1.033376e-01	-6.778061e-02	0.000000e+00	
-1.849926e+00	-1.205140e+00	1.224674e+00	4.306138e+01	1.891775e-05	2.539494e+05	1.012769e+05	2.880847e+02	1.033376e-01	-6.777968e-02	0.000000e+00	
-1.903970e+00	-1.130852e+00	1.224674e+00	4.306140e+01	1.938009e-05	2.539494e+05	1.012769e+05	2.880847e+02	1.033376e-01	-6.778067e-02	0.000000e+00	
-2.000000e+00	-1.130952e+00	1.224674e+00	4.306140e+01	-3.701902e-08	2.539494e+05	1.012769e+05	2.880847e+02	1.033377e-01	-6.778092e-02	0.000000e+00	
-1.851543e+00	-1.159370e+00	1.224674e+00	4.306139e+01	2.640856e-05	2.539494e+05	1.012769e+05	2.880847e+02	1.033376e-01	-6.778025e-02	0.000000e+00	
-1.953167e+00	-1.099799e+00	1.224674e+00	4.306141e+01	1.102200e-05	2.539494e+05	1.012769e+05	2.880847e+02	1.033377e-01	-6.778127e-02	0.000000e+00	
-1.790653e+00	-1.186382e+00	1.224674e+00	4.306137e+01	3.036092e-05	2.539494e+05	1.012769e+05	2.880847e+02	1.033376e-01	-6.777926e-02	0.000000e+00	
-1.847749e+00	-1.098124e+00	1.224674e+00	4.306140e+01	3.571735e-05	2.539494e+05	1.012769e+05	2.880847e+02	1.033376e-01	-6.778058e-02	0.000000e+00	
-1.900004e+00	-1.068081e+00	1.224674e+00	4.306141e+01	2.601735e-05	2.539494e+05	1.012769e+05	2.880847e+02	1.033377e-01	-6.778151e-02	0.000000e+00	
-2.000000e+00	-1.071429e+00	1.224674e+00	4.306142e+01	-5.589194e-07	2.539494e+05	1.012769e+05	2.880847e+02	1.033377e-01	-6.778167e-02	0.000000e+00	
-1.792598e+00	-1.131714e+00	1.224674e+00	4.306138e+01	4.327128e-05	2.539494e+05	1.012769e+05	2.880847e+02	1.033376e-01	-6.777997e-02	0.000000e+00	
-1.951023e+00	-1.040587e+00	1.224674e+00	4.306142e+01	1.396460e-05	2.539494e+05	1.012769e+05	2.880847e+02	1.033377e-01	-6.778184e-02	0.000000e+00	
-1.731144e+00	-1.203552e+00	1.224674e+00	4.306135e+01	3.581884e-05	2.539494e+05	1.012769e+05	2.880847e+02	1.033375e-01	-6.777847e-02	0.000000e+00	
-1.734651e+00	-1.158217e+00	1.224674e+00	4.306136e+01	4.939548e-05	2.539494e+05	1.012769e+05	2.880847e+02	1.033376e-01	-6.777890e-02	0.000000e+00	
-1.793108e+00	-1.066236e+00	1.224674e+00	4.306140e+01	5.609754e-05	2.539494e+05	1.012769e+05	2.880847e+02	1.033376e-01	-6.778065e-02	0.000000e+00	
-1.846185e+00	-1.035678e+00	1.224674e+00	4.306142e+01	4.518520e-05	2.539494e+05	1.012769e+05	2.880847e+02	1.033377e-01	-6.778169e-02	0.000000e+00	
-1.899025e+00	-1.006433e+00	1.224674e+00	4.306143e+01	3.179726e-05	2.539494e+05	1.012769e+05	2.880847e+02	1.033377e-01	-6.778224e-02	0.000000e+00	
-2.000000e+00	-1.011905e+00	1.224674e+00	4.306143e+01	3.278652e-07	2.539494e+05	1.012769e+05	2.880847e+02	1.033377e-01	-6.778245e-02	0.000000e+00	
-1.739212e+00	-1.097073e+00	1.224674e+00	4.306138e+01	6.456735e-05	2.539494e+05	1.012769e+05	2.880847e+02	1.033376e-01	-6.777959e-02	0.000000e+00	
-1.943558e+00	-9.801168e-01	1.224674e+00	4.306144e+01	1.743382e-05	2.539494e+05	1.012769e+05	2.880847e+02	1.033378e-01	-6.778288e-02	0.000000e+00	
-1.679379e+00	-1.180956e+00	1.224674e+00	4.306134e+01	5.154694e-05	2.539494e+05	1.012769e+05	2.880847e+02	1.033375e-01	-6.777770e-02	0.000000e+00	
-1.685839e+00	-1.129056e+00	1.224674e+00	4.306135e+01	6.995222e-05	2.539494e+05	1.012769e+05	2.880847e+02	1.033375e-01	-6.777830e-02	0.000000e+00	
-1.740561e+00	-1.034368e+00	1.224674e+00	4.306140e+01	8.001752e-05	2.539494e+05	1.012769e+05	2.880847e+02	1.033376e-01	-6.778068e-02	0.000000e+00	
-1.792944e+00	-1.003990e+00	1.224674e+00	4.306142e+01	6.746204e-05	2.539494e+05	1.012769e+05	2.880847e+02	1.033377e-01	-6.778171e-02	0.000000e+00	
-1.845444e+00	-9.749924e-01	1.224674e+00	4.306144e+01	5.279292e-05	2.539494e+05	1.012769e+05	2.880847e+02	1.033377e-01	-6.778260e-02	0.000000e+00	
-1.898581e+00	-9.488258e-01	1.224674e+00	4.306145e+01	3.648549e-05	2.539494e+05	1.012769e+05	2.880847e+02	1.033378e-01	-6.778335e-02	0.000000e+00	
-2.000000e+00	-9.523810e-01	1.224674e+00	4.306145e+01	3.126484e-07	2.539494e+05	1.012769e+05	2.880847e+02	1.033378e-01	-6.778339e-02	0.000000e+00	
-1.688318e+00	-1.065673e+00	1.224674e+00	4.306137e+01	8.981292e-05	2.539494e+05	1.012769e+05	2.880847e+02	1.033376e-01	-6.777942e-02	0.000000e+00	
-1.950382e+00	-9.223557e-01	1.224674e+00	4.306146e+01	1.855353e-05	2.539494e+05	1.012769e+05	2.880847e+02	1.033378e-01	-6.778401e-02	0.000000e+00	
-1.607855e+00	-1.185371e+00	1.224674e+00	4.306131e+01	6.464051e-05	2.539494e+05	1.012769e+05	2.880847e+02	1.033374e-01	-6.777636e-02	0.000000e+00	
-1.639307e+00	-1.148507e+00	1.224674e+00	4.306133e+01	7.407700e-05	2.539494e+05	1.012769e+05	2.880847e+02	1.033375e-01	-6.777773e-02	0.000000e+00	
-1.636716e+00	-1.097558e+00	1.224674e+00	4.306134e+01	9.478073e-05	2.539494e+05	1.012769e+05	2.880847e+02	1.033375e-01	-6.777772e-02	0.000000e+00	
-1.689165e+00	-1.003589e+00	1.224674e+00	4.306140e+01	1.073488e-04	2.539494e+05	1.012769e+05	2.880847e+02	1.033376e-01	-6.778054e-02	0.000000e+00	
-1.740723e+00	-9.729752e-01	1.224674e+00	4.306142e+01	9.318303e-05	2.539494e+05	1.012769e+05	2.880847e+02	1.033377e-01	-6.778183e-02	0.000000e+00	
-1.792515e+00	-9.434304e-01	1.224674e+00	4.306144e+01	7.697968e-05	2.539494e+05	1.012769e+05	2.880847e+02	1.033377e-01	-6.778284e-02	0.000000e+00	
-1.844767e+00	-9.153378e-01	1.224674e+00	4.306146e+01	5.921947e-05	2.539494e+05	1.012769e+05	2.880847e+02	1.033378e-01	-6.778370e-02	0.000000e+00	
-1.897525e+00	-8.884422e-01	1.224674e+00	4.306147e+01	4.003391e-05	2.539494e+05	1.012769e+05	2.880847e+02	1.033378e-01	-6.778433e-02	0.000000e+00	
-2.000000e+00	-8.928571e-01	1.224674e+00	4.306148e+01	-7.711023e-07	2.539494e+05	1.012769e+05	2.880847e+02	1.033378e-01	-6.778443e-02	0.000000e+00	
-1.637687e+00	-1.035136e+00	1.224674e+00	4.306137e+01	1.191099e-04	2.539494e+05	1.012769e+05	2.880847e+02	1.033376e-01	-6.777925e-02	0.000000e+00	
-1.951486e+00	-8.621834e-01	1.224674e+00	4.306149e+01	1.979100e-05	2.539494e+05	1.012769e+05	2.880847e+02	1.033379e-01	-6.778505e-02	0.000000e+00	
-1.550264e+00	-1.185139e+00	1.224674e+00	4.306127e+01	7.920813e-05	2.539494e+05	1.012769e+05	2.880847e+02	1.033373e-01	-6.777441e-02	0.000000e+00	
-1.582082e+00	-1.140771e+00	1.224674e+00	4.306131e+01	9.618364e-05	2.539494e+05	1.012769e+05	2.880847e+02	1.033374e-01	-6.777611e-02	0.000000e+00	
-1.585659e+00	-1.068349e+00	1.224674e+00	4.306133e+01	1.275976e-04	2.539494e+05	1.012769e+05	2.880847e+02	1.033375e-01	-6.777733e-02	0.000000e+00	
-1.638167e+00	-9.734470e-01	1.224674e+00	4.306140e+01	1.388674e-04	2.539494e+05	1.012769e+05	2.880847e+02	1.033376e-01	-6.778052e-02	0.000000e+00	
-1.689207e+00	-9.427785e-01	1.224674e+00	4.306142e+01	1.224237e-04	2.539494e+05	1.012769e+05	2.880847e+02	1.033377e-01	-6.778195e-02	0.000000e+00	
-1.740389e+00	-9.128364e-01	1.224674e+00	4.306145e+01	1.041632e-04	2.539494e+05	1.012769e+05	2.880847e+02	1.033378e-01	-6.778312e-02	0.000000e+00	
-1.791943e+00	-8.838067e-01	1.224674e+00	4.306147e+01	8.480901e-05	2.539494e+05	1.012769e+05	2.880847e+02	1.033378e-01	-6.778412e-02	0.000000e+00	
-1.844135e+00	-8.558208e-01	1.224674e+00	4.306148e+01	6.442006e-05	2.539494e+05	1.012769e+05	2.880847e+02	1.033379e-01	-6.778500e-02	0.000000e+00	
-1.897320e+00	-8.288068e-01	1.224674e+00	4.306150e+01	4.304310e-05	2.539494e+05	1.012769e+05	2.880847e+02	1.033379e-01	-6.778567e-02	0.000000e+00	
-2.000000e+00	-8.333333e-01	1.224674e+00	4.306150e+01	-9.436478e-07	2.539494e+05	1.012769e+05	2.880847e+02	1.033379e-01	-6.778569e-02	0.000000e+00	
-1.587044e+00	-1.004740e+00	1.224674e+00	4.306136e+01	1.534937e-04	2.539494e+05	1.012769e+05	2.880847e+02	1.033376e-01	-6.777888e-02	0.000000e+00	
-1.951700e+00	-8.025383e-01	1.224674e+00	4.306151e+01	2.083217e-05	2.539494e+05	1.012769e+05	2.880847e+02	1.033379e-01	-6.778628e-02	0.000000e+00	
-1.482426e+00	-1.181198e+00	1.224674e+00	4.306123e+01	9.491146e-05	2.539494e+05	1.012769e+05	2.880847e+02	1.033372e-01	-6.777258e-02	0.000000e+00	
-1.524589e+00	-1.149206e+00	1.224674e+00	4.306127e+01	1.087110e-04	2.539494e+05	1.012769e+05	2.880847e+02	1.033373e-01	-6.777500e-02	0.000000e+00	
-1.533019e+00	-1.098254e+00	1.224674e+00	4.306130e+01	1.339513e-04	2.539494e+05	1.012769e+05	2.880847e+02	1.033374e-01	-6.777499e-02	0.000000e+00	
-1.535784e+00	-1.035922e+00	1.224674e+00	4.306132e+01	1.668284e-04	2.539494e+05	1.012769e+05	2.880847e+02	1.033375e-01	-6.777716e-02	0.000000e+00	
-1.638043e+00	-9.131350e-01	1.224674e+00	4.306143e+01	1.553423e-04	2.539494e+05	1.012769e+05	2.880847e+02	1.033377e-01	-6.778210e-02	0.000000e+00	
-1.587311e+00	-9.436131e-01	1.224674e+00	4.306140e+01	1.752415e-04	2.539494e+05	1.012769e+05	2.880847e+02	1.033376e-01	-6.778055e-02	0.000000e+00	
-1.688831e+00	-8.830544e-01	1.224674e+00	4.306145e+01	1.343753e-04	2.539494e+05	1.012769e+05	2.880847e+02	1.033378e-01	-6.778340e-02	0.000000e+00	
-1.739847e+00	-8.535053e-01	1.224674e+00	4.306148e+01	1.126993e-04	2.539494e+05	1.012769e+05	2.880847e+02	1.033378e-01	-6.778452e-02	0.000000e+00	
-1.791344e+00	-8.246529e-01	1.224674e+00	4.306149e+01	9.046975e-05	2.539494e+05	1.012769e+05	2.880847e+02	1.033379e-01	-6.778544e-02	0.000000e+00	
-1.843662e+00	-7.966422e-01	1.224674e+00	4.306151e+01	6.779698e-05	2.539494e+05	1.012769e+05	2.880847e+02	1.033379e-01	-6.778626e-02	0.000000e+00	
-1.897118e+00	-7.695048e-01	1.224674e+00	4.306152e+01	4.471146e-05	2.539494e+05	1.012769e+05	2.880847e+02	1.033379e-01	-6.778691e-02	0.000000e+00	
-2.000000e+00	-7.738095e-01	1.224674e+00	4.306152e+01	-1.139901e-06	2.539494e+05	1.012769e+05	2.880847e+02	1.033379e-01	-6.778692e-02	0.000000e+00	
-1.536563e+00	-9.743093e-01	1.224674e+00	4.306136e+01	1.937123e-04	2.539494e+05	1.012769e+05	2.880847e+02	1.033375e-01	-6.777864e-02	0.000000e+00	
-1.951774e+00	-7.430524e-01	1.224674e+00	4.306154e+01	2.140777e-05	2.539494e+05	1.012769e+05	2.880847e+02	1.033380e-01	-6.778755e-02	0.000000e+00	
-1.428477e+00	-1.207429e+00	1.224674e+00	4.306118e+01	8.957391e-05	2.539494e+05	1.012769e+05	2.880847e+02	1.033371e-01	-6.777046e-02	0.000000e+00	
-1.483039e+00	-1.130346e+00	1.224674e+00	4.306125e+01	1.353459e-04	2.539494e+05	1.012769e+05	2.880847e+02	1.033373e-01	-6.777326e-02	0.000000e+00	
-1.485010e+00	-1.067181e+00	1.224674e+00	4.306128e+01	1.761722e-04	2.539494e+05	1.012769e+05	2.880847e+02	1.033374e-01	-6.777478e-02	0.000000e+00	
-1.485902e+00	-1.005187e+00	1.224674e+00	4.306132e+01	2.108765e-04	2.539494e+05	1.012769e+05	2.880847e+02	1.033374e-01	-6.777652e-02	0.000000e+00	
-1.587023e+00	-8.838189e-01	1.224674e+00	4.306143e+01	1.924955e-04	2.539494e+05	1.012769e+05	2.880847e+02	1.033377e-01	-6.778232e-02	0.000000e+00	
-1.637592e+00	-8.537695e-01	1.224674e+00	4.306146e+01	1.679666e-04	2.539494e+05	1.012769e+05	2.880847e+02	1.033378e-01	-6.778377e-02	0.000000e+00	
-1.536482e+00	-9.140522e-01	1.224674e+00	4.306140e+01	2.166974e-04	2.539494e+05	1.012769e+05	2.880847e+02	1.033376e-01	-6.778063e-02	0.000000e+00	
-1.688274e+00	-8.239861e-01	1.224674e+00	4.306148e+01	1.432652e-04	2.539494e+05	1.012769e+05	2.880847e+02	1.033379e-01	-6.778498e-02	0.000000e+00	
-1.739242e+00	-7.945913e-01	1.224674e+00	4.306151e+01	1.186260e-04	2.539494e+05	1.012769e+05	2.880847e+02	1.033379e-01	-6.778601e-02	0.000000e+00	
-1.790775e+00	-7.657566e-01	1.224674e+00	4.306152e+01	9.413730e-05	2.539494e+05	1.012769e+05	2.880847e+02	1.033379e-01	-6.778687e-02	0.000000e+00	
-1.843232e+00	-7.376524e-01	1.224674e+00	4.306154e+01	6.975514e-05	2.539494e+05	1.012769e+05	2.880847e+02	1.033380e-01	-6.778763e-02	0.000000e+00	
-1.896909e+00	-7.103342e-01	1.224674e+00	4.306155e+01	4.548613e-05	2.539494e+05	1.012769e+05	2.880847e+02	1.033380e-01	-6.778823e-02	0.000000e+00	
-2.000000e+00	-7.142857e-01	1.224674e+00	4.306155e+01	-1.191931e-06	2.539494e+05	1.012769e+05	2.880847e+02	1.033380e-01	-6.778819e-02	0.000000e+00	
-1.436314e+00	-1.160707e+00	1.224674e+00	4.306120e+01	1.262986e-04	2.539494e+05	1.012769e+05	2.880847e+02	1.033372e-01	-6.777084e-02	0.000000e+00	
-1.485963e+00	-9.444475e-01	1.224674e+00	4.306136e+01	2.402983e-04	2.539494e+05	1.012769e+05	2.880847e+02	1.033375e-01	-6.777860e-02	0.000000e+00	
-1.951834e+00	-6.836189e-01	1.224674e+00	4.306156e+01	2.150882e-05	2.539494e+05	1.012769e+05	2.880847e+02	1.033380e-01	-6.778885e-02	0.000000e+00	
-1.381401e+00	-1.203049e+00	1.224674e+00	4.306114e+01	1.073749e-04	2.539494e+05	1.012769e+05	2.880847e+02	1.033370e-01	-6.776841e-02	0.000000e+00	
-1.435164e+00	-1.099511e+00	1.224674e+00	4.306123e+01	1.775114e-04	2.539494e+05	1.012769e+05	2.880847e+02	1.033372e-01	-6.777195e-02	0.000000e+00	
-1.435473e+00	-1.036658e+00	1.224674e+00	4.306127e+01	2.244044e-04	2.539494e+05	1.012769e+05	2.880847e+02	1.033373e-01	-6.777408e-02	0.000000e+00	
-1.435492e+00	-9.751382e-01	1.224674e+00	4.306131e+01	2.624572e-04	2.539494e+05	1.012769e+05	2.880847e+02	1.033374e-01	-6.777617e-02	0.000000e+00	
-1.586498e+00	-8.247520e-01	1.224674e+00	4.306147e+01	2.052339e-04	2.539494e+05	1.012769e+05	2.880847e+02	1.033378e-01	-6.778423e-02	0.000000e+00	
-1.536036e+00	-8.547237e-01	1.224674e+00	4.306144e+01	2.343171e-04	2.539494e+05	1.012769e+05	2.880847e+02	1.033377e-01	-6.778267e-02	0.000000e+00	
-1.637009e+00	-7.948977e-01	1.224674e+00	4.306150e+01	1.766628e-04	2.539494e+05	1.012769e+05	2.880847e+02	1.033379e-01	-6.778554e-02	0.000000e+00	
-1.485590e+00	-8.847930e-01	1.224674e+00	4.306140e+01	2.637620e-04	2.539494e+05	1.012769e+05	2.880847e+02	1.033376e-01	-6.778079e-02	0.000000e+00	
-1.687660e+00	-7.652266e-01	1.224674e+00	4.306152e+01	1.488344e-04	2.539494e+05	1.012769e+05	2.880847e+02	1.033379e-01	-6.778662e-02	0.000000e+00	
-1.738635e+00	-7.358608e-01	1.224674e+00	4.306154e+01	1.218258e-04	2.539494e+05	1.012769e+05	2.880847e+02	1.033380e-01	-6.778754e-02	0.000000e+00	
-1.790233e+00	-7.069758e-01	1.224674e+00	4.306155e+01	9.560452e-05	2.539494e+05	1.012769e+05	2.880847e+02	1.033380e-01	-6.778831e-02	0.000000e+00	
-1.842826e+00	-6.787423e-01	1.224674e+00	4.306156e+01	7.009011e-05	2.539494e+05	1.012769e+05	2.880847e+02	1.033380e-01	-6.778899e-02	0.000000e+00	
-1.896711e+00	-6.512112e-01	1.224674e+00	4.306158e+01	4.521123e-05	2.539494e+05	1.012769e+05	2.880847e+02	1.033381e-01	-6.778954e-02	0.000000e+00	
-2.000000e+00	-6.547619e-01	1.224674e+00	4.306157e+01	-1.211175e-06	2.539494e+05	1.012769e+05	2.880847e+02	1.033381e-01	-6.778948e-02	0.000000e+00	
-1.384569e+00	-1.135692e+00	1.224674e+00	4.306116e+01	1.679125e-04	2.539494e+05	1.012769e+05	2.880847e+02	1.033371e-01	-6.776922e-02	0.000000e+00	
-1.435154e+00	-9.150004e-01	1.224674e+00	4.306136e+01	2.933589e-04	2.539494e+05	1.012769e+05	2.880847e+02	1.033375e-01	-6.777858e-02	0.000000e+00	
-1.951901e+00	-6.242027e-01	1.224674e+00	4.306159e+01	2.112197e-05	2.539494e+05	1.012769e+05	2.880847e+02	1.033381e-01	-6.779013e-02	0.000000e+00	
-1.333934e+00	-1.179953e+00	1.224674e+00	4.306110e+01	1.551416e-04	2.539494e+05	1.012769e+05	2.880847e+02	1.033369e-01	-6.776487e-02	0.000000e+00	
-1.385051e+00	-1.069594e+00	1.224674e+00	4.306121e+01	2.296633e-04	2.539494e+05	1.012769e+05	2.880847e+02	1.033372e-01	-6.777119e-02	0.000000e+00	
-1.385044e+00	-1.006427e+00	1.224674e+00	4.306125e+01	2.808429e-04	2.539494e+05	1.012769e+05	2.880847e+02	1.033373e-01	-6.777335e-02	0.000000e+00	
-1.384722e+00	-9.454568e-01	1.224674e+00	4.306130e+01	3.218985e-04	2.539494e+05	1.012769e+05	2.880847e+02	1.033374e-01	-6.777591e-02	0.000000e+00	
-1.585892e+00	-7.660163e-01	1.224674e+00	4.306151e+01	2.131737e-04	2.539494e+05	1.012769e+05	2.880847e+02	1.033379e-01	-6.778623e-02	0.000000e+00	
-1.535455e+00	-7.958758e-01	1.224674e+00	4.306148e+01	2.465028e-04	2.539494e+05	1.012769e+05	2.880847e+02	1.033378e-01	-6.778485e-02	0.000000e+00	
-1.485037e+00	-8.257859e-01	1.224674e+00	4.306145e+01	2.811917e-04	2.539494e+05	1.012769e+05	2.880847e+02	1.033378e-01	-6.778318e-02	0.000000e+00	
-1.636386e+00	-7.362313e-01	1.224674e+00	4.306153e+01	1.813393e-04	2.539494e+05	1.012769e+05	2.880847e+02	1.033380e-01	-6.778737e-02	0.000000e+00	
-1.434624e+00	-8.557541e-01	1.224674e+00	4.306141e+01	3.170694e-04	2.539494e+05	1.012769e+05	2.880847e+02	1.033377e-01	-6.778116e-02	0.000000e+00	
-1.687037e+00	-7.065855e-01	1.224674e+00	4.306155e+01	1.510647e-04	2.539494e+05	1.012769e+05	2.880847e+02	1.033380e-01	-6.778831e-02	0.000000e+00	
-1.738039e+00	-6.771988e-01	1.224674e+00	4.306157e+01	1.223147e-04	2.539494e+05	1.012769e+05	2.880847e+02	1.033381e-01	-6.778911e-02	0.000000e+00	
-1.789710e+00	-6.482388e-01	1.224674e+00	4.306158e+01	9.496750e-05	2.539494e+05	1.012769e+05	2.880847e+02	1.033381e-01	-6.778976e-02	0.000000e+00	
-1.842437e+00	-6.198613e-01	1.224674e+00	4.306159e+01	6.887140e-05	2.539494e+05	1.012769e+05	2.880847e+02	1.033381e-01	-6.779036e-02	0.000000e+00	
-1.896524e+00	-5.921043e-01	1.224674e+00	4.306160e+01	4.392106e-05	2.539494e+05	1.012769e+05	2.880847e+02	1.033381e-01	-6.779082e-02	0.000000e+00	
-2.000000e+00	-5.952381e-01	1.224674e+00	4.306160e+01	-1.213494e-06	2.539494e+05	1.012769e+05	2.880847e+02	1.033381e-01	-6.779073e-02	0.000000e+00	
-1.285603e+00	-1.202634e+00	1.224674e+00	4.306103e+01	1.507092e-04	2.539494e+05	1.012769e+05	2.880847e+02	1.033368e-01	-6.776263e-02	0.000000e+00	
-1.334509e+00	-1.104381e+00	1.224674e+00	4.306113e+01	2.303923e-04	2.539494e+05	1.012769e+05	2.880847e+02	1.033370e-01	-6.776768e-02	0.000000e+00	
-1.384211e+00	-8.858197e-01	1.224674e+00	4.306136e+01	3.538259e-04	2.539494e+05	1.012769e+05	2.880847e+02	1.033376e-01	-6.777875e-02	0.000000e+00	
-1.951978e+00	-5.647922e-01	1.224674e+00	4.306161e+01	2.024595e-05	2.539494e+05	1.012769e+05	2.880847e+02	1.033382e-01	-6.779138e-02	0.000000e+00	
-1.284178e+00	-1.135987e+00	1.224674e+00	4.306106e+01	2.291065e-04	2.539494e+05	1.012769e+05	2.880847e+02	1.033368e-01	-6.776304e-02	0.000000e+00	
-1.334573e+00	-1.038434e+00	1.224674e+00	4.306118e+01	2.939995e-04	2.539494e+05	1.012769e+05	2.880847e+02	1.033371e-01	-6.776993e-02	0.000000e+00	
-1.334286e+00	-9.762514e-01	1.224674e+00	4.306124e+01	3.479904e-04	2.539494e+05	1.012769e+05	2.880847e+02	1.033373e-01	-6.777283e-02	0.000000e+00	
-1.333796e+00	-9.160353e-01	1.224674e+00	4.306130e+01	3.903621e-04	2.539494e+05	1.012769e+05	2.880847e+02	1.033374e-01	-6.777581e-02	0.000000e+00	
-1.585263e+00	-7.074028e-01	1.224674e+00	4.306155e+01	2.162555e-04	2.539494e+05	1.012769e+05	2.880847e+02	1.033380e-01	-6.778827e-02	0.000000e+00	
-1.534833e+00	-7.372253e-01	1.224674e+00	4.306153e+01	2.529753e-04	2.539494e+05	1.012769e+05	2.880847e+02	1.033380e-01	-6.778710e-02	0.000000e+00	
-1.484423e+00	-7.670749e-01	1.224674e+00	4.306150e+01	2.920493e-04	2.539494e+05	1.012769e+05	2.880847e+02	1.033379e-01	-6.778566e-02	0.000000e+00	
-1.434019e+00	-7.969472e-01	1.224674e+00	4.306146e+01	3.334353e-04	2.539494e+05	1.012769e+05	2.880847e+02	1.033378e-01	-6.778391e-02	0.000000e+00	
-1.635756e+00	-6.776342e-01	1.224674e+00	4.306157e+01	1.819191e-04	2.539494e+05	1.012769e+05	2.880847e+02	1.033381e-01	-6.778922e-02	0.000000e+00	
-1.383615e+00	-8.268533e-01	1.224674e+00	4.306142e+01	3.769909e-04	2.539494e+05	1.012769e+05	2.880847e+02	1.033377e-01	-6.778175e-02	0.000000e+00	
-1.686417e+00	-6.479821e-01	1.224674e+00	4.306158e+01	1.499029e-04	2.539494e+05	1.012769e+05	2.880847e+02	1.033381e-01	-6.779000e-02	0.000000e+00	
-1.737454e+00	-6.185590e-01	1.224674e+00	4.306160e+01	1.200590e-04	2.539494e+05	1.012769e+05	2.880847e+02	1.033381e-01	-6.779065e-02	0.000000e+00	
-1.789199e+00	-5.895163e-01	1.224674e+00	4.306161e+01	9.219139e-05	2.539494e+05	1.012769e+05	2.880847e+02	1.033382e-01	-6.779117e-02	0.000000e+00	
-1.842058e+00	-5.609896e-01	1.224674e+00	4.306162e+01	6.609733e-05	2.539494e+05	1.012769e+05	2.880847e+02	1.033382e-01	-6.779167e-02	0.000000e+00	
-1.896346e+00	-5.330022e-01	1.224674e+00	4.306163e+01	4.163365e-05	2.539494e+05	1.012769e+05	2.880847e+02	1.033382e-01	-6.779205e-02	0.000000e+00	
-2.000000e+00	-5.357143e-01	1.224674e+00	4.306162e+01	-1.191637e-06	2.539494e+05	1.012769e+05	2.880847e+02	1.033382e-01	-6.779194e-02	0.000000e+00	
-1.232677e+00	-1.161484e+00	1.224674e+00	4.306098e+01	2.279592e-04	2.539494e+05	1.012769e+05	2.880847e+02	1.033366e-01	-6.776002e-02	0.000000e+00	
-1.238042e+00	-1.207625e+00	1.224674e+00	4.306096e+01	1.495975e-04	2.539494e+05	1.012769e+05	2.880847e+02	1.033366e-01	-6.775811e-02	0.000000e+00	
-1.284181e+00	-1.070156e+00	1.224674e+00	4.306111e+01	3.050178e-04	2.539494e+05	1.012769e+05	2.880847e+02	1.033369e-01	-6.776641e-02	0.000000e+00	
-1.333210e+00	-8.568167e-01	1.224674e+00	4.306137e+01	4.223941e-04	2.539494e+05	1.012769e+05	2.880847e+02	1.033376e-01	-6.777915e-02	0.000000e+00	
-1.952062e+00	-5.053835e-01	1.224674e+00	4.306164e+01	1.891218e-05	2.539494e+05	1.012769e+05	2.880847e+02	1.033382e-01	-6.779256e-02	0.000000e+00	
-1.234074e+00	-1.100366e+00	1.224674e+00	4.306102e+01	3.107375e-04	2.539494e+05	1.012769e+05	2.880847e+02	1.033367e-01	-6.776183e-02	0.000000e+00	
-1.283894e+00	-1.007220e+00	1.224674e+00	4.306116e+01	3.703916e-04	2.539494e+05	1.012769e+05	2.880847e+02	1.033371e-01	-6.776895e-02	0.000000e+00	
-1.283398e+00	-9.464113e-01	1.224674e+00	4.306123e+01	4.257544e-04	2.539494e+05	1.012769e+05	2.880847e+02	1.033372e-01	-6.777238e-02	0.000000e+00	
-1.282810e+00	-8.868629e-01	1.224674e+00	4.306131e+01	4.688097e-04	2.539494e+05	1.012769e+05	2.880847e+02	1.033374e-01	-6.777598e-02	0.000000e+00	
-1.534200e+00	-6.786397e-01	1.224674e+00	4.306157e+01	2.536705e-04	2.539494e+05	1.012769e+05	2.880847e+02	1.033381e-01	-6.778938e-02	0.000000e+00	
-1.584629e+00	-6.488259e-01	1.224674e+00	4.306159e+01	2.144609e-04	2.539494e+05	1.012769e+05	2.880847e+02	1.033381e-01	-6.779031e-02	0.000000e+00	
-1.483792e+00	-7.084714e-01	1.224674e+00	4.306155e+01	2.961940e-04	2.539494e+05	1.012769e+05	2.880847e+02	1.033380e-01	-6.778821e-02	0.000000e+00	
-1.433390e+00	-7.383124e-01	1.224674e+00	4.306152e+01	3.420864e-04	2.539494e+05	1.012769e+05	2.880847e+02	1.033379e-01	-6.778674e-02	0.000000e+00	
-1.382989e+00	-7.681640e-01	1.224674e+00	4.306148e+01	3.913904e-04	2.539494e+05	1.012769e+05	2.880847e+02	1.033378e-01	-6.778492e-02	0.000000e+00	
-1.635126e+00	-6.190563e-01	1.224674e+00	4.306161e+01	1.784363e-04	2.539494e+05	1.012769e+05	2.880847e+02	1.033381e-01	-6.779106e-02	0.000000e+00	
-1.332588e+00	-7.980338e-01	1.224674e+00	4.306144e+01	4.440397e-04	2.539494e+05	1.012769e+05	2.880847e+02	1.033377e-01	-6.778265e-02	0.000000e+00	
-1.685802e+00	-5.893892e-01	1.224674e+00	4.306162e+01	1.454066e-04	2.539494e+05	1.012769e+05	2.880847e+02	1.033382e-01	-6.779165e-02	0.000000e+00	
-1.736874e+00	-5.599255e-01	1.224674e+00	4.306163e+01	1.151355e-04	2.539494e+05	1.012769e+05	2.880847e+02	1.033382e-01	-6.779214e-02	0.000000e+00	
-1.788694e+00	-5.307981e-01	1.224674e+00	4.306164e+01	8.736399e-05	2.539494e+05	1.012769e+05	2.880847e+02	1.033382e-01	-6.779253e-02	0.000000e+00	
-1.841686e+00	-5.021205e-01	1.224674e+00	4.306164e+01	6.184558e-05	2.539494e+05	1.012769e+05	2.880847e+02	1.033382e-01	-6.779292e-02	0.000000e+00	
-1.896174e+00	-4.739013e-01	1.224674e+00	4.306165e+01	3.841366e-05	2.539494e+05	1.012769e+05	2.880847e+02	1.033383e-01	-6.779320e-02	0.000000e+00	
-2.000000e+00	-4.761905e-01	1.224674e+00	4.306165e+01	-1.141640e-06	2.539494e+05	1.012769e+05	2.880847e+02	1.033382e-01	-6.779307e-02	0.000000e+00	
-1.185708e+00	-1.130828e+00	1.224674e+00	4.306093e+01	3.073623e-04	2.539494e+05	1.012769e+05	2.880847e+02	1.033365e-01	-6.775687e-02	0.000000e+00	
-1.184765e+00	-1.185808e+00	1.224674e+00	4.306088e+01	2.067965e-04	2.539494e+05	1.012769e+05	2.880847e+02	1.033364e-01	-6.775401e-02	0.000000e+00	
-1.233724e+00	-1.038016e+00	1.224674e+00	4.306108e+01	3.898301e-04	2.539494e+05	1.012769e+05	2.880847e+02	1.033369e-01	-6.776475e-02	0.000000e+00	
-1.282188e+00	-8.279355e-01	1.224674e+00	4.306138e+01	4.997471e-04	2.539494e+05	1.012769e+05	2.880847e+02	1.033376e-01	-6.777986e-02	0.000000e+00	
-1.952152e+00	-4.459755e-01	1.224674e+00	4.306166e+01	1.715775e-05	2.539494e+05	1.012769e+05	2.880847e+02	1.033383e-01	-6.779365e-02	0.000000e+00	
-1.184242e+00	-1.068796e+00	1.224674e+00	4.306098e+01	4.030679e-04	2.539494e+05	1.012769e+05	2.880847e+02	1.033366e-01	-6.775959e-02	0.000000e+00	
-1.233095e+00	-9.769027e-01	1.224674e+00	4.306115e+01	4.590135e-04	2.539494e+05	1.012769e+05	2.880847e+02	1.033370e-01	-6.776829e-02	0.000000e+00	
-1.232442e+00	-9.170133e-01	1.224674e+00	4.306123e+01	5.152269e-04	2.539494e+05	1.012769e+05	2.880847e+02	1.033372e-01	-6.777214e-02	0.000000e+00	
-1.231797e+00	-8.578882e-01	1.224674e+00	4.306132e+01	5.580100e-04	2.539494e+05	1.012769e+05	2.880847e+02	1.033374e-01	-6.777648e-02	0.000000e+00	
-1.533565e+00	-6.200713e-01	1.224674e+00	4.306162e+01	2.486393e-04	2.539494e+05	1.012769e+05	2.880847e+02	1.033382e-01	-6.779163e-02	0.000000e+00	
-1.483157e+00	-6.498991e-01	1.224674e+00	4.306160e+01	2.935619e-04	2.539494e+05	1.012769e+05	2.880847e+02	1.033381e-01	-6.779075e-02	0.000000e+00	
-1.583995e+00	-5.902579e-01	1.224674e+00	4.306163e+01	2.078661e-04	2.539494e+05	1.012769e+05	2.880847e+02	1.033382e-01	-6.779231e-02	0.000000e+00	
-1.432756e+00	-6.797320e-01	1.224674e+00	4.306158e+01	3.428599e-04	2.539494e+05	1.012769e+05	2.880847e+02	1.033381e-01	-6.778961e-02	0.000000e+00	
-1.382356e+00	-7.095681e-01	1.224674e+00	4.306155e+01	3.967138e-04	2.539494e+05	1.012769e+05	2.880847e+02	1.033380e-01	-6.778814e-02	0.000000e+00	
-1.331956e+00	-7.394092e-01	1.224674e+00	4.306151e+01	4.552718e-04	2.539494e+05	1.012769e+05	2.880847e+02	1.033379e-01	-6.778628e-02	0.000000e+00	
-1.634498e+00	-5.604830e-01	1.224674e+00	4.306164e+01	1.709779e-04	2.539494e+05	1.012769e+05	2.880847e+02	1.033382e-01	-6.779283e-02	0.000000e+00	
-1.281556e+00	-7.692600e-01	1.224674e+00	4.306146e+01	5.186097e-04	2.539494e+05	1.012769e+05	2.880847e+02	1.033378e-01	-6.778394e-02	0.000000e+00	
-1.685188e+00	-5.307987e-01	1.224674e+00	4.306165e+01	1.376775e-04	2.539494e+05	1.012769e+05	2.880847e+02	1.033383e-01	-6.779323e-02	0.000000e+00	
-1.736298e+00	-5.012935e-01	1.224674e+00	4.306166e+01	1.076540e-04	2.539494e+05	1.012769e+05	2.880847e+02	1.033383e-01	-6.779355e-02	0.000000e+00	
-1.788193e+00	-4.720809e-01	1.224674e+00	4.306166e+01	8.059497e-05	2.539494e+05	1.012769e+05	2.880847e+02	1.033383e-01	-6.779380e-02	0.000000e+00	
-1.841317e+00	-4.432518e-01	1.224674e+00	4.306167e+01	5.621926e-05	2.539493e+05	1.012769e+05	2.880847e+02	1.033383e-01	-6.779406e-02	0.000000e+00	
-1.896007e+00	-4.148005e-01	1.224674e+00	4.306167e+01	3.434095e-05	2.539493e+05	1.012769e+05	2.880847e+02	1.033383e-01	-6.779425e-02	0.000000e+00	
-2.000000e+00	-4.166667e-01	1.224674e+00	4.306167e+01	-1.060407e-06	2.539493e+05	1.012769e+05	2.880847e+02	1.033383e-01	-6.779409e-02	0.000000e+00	
-1.143479e+00	-1.149926e+00	1.224674e+00	4.306084e+01	3.026350e-04	2.539494e+05	1.012769e+05	2.880847e+02	1.033363e-01	-6.775432e-02	0.000000e+00	
-1.136036e+00	-1.099969e+00	1.224675e+00	4.306087e+01	3.991125e-04	2.539494e+05	1.012769e+05	2.880847e+02	1.033364e-01	-6.775323e-02	0.000000e+00	
-1.116564e+00	-1.191314e+00	1.224675e+00	4.306075e+01	2.366941e-04	2.539494e+05	1.012769e+05	2.880847e+02	1.033361e-01	-6.774862e-02	0.000000e+00	
-1.183052e+00	-1.007558e+00	1.224674e+00	4.306105e+01	4.885967e-04	2.539494e+05	1.012769e+05	2.880847e+02	1.033368e-01	-6.776328e-02	0.000000e+00	
-1.231159e+00	-7.991290e-01	1.224674e+00	4.306141e+01	5.865334e-04	2.539494e+05	1.012769e+05	2.880847e+02	1.033377e-01	-6.778100e-02	0.000000e+00	
-1.952249e+00	-3.865677e-01	1.224674e+00	4.306168e+01	1.502909e-05	2.539493e+05	1.012769e+05	2.880847e+02	1.033383e-01	-6.779462e-02	0.000000e+00	
-1.133422e+00	-1.038685e+00	1.224674e+00	4.306094e+01	5.120280e-04	2.539494e+05	1.012769e+05	2.880847e+02	1.033365e-01	-6.775827e-02	0.000000e+00	
-1.182166e+00	-9.473104e-01	1.224674e+00	4.306114e+01	5.610454e-04	2.539494e+05	1.012769e+05	2.880847e+02	1.033370e-01	-6.776766e-02	0.000000e+00	
-1.181435e+00	-8.879214e-01	1.224674e+00	4.306123e+01	6.178230e-04	2.539494e+05	1.012769e+05	2.880847e+02	1.033372e-01	-6.777229e-02	0.000000e+00	
-1.180769e+00	-8.290307e-01	1.224674e+00	4.306133e+01	6.588161e-04	2.539494e+05	1.012769e+05	2.880847e+02	1.033375e-01	-6.777739e-02	0.000000e+00	
-1.482521e+00	-5.913341e-01	1.224674e+00	4.306165e+01	2.843050e-04	2.539494e+05	1.012769e+05	2.880847e+02	1.033383e-01	-6.779323e-02	0.000000e+00	
-1.532929e+00	-5.615067e-01	1.224674e+00	4.306166e+01	2.380487e-04	2.539494e+05	1.012769e+05	2.880847e+02	1.033383e-01	-6.779381e-02	0.000000e+00	
-1.432120e+00	-6.211654e-01	1.224674e+00	4.306163e+01	3.358029e-04	2.539494e+05	1.012769e+05	2.880847e+02	1.033382e-01	-6.779244e-02	0.000000e+00	
-1.583362e+00	-5.316917e-01	1.224674e+00	4.306167e+01	1.966561e-04	2.539493e+05	1.012769e+05	2.880847e+02	1.033383e-01	-6.779422e-02	0.000000e+00	
-1.381720e+00	-6.509980e-01	1.224674e+00	4.306161e+01	3.929009e-04	2.539494e+05	1.012769e+05	2.880847e+02	1.033382e-01	-6.779137e-02	0.000000e+00	
-1.331321e+00	-6.808319e-01	1.224674e+00	4.306158e+01	4.559405e-04	2.539494e+05	1.012769e+05	2.880847e+02	1.033381e-01	-6.778994e-02	0.000000e+00	
-1.280921e+00	-7.106681e-01	1.224674e+00	4.306155e+01	5.252144e-04	2.539494e+05	1.012769e+05	2.880847e+02	1.033380e-01	-6.778808e-02	0.000000e+00	
-1.633870e+00	-5.019105e-01	1.224674e+00	4.306167e+01	1.597389e-04	2.539493e+05	1.012769e+05	2.880847e+02	1.033383e-01	-6.779451e-02	0.000000e+00	
-1.230522e+00	-7.405094e-01	1.224674e+00	4.306150e+01	6.009840e-04	2.539494e+05	1.012769e+05	2.880847e+02	1.033379e-01	-6.778571e-02	0.000000e+00	
-1.684576e+00	-4.722088e-01	1.224674e+00	4.306168e+01	1.269131e-04	2.539493e+05	1.012769e+05	2.880847e+02	1.033383e-01	-6.779470e-02	0.000000e+00	
-1.735722e+00	-4.426619e-01	1.224674e+00	4.306168e+01	9.780285e-05	2.539493e+05	1.012769e+05	2.880847e+02	1.033383e-01	-6.779485e-02	0.000000e+00	