TITLE = "SU2 Simulation"
VARIABLES = "Iteration","CL","CD","CSF","CMx","CMy","CMz","CFx","CFy","CFz","CL/CD","AoA","Custom_ObjFunc","Res_Flow[0]","Res_Flow[1]","Res_Flow[2]","Res_Flow[3]","Res_Flow[4]","Linear_Solver_Iterations","CFL_Number","Time(min)"
ZONE T= "Convergence history"
           0, 0.00000000e+00, 0.00000000e+00, 0.00000000e+00, 0.00000000e+00, 0.00000000e+00, 0.00000000e+00, 0.00000000e+00, 0.00000000e+00, 0.00000000e+00, 0.00000000e+00, 0.00000000e+00, 0.00000000e+00, -3.43373958e+00, -8.23975863e-01, -1.23277511e+01, 2.08572544e+00, 0.00000000e+00, 5.0000000000, 5.0000000000, 0.0013208253
           1, 0.00000000e+00, 0.00000000e+00, 0.00000000e+00, 0.00000000e+00, 0.00000000e+00, 0.00000000e+00, 0.00000000e+00, 0.00000000e+00, 0.00000000e+00, 0.00000000e+00, 0.00000000e+00, 0.00000000e+00, -2.56847418e+00, -8.19416704e-02, -3.03585417e+00, 2.87664432e+00, 0.00000000e+00, 5.0000000000, 5.0000000000, 0.0029721581
           2, 0.00000000e+00, 0.00000000e+00, 0.00000000e+00, 0.00000000e+00, 0.00000000e+00, 0.00000000e+00, 0.00000000e+00, 0.00000000e+00, 0.00000000e+00, 0.00000000e+00, 0.00000000e+00, 0.00000000e+00, -2.38075415e+00, 1.03320048e-01, -1.88789657e+00, 3.06351604e+00, 0.00000000e+00, 5.0000000000, 5.0000000000, 0.0044431723
           3, 0.00000000e+00, 0.00000000e+00, 0.00000000e+00, 0.00000000e+00, 0.00000000e+00, 0.00000000e+00, 0.00000000e+00, 0.00000000e+00, 0.00000000e+00, 0.00000000e+00, 0.00000000e+00, 0.00000000e+00, -2.31199045e+00, 1.71983049e-01, -1.56036728e+00, 3.13214589e+00, 0.00000000e+00, 5.0000000000, 5.0000000000, 0.0057438883
           4, 0.00000000e+00, 0.00000000e+00, 0.00000000e+00, 0.00000000e+00, 0.00000000e+00, 0.00000000e+00, 0.00000000e+00, 0.00000000e+00, 0.00000000e+00, 0.00000000e+00, 0.00000000e+00, 0.00000000e+00, -2.28523664e+00, 1.99476683e-01, -1.42025586e+00, 3.15879552e+00, 0.00000000e+00, 5.0000000000, 5.0000000000, 0.0072544210
           5, 0.00000000e+00, 0.00000000e+00, 0.00000000e+00, 0.00000000e+00, 0.00000000e+00, 0.00000000e+00, 0.00000000e+00, 0.00000000e+00, 0.00000000e+00, 0.00000000e+00, 0.00000000e+00, 0.00000000e+00, -2.27520572e+00, 2.09952212e-01, -1.37584168e+00, 3.16865409e+00, 0.00000000e+00, 5.0000000000, 5.0000000000, 0.0088751607
           6, 0.00000000e+00, 0.00000000e+00, 0.00000000e+00, 0.00000000e+00, 0.00000000e+00, 0.00000000e+00, 0.00000000e+00, 0.00000000e+00, 0.00000000e+00, 0.00000000e+00, 0.00000000e+00, 0.00000000e+00, -2.27165100e+00, 2.13349129e-01, -1.38654855e+00, 3.17201910e+00, 0.00000000e+00, 5.0000000000, 5.0000000000, 0.0101676586
           7, 0.00000000e+00, 0.00000000e+00, 0.00000000e+00, 0.00000000e+00, 0.00000000e+00, 0.00000000e+00, 0.00000000e+00, 0.00000000e+00, 0.00000000e+00, 0.00000000e+00, 0.00000000e+00, 0.00000000e+00, -2.27063313e+00, 2.13882116e-01, -1.42047539e+00, 3.17288800e+00, 0.00000000e+00, 5.0000000000, 5.0000000000, 0.0113800836
           8, 0.00000000e+00, 0.00000000e+00, 0.00000000e+00, 0.00000000e+00, 0.00000000e+00, 0.00000000e+00, 0.00000000e+00, 0.00000000e+00, 0.00000000e+00, 0.00000000e+00, 0.00000000e+00, 0.00000000e+00, -2.27086602e+00, 2.13137085e-01, -1.45283594e+00, 3.17256917e+00, 0.00000000e+00, 5.0000000000, 5.0000000000, 0.0125591078
           9, 0.00000000e+00, 0.00000000e+00, 0.00000000e+00, 0.00000000e+00, 0.00000000e+00, 0.00000000e+00, 0.00000000e+00, 0.00000000e+00, 0.00000000e+00, 0.00000000e+00, 0.00000000e+00, 0.00000000e+00, -2.27206622e+00, 2.11488078e-01, -1.47553944e+00, 3.17134394e+00, 0.00000000e+00, 5.0000000000, 5.0000000000, 0.0137295087
          10, 0.00000000e+00, 0.00000000e+00, 0.00000000e+00, 0.00000000e+00, 0.00000000e+00, 0.00000000e+00, 0.00000000e+00, 0.00000000e+00, 0.00000000e+00, 0.00000000e+00, 0.00000000e+00, 0.00000000e+00, -2.27428491e+00, 2.08811266e-01, -1.49264340e+00, 3.16915399e+00, 0.00000000e+00, 5.0000000000, 5.0000000000, 0.0151030819
          11, 0.00000000e+00, 0.00000000e+00, 0.00000000e+00, 0.00000000e+00, 0.00000000e+00, 0.00000000e+00, 0.00000000e+00, 0.00000000e+00, 0.00000000e+00, 0.00000000e+00, 0.00000000e+00, 0.00000000e+00, -2.27762121e+00, 2.04864045e-01, -1.50650201e+00, 3.16589658e+00, 0.00000000e+00, 5.0000000000, 5.0000000000, 0.0164088304
          12, 0.00000000e+00, 0.00000000e+00, 0.00000000e+00, 0.00000000e+00, 0.00000000e+00, 0.00000000e+00, 0.00000000e+00, 0.00000000e+00, 0.00000000e+00, 0.00000000e+00, 0.00000000e+00, 0.00000000e+00, -2.28206248e+00, 1.99513149e-01, -1.51572233e+00, 3.16158289e+00, 0.00000000e+00, 5.0000000000, 5.0000000000, 0.0176201355
          13, 0.00000000e+00, 0.00000000e+00, 0.00000000e+00, 0.00000000e+00, 0.00000000e+00, 0.00000000e+00, 0.00000000e+00, 0.00000000e+00, 0.00000000e+00, 0.00000000e+00, 0.00000000e+00, 0.00000000e+00, -2.28739248e+00, 1.92900633e-01, -1.52097735e+00, 3.15642389e+00, 0.00000000e+00, 5.0000000000, 5.0000000000, 0.0187870205
          14, 0.00000000e+00, 0.00000000e+00, 0.00000000e+00, 0.00000000e+00, 0.00000000e+00, 0.00000000e+00, 0.00000000e+00, 0.00000000e+00, 0.00000000e+00, 0.00000000e+00, 0.00000000e+00, 0.00000000e+00, -2.29316358e+00, 1.85561632e-01, -1.52656989e+00, 3.15085175e+00, 0.00000000e+00, 5.0000000000, 5.0000000000, 0.0200636401
          15, 0.00000000e+00, 0.00000000e+00, 0.00000000e+00, 0.00000000e+00, 0.00000000e+00, 0.00000000e+00, 0.00000000e+00, 0.00000000e+00, 0.00000000e+00, 0.00000000e+00, 0.00000000e+00, 0.00000000e+00, -2.29874233e+00, 1.78441224e-01, -1.53660462e+00, 3.14547152e+00, 0.00000000e+00, 5.0000000000, 5.0000000000, 0.0212709277
          16, 0.00000000e+00, 0.00000000e+00, 0.00000000e+00, 0.00000000e+00, 0.00000000e+00, 0.00000000e+00, 0.00000000e+00, 0.00000000e+00, 0.00000000e+00, 0.00000000e+00, 0.00000000e+00, 0.00000000e+00, -2.30339464e+00, 1.72774310e-01, -1.55150804e+00, 3.14097818e+00, 0.00000000e+00, 5.0000000000, 5.0000000000, 0.0224258512
          17, 0.00000000e+00, 0.00000000e+00, 0.00000000e+00, 0.00000000e+00, 0.00000000e+00, 0.00000000e+00, 0.00000000e+00, 0.00000000e+00, 0.00000000e+00, 0.00000000e+00, 0.00000000e+00, 0.00000000e+00, -2.30645157e+00, 1.69748788e-01, -1.56737054e+00, 3.13800197e+00, 0.00000000e+00, 5.0000000000, 5.0000000000, 0.0238097063
          18, 0.00000000e+00, 0.00000000e+00, 0.00000000e+00, 0.00000000e+00, 0.00000000e+00, 0.00000000e+00, 0.00000000e+00, 0.00000000e+00, 0.00000000e+00, 0.00000000e+00, 0.00000000e+00, 0.00000000e+00, -2.30748541e+00, 1.70080984e-01, -1.57777744e+00, 3.13694677e+00, 0.00000000e+00, 5.0000000000, 5.0000000000, 0.0250680185
          19, 0.00000000e+00, 0.00000000e+00, 0.00000000e+00, 0.00000000e+00, 0.00000000e+00, 0.00000000e+00, 0.00000000e+00, 0.00000000e+00, 0.00000000e+00, 0.00000000e+00, 0.00000000e+00, 0.00000000e+00, -2.30643912e+00, 1.73716277e-01, -1.57772990e+00, 3.13787119e+00, 0.00000000e+00, 5.0000000000, 5.0000000000, 0.0262723581
          20, 0.00000000e+00, 0.00000000e+00, 0.00000000e+00, 0.00000000e+00, 0.00000000e+00, 0.00000000e+00, 0.00000000e+00, 0.00000000e+00, 0.00000000e+00, 0.00000000e+00, 0.00000000e+00, 0.00000000e+00, -2.30364484e+00, 1.79848916e-01, -1.56710042e+00, 3.14046973e+00, 0.00000000e+00, 5.0000000000, 5.0000000000, 0.0274859892
          21, 0.00000000e+00, 0.00000000e+00, 0.00000000e+00, 0.00000000e+00, 0.00000000e+00, 0.00000000e+00, 0.00000000e+00, 0.00000000e+00, 0.00000000e+00, 0.00000000e+00, 0.00000000e+00, 0.00000000e+00, -2.29971778e+00, 1.87242903e-01, -1.55008820e+00, 3.14416813e+00, 0.00000000e+00, 5.0000000000, 5.0000000000, 0.0289993524
          22, 0.00000000e+00, 0.00000000e+00, 0.00000000e+00, 0.00000000e+00, 0.00000000e+00, 0.00000000e+00, 0.00000000e+00, 0.00000000e+00, 0.00000000e+00, 0.00000000e+00, 0.00000000e+00, 0.00000000e+00, -2.29537825e+00, 1.94646418e-01, -1.53179945e+00, 3.14828727e+00, 0.00000000e+00, 5.0000000000, 5.0000000000, 0.0303113258
          23, 0.00000000e+00, 0.00000000e+00, 0.00000000e+00, 0.00000000e+00, 0.00000000e+00, 0.00000000e+00, 0.00000000e+00, 0.00000000e+00, 0.00000000e+00, 0.00000000e+00, 0.00000000e+00, 0.00000000e+00, -2.29128466e+00, 2.01100422e-01, -1.51584886e+00, 3.15219986e+00, 0.00000000e+00, 5.0000000000, 5.0000000000, 0.0315049316
          24, 0.00000000e+00, 0.00000000e+00, 0.00000000e+00, 0.00000000e+00, 0.00000000e+00, 0.00000000e+00, 0.00000000e+00, 0.00000000e+00, 0.00000000e+00, 0.00000000e+00, 0.00000000e+00, 0.00000000e+00, -2.28793743e+00, 2.06076465e-01, -1.50404065e+00, 3.15542234e+00, 0.00000000e+00, 5.0000000000, 5.0000000000, 0.0328905426
          25, 0.00000000e+00, 0.00000000e+00, 0.00000000e+00, 0.00000000e+00, 0.00000000e+00, 0.00000000e+00, 0.00000000e+00, 0.00000000e+00, 0.00000000e+00, 0.00000000e+00, 0.00000000e+00, 0.00000000e+00, -2.28566744e+00, 2.09484702e-01, -1.49699339e+00, 3.15762668e+00, 0.00000000e+00, 5.0000000000, 5.0000000000, 0.0343063235
          26, 0.00000000e+00, 0.00000000e+00, 0.00000000e+00, 0.00000000e+00, 0.00000000e+00, 0.00000000e+00, 0.00000000e+00, 0.00000000e+00, 0.00000000e+00, 0.00000000e+00, 0.00000000e+00, 0.00000000e+00, -2.28468744e+00, 2.11617157e-01, -1.49477418e+00, 3.15859096e+00, 0.00000000e+00, 5.0000000000, 5.0000000000, 0.0357420504
          27, 0.00000000e+00, 0.00000000e+00, 0.00000000e+00, 0.00000000e+00, 0.00000000e+00, 0.00000000e+00, 0.00000000e+00, 0.00000000e+00, 0.00000000e+00, 0.00000000e+00, 0.00000000e+00, 0.00000000e+00, -2.28517055e+00, 2.13067854e-01, -1.49724947e+00, 3.15812351e+00, 0.00000000e+00, 5.0000000000, 5.0000000000, 0.0370478640
          28, 0.00000000e+00, 0.00000000e+00, 0.00000000e+00, 0.00000000e+00, 0.00000000e+00, 0.00000000e+00, 0.00000000e+00, 0.00000000e+00, 0.00000000e+00, 0.00000000e+00, 0.00000000e+00, 0.00000000e+00, -2.28732287e+00, 2.14639231e-01, -1.50417364e+00, 3.15599325e+00, 0.00000000e+00, 5.0000000000, 5.0000000000, 0.0382786203
          29, 0.00000000e+00, 0.00000000e+00, 0.00000000e+00, 0.00000000e+00, 0.00000000e+00, 0.00000000e+00, 0.00000000e+00, 0.00000000e+00, 0.00000000e+00, 0.00000000e+00, 0.00000000e+00, 0.00000000e+00, -2.29142845e+00, 2.17223160e-01, -1.51511162e+00, 3.15188843e+00, 0.00000000e+00, 5.0000000000, 5.0000000000, 0.0395447854
          30, 0.00000000e+00, 0.00000000e+00, 0.00000000e+00, 0.00000000e+00, 0.00000000e+00, 0.00000000e+00, 0.00000000e+00, 0.00000000e+00, 0.00000000e+00, 0.00000000e+00, 0.00000000e+00, 0.00000000e+00, -2.29785734e+00, 2.21643998e-01, -1.52929702e+00, 3.14541289e+00, 0.00000000e+00, 5.0000000000, 5.0000000000, 0.0410101971
          31, 0.00000000e+00, 0.00000000e+00, 0.00000000e+00, 0.00000000e+00, 0.00000000e+00, 0.00000000e+00, 0.00000000e+00, 0.00000000e+00, 0.00000000e+00, 0.00000000e+00, 0.00000000e+00, 0.00000000e+00, -2.30703636e+00, 2.28473362e-01, -1.54550768e+00, 3.13612049e+00, 0.00000000e+00, 5.0000000000, 5.0000000000, 0.0423018540
          32, 0.00000000e+00, 0.00000000e+00, 0.00000000e+00, 0.00000000e+00, 0.00000000e+00, 0.00000000e+00, 0.00000000e+00, 0.00000000e+00, 0.00000000e+00, 0.00000000e+00, 0.00000000e+00, 0.00000000e+00, -2.31938434e+00, 2.37861558e-01, -1.56203857e+00, 3.12358631e+00, 0.00000000e+00, 5.0000000000, 5.0000000000, 0.0435218209
          33, 0.00000000e+00, 0.00000000e+00, 0.00000000e+00, 0.00000000e+00, 0.00000000e+00, 0.00000000e+00, 0.00000000e+00, 0.00000000e+00, 0.00000000e+00, 0.00000000e+00, 0.00000000e+00, 0.00000000e+00, -2.33520808e+00, 2.49450244e-01, -1.57685886e+00, 3.10752054e+00, 0.00000000e+00, 5.0000000000, 5.0000000000, 0.0448965378
          34, 0.00000000e+00, 0.00000000e+00, 0.00000000e+00, 0.00000000e+00, 0.00000000e+00, 0.00000000e+00, 0.00000000e+00, 0.00000000e+00, 0.00000000e+00, 0.00000000e+00, 0.00000000e+00, 0.00000000e+00, -2.35454399e+00, 2.62407497e-01, -1.58800476e+00, 3.08794277e+00, 0.00000000e+00, 5.0000000000, 5.0000000000, 0.0462734771
          35, 0.00000000e+00, 0.00000000e+00, 0.00000000e+00, 0.00000000e+00, 0.00000000e+00, 0.00000000e+00, 0.00000000e+00, 0.00000000e+00, 0.00000000e+00, 0.00000000e+00, 0.00000000e+00, 0.00000000e+00, -2.37691933e+00, 2.75568788e-01, -1.59413655e+00, 3.06544618e+00, 0.00000000e+00, 5.0000000000, 5.0000000000, 0.0474973312
          36, 0.00000000e+00, 0.00000000e+00, 0.00000000e+00, 0.00000000e+00, 0.00000000e+00, 0.00000000e+00, 0.00000000e+00, 0.00000000e+00, 0.00000000e+00, 0.00000000e+00, 0.00000000e+00, 0.00000000e+00, -2.40101413e+00, 2.87619968e-01, -1.59499504e+00, 3.04156729e+00, 0.00000000e+00, 5.0000000000, 5.0000000000, 0.0486515603
          37, 0.00000000e+00, 0.00000000e+00, 0.00000000e+00, 0.00000000e+00, 0.00000000e+00, 0.00000000e+00, 0.00000000e+00, 0.00000000e+00, 0.00000000e+00, 0.00000000e+00, 0.00000000e+00, 0.00000000e+00, -2.42427836e+00, 2.97254885e-01, -1.59147293e+00, 3.01918007e+00, 0.00000000e+00, 5.0000000000, 5.0000000000, 0.0499164864
          38, 0.00000000e+00, 0.00000000e+00, 0.00000000e+00, 0.00000000e+00, 0.00000000e+00, 0.00000000e+00, 0.00000000e+00, 0.00000000e+00, 0.00000000e+00, 0.00000000e+00, 0.00000000e+00, 0.00000000e+00, -2.44277561e+00, 3.03271110e-01, -1.58526177e+00, 3.00257052e+00, 0.00000000e+00, 5.0000000000, 5.0000000000, 0.0511497461
          39, 0.00000000e+00, 0.00000000e+00, 0.00000000e+00, 0.00000000e+00, 0.00000000e+00, 0.00000000e+00, 0.00000000e+00, 0.00000000e+00, 0.00000000e+00, 0.00000000e+00, 0.00000000e+00, 0.00000000e+00, -2.45183095e+00, 3.04601521e-01, -1.57832524e+00, 2.99653967e+00, 0.00000000e+00, 5.0000000000, 5.0000000000, 0.0526591694
          40, 0.00000000e+00, 0.00000000e+00, 0.00000000e+00, 0.00000000e+00, 0.00000000e+00, 0.00000000e+00, 0.00000000e+00, 0.00000000e+00, 0.00000000e+00, 0.00000000e+00, 0.00000000e+00, 0.00000000e+00, -2.44787894e+00, 3.00297749e-01, -1.57247657e+00, 3.00427435e+00, 0.00000000e+00, 5.0000000000, 5.0000000000, 0.0540149912
          41, 0.00000000e+00, 0.00000000e+00, 0.00000000e+00, 0.00000000e+00, 0.00000000e+00, 0.00000000e+00, 0.00000000e+00, 0.00000000e+00, 0.00000000e+00, 0.00000000e+00, 0.00000000e+00, 0.00000000e+00, -2.43055641e+00, 2.89483480e-01, -1.56915636e+00, 3.02534812e+00, 0.00000000e+00, 5.0000000000, 5.0000000000, 0.0552881803
          42, 0.00000000e+00, 0.00000000e+00, 0.00000000e+00, 0.00000000e+00, 0.00000000e+00, 0.00000000e+00, 0.00000000e+00, 0.00000000e+00, 0.00000000e+00, 0.00000000e+00, 0.00000000e+00, 0.00000000e+00, -2.40301230e+00, 2.71289600e-01, -1.56936843e+00, 3.05592560e+00, 0.00000000e+00, 5.0000000000, 5.0000000000, 0.0564983399
          43, 0.00000000e+00, 0.00000000e+00, 0.00000000e+00, 0.00000000e+00, 0.00000000e+00, 0.00000000e+00, 0.00000000e+00, 0.00000000e+00, 0.00000000e+00, 0.00000000e+00, 0.00000000e+00, 0.00000000e+00, -2.37008887e+00, 2.44775181e-01, -1.57369695e+00, 3.09092991e+00, 0.00000000e+00, 5.0000000000, 5.0000000000, 0.0576669868
          44, 0.00000000e+00, 0.00000000e+00, 0.00000000e+00, 0.00000000e+00, 0.00000000e+00, 0.00000000e+00, 0.00000000e+00, 0.00000000e+00, 0.00000000e+00, 0.00000000e+00, 0.00000000e+00, 0.00000000e+00, -2.33626047e+00, 2.08831601e-01, -1.58234921e+00, 3.12601006e+00, 0.00000000e+00, 5.0000000000, 5.0000000000, 0.0588269406
          45, 0.00000000e+00, 0.00000000e+00, 0.00000000e+00, 0.00000000e+00, 0.00000000e+00, 0.00000000e+00, 0.00000000e+00, 0.00000000e+00, 0.00000000e+00, 0.00000000e+00, 0.00000000e+00, 0.00000000e+00, -2.30469800e+00, 1.62062696e-01, -1.59519072e+00, 3.15823686e+00, 0.00000000e+00, 5.0000000000, 5.0000000000, 0.0600145293
          46, 0.00000000e+00, 0.00000000e+00, 0.00000000e+00, 0.00000000e+00, 0.00000000e+00, 0.00000000e+00, 0.00000000e+00, 0.00000000e+00, 0.00000000e+00, 0.00000000e+00, 0.00000000e+00, 0.00000000e+00, -2.27728748e+00, 1.02638362e-01, -1.61175803e+00, 3.18594188e+00, 0.00000000e+00, 5.0000000000, 5.0000000000, 0.0611863996
          47, 0.00000000e+00, 0.00000000e+00, 0.00000000e+00, 0.00000000e+00, 0.00000000e+00, 0.00000000e+00, 0.00000000e+00, 0.00000000e+00, 0.00000000e+00, 0.00000000e+00, 0.00000000e+00, 0.00000000e+00, -2.25498619e+00, 2.81622174e-02, -1.63123496e+00, 3.20832323e+00, 0.00000000e+00, 5.0000000000, 5.0000000000, 0.0623549801
          48, 0.00000000e+00, 0.00000000e+00, 0.00000000e+00, 0.00000000e+00, 0.00000000e+00, 0.00000000e+00, 0.00000000e+00, 0.00000000e+00, 0.00000000e+00, 0.00000000e+00, 0.00000000e+00, 0.00000000e+00, -2.23816561e+00, -6.41773963e-02, -1.65239112e+00, 3.22511039e+00, 0.00000000e+00, 5.0000000000, 5.0000000000, 0.0635609113
          49, 0.00000000e+00, 0.00000000e+00, 0.00000000e+00, 0.00000000e+00, 0.00000000e+00, 0.00000000e+00, 0.00000000e+00, 0.00000000e+00, 0.00000000e+00, 0.00000000e+00, 0.00000000e+00, 0.00000000e+00, -2.22684803e+00, -1.75783044e-01, -1.67351861e+00, 3.23634485e+00, 0.00000000e+00, 5.0000000000, 5.0000000000, 0.0648000055
          50, 0.00000000e+00, 0.00000000e+00, 0.00000000e+00, 0.00000000e+00, 0.00000000e+00, 0.00000000e+00, 0.00000000e+00, 0.00000000e+00, 0.00000000e+00, 0.00000000e+00, 0.00000000e+00, 0.00000000e+00, -2.22084761e+00, -2.96971116e-01, -1.69246130e+00, 3.24225382e+00, 0.00000000e+00, 5.0000000000, 5.0000000000, 0.0660100339
          51, 0.00000000e+00, 0.00000000e+00, 0.00000000e+00, 0.00000000e+00, 0.00000000e+00, 0.00000000e+00, 0.00000000e+00, 0.00000000e+00, 0.00000000e+00, 0.00000000e+00, 0.00000000e+00, 0.00000000e+00, -2.21984682e+00, -3.78056411e-01, -1.70687457e+00, 3.24318396e+00, 0.00000000e+00, 5.0000000000, 5.0000000000, 0.0672796066
          52, 0.00000000e+00, 0.00000000e+00, 0.00000000e+00, 0.00000000e+00, 0.00000000e+00, 0.00000000e+00, 0.00000000e+00, 0.00000000e+00, 0.00000000e+00, 0.00000000e+00, 0.00000000e+00, 0.00000000e+00, -2.22343421e+00, -3.50584679e-01, -1.71476331e+00, 3.23957006e+00, 0.00000000e+00, 5.0000000000, 5.0000000000, 0.0685289368
          53, 0.00000000e+00, 0.00000000e+00, 0.00000000e+00, 0.00000000e+00, 0.00000000e+00, 0.00000000e+00, 0.00000000e+00, 0.00000000e+00, 0.00000000e+00, 0.00000000e+00, 0.00000000e+00, 0.00000000e+00, -2.23112155e+00, -2.54716945e-01, -1.71510273e+00, 3.23192158e+00, 0.00000000e+00, 5.0000000000, 5.0000000000, 0.0701020017
          54, 0.00000000e+00, 0.00000000e+00, 0.00000000e+00, 0.00000000e+00, 0.00000000e+00, 0.00000000e+00, 0.00000000e+00, 0.00000000e+00, 0.00000000e+00, 0.00000000e+00, 0.00000000e+00, 0.00000000e+00, -2.24235283e+00, -1.57158451e-01, -1.70817141e+00, 3.22081547e+00, 0.00000000e+00, 5.0000000000, 5.0000000000, 0.0716012907
          55, 0.00000000e+00, 0.00000000e+00, 0.00000000e+00, 0.00000000e+00, 0.00000000e+00, 0.00000000e+00, 0.00000000e+00, 0.00000000e+00, 0.00000000e+00, 0.00000000e+00, 0.00000000e+00, 0.00000000e+00, -2.25651477e+00, -7.70495697e-02, -1.69537417e+00, 3.20688561e+00, 0.00000000e+00, 5.0000000000, 5.0000000000, 0.0727940914
          56, 0.00000000e+00, 0.00000000e+00, 0.00000000e+00, 0.00000000e+00, 0.00000000e+00, 0.00000000e+00, 0.00000000e+00, 0.00000000e+00, 0.00000000e+00, 0.00000000e+00, 0.00000000e+00, 0.00000000e+00, -2.27295745e+00, -1.46515906e-02, -1.67870152e+00, 3.19080054e+00, 0.00000000e+00, 5.0000000000, 5.0000000000, 0.0739556850
          57, 0.00000000e+00, 0.00000000e+00, 0.00000000e+00, 0.00000000e+00, 0.00000000e+00, 0.00000000e+00, 0.00000000e+00, 0.00000000e+00, 0.00000000e+00, 0.00000000e+00, 0.00000000e+00, 0.00000000e+00, -2.29103167e+00, 3.30484896e-02, -1.66016450e+00, 3.17322315e+00, 0.00000000e+00, 5.0000000000, 5.0000000000, 0.0753468644
          58, 0.00000000e+00, 0.00000000e+00, 0.00000000e+00, 0.00000000e+00, 0.00000000e+00, 0.00000000e+00, 0.00000000e+00, 0.00000000e+00, 0.00000000e+00, 0.00000000e+00, 0.00000000e+00, 0.00000000e+00, -2.31014595e+00, 6.89588631e-02, -1.64145784e+00, 3.15475018e+00, 0.00000000e+00, 5.0000000000, 5.0000000000, 0.0765738726
          59, 0.00000000e+00, 0.00000000e+00, 0.00000000e+00, 0.00000000e+00, 0.00000000e+00, 0.00000000e+00, 0.00000000e+00, 0.00000000e+00, 0.00000000e+00, 0.00000000e+00, 0.00000000e+00, 0.00000000e+00, -2.32983812e+00, 9.54284061e-02, -1.62386034e+00, 3.13583806e+00, 0.00000000e+00, 5.0000000000, 5.0000000000, 0.0780771773
          60, 0.00000000e+00, 0.00000000e+00, 0.00000000e+00, 0.00000000e+00, 0.00000000e+00, 0.00000000e+00, 0.00000000e+00, 0.00000000e+00, 0.00000000e+00, 0.00000000e+00, 0.00000000e+00, 0.00000000e+00, -2.34984782e+00, 1.14327791e-01, -1.60828014e+00, 3.11673062e+00, 0.00000000e+00, 5.0000000000, 5.0000000000, 0.0794963434
          61, 0.00000000e+00, 0.00000000e+00, 0.00000000e+00, 0.00000000e+00, 0.00000000e+00, 0.00000000e+00, 0.00000000e+00, 0.00000000e+00, 0.00000000e+00, 0.00000000e+00, 0.00000000e+00, 0.00000000e+00, -2.37017068e+00, 1.27182911e-01, -1.59535184e+00, 3.09740885e+00, 0.00000000e+00, 5.0000000000, 5.0000000000, 0.0807205479
          62, 0.00000000e+00, 0.00000000e+00, 0.00000000e+00, 0.00000000e+00, 0.00000000e+00, 0.00000000e+00, 0.00000000e+00, 0.00000000e+00, 0.00000000e+00, 0.00000000e+00, 0.00000000e+00, 0.00000000e+00, -2.39107811e+00, 1.35274876e-01, -1.58553074e+00, 3.07757836e+00, 0.00000000e+00, 5.0000000000, 5.0000000000, 0.0819108830
          63, 0.00000000e+00, 0.00000000e+00, 0.00000000e+00, 0.00000000e+00, 0.00000000e+00, 0.00000000e+00, 0.00000000e+00, 0.00000000e+00, 0.00000000e+00, 0.00000000e+00, 0.00000000e+00, 0.00000000e+00, -2.41309811e+00, 1.39700018e-01, -1.57916348e+00, 3.05669723e+00, 0.00000000e+00, 5.0000000000, 5.0000000000, 0.0830433231
          64, 0.00000000e+00, 0.00000000e+00, 0.00000000e+00, 0.00000000e+00, 0.00000000e+00, 0.00000000e+00, 0.00000000e+00, 0.00000000e+00, 0.00000000e+00, 0.00000000e+00, 0.00000000e+00, 0.00000000e+00, -2.43696748e+00, 1.41397665e-01, -1.57652896e+00, 3.03403182e+00, 0.00000000e+00, 5.0000000000, 5.0000000000, 0.0842277127
          65, 0.00000000e+00, 0.00000000e+00, 0.00000000e+00, 0.00000000e+00, 0.00000000e+00, 0.00000000e+00, 0.00000000e+00, 0.00000000e+00, 0.00000000e+00, 0.00000000e+00, 0.00000000e+00, 0.00000000e+00, -2.46357479e+00, 1.41155657e-01, -1.57785443e+00, 3.00872027e+00, 0.00000000e+00, 5.0000000000, 5.0000000000, 0.0854428695
          66, 0.00000000e+00, 0.00000000e+00, 0.00000000e+00, 0.00000000e+00, 0.00000000e+00, 0.00000000e+00, 0.00000000e+00, 0.00000000e+00, 0.00000000e+00, 0.00000000e+00, 0.00000000e+00, 0.00000000e+00, -2.49391333e+00, 1.39604094e-01, -1.58330754e+00, 2.97982610e+00, 0.00000000e+00, 5.0000000000, 5.0000000000, 0.0866057677
          67, 0.00000000e+00, 0.00000000e+00, 0.00000000e+00, 0.00000000e+00, 0.00000000e+00, 0.00000000e+00, 0.00000000e+00, 0.00000000e+00, 0.00000000e+00, 0.00000000e+00, 0.00000000e+00, 0.00000000e+00, -2.52905407e+00, 1.37207713e-01, -1.59296461e+00, 2.94637441e+00, 0.00000000e+00, 5.0000000000, 5.0000000000, 0.0877668780
          68, 0.00000000e+00, 0.00000000e+00, 0.00000000e+00, 0.00000000e+00, 0.00000000e+00, 0.00000000e+00, 0.00000000e+00, 0.00000000e+00, 0.00000000e+00, 0.00000000e+00, 0.00000000e+00, 0.00000000e+00, -2.57013620e+00, 1.34265496e-01, -1.60675319e+00, 2.90737785e+00, 0.00000000e+00, 5.0000000000, 5.0000000000, 0.0891637226
          69, 0.00000000e+00, 0.00000000e+00, 0.00000000e+00, 0.00000000e+00, 0.00000000e+00, 0.00000000e+00, 0.00000000e+00, 0.00000000e+00, 0.00000000e+00, 0.00000000e+00, 0.00000000e+00, 0.00000000e+00, -2.61835232e+00, 1.30922403e-01, -1.62436329e+00, 2.86188064e+00, 0.00000000e+00, 5.0000000000, 5.0000000000, 0.0903946705
          70, 0.00000000e+00, 0.00000000e+00, 0.00000000e+00, 0.00000000e+00, 0.00000000e+00, 0.00000000e+00, 0.00000000e+00, 0.00000000e+00, 0.00000000e+00, 0.00000000e+00, 0.00000000e+00, 0.00000000e+00, -2.67486129e+00, 1.27193154e-01, -1.64512409e+00, 2.80909182e+00, 0.00000000e+00, 5.0000000000, 5.0000000000, 0.0916090656
          71, 0.00000000e+00, 0.00000000e+00, 0.00000000e+00, 0.00000000e+00, 0.00000000e+00, 0.00000000e+00, 0.00000000e+00, 0.00000000e+00, 0.00000000e+00, 0.00000000e+00, 0.00000000e+00, 0.00000000e+00, -2.74043881e+00, 1.22993746e-01, -1.66785504e+00, 2.74878370e+00, 0.00000000e+00, 5.0000000000, 5.0000000000, 0.0930585097
          72, 0.00000000e+00, 0.00000000e+00, 0.00000000e+00, 0.00000000e+00, 0.00000000e+00, 0.00000000e+00, 0.00000000e+00, 0.00000000e+00, 0.00000000e+00, 0.00000000e+00, 0.00000000e+00, 0.00000000e+00, -2.81433085e+00, 1.18174449e-01, -1.69074122e+00, 2.68237393e+00, 0.00000000e+00, 5.0000000000, 5.0000000000, 0.0944139678
          73, 0.00000000e+00, 0.00000000e+00, 0.00000000e+00, 0.00000000e+00, 0.00000000e+00, 0.00000000e+00, 0.00000000e+00, 0.00000000e+00, 0.00000000e+00, 0.00000000e+00, 0.00000000e+00, 0.00000000e+00, -2.89103541e+00, 1.12548627e-01, -1.71135746e+00, 2.61545297e+00, 0.00000000e+00, 5.0000000000, 5.0000000000, 0.0956596427
          74, 0.00000000e+00, 0.00000000e+00, 0.00000000e+00, 0.00000000e+00, 0.00000000e+00, 0.00000000e+00, 0.00000000e+00, 0.00000000e+00, 0.00000000e+00, 0.00000000e+00, 0.00000000e+00, 0.00000000e+00, -2.95398269e+00, 1.05914023e-01, -1.72702300e+00, 2.56168848e+00, 0.00000000e+00, 5.0000000000, 5.0000000000, 0.0970023522
          75, 0.00000000e+00, 0.00000000e+00, 0.00000000e+00, 0.00000000e+00, 0.00000000e+00, 0.00000000e+00, 0.00000000e+00, 0.00000000e+00, 0.00000000e+00, 0.00000000e+00, 0.00000000e+00, 0.00000000e+00, -2.97500737e+00, 9.80658623e-02, -1.73557243e+00, 2.54164442e+00, 0.00000000e+00, 5.0000000000, 5.0000000000, 0.0983680292
          76, 0.00000000e+00, 0.00000000e+00, 0.00000000e+00, 0.00000000e+00, 0.00000000e+00, 0.00000000e+00, 0.00000000e+00, 0.00000000e+00, 0.00000000e+00, 0.00000000e+00, 0.00000000e+00, 0.00000000e+00, -2.94095946e+00, 8.88031888e-02, -1.73628287e+00, 2.56561645e+00, 0.00000000e+00, 5.0000000000, 5.0000000000, 0.0999908287
          77, 0.00000000e+00, 0.00000000e+00, 0.00000000e+00, 0.00000000e+00, 0.00000000e+00, 0.00000000e+00, 0.00000000e+00, 0.00000000e+00, 0.00000000e+00, 0.00000000e+00, 0.00000000e+00, 0.00000000e+00, -2.87286984e+00, 7.79306345e-02, -1.73035609e+00, 2.62058997e+00, 0.00000000e+00, 5.0000000000, 5.0000000000, 0.1017020686
          78, 0.00000000e+00, 0.00000000e+00, 0.00000000e+00, 0.00000000e+00, 0.00000000e+00, 0.00000000e+00, 0.00000000e+00, 0.00000000e+00, 0.00000000e+00, 0.00000000e+00, 0.00000000e+00, 0.00000000e+00, -2.79700626e+00, 6.52573463e-02, -1.72035728e+00, 2.68632761e+00, 0.00000000e+00, 5.0000000000, 5.0000000000, 0.1033938218
          79, 0.00000000e+00, 0.00000000e+00, 0.00000000e+00, 0.00000000e+00, 0.00000000e+00, 0.00000000e+00, 0.00000000e+00, 0.00000000e+00, 0.00000000e+00, 0.00000000e+00, 0.00000000e+00, 0.00000000e+00, -2.72624292e+00, 5.05950725e-02, -1.70920136e+00, 2.75044210e+00, 0.00000000e+00, 5.0000000000, 5.0000000000, 0.1051137421
          80, 0.00000000e+00, 0.00000000e+00, 0.00000000e+00, 0.00000000e+00, 0.00000000e+00, 0.00000000e+00, 0.00000000e+00, 0.00000000e+00, 0.00000000e+00, 0.00000000e+00, 0.00000000e+00, 0.00000000e+00, -2.66432517e+00, 3.37592201e-02, -1.69953350e+00, 2.80809349e+00, 0.00000000e+00, 5.0000000000, 5.0000000000, 0.1068099710
          81, 0.00000000e+00, 0.00000000e+00, 0.00000000e+00, 0.00000000e+00, 0.00000000e+00, 0.00000000e+00, 0.00000000e+00, 0.00000000e+00, 0.00000000e+00, 0.00000000e+00, 0.00000000e+00, 0.00000000e+00, -2.61149024e+00, 1.45735699e-02, -1.69344793e+00, 2.85811187e+00, 0.00000000e+00, 5.0000000000, 5.0000000000, 0.1085118276
          82, 0.00000000e+00, 0.00000000e+00, 0.00000000e+00, 0.00000000e+00, 0.00000000e+00, 0.00000000e+00, 0.00000000e+00, 0.00000000e+00, 0.00000000e+00, 0.00000000e+00, 0.00000000e+00, 0.00000000e+00, -2.56695894e+00, -7.12595441e-03, -1.69246924e+00, 2.90069806e+00, 0.00000000e+00, 5.0000000000, 5.0000000000, 0.1102288123
          83, 0.00000000e+00, 0.00000000e+00, 0.00000000e+00, 0.00000000e+00, 0.00000000e+00, 0.00000000e+00, 0.00000000e+00, 0.00000000e+00, 0.00000000e+00, 0.00000000e+00, 0.00000000e+00, 0.00000000e+00, -2.52978458e+00, -3.14841449e-02, -1.69766975e+00, 2.93646323e+00, 0.00000000e+00, 5.0000000000, 5.0000000000, 0.1119322220
          84, 0.00000000e+00, 0.00000000e+00, 0.00000000e+00, 0.00000000e+00, 0.00000000e+00, 0.00000000e+00, 0.00000000e+00, 0.00000000e+00, 0.00000000e+00, 0.00000000e+00, 0.00000000e+00, 0.00000000e+00, -2.49910205e+00, -5.86165023e-02, -1.70980927e+00, 2.96607795e+00, 0.00000000e+00, 5.0000000000, 5.0000000000, 0.1139031375
          85, 0.00000000e+00, 0.00000000e+00, 0.00000000e+00, 0.00000000e+00, 0.00000000e+00, 0.00000000e+00, 0.00000000e+00, 0.00000000e+00, 0.00000000e+00, 0.00000000e+00, 0.00000000e+00, 0.00000000e+00, -2.47417910e+00, -8.85967262e-02, -1.72943795e+00, 2.99015950e+00, 0.00000000e+00, 5.0000000000, 5.0000000000, 0.1161973637
          86, 0.00000000e+00, 0.00000000e+00, 0.00000000e+00, 0.00000000e+00, 0.00000000e+00, 0.00000000e+00, 0.00000000e+00, 0.00000000e+00, 0.00000000e+00, 0.00000000e+00, 0.00000000e+00, 0.00000000e+00, -2.45440660e+00, -1.21441430e-01, -1.75693249e+00, 3.00924748e+00, 0.00000000e+00, 5.0000000000, 5.0000000000, 0.1179156945
          87, 0.00000000e+00, 0.00000000e+00, 0.00000000e+00, 0.00000000e+00, 0.00000000e+00, 0.00000000e+00, 0.00000000e+00, 0.00000000e+00, 0.00000000e+00, 0.00000000e+00, 0.00000000e+00, 0.00000000e+00, -2.43927317e+00, -1.57091648e-01, -1.79243080e+00, 3.02381013e+00, 0.00000000e+00, 5.0000000000, 5.0000000000, 0.1196409486
          88, 0.00000000e+00, 0.00000000e+00, 0.00000000e+00, 0.00000000e+00, 0.00000000e+00, 0.00000000e+00, 0.00000000e+00, 0.00000000e+00, 0.00000000e+00, 0.00000000e+00, 0.00000000e+00, 0.00000000e+00, -2.42833873e+00, -1.95390145e-01, -1.83559219e+00, 3.03426016e+00, 0.00000000e+00, 5.0000000000, 5.0000000000, 0.1213607130
          89, 0.00000000e+00, 0.00000000e+00, 0.00000000e+00, 0.00000000e+00, 0.00000000e+00, 0.00000000e+00, 0.00000000e+00, 0.00000000e+00, 0.00000000e+00, 0.00000000e+00, 0.00000000e+00, 0.00000000e+00, -2.42121114e+00, -2.36052880e-01, -1.88503548e+00, 3.04097184e+00, 0.00000000e+00, 5.0000000000, 5.0000000000, 0.1230851884