TITLE = "Visualization of the volumetric solution"
VARIABLES = "x","y","Density","Momentum_x","Momentum_y","Energy","Pressure","Temperature","Mach","C<sub>p</sub>","Roe_Dissipation"
ZONE NODES= 1720, ELEMENTS= 3288, DATAPACKING=POINT, ZONETYPE=FEQUADRILATERAL
-2.000000e+00	-1.190476e+00	1.224763e+00	4.277018e+01	4.786335e-09	2.539649e+05	1.012872e+05	2.880931e+02	1.026298e-01	-5.323886e-02	0.000000e+00	
-1.913018e+00	-1.184272e+00	1.224763e+00	4.277018e+01	-1.640797e-08	2.539649e+05	1.012872e+05	2.880931e+02	1.026298e-01	-5.323886e-02	0.000000e+00	
-1.954560e+00	-1.150209e+00	1.224763e+00	4.277018e+01	-4.974441e-08	2.539649e+05	1.012872e+05	2.880931e+02	1.026298e-01	-5.323886e-02	0.000000e+00	
-1.849926e+00	-1.205140e+00	1.224763e+00	4.277018e+01	3.514393e-08	2.539649e+05	1.012872e+05	2.880931e+02	1.026298e-01	-5.323888e-02	0.000000e+00	
-1.903970e+00	-1.130852e+00	1.224763e+00	4.277018e+01	-1.531636e-07	2.539649e+05	1.012872e+05	2.880931e+02	1.026298e-01	-5.323886e-02	0.000000e+00	
-2.000000e+00	-1.130952e+00	1.224763e+00	4.277018e+01	3.371621e-09	2.539649e+05	1.012872e+05	2.880931e+02	1.026298e-01	-5.323886e-02	0.000000e+00	
-1.851543e+00	-1.159370e+00	1.224763e+00	4.277018e+01	-1.450442e-07	2.539649e+05	1.012872e+05	2.880931e+02	1.026298e-01	-5.323887e-02	0.000000e+00	
-1.953167e+00	-1.099799e+00	1.224763e+00	4.277018e+01	-1.113963e-07	2.539649e+05	1.012872e+05	2.880931e+02	1.026298e-01	-5.323885e-02	0.000000e+00	
-1.790653e+00	-1.186382e+00	1.224763e+00	4.277018e+01	-2.672124e-08	2.539649e+05	1.012872e+05	2.880931e+02	1.026298e-01	-5.323889e-02	0.000000e+00	
-1.847749e+00	-1.098124e+00	1.224763e+00	4.277018e+01	-3.607404e-07	2.539649e+05	1.012872e+05	2.880931e+02	1.026298e-01	-5.323887e-02	0.000000e+00	
-1.900004e+00	-1.068081e+00	1.224763e+00	4.277018e+01	-3.086039e-07	2.539649e+05	1.012872e+05	2.880931e+02	1.026298e-01	-5.323885e-02	0.000000e+00	
-2.000000e+00	-1.071429e+00	1.224763e+00	4.277018e+01	7.546423e-09	2.539649e+05	1.012872e+05	2.880931e+02	1.026298e-01	-5.323885e-02	0.000000e+00	
-1.792598e+00	-1.131714e+00	1.224763e+00	4.277018e+01	-3.406083e-07	2.539649e+05	1.012872e+05	2.880931e+02	1.026298e-01	-5.323888e-02	0.000000e+00	
-1.951023e+00	-1.040587e+00	1.224763e+00	4.277018e+01	-1.832272e-07	2.539649e+05	1.012872e+05	2.880931e+02	1.026298e-01	-5.323885e-02	0.000000e+00	
-1.731144e+00	-1.203552e+00	1.224763e+00	4.277018e+01	5.394150e-08	2.539649e+05	1.012872e+05	2.880931e+02	1.026298e-01	-5.323891e-02	0.000000e+00	
-1.734651e+00	-1.158217e+00	1.224763e+00	4.277018e+01	-2.773767e-07	2.539649e+05	1.012872e+05	2.880931e+02	1.026298e-01	-5.323890e-02	0.000000e+00	
-1.793108e+00	-1.066236e+00	1.224763e+00	4.277018e+01	-6.687583e-07	2.539649e+05	1.012872e+05	2.880931e+02	1.026298e-01	-5.323887e-02	0.000000e+00	
-1.846185e+00	-1.035678e+00	1.224763e+00	4.277018e+01	-6.000992e-07	2.539649e+05	1.012872e+05	2.880931e+02	1.026298e-01	-5.323886e-02	0.000000e+00	
-1.899025e+00	-1.006433e+00	1.224763e+00	4.277018e+01	-4.543763e-07	2.539649e+05	1.012872e+05	2.880931e+02	1.026298e-01	-5.323884e-02	0.000000e+00	
-2.000000e+00	-1.011905e+00	1.224763e+00	4.277018e+01	-3.634998e-09	2.539649e+05	1.012872e+05	2.880931e+02	1.026298e-01	-5.323884e-02	0.000000e+00	
-1.739212e+00	-1.097073e+00	1.224763e+00	4.277018e+01	-6.599413e-07	2.539649e+05	1.012872e+05	2.880931e+02	1.026298e-01	-5.323890e-02	0.000000e+00	
-1.943558e+00	-9.801168e-01	1.224763e+00	4.277018e+01	-2.635569e-07	2.539649e+05	1.012872e+05	2.880931e+02	1.026298e-01	-5.323883e-02	0.000000e+00	
-1.679379e+00	-1.180956e+00	1.224763e+00	4.277018e+01	-9.466140e-08	2.539649e+05	1.012872e+05	2.880931e+02	1.026298e-01	-5.323892e-02	0.000000e+00	
-1.685839e+00	-1.129056e+00	1.224763e+00	4.277018e+01	-5.657947e-07	2.539649e+05	1.012872e+05	2.880931e+02	1.026298e-01	-5.323892e-02	0.000000e+00	
-1.740561e+00	-1.034368e+00	1.224763e+00	4.277018e+01	-1.067181e-06	2.539649e+05	1.012872e+05	2.880931e+02	1.026298e-01	-5.323888e-02	0.000000e+00	
-1.792944e+00	-1.003990e+00	1.224763e+00	4.277018e+01	-9.716894e-07	2.539649e+05	1.012872e+05	2.880931e+02	1.026298e-01	-5.323886e-02	0.000000e+00	
-1.845444e+00	-9.749924e-01	1.224763e+00	4.277018e+01	-8.078305e-07	2.539649e+05	1.012872e+05	2.880931e+02	1.026298e-01	-5.323884e-02	0.000000e+00	
-1.898581e+00	-9.488258e-01	1.224763e+00	4.277018e+01	-5.851283e-07	2.539649e+05	1.012872e+05	2.880931e+02	1.026298e-01	-5.323883e-02	0.000000e+00	
-2.000000e+00	-9.523810e-01	1.224763e+00	4.277018e+01	-2.491666e-09	2.539649e+05	1.012872e+05	2.880931e+02	1.026298e-01	-5.323882e-02	0.000000e+00	
-1.688318e+00	-1.065673e+00	1.224763e+00	4.277018e+01	-1.075064e-06	2.539649e+05	1.012872e+05	2.880931e+02	1.026298e-01	-5.323891e-02	0.000000e+00	
-1.950382e+00	-9.223557e-01	1.224763e+00	4.277018e+01	-3.083590e-07	2.539649e+05	1.012872e+05	2.880931e+02	1.026298e-01	-5.323882e-02	0.000000e+00	
-1.607855e+00	-1.185371e+00	1.224763e+00	4.277018e+01	-9.932855e-08	2.539649e+05	1.012872e+05	2.880931e+02	1.026298e-01	-5.323896e-02	0.000000e+00	
-1.639307e+00	-1.148507e+00	1.224763e+00	4.277018e+01	-4.559160e-07	2.539649e+05	1.012872e+05	2.880931e+02	1.026298e-01	-5.323893e-02	0.000000e+00	
-1.636716e+00	-1.097558e+00	1.224763e+00	4.277018e+01	-9.559241e-07	2.539649e+05	1.012872e+05	2.880931e+02	1.026298e-01	-5.323894e-02	0.000000e+00	
-1.689165e+00	-1.003589e+00	1.224763e+00	4.277018e+01	-1.548410e-06	2.539649e+05	1.012872e+05	2.880931e+02	1.026298e-01	-5.323889e-02	0.000000e+00	
-1.740723e+00	-9.729752e-01	1.224763e+00	4.277018e+01	-1.431305e-06	2.539649e+05	1.012872e+05	2.880931e+02	1.026298e-01	-5.323887e-02	0.000000e+00	
-1.792515e+00	-9.434304e-01	1.224763e+00	4.277018e+01	-1.243724e-06	2.539649e+05	1.012872e+05	2.880931e+02	1.026298e-01	-5.323884e-02	0.000000e+00	
-1.844767e+00	-9.153378e-01	1.224763e+00	4.277018e+01	-9.969402e-07	2.539649e+05	1.012872e+05	2.880931e+02	1.026298e-01	-5.323883e-02	0.000000e+00	
-1.897525e+00	-8.884422e-01	1.224763e+00	4.277018e+01	-6.981878e-07	2.539649e+05	1.012872e+05	2.880931e+02	1.026298e-01	-5.323881e-02	0.000000e+00	
-2.000000e+00	-8.928571e-01	1.224763e+00	4.277018e+01	1.561219e-08	2.539649e+05	1.012872e+05	2.880931e+02	1.026298e-01	-5.323881e-02	0.000000e+00	
-1.637687e+00	-1.035136e+00	1.224763e+00	4.277018e+01	-1.583414e-06	2.539649e+05	1.012872e+05	2.880931e+02	1.026298e-01	-5.323892e-02	0.000000e+00	
-1.951486e+00	-8.621834e-01	1.224763e+00	4.277018e+01	-3.551654e-07	2.539649e+05	1.012872e+05	2.880931e+02	1.026298e-01	-5.323880e-02	0.000000e+00	
-1.550264e+00	-1.185139e+00	1.224763e+00	4.277018e+01	-1.450308e-07	2.539649e+05	1.012872e+05	2.880931e+02	1.026298e-01	-5.323900e-02	0.000000e+00	
-1.582082e+00	-1.140771e+00	1.224763e+00	4.277018e+01	-7.160005e-07	2.539649e+05	1.012872e+05	2.880931e+02	1.026298e-01	-5.323897e-02	0.000000e+00	
-1.585659e+00	-1.068349e+00	1.224763e+00	4.277018e+01	-1.516005e-06	2.539649e+05	1.012872e+05	2.880931e+02	1.026298e-01	-5.323896e-02	0.000000e+00	
-1.638167e+00	-9.734470e-01	1.224763e+00	4.277018e+01	-2.131611e-06	2.539649e+05	1.012872e+05	2.880931e+02	1.026298e-01	-5.323890e-02	0.000000e+00	
-1.689207e+00	-9.427785e-01	1.224763e+00	4.277018e+01	-1.980834e-06	2.539649e+05	1.012872e+05	2.880931e+02	1.026298e-01	-5.323887e-02	0.000000e+00	
-1.740389e+00	-9.128364e-01	1.224763e+00	4.277018e+01	-1.759969e-06	2.539649e+05	1.012872e+05	2.880931e+02	1.026298e-01	-5.323884e-02	0.000000e+00	
-1.791943e+00	-8.838067e-01	1.224763e+00	4.277018e+01	-1.486822e-06	2.539649e+05	1.012872e+05	2.880931e+02	1.026298e-01	-5.323882e-02	0.000000e+00	
-1.844135e+00	-8.558208e-01	1.224763e+00	4.277018e+01	-1.166231e-06	2.539649e+05	1.012872e+05	2.880931e+02	1.026298e-01	-5.323880e-02	0.000000e+00	
-1.897320e+00	-8.288068e-01	1.224763e+00	4.277018e+01	-8.015306e-07	2.539649e+05	1.012872e+05	2.880931e+02	1.026298e-01	-5.323879e-02	0.000000e+00	
-2.000000e+00	-8.333333e-01	1.224763e+00	4.277018e+01	1.917360e-08	2.539649e+05	1.012872e+05	2.880931e+02	1.026298e-01	-5.323879e-02	0.000000e+00	
-1.587044e+00	-1.004740e+00	1.224763e+00	4.277018e+01	-2.210488e-06	2.539649e+05	1.012872e+05	2.880931e+02	1.026298e-01	-5.323894e-02	0.000000e+00	
-1.951700e+00	-8.025383e-01	1.224763e+00	4.277018e+01	-3.979476e-07	2.539649e+05	1.012872e+05	2.880931e+02	1.026298e-01	-5.323877e-02	0.000000e+00	
-1.482426e+00	-1.181198e+00	1.224763e+00	4.277018e+01	-1.404658e-07	2.539649e+05	1.012872e+05	2.880931e+02	1.026298e-01	-5.323904e-02	0.000000e+00	
-1.524589e+00	-1.149206e+00	1.224763e+00	4.277018e+01	-7.021377e-07	2.539649e+05	1.012872e+05	2.880931e+02	1.026298e-01	-5.323899e-02	0.000000e+00	
-1.533019e+00	-1.098254e+00	1.224763e+00	4.277018e+01	-1.364258e-06	2.539649e+05	1.012872e+05	2.880931e+02	1.026298e-01	-5.323901e-02	0.000000e+00	
-1.535784e+00	-1.035922e+00	1.224763e+00	4.277018e+01	-2.226219e-06	2.539649e+05	1.012872e+05	2.880931e+02	1.026298e-01	-5.323897e-02	0.000000e+00	
-1.638043e+00	-9.131350e-01	1.224763e+00	4.277018e+01	-2.623697e-06	2.539649e+05	1.012872e+05	2.880931e+02	1.026298e-01	-5.323888e-02	0.000000e+00	
-1.587311e+00	-9.436131e-01	1.224763e+00	4.277018e+01	-2.832526e-06	2.539649e+05	1.012872e+05	2.880931e+02	1.026298e-01	-5.323891e-02	0.000000e+00	
-1.688831e+00	-8.830544e-01	1.224763e+00	4.277018e+01	-2.358155e-06	2.539649e+05	1.012872e+05	2.880931e+02	1.026298e-01	-5.323885e-02	0.000000e+00	
-1.739847e+00	-8.535053e-01	1.224763e+00	4.277018e+01	-2.045418e-06	2.539649e+05	1.012872e+05	2.880931e+02	1.026298e-01	-5.323882e-02	0.000000e+00	
-1.791344e+00	-8.246529e-01	1.224763e+00	4.277018e+01	-1.692304e-06	2.539649e+05	1.012872e+05	2.880931e+02	1.026298e-01	-5.323880e-02	0.000000e+00	
-1.843662e+00	-7.966422e-01	1.224763e+00	4.277018e+01	-1.303198e-06	2.539649e+05	1.012872e+05	2.880931e+02	1.026298e-01	-5.323878e-02	0.000000e+00	
-1.897118e+00	-7.695048e-01	1.224763e+00	4.277018e+01	-8.810892e-07	2.539649e+05	1.012872e+05	2.880931e+02	1.026298e-01	-5.323876e-02	0.000000e+00	
-2.000000e+00	-7.738095e-01	1.224763e+00	4.277018e+01	2.351073e-08	2.539649e+05	1.012872e+05	2.880931e+02	1.026298e-01	-5.323876e-02	0.000000e+00	
-1.536563e+00	-9.743093e-01	1.224763e+00	4.277018e+01	-2.971872e-06	2.539649e+05	1.012872e+05	2.880931e+02	1.026298e-01	-5.323896e-02	0.000000e+00	
-1.951774e+00	-7.430524e-01	1.224763e+00	4.277018e+01	-4.316221e-07	2.539649e+05	1.012872e+05	2.880931e+02	1.026298e-01	-5.323875e-02	0.000000e+00	
-1.428477e+00	-1.207429e+00	1.224763e+00	4.277018e+01	3.421857e-07	2.539649e+05	1.012872e+05	2.880931e+02	1.026298e-01	-5.323909e-02	0.000000e+00	
-1.483039e+00	-1.130346e+00	1.224763e+00	4.277018e+01	-1.095024e-06	2.539649e+05	1.012872e+05	2.880931e+02	1.026298e-01	-5.323904e-02	0.000000e+00	
-1.485010e+00	-1.067181e+00	1.224763e+00	4.277018e+01	-2.117032e-06	2.539649e+05	1.012872e+05	2.880931e+02	1.026298e-01	-5.323903e-02	0.000000e+00	
-1.485902e+00	-1.005187e+00	1.224763e+00	4.277018e+01	-3.044236e-06	2.539649e+05	1.012872e+05	2.880931e+02	1.026298e-01	-5.323900e-02	0.000000e+00	
-1.587023e+00	-8.838189e-01	1.224763e+00	4.277018e+01	-3.374548e-06	2.539649e+05	1.012872e+05	2.880931e+02	1.026298e-01	-5.323888e-02	0.000000e+00	
-1.637592e+00	-8.537695e-01	1.224763e+00	4.277018e+01	-3.047214e-06	2.539649e+05	1.012872e+05	2.880931e+02	1.026298e-01	-5.323885e-02	0.000000e+00	
-1.536482e+00	-9.140522e-01	1.224763e+00	4.277018e+01	-3.657030e-06	2.539649e+05	1.012872e+05	2.880931e+02	1.026298e-01	-5.323892e-02	0.000000e+00	
-1.688274e+00	-8.239861e-01	1.224763e+00	4.277018e+01	-2.680845e-06	2.539649e+05	1.012872e+05	2.880931e+02	1.026298e-01	-5.323882e-02	0.000000e+00	
-1.739242e+00	-7.945913e-01	1.224763e+00	4.277018e+01	-2.283812e-06	2.539649e+05	1.012872e+05	2.880931e+02	1.026298e-01	-5.323879e-02	0.000000e+00	
-1.790775e+00	-7.657566e-01	1.224763e+00	4.277018e+01	-1.860647e-06	2.539649e+05	1.012872e+05	2.880931e+02	1.026298e-01	-5.323877e-02	0.000000e+00	
-1.843232e+00	-7.376524e-01	1.224763e+00	4.277018e+01	-1.412992e-06	2.539649e+05	1.012872e+05	2.880931e+02	1.026298e-01	-5.323875e-02	0.000000e+00	
-1.896909e+00	-7.103342e-01	1.224763e+00	4.277018e+01	-9.427823e-07	2.539649e+05	1.012872e+05	2.880931e+02	1.026298e-01	-5.323874e-02	0.000000e+00	
-2.000000e+00	-7.142857e-01	1.224763e+00	4.277018e+01	2.568182e-08	2.539649e+05	1.012872e+05	2.880931e+02	1.026298e-01	-5.323874e-02	0.000000e+00	
-1.436314e+00	-1.160707e+00	1.224763e+00	4.277018e+01	-5.741636e-07	2.539649e+05	1.012872e+05	2.880931e+02	1.026298e-01	-5.323909e-02	0.000000e+00	
-1.485963e+00	-9.444475e-01	1.224763e+00	4.277018e+01	-3.883656e-06	2.539649e+05	1.012872e+05	2.880931e+02	1.026298e-01	-5.323897e-02	0.000000e+00	
-1.951834e+00	-6.836189e-01	1.224763e+00	4.277018e+01	-4.555755e-07	2.539649e+05	1.012872e+05	2.880931e+02	1.026298e-01	-5.323872e-02	0.000000e+00	
-1.381401e+00	-1.203049e+00	1.224763e+00	4.277018e+01	2.223208e-07	2.539649e+05	1.012872e+05	2.880931e+02	1.026298e-01	-5.323914e-02	0.000000e+00	
-1.435164e+00	-1.099511e+00	1.224763e+00	4.277018e+01	-1.803997e-06	2.539649e+05	1.012872e+05	2.880931e+02	1.026298e-01	-5.323908e-02	0.000000e+00	
-1.435473e+00	-1.036658e+00	1.224763e+00	4.277018e+01	-2.988908e-06	2.539649e+05	1.012872e+05	2.880931e+02	1.026298e-01	-5.323906e-02	0.000000e+00	
-1.435492e+00	-9.751382e-01	1.224763e+00	4.277018e+01	-4.031573e-06	2.539649e+05	1.012872e+05	2.880931e+02	1.026298e-01	-5.323902e-02	0.000000e+00	
-1.586498e+00	-8.247520e-01	1.224763e+00	4.277018e+01	-3.835837e-06	2.539649e+05	1.012872e+05	2.880931e+02	1.026298e-01	-5.323885e-02	0.000000e+00	
-1.536036e+00	-8.547237e-01	1.224763e+00	4.277018e+01	-4.244769e-06	2.539649e+05	1.012872e+05	2.880931e+02	1.026298e-01	-5.323889e-02	0.000000e+00	
-1.637009e+00	-7.948977e-01	1.224763e+00	4.277018e+01	-3.398588e-06	2.539649e+05	1.012872e+05	2.880931e+02	1.026298e-01	-5.323882e-02	0.000000e+00	
-1.485590e+00	-8.847930e-01	1.224763e+00	4.277018e+01	-4.618664e-06	2.539649e+05	1.012872e+05	2.880931e+02	1.026298e-01	-5.323893e-02	0.000000e+00	
-1.687660e+00	-7.652266e-01	1.224763e+00	4.277018e+01	-2.941923e-06	2.539649e+05	1.012872e+05	2.880931e+02	1.026298e-01	-5.323879e-02	0.000000e+00	
-1.738635e+00	-7.358608e-01	1.224763e+00	4.277018e+01	-2.470485e-06	2.539649e+05	1.012872e+05	2.880931e+02	1.026298e-01	-5.323876e-02	0.000000e+00	
-1.790233e+00	-7.069758e-01	1.224763e+00	4.277018e+01	-1.986508e-06	2.539649e+05	1.012872e+05	2.880931e+02	1.026298e-01	-5.323874e-02	0.000000e+00	
-1.842826e+00	-6.787423e-01	1.224763e+00	4.277018e+01	-1.490544e-06	2.539649e+05	1.012872e+05	2.880931e+02	1.026298e-01	-5.323872e-02	0.000000e+00	
-1.896711e+00	-6.512112e-01	1.224763e+00	4.277018e+01	-9.830591e-07	2.539649e+05	1.012872e+05	2.880931e+02	1.026298e-01	-5.323871e-02	0.000000e+00	
-2.000000e+00	-6.547619e-01	1.224763e+00	4.277018e+01	2.730778e-08	2.539649e+05	1.012872e+05	2.880931e+02	1.026298e-01	-5.323871e-02	0.000000e+00	
-1.384569e+00	-1.135692e+00	1.224763e+00	4.277018e+01	-1.222822e-06	2.539649e+05	1.012872e+05	2.880931e+02	1.026298e-01	-5.323914e-02	0.000000e+00	
-1.435154e+00	-9.150004e-01	1.224763e+00	4.277018e+01	-4.947164e-06	2.539649e+05	1.012872e+05	2.880931e+02	1.026298e-01	-5.323899e-02	0.000000e+00	
-1.951901e+00	-6.242027e-01	1.224763e+00	4.277018e+01	-4.691970e-07	2.539649e+05	1.012872e+05	2.880931e+02	1.026298e-01	-5.323870e-02	0.000000e+00	
-1.333934e+00	-1.179953e+00	1.224763e+00	4.277019e+01	-5.073179e-07	2.539649e+05	1.012872e+05	2.880931e+02	1.026298e-01	-5.323923e-02	0.000000e+00	
-1.385051e+00	-1.069594e+00	1.224763e+00	4.277018e+01	-2.717927e-06	2.539649e+05	1.012872e+05	2.880931e+02	1.026298e-01	-5.323912e-02	0.000000e+00	
-1.385044e+00	-1.006427e+00	1.224763e+00	4.277018e+01	-4.048875e-06	2.539649e+05	1.012872e+05	2.880931e+02	1.026298e-01	-5.323909e-02	0.000000e+00	
-1.384722e+00	-9.454568e-01	1.224763e+00	4.277018e+01	-5.198471e-06	2.539649e+05	1.012872e+05	2.880931e+02	1.026298e-01	-5.323905e-02	0.000000e+00	
-1.585892e+00	-7.660163e-01	1.224763e+00	4.277018e+01	-4.207641e-06	2.539649e+05	1.012872e+05	2.880931e+02	1.026298e-01	-5.323881e-02	0.000000e+00	
-1.535455e+00	-7.958758e-01	1.224763e+00	4.277018e+01	-4.734246e-06	2.539649e+05	1.012872e+05	2.880931e+02	1.026298e-01	-5.323885e-02	0.000000e+00	
-1.485037e+00	-8.257859e-01	1.224763e+00	4.277018e+01	-5.246351e-06	2.539649e+05	1.012872e+05	2.880931e+02	1.026298e-01	-5.323889e-02	0.000000e+00	
-1.636386e+00	-7.362313e-01	1.224763e+00	4.277018e+01	-3.673850e-06	2.539649e+05	1.012872e+05	2.880931e+02	1.026298e-01	-5.323878e-02	0.000000e+00	
-1.434624e+00	-8.557541e-01	1.224763e+00	4.277018e+01	-5.735061e-06	2.539649e+05	1.012872e+05	2.880931e+02	1.026298e-01	-5.323894e-02	0.000000e+00	
-1.687037e+00	-7.065855e-01	1.224763e+00	4.277018e+01	-3.138083e-06	2.539649e+05	1.012872e+05	2.880931e+02	1.026298e-01	-5.323875e-02	0.000000e+00	
-1.738039e+00	-6.771988e-01	1.224763e+00	4.277018e+01	-2.603152e-06	2.539649e+05	1.012872e+05	2.880931e+02	1.026298e-01	-5.323873e-02	0.000000e+00	
-1.789710e+00	-6.482388e-01	1.224763e+00	4.277018e+01	-2.069236e-06	2.539649e+05	1.012872e+05	2.880931e+02	1.026298e-01	-5.323871e-02	0.000000e+00	
-1.842437e+00	-6.198613e-01	1.224763e+00	4.277017e+01	-1.535499e-06	2.539649e+05	1.012872e+05	2.880931e+02	1.026298e-01	-5.323870e-02	0.000000e+00	
-1.896524e+00	-5.921043e-01	1.224763e+00	4.277017e+01	-1.001517e-06	2.539649e+05	1.012872e+05	2.880931e+02	1.026298e-01	-5.323868e-02	0.000000e+00	
-2.000000e+00	-5.952381e-01	1.224763e+00	4.277017e+01	2.859308e-08	2.539649e+05	1.012872e+05	2.880931e+02	1.026298e-01	-5.323868e-02	0.000000e+00	
-1.285603e+00	-1.202634e+00	1.224763e+00	4.277019e+01	5.113533e-08	2.539649e+05	1.012872e+05	2.880931e+02	1.026298e-01	-5.323925e-02	0.000000e+00	
-1.334509e+00	-1.104381e+00	1.224763e+00	4.277018e+01	-2.316427e-06	2.539649e+05	1.012872e+05	2.880931e+02	1.026298e-01	-5.323919e-02	0.000000e+00	
-1.384211e+00	-8.858197e-01	1.224763e+00	4.277018e+01	-6.188260e-06	2.539649e+05	1.012872e+05	2.880931e+02	1.026298e-01	-5.323900e-02	0.000000e+00	
-1.951978e+00	-5.647922e-01	1.224763e+00	4.277017e+01	-4.720617e-07	2.539649e+05	1.012872e+05	2.880931e+02	1.026298e-01	-5.323867e-02	0.000000e+00	
-1.284178e+00	-1.135987e+00	1.224763e+00	4.277019e+01	-1.790061e-06	2.539649e+05	1.012872e+05	2.880931e+02	1.026298e-01	-5.323928e-02	0.000000e+00	
-1.334573e+00	-1.038434e+00	1.224763e+00	4.277018e+01	-3.905111e-06	2.539649e+05	1.012872e+05	2.880931e+02	1.026298e-01	-5.323916e-02	0.000000e+00	
-1.334286e+00	-9.762514e-01	1.224763e+00	4.277018e+01	-5.344874e-06	2.539649e+05	1.012872e+05	2.880931e+02	1.026298e-01	-5.323912e-02	0.000000e+00	
-1.333796e+00	-9.160353e-01	1.224763e+00	4.277018e+01	-6.575858e-06	2.539649e+05	1.012872e+05	2.880931e+02	1.026298e-01	-5.323907e-02	0.000000e+00	
-1.585263e+00	-7.074028e-01	1.224763e+00	4.277018e+01	-4.485535e-06	2.539649e+05	1.012872e+05	2.880931e+02	1.026298e-01	-5.323877e-02	0.000000e+00	
-1.534833e+00	-7.372253e-01	1.224763e+00	4.277018e+01	-5.115614e-06	2.539649e+05	1.012872e+05	2.880931e+02	1.026298e-01	-5.323880e-02	0.000000e+00	
-1.484423e+00	-7.670749e-01	1.224763e+00	4.277018e+01	-5.752474e-06	2.539649e+05	1.012872e+05	2.880931e+02	1.026298e-01	-5.323884e-02	0.000000e+00	
-1.434019e+00	-7.969472e-01	1.224763e+00	4.277018e+01	-6.389882e-06	2.539649e+05	1.012872e+05	2.880931e+02	1.026298e-01	-5.323889e-02	0.000000e+00	
-1.635756e+00	-6.776342e-01	1.224763e+00	4.277018e+01	-3.867742e-06	2.539649e+05	1.012872e+05	2.880931e+02	1.026298e-01	-5.323874e-02	0.000000e+00	
-1.383615e+00	-8.268533e-01	1.224763e+00	4.277018e+01	-7.018178e-06	2.539649e+05	1.012872e+05	2.880931e+02	1.026298e-01	-5.323895e-02	0.000000e+00	
-1.686417e+00	-6.479821e-01	1.224763e+00	4.277018e+01	-3.265273e-06	2.539649e+05	1.012872e+05	2.880931e+02	1.026298e-01	-5.323872e-02	0.000000e+00	
-1.737454e+00	-6.185590e-01	1.224763e+00	4.277018e+01	-2.678551e-06	2.539649e+05	1.012872e+05	2.880931e+02	1.026298e-01	-5.323870e-02	0.000000e+00	
-1.789199e+00	-5.895163e-01	1.224763e+00	4.277017e+01	-2.106290e-06	2.539649e+05	1.012872e+05	2.880931e+02	1.026298e-01	-5.323868e-02	0.000000e+00	
-1.842058e+00	-5.609896e-01	1.224763e+00	4.277017e+01	-1.546406e-06	2.539649e+05	1.012872e+05	2.880931e+02	1.026298e-01	-5.323867e-02	0.000000e+00	
-1.896346e+00	-5.330022e-01	1.224763e+00	4.277017e+01	-9.975941e-07	2.539649e+05	1.012872e+05	2.880931e+02	1.026298e-01	-5.323865e-02	0.000000e+00	
-2.000000e+00	-5.357143e-01	1.224763e+00	4.277017e+01	2.940900e-08	2.539649e+05	1.012872e+05	2.880931e+02	1.026298e-01	-5.323865e-02	0.000000e+00	
-1.232677e+00	-1.161484e+00	1.224763e+00	4.277019e+01	-1.251528e-06	2.539649e+05	1.012872e+05	2.880931e+02	1.026298e-01	-5.323934e-02	0.000000e+00	
-1.238042e+00	-1.207625e+00	1.224763e+00	4.277019e+01	5.049423e-07	2.539649e+05	1.012872e+05	2.880931e+02	1.026298e-01	-5.323937e-02	0.000000e+00	
-1.284181e+00	-1.070156e+00	1.224763e+00	4.277019e+01	-3.672433e-06	2.539649e+05	1.012872e+05	2.880931e+02	1.026298e-01	-5.323923e-02	0.000000e+00	
-1.333210e+00	-8.568167e-01	1.224763e+00	4.277018e+01	-7.624626e-06	2.539649e+05	1.012872e+05	2.880931e+02	1.026298e-01	-5.323901e-02	0.000000e+00	
-1.952062e+00	-5.053835e-01	1.224763e+00	4.277017e+01	-4.642873e-07	2.539649e+05	1.012872e+05	2.880931e+02	1.026298e-01	-5.323864e-02	0.000000e+00	
-1.234074e+00	-1.100366e+00	1.224763e+00	4.277019e+01	-3.262319e-06	2.539649e+05	1.012872e+05	2.880931e+02	1.026298e-01	-5.323934e-02	0.000000e+00	
-1.283894e+00	-1.007220e+00	1.224763e+00	4.277019e+01	-5.354793e-06	2.539649e+05	1.012872e+05	2.880931e+02	1.026298e-01	-5.323921e-02	0.000000e+00	
-1.283398e+00	-9.464113e-01	1.224763e+00	4.277018e+01	-6.879599e-06	2.539649e+05	1.012872e+05	2.880931e+02	1.026298e-01	-5.323915e-02	0.000000e+00	
-1.282810e+00	-8.868629e-01	1.224763e+00	4.277018e+01	-8.184906e-06	2.539649e+05	1.012872e+05	2.880931e+02	1.026298e-01	-5.323909e-02	0.000000e+00	
-1.534200e+00	-6.786397e-01	1.224763e+00	4.277018e+01	-5.383176e-06	2.539649e+05	1.012872e+05	2.880931e+02	1.026298e-01	-5.323876e-02	0.000000e+00	
-1.584629e+00	-6.488259e-01	1.224763e+00	4.277018e+01	-4.664650e-06	2.539649e+05	1.012872e+05	2.880931e+02	1.026298e-01	-5.323873e-02	0.000000e+00	
-1.483792e+00	-7.084714e-01	1.224763e+00	4.277018e+01	-6.130079e-06	2.539649e+05	1.012872e+05	2.880931e+02	1.026298e-01	-5.323879e-02	0.000000e+00	
-1.433390e+00	-7.383124e-01	1.224763e+00	4.277018e+01	-6.900339e-06	2.539649e+05	1.012872e+05	2.880931e+02	1.026298e-01	-5.323884e-02	0.000000e+00	
-1.382989e+00	-7.681640e-01	1.224763e+00	4.277018e+01	-7.688294e-06	2.539649e+05	1.012872e+05	2.880931e+02	1.026298e-01	-5.323889e-02	0.000000e+00	
-1.635126e+00	-6.190563e-01	1.224763e+00	4.277018e+01	-3.977153e-06	2.539649e+05	1.012872e+05	2.880931e+02	1.026298e-01	-5.323870e-02	0.000000e+00	
-1.332588e+00	-7.980338e-01	1.224763e+00	4.277018e+01	-8.484614e-06	2.539649e+05	1.012872e+05	2.880931e+02	1.026298e-01	-5.323895e-02	0.000000e+00	
-1.685802e+00	-5.893892e-01	1.224763e+00	4.277017e+01	-3.321216e-06	2.539649e+05	1.012872e+05	2.880931e+02	1.026298e-01	-5.323868e-02	0.000000e+00	
-1.736874e+00	-5.599255e-01	1.224763e+00	4.277017e+01	-2.695507e-06	2.539649e+05	1.012872e+05	2.880931e+02	1.026298e-01	-5.323866e-02	0.000000e+00	
-1.788694e+00	-5.307981e-01	1.224763e+00	4.277017e+01	-2.097251e-06	2.539649e+05	1.012872e+05	2.880931e+02	1.026298e-01	-5.323865e-02	0.000000e+00	
-1.841686e+00	-5.021205e-01	1.224763e+00	4.277017e+01	-1.523277e-06	2.539649e+05	1.012872e+05	2.880931e+02	1.026298e-01	-5.323864e-02	0.000000e+00	
-1.896174e+00	-4.739013e-01	1.224763e+00	4.277017e+01	-9.715621e-07	2.539649e+05	1.012872e+05	2.880931e+02	1.026298e-01	-5.323862e-02	0.000000e+00	
-2.000000e+00	-4.761905e-01	1.224763e+00	4.277017e+01	2.966262e-08	2.539649e+05	1.012872e+05	2.880931e+02	1.026298e-01	-5.323863e-02	0.000000e+00	
-1.185708e+00	-1.130828e+00	1.224763e+00	4.277019e+01	-2.611843e-06	2.539649e+05	1.012872e+05	2.880931e+02	1.026298e-01	-5.323943e-02	0.000000e+00	
-1.184765e+00	-1.185808e+00	1.224763e+00	4.277019e+01	-2.077390e-07	2.539649e+05	1.012872e+05	2.880931e+02	1.026299e-01	-5.323947e-02	0.000000e+00	
-1.233724e+00	-1.038016e+00	1.224763e+00	4.277019e+01	-5.256627e-06	2.539649e+05	1.012872e+05	2.880931e+02	1.026298e-01	-5.323929e-02	0.000000e+00	
-1.282188e+00	-8.279355e-01	1.224763e+00	4.277018e+01	-9.276035e-06	2.539649e+05	1.012872e+05	2.880931e+02	1.026298e-01	-5.323902e-02	0.000000e+00	
-1.952152e+00	-4.459755e-01	1.224763e+00	4.277017e+01	-4.461583e-07	2.539649e+05	1.012872e+05	2.880931e+02	1.026298e-01	-5.323861e-02	0.000000e+00	
-1.184242e+00	-1.068796e+00	1.224763e+00	4.277019e+01	-4.956897e-06	2.539649e+05	1.012872e+05	2.880931e+02	1.026298e-01	-5.323941e-02	0.000000e+00	
-1.233095e+00	-9.769027e-01	1.224763e+00	4.277019e+01	-7.075592e-06	2.539649e+05	1.012872e+05	2.880931e+02	1.026298e-01	-5.323924e-02	0.000000e+00	
-1.232442e+00	-9.170133e-01	1.224763e+00	4.277018e+01	-8.677180e-06	2.539649e+05	1.012872e+05	2.880931e+02	1.026298e-01	-5.323918e-02	0.000000e+00	
-1.231797e+00	-8.578882e-01	1.224763e+00	4.277018e+01	-1.004547e-05	2.539649e+05	1.012872e+05	2.880931e+02	1.026298e-01	-5.323911e-02	0.000000e+00	
-1.533565e+00	-6.200713e-01	1.224763e+00	4.277018e+01	-5.532488e-06	2.539649e+05	1.012872e+05	2.880931e+02	1.026298e-01	-5.323871e-02	0.000000e+00	
-1.483157e+00	-6.498991e-01	1.224763e+00	4.277018e+01	-6.371706e-06	2.539649e+05	1.012872e+05	2.880931e+02	1.026298e-01	-5.323874e-02	0.000000e+00	
-1.583995e+00	-5.902579e-01	1.224763e+00	4.277017e+01	-4.741788e-06	2.539649e+05	1.012872e+05	2.880931e+02	1.026298e-01	-5.323868e-02	0.000000e+00	
-1.432756e+00	-6.797320e-01	1.224763e+00	4.277018e+01	-7.257581e-06	2.539649e+05	1.012872e+05	2.880931e+02	1.026298e-01	-5.323878e-02	0.000000e+00	
-1.382356e+00	-7.095681e-01	1.224763e+00	4.277018e+01	-8.186241e-06	2.539649e+05	1.012872e+05	2.880931e+02	1.026298e-01	-5.323882e-02	0.000000e+00	
-1.331956e+00	-7.394092e-01	1.224763e+00	4.277018e+01	-9.152485e-06	2.539649e+05	1.012872e+05	2.880931e+02	1.026298e-01	-5.323888e-02	0.000000e+00	
-1.634498e+00	-5.604830e-01	1.224763e+00	4.277017e+01	-3.999741e-06	2.539649e+05	1.012872e+05	2.880931e+02	1.026298e-01	-5.323866e-02	0.000000e+00	
-1.281556e+00	-7.692600e-01	1.224763e+00	4.277018e+01	-1.014847e-05	2.539649e+05	1.012872e+05	2.880931e+02	1.026298e-01	-5.323895e-02	0.000000e+00	
-1.685188e+00	-5.307987e-01	1.224763e+00	4.277017e+01	-3.304681e-06	2.539649e+05	1.012872e+05	2.880931e+02	1.026298e-01	-5.323864e-02	0.000000e+00	
-1.736298e+00	-5.012935e-01	1.224763e+00	4.277017e+01	-2.653567e-06	2.539649e+05	1.012872e+05	2.880931e+02	1.026298e-01	-5.323863e-02	0.000000e+00	
-1.788193e+00	-4.720809e-01	1.224763e+00	4.277017e+01	-2.042303e-06	2.539649e+05	1.012872e+05	2.880931e+02	1.026298e-01	-5.323862e-02	0.000000e+00	
-1.841317e+00	-4.432518e-01	1.224763e+00	4.277017e+01	-1.466691e-06	2.539649e+05	1.012872e+05	2.880931e+02	1.026298e-01	-5.323861e-02	0.000000e+00	
-1.896007e+00	-4.148005e-01	1.224763e+00	4.277017e+01	-9.240938e-07	2.539649e+05	1.012872e+05	2.880931e+02	1.026298e-01	-5.323860e-02	0.000000e+00	
-2.000000e+00	-4.166667e-01	1.224763e+00	4.277017e+01	2.926949e-08	2.539649e+05	1.012872e+05	2.880931e+02	1.026298e-01	-5.323860e-02	0.000000e+00	
-1.143479e+00	-1.149926e+00	1.224763e+00	4.277019e+01	-1.976999e-06	2.539649e+05	1.012872e+05	2.880931e+02	1.026299e-01	-5.323949e-02	0.000000e+00	
-1.136036e+00	-1.099969e+00	1.224763e+00	4.277019e+01	-4.228456e-06	2.539649e+05	1.012872e+05	2.880931e+02	1.026299e-01	-5.323954e-02	0.000000e+00	
-1.116564e+00	-1.191314e+00	1.224763e+00	4.277019e+01	-1.170081e-07	2.539649e+05	1.012872e+05	2.880931e+02	1.026299e-01	-5.323960e-02	0.000000e+00	
-1.183052e+00	-1.007558e+00	1.224763e+00	4.277019e+01	-7.132404e-06	2.539649e+05	1.012872e+05	2.880931e+02	1.026298e-01	-5.323935e-02	0.000000e+00	
-1.231159e+00	-7.991290e-01	1.224763e+00	4.277018e+01	-1.116091e-05	2.539649e+05	1.012872e+05	2.880931e+02	1.026298e-01	-5.323902e-02	0.000000e+00	
-1.952249e+00	-3.865677e-01	1.224763e+00	4.277017e+01	-4.181884e-07	2.539649e+05	1.012872e+05	2.880931e+02	1.026298e-01	-5.323859e-02	0.000000e+00	
-1.133422e+00	-1.038685e+00	1.224763e+00	4.277019e+01	-6.994415e-06	2.539649e+05	1.012872e+05	2.880931e+02	1.026299e-01	-5.323946e-02	0.000000e+00	
-1.182166e+00	-9.473104e-01	1.224763e+00	4.277019e+01	-9.087950e-06	2.539649e+05	1.012872e+05	2.880931e+02	1.026298e-01	-5.323928e-02	0.000000e+00	
-1.181435e+00	-8.879214e-01	1.224763e+00	4.277019e+01	-1.076861e-05	2.539649e+05	1.012872e+05	2.880931e+02	1.026298e-01	-5.323921e-02	0.000000e+00	
-1.180769e+00	-8.290307e-01	1.224763e+00	4.277018e+01	-1.217781e-05	2.539649e+05	1.012872e+05	2.880931e+02	1.026298e-01	-5.323912e-02	0.000000e+00	
-1.482521e+00	-5.913341e-01	1.224763e+00	4.277017e+01	-6.473870e-06	2.539649e+05	1.012872e+05	2.880931e+02	1.026298e-01	-5.323869e-02	0.000000e+00	
-1.532929e+00	-5.615067e-01	1.224763e+00	4.277017e+01	-5.561073e-06	2.539649e+05	1.012872e+05	2.880931e+02	1.026298e-01	-5.323866e-02	0.000000e+00	
-1.432120e+00	-6.211654e-01	1.224763e+00	4.277018e+01	-7.455066e-06	2.539649e+05	1.012872e+05	2.880931e+02	1.026298e-01	-5.323872e-02	0.000000e+00	
-1.583362e+00	-5.316917e-01	1.224763e+00	4.277017e+01	-4.715728e-06	2.539649e+05	1.012872e+05	2.880931e+02	1.026298e-01	-5.323864e-02	0.000000e+00	
-1.381720e+00	-6.509980e-01	1.224763e+00	4.277018e+01	-8.504013e-06	2.539649e+05	1.012872e+05	2.880931e+02	1.026298e-01	-5.323876e-02	0.000000e+00	
-1.331321e+00	-6.808319e-01	1.224763e+00	4.277018e+01	-9.618357e-06	2.539649e+05	1.012872e+05	2.880931e+02	1.026298e-01	-5.323881e-02	0.000000e+00	
-1.280921e+00	-7.106681e-01	1.224763e+00	4.277018e+01	-1.079357e-05	2.539649e+05	1.012872e+05	2.880931e+02	1.026298e-01	-5.323886e-02	0.000000e+00	
-1.633870e+00	-5.019105e-01	1.224763e+00	4.277017e+01	-3.935351e-06	2.539649e+05	1.012872e+05	2.880931e+02	1.026298e-01	-5.323862e-02	0.000000e+00	
-1.230522e+00	-7.405094e-01	1.224763e+00	4.277018e+01	-1.202340e-05	2.539649e+05	1.012872e+05	2.880931e+02	1.026298e-01	-5.323894e-02	0.000000e+00	
-1.684576e+00	-4.722088e-01	1.224763e+00	4.277017e+01	-3.216296e-06	2.539649e+05	1.012872e+05	2.880931e+02	1.026298e-01	-5.323861e-02	0.000000e+00	