VARIABLES = "x"
 "y"
 "Density"
 "Momentum_x"
 "Momentum_y"
 "Energy"
 "Pressure"
 "Temperature"
 "Mach"
 "C<sub>p</sub>"
 "Roe_Dissipation"
ZONE
DT=(DOUBLE,DOUBLE,DOUBLE,DOUBLE,DOUBLE,DOUBLE,DOUBLE,DOUBLE,DOUBLE,DOUBLE,DOUBLE)
                     -2                       0        1.22629904747009        37.3838806152344    1.55850393639407E-05            254232.40625                  101465        288.237487792969      0.0895703136920929       0.197428300976753                       0 
      -1.99749874937469                       0        1.22629904747009        37.3838825620601     5.1503065224665E-06            254232.40625                  101465        288.237487792969      0.0895703176561863       0.197428565067742                       0 
      -1.99499749874937                       0        1.22629904747009        37.3838845088858   -5.28442631901447E-06            254232.40625                  101465        288.237487792969      0.0895703216202797        0.19742882915873                       0 
      -1.99249624812406                       0        1.22629904747009        37.3838864557115   -1.57191591604945E-05            254232.40625                  101465        288.237487792969      0.0895703255843731       0.197429093249718                       0 
      -1.98999499749875                       0        1.22629904747009        37.3838884025372   -2.61538920019746E-05            254232.40625                  101465        288.237487792969      0.0895703295484665       0.197429357340707                       0 
      -1.98749374687344                       0        1.22629904747009        37.3838903493628   -3.65886248434546E-05            254232.40625                  101465        288.237487792969      0.0895703335125599       0.197429621431695                       0 
      -1.98499249624812                       0        1.22629904747009        37.3838922961885   -4.70233576849356E-05            254232.40625                  101465        288.237487792969      0.0895703374766533       0.197429885522683                       0 
      -1.98249124562281                       0        1.22629904747009        37.3838942430142   -5.74580905264156E-05            254232.40625                  101465        288.237487792969      0.0895703414407467       0.197430149613672                       0 
       -1.9799899949975                       0        1.22629904747009        37.3838961898399   -6.78928233678957E-05            254232.40625                  101465        288.237487792969      0.0895703454048401        0.19743041370466                       0 
      -1.97748874437219                       0        1.22629904747009        37.3838981366656   -7.83275562093766E-05            254232.40625                  101465        288.237487792969      0.0895703493689335       0.197430677795648                       0 
      -1.97498749374687                       0        1.22629904747009        37.3839000834913   -8.87622890508567E-05            254232.40625                  101465        288.237487792969      0.0895703533330269       0.197430941886637                       0 
      -1.97248624312156                       0        1.22629904747009         37.383902030317   -9.91970218923367E-05            254232.40625                  101465        288.237487792969      0.0895703572971203       0.197431205977625                       0 
      -1.96998499249625                       0        1.22629904747009        37.3839039771427   -0.000109631754733818            254232.40625                  101465        288.237487792969      0.0895703612612137       0.197431470068613                       0 
      -1.96748374187094                       0        1.22629904747009        37.3839059239684   -0.000120066487575298            254232.40625                  101465        288.237487792969      0.0895703652253071       0.197431734159602                       0 
      -1.96498249124562                       0        1.22629904747009        37.3839078707941   -0.000130501220416778            254232.40625                  101465        288.237487792969      0.0895703691894005        0.19743199825059                       0 
      -1.96248124062031                       0        1.22629904747009        37.3839098176198   -0.000140935953258258            254232.40625                  101465        288.237487792969      0.0895703731534939       0.197432262341578                       0 
        -1.959979989995                       0        1.22629904747009        37.3839117644455   -0.000151370686099739            254232.40625                  101465        288.237487792969      0.0895703771175873       0.197432526432566                       0 
      -1.95747873936968                       0        1.22629904747009        37.3839137112712   -0.000161805418941219            254232.40625                  101465        288.237487792969      0.0895703810816807       0.197432790523555                       0 
      -1.95497748874437                       0        1.22629904747009        37.3839156580969   -0.000172240151782699            254232.40625                  101465        288.237487792969      0.0895703850457741       0.197433054614543                       0 
      -1.95247623811906                       0        1.22629904747009        37.3839195382025   -0.000182382340387181            254232.40625                  101465        288.237487792969      0.0895703938641395       0.197433263758613                       0 
      -1.94997498749375                       0        1.22629904747009        37.3839306056654   -0.000191436936904314            254232.40625                  101465        288.237487792969      0.0895704207292383       0.197433268626456                       0 
      -1.94747373686843                       0        1.22629904747009        37.3839416731282   -0.000200491533421447            254232.40625                  101465        288.237487792969      0.0895704475943369       0.197433273494298                       0 
      -1.94497248624312                       0        1.22629904747009        37.3839527405911    -0.00020954612993858            254232.40625                  101465        288.237487792969      0.0895704744594356        0.19743327836214                       0 
      -1.94247123561781                       0        1.22629904747009         37.383963808054   -0.000218600726455713            254232.40625                  101465        288.237487792969      0.0895705013245343       0.197433283229982                       0 
       -1.9399699849925                       0        1.22629904747009        37.3839748755169   -0.000227655322972845            254232.40625                  101465        288.237487792969       0.089570528189633       0.197433288097824                       0 
      -1.93746873436718                       0        1.22629904747009        37.3839859429797   -0.000236709919489978            254232.40625                  101465        288.237487792969      0.0895705550547317       0.197433292965666                       0 
      -1.93496748374187                       0        1.22629904747009        37.3839970104426   -0.000245764516007112            254232.40625                  101465        288.237487792969      0.0895705819198304       0.197433297833509                       0 
      -1.93246623311656                       0        1.22629904747009        37.3840080779055   -0.000254819112524244            254232.40625                  101465        288.237487792969      0.0895706087849291       0.197433302701351                       0 
      -1.92996498249125                       0        1.22629904747009        37.3840191453684   -0.000263873709041377            254232.40625                  101465        288.237487792969      0.0895706356500278       0.197433307569193                       0 
      -1.92746373186593                       0        1.22629904747009        37.3840302128313    -0.00027292830555851            254232.40625                  101465        288.237487792969      0.0895706625151265       0.197433312437035                       0 
      -1.92496248124062                       0        1.22629904747009        37.3840412802941   -0.000281982902075643            254232.40625                  101465        288.237487792969      0.0895706893802252       0.197433317304877                       0 
      -1.92246123061531                       0        1.22629904747009         37.384052347757   -0.000291037498592775            254232.40625                  101465        288.237487792969      0.0895707162453239       0.197433322172719                       0 
      -1.91995997998999                       0        1.22629904747009        37.3840634152199   -0.000300092095109909            254232.40625                  101465        288.237487792969      0.0895707431104225       0.197433327040562                       0 
      -1.91745872936468                       0        1.22629904747009        37.3840744826828   -0.000309146691627042            254232.40625                  101465        288.237487792969      0.0895707699755212       0.197433331908404                       0 
      -1.91495747873937                       0        1.22629904747009        37.3840855501457   -0.000318201288144174            254232.40625                  101465        288.237487792969      0.0895707968406199       0.197433336776246                       0 
      -1.91245622811406                       0        1.22629904747009        37.3840966176086   -0.000327255884661307            254232.40625                  101465        288.237487792969      0.0895708237057186       0.197433341644088                       0 
      -1.90995497748874                       0        1.22629904747009        37.3841076850714    -0.00033631048117844            254232.40625                  101465        288.237487792969      0.0895708505708173        0.19743334651193                       0 
      -1.90745372686343                       0        1.22629904747009        37.3841187525343   -0.000345365077695573            254232.40625                  101465        288.237487792969       0.089570877435916       0.197433351379772                       0 
      -1.90495247623812                       0        1.22629904747009        37.3841298199972   -0.000354419674212705            254232.40625                  101465        288.237487792969      0.0895709043010147       0.197433356247615                       0 
      -1.90245122561281                       0        1.22629904747009        37.3841408874601   -0.000363474270729839            254232.40625                  101465        288.237487792969      0.0895709311661134       0.197433361115457                       0 
      -1.89994997498749                       0        1.22629904747009         37.384151954923   -0.000372528867246971            254232.40625                  101465        288.237487792969      0.0895709580312121       0.197433365983299                       0 
      -1.89744872436218                       0        1.22629904747009        37.3841630223858   -0.000381583463764104            254232.40625                  101465        288.237487792969      0.0895709848963108       0.197433370851141                       0 
      -1.89494747373687                       0        1.22629904747009        37.3841724385362   -0.000393936808359369            254232.40625                  101465        288.237487792969      0.0895710074238669       0.197433455278175                       0 
      -1.89244622311156                       0        1.22629904747009        37.3841918544776   -0.000407036511528336            254232.40625                  101465        288.237487792969      0.0895710541165829       0.197432788060587                       0 
      -1.88994497248624                       0        1.22629904747009        37.3842098724788   -0.000416537740387839            254232.40625                  101465        288.237487792969      0.0895710968757241       0.197432186611721                       0 
      -1.88744372186093                       0        1.22629904747009          37.38422789048   -0.000426038969247341            254232.40625                  101465        288.237487792969      0.0895711396348654       0.197431585162855                       0 
      -1.88494247123562                       0        1.22629904747009        37.3842459084812   -0.000435540198106843            254232.40625                  101465        288.237487792969      0.0895711823940066       0.197430983713989                       0 
      -1.88244122061031                       0        1.22629904747009        37.3842639264823   -0.000445041426966346            254232.40625                  101465        288.237487792969      0.0895712251531478       0.197430382265123                       0 
      -1.87993996998499                       0        1.22629904747009        37.3842819444835   -0.000454542655825848            254232.40625                  101465        288.237487792969      0.0895712679122891       0.197429780816258                       0 
      -1.87743871935968                       0        1.22629904747009        37.3842999624847   -0.000464043884685351            254232.40625                  101465        288.237487792969      0.0895713106714303       0.197429179367392                       0 
      -1.87493746873437                       0        1.22629904747009        37.3843179804859   -0.000473545113544853            254232.40625                  101465        288.237487792969      0.0895713534305715       0.197428577918526                       0 
      -1.87243621810905                       0        1.22629904747009        37.3843359984871   -0.000483046342404355            254232.40625                  101465        288.237487792969      0.0895713961897128        0.19742797646966                       0 
      -1.86993496748374                       0        1.22629904747009        37.3843540164883   -0.000492547571263857            254232.40625                  101465        288.237487792969       0.089571438948854       0.197427375020794                       0 
      -1.86743371685843                       0        1.22629904747009        37.3843720344895    -0.00050204880012336            254232.40625                  101465        288.237487792969      0.0895714817079952       0.197426773571928                       0 
      -1.86493246623312                       0        1.22629904747009        37.3843900524907   -0.000511550028982862            254232.40625                  101465        288.237487792969      0.0895715244671365       0.197426172123062                       0 
       -1.8624312156078                       0        1.22629904747009        37.3844080704918   -0.000521051257842364            254232.40625                  101465        288.237487792969      0.0895715672262777       0.197425570674196                       0 
      -1.85992996498249                       0        1.22629904747009         37.384426088493   -0.000530552486701867            254232.40625                  101465        288.237487792969      0.0895716099854189        0.19742496922533                       0 
      -1.85742871435718                       0        1.22629904747009        37.3844441064942   -0.000540053715561369            254232.40625                  101465        288.237487792969      0.0895716527445602       0.197424367776464                       0 
      -1.85492746373187                       0        1.22629904747009        37.3844621244954   -0.000549554944420871            254232.40625                  101465        288.237487792969      0.0895716955037014       0.197423766327599                       0 
      -1.85242621310655                       0        1.22629904747009        37.3844801424966   -0.000559056173280374            254232.40625                  101465        288.237487792969      0.0895717382628426       0.197423164878733                       0 
      -1.84992496248124                       0        1.22629904747009        37.3844981604978   -0.000568557402139876            254232.40625                  101465        288.237487792969      0.0895717810219838       0.197422563429867                       0 
      -1.84742371185593                       0        1.22629904747009         37.384516178499   -0.000578058630999378            254232.40625                  101465        288.237487792969      0.0895718237811251       0.197421961981001                       0 
      -1.84492246123062                       0        1.22629904747009        37.3845341965001    -0.00058755985985888            254232.40625                  101465        288.237487792969      0.0895718665402663       0.197421360532135                       0 
       -1.8424212106053                       0        1.22629904747009        37.3845522145013   -0.000597061088718383            254232.40625                  101465        288.237487792969      0.0895719092994075       0.197420759083269                       0 
      -1.83991995997999                       0        1.22629904747009        37.3845702325025   -0.000606562317577885            254232.40625                  101465        288.237487792969      0.0895719520585488       0.197420157634403                       0 
      -1.83741870935468                       0        1.22629902383266         37.384592843763   -0.000616353855183291            254232.40625                  101465        288.237487792969      0.0895720062158526       0.197419444468172                       0 
      -1.83491745872936                       0        1.22629897450189        37.3846204477877   -0.000626460951519177            254232.40625                  101465        288.237487792969      0.0895720727626891       0.197418609867812                       0 
      -1.83241620810405                       0        1.22629892517112        37.3846480518124   -0.000636568047855063            254232.40625                  101465        288.237487792969      0.0895721393095257       0.197417775267452                       0 
      -1.82991495747874                       0        1.22629887584036         37.384675655837   -0.000646675144190948            254232.40625                  101465        288.237487792969      0.0895722058563622       0.197416940667092                       0 
      -1.82741370685343                       0        1.22629882650959        37.3847032598617   -0.000656782240526834            254232.40625                  101465        288.237487792969      0.0895722724031988       0.197416106066731                       0 
      -1.82491245622811                       0        1.22629877717882        37.3847308638863   -0.000666889336862719            254232.40625                  101465        288.237487792969      0.0895723389500353       0.197415271466371                       0 
       -1.8224112056028                       0        1.22629872784806         37.384758467911   -0.000676996433198605            254232.40625                  101465        288.237487792969      0.0895724054968718       0.197414436866011                       0 
      -1.81990995497749                       0        1.22629867851729        37.3847860719357   -0.000687103529534491            254232.40625                  101465        288.237487792969      0.0895724720437084       0.197413602265651                       0 
      -1.81740870435218                       0        1.22629862918652        37.3848136759603   -0.000697210625870376            254232.40625                  101465        288.237487792969       0.089572538590545        0.19741276766529                       0 
      -1.81490745372686                       0        1.22629857985576         37.384841279985   -0.000707317722206261            254232.40625                  101465        288.237487792969      0.0895726051373815        0.19741193306493                       0 
      -1.81240620310155                       0        1.22629853052499        37.3848688840096   -0.000717424818542147            254232.40625                  101465        288.237487792969       0.089572671684218        0.19741109846457                       0 
      -1.80990495247624                       0        1.22629848119422        37.3848964880343   -0.000727531914878033            254232.40625                  101465        288.237487792969      0.0895727382310546        0.19741026386421                       0 
      -1.80740370185093                       0        1.22629843186346        37.3849240920589   -0.000737639011213918            254232.40625                  101465        288.237487792969      0.0895728047778911       0.197409429263849                       0 
      -1.80490245122561                       0        1.22629838253269        37.3849516960836   -0.000747746107549803            254232.40625                  101465        288.237487792969      0.0895728713247277       0.197408594663489                       0 
       -1.8024012006003                       0        1.22629833320192        37.3849793001083    -0.00075785320388569            254232.40625                  101465        288.237487792969      0.0895729378715642       0.197407760063129                       0 
      -1.79989994997499                       0        1.22629828387115        37.3850069041329   -0.000767960300221575            254232.40625                  101465        288.237487792969      0.0895730044184008       0.197406925462769                       0 
      -1.79739869934967                       0        1.22629823454039        37.3850345081576    -0.00077806739655746            254232.40625                  101465        288.237487792969      0.0895730709652373       0.197406090862409                       0 
      -1.79489744872436                       0        1.22629818520962        37.3850621121822   -0.000788174492893345            254232.40625                  101465        288.237487792969      0.0895731375120739       0.197405256262048                       0 
      -1.79239619809905                       0        1.22629813587885        37.3850897162069   -0.000798281589229231            254232.40625                  101465        288.237487792969      0.0895732040589104       0.197404421661688                       0 
      -1.78989494747374                       0        1.22629808654809        37.3851173202315   -0.000808388685565117            254232.40625                  101465        288.237487792969       0.089573270605747       0.197403587061328                       0 
      -1.78739369684842                       0        1.22629804788432         37.385143692528   -0.000820299781873088            254232.40625                  101465        288.237487792969      0.0895733341464761       0.197402802828973                       0 
      -1.78489244622311                       0        1.22629802382627        37.3851683782902   -0.000834680990980315            254232.40625                  101465        288.237487792969      0.0895733935711163       0.197402087562615                       0 
       -1.7823911955978                       0        1.22629799919417        37.3852009895242   -0.000849939831045178            254232.40625                  101465        288.237487792969      0.0895734725822161       0.197400956280235                       0 
      -1.77988994497249                       0        1.22629797458649        37.3852365394273   -0.000865479623670132            254232.40625                  101465        288.237487792969      0.0895735588563272       0.197399670545089                       0 
      -1.77738869434717                       0        1.22629797458649        37.3852700230718   -0.000876207546059164            254232.40625                  101465        288.237487792969      0.0895736400847204       0.197398472752315                       0 
      -1.77488744372186                       0        1.22629797458649        37.3853035067162   -0.000886935468448194            254232.40625                  101465        288.237487792969      0.0895737213131136       0.197397274959541                       0 
      -1.77238619309655                       0        1.22629797458649        37.3853369903606   -0.000897663390837224            254232.40625                  101465        288.237487792969      0.0895738025415068       0.197396077166766                       0 
      -1.76988494247124                       0        1.22629797458649         37.385370474005   -0.000908391313226255            254232.40625                  101465        288.237487792969         0.0895738837699       0.197394879373992                       0 
      -1.76738369184592                       0        1.22629797458649        37.3854039576495   -0.000919119235615286            254232.40625                  101465        288.237487792969      0.0895739649982932       0.197393681581218                       0 
      -1.76488244122061                       0        1.22629797458649        37.3854374412939   -0.000929847158004316            254232.40625                  101465        288.237487792969      0.0895740462266864       0.197392483788444                       0 
       -1.7623811905953                       0        1.22629797458649        37.3854709249383   -0.000940575080393346            254232.40625                  101465        288.237487792969      0.0895741274550796        0.19739128599567                       0 
      -1.75987993996998                       0        1.22629797458649        37.3855044085827   -0.000951303002782378            254232.40625                  101465        288.237487792969      0.0895742086834728       0.197390088202896                       0 
      -1.75737868934467                       0        1.22629797458649        37.3855378922272   -0.000962030925171408            254232.40625                  101465        288.237487792969       0.089574289911866       0.197388890410122                       0 
      -1.75487743871936                       0        1.22629797458649        37.3855713758716   -0.000972758847560438            254232.40625                  101465        288.237487792969      0.0895743711402592       0.197387692617347                       0 
      -1.75237618809405                       0        1.22629797458649         37.385604859516   -0.000983486769949469            254232.40625                  101465        288.237487792969      0.0895744523686524       0.197386494824573                       0 
      -1.74987493746873                       0        1.22629797458649        37.3856383431605     -0.0009942146923385            254232.40625                  101465        288.237487792969      0.0895745335970456       0.197385297031799                       0 
      -1.74737368684342                       0        1.22629797458649        37.3856718268049    -0.00100494261472753            254232.40625                  101465        288.237487792969      0.0895746148254388       0.197384099239025                       0 
      -1.74487243621811                       0        1.22629797458649        37.3857053104493    -0.00101567053711656            254232.40625                  101465        288.237487792969       0.089574696053832       0.197382901446251                       0 
       -1.7423711855928                       0        1.22629797458649        37.3857387940938    -0.00102639845950559            254232.40625                  101465        288.237487792969      0.0895747772822252       0.197381703653477                       0 
      -1.73986993496748                       0        1.22629797458649        37.3857722777382    -0.00103712638189462            254232.40625                  101465        288.237487792969      0.0895748585106184       0.197380505860702                       0 
      -1.73736868434217                       0        1.22629797458649        37.3858057613826    -0.00104785430428365            254232.40625                  101465        288.237487792969      0.0895749397390116       0.197379308067928                       0 
      -1.73486743371686                       0        1.22629797458649         37.385839245027    -0.00105858222667268            254232.40625                  101465        288.237487792969      0.0895750209674048       0.197378110275154                       0 
      -1.73236618309155                       0        1.22629797458649        37.3858727286715    -0.00106931014906171            254232.40625                  101465        288.237487792969       0.089575102195798        0.19737691248238                       0 
      -1.72986493246623                       0        1.22629797458649        37.3859131990386    -0.00108071236489017          254232.4030061                  101465        288.237487792969       0.089575200364396       0.197375450224347                       0 
      -1.72736368184092                       0        1.22629797458649        37.3859580696554    -0.00109253925185238        254232.397719187                  101465        288.237487792969      0.0895753092019632       0.197373821405651                       0 
      -1.72486243121561                       0        1.22629797458649        37.3860029402722    -0.00110436613881459        254232.392432274                  101465        288.237487792969      0.0895754180395304       0.197372192586956                       0 
       -1.7223611805903                       0        1.22629797458649         37.386047810889    -0.00111619302577681        254232.387145362                  101465        288.237487792969      0.0895755268770976       0.197370563768261                       0 