TITLE = "Visualization of the volumetric solution"
VARIABLES = "x","y","Density","Momentum_x","Momentum_y","Energy","Pressure","Temperature","Mach","C<sub>p</sub>","Roe_Dissipation"
ZONE NODES= 499, ELEMENTS= 880, DATAPACKING=POINT, ZONETYPE=FEQUADRILATERAL
1.000000e+00	-1.178093e-01	1.225046e+00	4.167047e+01	3.645663e+00	2.540142e+05	1.013200e+05	2.881198e+02	1.003451e-01	-7.027759e-03	0.000000e+00	
1.033417e+00	-1.025596e-01	1.225046e+00	4.167023e+01	3.645611e+00	2.540141e+05	1.013200e+05	2.881198e+02	1.003446e-01	-7.048313e-03	0.000000e+00	
1.064620e+00	-1.206034e-01	1.225046e+00	4.167048e+01	3.645605e+00	2.540141e+05	1.013200e+05	2.881198e+02	1.003451e-01	-7.055404e-03	0.000000e+00	
1.000000e+00	-7.853950e-02	1.225046e+00	4.166973e+01	3.645596e+00	2.540141e+05	1.013200e+05	2.881198e+02	1.003434e-01	-7.048243e-03	0.000000e+00	
1.068128e+00	-8.318025e-02	1.225046e+00	4.166994e+01	3.645561e+00	2.540141e+05	1.013200e+05	2.881198e+02	1.003439e-01	-7.040537e-03	0.000000e+00	
1.034377e+00	-6.165488e-02	1.225046e+00	4.166952e+01	3.645538e+00	2.540141e+05	1.013200e+05	2.881198e+02	1.003428e-01	-7.042910e-03	0.000000e+00	
1.100612e+00	-1.088575e-01	1.225046e+00	4.167034e+01	3.645580e+00	2.540141e+05	1.013200e+05	2.881198e+02	1.003448e-01	-7.046324e-03	0.000000e+00	
1.000000e+00	-3.926975e-02	1.225046e+00	4.166917e+01	3.645465e+00	2.540141e+05	1.013200e+05	2.881198e+02	1.003420e-01	-7.053745e-03	0.000000e+00	
1.068445e+00	-4.242633e-02	1.225046e+00	4.166937e+01	3.645496e+00	2.540141e+05	1.013200e+05	2.881198e+02	1.003425e-01	-7.048325e-03	0.000000e+00	
1.101359e+00	-6.524675e-02	1.225046e+00	4.166971e+01	3.645536e+00	2.540141e+05	1.013200e+05	2.881198e+02	1.003433e-01	-7.045607e-03	0.000000e+00	
1.034687e+00	-2.064353e-02	1.225046e+00	4.166914e+01	3.645431e+00	2.540141e+05	1.013200e+05	2.881198e+02	1.003419e-01	-7.042686e-03	0.000000e+00	
1.136232e+00	-1.212309e-01	1.225046e+00	4.167047e+01	3.645562e+00	2.540142e+05	1.013200e+05	2.881198e+02	1.003451e-01	-7.040054e-03	0.000000e+00	
1.134349e+00	-8.419726e-02	1.225046e+00	4.167003e+01	3.645566e+00	2.540141e+05	1.013200e+05	2.881198e+02	1.003441e-01	-7.047209e-03	0.000000e+00	
1.000000e+00	0.000000e+00	1.225046e+00	4.166912e+01	3.645372e+00	2.540141e+05	1.013200e+05	2.881198e+02	1.003418e-01	-7.056859e-03	0.000000e+00	
1.101772e+00	-2.186852e-02	1.225046e+00	4.166930e+01	3.645448e+00	2.540141e+05	1.013200e+05	2.881198e+02	1.003423e-01	-7.044727e-03	0.000000e+00	
1.068489e+00	-4.253729e-05	1.225046e+00	4.166922e+01	3.645397e+00	2.540141e+05	1.013200e+05	2.881198e+02	1.003421e-01	-7.045045e-03	0.000000e+00	
1.135103e+00	-4.323426e-02	1.225046e+00	4.166952e+01	3.645497e+00	2.540141e+05	1.013200e+05	2.881198e+02	1.003428e-01	-7.044373e-03	0.000000e+00	
1.034680e+00	2.060713e-02	1.225046e+00	4.166932e+01	3.645362e+00	2.540141e+05	1.013200e+05	2.881198e+02	1.003423e-01	-7.043240e-03	0.000000e+00	
1.168938e+00	-1.050491e-01	1.225046e+00	4.167030e+01	3.645558e+00	2.540141e+05	1.013200e+05	2.881198e+02	1.003447e-01	-7.045364e-03	0.000000e+00	
1.169278e+00	-6.441136e-02	1.225046e+00	4.166980e+01	3.645533e+00	2.540141e+05	1.013200e+05	2.881198e+02	1.003435e-01	-7.044852e-03	0.000000e+00	
1.000000e+00	3.926975e-02	1.225046e+00	4.166958e+01	3.645358e+00	2.540141e+05	1.013200e+05	2.881198e+02	1.003430e-01	-7.047158e-03	0.000000e+00	
1.202292e+00	-1.263624e-01	1.225046e+00	4.167047e+01	3.645544e+00	2.540142e+05	1.013200e+05	2.881198e+02	1.003451e-01	-7.045553e-03	0.000000e+00	
1.101807e+00	2.179218e-02	1.225046e+00	4.166938e+01	3.645379e+00	2.540141e+05	1.013200e+05	2.881198e+02	1.003425e-01	-7.045228e-03	0.000000e+00	
1.135374e+00	-2.954258e-05	1.225046e+00	4.166933e+01	3.645417e+00	2.540141e+05	1.013200e+05	2.881198e+02	1.003424e-01	-7.046308e-03	0.000000e+00	
1.068451e+00	4.239892e-02	1.225046e+00	4.166960e+01	3.645358e+00	2.540141e+05	1.013200e+05	2.881198e+02	1.003430e-01	-7.046872e-03	0.000000e+00	
1.169368e+00	-2.180446e-02	1.225046e+00	4.166943e+01	3.645463e+00	2.540141e+05	1.013200e+05	2.881198e+02	1.003426e-01	-7.045519e-03	0.000000e+00	
1.034461e+00	6.170548e-02	1.225046e+00	4.166993e+01	3.645370e+00	2.540141e+05	1.013200e+05	2.881198e+02	1.003438e-01	-7.044812e-03	0.000000e+00	
1.203673e+00	-8.556773e-02	1.225046e+00	4.167009e+01	3.645547e+00	2.540141e+05	1.013200e+05	2.881198e+02	1.003442e-01	-7.044632e-03	0.000000e+00	
1.203607e+00	-4.359994e-02	1.225046e+00	4.166964e+01	3.645504e+00	2.540141e+05	1.013200e+05	2.881198e+02	1.003431e-01	-7.045818e-03	0.000000e+00	
1.000000e+00	7.853950e-02	1.225046e+00	4.167027e+01	3.645389e+00	2.540142e+05	1.013200e+05	2.881198e+02	1.003446e-01	-7.040286e-03	0.000000e+00	
1.238630e+00	-1.066624e-01	1.225046e+00	4.167030e+01	3.645548e+00	2.540141e+05	1.013200e+05	2.881198e+02	1.003447e-01	-7.045953e-03	0.000000e+00	
1.135139e+00	4.315856e-02	1.225046e+00	4.166961e+01	3.645385e+00	2.540141e+05	1.013200e+05	2.881198e+02	1.003430e-01	-7.043798e-03	0.000000e+00	
1.101416e+00	6.520189e-02	1.225046e+00	4.166991e+01	3.645386e+00	2.540141e+05	1.013200e+05	2.881198e+02	1.003437e-01	-7.044718e-03	0.000000e+00	
1.169386e+00	2.174064e-02	1.225046e+00	4.166944e+01	3.645399e+00	2.540141e+05	1.013200e+05	2.881198e+02	1.003426e-01	-7.045254e-03	0.000000e+00	
1.068174e+00	8.316684e-02	1.225046e+00	4.167025e+01	3.645415e+00	2.540142e+05	1.013200e+05	2.881198e+02	1.003445e-01	-7.040816e-03	0.000000e+00	
1.203537e+00	-2.757725e-05	1.225046e+00	4.166943e+01	3.645434e+00	2.540141e+05	1.013200e+05	2.881198e+02	1.003426e-01	-7.045288e-03	0.000000e+00	
1.033546e+00	1.025937e-01	1.225046e+00	4.167059e+01	3.645435e+00	2.540141e+05	1.013200e+05	2.881198e+02	1.003454e-01	-7.048157e-03	0.000000e+00	
1.237895e+00	-6.524184e-02	1.225046e+00	4.166989e+01	3.645528e+00	2.540141e+05	1.013200e+05	2.881198e+02	1.003437e-01	-7.045589e-03	0.000000e+00	
1.237571e+00	-2.200244e-02	1.225046e+00	4.166954e+01	3.645471e+00	2.540141e+05	1.013200e+05	2.881198e+02	1.003429e-01	-7.045456e-03	0.000000e+00	
1.000000e+00	1.178093e-01	1.225046e+00	4.167081e+01	3.645457e+00	2.540142e+05	1.013200e+05	2.881198e+02	1.003459e-01	-7.025720e-03	0.000000e+00	
1.275098e+00	-1.262698e-01	1.225046e+00	4.167042e+01	3.645543e+00	2.540141e+05	1.013200e+05	2.881198e+02	1.003450e-01	-7.046263e-03	0.000000e+00	
1.272346e+00	-8.546265e-02	1.225046e+00	4.167013e+01	3.645539e+00	2.540141e+05	1.013200e+05	2.881198e+02	1.003443e-01	-7.044842e-03	0.000000e+00	
1.169324e+00	6.428025e-02	1.225046e+00	4.166984e+01	3.645396e+00	2.540141e+05	1.013200e+05	2.881198e+02	1.003436e-01	-7.044856e-03	0.000000e+00	
1.134398e+00	8.406095e-02	1.225046e+00	4.167014e+01	3.645408e+00	2.540141e+05	1.013200e+05	2.881198e+02	1.003443e-01	-7.050057e-03	0.000000e+00	
1.100644e+00	1.087416e-01	1.225046e+00	4.167049e+01	3.645463e+00	2.540142e+05	1.013200e+05	2.881198e+02	1.003451e-01	-7.045773e-03	0.000000e+00	
1.203645e+00	4.349924e-02	1.225046e+00	4.166961e+01	3.645398e+00	2.540141e+05	1.013200e+05	2.881198e+02	1.003430e-01	-7.045851e-03	0.000000e+00	
1.064669e+00	1.205361e-01	1.225046e+00	4.167068e+01	3.645478e+00	2.540141e+05	1.013200e+05	2.881198e+02	1.003456e-01	-7.052652e-03	0.000000e+00	
1.237592e+00	2.193224e-02	1.225046e+00	4.166950e+01	3.645418e+00	2.540141e+05	1.013200e+05	2.881198e+02	1.003428e-01	-7.045319e-03	0.000000e+00	
1.040000e+00	1.570790e-01	1.225046e+00	4.167075e+01	3.645559e+00	2.540142e+05	1.013200e+05	2.881198e+02	1.003458e-01	-7.049539e-03	0.000000e+00	
1.271526e+00	-4.345153e-02	1.225046e+00	4.166973e+01	3.645502e+00	2.540141e+05	1.013200e+05	2.881198e+02	1.003433e-01	-7.045680e-03	0.000000e+00	
1.271382e+00	-2.989795e-05	1.225046e+00	4.166952e+01	3.645447e+00	2.540141e+05	1.013200e+05	2.881198e+02	1.003428e-01	-7.045397e-03	0.000000e+00	
1.000000e+00	1.570790e-01	1.225046e+00	4.167087e+01	3.645578e+00	2.540142e+05	1.013200e+05	2.881198e+02	1.003460e-01	-7.023278e-03	0.000000e+00	
1.307293e+00	-1.047961e-01	1.225046e+00	4.167029e+01	3.645552e+00	2.540141e+05	1.013200e+05	2.881198e+02	1.003447e-01	-7.048330e-03	0.000000e+00	
1.305499e+00	-6.390660e-02	1.225046e+00	4.166994e+01	3.645523e+00	2.540141e+05	1.013200e+05	2.881198e+02	1.003438e-01	-7.045343e-03	0.000000e+00	
1.203746e+00	8.534871e-02	1.225046e+00	4.167006e+01	3.645424e+00	2.540141e+05	1.013200e+05	2.881198e+02	1.003441e-01	-7.045396e-03	0.000000e+00	
1.168996e+00	1.047783e-01	1.225046e+00	4.167034e+01	3.645453e+00	2.540142e+05	1.013200e+05	2.881198e+02	1.003448e-01	-7.043065e-03	0.000000e+00	
1.136272e+00	1.210471e-01	1.225046e+00	4.167054e+01	3.645491e+00	2.540142e+05	1.013200e+05	2.881198e+02	1.003453e-01	-7.039288e-03	0.000000e+00	
1.080000e+00	1.570790e-01	1.225046e+00	4.167070e+01	3.645557e+00	2.540142e+05	1.013200e+05	2.881198e+02	1.003456e-01	-7.035368e-03	0.000000e+00	
1.237949e+00	6.506497e-02	1.225046e+00	4.166980e+01	3.645409e+00	2.540141e+05	1.013200e+05	2.881198e+02	1.003435e-01	-7.045542e-03	0.000000e+00	
1.271569e+00	4.332520e-02	1.225046e+00	4.166963e+01	3.645416e+00	2.540141e+05	1.013200e+05	2.881198e+02	1.003431e-01	-7.045608e-03	0.000000e+00	
1.305223e+00	-2.155865e-02	1.225046e+00	4.166963e+01	3.645477e+00	2.540141e+05	1.013200e+05	2.881198e+02	1.003431e-01	-7.045650e-03	0.000000e+00	
1.120000e+00	1.570790e-01	1.225046e+00	4.167064e+01	3.645545e+00	2.540141e+05	1.013200e+05	2.881198e+02	1.003455e-01	-7.052054e-03	0.000000e+00	
1.305243e+00	2.147357e-02	1.225046e+00	4.166955e+01	3.645432e+00	2.540141e+05	1.013200e+05	2.881198e+02	1.003429e-01	-7.045499e-03	0.000000e+00	
1.339584e+00	-1.215310e-01	1.225046e+00	4.167038e+01	3.645543e+00	2.540141e+05	1.013200e+05	2.881198e+02	1.003449e-01	-7.046897e-03	0.000000e+00	
1.339319e+00	-8.276789e-02	1.225046e+00	4.167014e+01	3.645538e+00	2.540141e+05	1.013200e+05	2.881198e+02	1.003443e-01	-7.044711e-03	0.000000e+00	
1.339169e+00	-4.239730e-02	1.225046e+00	4.166980e+01	3.645506e+00	2.540141e+05	1.013200e+05	2.881198e+02	1.003435e-01	-7.045792e-03	0.000000e+00	
1.202422e+00	1.260776e-01	1.225046e+00	4.167045e+01	3.645491e+00	2.540141e+05	1.013200e+05	2.881198e+02	1.003450e-01	-7.047487e-03	0.000000e+00	
1.238681e+00	1.062929e-01	1.225046e+00	4.167023e+01	3.645454e+00	2.540141e+05	1.013200e+05	2.881198e+02	1.003445e-01	-7.044373e-03	0.000000e+00	
1.160000e+00	1.570790e-01	1.225046e+00	4.167056e+01	3.645530e+00	2.540141e+05	1.013200e+05	2.881198e+02	1.003453e-01	-7.048670e-03	0.000000e+00	
1.272426e+00	8.516431e-02	1.225046e+00	4.166999e+01	3.645430e+00	2.540141e+05	1.013200e+05	2.881198e+02	1.003439e-01	-7.045507e-03	0.000000e+00	
1.305549e+00	6.367337e-02	1.225046e+00	4.166977e+01	3.645421e+00	2.540141e+05	1.013200e+05	2.881198e+02	1.003434e-01	-7.045311e-03	0.000000e+00	
1.339127e+00	-3.703286e-05	1.225046e+00	4.166959e+01	3.645457e+00	2.540141e+05	1.013200e+05	2.881198e+02	1.003430e-01	-7.045570e-03	0.000000e+00	
1.339208e+00	4.223359e-02	1.225046e+00	4.166964e+01	3.645425e+00	2.540141e+05	1.013200e+05	2.881198e+02	1.003431e-01	-7.045644e-03	0.000000e+00	
1.371604e+00	-1.050342e-01	1.225046e+00	4.167028e+01	3.645527e+00	2.540141e+05	1.013200e+05	2.881198e+02	1.003447e-01	-7.044373e-03	0.000000e+00	
1.372900e+00	-6.394671e-02	1.225046e+00	4.167000e+01	3.645527e+00	2.540141e+05	1.013200e+05	2.881198e+02	1.003440e-01	-7.045948e-03	0.000000e+00	
1.372948e+00	-2.156253e-02	1.225046e+00	4.166971e+01	3.645486e+00	2.540141e+05	1.013200e+05	2.881198e+02	1.003433e-01	-7.045679e-03	0.000000e+00	
1.200000e+00	1.570790e-01	1.225046e+00	4.167061e+01	3.645525e+00	2.540142e+05	1.013200e+05	2.881198e+02	1.003454e-01	-7.045909e-03	0.000000e+00	
1.240000e+00	1.570790e-01	1.225046e+00	4.167048e+01	3.645515e+00	2.540142e+05	1.013200e+05	2.881198e+02	1.003451e-01	-7.043842e-03	0.000000e+00	
1.275221e+00	1.258936e-01	1.225046e+00	4.167035e+01	3.645470e+00	2.540141e+05	1.013200e+05	2.881198e+02	1.003448e-01	-7.047606e-03	0.000000e+00	
1.307310e+00	1.042860e-01	1.225046e+00	4.167013e+01	3.645435e+00	2.540141e+05	1.013200e+05	2.881198e+02	1.003443e-01	-7.046968e-03	0.000000e+00	
1.339388e+00	8.235885e-02	1.225046e+00	4.166993e+01	3.645424e+00	2.540141e+05	1.013200e+05	2.881198e+02	1.003438e-01	-7.045587e-03	0.000000e+00	
1.403630e+00	-1.265209e-01	1.225046e+00	4.167034e+01	3.645511e+00	2.540141e+05	1.013200e+05	2.881198e+02	1.003448e-01	-7.046094e-03	0.000000e+00	
1.372970e+00	2.145694e-02	1.225046e+00	4.166961e+01	3.645442e+00	2.540141e+05	1.013200e+05	2.881198e+02	1.003430e-01	-7.045771e-03	0.000000e+00	
1.372961e+00	6.364020e-02	1.225046e+00	4.166977e+01	3.645422e+00	2.540141e+05	1.013200e+05	2.881198e+02	1.003434e-01	-7.045862e-03	0.000000e+00	
1.406001e+00	-8.556812e-02	1.225046e+00	4.167017e+01	3.645527e+00	2.540141e+05	1.013200e+05	2.881198e+02	1.003444e-01	-7.045757e-03	0.000000e+00	
1.406445e+00	-4.345985e-02	1.225046e+00	4.166987e+01	3.645510e+00	2.540141e+05	1.013200e+05	2.881198e+02	1.003437e-01	-7.045623e-03	0.000000e+00	
1.406479e+00	-4.249032e-05	1.225046e+00	4.166966e+01	3.645467e+00	2.540141e+05	1.013200e+05	2.881198e+02	1.003432e-01	-7.045975e-03	0.000000e+00	
1.280000e+00	1.570790e-01	1.225046e+00	4.167052e+01	3.645510e+00	2.540141e+05	1.013200e+05	2.881198e+02	1.003452e-01	-7.047475e-03	0.000000e+00	
1.320000e+00	1.570790e-01	1.225046e+00	4.167040e+01	3.645505e+00	2.540142e+05	1.013200e+05	2.881198e+02	1.003449e-01	-7.038855e-03	0.000000e+00	
1.339634e+00	1.208358e-01	1.225046e+00	4.167024e+01	3.645449e+00	2.540141e+05	1.013200e+05	2.881198e+02	1.003445e-01	-7.046347e-03	0.000000e+00	
1.371708e+00	1.043091e-01	1.225046e+00	4.167009e+01	3.645448e+00	2.540141e+05	1.013200e+05	2.881198e+02	1.003442e-01	-7.044329e-03	0.000000e+00	
1.439866e+00	-1.068768e-01	1.225046e+00	4.167026e+01	3.645520e+00	2.540141e+05	1.013200e+05	2.881198e+02	1.003446e-01	-7.045924e-03	0.000000e+00	
1.406486e+00	4.326017e-02	1.225046e+00	4.166968e+01	3.645433e+00	2.540141e+05	1.013200e+05	2.881198e+02	1.003432e-01	-7.045724e-03	0.000000e+00	
1.406079e+00	8.506298e-02	1.225046e+00	4.166991e+01	3.645435e+00	2.540141e+05	1.013200e+05	2.881198e+02	1.003438e-01	-7.045860e-03	0.000000e+00	
1.439813e+00	-6.526288e-02	1.225046e+00	4.167004e+01	3.645520e+00	2.540141e+05	1.013200e+05	2.881198e+02	1.003441e-01	-7.045852e-03	0.000000e+00	
1.439804e+00	-2.198150e-02	1.225046e+00	4.166978e+01	3.645490e+00	2.540141e+05	1.013200e+05	2.881198e+02	1.003434e-01	-7.045831e-03	0.000000e+00	
1.439825e+00	2.186051e-02	1.225046e+00	4.166966e+01	3.645452e+00	2.540141e+05	1.013200e+05	2.881198e+02	1.003432e-01	-7.045814e-03	0.000000e+00	
1.360000e+00	1.570790e-01	1.225046e+00	4.167034e+01	3.645496e+00	2.540141e+05	1.013200e+05	2.881198e+02	1.003448e-01	-7.049499e-03	0.000000e+00	
1.403772e+00	1.258362e-01	1.225046e+00	4.167020e+01	3.645469e+00	2.540141e+05	1.013200e+05	2.881198e+02	1.003444e-01	-7.046413e-03	0.000000e+00	
1.475989e+00	-1.265418e-01	1.225046e+00	4.167029e+01	3.645510e+00	2.540141e+05	1.013200e+05	2.881198e+02	1.003447e-01	-7.046545e-03	0.000000e+00	
1.473631e+00	-8.560001e-02	1.225046e+00	4.167017e+01	3.645520e+00	2.540141e+05	1.013200e+05	2.881198e+02	1.003444e-01	-7.045426e-03	0.000000e+00	
1.439871e+00	6.489973e-02	1.225046e+00	4.166978e+01	3.645434e+00	2.540141e+05	1.013200e+05	2.881198e+02	1.003434e-01	-7.045824e-03	0.000000e+00	
1.439923e+00	1.060659e-01	1.225046e+00	4.167004e+01	3.645449e+00	2.540141e+05	1.013200e+05	2.881198e+02	1.003441e-01	-7.045516e-03	0.000000e+00	
1.473162e+00	-4.347137e-02	1.225046e+00	4.166992e+01	3.645506e+00	2.540141e+05	1.013200e+05	2.881198e+02	1.003438e-01	-7.046074e-03	0.000000e+00	
1.473146e+00	-4.859422e-05	1.225046e+00	4.166972e+01	3.645473e+00	2.540141e+05	1.013200e+05	2.881198e+02	1.003433e-01	-7.045723e-03	0.000000e+00	
1.473207e+00	4.323790e-02	1.225046e+00	4.166971e+01	3.645445e+00	2.540141e+05	1.013200e+05	2.881198e+02	1.003433e-01	-7.045933e-03	0.000000e+00	
1.400000e+00	1.570790e-01	1.225046e+00	4.167036e+01	3.645493e+00	2.540141e+05	1.013200e+05	2.881198e+02	1.003448e-01	-7.044861e-03	0.000000e+00	
1.440000e+00	1.570790e-01	1.225046e+00	4.167028e+01	3.645488e+00	2.540141e+05	1.013200e+05	2.881198e+02	1.003446e-01	-7.044797e-03	0.000000e+00	
1.508139e+00	-1.051152e-01	1.225046e+00	4.167024e+01	3.645521e+00	2.540141e+05	1.013200e+05	2.881198e+02	1.003445e-01	-7.047505e-03	0.000000e+00	
1.506738e+00	-6.398839e-02	1.225046e+00	4.167006e+01	3.645514e+00	2.540141e+05	1.013200e+05	2.881198e+02	1.003441e-01	-7.045744e-03	0.000000e+00	
1.473716e+00	8.500774e-02	1.225046e+00	4.166989e+01	3.645441e+00	2.540141e+05	1.013200e+05	2.881198e+02	1.003437e-01	-7.045736e-03	0.000000e+00	
1.476102e+00	1.257609e-01	1.225046e+00	4.167014e+01	3.645459e+00	2.540141e+05	1.013200e+05	2.881198e+02	1.003443e-01	-7.047013e-03	0.000000e+00	
1.506671e+00	-2.157509e-02	1.225046e+00	4.166983e+01	3.645491e+00	2.540141e+05	1.013200e+05	2.881198e+02	1.003436e-01	-7.046031e-03	0.000000e+00	
1.506691e+00	2.143071e-02	1.225046e+00	4.166971e+01	3.645460e+00	2.540141e+05	1.013200e+05	2.881198e+02	1.003433e-01	-7.045816e-03	0.000000e+00	
1.506787e+00	6.356086e-02	1.225046e+00	4.166978e+01	3.645442e+00	2.540141e+05	1.013200e+05	2.881198e+02	1.003434e-01	-7.045836e-03	0.000000e+00	
1.480000e+00	1.570790e-01	1.225046e+00	4.167029e+01	3.645485e+00	2.540141e+05	1.013200e+05	2.881198e+02	1.003447e-01	-7.046954e-03	0.000000e+00	
1.540204e+00	-1.217886e-01	1.225046e+00	4.167026e+01	3.645513e+00	2.540141e+05	1.013200e+05	2.881198e+02	1.003446e-01	-7.046785e-03	0.000000e+00	
1.540358e+00	-8.289169e-02	1.225046e+00	4.167016e+01	3.645518e+00	2.540141e+05	1.013200e+05	2.881198e+02	1.003444e-01	-7.045672e-03	0.000000e+00	
1.540466e+00	-4.243284e-02	1.225046e+00	4.166996e+01	3.645506e+00	2.540141e+05	1.013200e+05	2.881198e+02	1.003439e-01	-7.046032e-03	0.000000e+00	
1.508131e+00	1.041349e-01	1.225046e+00	4.166999e+01	3.645443e+00	2.540141e+05	1.013200e+05	2.881198e+02	1.003439e-01	-7.046652e-03	0.000000e+00	
1.520000e+00	1.570790e-01	1.225046e+00	4.167022e+01	3.645484e+00	2.540141e+05	1.013200e+05	2.881198e+02	1.003445e-01	-7.042041e-03	0.000000e+00	
1.540518e+00	-6.170901e-05	1.225046e+00	4.166977e+01	3.645477e+00	2.540141e+05	1.013200e+05	2.881198e+02	1.003434e-01	-7.045966e-03	0.000000e+00	
1.540509e+00	4.215139e-02	1.225046e+00	4.166973e+01	3.645451e+00	2.540141e+05	1.013200e+05	2.881198e+02	1.003433e-01	-7.045996e-03	0.000000e+00	
1.540433e+00	8.217602e-02	1.225046e+00	4.166987e+01	3.645441e+00	2.540141e+05	1.013200e+05	2.881198e+02	1.003436e-01	-7.045745e-03	0.000000e+00	
1.572469e+00	-1.051351e-01	1.225046e+00	4.167022e+01	3.645506e+00	2.540141e+05	1.013200e+05	2.881198e+02	1.003445e-01	-7.044897e-03	0.000000e+00	
1.574180e+00	-6.400104e-02	1.225046e+00	4.167008e+01	3.645515e+00	2.540141e+05	1.013200e+05	2.881198e+02	1.003442e-01	-7.046197e-03	0.000000e+00	
1.574415e+00	-2.158564e-02	1.225046e+00	4.166988e+01	3.645495e+00	2.540141e+05	1.013200e+05	2.881198e+02	1.003437e-01	-7.045950e-03	0.000000e+00	
1.540263e+00	1.205581e-01	1.225046e+00	4.167007e+01	3.645449e+00	2.540141e+05	1.013200e+05	2.881198e+02	1.003441e-01	-7.046557e-03	0.000000e+00	
1.604619e+00	-1.265975e-01	1.225046e+00	4.167021e+01	3.645492e+00	2.540141e+05	1.013200e+05	2.881198e+02	1.003445e-01	-7.046753e-03	0.000000e+00	
1.574439e+00	2.140394e-02	1.225046e+00	4.166975e+01	3.645465e+00	2.540141e+05	1.013200e+05	2.881198e+02	1.003434e-01	-7.046170e-03	0.000000e+00	
1.574251e+00	6.348652e-02	1.225046e+00	4.166979e+01	3.645446e+00	2.540141e+05	1.013200e+05	2.881198e+02	1.003435e-01	-7.046068e-03	0.000000e+00	
1.572621e+00	1.039419e-01	1.225046e+00	4.166997e+01	3.645452e+00	2.540141e+05	1.013200e+05	2.881198e+02	1.003439e-01	-7.045825e-03	0.000000e+00	
1.560000e+00	1.570790e-01	1.225046e+00	4.167018e+01	3.645479e+00	2.540141e+05	1.013200e+05	2.881198e+02	1.003444e-01	-7.047909e-03	0.000000e+00	
1.607408e+00	-8.565085e-02	1.225046e+00	4.167016e+01	3.645509e+00	2.540141e+05	1.013200e+05	2.881198e+02	1.003444e-01	-7.046257e-03	0.000000e+00	
1.608119e+00	-4.350335e-02	1.225046e+00	4.166999e+01	3.645506e+00	2.540141e+05	1.013200e+05	2.881198e+02	1.003440e-01	-7.046075e-03	0.000000e+00	
1.608230e+00	-8.083955e-05	1.225046e+00	4.166982e+01	3.645482e+00	2.540141e+05	1.013200e+05	2.881198e+02	1.003435e-01	-7.046200e-03	0.000000e+00	
1.641354e+00	-1.070204e-01	1.225046e+00	4.167019e+01	3.645500e+00	2.540141e+05	1.013200e+05	2.881198e+02	1.003444e-01	-7.045944e-03	0.000000e+00	
1.608162e+00	4.316042e-02	1.225046e+00	4.166977e+01	3.645456e+00	2.540141e+05	1.013200e+05	2.881198e+02	1.003434e-01	-7.046171e-03	0.000000e+00	
1.607491e+00	8.482651e-02	1.225046e+00	4.166987e+01	3.645449e+00	2.540141e+05	1.013200e+05	2.881198e+02	1.003437e-01	-7.045993e-03	0.000000e+00	
1.604766e+00	1.255036e-01	1.225046e+00	4.167005e+01	3.645462e+00	2.540141e+05	1.013200e+05	2.881198e+02	1.003441e-01	-7.046296e-03	0.000000e+00	
1.641824e+00	-6.536395e-02	1.225046e+00	4.167009e+01	3.645508e+00	2.540141e+05	1.013200e+05	2.881198e+02	1.003442e-01	-7.046065e-03	0.000000e+00	
1.641932e+00	-2.204463e-02	1.225046e+00	4.166992e+01	3.645496e+00	2.540141e+05	1.013200e+05	2.881198e+02	1.003438e-01	-7.046206e-03	0.000000e+00	
1.641953e+00	2.180088e-02	1.225046e+00	4.166979e+01	3.645471e+00	2.540141e+05	1.013200e+05	2.881198e+02	1.003435e-01	-7.046153e-03	0.000000e+00	
1.600000e+00	1.570790e-01	1.225046e+00	4.167018e+01	3.645478e+00	2.540141e+05	1.013200e+05	2.881198e+02	1.003444e-01	-7.045637e-03	0.000000e+00	
1.677811e+00	-1.266225e-01	1.225046e+00	4.167018e+01	3.645490e+00	2.540141e+05	1.013200e+05	2.881198e+02	1.003444e-01	-7.046971e-03	0.000000e+00	
1.676277e+00	-8.581372e-02	1.225046e+00	4.167015e+01	3.645504e+00	2.540141e+05	1.013200e+05	2.881198e+02	1.003443e-01	-7.046421e-03	0.000000e+00	
1.641884e+00	6.475811e-02	1.225046e+00	4.166981e+01	3.645453e+00	2.540141e+05	1.013200e+05	2.881198e+02	1.003435e-01	-7.046153e-03	0.000000e+00	
1.641436e+00	1.057378e-01	1.225046e+00	4.166995e+01	3.645454e+00	2.540141e+05	1.013200e+05	2.881198e+02	1.003439e-01	-7.046220e-03	0.000000e+00	
1.640000e+00	1.570790e-01	1.225046e+00	4.167014e+01	3.645476e+00	2.540141e+05	1.013200e+05	2.881198e+02	1.003443e-01	-7.045436e-03	0.000000e+00	
1.675789e+00	-4.361961e-02	1.225046e+00	4.167001e+01	3.645502e+00	2.540141e+05	1.013200e+05	2.881198e+02	1.003440e-01	-7.046266e-03	0.000000e+00	
1.675722e+00	-1.300346e-04	1.225046e+00	4.166986e+01	3.645484e+00	2.540141e+05	1.013200e+05	2.881198e+02	1.003436e-01	-7.046256e-03	0.000000e+00	
1.675825e+00	4.317080e-02	1.225046e+00	4.166980e+01	3.645463e+00	2.540141e+05	1.013200e+05	2.881198e+02	1.003435e-01	-7.046214e-03	0.000000e+00	
1.712028e+00	-1.055992e-01	1.225046e+00	4.167017e+01	3.645498e+00	2.540141e+05	1.013200e+05	2.881198e+02	1.003444e-01	-7.046071e-03	0.000000e+00	
1.710040e+00	-6.420542e-02	1.225046e+00	4.167009e+01	3.645504e+00	2.540141e+05	1.013200e+05	2.881198e+02	1.003442e-01	-7.046323e-03	0.000000e+00	
1.676353e+00	8.486727e-02	1.225046e+00	4.166987e+01	3.645454e+00	2.540141e+05	1.013200e+05	2.881198e+02	1.003437e-01	-7.046167e-03	0.000000e+00	
1.677929e+00	1.254055e-01	1.225046e+00	4.167002e+01	3.645460e+00	2.540141e+05	1.013200e+05	2.881198e+02	1.003440e-01	-7.046858e-03	0.000000e+00	
1.709688e+00	-2.165846e-02	1.225046e+00	4.166994e+01	3.645493e+00	2.540141e+05	1.013200e+05	2.881198e+02	1.003438e-01	-7.046236e-03	0.000000e+00	
1.709697e+00	2.124303e-02	1.225046e+00	4.166983e+01	3.645475e+00	2.540141e+05	1.013200e+05	2.881198e+02	1.003436e-01	-7.046242e-03	0.000000e+00	
1.710053e+00	6.343564e-02	1.225046e+00	4.166982e+01	3.645458e+00	2.540141e+05	1.013200e+05	2.881198e+02	1.003435e-01	-7.046205e-03	0.000000e+00	
1.680000e+00	1.570790e-01	1.225046e+00	4.167014e+01	3.645474e+00	2.540141e+05	1.013200e+05	2.881198e+02	1.003443e-01	-7.046876e-03	0.000000e+00	
1.748004e+00	-1.220202e-01	1.225046e+00	4.167015e+01	3.645490e+00	2.540141e+05	1.013200e+05	2.881198e+02	1.003443e-01	-7.048561e-03	0.000000e+00	
1.744475e+00	-8.255200e-02	1.225046e+00	4.167013e+01	3.645497e+00	2.540141e+05	1.013200e+05	2.881198e+02	1.003443e-01	-7.046195e-03	0.000000e+00	
1.743960e+00	-4.197840e-02	1.225046e+00	4.167002e+01	3.645497e+00	2.540141e+05	1.013200e+05	2.881198e+02	1.003440e-01	-7.046683e-03	0.000000e+00	
1.711963e+00	1.041473e-01	1.225046e+00	4.166993e+01	3.645455e+00	2.540141e+05	1.013200e+05	2.881198e+02	1.003438e-01	-7.046368e-03	0.000000e+00	
1.720000e+00	1.570790e-01	1.225046e+00	4.167010e+01	3.645476e+00	2.540141e+05	1.013200e+05	2.881198e+02	1.003442e-01	-7.044408e-03	0.000000e+00	
1.743918e+00	-2.767326e-04	1.225046e+00	4.166989e+01	3.645484e+00	2.540141e+05	1.013200e+05	2.881198e+02	1.003437e-01	-7.046226e-03	0.000000e+00	
1.743988e+00	4.124340e-02	1.225046e+00	4.166983e+01	3.645467e+00	2.540141e+05	1.013200e+05	2.881198e+02	1.003436e-01	-7.046368e-03	0.000000e+00	
1.744457e+00	8.130656e-02	1.225046e+00	4.166986e+01	3.645458e+00	2.540141e+05	1.013200e+05	2.881198e+02	1.003436e-01	-7.046125e-03	0.000000e+00	
1.778139e+00	-1.309735e-01	1.225046e+00	4.167013e+01	3.645485e+00	2.540141e+05	1.013200e+05	2.881198e+02	1.003443e-01	-7.046520e-03	0.000000e+00	
1.778745e+00	-1.001183e-01	1.225046e+00	4.167014e+01	3.645494e+00	2.540141e+05	1.013200e+05	2.881198e+02	1.003443e-01	-7.046222e-03	0.000000e+00	
1.778542e+00	-6.151252e-02	1.225046e+00	4.167008e+01	3.645499e+00	2.540141e+05	1.013200e+05	2.881198e+02	1.003442e-01	-7.046417e-03	0.000000e+00	
1.778407e+00	-2.103662e-02	1.225046e+00	4.166996e+01	3.645492e+00	2.540141e+05	1.013200e+05	2.881198e+02	1.003439e-01	-7.046433e-03	0.000000e+00	
1.747679e+00	1.205639e-01	1.225046e+00	4.166998e+01	3.645462e+00	2.540141e+05	1.013200e+05	2.881198e+02	1.003439e-01	-7.047088e-03	0.000000e+00	
1.778461e+00	2.017109e-02	1.225046e+00	4.166986e+01	3.645476e+00	2.540141e+05	1.013200e+05	2.881198e+02	1.003436e-01	-7.046379e-03	0.000000e+00	
1.778709e+00	6.030290e-02	1.225046e+00	4.166984e+01	3.645462e+00	2.540141e+05	1.013200e+05	2.881198e+02	1.003436e-01	-7.046471e-03	0.000000e+00	
1.779100e+00	9.799310e-02	1.225046e+00	4.166991e+01	3.645459e+00	2.540141e+05	1.013200e+05	2.881198e+02	1.003437e-01	-7.046136e-03	0.000000e+00	
1.760000e+00	1.570790e-01	1.225046e+00	4.167009e+01	3.645477e+00	2.540141e+05	1.013200e+05	2.881198e+02	1.003442e-01	-7.047215e-03	0.000000e+00	
1.810774e+00	-1.217744e-01	1.225046e+00	4.167013e+01	3.645487e+00	2.540141e+05	1.013200e+05	2.881198e+02	1.003443e-01	-7.045033e-03	0.000000e+00	
1.812869e+00	-8.268672e-02	1.225046e+00	4.167012e+01	3.645499e+00	2.540141e+05	1.013200e+05	2.881198e+02	1.003443e-01	-7.046695e-03	0.000000e+00	
1.812776e+00	-4.219960e-02	1.225046e+00	4.167004e+01	3.645497e+00	2.540141e+05	1.013200e+05	2.881198e+02	1.003441e-01	-7.046201e-03	0.000000e+00	
1.812714e+00	-6.152260e-04	1.225046e+00	4.166992e+01	3.645486e+00	2.540141e+05	1.013200e+05	2.881198e+02	1.003438e-01	-7.046644e-03	0.000000e+00	
1.779473e+00	1.315772e-01	1.225046e+00	4.167000e+01	3.645465e+00	2.540141e+05	1.013200e+05	2.881198e+02	1.003440e-01	-7.046496e-03	0.000000e+00	
1.812948e+00	4.084255e-02	1.225046e+00	4.166985e+01	3.645470e+00	2.540141e+05	1.013200e+05	2.881198e+02	1.003436e-01	-7.046516e-03	0.000000e+00	
1.813185e+00	8.096743e-02	1.225046e+00	4.166987e+01	3.645460e+00	2.540141e+05	1.013200e+05	2.881198e+02	1.003437e-01	-7.046686e-03	0.000000e+00	
1.810981e+00	1.203198e-01	1.225046e+00	4.166997e+01	3.645460e+00	2.540141e+05	1.013200e+05	2.881198e+02	1.003439e-01	-7.046442e-03	0.000000e+00	
1.800000e+00	1.570790e-01	1.225046e+00	4.167007e+01	3.645471e+00	2.540141e+05	1.013200e+05	2.881198e+02	1.003441e-01	-7.045754e-03	0.000000e+00	
1.845395e+00	-1.059345e-01	1.225046e+00	4.167013e+01	3.645490e+00	2.540141e+05	1.013200e+05	2.881198e+02	1.003443e-01	-7.046685e-03	0.000000e+00	
1.846340e+00	-6.451959e-02	1.225046e+00	4.167009e+01	3.645498e+00	2.540141e+05	1.013200e+05	2.881198e+02	1.003442e-01	-7.046606e-03	0.000000e+00	
1.846429e+00	-2.225615e-02	1.225046e+00	4.166999e+01	3.645494e+00	2.540141e+05	1.013200e+05	2.881198e+02	1.003439e-01	-7.046586e-03	0.000000e+00	
1.846514e+00	2.036070e-02	1.225046e+00	4.166989e+01	3.645480e+00	2.540141e+05	1.013200e+05	2.881198e+02	1.003437e-01	-7.046678e-03	0.000000e+00	
1.879192e+00	-1.270035e-01	1.225046e+00	4.167010e+01	3.645480e+00	2.540141e+05	1.013200e+05	2.881198e+02	1.003442e-01	-7.046922e-03	0.000000e+00	
1.846647e+00	6.252477e-02	1.225046e+00	4.166986e+01	3.645466e+00	2.540141e+05	1.013200e+05	2.881198e+02	1.003436e-01	-7.046552e-03	0.000000e+00	
1.845856e+00	1.035280e-01	1.225046e+00	4.166992e+01	3.645461e+00	2.540141e+05	1.013200e+05	2.881198e+02	1.003438e-01	-7.046886e-03	0.000000e+00	
1.840000e+00	1.570790e-01	1.225046e+00	4.167005e+01	3.645470e+00	2.540141e+05	1.013200e+05	2.881198e+02	1.003441e-01	-7.047036e-03	0.000000e+00	
1.879260e+00	-8.597839e-02	1.225046e+00	4.167011e+01	3.645493e+00	2.540141e+05	1.013200e+05	2.881198e+02	1.003442e-01	-7.046395e-03	0.000000e+00	
1.879670e+00	-4.429069e-02	1.225046e+00	4.167005e+01	3.645497e+00	2.540141e+05	1.013200e+05	2.881198e+02	1.003441e-01	-7.046678e-03	0.000000e+00	
1.879758e+00	-1.493307e-03	1.225046e+00	4.166994e+01	3.645488e+00	2.540141e+05	1.013200e+05	2.881198e+02	1.003438e-01	-7.046607e-03	0.000000e+00	
1.879743e+00	4.141757e-02	1.225046e+00	4.166987e+01	3.645474e+00	2.540141e+05	1.013200e+05	2.881198e+02	1.003437e-01	-7.046683e-03	0.000000e+00	
1.912569e+00	-1.064264e-01	1.225046e+00	4.167010e+01	3.645485e+00	2.540141e+05	1.013200e+05	2.881198e+02	1.003442e-01	-7.046950e-03	0.000000e+00	
1.879763e+00	8.327487e-02	1.225046e+00	4.166988e+01	3.645463e+00	2.540141e+05	1.013200e+05	2.881198e+02	1.003437e-01	-7.046613e-03	0.000000e+00	
1.879827e+00	1.245976e-01	1.225046e+00	4.166997e+01	3.645463e+00	2.540141e+05	1.013200e+05	2.881198e+02	1.003439e-01	-7.046495e-03	0.000000e+00	
1.912951e+00	-6.583004e-02	1.225046e+00	4.167009e+01	3.645494e+00	2.540141e+05	1.013200e+05	2.881198e+02	1.003442e-01	-7.046890e-03	0.000000e+00	
1.913084e+00	-2.376693e-02	1.225046e+00	4.167000e+01	3.645493e+00	2.540141e+05	1.013200e+05	2.881198e+02	1.003440e-01	-7.046684e-03	0.000000e+00	
1.912921e+00	1.915080e-02	1.225046e+00	4.166991e+01	3.645482e+00	2.540141e+05	1.013200e+05	2.881198e+02	1.003438e-01	-7.046727e-03	0.000000e+00	