TITLE = "SU2 Simulation"
VARIABLES = "Iteration","CL","CD","CSF","CMx","CMy","CMz","CFx","CFy","CFz","CL/CD","AoA","Custom_ObjFunc","Res_Flow[0]","Res_Flow[1]","Res_Flow[2]","Res_Flow[3]","Res_Flow[4]","Linear_Solver_Iterations","CFL_Number","Time(min)"
ZONE T= "Convergence history"
           0, 0.00000000e+00, 0.00000000e+00, 0.00000000e+00, 0.00000000e+00, 0.00000000e+00, 0.00000000e+00, 0.00000000e+00, 0.00000000e+00, 0.00000000e+00, 0.00000000e+00, 0.00000000e+00, 0.00000000e+00, -4.15868866e+00, -1.67259820e+00, -1.24756271e+01, 1.28613675e+00, 0.00000000e+00, 5.0000000000, 5.0000000000, 0.0001754667
           1, 0.00000000e+00, 0.00000000e+00, 0.00000000e+00, 0.00000000e+00, 0.00000000e+00, 0.00000000e+00, 0.00000000e+00, 0.00000000e+00, 0.00000000e+00, 0.00000000e+00, 0.00000000e+00, 0.00000000e+00, -4.37696943e+00, -1.89487733e+00, -3.81652204e+00, 1.06841854e+00, 0.00000000e+00, 5.0000000000, 5.0000000000, 0.0004008833
           2, 0.00000000e+00, 0.00000000e+00, 0.00000000e+00, 0.00000000e+00, 0.00000000e+00, 0.00000000e+00, 0.00000000e+00, 0.00000000e+00, 0.00000000e+00, 0.00000000e+00, 0.00000000e+00, 0.00000000e+00, -4.47552651e+00, -1.97762710e+00, -1.69146958e+00, 9.75336635e-01, 0.00000000e+00, 5.0000000000, 5.0000000000, 0.0005750667
           3, 0.00000000e+00, 0.00000000e+00, 0.00000000e+00, 0.00000000e+00, 0.00000000e+00, 0.00000000e+00, 0.00000000e+00, 0.00000000e+00, 0.00000000e+00, 0.00000000e+00, 0.00000000e+00, 0.00000000e+00, -4.45656155e+00, -1.92771731e+00, -1.40455880e+00, 1.00228242e+00, 0.00000000e+00, 5.0000000000, 5.0000000000, 0.0007556333
           4, 0.00000000e+00, 0.00000000e+00, 0.00000000e+00, 0.00000000e+00, 0.00000000e+00, 0.00000000e+00, 0.00000000e+00, 0.00000000e+00, 0.00000000e+00, 0.00000000e+00, 0.00000000e+00, 0.00000000e+00, -4.45176161e+00, -1.89303674e+00, -1.24680855e+00, 1.01040282e+00, 0.00000000e+00, 5.0000000000, 5.0000000000, 0.0009346833
           5, 0.00000000e+00, 0.00000000e+00, 0.00000000e+00, 0.00000000e+00, 0.00000000e+00, 0.00000000e+00, 0.00000000e+00, 0.00000000e+00, 0.00000000e+00, 0.00000000e+00, 0.00000000e+00, 0.00000000e+00, -4.49568688e+00, -1.90302106e+00, -1.14018858e+00, 9.65809206e-01, 0.00000000e+00, 5.0000000000, 5.0000000000, 0.0010991167
           6, 0.00000000e+00, 0.00000000e+00, 0.00000000e+00, 0.00000000e+00, 0.00000000e+00, 0.00000000e+00, 0.00000000e+00, 0.00000000e+00, 0.00000000e+00, 0.00000000e+00, 0.00000000e+00, 0.00000000e+00, -4.56171324e+00, -1.94144564e+00, -1.06114811e+00, 8.96033666e-01, 0.00000000e+00, 5.0000000000, 5.0000000000, 0.0012553500
           7, 0.00000000e+00, 0.00000000e+00, 0.00000000e+00, 0.00000000e+00, 0.00000000e+00, 0.00000000e+00, 0.00000000e+00, 0.00000000e+00, 0.00000000e+00, 0.00000000e+00, 0.00000000e+00, 0.00000000e+00, -4.59959439e+00, -1.98704260e+00, -1.00064938e+00, 8.54336840e-01, 0.00000000e+00, 5.0000000000, 5.0000000000, 0.0014060833
           8, 0.00000000e+00, 0.00000000e+00, 0.00000000e+00, 0.00000000e+00, 0.00000000e+00, 0.00000000e+00, 0.00000000e+00, 0.00000000e+00, 0.00000000e+00, 0.00000000e+00, 0.00000000e+00, 0.00000000e+00, -4.59252223e+00, -2.01939320e+00, -9.52094457e-01, 8.61377789e-01, 0.00000000e+00, 5.0000000000, 5.0000000000, 0.0015672667
           9, 0.00000000e+00, 0.00000000e+00, 0.00000000e+00, 0.00000000e+00, 0.00000000e+00, 0.00000000e+00, 0.00000000e+00, 0.00000000e+00, 0.00000000e+00, 0.00000000e+00, 0.00000000e+00, 0.00000000e+00, -4.57382140e+00, -2.03053858e+00, -9.11925169e-01, 8.82046678e-01, 0.00000000e+00, 5.0000000000, 5.0000000000, 0.0017306167
          10, 0.00000000e+00, 0.00000000e+00, 0.00000000e+00, 0.00000000e+00, 0.00000000e+00, 0.00000000e+00, 0.00000000e+00, 0.00000000e+00, 0.00000000e+00, 0.00000000e+00, 0.00000000e+00, 0.00000000e+00, -4.56191147e+00, -2.02346071e+00, -8.78010115e-01, 8.96154431e-01, 0.00000000e+00, 5.0000000000, 5.0000000000, 0.0018889833
          11, 0.00000000e+00, 0.00000000e+00, 0.00000000e+00, 0.00000000e+00, 0.00000000e+00, 0.00000000e+00, 0.00000000e+00, 0.00000000e+00, 0.00000000e+00, 0.00000000e+00, 0.00000000e+00, 0.00000000e+00, -4.55219295e+00, -2.00549411e+00, -8.48952960e-01, 9.08143239e-01, 0.00000000e+00, 5.0000000000, 5.0000000000, 0.0020501167
          12, 0.00000000e+00, 0.00000000e+00, 0.00000000e+00, 0.00000000e+00, 0.00000000e+00, 0.00000000e+00, 0.00000000e+00, 0.00000000e+00, 0.00000000e+00, 0.00000000e+00, 0.00000000e+00, 0.00000000e+00, -4.53750747e+00, -1.98354213e+00, -8.23793536e-01, 9.25058177e-01, 0.00000000e+00, 5.0000000000, 5.0000000000, 0.0022494000
          13, 0.00000000e+00, 0.00000000e+00, 0.00000000e+00, 0.00000000e+00, 0.00000000e+00, 0.00000000e+00, 0.00000000e+00, 0.00000000e+00, 0.00000000e+00, 0.00000000e+00, 0.00000000e+00, 0.00000000e+00, -4.51883830e+00, -1.96229276e+00, -8.01859446e-01, 9.45583075e-01, 0.00000000e+00, 5.0000000000, 5.0000000000, 0.0024277833
          14, 0.00000000e+00, 0.00000000e+00, 0.00000000e+00, 0.00000000e+00, 0.00000000e+00, 0.00000000e+00, 0.00000000e+00, 0.00000000e+00, 0.00000000e+00, 0.00000000e+00, 0.00000000e+00, 0.00000000e+00, -4.50140179e+00, -1.94404022e+00, -7.82675049e-01, 9.64366504e-01, 0.00000000e+00, 5.0000000000, 5.0000000000, 0.0026077000
          15, 0.00000000e+00, 0.00000000e+00, 0.00000000e+00, 0.00000000e+00, 0.00000000e+00, 0.00000000e+00, 0.00000000e+00, 0.00000000e+00, 0.00000000e+00, 0.00000000e+00, 0.00000000e+00, 0.00000000e+00, -4.48793223e+00, -1.92925230e+00, -7.65875593e-01, 9.78785165e-01, 0.00000000e+00, 5.0000000000, 5.0000000000, 0.0028140333
          16, 0.00000000e+00, 0.00000000e+00, 0.00000000e+00, 0.00000000e+00, 0.00000000e+00, 0.00000000e+00, 0.00000000e+00, 0.00000000e+00, 0.00000000e+00, 0.00000000e+00, 0.00000000e+00, 0.00000000e+00, -4.47762622e+00, -1.91745399e+00, -7.51158532e-01, 9.89809076e-01, 0.00000000e+00, 5.0000000000, 5.0000000000, 0.0029884333
          17, 0.00000000e+00, 0.00000000e+00, 0.00000000e+00, 0.00000000e+00, 0.00000000e+00, 0.00000000e+00, 0.00000000e+00, 0.00000000e+00, 0.00000000e+00, 0.00000000e+00, 0.00000000e+00, 0.00000000e+00, -4.46848550e+00, -1.90801337e+00, -7.38260293e-01, 9.99552926e-01, 0.00000000e+00, 5.0000000000, 5.0000000000, 0.0031565333
          18, 0.00000000e+00, 0.00000000e+00, 0.00000000e+00, 0.00000000e+00, 0.00000000e+00, 0.00000000e+00, 0.00000000e+00, 0.00000000e+00, 0.00000000e+00, 0.00000000e+00, 0.00000000e+00, 0.00000000e+00, -4.45929566e+00, -1.90058400e+00, -7.26944902e-01, 1.00928142e+00, 0.00000000e+00, 5.0000000000, 5.0000000000, 0.0033271667
          19, 0.00000000e+00, 0.00000000e+00, 0.00000000e+00, 0.00000000e+00, 0.00000000e+00, 0.00000000e+00, 0.00000000e+00, 0.00000000e+00, 0.00000000e+00, 0.00000000e+00, 0.00000000e+00, 0.00000000e+00, -4.44990605e+00, -1.89521518e+00, -7.17001018e-01, 1.01914800e+00, 0.00000000e+00, 5.0000000000, 5.0000000000, 0.0035078667
          20, 0.00000000e+00, 0.00000000e+00, 0.00000000e+00, 0.00000000e+00, 0.00000000e+00, 0.00000000e+00, 0.00000000e+00, 0.00000000e+00, 0.00000000e+00, 0.00000000e+00, 0.00000000e+00, 0.00000000e+00, -4.44049576e+00, -1.89226712e+00, -7.08243540e-01, 1.02895346e+00, 0.00000000e+00, 5.0000000000, 5.0000000000, 0.0036890000
          21, 0.00000000e+00, 0.00000000e+00, 0.00000000e+00, 0.00000000e+00, 0.00000000e+00, 0.00000000e+00, 0.00000000e+00, 0.00000000e+00, 0.00000000e+00, 0.00000000e+00, 0.00000000e+00, 0.00000000e+00, -4.43100192e+00, -1.89226802e+00, -7.00514960e-01, 1.03873724e+00, 0.00000000e+00, 5.0000000000, 5.0000000000, 0.0038542500
          22, 0.00000000e+00, 0.00000000e+00, 0.00000000e+00, 0.00000000e+00, 0.00000000e+00, 0.00000000e+00, 0.00000000e+00, 0.00000000e+00, 0.00000000e+00, 0.00000000e+00, 0.00000000e+00, 0.00000000e+00, -4.42111926e+00, -1.89578535e+00, -6.93684198e-01, 1.04879176e+00, 0.00000000e+00, 5.0000000000, 5.0000000000, 0.0040275333
          23, 0.00000000e+00, 0.00000000e+00, 0.00000000e+00, 0.00000000e+00, 0.00000000e+00, 0.00000000e+00, 0.00000000e+00, 0.00000000e+00, 0.00000000e+00, 0.00000000e+00, 0.00000000e+00, 0.00000000e+00, -4.41058628e+00, -1.90332473e+00, -6.87643181e-01, 1.05938410e+00, 0.00000000e+00, 5.0000000000, 5.0000000000, 0.0041926000
          24, 0.00000000e+00, 0.00000000e+00, 0.00000000e+00, 0.00000000e+00, 0.00000000e+00, 0.00000000e+00, 0.00000000e+00, 0.00000000e+00, 0.00000000e+00, 0.00000000e+00, 0.00000000e+00, 0.00000000e+00, -4.39940100e+00, -1.91524420e+00, -6.82302396e-01, 1.07054002e+00, 0.00000000e+00, 5.0000000000, 5.0000000000, 0.0043671500
          25, 0.00000000e+00, 0.00000000e+00, 0.00000000e+00, 0.00000000e+00, 0.00000000e+00, 0.00000000e+00, 0.00000000e+00, 0.00000000e+00, 0.00000000e+00, 0.00000000e+00, 0.00000000e+00, 0.00000000e+00, -4.38785177e+00, -1.93166666e+00, -6.77586432e-01, 1.08200597e+00, 0.00000000e+00, 5.0000000000, 5.0000000000, 0.0045450500
          26, 0.00000000e+00, 0.00000000e+00, 0.00000000e+00, 0.00000000e+00, 0.00000000e+00, 0.00000000e+00, 0.00000000e+00, 0.00000000e+00, 0.00000000e+00, 0.00000000e+00, 0.00000000e+00, 0.00000000e+00, -4.37643329e+00, -1.95237407e+00, -6.73430089e-01, 1.09332388e+00, 0.00000000e+00, 5.0000000000, 5.0000000000, 0.0047209500
          27, 0.00000000e+00, 0.00000000e+00, 0.00000000e+00, 0.00000000e+00, 0.00000000e+00, 0.00000000e+00, 0.00000000e+00, 0.00000000e+00, 0.00000000e+00, 0.00000000e+00, 0.00000000e+00, 0.00000000e+00, -4.36573937e+00, -1.97666904e+00, -6.69775339e-01, 1.10393158e+00, 0.00000000e+00, 5.0000000000, 5.0000000000, 0.0049082167
          28, 0.00000000e+00, 0.00000000e+00, 0.00000000e+00, 0.00000000e+00, 0.00000000e+00, 0.00000000e+00, 0.00000000e+00, 0.00000000e+00, 0.00000000e+00, 0.00000000e+00, 0.00000000e+00, 0.00000000e+00, -4.35637175e+00, -2.00320096e+00, -6.66569280e-01, 1.11325085e+00, 0.00000000e+00, 5.0000000000, 5.0000000000, 0.0050843833
          29, 0.00000000e+00, 0.00000000e+00, 0.00000000e+00, 0.00000000e+00, 0.00000000e+00, 0.00000000e+00, 0.00000000e+00, 0.00000000e+00, 0.00000000e+00, 0.00000000e+00, 0.00000000e+00, 0.00000000e+00, -4.34887058e+00, -2.02979458e+00, -6.63762959e-01, 1.12075710e+00, 0.00000000e+00, 5.0000000000, 5.0000000000, 0.0052466000
          30, 0.00000000e+00, 0.00000000e+00, 0.00000000e+00, 0.00000000e+00, 0.00000000e+00, 0.00000000e+00, 0.00000000e+00, 0.00000000e+00, 0.00000000e+00, 0.00000000e+00, 0.00000000e+00, 0.00000000e+00, -4.34366873e+00, -2.05341296e+00, -6.61310586e-01, 1.12602698e+00, 0.00000000e+00, 5.0000000000, 5.0000000000, 0.0054406667
          31, 0.00000000e+00, 0.00000000e+00, 0.00000000e+00, 0.00000000e+00, 0.00000000e+00, 0.00000000e+00, 0.00000000e+00, 0.00000000e+00, 0.00000000e+00, 0.00000000e+00, 0.00000000e+00, 0.00000000e+00, -4.34107301e+00, -2.07050923e+00, -6.59169015e-01, 1.12875963e+00, 0.00000000e+00, 5.0000000000, 5.0000000000, 0.0056200000
          32, 0.00000000e+00, 0.00000000e+00, 0.00000000e+00, 0.00000000e+00, 0.00000000e+00, 0.00000000e+00, 0.00000000e+00, 0.00000000e+00, 0.00000000e+00, 0.00000000e+00, 0.00000000e+00, 0.00000000e+00, -4.34126854e+00, -2.07796663e+00, -6.57300723e-01, 1.12877446e+00, 0.00000000e+00, 5.0000000000, 5.0000000000, 0.0058061833
          33, 0.00000000e+00, 0.00000000e+00, 0.00000000e+00, 0.00000000e+00, 0.00000000e+00, 0.00000000e+00, 0.00000000e+00, 0.00000000e+00, 0.00000000e+00, 0.00000000e+00, 0.00000000e+00, 0.00000000e+00, -4.34433779e+00, -2.07435285e+00, -6.55681063e-01, 1.12599282e+00, 0.00000000e+00, 5.0000000000, 5.0000000000, 0.0059749833
          34, 0.00000000e+00, 0.00000000e+00, 0.00000000e+00, 0.00000000e+00, 0.00000000e+00, 0.00000000e+00, 0.00000000e+00, 0.00000000e+00, 0.00000000e+00, 0.00000000e+00, 0.00000000e+00, 0.00000000e+00, -4.35027887e+00, -2.06056789e+00, -6.54287992e-01, 1.12042043e+00, 0.00000000e+00, 5.0000000000, 5.0000000000, 0.0061428167
          35, 0.00000000e+00, 0.00000000e+00, 0.00000000e+00, 0.00000000e+00, 0.00000000e+00, 0.00000000e+00, 0.00000000e+00, 0.00000000e+00, 0.00000000e+00, 0.00000000e+00, 0.00000000e+00, 0.00000000e+00, -4.35901221e+00, -2.03930417e+00, -6.53097743e-01, 1.11214121e+00, 0.00000000e+00, 5.0000000000, 5.0000000000, 0.0063216833
          36, 0.00000000e+00, 0.00000000e+00, 0.00000000e+00, 0.00000000e+00, 0.00000000e+00, 0.00000000e+00, 0.00000000e+00, 0.00000000e+00, 0.00000000e+00, 0.00000000e+00, 0.00000000e+00, 0.00000000e+00, -4.37037896e+00, -2.01383722e+00, -6.52088646e-01, 1.10131769e+00, 0.00000000e+00, 5.0000000000, 5.0000000000, 0.0064956833
          37, 0.00000000e+00, 0.00000000e+00, 0.00000000e+00, 0.00000000e+00, 0.00000000e+00, 0.00000000e+00, 0.00000000e+00, 0.00000000e+00, 0.00000000e+00, 0.00000000e+00, 0.00000000e+00, 0.00000000e+00, -4.38413276e+00, -1.98704151e+00, -6.51241814e-01, 1.08819742e+00, 0.00000000e+00, 5.0000000000, 5.0000000000, 0.0066650000
          38, 0.00000000e+00, 0.00000000e+00, 0.00000000e+00, 0.00000000e+00, 0.00000000e+00, 0.00000000e+00, 0.00000000e+00, 0.00000000e+00, 0.00000000e+00, 0.00000000e+00, 0.00000000e+00, 0.00000000e+00, -4.39993162e+00, -1.96099036e+00, -6.50540635e-01, 1.07311891e+00, 0.00000000e+00, 5.0000000000, 5.0000000000, 0.0068822333
          39, 0.00000000e+00, 0.00000000e+00, 0.00000000e+00, 0.00000000e+00, 0.00000000e+00, 0.00000000e+00, 0.00000000e+00, 0.00000000e+00, 0.00000000e+00, 0.00000000e+00, 0.00000000e+00, 0.00000000e+00, -4.41733840e+00, -1.93697492e+00, -6.49970291e-01, 1.05650886e+00, 0.00000000e+00, 5.0000000000, 5.0000000000, 0.0070573833
          40, 0.00000000e+00, 0.00000000e+00, 0.00000000e+00, 0.00000000e+00, 0.00000000e+00, 0.00000000e+00, 0.00000000e+00, 0.00000000e+00, 0.00000000e+00, 0.00000000e+00, 0.00000000e+00, 0.00000000e+00, -4.43583811e+00, -1.91568052e+00, -6.49517504e-01, 1.03886291e+00, 0.00000000e+00, 5.0000000000, 5.0000000000, 0.0072660000
          41, 0.00000000e+00, 0.00000000e+00, 0.00000000e+00, 0.00000000e+00, 0.00000000e+00, 0.00000000e+00, 0.00000000e+00, 0.00000000e+00, 0.00000000e+00, 0.00000000e+00, 0.00000000e+00, 0.00000000e+00, -4.45487923e+00, -1.89737240e+00, -6.49170274e-01, 1.02070381e+00, 0.00000000e+00, 5.0000000000, 5.0000000000, 0.0074731333
          42, 0.00000000e+00, 0.00000000e+00, 0.00000000e+00, 0.00000000e+00, 0.00000000e+00, 0.00000000e+00, 0.00000000e+00, 0.00000000e+00, 0.00000000e+00, 0.00000000e+00, 0.00000000e+00, 0.00000000e+00, -4.47393923e+00, -1.88204084e+00, -6.48917773e-01, 1.00251807e+00, 0.00000000e+00, 5.0000000000, 5.0000000000, 0.0076812000
          43, 0.00000000e+00, 0.00000000e+00, 0.00000000e+00, 0.00000000e+00, 0.00000000e+00, 0.00000000e+00, 0.00000000e+00, 0.00000000e+00, 0.00000000e+00, 0.00000000e+00, 0.00000000e+00, 0.00000000e+00, -4.49260592e+00, -1.86950384e+00, -6.48750291e-01, 9.84679521e-01, 0.00000000e+00, 5.0000000000, 5.0000000000, 0.0078847667
          44, 0.00000000e+00, 0.00000000e+00, 0.00000000e+00, 0.00000000e+00, 0.00000000e+00, 0.00000000e+00, 0.00000000e+00, 0.00000000e+00, 0.00000000e+00, 0.00000000e+00, 0.00000000e+00, 0.00000000e+00, -4.51065647e+00, -1.85947824e+00, -6.48659165e-01, 9.67377521e-01, 0.00000000e+00, 5.0000000000, 5.0000000000, 0.0080621167
          45, 0.00000000e+00, 0.00000000e+00, 0.00000000e+00, 0.00000000e+00, 0.00000000e+00, 0.00000000e+00, 0.00000000e+00, 0.00000000e+00, 0.00000000e+00, 0.00000000e+00, 0.00000000e+00, 0.00000000e+00, -4.52811075e+00, -1.85162990e+00, -6.48636691e-01, 9.50570314e-01, 0.00000000e+00, 5.0000000000, 5.0000000000, 0.0082500167
          46, 0.00000000e+00, 0.00000000e+00, 0.00000000e+00, 0.00000000e+00, 0.00000000e+00, 0.00000000e+00, 0.00000000e+00, 0.00000000e+00, 0.00000000e+00, 0.00000000e+00, 0.00000000e+00, 0.00000000e+00, -4.54524186e+00, -1.84561050e+00, -6.48676028e-01, 9.33978116e-01, 0.00000000e+00, 5.0000000000, 5.0000000000, 0.0084218167
          47, 0.00000000e+00, 0.00000000e+00, 0.00000000e+00, 0.00000000e+00, 0.00000000e+00, 0.00000000e+00, 0.00000000e+00, 0.00000000e+00, 0.00000000e+00, 0.00000000e+00, 0.00000000e+00, 0.00000000e+00, -4.56254127e+00, -1.84108522e+00, -6.48771138e-01, 9.17116710e-01, 0.00000000e+00, 5.0000000000, 5.0000000000, 0.0086099500
          48, 0.00000000e+00, 0.00000000e+00, 0.00000000e+00, 0.00000000e+00, 0.00000000e+00, 0.00000000e+00, 0.00000000e+00, 0.00000000e+00, 0.00000000e+00, 0.00000000e+00, 0.00000000e+00, 0.00000000e+00, -4.58065192e+00, -1.83775280e+00, -6.48916558e-01, 8.99358390e-01, 0.00000000e+00, 5.0000000000, 5.0000000000, 0.0087891167
          49, 0.00000000e+00, 0.00000000e+00, 0.00000000e+00, 0.00000000e+00, 0.00000000e+00, 0.00000000e+00, 0.00000000e+00, 0.00000000e+00, 0.00000000e+00, 0.00000000e+00, 0.00000000e+00, 0.00000000e+00, -4.60028942e+00, -1.83536054e+00, -6.49107365e-01, 8.80002205e-01, 0.00000000e+00, 5.0000000000, 5.0000000000, 0.0089800500
          50, 0.00000000e+00, 0.00000000e+00, 0.00000000e+00, 0.00000000e+00, 0.00000000e+00, 0.00000000e+00, 0.00000000e+00, 0.00000000e+00, 0.00000000e+00, 0.00000000e+00, 0.00000000e+00, 0.00000000e+00, -4.62216636e+00, -1.83371422e+00, -6.49339061e-01, 8.58339506e-01, 0.00000000e+00, 5.0000000000, 5.0000000000, 0.0091808000
          51, 0.00000000e+00, 0.00000000e+00, 0.00000000e+00, 0.00000000e+00, 0.00000000e+00, 0.00000000e+00, 0.00000000e+00, 0.00000000e+00, 0.00000000e+00, 0.00000000e+00, 0.00000000e+00, 0.00000000e+00, -4.64692066e+00, -1.83268429e+00, -6.49607539e-01, 8.33713623e-01, 0.00000000e+00, 5.0000000000, 5.0000000000, 0.0093761333
          52, 0.00000000e+00, 0.00000000e+00, 0.00000000e+00, 0.00000000e+00, 0.00000000e+00, 0.00000000e+00, 0.00000000e+00, 0.00000000e+00, 0.00000000e+00, 0.00000000e+00, 0.00000000e+00, 0.00000000e+00, -4.67503275e+00, -1.83220908e+00, -6.49909058e-01, 8.05585825e-01, 0.00000000e+00, 5.0000000000, 5.0000000000, 0.0095544667
          53, 0.00000000e+00, 0.00000000e+00, 0.00000000e+00, 0.00000000e+00, 0.00000000e+00, 0.00000000e+00, 0.00000000e+00, 0.00000000e+00, 0.00000000e+00, 0.00000000e+00, 0.00000000e+00, 0.00000000e+00, -4.70670201e+00, -1.83229623e+00, -6.50240185e-01, 7.73633402e-01, 0.00000000e+00, 5.0000000000, 5.0000000000, 0.0097309500
          54, 0.00000000e+00, 0.00000000e+00, 0.00000000e+00, 0.00000000e+00, 0.00000000e+00, 0.00000000e+00, 0.00000000e+00, 0.00000000e+00, 0.00000000e+00, 0.00000000e+00, 0.00000000e+00, 0.00000000e+00, -4.74162746e+00, -1.83302210e+00, -6.50597784e-01, 7.37929706e-01, 0.00000000e+00, 5.0000000000, 5.0000000000, 0.0099145000
          55, 0.00000000e+00, 0.00000000e+00, 0.00000000e+00, 0.00000000e+00, 0.00000000e+00, 0.00000000e+00, 0.00000000e+00, 0.00000000e+00, 0.00000000e+00, 0.00000000e+00, 0.00000000e+00, 0.00000000e+00, -4.77862548e+00, -1.83452987e+00, -6.50978984e-01, 6.99277538e-01, 0.00000000e+00, 5.0000000000, 5.0000000000, 0.0100955000
          56, 0.00000000e+00, 0.00000000e+00, 0.00000000e+00, 0.00000000e+00, 0.00000000e+00, 0.00000000e+00, 0.00000000e+00, 0.00000000e+00, 0.00000000e+00, 0.00000000e+00, 0.00000000e+00, 0.00000000e+00, -4.81505313e+00, -1.83702544e+00, -6.51381125e-01, 6.59769775e-01, 0.00000000e+00, 5.0000000000, 5.0000000000, 0.0102657500
          57, 0.00000000e+00, 0.00000000e+00, 0.00000000e+00, 0.00000000e+00, 0.00000000e+00, 0.00000000e+00, 0.00000000e+00, 0.00000000e+00, 0.00000000e+00, 0.00000000e+00, 0.00000000e+00, 0.00000000e+00, -4.84624464e+00, -1.84077072e+00, -6.51801745e-01, 6.23508331e-01, 0.00000000e+00, 5.0000000000, 5.0000000000, 0.0104471167
          58, 0.00000000e+00, 0.00000000e+00, 0.00000000e+00, 0.00000000e+00, 0.00000000e+00, 0.00000000e+00, 0.00000000e+00, 0.00000000e+00, 0.00000000e+00, 0.00000000e+00, 0.00000000e+00, 0.00000000e+00, -4.86577416e+00, -1.84607374e+00, -6.52238598e-01, 5.96877451e-01, 0.00000000e+00, 5.0000000000, 5.0000000000, 0.0106290167
          59, 0.00000000e+00, 0.00000000e+00, 0.00000000e+00, 0.00000000e+00, 0.00000000e+00, 0.00000000e+00, 0.00000000e+00, 0.00000000e+00, 0.00000000e+00, 0.00000000e+00, 0.00000000e+00, 0.00000000e+00, -4.86774056e+00, -1.85327549e+00, -6.52689535e-01, 5.86971217e-01, 0.00000000e+00, 5.0000000000, 5.0000000000, 0.0108187000
          60, 0.00000000e+00, 0.00000000e+00, 0.00000000e+00, 0.00000000e+00, 0.00000000e+00, 0.00000000e+00, 0.00000000e+00, 0.00000000e+00, 0.00000000e+00, 0.00000000e+00, 0.00000000e+00, 0.00000000e+00, -4.85044324e+00, -1.86273408e+00, -6.53152531e-01, 5.97645127e-01, 0.00000000e+00, 5.0000000000, 5.0000000000, 0.0110153500
          61, 0.00000000e+00, 0.00000000e+00, 0.00000000e+00, 0.00000000e+00, 0.00000000e+00, 0.00000000e+00, 0.00000000e+00, 0.00000000e+00, 0.00000000e+00, 0.00000000e+00, 0.00000000e+00, 0.00000000e+00, -4.81770219e+00, -1.87480706e+00, -6.53625709e-01, 6.26559583e-01, 0.00000000e+00, 5.0000000000, 5.0000000000, 0.0111945000
          62, 0.00000000e+00, 0.00000000e+00, 0.00000000e+00, 0.00000000e+00, 0.00000000e+00, 0.00000000e+00, 0.00000000e+00, 0.00000000e+00, 0.00000000e+00, 0.00000000e+00, 0.00000000e+00, 0.00000000e+00, -4.77612341e+00, -1.88983278e+00, -6.54107383e-01, 6.67004212e-01, 0.00000000e+00, 5.0000000000, 5.0000000000, 0.0113951167
          63, 0.00000000e+00, 0.00000000e+00, 0.00000000e+00, 0.00000000e+00, 0.00000000e+00, 0.00000000e+00, 0.00000000e+00, 0.00000000e+00, 0.00000000e+00, 0.00000000e+00, 0.00000000e+00, 0.00000000e+00, -4.73166262e+00, -1.90810534e+00, -6.54596058e-01, 7.12074113e-01, 0.00000000e+00, 5.0000000000, 5.0000000000, 0.0115871833
          64, 0.00000000e+00, 0.00000000e+00, 0.00000000e+00, 0.00000000e+00, 0.00000000e+00, 0.00000000e+00, 0.00000000e+00, 0.00000000e+00, 0.00000000e+00, 0.00000000e+00, 0.00000000e+00, 0.00000000e+00, -4.68825060e+00, -1.92983816e+00, -6.55090388e-01, 7.56950031e-01, 0.00000000e+00, 5.0000000000, 5.0000000000, 0.0117572833
          65, 0.00000000e+00, 0.00000000e+00, 0.00000000e+00, 0.00000000e+00, 0.00000000e+00, 0.00000000e+00, 0.00000000e+00, 0.00000000e+00, 0.00000000e+00, 0.00000000e+00, 0.00000000e+00, 0.00000000e+00, -4.64801885e+00, -1.95510792e+00, -6.55589169e-01, 7.98954396e-01, 0.00000000e+00, 5.0000000000, 5.0000000000, 0.0119312167
          66, 0.00000000e+00, 0.00000000e+00, 0.00000000e+00, 0.00000000e+00, 0.00000000e+00, 0.00000000e+00, 0.00000000e+00, 0.00000000e+00, 0.00000000e+00, 0.00000000e+00, 0.00000000e+00, 0.00000000e+00, -4.61193757e+00, -1.98376522e+00, -6.56091326e-01, 8.36846744e-01, 0.00000000e+00, 5.0000000000, 5.0000000000, 0.0121080000
          67, 0.00000000e+00, 0.00000000e+00, 0.00000000e+00, 0.00000000e+00, 0.00000000e+00, 0.00000000e+00, 0.00000000e+00, 0.00000000e+00, 0.00000000e+00, 0.00000000e+00, 0.00000000e+00, 0.00000000e+00, -4.58032946e+00, -2.01529105e+00, -6.56595713e-01, 8.70192870e-01, 0.00000000e+00, 5.0000000000, 5.0000000000, 0.0122901500
          68, 0.00000000e+00, 0.00000000e+00, 0.00000000e+00, 0.00000000e+00, 0.00000000e+00, 0.00000000e+00, 0.00000000e+00, 0.00000000e+00, 0.00000000e+00, 0.00000000e+00, 0.00000000e+00, 0.00000000e+00, -4.55319429e+00, -2.04860596e+00, -6.57101483e-01, 8.98958167e-01, 0.00000000e+00, 5.0000000000, 5.0000000000, 0.0125021333
          69, 0.00000000e+00, 0.00000000e+00, 0.00000000e+00, 0.00000000e+00, 0.00000000e+00, 0.00000000e+00, 0.00000000e+00, 0.00000000e+00, 0.00000000e+00, 0.00000000e+00, 0.00000000e+00, 0.00000000e+00, -4.53037975e+00, -2.08183044e+00, -6.57607929e-01, 9.23293136e-01, 0.00000000e+00, 5.0000000000, 5.0000000000, 0.0127358667
          70, 0.00000000e+00, 0.00000000e+00, 0.00000000e+00, 0.00000000e+00, 0.00000000e+00, 0.00000000e+00, 0.00000000e+00, 0.00000000e+00, 0.00000000e+00, 0.00000000e+00, 0.00000000e+00, 0.00000000e+00, -4.51166639e+00, -2.11212370e+00, -6.58114446e-01, 9.43428145e-01, 0.00000000e+00, 5.0000000000, 5.0000000000, 0.0129513333
          71, 0.00000000e+00, 0.00000000e+00, 0.00000000e+00, 0.00000000e+00, 0.00000000e+00, 0.00000000e+00, 0.00000000e+00, 0.00000000e+00, 0.00000000e+00, 0.00000000e+00, 0.00000000e+00, 0.00000000e+00, -4.49680586e+00, -2.13589207e+00, -6.58620541e-01, 9.59625727e-01, 0.00000000e+00, 5.0000000000, 5.0000000000, 0.0131467333
          72, 0.00000000e+00, 0.00000000e+00, 0.00000000e+00, 0.00000000e+00, 0.00000000e+00, 0.00000000e+00, 0.00000000e+00, 0.00000000e+00, 0.00000000e+00, 0.00000000e+00, 0.00000000e+00, 0.00000000e+00, -4.48553042e+00, -2.14968695e+00, -6.59125829e-01, 9.72167141e-01, 0.00000000e+00, 5.0000000000, 5.0000000000, 0.0133331000
          73, 0.00000000e+00, 0.00000000e+00, 0.00000000e+00, 0.00000000e+00, 0.00000000e+00, 0.00000000e+00, 0.00000000e+00, 0.00000000e+00, 0.00000000e+00, 0.00000000e+00, 0.00000000e+00, 0.00000000e+00, -4.47754607e+00, -2.15165169e+00, -6.59630010e-01, 9.81357649e-01, 0.00000000e+00, 5.0000000000, 5.0000000000, 0.0135325333
          74, 0.00000000e+00, 0.00000000e+00, 0.00000000e+00, 0.00000000e+00, 0.00000000e+00, 0.00000000e+00, 0.00000000e+00, 0.00000000e+00, 0.00000000e+00, 0.00000000e+00, 0.00000000e+00, 0.00000000e+00, -4.47251564e+00, -2.14253061e+00, -6.60132871e-01, 9.87542699e-01, 0.00000000e+00, 5.0000000000, 5.0000000000, 0.0137300667
          75, 0.00000000e+00, 0.00000000e+00, 0.00000000e+00, 0.00000000e+00, 0.00000000e+00, 0.00000000e+00, 0.00000000e+00, 0.00000000e+00, 0.00000000e+00, 0.00000000e+00, 0.00000000e+00, 0.00000000e+00, -4.47003604e+00, -2.12529145e+00, -6.60634276e-01, 9.91129933e-01, 0.00000000e+00, 5.0000000000, 5.0000000000, 0.0139155500
          76, 0.00000000e+00, 0.00000000e+00, 0.00000000e+00, 0.00000000e+00, 0.00000000e+00, 0.00000000e+00, 0.00000000e+00, 0.00000000e+00, 0.00000000e+00, 0.00000000e+00, 0.00000000e+00, 0.00000000e+00, -4.46961467e+00, -2.10374218e+00, -6.61134143e-01, 9.92611761e-01, 0.00000000e+00, 5.0000000000, 5.0000000000, 0.0141043333
          77, 0.00000000e+00, 0.00000000e+00, 0.00000000e+00, 0.00000000e+00, 0.00000000e+00, 0.00000000e+00, 0.00000000e+00, 0.00000000e+00, 0.00000000e+00, 0.00000000e+00, 0.00000000e+00, 0.00000000e+00, -4.47065119e+00, -2.08130335e+00, -6.61632433e-01, 9.92582309e-01, 0.00000000e+00, 5.0000000000, 5.0000000000, 0.0142955333
          78, 0.00000000e+00, 0.00000000e+00, 0.00000000e+00, 0.00000000e+00, 0.00000000e+00, 0.00000000e+00, 0.00000000e+00, 0.00000000e+00, 0.00000000e+00, 0.00000000e+00, 0.00000000e+00, 0.00000000e+00, -4.47243413e+00, -2.06050150e+00, -6.62129138e-01, 9.91739695e-01, 0.00000000e+00, 5.0000000000, 5.0000000000, 0.0144818000
          79, 0.00000000e+00, 0.00000000e+00, 0.00000000e+00, 0.00000000e+00, 0.00000000e+00, 0.00000000e+00, 0.00000000e+00, 0.00000000e+00, 0.00000000e+00, 0.00000000e+00, 0.00000000e+00, 0.00000000e+00, -4.47416413e+00, -2.04300037e+00, -6.62624287e-01, 9.90862571e-01, 0.00000000e+00, 5.0000000000, 5.0000000000, 0.0146787167
          80, 0.00000000e+00, 0.00000000e+00, 0.00000000e+00, 0.00000000e+00, 0.00000000e+00, 0.00000000e+00, 0.00000000e+00, 0.00000000e+00, 0.00000000e+00, 0.00000000e+00, 0.00000000e+00, 0.00000000e+00, -4.47501471e+00, -2.02983031e+00, -6.63117930e-01, 9.90751419e-01, 0.00000000e+00, 5.0000000000, 5.0000000000, 0.0148684000
          81, 0.00000000e+00, 0.00000000e+00, 0.00000000e+00, 0.00000000e+00, 0.00000000e+00, 0.00000000e+00, 0.00000000e+00, 0.00000000e+00, 0.00000000e+00, 0.00000000e+00, 0.00000000e+00, 0.00000000e+00, -4.47423261e+00, -2.02162125e+00, -6.63610116e-01, 9.92133106e-01, 0.00000000e+00, 5.0000000000, 5.0000000000, 0.0150372833
          82, 0.00000000e+00, 0.00000000e+00, 0.00000000e+00, 0.00000000e+00, 0.00000000e+00, 0.00000000e+00, 0.00000000e+00, 0.00000000e+00, 0.00000000e+00, 0.00000000e+00, 0.00000000e+00, 0.00000000e+00, -4.47126045e+00, -2.01877312e+00, -6.64100891e-01, 9.95545549e-01, 0.00000000e+00, 5.0000000000, 5.0000000000, 0.0152126000
          83, 0.00000000e+00, 0.00000000e+00, 0.00000000e+00, 0.00000000e+00, 0.00000000e+00, 0.00000000e+00, 0.00000000e+00, 0.00000000e+00, 0.00000000e+00, 0.00000000e+00, 0.00000000e+00, 0.00000000e+00, -4.46584641e+00, -2.02156499e+00, -6.64590304e-01, 1.00123524e+00, 0.00000000e+00, 5.0000000000, 5.0000000000, 0.0153814333
          84, 0.00000000e+00, 0.00000000e+00, 0.00000000e+00, 0.00000000e+00, 0.00000000e+00, 0.00000000e+00, 0.00000000e+00, 0.00000000e+00, 0.00000000e+00, 0.00000000e+00, 0.00000000e+00, 0.00000000e+00, -4.45809889e+00, -2.03021716e+00, -6.65078397e-01, 1.00910600e+00, 0.00000000e+00, 5.0000000000, 5.0000000000, 0.0155806667
          85, 0.00000000e+00, 0.00000000e+00, 0.00000000e+00, 0.00000000e+00, 0.00000000e+00, 0.00000000e+00, 0.00000000e+00, 0.00000000e+00, 0.00000000e+00, 0.00000000e+00, 0.00000000e+00, 0.00000000e+00, -4.44846234e+00, -2.04491636e+00, -6.65565211e-01, 1.01874097e+00, 0.00000000e+00, 5.0000000000, 5.0000000000, 0.0157637500
          86, 0.00000000e+00, 0.00000000e+00, 0.00000000e+00, 0.00000000e+00, 0.00000000e+00, 0.00000000e+00, 0.00000000e+00, 0.00000000e+00, 0.00000000e+00, 0.00000000e+00, 0.00000000e+00, 0.00000000e+00, -4.43762455e+00, -2.06580520e+00, -6.66050772e-01, 1.02948865e+00, 0.00000000e+00, 5.0000000000, 5.0000000000, 0.0159457167
          87, 0.00000000e+00, 0.00000000e+00, 0.00000000e+00, 0.00000000e+00, 0.00000000e+00, 0.00000000e+00, 0.00000000e+00, 0.00000000e+00, 0.00000000e+00, 0.00000000e+00, 0.00000000e+00, 0.00000000e+00, -4.42639279e+00, -2.09292266e+00, -6.66535091e-01, 1.04057895e+00, 0.00000000e+00, 5.0000000000, 5.0000000000, 0.0161419667
          88, 0.00000000e+00, 0.00000000e+00, 0.00000000e+00, 0.00000000e+00, 0.00000000e+00, 0.00000000e+00, 0.00000000e+00, 0.00000000e+00, 0.00000000e+00, 0.00000000e+00, 0.00000000e+00, 0.00000000e+00, -4.41557949e+00, -2.12606119e+00, -6.67018164e-01, 1.05123171e+00, 0.00000000e+00, 5.0000000000, 5.0000000000, 0.0163285500
          89, 0.00000000e+00, 0.00000000e+00, 0.00000000e+00, 0.00000000e+00, 0.00000000e+00, 0.00000000e+00, 0.00000000e+00, 0.00000000e+00, 0.00000000e+00, 0.00000000e+00, 0.00000000e+00, 0.00000000e+00, -4.40592216e+00, -2.16447309e+00, -6.67499980e-01, 1.06073419e+00, 0.00000000e+00, 5.0000000000, 5.0000000000, 0.0164956667