TITLE = "Visualization of the volumetric solution"
VARIABLES = "x","y","Density","Momentum_x","Momentum_y","Energy","Pressure","Temperature","Mach","C<sub>p</sub>","Roe_Dissipation"
ZONE NODES= 4190, ELEMENTS= 8110, DATAPACKING=POINT, ZONETYPE=FEQUADRILATERAL
4.569681e-02	1.501471e-03	1.227102e+00	5.559108e+01	-8.005723e+00	2.551854e+05	1.015600e+05	2.883186e+02	1.344611e-01	1.960869e-01	0.000000e+00	
4.733293e-02	1.295452e-03	1.227114e+00	5.559528e+01	-8.010075e+00	2.551878e+05	1.015609e+05	2.883180e+02	1.344713e-01	1.967965e-01	0.000000e+00	
4.569681e-02	3.002941e-03	1.227117e+00	5.559870e+01	-8.009997e+00	2.551877e+05	1.015608e+05	2.883170e+02	1.344793e-01	1.967146e-01	0.000000e+00	
4.758073e-02	2.841942e-03	1.227115e+00	5.559482e+01	-8.008437e+00	2.551873e+05	1.015607e+05	2.883174e+02	1.344697e-01	1.966475e-01	0.000000e+00	
4.910887e-02	1.148279e-03	1.227113e+00	5.559523e+01	-8.010977e+00	2.551873e+05	1.015607e+05	2.883179e+02	1.344717e-01	1.966338e-01	0.000000e+00	
4.657002e-02	4.421019e-03	1.227114e+00	5.559825e+01	-8.003927e+00	2.551870e+05	1.015605e+05	2.883172e+02	1.344765e-01	1.965047e-01	0.000000e+00	
4.843750e-02	4.294370e-03	1.227118e+00	5.559374e+01	-8.006428e+00	2.551878e+05	1.015609e+05	2.883174e+02	1.344662e-01	1.968350e-01	0.000000e+00	
4.569681e-02	4.504412e-03	1.227116e+00	5.560138e+01	-8.000151e+00	2.551874e+05	1.015607e+05	2.883171e+02	1.344825e-01	1.965953e-01	0.000000e+00	
4.954481e-02	2.741447e-03	1.227118e+00	5.559173e+01	-8.009913e+00	2.551879e+05	1.015610e+05	2.883176e+02	1.344626e-01	1.968874e-01	0.000000e+00	
5.072780e-02	1.124660e-03	1.227116e+00	5.559271e+01	-8.012619e+00	2.551878e+05	1.015610e+05	2.883179e+02	1.344660e-01	1.968455e-01	0.000000e+00	
4.738093e-02	5.790379e-03	1.227117e+00	5.559647e+01	-8.002650e+00	2.551879e+05	1.015609e+05	2.883175e+02	1.344714e-01	1.968299e-01	0.000000e+00	
4.569681e-02	6.005882e-03	1.227117e+00	5.560005e+01	-7.998068e+00	2.551879e+05	1.015609e+05	2.883174e+02	1.344784e-01	1.967821e-01	0.000000e+00	
5.020692e-02	4.230977e-03	1.227118e+00	5.559135e+01	-8.008216e+00	2.551878e+05	1.015610e+05	2.883175e+02	1.344611e-01	1.968755e-01	0.000000e+00	
4.929231e-02	5.674178e-03	1.227118e+00	5.559308e+01	-8.005140e+00	2.551880e+05	1.015611e+05	2.883176e+02	1.344641e-01	1.969329e-01	0.000000e+00	
5.117273e-02	2.731417e-03	1.227117e+00	5.558991e+01	-8.010871e+00	2.551878e+05	1.015610e+05	2.883177e+02	1.344587e-01	1.968830e-01	0.000000e+00	
5.218003e-02	1.180199e-03	1.227116e+00	5.559078e+01	-8.013065e+00	2.551879e+05	1.015610e+05	2.883179e+02	1.344615e-01	1.968982e-01	0.000000e+00	
4.686120e-02	7.117562e-03	1.227118e+00	5.559644e+01	-7.998534e+00	2.551881e+05	1.015610e+05	2.883177e+02	1.344698e-01	1.969150e-01	0.000000e+00	
4.851730e-02	7.046222e-03	1.227118e+00	5.559302e+01	-8.001431e+00	2.551880e+05	1.015611e+05	2.883177e+02	1.344627e-01	1.969284e-01	0.000000e+00	
5.177670e-02	4.218938e-03	1.227119e+00	5.558937e+01	-8.009772e+00	2.551881e+05	1.015611e+05	2.883176e+02	1.344568e-01	1.969842e-01	0.000000e+00	
5.096092e-02	5.626283e-03	1.227119e+00	5.559044e+01	-8.007244e+00	2.551882e+05	1.015612e+05	2.883177e+02	1.344584e-01	1.970220e-01	0.000000e+00	
4.569681e-02	7.507353e-03	1.227116e+00	5.559804e+01	-7.996186e+00	2.551879e+05	1.015609e+05	2.883177e+02	1.344730e-01	1.968189e-01	0.000000e+00	
5.017661e-02	6.989415e-03	1.227120e+00	5.558935e+01	-8.003811e+00	2.551883e+05	1.015612e+05	2.883178e+02	1.344546e-01	1.970738e-01	0.000000e+00	
5.256562e-02	2.791678e-03	1.227118e+00	5.558852e+01	-8.011779e+00	2.551881e+05	1.015611e+05	2.883178e+02	1.344555e-01	1.969909e-01	0.000000e+00	
5.319615e-02	1.509862e-03	1.227117e+00	5.558891e+01	-8.013302e+00	2.551880e+05	1.015611e+05	2.883179e+02	1.344570e-01	1.969580e-01	0.000000e+00	
4.787090e-02	8.359966e-03	1.227119e+00	5.558979e+01	-7.996810e+00	2.551882e+05	1.015612e+05	2.883178e+02	1.344533e-01	1.970462e-01	0.000000e+00	
4.667331e-02	8.333653e-03	1.227118e+00	5.559406e+01	-7.995235e+00	2.551881e+05	1.015611e+05	2.883177e+02	1.344630e-01	1.969576e-01	0.000000e+00	
4.944217e-02	8.315081e-03	1.227120e+00	5.558523e+01	-7.999664e+00	2.551882e+05	1.015613e+05	2.883179e+02	1.344434e-01	1.971239e-01	0.000000e+00	
5.419501e-02	1.182631e-03	1.227118e+00	5.558853e+01	-8.014133e+00	2.551881e+05	1.015611e+05	2.883180e+02	1.344564e-01	1.969921e-01	0.000000e+00	
5.320975e-02	4.213305e-03	1.227119e+00	5.558804e+01	-8.010922e+00	2.551881e+05	1.015612e+05	2.883177e+02	1.344540e-01	1.970254e-01	0.000000e+00	
5.249371e-02	5.602531e-03	1.227120e+00	5.558825e+01	-8.008733e+00	2.551882e+05	1.015612e+05	2.883177e+02	1.344537e-01	1.970617e-01	0.000000e+00	
5.175034e-02	6.952956e-03	1.227120e+00	5.558640e+01	-8.005741e+00	2.551882e+05	1.015613e+05	2.883178e+02	1.344483e-01	1.970992e-01	0.000000e+00	
4.569681e-02	9.008824e-03	1.227119e+00	5.559457e+01	-7.991924e+00	2.551882e+05	1.015611e+05	2.883177e+02	1.344631e-01	1.969814e-01	0.000000e+00	
5.101316e-02	8.273093e-03	1.227120e+00	5.558160e+01	-8.002058e+00	2.551882e+05	1.015613e+05	2.883179e+02	1.344355e-01	1.971723e-01	0.000000e+00	
5.382342e-02	2.781976e-03	1.227118e+00	5.558748e+01	-8.012579e+00	2.551880e+05	1.015611e+05	2.883178e+02	1.344533e-01	1.969949e-01	0.000000e+00	
4.695514e-02	9.711521e-03	1.227119e+00	5.558401e+01	-7.989842e+00	2.551880e+05	1.015612e+05	2.883179e+02	1.344372e-01	1.970898e-01	0.000000e+00	
4.870349e-02	9.629457e-03	1.227121e+00	5.557804e+01	-7.994197e+00	2.551882e+05	1.015614e+05	2.883180e+02	1.344243e-01	1.972510e-01	0.000000e+00	
5.028411e-02	9.576778e-03	1.227121e+00	5.557484e+01	-7.998049e+00	2.551881e+05	1.015614e+05	2.883180e+02	1.344181e-01	1.972459e-01	0.000000e+00	
5.513486e-02	2.696156e-03	1.227119e+00	5.558650e+01	-8.013415e+00	2.551882e+05	1.015612e+05	2.883178e+02	1.344512e-01	1.970530e-01	0.000000e+00	
5.558173e-02	1.122176e-03	1.227118e+00	5.558735e+01	-8.014807e+00	2.551882e+05	1.015612e+05	2.883180e+02	1.344537e-01	1.970389e-01	0.000000e+00	
5.395376e-02	5.579038e-03	1.227120e+00	5.558627e+01	-8.009946e+00	2.551883e+05	1.015613e+05	2.883178e+02	1.344494e-01	1.971096e-01	0.000000e+00	
5.459643e-02	4.180964e-03	1.227120e+00	5.558669e+01	-8.011949e+00	2.551882e+05	1.015612e+05	2.883178e+02	1.344511e-01	1.970793e-01	0.000000e+00	
5.325495e-02	6.925640e-03	1.227120e+00	5.558372e+01	-8.007299e+00	2.551883e+05	1.015613e+05	2.883179e+02	1.344424e-01	1.971502e-01	0.000000e+00	
5.253642e-02	8.240688e-03	1.227121e+00	5.557878e+01	-8.004210e+00	2.551882e+05	1.015614e+05	2.883180e+02	1.344296e-01	1.972042e-01	0.000000e+00	
4.569681e-02	1.051029e-02	1.227120e+00	5.558519e+01	-7.982605e+00	2.551881e+05	1.015613e+05	2.883178e+02	1.344375e-01	1.971147e-01	0.000000e+00	
5.181432e-02	9.538670e-03	1.227121e+00	5.557296e+01	-8.001222e+00	2.551882e+05	1.015615e+05	2.883180e+02	1.344146e-01	1.972829e-01	0.000000e+00	
4.802778e-02	1.094344e-02	1.227122e+00	5.556959e+01	-7.989002e+00	2.551880e+05	1.015615e+05	2.883181e+02	1.344024e-01	1.973193e-01	0.000000e+00	
4.956289e-02	1.087395e-02	1.227122e+00	5.556893e+01	-7.994707e+00	2.551882e+05	1.015616e+05	2.883181e+02	1.344027e-01	1.973827e-01	0.000000e+00	
4.677227e-02	1.110944e-02	1.227119e+00	5.557221e+01	-7.981954e+00	2.551875e+05	1.015613e+05	2.883180e+02	1.344065e-01	1.971319e-01	0.000000e+00	
5.109160e-02	1.082921e-02	1.227122e+00	5.556986e+01	-7.999471e+00	2.551883e+05	1.015616e+05	2.883181e+02	1.344066e-01	1.973746e-01	0.000000e+00	
5.600610e-02	4.139899e-03	1.227120e+00	5.558545e+01	-8.012744e+00	2.551883e+05	1.015613e+05	2.883178e+02	1.344484e-01	1.971065e-01	0.000000e+00	
5.655040e-02	2.655430e-03	1.227119e+00	5.558556e+01	-8.014110e+00	2.551882e+05	1.015612e+05	2.883179e+02	1.344492e-01	1.970863e-01	0.000000e+00	
5.704847e-02	1.112254e-03	1.227119e+00	5.558628e+01	-8.015262e+00	2.551882e+05	1.015612e+05	2.883180e+02	1.344513e-01	1.970763e-01	0.000000e+00	
5.539296e-02	5.549468e-03	1.227120e+00	5.558446e+01	-8.010905e+00	2.551883e+05	1.015613e+05	2.883178e+02	1.344454e-01	1.971347e-01	0.000000e+00	
5.472337e-02	6.899421e-03	1.227120e+00	5.558146e+01	-8.008547e+00	2.551883e+05	1.015613e+05	2.883179e+02	1.344374e-01	1.971704e-01	0.000000e+00	
5.402311e-02	8.213349e-03	1.227121e+00	5.557667e+01	-8.005977e+00	2.551882e+05	1.015614e+05	2.883180e+02	1.344251e-01	1.972201e-01	0.000000e+00	
5.331052e-02	9.508645e-03	1.227121e+00	5.557219e+01	-8.003870e+00	2.551881e+05	1.015615e+05	2.883180e+02	1.344137e-01	1.972805e-01	0.000000e+00	
4.569681e-02	1.201176e-02	1.227119e+00	5.556875e+01	-7.969982e+00	2.551873e+05	1.015613e+05	2.883181e+02	1.343943e-01	1.971173e-01	0.000000e+00	
5.259324e-02	1.079580e-02	1.227122e+00	5.557170e+01	-8.003166e+00	2.551884e+05	1.015616e+05	2.883181e+02	1.344122e-01	1.973654e-01	0.000000e+00	
4.883436e-02	1.216020e-02	1.227124e+00	5.556963e+01	-7.993731e+00	2.551887e+05	1.015618e+05	2.883183e+02	1.344038e-01	1.975176e-01	0.000000e+00	
4.727646e-02	1.218850e-02	1.227126e+00	5.556584e+01	-7.984787e+00	2.551890e+05	1.015620e+05	2.883183e+02	1.343916e-01	1.976999e-01	0.000000e+00	
5.036395e-02	1.211647e-02	1.227124e+00	5.557422e+01	-7.999995e+00	2.551889e+05	1.015618e+05	2.883182e+02	1.344168e-01	1.975253e-01	0.000000e+00	
5.187132e-02	1.208014e-02	1.227124e+00	5.557938e+01	-8.004695e+00	2.551890e+05	1.015617e+05	2.883181e+02	1.344308e-01	1.974627e-01	0.000000e+00	
5.683935e-02	5.520308e-03	1.227121e+00	5.558274e+01	-8.011695e+00	2.551883e+05	1.015613e+05	2.883178e+02	1.344415e-01	1.971612e-01	0.000000e+00	
5.745047e-02	4.111238e-03	1.227120e+00	5.558421e+01	-8.013397e+00	2.551883e+05	1.015613e+05	2.883178e+02	1.344456e-01	1.971355e-01	0.000000e+00	
5.801104e-02	2.638046e-03	1.227120e+00	5.558464e+01	-8.014665e+00	2.551883e+05	1.015613e+05	2.883179e+02	1.344471e-01	1.971196e-01	0.000000e+00	
5.853604e-02	1.114943e-03	1.227119e+00	5.558538e+01	-8.015668e+00	2.551883e+05	1.015613e+05	2.883180e+02	1.344493e-01	1.971062e-01	0.000000e+00	
5.618128e-02	6.872814e-03	1.227121e+00	5.557948e+01	-8.009596e+00	2.551882e+05	1.015614e+05	2.883179e+02	1.344330e-01	1.971923e-01	0.000000e+00	
5.549185e-02	8.187624e-03	1.227121e+00	5.557514e+01	-8.007506e+00	2.551881e+05	1.015614e+05	2.883180e+02	1.344220e-01	1.972328e-01	0.000000e+00	
5.478658e-02	9.482308e-03	1.227121e+00	5.557214e+01	-8.006104e+00	2.551882e+05	1.015615e+05	2.883180e+02	1.344144e-01	1.972858e-01	0.000000e+00	
5.407451e-02	1.076806e-02	1.227122e+00	5.557413e+01	-8.006206e+00	2.551884e+05	1.015616e+05	2.883181e+02	1.344190e-01	1.973507e-01	0.000000e+00	
4.658518e-02	1.351172e-02	1.227131e+00	5.556895e+01	-7.981912e+00	2.551905e+05	1.015625e+05	2.883187e+02	1.343973e-01	1.981676e-01	0.000000e+00	
5.335843e-02	1.205057e-02	1.227123e+00	5.558446e+01	-8.008301e+00	2.551892e+05	1.015617e+05	2.883181e+02	1.344441e-01	1.974344e-01	0.000000e+00	
4.962332e-02	1.340528e-02	1.227126e+00	5.558944e+01	-8.003247e+00	2.551901e+05	1.015620e+05	2.883183e+02	1.344538e-01	1.976949e-01	0.000000e+00	
4.808977e-02	1.345115e-02	1.227128e+00	5.558036e+01	-7.995260e+00	2.551901e+05	1.015621e+05	2.883184e+02	1.344294e-01	1.978220e-01	0.000000e+00	
5.114024e-02	1.336474e-02	1.227126e+00	5.559723e+01	-8.008401e+00	2.551903e+05	1.015619e+05	2.883182e+02	1.344741e-01	1.976033e-01	0.000000e+00	
4.569681e-02	1.351324e-02	1.227124e+00	5.556346e+01	-7.965076e+00	2.551884e+05	1.015619e+05	2.883186e+02	1.343794e-01	1.976029e-01	0.000000e+00	
5.263677e-02	1.333241e-02	1.227125e+00	5.560402e+01	-8.012142e+00	2.551904e+05	1.015618e+05	2.883181e+02	1.344916e-01	1.975305e-01	0.000000e+00	
5.764065e-02	6.847394e-03	1.227121e+00	5.557780e+01	-8.010479e+00	2.551882e+05	1.015614e+05	2.883179e+02	1.344293e-01	1.972046e-01	0.000000e+00	
5.829754e-02	5.495833e-03	1.227121e+00	5.558112e+01	-8.012325e+00	2.551883e+05	1.015614e+05	2.883179e+02	1.344379e-01	1.971789e-01	0.000000e+00	
5.891439e-02	4.092071e-03	1.227120e+00	5.558298e+01	-8.013899e+00	2.551883e+05	1.015613e+05	2.883179e+02	1.344429e-01	1.971570e-01	0.000000e+00	
5.948818e-02	2.629996e-03	1.227120e+00	5.558376e+01	-8.015096e+00	2.551883e+05	1.015613e+05	2.883179e+02	1.344452e-01	1.971454e-01	0.000000e+00	
6.002962e-02	1.121366e-03	1.227119e+00	5.558458e+01	-8.015997e+00	2.551883e+05	1.015613e+05	2.883180e+02	1.344474e-01	1.971348e-01	0.000000e+00	
5.695520e-02	8.162565e-03	1.227121e+00	5.557411e+01	-8.008824e+00	2.551881e+05	1.015614e+05	2.883180e+02	1.344200e-01	1.972395e-01	0.000000e+00	
5.625369e-02	9.457341e-03	1.227121e+00	5.557269e+01	-8.008017e+00	2.551882e+05	1.015615e+05	2.883180e+02	1.344163e-01	1.972827e-01	0.000000e+00	
5.554478e-02	1.074273e-02	1.227122e+00	5.557693e+01	-8.008712e+00	2.551885e+05	1.015615e+05	2.883180e+02	1.344265e-01	1.973372e-01	0.000000e+00	
5.483239e-02	1.202454e-02	1.227123e+00	5.558942e+01	-8.011180e+00	2.551893e+05	1.015616e+05	2.883180e+02	1.344568e-01	1.974010e-01	0.000000e+00	
4.730874e-02	1.475414e-02	1.227132e+00	5.560190e+01	-8.003495e+00	2.551923e+05	1.015626e+05	2.883187e+02	1.344826e-01	1.982278e-01	0.000000e+00	
4.569681e-02	1.501471e-02	1.227130e+00	5.558360e+01	-7.992463e+00	2.551915e+05	1.015627e+05	2.883194e+02	1.344356e-01	1.982710e-01	0.000000e+00	
5.411691e-02	1.330525e-02	1.227124e+00	5.561001e+01	-8.014967e+00	2.551905e+05	1.015617e+05	2.883180e+02	1.345068e-01	1.974791e-01	0.000000e+00	
5.039244e-02	1.465288e-02	1.227127e+00	5.562273e+01	-8.013556e+00	2.551919e+05	1.015620e+05	2.883182e+02	1.345361e-01	1.977508e-01	0.000000e+00	
4.886200e-02	1.470553e-02	1.227129e+00	5.561430e+01	-8.009191e+00	2.551920e+05	1.015623e+05	2.883184e+02	1.345144e-01	1.979277e-01	0.000000e+00	
5.190522e-02	1.461492e-02	1.227126e+00	5.562926e+01	-8.016600e+00	2.551919e+05	1.015619e+05	2.883181e+02	1.345527e-01	1.976483e-01	0.000000e+00	
5.339650e-02	1.458578e-02	1.227125e+00	5.563465e+01	-8.018973e+00	2.551919e+05	1.015618e+05	2.883181e+02	1.345664e-01	1.975629e-01	0.000000e+00	
5.841839e-02	8.138234e-03	1.227121e+00	5.557353e+01	-8.009985e+00	2.551881e+05	1.015614e+05	2.883180e+02	1.344190e-01	1.972450e-01	0.000000e+00	
5.910364e-02	6.823825e-03	1.227121e+00	5.557639e+01	-8.011240e+00	2.551882e+05	1.015614e+05	2.883179e+02	1.344263e-01	1.972157e-01	0.000000e+00	
5.976303e-02	5.475058e-03	1.227121e+00	5.557961e+01	-8.012837e+00	2.551883e+05	1.015614e+05	2.883179e+02	1.344345e-01	1.971941e-01	0.000000e+00	
6.038647e-02	4.077517e-03	1.227121e+00	5.558178e+01	-8.014287e+00	2.551883e+05	1.015613e+05	2.883179e+02	1.344401e-01	1.971749e-01	0.000000e+00	
6.097074e-02	2.625297e-03	1.227120e+00	5.558291e+01	-8.015425e+00	2.551883e+05	1.015613e+05	2.883179e+02	1.344432e-01	1.971652e-01	0.000000e+00	
6.152489e-02	1.128904e-03	1.227120e+00	5.558386e+01	-8.016255e+00	2.551884e+05	1.015613e+05	2.883180e+02	1.344458e-01	1.971538e-01	0.000000e+00	
5.771807e-02	9.432921e-03	1.227122e+00	5.557370e+01	-8.009678e+00	2.551882e+05	1.015615e+05	2.883180e+02	1.344193e-01	1.972811e-01	0.000000e+00	
5.701052e-02	1.071825e-02	1.227122e+00	5.557997e+01	-8.010833e+00	2.551887e+05	1.015615e+05	2.883180e+02	1.344345e-01	1.973249e-01	0.000000e+00	
5.629986e-02	1.199989e-02	1.227123e+00	5.559417e+01	-8.013529e+00	2.551895e+05	1.015616e+05	2.883180e+02	1.344689e-01	1.973774e-01	0.000000e+00	
5.558744e-02	1.328028e-02	1.227124e+00	5.561536e+01	-8.017213e+00	2.551906e+05	1.015617e+05	2.883180e+02	1.345203e-01	1.974373e-01	0.000000e+00	
4.809171e-02	1.604425e-02	1.227131e+00	5.564266e+01	-8.015973e+00	2.551939e+05	1.015625e+05	2.883185e+02	1.345836e-01	1.981085e-01	0.000000e+00	
4.686796e-02	1.601423e-02	1.227143e+00	5.563418e+01	-8.016469e+00	2.551961e+05	1.015635e+05	2.883187e+02	1.345623e-01	1.989925e-01	0.000000e+00	
5.487285e-02	1.456031e-02	1.227125e+00	5.563914e+01	-8.020817e+00	2.551919e+05	1.015617e+05	2.883180e+02	1.345778e-01	1.975051e-01	0.000000e+00	
5.115748e-02	1.589796e-02	1.227128e+00	5.565249e+01	-8.020267e+00	2.551933e+05	1.015620e+05	2.883182e+02	1.346089e-01	1.977572e-01	0.000000e+00	
4.961480e-02	1.594641e-02	1.227130e+00	5.564775e+01	-8.018197e+00	2.551937e+05	1.015623e+05	2.883184e+02	1.345966e-01	1.979812e-01	0.000000e+00	
5.266823e-02	1.586613e-02	1.227126e+00	5.565599e+01	-8.021949e+00	2.551932e+05	1.015619e+05	2.883181e+02	1.346179e-01	1.976617e-01	0.000000e+00	
4.569681e-02	1.651618e-02	1.227161e+00	5.563749e+01	-8.019780e+00	2.552003e+05	1.015652e+05	2.883192e+02	1.345693e-01	2.003481e-01	0.000000e+00	
5.415482e-02	1.584011e-02	1.227125e+00	5.565879e+01	-8.023332e+00	2.551931e+05	1.015618e+05	2.883181e+02	1.346251e-01	1.975742e-01	0.000000e+00	
5.988247e-02	8.114565e-03	1.227121e+00	5.557334e+01	-8.011012e+00	2.551881e+05	1.015614e+05	2.883180e+02	1.344189e-01	1.972480e-01	0.000000e+00	
5.918207e-02	9.408820e-03	1.227122e+00	5.557510e+01	-8.011134e+00	2.551883e+05	1.015615e+05	2.883180e+02	1.344231e-01	1.972777e-01	0.000000e+00	
6.056894e-02	6.801565e-03	1.227121e+00	5.557528e+01	-8.011898e+00	2.551882e+05	1.015614e+05	2.883179e+02	1.344238e-01	1.972233e-01	0.000000e+00	
6.123166e-02	5.456141e-03	1.227121e+00	5.557825e+01	-8.013252e+00	2.551882e+05	1.015614e+05	2.883179e+02	1.344314e-01	1.972055e-01	0.000000e+00	
6.186133e-02	4.064727e-03	1.227121e+00	5.558061e+01	-8.014580e+00	2.551883e+05	1.015614e+05	2.883179e+02	1.344374e-01	1.971893e-01	0.000000e+00	
6.245485e-02	2.621637e-03	1.227120e+00	5.558205e+01	-8.015666e+00	2.551884e+05	1.015614e+05	2.883179e+02	1.344412e-01	1.971821e-01	0.000000e+00	
6.302058e-02	1.136721e-03	1.227120e+00	5.558318e+01	-8.016457e+00	2.551884e+05	1.015613e+05	2.883180e+02	1.344442e-01	1.971727e-01	0.000000e+00	
5.847487e-02	1.069405e-02	1.227122e+00	5.558317e+01	-8.012646e+00	2.551888e+05	1.015615e+05	2.883180e+02	1.344427e-01	1.973140e-01	0.000000e+00	
5.776483e-02	1.197565e-02	1.227123e+00	5.559872e+01	-8.015486e+00	2.551896e+05	1.015616e+05	2.883180e+02	1.344804e-01	1.973561e-01	0.000000e+00	
5.705359e-02	1.325599e-02	1.227124e+00	5.562018e+01	-8.019034e+00	2.551908e+05	1.015616e+05	2.883179e+02	1.345324e-01	1.974047e-01	0.000000e+00	
5.634145e-02	1.453596e-02	1.227124e+00	5.564299e+01	-8.022309e+00	2.551920e+05	1.015617e+05	2.883180e+02	1.345875e-01	1.974577e-01	0.000000e+00	
4.737633e-02	1.729631e-02	1.227129e+00	5.565598e+01	-8.020309e+00	2.551943e+05	1.015624e+05	2.883189e+02	1.346169e-01	1.980360e-01	0.000000e+00	
4.874549e-02	1.722151e-02	1.227131e+00	5.566083e+01	-8.021630e+00	2.551947e+05	1.015624e+05	2.883186e+02	1.346287e-01	1.980823e-01	0.000000e+00	
5.562798e-02	1.581575e-02	1.227125e+00	5.566100e+01	-8.024456e+00	2.551930e+05	1.015618e+05	2.883180e+02	1.346308e-01	1.975148e-01	0.000000e+00	
5.193010e-02	1.714490e-02	1.227127e+00	5.566682e+01	-8.023541e+00	2.551939e+05	1.015620e+05	2.883183e+02	1.346440e-01	1.977405e-01	0.000000e+00	
5.038687e-02	1.717545e-02	1.227128e+00	5.566456e+01	-8.022473e+00	2.551942e+05	1.015622e+05	2.883184e+02	1.346381e-01	1.978812e-01	0.000000e+00	
5.343214e-02	1.711941e-02	1.227126e+00	5.566829e+01	-8.024469e+00	2.551937e+05	1.015619e+05	2.883182e+02	1.346479e-01	1.976438e-01	0.000000e+00	
4.569681e-02	1.801765e-02	1.227133e+00	5.564743e+01	-8.026022e+00	2.551955e+05	1.015630e+05	2.883196e+02	1.345979e-01	1.985447e-01	0.000000e+00	
5.491257e-02	1.709536e-02	1.227125e+00	5.566926e+01	-8.025299e+00	2.551935e+05	1.015618e+05	2.883181e+02	1.346506e-01	1.975694e-01	0.000000e+00	
6.134717e-02	8.091297e-03	1.227121e+00	5.557352e+01	-8.011933e+00	2.551882e+05	1.015614e+05	2.883180e+02	1.344197e-01	1.972500e-01	0.000000e+00	
6.064621e-02	9.384922e-03	1.227122e+00	5.557680e+01	-8.012424e+00	2.551884e+05	1.015615e+05	2.883180e+02	1.344275e-01	1.972747e-01	0.000000e+00	
5.993893e-02	1.066996e-02	1.227122e+00	5.558647e+01	-8.014217e+00	2.551889e+05	1.015615e+05	2.883180e+02	1.344510e-01	1.973045e-01	0.000000e+00	
6.203522e-02	6.779928e-03	1.227121e+00	5.557444e+01	-8.012479e+00	2.551881e+05	1.015614e+05	2.883179e+02	1.344220e-01	1.972292e-01	0.000000e+00	
6.270134e-02	5.437921e-03	1.227121e+00	5.557703e+01	-8.013595e+00	2.551882e+05	1.015614e+05	2.883179e+02	1.344286e-01	1.972143e-01	0.000000e+00	
6.333696e-02	4.052467e-03	1.227121e+00	5.557949e+01	-8.014797e+00	2.551883e+05	1.015614e+05	2.883179e+02	1.344348e-01	1.972001e-01	0.000000e+00	
6.393932e-02	2.618217e-03	1.227121e+00	5.558120e+01	-8.015835e+00	2.551884e+05	1.015614e+05	2.883180e+02	1.344393e-01	1.971944e-01	0.000000e+00	
6.451634e-02	1.144557e-03	1.227120e+00	5.558252e+01	-8.016596e+00	2.551884e+05	1.015614e+05	2.883180e+02	1.344427e-01	1.971853e-01	0.000000e+00	
5.922903e-02	1.195151e-02	1.227123e+00	5.560307e+01	-8.017139e+00	2.551898e+05	1.015615e+05	2.883179e+02	1.344913e-01	1.973390e-01	0.000000e+00	
5.851816e-02	1.323185e-02	1.227123e+00	5.562455e+01	-8.020544e+00	2.551909e+05	1.015616e+05	2.883179e+02	1.345433e-01	1.973782e-01	0.000000e+00	
5.780685e-02	1.451183e-02	1.227124e+00	5.564631e+01	-8.023528e+00	2.551920e+05	1.015616e+05	2.883179e+02	1.345958e-01	1.974213e-01	0.000000e+00	
5.709508e-02	1.579169e-02	1.227124e+00	5.566279e+01	-8.025382e+00	2.551929e+05	1.015617e+05	2.883180e+02	1.346354e-01	1.974665e-01	0.000000e+00	
4.808169e-02	1.840797e-02	1.227132e+00	5.565895e+01	-8.025547e+00	2.551951e+05	1.015626e+05	2.883188e+02	1.346253e-01	1.982516e-01	0.000000e+00	
4.963145e-02	1.843557e-02	1.227129e+00	5.566255e+01	-8.024531e+00	2.551944e+05	1.015623e+05	2.883186e+02	1.346339e-01	1.979644e-01	0.000000e+00	
4.684279e-02	1.861256e-02	1.227134e+00	5.565394e+01	-8.028467e+00	2.551956e+05	1.015629e+05	2.883191e+02	1.346141e-01	1.984966e-01	0.000000e+00	
5.638263e-02	1.707148e-02	1.227124e+00	5.566990e+01	-8.025999e+00	2.551934e+05	1.015618e+05	2.883181e+02	1.346524e-01	1.975118e-01	0.000000e+00	
5.270503e-02	1.839797e-02	1.227126e+00	5.566605e+01	-8.024956e+00	2.551938e+05	1.015620e+05	2.883184e+02	1.346427e-01	1.977033e-01	0.000000e+00	
5.118751e-02	1.842001e-02	1.227127e+00	5.566473e+01	-8.024531e+00	2.551941e+05	1.015621e+05	2.883185e+02	1.346393e-01	1.978158e-01	0.000000e+00	
5.419475e-02	1.837481e-02	1.227125e+00	5.566683e+01	-8.025452e+00	2.551936e+05	1.015619e+05	2.883183e+02	1.346448e-01	1.976201e-01	0.000000e+00	
4.569681e-02	1.951912e-02	1.227132e+00	5.564512e+01	-8.037040e+00	2.551947e+05	1.015627e+05	2.883190e+02	1.345964e-01	1.983090e-01	0.000000e+00	
5.566917e-02	1.835121e-02	1.227125e+00	5.566724e+01	-8.025946e+00	2.551934e+05	1.015618e+05	2.883182e+02	1.346461e-01	1.975538e-01	0.000000e+00	
6.281212e-02	8.068201e-03	1.227121e+00	5.557403e+01	-8.012766e+00	2.551882e+05	1.015614e+05	2.883180e+02	1.344211e-01	1.972509e-01	0.000000e+00	
6.211048e-02	9.361127e-03	1.227122e+00	5.557876e+01	-8.013576e+00	2.551885e+05	1.015615e+05	2.883180e+02	1.344326e-01	1.972714e-01	0.000000e+00	
6.140298e-02	1.064593e-02	1.227122e+00	5.558983e+01	-8.015591e+00	2.551891e+05	1.015615e+05	2.883179e+02	1.344595e-01	1.972961e-01	0.000000e+00	
6.069305e-02	1.192741e-02	1.227123e+00	5.560723e+01	-8.018554e+00	2.551899e+05	1.015615e+05	2.883179e+02	1.345017e-01	1.973244e-01	0.000000e+00	
6.350182e-02	6.758508e-03	1.227121e+00	5.557388e+01	-8.013000e+00	2.551881e+05	1.015614e+05	2.883179e+02	1.344209e-01	1.972334e-01	0.000000e+00	
6.417129e-02	5.419892e-03	1.227121e+00	5.557598e+01	-8.013884e+00	2.551882e+05	1.015614e+05	2.883179e+02	1.344262e-01	1.972210e-01	0.000000e+00	
6.481275e-02	4.040308e-03	1.227121e+00	5.557842e+01	-8.014959e+00	2.551883e+05	1.015614e+05	2.883179e+02	1.344323e-01	1.972091e-01	0.000000e+00	
6.542382e-02	2.614795e-03	1.227121e+00	5.558035e+01	-8.015947e+00	2.551884e+05	1.015614e+05	2.883180e+02	1.344373e-01	1.972045e-01	0.000000e+00	
6.601210e-02	1.152334e-03	1.227120e+00	5.558187e+01	-8.016693e+00	2.551884e+05	1.015614e+05	2.883180e+02	1.344412e-01	1.971967e-01	0.000000e+00	
5.998226e-02	1.320774e-02	1.227123e+00	5.562853e+01	-8.021810e+00	2.551910e+05	1.015616e+05	2.883179e+02	1.345532e-01	1.973566e-01	0.000000e+00	
5.927118e-02	1.448773e-02	1.227124e+00	5.564921e+01	-8.024537e+00	2.551921e+05	1.015616e+05	2.883179e+02	1.346031e-01	1.973916e-01	0.000000e+00	
5.855994e-02	1.576763e-02	1.227124e+00	5.566424e+01	-8.026144e+00	2.551929e+05	1.015617e+05	2.883180e+02	1.346392e-01	1.974287e-01	0.000000e+00	
5.784848e-02	1.704748e-02	1.227124e+00	5.567029e+01	-8.026590e+00	2.551933e+05	1.015617e+05	2.883181e+02	1.346536e-01	1.974658e-01	0.000000e+00	
4.888284e-02	1.970393e-02	1.227128e+00	5.565149e+01	-8.027252e+00	2.551939e+05	1.015623e+05	2.883187e+02	1.346087e-01	1.979580e-01	0.000000e+00	
4.727992e-02	1.969935e-02	1.227129e+00	5.564839e+01	-8.030016e+00	2.551940e+05	1.015624e+05	2.883188e+02	1.346022e-01	1.980482e-01	0.000000e+00	
5.044353e-02	1.969650e-02	1.227127e+00	5.565408e+01	-8.026122e+00	2.551937e+05	1.015622e+05	2.883186e+02	1.346146e-01	1.978449e-01	0.000000e+00	
5.713670e-02	1.832733e-02	1.227124e+00	5.566740e+01	-8.026394e+00	2.551933e+05	1.015617e+05	2.883182e+02	1.346467e-01	1.975012e-01	0.000000e+00	
5.347385e-02	1.965473e-02	1.227126e+00	5.565743e+01	-8.025847e+00	2.551933e+05	1.015619e+05	2.883184e+02	1.346227e-01	1.976584e-01	0.000000e+00	
5.197362e-02	1.967738e-02	1.227126e+00	5.565605e+01	-8.025810e+00	2.551935e+05	1.015620e+05	2.883184e+02	1.346193e-01	1.977443e-01	0.000000e+00	
5.495422e-02	1.963113e-02	1.227125e+00	5.565838e+01	-8.026044e+00	2.551931e+05	1.015618e+05	2.883183e+02	1.346251e-01	1.975892e-01	0.000000e+00	
4.656018e-02	2.101427e-02	1.227128e+00	5.564000e+01	-8.033864e+00	2.551933e+05	1.015622e+05	2.883186e+02	1.345837e-01	1.979202e-01	0.000000e+00	
5.642436e-02	1.960722e-02	1.227124e+00	5.565901e+01	-8.026298e+00	2.551930e+05	1.015618e+05	2.883182e+02	1.346267e-01	1.975321e-01	0.000000e+00	
6.427714e-02	8.045159e-03	1.227121e+00	5.557482e+01	-8.013530e+00	2.551882e+05	1.015614e+05	2.883180e+02	1.344233e-01	1.972512e-01	0.000000e+00	
6.357480e-02	9.337371e-03	1.227122e+00	5.558092e+01	-8.014615e+00	2.551886e+05	1.015615e+05	2.883180e+02	1.344381e-01	1.972682e-01	0.000000e+00	
6.286705e-02	1.062191e-02	1.227122e+00	5.559321e+01	-8.016804e+00	2.551892e+05	1.015615e+05	2.883179e+02	1.344679e-01	1.972888e-01	0.000000e+00	
6.215705e-02	1.190331e-02	1.227122e+00	5.561120e+01	-8.019776e+00	2.551901e+05	1.015615e+05	2.883179e+02	1.345115e-01	1.973122e-01	0.000000e+00	
6.144626e-02	1.318363e-02	1.227123e+00	5.563217e+01	-8.022883e+00	2.551911e+05	1.015615e+05	2.883179e+02	1.345622e-01	1.973387e-01	0.000000e+00	
6.496849e-02	6.737137e-03	1.227121e+00	5.557359e+01	-8.013477e+00	2.551881e+05	1.015614e+05	2.883179e+02	1.344204e-01	1.972363e-01	0.000000e+00	
6.564129e-02	5.401884e-03	1.227121e+00	5.557509e+01	-8.014136e+00	2.551882e+05	1.015614e+05	2.883179e+02	1.344242e-01	1.972260e-01	0.000000e+00	
6.628853e-02	4.028124e-03	1.227121e+00	5.557742e+01	-8.015077e+00	2.551882e+05	1.015614e+05	2.883179e+02	1.344300e-01	1.972153e-01	0.000000e+00	
6.690831e-02	2.611304e-03	1.227121e+00	5.557950e+01	-8.016013e+00	2.551883e+05	1.015614e+05	2.883180e+02	1.344353e-01	1.972127e-01	0.000000e+00	
6.750784e-02	1.160020e-03	1.227120e+00	5.558119e+01	-8.016738e+00	2.551884e+05	1.015614e+05	2.883180e+02	1.344396e-01	1.972034e-01	0.000000e+00	
6.073523e-02	1.446362e-02	1.227123e+00	5.565175e+01	-8.025379e+00	2.551921e+05	1.015616e+05	2.883179e+02	1.346094e-01	1.973675e-01	0.000000e+00	
6.002411e-02	1.574352e-02	1.227123e+00	5.566542e+01	-8.026775e+00	2.551929e+05	1.015616e+05	2.883180e+02	1.346422e-01	1.973979e-01	0.000000e+00	
5.931294e-02	1.702341e-02	1.227124e+00	5.567049e+01	-8.027081e+00	2.551932e+05	1.015617e+05	2.883180e+02	1.346543e-01	1.974287e-01	0.000000e+00	
5.860168e-02	1.830329e-02	1.227124e+00	5.566738e+01	-8.026787e+00	2.551931e+05	1.015617e+05	2.883181e+02	1.346468e-01	1.974584e-01	0.000000e+00	
4.968763e-02	2.098673e-02	1.227128e+00	5.564303e+01	-8.028518e+00	2.551932e+05	1.015622e+05	2.883185e+02	1.345892e-01	1.978571e-01	0.000000e+00	
4.811022e-02	2.100591e-02	1.227130e+00	5.564064e+01	-8.030628e+00	2.551936e+05	1.015624e+05	2.883186e+02	1.345840e-01	1.980207e-01	0.000000e+00	
5.123389e-02	2.096216e-02	1.227127e+00	5.564523e+01	-8.027487e+00	2.551931e+05	1.015621e+05	2.883185e+02	1.345942e-01	1.977745e-01	0.000000e+00	
4.569681e-02	2.102059e-02	1.227132e+00	5.564094e+01	-8.037516e+00	2.551939e+05	1.015625e+05	2.883185e+02	1.345869e-01	1.981133e-01	0.000000e+00	
5.789025e-02	1.958318e-02	1.227124e+00	5.565941e+01	-8.026563e+00	2.551928e+05	1.015617e+05	2.883182e+02	1.346279e-01	1.974852e-01	0.000000e+00	
5.423666e-02	2.091183e-02	1.227125e+00	5.564880e+01	-8.026818e+00	2.551928e+05	1.015619e+05	2.883183e+02	1.346026e-01	1.976163e-01	0.000000e+00	
5.274776e-02	2.093676e-02	1.227126e+00	5.564720e+01	-8.026991e+00	2.551929e+05	1.015620e+05	2.883184e+02	1.345988e-01	1.976851e-01	0.000000e+00	
5.571096e-02	2.088737e-02	1.227124e+00	5.565009e+01	-8.026802e+00	2.551926e+05	1.015618e+05	2.883183e+02	1.346057e-01	1.975567e-01	0.000000e+00	
4.728637e-02	2.233563e-02	1.227128e+00	5.563457e+01	-8.032915e+00	2.551930e+05	1.015622e+05	2.883186e+02	1.345706e-01	1.978879e-01	0.000000e+00	
4.569681e-02	2.252206e-02	1.227125e+00	5.563415e+01	-8.034391e+00	2.551924e+05	1.015620e+05	2.883186e+02	1.345704e-01	1.977006e-01	0.000000e+00	
5.717847e-02	2.086314e-02	1.227124e+00	5.565112e+01	-8.026874e+00	2.551925e+05	1.015617e+05	2.883182e+02	1.346083e-01	1.975074e-01	0.000000e+00	
6.574217e-02	8.022124e-03	1.227121e+00	5.557589e+01	-8.014236e+00	2.551883e+05	1.015614e+05	2.883180e+02	1.344260e-01	1.972509e-01	0.000000e+00	
6.503913e-02	9.313625e-03	1.227122e+00	5.558326e+01	-8.015559e+00	2.551887e+05	1.015615e+05	2.883179e+02	1.344439e-01	1.972651e-01	0.000000e+00	
6.433112e-02	1.059790e-02	1.227122e+00	5.559659e+01	-8.017882e+00	2.551893e+05	1.015615e+05	2.883179e+02	1.344763e-01	1.972823e-01	0.000000e+00	
6.362104e-02	1.187922e-02	1.227122e+00	5.561498e+01	-8.020840e+00	2.551902e+05	1.015615e+05	2.883179e+02	1.345208e-01	1.973017e-01	0.000000e+00	
6.291024e-02	1.315951e-02	1.227123e+00	5.563551e+01	-8.023798e+00	2.551913e+05	1.015615e+05	2.883179e+02	1.345704e-01	1.973237e-01	0.000000e+00	
6.219921e-02	1.443950e-02	1.227123e+00	5.565398e+01	-8.026084e+00	2.551922e+05	1.015616e+05	2.883179e+02	1.346150e-01	1.973475e-01	0.000000e+00	
6.643516e-02	6.715762e-03	1.227121e+00	5.557355e+01	-8.013920e+00	2.551881e+05	1.015614e+05	2.883179e+02	1.344204e-01	1.972382e-01	0.000000e+00	