TITLE = "Visualization of the volumetric solution"
VARIABLES = "x","y","Density","Momentum_x","Momentum_y","Energy","Pressure","Temperature","Mach","C<sub>p</sub>","Roe_Dissipation"
ZONE NODES= 4176, ELEMENTS= 8082, DATAPACKING=POINT, ZONETYPE=FEQUADRILATERAL
-1.500000e-01	1.501471e-03	1.224519e+00	5.562435e+01	-1.037108e-06	2.544133e+05	1.012600e+05	2.880731e+02	1.335055e-01	-5.424143e-02	0.000000e+00	
-1.480624e-01	1.310814e-03	1.224519e+00	5.562435e+01	-3.723823e-06	2.544134e+05	1.012600e+05	2.880731e+02	1.335055e-01	-5.423478e-02	0.000000e+00	
-1.487328e-01	2.580410e-03	1.224519e+00	5.562435e+01	-3.040941e-06	2.544134e+05	1.012600e+05	2.880731e+02	1.335055e-01	-5.423691e-02	0.000000e+00	
-1.500000e-01	3.002941e-03	1.224519e+00	5.562436e+01	-2.506537e-07	2.544133e+05	1.012600e+05	2.880731e+02	1.335056e-01	-5.424145e-02	0.000000e+00	
-1.471595e-01	2.535387e-03	1.224519e+00	5.562435e+01	-5.767256e-06	2.544134e+05	1.012600e+05	2.880731e+02	1.335055e-01	-5.423291e-02	0.000000e+00	
-1.463455e-01	1.262086e-03	1.224519e+00	5.562435e+01	-4.854611e-06	2.544134e+05	1.012600e+05	2.880731e+02	1.335055e-01	-5.423067e-02	0.000000e+00	
-1.490702e-01	3.754575e-03	1.224519e+00	5.562436e+01	-2.701642e-06	2.544133e+05	1.012600e+05	2.880731e+02	1.335055e-01	-5.423781e-02	0.000000e+00	
-1.478765e-01	3.764208e-03	1.224519e+00	5.562436e+01	-5.462937e-06	2.544134e+05	1.012600e+05	2.880731e+02	1.335055e-01	-5.423459e-02	0.000000e+00	
-1.500000e-01	4.504412e-03	1.224519e+00	5.562436e+01	-3.855560e-07	2.544133e+05	1.012600e+05	2.880731e+02	1.335056e-01	-5.424143e-02	0.000000e+00	
-1.455895e-01	2.524707e-03	1.224519e+00	5.562435e+01	-8.210807e-06	2.544134e+05	1.012600e+05	2.880731e+02	1.335055e-01	-5.422853e-02	0.000000e+00	
-1.463810e-01	3.773852e-03	1.224519e+00	5.562435e+01	-7.146356e-06	2.544134e+05	1.012600e+05	2.880731e+02	1.335055e-01	-5.423041e-02	0.000000e+00	
-1.447966e-01	1.260208e-03	1.224519e+00	5.562436e+01	-5.791079e-06	2.544134e+05	1.012600e+05	2.880731e+02	1.335055e-01	-5.422627e-02	0.000000e+00	
-1.487748e-01	4.940772e-03	1.224519e+00	5.562435e+01	-3.491257e-06	2.544134e+05	1.012600e+05	2.880731e+02	1.335055e-01	-5.423674e-02	0.000000e+00	
-1.472336e-01	5.000025e-03	1.224519e+00	5.562435e+01	-4.787083e-06	2.544134e+05	1.012600e+05	2.880731e+02	1.335055e-01	-5.423290e-02	0.000000e+00	
-1.500000e-01	6.005882e-03	1.224519e+00	5.562435e+01	-2.348397e-06	2.544133e+05	1.012600e+05	2.880731e+02	1.335055e-01	-5.424114e-02	0.000000e+00	
-1.448422e-01	3.782243e-03	1.224519e+00	5.562435e+01	-7.821520e-06	2.544134e+05	1.012600e+05	2.880731e+02	1.335055e-01	-5.422643e-02	0.000000e+00	
-1.440625e-01	2.530366e-03	1.224519e+00	5.562435e+01	-8.309285e-06	2.544134e+05	1.012600e+05	2.880731e+02	1.335055e-01	-5.422437e-02	0.000000e+00	
-1.456497e-01	5.032765e-03	1.224519e+00	5.562435e+01	-4.592339e-06	2.544134e+05	1.012600e+05	2.880731e+02	1.335055e-01	-5.422859e-02	0.000000e+00	
-1.432829e-01	1.264436e-03	1.224519e+00	5.562436e+01	-6.404802e-06	2.544134e+05	1.012600e+05	2.880731e+02	1.335055e-01	-5.422213e-02	0.000000e+00	
-1.482573e-01	6.214248e-03	1.224519e+00	5.562434e+01	-3.886412e-06	2.544134e+05	1.012600e+05	2.880731e+02	1.335055e-01	-5.423529e-02	0.000000e+00	
-1.465008e-01	6.284468e-03	1.224519e+00	5.562434e+01	-3.549248e-06	2.544134e+05	1.012600e+05	2.880731e+02	1.335055e-01	-5.423099e-02	0.000000e+00	
-1.490374e-01	7.521155e-03	1.224519e+00	5.562434e+01	-8.760142e-07	2.544133e+05	1.012600e+05	2.880731e+02	1.335055e-01	-5.423713e-02	0.000000e+00	
-1.441103e-01	5.042758e-03	1.224519e+00	5.562434e+01	-5.230811e-06	2.544134e+05	1.012600e+05	2.880731e+02	1.335055e-01	-5.422441e-02	0.000000e+00	
-1.433351e-01	3.783206e-03	1.224519e+00	5.562434e+01	-7.845341e-06	2.544134e+05	1.012600e+05	2.880731e+02	1.335055e-01	-5.422224e-02	0.000000e+00	
-1.425571e-01	2.528971e-03	1.224519e+00	5.562435e+01	-8.290787e-06	2.544134e+05	1.012600e+05	2.880731e+02	1.335055e-01	-5.422017e-02	0.000000e+00	
-1.448995e-01	6.307025e-03	1.224519e+00	5.562434e+01	-3.492692e-06	2.544134e+05	1.012600e+05	2.880731e+02	1.335055e-01	-5.422654e-02	0.000000e+00	
-1.417786e-01	1.264798e-03	1.224519e+00	5.562436e+01	-6.838564e-06	2.544134e+05	1.012600e+05	2.880731e+02	1.335055e-01	-5.421797e-02	0.000000e+00	
-1.473657e-01	7.563776e-03	1.224519e+00	5.562434e+01	-1.803926e-06	2.544134e+05	1.012600e+05	2.880731e+02	1.335055e-01	-5.423328e-02	0.000000e+00	
-1.500000e-01	7.507353e-03	1.224519e+00	5.562435e+01	-2.004890e-07	2.544133e+05	1.012600e+05	2.880731e+02	1.335055e-01	-5.424102e-02	0.000000e+00	
-1.456998e-01	7.578663e-03	1.224519e+00	5.562433e+01	-2.492713e-06	2.544134e+05	1.012600e+05	2.880731e+02	1.335055e-01	-5.422866e-02	0.000000e+00	
-1.482331e-01	8.906759e-03	1.224519e+00	5.562434e+01	1.231526e-06	2.544134e+05	1.012600e+05	2.880731e+02	1.335055e-01	-5.423517e-02	0.000000e+00	
-1.500000e-01	9.008824e-03	1.224519e+00	5.562434e+01	2.264327e-06	2.544133e+05	1.012600e+05	2.880731e+02	1.335055e-01	-5.424099e-02	0.000000e+00	
-1.433623e-01	6.313811e-03	1.224519e+00	5.562433e+01	-3.629946e-06	2.544134e+05	1.012600e+05	2.880731e+02	1.335055e-01	-5.422234e-02	0.000000e+00	
-1.425934e-01	5.043477e-03	1.224519e+00	5.562434e+01	-5.298249e-06	2.544134e+05	1.012600e+05	2.880731e+02	1.335055e-01	-5.422024e-02	0.000000e+00	
-1.418238e-01	3.779798e-03	1.224519e+00	5.562434e+01	-7.451399e-06	2.544134e+05	1.012600e+05	2.880731e+02	1.335055e-01	-5.421808e-02	0.000000e+00	
-1.410502e-01	2.521547e-03	1.224519e+00	5.562435e+01	-7.591772e-06	2.544134e+05	1.012600e+05	2.880731e+02	1.335055e-01	-5.421602e-02	0.000000e+00	
-1.441265e-01	7.580382e-03	1.224519e+00	5.562433e+01	-2.864611e-06	2.544134e+05	1.012600e+05	2.880731e+02	1.335055e-01	-5.422447e-02	0.000000e+00	
-1.402752e-01	1.269707e-03	1.224519e+00	5.562436e+01	-6.781608e-06	2.544134e+05	1.012600e+05	2.880731e+02	1.335055e-01	-5.421369e-02	0.000000e+00	
-1.464971e-01	8.872455e-03	1.224519e+00	5.562434e+01	-1.053039e-06	2.544134e+05	1.012600e+05	2.880731e+02	1.335055e-01	-5.423093e-02	0.000000e+00	
-1.487090e-01	1.018998e-02	1.224519e+00	5.562435e+01	1.715061e-06	2.544134e+05	1.012600e+05	2.880731e+02	1.335055e-01	-5.423645e-02	0.000000e+00	
-1.448881e-01	8.859340e-03	1.224519e+00	5.562433e+01	-2.204274e-06	2.544134e+05	1.012600e+05	2.880731e+02	1.335055e-01	-5.422648e-02	0.000000e+00	
-1.472389e-01	1.017172e-02	1.224519e+00	5.562434e+01	1.153792e-06	2.544134e+05	1.012600e+05	2.880731e+02	1.335055e-01	-5.423271e-02	0.000000e+00	
-1.500000e-01	1.051029e-02	1.224519e+00	5.562435e+01	6.984313e-07	2.544133e+05	1.012600e+05	2.880731e+02	1.335055e-01	-5.424115e-02	0.000000e+00	
-1.418419e-01	6.308574e-03	1.224519e+00	5.562433e+01	-3.893452e-06	2.544134e+05	1.012600e+05	2.880731e+02	1.335055e-01	-5.421814e-02	0.000000e+00	
-1.425995e-01	7.574958e-03	1.224519e+00	5.562433e+01	-3.171050e-06	2.544134e+05	1.012600e+05	2.880731e+02	1.335054e-01	-5.422022e-02	0.000000e+00	
-1.410802e-01	5.039513e-03	1.224519e+00	5.562433e+01	-5.302034e-06	2.544134e+05	1.012600e+05	2.880731e+02	1.335055e-01	-5.421606e-02	0.000000e+00	
-1.403153e-01	3.774966e-03	1.224519e+00	5.562434e+01	-6.905930e-06	2.544134e+05	1.012600e+05	2.880731e+02	1.335055e-01	-5.421392e-02	0.000000e+00	
-1.395475e-01	2.514366e-03	1.224519e+00	5.562435e+01	-6.967590e-06	2.544134e+05	1.012600e+05	2.880731e+02	1.335055e-01	-5.421184e-02	0.000000e+00	
-1.433463e-01	8.846870e-03	1.224519e+00	5.562433e+01	-2.877386e-06	2.544134e+05	1.012600e+05	2.880731e+02	1.335055e-01	-5.422227e-02	0.000000e+00	
-1.387748e-01	1.268516e-03	1.224519e+00	5.562436e+01	-5.874559e-06	2.544134e+05	1.012600e+05	2.880731e+02	1.335055e-01	-5.420965e-02	0.000000e+00	
-1.456293e-01	1.014820e-02	1.224519e+00	5.562434e+01	-7.839010e-07	2.544134e+05	1.012600e+05	2.880731e+02	1.335055e-01	-5.422842e-02	0.000000e+00	
-1.478460e-01	1.142355e-02	1.224519e+00	5.562435e+01	1.771561e-06	2.544134e+05	1.012600e+05	2.880731e+02	1.335055e-01	-5.423435e-02	0.000000e+00	
-1.490372e-01	1.138779e-02	1.224519e+00	5.562435e+01	1.437141e-06	2.544133e+05	1.012600e+05	2.880731e+02	1.335055e-01	-5.423748e-02	0.000000e+00	
-1.440817e-01	1.012705e-02	1.224519e+00	5.562434e+01	-1.734298e-06	2.544134e+05	1.012600e+05	2.880731e+02	1.335055e-01	-5.422425e-02	0.000000e+00	
-1.463405e-01	1.143791e-02	1.224519e+00	5.562435e+01	1.511796e-06	2.544134e+05	1.012600e+05	2.880731e+02	1.335055e-01	-5.423027e-02	0.000000e+00	
-1.500000e-01	1.201176e-02	1.224519e+00	5.562435e+01	3.002334e-07	2.544133e+05	1.012600e+05	2.880731e+02	1.335055e-01	-5.424126e-02	0.000000e+00	
-1.403356e-01	6.293032e-03	1.224519e+00	5.562433e+01	-4.012026e-06	2.544134e+05	1.012600e+05	2.880731e+02	1.335054e-01	-5.421397e-02	0.000000e+00	
-1.410879e-01	7.561704e-03	1.224519e+00	5.562433e+01	-3.395537e-06	2.544134e+05	1.012600e+05	2.880731e+02	1.335054e-01	-5.421606e-02	0.000000e+00	
-1.418318e-01	8.832745e-03	1.224519e+00	5.562433e+01	-3.198341e-06	2.544134e+05	1.012600e+05	2.880731e+02	1.335054e-01	-5.421809e-02	0.000000e+00	
-1.395776e-01	5.024873e-03	1.224519e+00	5.562433e+01	-5.080708e-06	2.544134e+05	1.012600e+05	2.880731e+02	1.335054e-01	-5.421190e-02	0.000000e+00	
-1.388159e-01	3.761765e-03	1.224519e+00	5.562433e+01	-6.250482e-06	2.544134e+05	1.012600e+05	2.880731e+02	1.335054e-01	-5.420976e-02	0.000000e+00	
-1.380490e-01	2.503779e-03	1.224519e+00	5.562434e+01	-6.182186e-06	2.544134e+05	1.012600e+05	2.880731e+02	1.335055e-01	-5.420767e-02	0.000000e+00	
-1.425653e-01	1.010812e-02	1.224519e+00	5.562433e+01	-2.486339e-06	2.544134e+05	1.012600e+05	2.880731e+02	1.335055e-01	-5.422009e-02	0.000000e+00	
-1.372780e-01	1.264875e-03	1.224519e+00	5.562437e+01	-3.958603e-06	2.544134e+05	1.012600e+05	2.880731e+02	1.335055e-01	-5.420546e-02	0.000000e+00	
-1.448051e-01	1.141507e-02	1.224519e+00	5.562434e+01	3.258900e-07	2.544134e+05	1.012600e+05	2.880731e+02	1.335055e-01	-5.422619e-02	0.000000e+00	
-1.470538e-01	1.276798e-02	1.224519e+00	5.562435e+01	2.217720e-06	2.544134e+05	1.012600e+05	2.880731e+02	1.335055e-01	-5.423217e-02	0.000000e+00	
-1.486948e-01	1.279309e-02	1.224519e+00	5.562435e+01	9.671350e-07	2.544134e+05	1.012600e+05	2.880731e+02	1.335055e-01	-5.423648e-02	0.000000e+00	
-1.432898e-01	1.139003e-02	1.224519e+00	5.562434e+01	-9.028792e-07	2.544134e+05	1.012600e+05	2.880731e+02	1.335055e-01	-5.422204e-02	0.000000e+00	
-1.455254e-01	1.271981e-02	1.224519e+00	5.562434e+01	1.692084e-06	2.544134e+05	1.012600e+05	2.880731e+02	1.335055e-01	-5.422814e-02	0.000000e+00	
-1.500000e-01	1.351324e-02	1.224519e+00	5.562435e+01	-1.260904e-06	2.544133e+05	1.012600e+05	2.880731e+02	1.335055e-01	-5.424124e-02	0.000000e+00	
-1.395803e-01	7.545106e-03	1.224519e+00	5.562432e+01	-3.461429e-06	2.544134e+05	1.012600e+05	2.880731e+02	1.335054e-01	-5.421188e-02	0.000000e+00	
-1.388306e-01	6.275009e-03	1.224519e+00	5.562432e+01	-3.926242e-06	2.544134e+05	1.012600e+05	2.880731e+02	1.335054e-01	-5.420981e-02	0.000000e+00	
-1.403236e-01	8.816461e-03	1.224519e+00	5.562433e+01	-3.342376e-06	2.544134e+05	1.012600e+05	2.880731e+02	1.335054e-01	-5.421392e-02	0.000000e+00	
-1.410586e-01	1.009025e-02	1.224519e+00	5.562433e+01	-2.854429e-06	2.544134e+05	1.012600e+05	2.880731e+02	1.335054e-01	-5.421594e-02	0.000000e+00	
-1.380763e-01	5.007166e-03	1.224519e+00	5.562432e+01	-4.703713e-06	2.544134e+05	1.012600e+05	2.880731e+02	1.335054e-01	-5.420774e-02	0.000000e+00	
-1.373172e-01	3.745202e-03	1.224519e+00	5.562433e+01	-5.426995e-06	2.544134e+05	1.012600e+05	2.880731e+02	1.335054e-01	-5.420563e-02	0.000000e+00	
-1.365543e-01	2.493191e-03	1.224519e+00	5.562434e+01	-4.568706e-06	2.544134e+05	1.012600e+05	2.880731e+02	1.335055e-01	-5.420353e-02	0.000000e+00	
-1.417854e-01	1.136812e-02	1.224519e+00	5.562434e+01	-1.668956e-06	2.544134e+05	1.012600e+05	2.880731e+02	1.335055e-01	-5.421792e-02	0.000000e+00	
-1.357841e-01	1.260955e-03	1.224519e+00	5.562437e+01	-1.691777e-06	2.544135e+05	1.012600e+05	2.880731e+02	1.335055e-01	-5.420132e-02	0.000000e+00	
-1.440103e-01	1.268124e-02	1.224519e+00	5.562434e+01	5.858993e-07	2.544134e+05	1.012600e+05	2.880731e+02	1.335055e-01	-5.422398e-02	0.000000e+00	
-1.477508e-01	1.418309e-02	1.224519e+00	5.562435e+01	2.064231e-06	2.544134e+05	1.012600e+05	2.880731e+02	1.335055e-01	-5.423418e-02	0.000000e+00	
-1.462507e-01	1.404743e-02	1.224519e+00	5.562434e+01	1.775347e-06	2.544134e+05	1.012600e+05	2.880731e+02	1.335055e-01	-5.423004e-02	0.000000e+00	
-1.489635e-01	1.419880e-02	1.224519e+00	5.562435e+01	8.928165e-07	2.544133e+05	1.012600e+05	2.880731e+02	1.335055e-01	-5.423728e-02	0.000000e+00	
-1.425066e-01	1.265175e-02	1.224519e+00	5.562434e+01	-2.576736e-07	2.544134e+05	1.012600e+05	2.880731e+02	1.335055e-01	-5.421988e-02	0.000000e+00	
-1.447338e-01	1.398254e-02	1.224519e+00	5.562434e+01	1.057854e-06	2.544134e+05	1.012600e+05	2.880731e+02	1.335055e-01	-5.422592e-02	0.000000e+00	
-1.500000e-01	1.501471e-02	1.224519e+00	5.562435e+01	7.819649e-08	2.544133e+05	1.012600e+05	2.880731e+02	1.335055e-01	-5.424107e-02	0.000000e+00	
-1.380755e-01	7.525537e-03	1.224519e+00	5.562432e+01	-3.348524e-06	2.544134e+05	1.012600e+05	2.880731e+02	1.335054e-01	-5.420773e-02	0.000000e+00	
-1.388170e-01	8.798070e-03	1.224519e+00	5.562432e+01	-3.303806e-06	2.544134e+05	1.012600e+05	2.880731e+02	1.335054e-01	-5.420976e-02	0.000000e+00	
-1.373298e-01	6.254068e-03	1.224519e+00	5.562432e+01	-3.662932e-06	2.544134e+05	1.012600e+05	2.880731e+02	1.335054e-01	-5.420567e-02	0.000000e+00	
-1.395530e-01	1.007187e-02	1.224519e+00	5.562433e+01	-2.987759e-06	2.544134e+05	1.012600e+05	2.880731e+02	1.335054e-01	-5.421179e-02	0.000000e+00	
-1.402827e-01	1.134806e-02	1.224519e+00	5.562433e+01	-2.087926e-06	2.544134e+05	1.012600e+05	2.880731e+02	1.335055e-01	-5.421378e-02	0.000000e+00	
-1.365808e-01	4.985529e-03	1.224519e+00	5.562432e+01	-4.155710e-06	2.544134e+05	1.012600e+05	2.880731e+02	1.335054e-01	-5.420361e-02	0.000000e+00	
-1.358278e-01	3.724667e-03	1.224519e+00	5.562433e+01	-4.309217e-06	2.544135e+05	1.012600e+05	2.880731e+02	1.335054e-01	-5.420150e-02	0.000000e+00	
-1.350681e-01	2.478083e-03	1.224519e+00	5.562434e+01	-2.736503e-06	2.544135e+05	1.012600e+05	2.880731e+02	1.335055e-01	-5.419942e-02	0.000000e+00	
-1.410065e-01	1.262779e-02	1.224519e+00	5.562434e+01	-8.192896e-07	2.544134e+05	1.012600e+05	2.880731e+02	1.335055e-01	-5.421576e-02	0.000000e+00	
-1.342962e-01	1.254242e-03	1.224519e+00	5.562437e+01	2.044997e-07	2.544135e+05	1.012600e+05	2.880731e+02	1.335055e-01	-5.419720e-02	0.000000e+00	
-1.432269e-01	1.394150e-02	1.224519e+00	5.562434e+01	6.185679e-07	2.544134e+05	1.012600e+05	2.880731e+02	1.335055e-01	-5.422183e-02	0.000000e+00	
-1.484814e-01	1.554826e-02	1.224519e+00	5.562434e+01	1.129875e-06	2.544134e+05	1.012600e+05	2.880731e+02	1.335055e-01	-5.423612e-02	0.000000e+00	
-1.470082e-01	1.534684e-02	1.224519e+00	5.562434e+01	1.601166e-06	2.544134e+05	1.012600e+05	2.880731e+02	1.335055e-01	-5.423204e-02	0.000000e+00	
-1.454716e-01	1.528075e-02	1.224519e+00	5.562434e+01	1.295313e-06	2.544134e+05	1.012600e+05	2.880731e+02	1.335055e-01	-5.422787e-02	0.000000e+00	
-1.417271e-01	1.391150e-02	1.224519e+00	5.562434e+01	2.277624e-07	2.544134e+05	1.012600e+05	2.880731e+02	1.335055e-01	-5.421772e-02	0.000000e+00	
-1.439536e-01	1.523390e-02	1.224519e+00	5.562434e+01	9.993094e-07	2.544134e+05	1.012600e+05	2.880731e+02	1.335055e-01	-5.422379e-02	0.000000e+00	
-1.500000e-01	1.651618e-02	1.224519e+00	5.562434e+01	-9.130350e-07	2.544133e+05	1.012600e+05	2.880731e+02	1.335055e-01	-5.424103e-02	0.000000e+00	
-1.365772e-01	7.502270e-03	1.224519e+00	5.562432e+01	-3.096094e-06	2.544134e+05	1.012600e+05	2.880731e+02	1.335054e-01	-5.420359e-02	0.000000e+00	
-1.373150e-01	8.776646e-03	1.224519e+00	5.562432e+01	-3.118849e-06	2.544134e+05	1.012600e+05	2.880731e+02	1.335054e-01	-5.420562e-02	0.000000e+00	
-1.380496e-01	1.005156e-02	1.224519e+00	5.562432e+01	-2.931993e-06	2.544134e+05	1.012600e+05	2.880731e+02	1.335054e-01	-5.420764e-02	0.000000e+00	
-1.358371e-01	6.228887e-03	1.224519e+00	5.562432e+01	-3.256547e-06	2.544135e+05	1.012600e+05	2.880731e+02	1.335054e-01	-5.420154e-02	0.000000e+00	
-1.387802e-01	1.132767e-02	1.224519e+00	5.562433e+01	-2.244322e-06	2.544134e+05	1.012600e+05	2.880731e+02	1.335054e-01	-5.420965e-02	0.000000e+00	
-1.395065e-01	1.260582e-02	1.224519e+00	5.562433e+01	-1.137646e-06	2.544134e+05	1.012600e+05	2.880731e+02	1.335055e-01	-5.421163e-02	0.000000e+00	
-1.350947e-01	4.959161e-03	1.224519e+00	5.562432e+01	-3.443769e-06	2.544135e+05	1.012600e+05	2.880731e+02	1.335054e-01	-5.419949e-02	0.000000e+00	
-1.343475e-01	3.698457e-03	1.224519e+00	5.562433e+01	-3.095855e-06	2.544135e+05	1.012600e+05	2.880731e+02	1.335054e-01	-5.419741e-02	0.000000e+00	
-1.335890e-01	2.454906e-03	1.224519e+00	5.562434e+01	-1.257360e-06	2.544135e+05	1.012600e+05	2.880731e+02	1.335055e-01	-5.419533e-02	0.000000e+00	
-1.402291e-01	1.388648e-02	1.224519e+00	5.562433e+01	-7.862117e-08	2.544134e+05	1.012600e+05	2.880731e+02	1.335055e-01	-5.421361e-02	0.000000e+00	
-1.328088e-01	1.241716e-03	1.224519e+00	5.562437e+01	1.789084e-06	2.544135e+05	1.012600e+05	2.880731e+02	1.335055e-01	-5.419314e-02	0.000000e+00	
-1.424484e-01	1.519832e-02	1.224519e+00	5.562434e+01	7.887954e-07	2.544134e+05	1.012600e+05	2.880731e+02	1.335055e-01	-5.421969e-02	0.000000e+00	
-1.475197e-01	1.651419e-02	1.224519e+00	5.562434e+01	1.172507e-06	2.544134e+05	1.012600e+05	2.880731e+02	1.335055e-01	-5.423355e-02	0.000000e+00	
-1.462288e-01	1.656475e-02	1.224519e+00	5.562434e+01	1.140030e-06	2.544134e+05	1.012600e+05	2.880731e+02	1.335055e-01	-5.422993e-02	0.000000e+00	
-1.446953e-01	1.652588e-02	1.224519e+00	5.562434e+01	9.339192e-07	2.544134e+05	1.012600e+05	2.880731e+02	1.335055e-01	-5.422580e-02	0.000000e+00	
-1.485555e-01	1.723055e-02	1.224519e+00	5.562434e+01	3.747682e-08	2.544134e+05	1.012600e+05	2.880731e+02	1.335055e-01	-5.423633e-02	0.000000e+00	
-1.409501e-01	1.516953e-02	1.224519e+00	5.562433e+01	5.566785e-07	2.544134e+05	1.012600e+05	2.880731e+02	1.335055e-01	-5.421558e-02	0.000000e+00	
-1.431759e-01	1.648716e-02	1.224519e+00	5.562433e+01	8.897815e-07	2.544134e+05	1.012600e+05	2.880731e+02	1.335055e-01	-5.422166e-02	0.000000e+00	
-1.500000e-01	1.801765e-02	1.224519e+00	5.562434e+01	1.098560e-07	2.544133e+05	1.012600e+05	2.880731e+02	1.335055e-01	-5.424087e-02	0.000000e+00	
-1.350880e-01	7.473605e-03	1.224519e+00	5.562432e+01	-2.705366e-06	2.544135e+05	1.012600e+05	2.880731e+02	1.335054e-01	-5.419947e-02	0.000000e+00	
-1.358209e-01	8.750855e-03	1.224519e+00	5.562432e+01	-2.810900e-06	2.544135e+05	1.012600e+05	2.880731e+02	1.335054e-01	-5.420149e-02	0.000000e+00	
-1.365524e-01	1.002797e-02	1.224519e+00	5.562432e+01	-2.726609e-06	2.544134e+05	1.012600e+05	2.880731e+02	1.335054e-01	-5.420351e-02	0.000000e+00	
-1.372817e-01	1.130526e-02	1.224519e+00	5.562433e+01	-2.215927e-06	2.544134e+05	1.012600e+05	2.880731e+02	1.335054e-01	-5.420552e-02	0.000000e+00	
-1.343543e-01	6.197093e-03	1.224519e+00	5.562432e+01	-2.737657e-06	2.544135e+05	1.012600e+05	2.880731e+02	1.335054e-01	-5.419743e-02	0.000000e+00	
-1.380082e-01	1.258339e-02	1.224519e+00	5.562433e+01	-1.285592e-06	2.544134e+05	1.012600e+05	2.880731e+02	1.335054e-01	-5.420751e-02	0.000000e+00	
-1.387322e-01	1.386288e-02	1.224519e+00	5.562433e+01	-3.022902e-07	2.544134e+05	1.012600e+05	2.880731e+02	1.335054e-01	-5.420950e-02	0.000000e+00	
-1.336197e-01	4.923915e-03	1.224519e+00	5.562432e+01	-2.666356e-06	2.544135e+05	1.012600e+05	2.880731e+02	1.335054e-01	-5.419541e-02	0.000000e+00	
-1.328809e-01	3.658778e-03	1.224519e+00	5.562433e+01	-2.228316e-06	2.544135e+05	1.012600e+05	2.880731e+02	1.335054e-01	-5.419333e-02	0.000000e+00	
-1.321297e-01	2.410448e-03	1.224519e+00	5.562434e+01	-2.055648e-07	2.544135e+05	1.012600e+05	2.880731e+02	1.335055e-01	-5.419131e-02	0.000000e+00	
-1.394543e-01	1.514387e-02	1.224519e+00	5.562433e+01	3.246919e-07	2.544134e+05	1.012600e+05	2.880731e+02	1.335054e-01	-5.421148e-02	0.000000e+00	
-1.313518e-01	1.210492e-03	1.224519e+00	5.562437e+01	2.894413e-06	2.544135e+05	1.012600e+05	2.880731e+02	1.335055e-01	-5.418905e-02	0.000000e+00	
-1.416721e-01	1.645458e-02	1.224519e+00	5.562433e+01	5.792913e-07	2.544134e+05	1.012600e+05	2.880731e+02	1.335055e-01	-5.421755e-02	0.000000e+00	
-1.472112e-01	1.789465e-02	1.224519e+00	5.562434e+01	6.304972e-07	2.544134e+05	1.012600e+05	2.880731e+02	1.335055e-01	-5.423268e-02	0.000000e+00	
-1.454774e-01	1.782696e-02	1.224519e+00	5.562433e+01	4.736425e-07	2.544134e+05	1.012600e+05	2.880731e+02	1.335055e-01	-5.422779e-02	0.000000e+00	
-1.439157e-01	1.777922e-02	1.224519e+00	5.562433e+01	1.878988e-07	2.544134e+05	1.012600e+05	2.880731e+02	1.335055e-01	-5.422373e-02	0.000000e+00	
-1.485310e-01	1.866709e-02	1.224519e+00	5.562434e+01	9.124373e-07	2.544134e+05	1.012600e+05	2.880731e+02	1.335055e-01	-5.423627e-02	0.000000e+00	
-1.401755e-01	1.642626e-02	1.224519e+00	5.562433e+01	3.683603e-07	2.544134e+05	1.012600e+05	2.880731e+02	1.335054e-01	-5.421345e-02	0.000000e+00	
-1.423980e-01	1.774165e-02	1.224519e+00	5.562433e+01	-1.916625e-08	2.544134e+05	1.012600e+05	2.880731e+02	1.335055e-01	-5.421952e-02	0.000000e+00	
-1.500000e-01	1.951912e-02	1.224519e+00	5.562434e+01	1.112804e-06	2.544133e+05	1.012600e+05	2.880731e+02	1.335055e-01	-5.424102e-02	0.000000e+00	
-1.343361e-01	8.718922e-03	1.224519e+00	5.562432e+01	-2.355988e-06	2.544135e+05	1.012600e+05	2.880731e+02	1.335054e-01	-5.419739e-02	0.000000e+00	
-1.336083e-01	7.437014e-03	1.224519e+00	5.562431e+01	-2.165957e-06	2.544135e+05	1.012600e+05	2.880731e+02	1.335054e-01	-5.419536e-02	0.000000e+00	
-1.350638e-01	9.999794e-03	1.224519e+00	5.562432e+01	-2.382564e-06	2.544135e+05	1.012600e+05	2.880731e+02	1.335054e-01	-5.419940e-02	0.000000e+00	
-1.357904e-01	1.127967e-02	1.224519e+00	5.562432e+01	-2.027307e-06	2.544135e+05	1.012600e+05	2.880731e+02	1.335054e-01	-5.420141e-02	0.000000e+00	
-1.365155e-01	1.255913e-02	1.224519e+00	5.562433e+01	-1.278372e-06	2.544134e+05	1.012600e+05	2.880731e+02	1.335054e-01	-5.420340e-02	0.000000e+00	
-1.328819e-01	6.154746e-03	1.224519e+00	5.562431e+01	-2.073296e-06	2.544135e+05	1.012600e+05	2.880731e+02	1.335054e-01	-5.419335e-02	0.000000e+00	
-1.372389e-01	1.383879e-02	1.224519e+00	5.562433e+01	-4.256264e-07	2.544134e+05	1.012600e+05	2.880731e+02	1.335054e-01	-5.420539e-02	0.000000e+00	
-1.379611e-01	1.511905e-02	1.224519e+00	5.562433e+01	1.499905e-07	2.544134e+05	1.012600e+05	2.880731e+02	1.335054e-01	-5.420737e-02	0.000000e+00	
-1.321574e-01	4.873169e-03	1.224519e+00	5.562431e+01	-2.099239e-06	2.544135e+05	1.012600e+05	2.880731e+02	1.335054e-01	-5.419132e-02	0.000000e+00	
-1.314327e-01	3.594607e-03	1.224519e+00	5.562432e+01	-1.793071e-06	2.544135e+05	1.012600e+05	2.880731e+02	1.335054e-01	-5.418933e-02	0.000000e+00	
-1.307009e-01	2.332084e-03	1.224519e+00	5.562435e+01	-1.237603e-07	2.544135e+05	1.012600e+05	2.880731e+02	1.335055e-01	-5.418730e-02	0.000000e+00	
-1.386824e-01	1.640003e-02	1.224519e+00	5.562433e+01	1.864003e-07	2.544134e+05	1.012600e+05	2.880731e+02	1.335054e-01	-5.420935e-02	0.000000e+00	
-1.299376e-01	1.145164e-03	1.224519e+00	5.562438e+01	2.749890e-06	2.544135e+05	1.012600e+05	2.880732e+02	1.335055e-01	-5.418531e-02	0.000000e+00	
-1.408975e-01	1.771005e-02	1.224519e+00	5.562433e+01	-1.851296e-07	2.544134e+05	1.012600e+05	2.880731e+02	1.335055e-01	-5.421543e-02	0.000000e+00	
-1.474856e-01	1.928961e-02	1.224519e+00	5.562434e+01	-2.180399e-07	2.544134e+05	1.012600e+05	2.880731e+02	1.335055e-01	-5.423345e-02	0.000000e+00	
-1.461855e-01	1.913184e-02	1.224519e+00	5.562434e+01	-3.717114e-07	2.544134e+05	1.012600e+05	2.880731e+02	1.335055e-01	-5.422981e-02	0.000000e+00	
-1.446459e-01	1.907073e-02	1.224519e+00	5.562434e+01	-5.620780e-07	2.544134e+05	1.012600e+05	2.880731e+02	1.335055e-01	-5.422565e-02	0.000000e+00	
-1.431242e-01	1.902920e-02	1.224519e+00	5.562433e+01	-8.935109e-07	2.544134e+05	1.012600e+05	2.880731e+02	1.335055e-01	-5.422150e-02	0.000000e+00	
-1.484020e-01	2.029885e-02	1.224519e+00	5.562434e+01	-1.165783e-06	2.544134e+05	1.012600e+05	2.880731e+02	1.335055e-01	-5.423597e-02	0.000000e+00	
-1.394037e-01	1.768181e-02	1.224519e+00	5.562433e+01	-2.874296e-07	2.544134e+05	1.012600e+05	2.880731e+02	1.335054e-01	-5.421132e-02	0.000000e+00	
-1.416204e-01	1.899482e-02	1.224519e+00	5.562433e+01	-8.916281e-07	2.544134e+05	1.012600e+05	2.880731e+02	1.335055e-01	-5.421740e-02	0.000000e+00	
-1.500000e-01	2.102059e-02	1.224519e+00	5.562435e+01	-8.003641e-07	2.544133e+05	1.012600e+05	2.880731e+02	1.335055e-01	-5.424105e-02	0.000000e+00	
-1.328595e-01	8.678811e-03	1.224519e+00	5.562431e+01	-1.703569e-06	2.544135e+05	1.012600e+05	2.880731e+02	1.335054e-01	-5.419329e-02	0.000000e+00	
-1.335835e-01	9.965600e-03	1.224519e+00	5.562432e+01	-1.866283e-06	2.544135e+05	1.012600e+05	2.880731e+02	1.335054e-01	-5.419531e-02	0.000000e+00	
-1.321372e-01	7.389467e-03	1.224519e+00	5.562431e+01	-1.370536e-06	2.544135e+05	1.012600e+05	2.880731e+02	1.335054e-01	-5.419129e-02	0.000000e+00	
-1.343073e-01	1.124992e-02	1.224519e+00	5.562432e+01	-1.677539e-06	2.544135e+05	1.012600e+05	2.880731e+02	1.335054e-01	-5.419731e-02	0.000000e+00	
-1.350301e-01	1.253223e-02	1.224519e+00	5.562432e+01	-1.114255e-06	2.544135e+05	1.012600e+05	2.880731e+02	1.335054e-01	-5.419931e-02	0.000000e+00	
-1.357518e-01	1.381333e-02	1.224519e+00	5.562433e+01	-4.201717e-07	2.544135e+05	1.012600e+05	2.880731e+02	1.335054e-01	-5.420130e-02	0.000000e+00	
-1.314198e-01	6.096699e-03	1.224519e+00	5.562431e+01	-1.285554e-06	2.544135e+05	1.012600e+05	2.880731e+02	1.335054e-01	-5.418926e-02	0.000000e+00	
-1.364727e-01	1.509394e-02	1.224519e+00	5.562433e+01	6.434425e-08	2.544134e+05	1.012600e+05	2.880731e+02	1.335054e-01	-5.420328e-02	0.000000e+00	
-1.371932e-01	1.637451e-02	1.224519e+00	5.562433e+01	9.142342e-08	2.544134e+05	1.012600e+05	2.880731e+02	1.335054e-01	-5.420526e-02	0.000000e+00	
-1.307100e-01	4.796656e-03	1.224519e+00	5.562431e+01	-1.299872e-06	2.544135e+05	1.012600e+05	2.880731e+02	1.335054e-01	-5.418730e-02	0.000000e+00	
-1.300104e-01	3.482966e-03	1.224519e+00	5.562433e+01	-9.419113e-07	2.544135e+05	1.012600e+05	2.880731e+02	1.335054e-01	-5.418525e-02	0.000000e+00	
-1.293244e-01	2.162865e-03	1.224519e+00	5.562435e+01	1.914847e-06	2.544135e+05	1.012601e+05	2.880732e+02	1.335055e-01	-5.418348e-02	0.000000e+00	
-1.379137e-01	1.765531e-02	1.224519e+00	5.562433e+01	-3.306273e-07	2.544134e+05	1.012600e+05	2.880731e+02	1.335054e-01	-5.420724e-02	0.000000e+00	
-1.286976e-01	1.021265e-03	1.224520e+00	5.562438e+01	9.777659e-07	2.544135e+05	1.012601e+05	2.880732e+02	1.335055e-01	-5.418107e-02	0.000000e+00	
-1.401253e-01	1.896440e-02	1.224519e+00	5.562433e+01	-9.257058e-07	2.544134e+05	1.012600e+05	2.880731e+02	1.335055e-01	-5.421330e-02	0.000000e+00	
-1.469244e-01	2.036900e-02	1.224519e+00	5.562434e+01	-1.574907e-06	2.544134e+05	1.012600e+05	2.880731e+02	1.335055e-01	-5.423179e-02	0.000000e+00	
-1.453732e-01	2.034236e-02	1.224519e+00	5.562434e+01	-1.354063e-06	2.544134e+05	1.012600e+05	2.880731e+02	1.335055e-01	-5.422758e-02	0.000000e+00	
-1.438503e-01	2.031087e-02	1.224519e+00	5.562434e+01	-1.109364e-06	2.544134e+05	1.012600e+05	2.880731e+02	1.335055e-01	-5.422347e-02	0.000000e+00	
-1.423443e-01	2.027856e-02	1.224519e+00	5.562434e+01	-1.140188e-06	2.544134e+05	1.012600e+05	2.880731e+02	1.335055e-01	-5.421937e-02	0.000000e+00	
-1.488428e-01	2.164406e-02	1.224519e+00	5.562435e+01	-2.679974e-06	2.544133e+05	1.012600e+05	2.880731e+02	1.335055e-01	-5.423698e-02	0.000000e+00	
-1.386346e-01	1.893651e-02	1.224519e+00	5.562433e+01	-8.943682e-07	2.544134e+05	1.012600e+05	2.880731e+02	1.335054e-01	-5.420921e-02	0.000000e+00	
-1.475912e-01	2.152331e-02	1.224519e+00	5.562435e+01	-3.126776e-06	2.544134e+05	1.012600e+05	2.880731e+02	1.335055e-01	-5.423378e-02	0.000000e+00	
-1.408481e-01	2.024737e-02	1.224519e+00	5.562434e+01	-1.166440e-06	2.544134e+05	1.012600e+05	2.880731e+02	1.335055e-01	-5.421527e-02	0.000000e+00	
-1.500000e-01	2.252206e-02	1.224519e+00	5.562435e+01	-8.514638e-07	2.544133e+05	1.012600e+05	2.880731e+02	1.335055e-01	-5.424110e-02	0.000000e+00	
-1.313899e-01	8.628898e-03	1.224519e+00	5.562431e+01	-7.526912e-07	2.544135e+05	1.012600e+05	2.880731e+02	1.335054e-01	-5.418923e-02	0.000000e+00	
-1.321101e-01	9.924148e-03	1.224519e+00	5.562431e+01	-1.127101e-06	2.544135e+05	1.012600e+05	2.880731e+02	1.335054e-01	-5.419123e-02	0.000000e+00	
-1.328314e-01	1.121510e-02	1.224519e+00	5.562432e+01	-1.140342e-06	2.544135e+05	1.012600e+05	2.880731e+02	1.335054e-01	-5.419323e-02	0.000000e+00	
-1.306742e-01	7.328579e-03	1.224519e+00	5.562431e+01	-2.376878e-07	2.544135e+05	1.012600e+05	2.880731e+02	1.335054e-01	-5.418722e-02	0.000000e+00	
-1.335521e-01	1.250209e-02	1.224519e+00	5.562432e+01	-7.780794e-07	2.544135e+05	1.012600e+05	2.880731e+02	1.335054e-01	-5.419523e-02	0.000000e+00	
-1.342717e-01	1.378602e-02	1.224519e+00	5.562432e+01	-2.624579e-07	2.544135e+05	1.012600e+05	2.880731e+02	1.335054e-01	-5.419722e-02	0.000000e+00	
-1.349907e-01	1.506802e-02	1.224519e+00	5.562433e+01	1.052829e-07	2.544135e+05	1.012600e+05	2.880731e+02	1.335054e-01	-5.419920e-02	0.000000e+00	
-1.299678e-01	6.018267e-03	1.224519e+00	5.562431e+01	1.256944e-07	2.544135e+05	1.012600e+05	2.880731e+02	1.335054e-01	-5.418523e-02	0.000000e+00	
-1.357095e-01	1.634902e-02	1.224519e+00	5.562433e+01	9.376025e-08	2.544135e+05	1.012600e+05	2.880731e+02	1.335054e-01	-5.420118e-02	0.000000e+00	
-1.364283e-01	1.762962e-02	1.224519e+00	5.562433e+01	-2.976159e-07	2.544134e+05	1.012600e+05	2.880731e+02	1.335054e-01	-5.420316e-02	0.000000e+00	
-1.292762e-01	4.682333e-03	1.224520e+00	5.562431e+01	7.011765e-07	2.544135e+05	1.012601e+05	2.880732e+02	1.335054e-01	-5.418323e-02	0.000000e+00	
-1.286041e-01	3.284351e-03	1.224520e+00	5.562433e+01	3.039954e-06	2.544135e+05	1.012601e+05	2.880732e+02	1.335054e-01	-5.418137e-02	0.000000e+00	
-1.279539e-01	1.712650e-03	1.224520e+00	5.562436e+01	3.673351e-06	2.544135e+05	1.012601e+05	2.880732e+02	1.335055e-01	-5.417910e-02	0.000000e+00	
-1.371477e-01	1.891017e-02	1.224519e+00	5.562433e+01	-8.248955e-07	2.544134e+05	1.012600e+05	2.880731e+02	1.335054e-01	-5.420513e-02	0.000000e+00	