TITLE = "Visualization of the volumetric solution"
VARIABLES = "x","y","Density","Momentum_x","Momentum_y","Energy","Pressure","Temperature","Mach","C<sub>p</sub>","Roe_Dissipation"
ZONE NODES= 3200, ELEMENTS= 3081, DATAPACKING=POINT, ZONETYPE=FEQUADRILATERAL
-2.000000e+00	1.250000e+00	1.224752e+00	4.280725e+01	-3.525955e-08	2.539629e+05	1.012859e+05	2.880920e+02	1.027199e-01	-5.508602e-02	0.000000e+00	
-2.000000e+00	1.218354e+00	1.224752e+00	4.280725e+01	-3.434612e-06	2.539629e+05	1.012859e+05	2.880920e+02	1.027199e-01	-5.508647e-02	0.000000e+00	
-1.948718e+00	1.218354e+00	1.224752e+00	4.280725e+01	-4.645095e-06	2.539629e+05	1.012859e+05	2.880920e+02	1.027199e-01	-5.509244e-02	0.000000e+00	
-1.948718e+00	1.250000e+00	1.224752e+00	4.280724e+01	4.272213e-08	2.539629e+05	1.012859e+05	2.880920e+02	1.027199e-01	-5.509216e-02	0.000000e+00	
-2.000000e+00	1.186709e+00	1.224752e+00	4.280726e+01	-3.273459e-06	2.539629e+05	1.012859e+05	2.880920e+02	1.027199e-01	-5.508669e-02	0.000000e+00	
-1.948718e+00	1.186709e+00	1.224752e+00	4.280726e+01	-5.385494e-06	2.539629e+05	1.012859e+05	2.880920e+02	1.027199e-01	-5.509238e-02	0.000000e+00	
-2.000000e+00	1.155063e+00	1.224752e+00	4.280726e+01	-2.001950e-06	2.539629e+05	1.012859e+05	2.880920e+02	1.027199e-01	-5.508690e-02	0.000000e+00	
-1.948718e+00	1.155063e+00	1.224752e+00	4.280726e+01	-4.654886e-06	2.539629e+05	1.012859e+05	2.880920e+02	1.027200e-01	-5.509249e-02	0.000000e+00	
-2.000000e+00	1.123418e+00	1.224752e+00	4.280726e+01	-8.178395e-07	2.539629e+05	1.012859e+05	2.880920e+02	1.027199e-01	-5.508702e-02	0.000000e+00	
-1.948718e+00	1.123418e+00	1.224752e+00	4.280726e+01	-3.294610e-06	2.539629e+05	1.012859e+05	2.880920e+02	1.027200e-01	-5.509252e-02	0.000000e+00	
-2.000000e+00	1.091772e+00	1.224752e+00	4.280726e+01	-2.129427e-07	2.539629e+05	1.012859e+05	2.880920e+02	1.027199e-01	-5.508710e-02	0.000000e+00	
-1.948718e+00	1.091772e+00	1.224752e+00	4.280726e+01	-2.375178e-06	2.539629e+05	1.012859e+05	2.880920e+02	1.027200e-01	-5.509259e-02	0.000000e+00	
-2.000000e+00	1.060127e+00	1.224752e+00	4.280726e+01	-1.914508e-08	2.539629e+05	1.012859e+05	2.880920e+02	1.027199e-01	-5.508717e-02	0.000000e+00	
-1.948718e+00	1.060127e+00	1.224752e+00	4.280727e+01	-1.848522e-06	2.539629e+05	1.012859e+05	2.880920e+02	1.027200e-01	-5.509264e-02	0.000000e+00	
-2.000000e+00	1.028481e+00	1.224752e+00	4.280726e+01	-8.599471e-09	2.539629e+05	1.012859e+05	2.880920e+02	1.027200e-01	-5.508722e-02	0.000000e+00	
-1.948718e+00	1.028481e+00	1.224752e+00	4.280727e+01	-1.611467e-06	2.539629e+05	1.012859e+05	2.880920e+02	1.027200e-01	-5.509270e-02	0.000000e+00	
-2.000000e+00	9.968354e-01	1.224752e+00	4.280727e+01	-2.257155e-08	2.539629e+05	1.012859e+05	2.880920e+02	1.027200e-01	-5.508727e-02	0.000000e+00	
-1.948718e+00	9.968354e-01	1.224752e+00	4.280727e+01	-1.453212e-06	2.539629e+05	1.012859e+05	2.880920e+02	1.027200e-01	-5.509274e-02	0.000000e+00	
-2.000000e+00	9.651899e-01	1.224752e+00	4.280727e+01	-2.258184e-08	2.539629e+05	1.012859e+05	2.880920e+02	1.027200e-01	-5.508731e-02	0.000000e+00	
-1.948718e+00	9.651899e-01	1.224752e+00	4.280727e+01	-1.317562e-06	2.539629e+05	1.012859e+05	2.880920e+02	1.027200e-01	-5.509278e-02	0.000000e+00	
-2.000000e+00	9.335443e-01	1.224752e+00	4.280727e+01	-1.133034e-08	2.539629e+05	1.012859e+05	2.880920e+02	1.027200e-01	-5.508735e-02	0.000000e+00	
-1.948718e+00	9.335443e-01	1.224752e+00	4.280727e+01	-1.179832e-06	2.539629e+05	1.012859e+05	2.880920e+02	1.027200e-01	-5.509282e-02	0.000000e+00	
-2.000000e+00	9.018987e-01	1.224752e+00	4.280727e+01	-2.659294e-09	2.539629e+05	1.012859e+05	2.880920e+02	1.027200e-01	-5.508738e-02	0.000000e+00	
-1.948718e+00	9.018987e-01	1.224752e+00	4.280727e+01	-1.056270e-06	2.539629e+05	1.012859e+05	2.880920e+02	1.027200e-01	-5.509285e-02	0.000000e+00	
-2.000000e+00	8.702532e-01	1.224752e+00	4.280727e+01	-9.538373e-12	2.539629e+05	1.012859e+05	2.880920e+02	1.027200e-01	-5.508741e-02	0.000000e+00	
-1.948718e+00	8.702532e-01	1.224752e+00	4.280727e+01	-9.492776e-07	2.539629e+05	1.012859e+05	2.880920e+02	1.027200e-01	-5.509288e-02	0.000000e+00	
-2.000000e+00	8.386076e-01	1.224752e+00	4.280727e+01	-2.175791e-09	2.539629e+05	1.012859e+05	2.880920e+02	1.027200e-01	-5.508743e-02	0.000000e+00	
-1.948718e+00	8.386076e-01	1.224752e+00	4.280727e+01	-8.605339e-07	2.539629e+05	1.012859e+05	2.880920e+02	1.027200e-01	-5.509291e-02	0.000000e+00	
-2.000000e+00	8.069620e-01	1.224752e+00	4.280727e+01	-5.775012e-09	2.539629e+05	1.012859e+05	2.880920e+02	1.027200e-01	-5.508746e-02	0.000000e+00	
-1.948718e+00	8.069620e-01	1.224752e+00	4.280727e+01	-7.845764e-07	2.539629e+05	1.012859e+05	2.880920e+02	1.027200e-01	-5.509293e-02	0.000000e+00	
-2.000000e+00	7.753165e-01	1.224752e+00	4.280727e+01	-9.133240e-09	2.539629e+05	1.012859e+05	2.880920e+02	1.027200e-01	-5.508748e-02	0.000000e+00	
-1.948718e+00	7.753165e-01	1.224752e+00	4.280727e+01	-7.183279e-07	2.539629e+05	1.012859e+05	2.880920e+02	1.027200e-01	-5.509295e-02	0.000000e+00	
-2.000000e+00	7.436709e-01	1.224752e+00	4.280727e+01	-1.164472e-08	2.539629e+05	1.012859e+05	2.880920e+02	1.027200e-01	-5.508750e-02	0.000000e+00	
-1.948718e+00	7.436709e-01	1.224752e+00	4.280727e+01	-6.588679e-07	2.539629e+05	1.012859e+05	2.880920e+02	1.027200e-01	-5.509298e-02	0.000000e+00	
-2.000000e+00	7.120253e-01	1.224752e+00	4.280727e+01	-1.354754e-08	2.539629e+05	1.012859e+05	2.880920e+02	1.027200e-01	-5.508752e-02	0.000000e+00	
-1.948718e+00	7.120253e-01	1.224752e+00	4.280727e+01	-6.052120e-07	2.539629e+05	1.012859e+05	2.880920e+02	1.027200e-01	-5.509300e-02	0.000000e+00	
-2.000000e+00	6.803797e-01	1.224752e+00	4.280727e+01	-1.506753e-08	2.539629e+05	1.012859e+05	2.880920e+02	1.027200e-01	-5.508754e-02	0.000000e+00	
-1.948718e+00	6.803797e-01	1.224752e+00	4.280727e+01	-5.564534e-07	2.539629e+05	1.012859e+05	2.880920e+02	1.027200e-01	-5.509301e-02	0.000000e+00	
-2.000000e+00	6.487342e-01	1.224752e+00	4.280727e+01	-1.637956e-08	2.539629e+05	1.012859e+05	2.880920e+02	1.027200e-01	-5.508755e-02	0.000000e+00	
-1.948718e+00	6.487342e-01	1.224752e+00	4.280727e+01	-5.121061e-07	2.539629e+05	1.012859e+05	2.880920e+02	1.027200e-01	-5.509303e-02	0.000000e+00	
-2.000000e+00	6.170886e-01	1.224752e+00	4.280727e+01	-1.751737e-08	2.539629e+05	1.012859e+05	2.880920e+02	1.027200e-01	-5.508757e-02	0.000000e+00	
-1.948718e+00	6.170886e-01	1.224752e+00	4.280727e+01	-4.715446e-07	2.539629e+05	1.012859e+05	2.880920e+02	1.027200e-01	-5.509305e-02	0.000000e+00	
-2.000000e+00	5.854430e-01	1.224752e+00	4.280727e+01	-1.849925e-08	2.539629e+05	1.012859e+05	2.880920e+02	1.027200e-01	-5.508758e-02	0.000000e+00	
-1.948718e+00	5.854430e-01	1.224752e+00	4.280727e+01	-4.342845e-07	2.539629e+05	1.012859e+05	2.880920e+02	1.027200e-01	-5.509306e-02	0.000000e+00	
-2.000000e+00	5.537975e-01	1.224752e+00	4.280727e+01	-1.933093e-08	2.539629e+05	1.012859e+05	2.880920e+02	1.027200e-01	-5.508760e-02	0.000000e+00	
-1.948718e+00	5.537975e-01	1.224752e+00	4.280727e+01	-3.998493e-07	2.539629e+05	1.012859e+05	2.880920e+02	1.027200e-01	-5.509307e-02	0.000000e+00	
-2.000000e+00	5.221519e-01	1.224752e+00	4.280727e+01	-2.003531e-08	2.539629e+05	1.012859e+05	2.880920e+02	1.027200e-01	-5.508761e-02	0.000000e+00	
-1.948718e+00	5.221519e-01	1.224752e+00	4.280727e+01	-3.678750e-07	2.539629e+05	1.012859e+05	2.880920e+02	1.027200e-01	-5.509308e-02	0.000000e+00	
-2.000000e+00	4.905063e-01	1.224752e+00	4.280727e+01	-2.063366e-08	2.539629e+05	1.012859e+05	2.880920e+02	1.027200e-01	-5.508762e-02	0.000000e+00	
-1.948718e+00	4.905063e-01	1.224752e+00	4.280728e+01	-3.380376e-07	2.539629e+05	1.012859e+05	2.880920e+02	1.027200e-01	-5.509310e-02	0.000000e+00	
-2.000000e+00	4.588608e-01	1.224752e+00	4.280727e+01	-2.114767e-08	2.539629e+05	1.012859e+05	2.880920e+02	1.027200e-01	-5.508763e-02	0.000000e+00	
-1.948718e+00	4.588608e-01	1.224752e+00	4.280728e+01	-3.100730e-07	2.539629e+05	1.012859e+05	2.880920e+02	1.027200e-01	-5.509311e-02	0.000000e+00	
-2.000000e+00	4.272152e-01	1.224752e+00	4.280727e+01	-2.159269e-08	2.539629e+05	1.012859e+05	2.880920e+02	1.027200e-01	-5.508764e-02	0.000000e+00	
-1.948718e+00	4.272152e-01	1.224752e+00	4.280728e+01	-2.837438e-07	2.539629e+05	1.012859e+05	2.880920e+02	1.027200e-01	-5.509312e-02	0.000000e+00	
-2.000000e+00	3.955696e-01	1.224752e+00	4.280727e+01	-2.198092e-08	2.539629e+05	1.012859e+05	2.880920e+02	1.027200e-01	-5.508765e-02	0.000000e+00	
-1.948718e+00	3.955696e-01	1.224752e+00	4.280728e+01	-2.588440e-07	2.539629e+05	1.012859e+05	2.880920e+02	1.027200e-01	-5.509312e-02	0.000000e+00	
-2.000000e+00	3.639241e-01	1.224752e+00	4.280727e+01	-2.232142e-08	2.539629e+05	1.012859e+05	2.880920e+02	1.027200e-01	-5.508766e-02	0.000000e+00	
-1.948718e+00	3.639241e-01	1.224752e+00	4.280728e+01	-2.351876e-07	2.539629e+05	1.012859e+05	2.880920e+02	1.027200e-01	-5.509313e-02	0.000000e+00	
-2.000000e+00	3.322785e-01	1.224752e+00	4.280727e+01	-2.262212e-08	2.539629e+05	1.012859e+05	2.880920e+02	1.027200e-01	-5.508766e-02	0.000000e+00	
-1.948718e+00	3.322785e-01	1.224752e+00	4.280728e+01	-2.126097e-07	2.539629e+05	1.012859e+05	2.880920e+02	1.027200e-01	-5.509314e-02	0.000000e+00	
-2.000000e+00	3.006329e-01	1.224752e+00	4.280727e+01	-2.288980e-08	2.539629e+05	1.012859e+05	2.880920e+02	1.027200e-01	-5.508767e-02	0.000000e+00	
-1.948718e+00	3.006329e-01	1.224752e+00	4.280728e+01	-1.909606e-07	2.539629e+05	1.012859e+05	2.880920e+02	1.027200e-01	-5.509315e-02	0.000000e+00	
-2.000000e+00	2.689873e-01	1.224752e+00	4.280727e+01	-2.312998e-08	2.539629e+05	1.012859e+05	2.880920e+02	1.027200e-01	-5.508767e-02	0.000000e+00	
-1.948718e+00	2.689873e-01	1.224752e+00	4.280728e+01	-1.701055e-07	2.539629e+05	1.012859e+05	2.880920e+02	1.027200e-01	-5.509315e-02	0.000000e+00	
-2.000000e+00	2.373418e-01	1.224752e+00	4.280727e+01	-2.334741e-08	2.539629e+05	1.012859e+05	2.880920e+02	1.027200e-01	-5.508768e-02	0.000000e+00	
-1.948718e+00	2.373418e-01	1.224752e+00	4.280728e+01	-1.499197e-07	2.539629e+05	1.012859e+05	2.880920e+02	1.027200e-01	-5.509316e-02	0.000000e+00	
-2.000000e+00	2.056962e-01	1.224752e+00	4.280727e+01	-2.354613e-08	2.539629e+05	1.012859e+05	2.880920e+02	1.027200e-01	-5.508768e-02	0.000000e+00	
-1.948718e+00	2.056962e-01	1.224752e+00	4.280728e+01	-1.302889e-07	2.539629e+05	1.012859e+05	2.880920e+02	1.027200e-01	-5.509316e-02	0.000000e+00	
-2.000000e+00	1.740506e-01	1.224752e+00	4.280727e+01	-2.372933e-08	2.539629e+05	1.012859e+05	2.880920e+02	1.027200e-01	-5.508769e-02	0.000000e+00	
-1.948718e+00	1.740506e-01	1.224752e+00	4.280728e+01	-1.111061e-07	2.539629e+05	1.012859e+05	2.880920e+02	1.027200e-01	-5.509317e-02	0.000000e+00	
-2.000000e+00	1.424051e-01	1.224752e+00	4.280727e+01	-2.390008e-08	2.539629e+05	1.012859e+05	2.880920e+02	1.027200e-01	-5.508769e-02	0.000000e+00	
-1.948718e+00	1.424051e-01	1.224752e+00	4.280728e+01	-9.227111e-08	2.539629e+05	1.012859e+05	2.880920e+02	1.027200e-01	-5.509317e-02	0.000000e+00	
-2.000000e+00	1.107595e-01	1.224752e+00	4.280727e+01	-2.406089e-08	2.539629e+05	1.012859e+05	2.880920e+02	1.027200e-01	-5.508769e-02	0.000000e+00	
-1.948718e+00	1.107595e-01	1.224752e+00	4.280728e+01	-7.368865e-08	2.539629e+05	1.012859e+05	2.880920e+02	1.027200e-01	-5.509317e-02	0.000000e+00	
-2.000000e+00	7.911392e-02	1.224752e+00	4.280727e+01	-2.421397e-08	2.539629e+05	1.012859e+05	2.880920e+02	1.027200e-01	-5.508770e-02	0.000000e+00	
-1.948718e+00	7.911392e-02	1.224752e+00	4.280728e+01	-5.526844e-08	2.539629e+05	1.012859e+05	2.880920e+02	1.027200e-01	-5.509317e-02	0.000000e+00	
-2.000000e+00	4.746835e-02	1.224752e+00	4.280727e+01	-2.436149e-08	2.539629e+05	1.012859e+05	2.880920e+02	1.027200e-01	-5.508770e-02	0.000000e+00	
-1.948718e+00	4.746835e-02	1.224752e+00	4.280728e+01	-3.692312e-08	2.539629e+05	1.012859e+05	2.880920e+02	1.027200e-01	-5.509318e-02	0.000000e+00	
-2.000000e+00	1.582278e-02	1.224752e+00	4.280727e+01	-2.450538e-08	2.539629e+05	1.012859e+05	2.880920e+02	1.027200e-01	-5.508770e-02	0.000000e+00	
-1.948718e+00	1.582278e-02	1.224752e+00	4.280728e+01	-1.856821e-08	2.539629e+05	1.012859e+05	2.880920e+02	1.027200e-01	-5.509318e-02	0.000000e+00	
-2.000000e+00	-1.582278e-02	1.224752e+00	4.280727e+01	-2.464739e-08	2.539629e+05	1.012859e+05	2.880920e+02	1.027200e-01	-5.508770e-02	0.000000e+00	
-1.948718e+00	-1.582278e-02	1.224752e+00	4.280728e+01	-1.207946e-10	2.539629e+05	1.012859e+05	2.880920e+02	1.027200e-01	-5.509318e-02	0.000000e+00	
-2.000000e+00	-4.746835e-02	1.224752e+00	4.280727e+01	-2.478940e-08	2.539629e+05	1.012859e+05	2.880920e+02	1.027200e-01	-5.508770e-02	0.000000e+00	
-1.948718e+00	-4.746835e-02	1.224752e+00	4.280728e+01	1.850070e-08	2.539629e+05	1.012859e+05	2.880920e+02	1.027200e-01	-5.509318e-02	0.000000e+00	
-2.000000e+00	-7.911392e-02	1.224752e+00	4.280727e+01	-2.493324e-08	2.539629e+05	1.012859e+05	2.880920e+02	1.027200e-01	-5.508770e-02	0.000000e+00	
-1.948718e+00	-7.911392e-02	1.224752e+00	4.280728e+01	3.737782e-08	2.539629e+05	1.012859e+05	2.880920e+02	1.027200e-01	-5.509318e-02	0.000000e+00	
-2.000000e+00	-1.107595e-01	1.224752e+00	4.280727e+01	-2.508115e-08	2.539629e+05	1.012859e+05	2.880920e+02	1.027200e-01	-5.508770e-02	0.000000e+00	
-1.948718e+00	-1.107595e-01	1.224752e+00	4.280728e+01	5.659196e-08	2.539629e+05	1.012859e+05	2.880920e+02	1.027200e-01	-5.509318e-02	0.000000e+00	
-2.000000e+00	-1.424051e-01	1.224752e+00	4.280727e+01	-2.523519e-08	2.539629e+05	1.012859e+05	2.880920e+02	1.027200e-01	-5.508770e-02	0.000000e+00	
-1.948718e+00	-1.424051e-01	1.224752e+00	4.280728e+01	7.622622e-08	2.539629e+05	1.012859e+05	2.880920e+02	1.027200e-01	-5.509318e-02	0.000000e+00	
-2.000000e+00	-1.740506e-01	1.224752e+00	4.280727e+01	-2.539730e-08	2.539629e+05	1.012859e+05	2.880920e+02	1.027200e-01	-5.508770e-02	0.000000e+00	
-1.948718e+00	-1.740506e-01	1.224752e+00	4.280728e+01	9.636599e-08	2.539629e+05	1.012859e+05	2.880920e+02	1.027200e-01	-5.509317e-02	0.000000e+00	
-2.000000e+00	-2.056962e-01	1.224752e+00	4.280727e+01	-2.557029e-08	2.539629e+05	1.012859e+05	2.880920e+02	1.027200e-01	-5.508769e-02	0.000000e+00	
-1.948718e+00	-2.056962e-01	1.224752e+00	4.280728e+01	1.170992e-07	2.539629e+05	1.012859e+05	2.880920e+02	1.027200e-01	-5.509317e-02	0.000000e+00	
-2.000000e+00	-2.373418e-01	1.224752e+00	4.280727e+01	-2.575732e-08	2.539629e+05	1.012859e+05	2.880920e+02	1.027200e-01	-5.508769e-02	0.000000e+00	
-1.948718e+00	-2.373418e-01	1.224752e+00	4.280728e+01	1.385179e-07	2.539629e+05	1.012859e+05	2.880920e+02	1.027200e-01	-5.509317e-02	0.000000e+00	
-2.000000e+00	-2.689873e-01	1.224752e+00	4.280727e+01	-2.596167e-08	2.539629e+05	1.012859e+05	2.880920e+02	1.027200e-01	-5.508769e-02	0.000000e+00	
-1.948718e+00	-2.689873e-01	1.224752e+00	4.280728e+01	1.607197e-07	2.539629e+05	1.012859e+05	2.880920e+02	1.027200e-01	-5.509316e-02	0.000000e+00	
-2.000000e+00	-3.006329e-01	1.224752e+00	4.280727e+01	-2.618767e-08	2.539629e+05	1.012859e+05	2.880920e+02	1.027200e-01	-5.508768e-02	0.000000e+00	
-1.948718e+00	-3.006329e-01	1.224752e+00	4.280728e+01	1.838086e-07	2.539629e+05	1.012859e+05	2.880920e+02	1.027200e-01	-5.509316e-02	0.000000e+00	
-2.000000e+00	-3.322785e-01	1.224752e+00	4.280727e+01	-2.643959e-08	2.539629e+05	1.012859e+05	2.880920e+02	1.027200e-01	-5.508768e-02	0.000000e+00	
-1.948718e+00	-3.322785e-01	1.224752e+00	4.280728e+01	2.078974e-07	2.539629e+05	1.012859e+05	2.880920e+02	1.027200e-01	-5.509315e-02	0.000000e+00	
-2.000000e+00	-3.639241e-01	1.224752e+00	4.280727e+01	-2.672367e-08	2.539629e+05	1.012859e+05	2.880920e+02	1.027200e-01	-5.508767e-02	0.000000e+00	
-1.948718e+00	-3.639241e-01	1.224752e+00	4.280728e+01	2.331081e-07	2.539629e+05	1.012859e+05	2.880920e+02	1.027200e-01	-5.509315e-02	0.000000e+00	
-2.000000e+00	-3.955696e-01	1.224752e+00	4.280727e+01	-2.704673e-08	2.539629e+05	1.012859e+05	2.880920e+02	1.027200e-01	-5.508766e-02	0.000000e+00	
-1.948718e+00	-3.955696e-01	1.224752e+00	4.280728e+01	2.595768e-07	2.539629e+05	1.012859e+05	2.880920e+02	1.027200e-01	-5.509314e-02	0.000000e+00	
-2.000000e+00	-4.272152e-01	1.224752e+00	4.280727e+01	-2.741696e-08	2.539629e+05	1.012859e+05	2.880920e+02	1.027200e-01	-5.508766e-02	0.000000e+00	
-1.948718e+00	-4.272152e-01	1.224752e+00	4.280728e+01	2.874536e-07	2.539629e+05	1.012859e+05	2.880920e+02	1.027200e-01	-5.509313e-02	0.000000e+00	
-2.000000e+00	-4.588608e-01	1.224752e+00	4.280727e+01	-2.784357e-08	2.539629e+05	1.012859e+05	2.880920e+02	1.027200e-01	-5.508765e-02	0.000000e+00	
-1.948718e+00	-4.588608e-01	1.224752e+00	4.280728e+01	3.169091e-07	2.539629e+05	1.012859e+05	2.880920e+02	1.027200e-01	-5.509312e-02	0.000000e+00	
-2.000000e+00	-4.905063e-01	1.224752e+00	4.280727e+01	-2.833964e-08	2.539629e+05	1.012859e+05	2.880920e+02	1.027200e-01	-5.508764e-02	0.000000e+00	
-1.948718e+00	-4.905063e-01	1.224752e+00	4.280728e+01	3.481331e-07	2.539629e+05	1.012859e+05	2.880920e+02	1.027200e-01	-5.509311e-02	0.000000e+00	
-2.000000e+00	-5.221519e-01	1.224752e+00	4.280727e+01	-2.892054e-08	2.539629e+05	1.012859e+05	2.880920e+02	1.027200e-01	-5.508763e-02	0.000000e+00	
-1.948718e+00	-5.221519e-01	1.224752e+00	4.280728e+01	3.813470e-07	2.539629e+05	1.012859e+05	2.880920e+02	1.027200e-01	-5.509310e-02	0.000000e+00	
-2.000000e+00	-5.537975e-01	1.224752e+00	4.280727e+01	-2.960824e-08	2.539629e+05	1.012859e+05	2.880920e+02	1.027200e-01	-5.508762e-02	0.000000e+00	
-1.948718e+00	-5.537975e-01	1.224752e+00	4.280728e+01	4.167980e-07	2.539629e+05	1.012859e+05	2.880920e+02	1.027200e-01	-5.509309e-02	0.000000e+00	
-2.000000e+00	-5.854430e-01	1.224752e+00	4.280727e+01	-3.042420e-08	2.539629e+05	1.012859e+05	2.880920e+02	1.027200e-01	-5.508760e-02	0.000000e+00	
-1.948718e+00	-5.854430e-01	1.224752e+00	4.280727e+01	4.547934e-07	2.539629e+05	1.012859e+05	2.880920e+02	1.027200e-01	-5.509308e-02	0.000000e+00	
-2.000000e+00	-6.170886e-01	1.224752e+00	4.280727e+01	-3.139225e-08	2.539629e+05	1.012859e+05	2.880920e+02	1.027200e-01	-5.508759e-02	0.000000e+00	
-1.948718e+00	-6.170886e-01	1.224752e+00	4.280727e+01	4.956806e-07	2.539629e+05	1.012859e+05	2.880920e+02	1.027200e-01	-5.509306e-02	0.000000e+00	
-2.000000e+00	-6.487342e-01	1.224752e+00	4.280727e+01	-3.251881e-08	2.539629e+05	1.012859e+05	2.880920e+02	1.027200e-01	-5.508757e-02	0.000000e+00	
-1.948718e+00	-6.487342e-01	1.224752e+00	4.280727e+01	5.399191e-07	2.539629e+05	1.012859e+05	2.880920e+02	1.027200e-01	-5.509305e-02	0.000000e+00	
-2.000000e+00	-6.803797e-01	1.224752e+00	4.280727e+01	-3.382310e-08	2.539629e+05	1.012859e+05	2.880920e+02	1.027200e-01	-5.508756e-02	0.000000e+00	
-1.948718e+00	-6.803797e-01	1.224752e+00	4.280727e+01	5.879780e-07	2.539629e+05	1.012859e+05	2.880920e+02	1.027200e-01	-5.509303e-02	0.000000e+00	
-2.000000e+00	-7.120253e-01	1.224752e+00	4.280727e+01	-3.533941e-08	2.539629e+05	1.012859e+05	2.880920e+02	1.027200e-01	-5.508754e-02	0.000000e+00	
-1.948718e+00	-7.120253e-01	1.224752e+00	4.280727e+01	6.404671e-07	2.539629e+05	1.012859e+05	2.880920e+02	1.027200e-01	-5.509301e-02	0.000000e+00	
-2.000000e+00	-7.436709e-01	1.224752e+00	4.280727e+01	-3.724240e-08	2.539629e+05	1.012859e+05	2.880920e+02	1.027200e-01	-5.508752e-02	0.000000e+00	
-1.948718e+00	-7.436709e-01	1.224752e+00	4.280727e+01	6.978611e-07	2.539629e+05	1.012859e+05	2.880920e+02	1.027200e-01	-5.509299e-02	0.000000e+00	
-2.000000e+00	-7.753165e-01	1.224752e+00	4.280727e+01	-3.975803e-08	2.539629e+05	1.012859e+05	2.880920e+02	1.027200e-01	-5.508750e-02	0.000000e+00	
-1.948718e+00	-7.753165e-01	1.224752e+00	4.280727e+01	7.610533e-07	2.539629e+05	1.012859e+05	2.880920e+02	1.027200e-01	-5.509297e-02	0.000000e+00	
-2.000000e+00	-8.069620e-01	1.224752e+00	4.280727e+01	-4.312165e-08	2.539629e+05	1.012859e+05	2.880920e+02	1.027200e-01	-5.508748e-02	0.000000e+00	
-1.948718e+00	-8.069620e-01	1.224752e+00	4.280727e+01	8.310240e-07	2.539629e+05	1.012859e+05	2.880920e+02	1.027200e-01	-5.509295e-02	0.000000e+00	
-2.000000e+00	-8.386076e-01	1.224752e+00	4.280727e+01	-4.673045e-08	2.539629e+05	1.012859e+05	2.880920e+02	1.027200e-01	-5.508745e-02	0.000000e+00	
-1.948718e+00	-8.386076e-01	1.224752e+00	4.280727e+01	9.106753e-07	2.539629e+05	1.012859e+05	2.880920e+02	1.027200e-01	-5.509292e-02	0.000000e+00	
-2.000000e+00	-8.702532e-01	1.224752e+00	4.280727e+01	-4.891143e-08	2.539629e+05	1.012859e+05	2.880920e+02	1.027200e-01	-5.508743e-02	0.000000e+00	
-1.948718e+00	-8.702532e-01	1.224752e+00	4.280727e+01	1.003091e-06	2.539629e+05	1.012859e+05	2.880920e+02	1.027200e-01	-5.509290e-02	0.000000e+00	
-2.000000e+00	-9.018987e-01	1.224752e+00	4.280727e+01	-4.629187e-08	2.539629e+05	1.012859e+05	2.880920e+02	1.027200e-01	-5.508740e-02	0.000000e+00	
-1.948718e+00	-9.018987e-01	1.224752e+00	4.280727e+01	1.113704e-06	2.539629e+05	1.012859e+05	2.880920e+02	1.027200e-01	-5.509286e-02	0.000000e+00	
-2.000000e+00	-9.335443e-01	1.224752e+00	4.280727e+01	-3.764174e-08	2.539629e+05	1.012859e+05	2.880920e+02	1.027200e-01	-5.508736e-02	0.000000e+00	
-1.948718e+00	-9.335443e-01	1.224752e+00	4.280727e+01	1.240909e-06	2.539629e+05	1.012859e+05	2.880920e+02	1.027200e-01	-5.509283e-02	0.000000e+00	
-2.000000e+00	-9.651899e-01	1.224752e+00	4.280727e+01	-2.635885e-08	2.539629e+05	1.012859e+05	2.880920e+02	1.027200e-01	-5.508732e-02	0.000000e+00	
-1.948718e+00	-9.651899e-01	1.224752e+00	4.280727e+01	1.382295e-06	2.539629e+05	1.012859e+05	2.880920e+02	1.027200e-01	-5.509279e-02	0.000000e+00	
-2.000000e+00	-9.968354e-01	1.224752e+00	4.280727e+01	-2.611086e-08	2.539629e+05	1.012859e+05	2.880920e+02	1.027200e-01	-5.508728e-02	0.000000e+00	
-1.948718e+00	-9.968354e-01	1.224752e+00	4.280727e+01	1.521887e-06	2.539629e+05	1.012859e+05	2.880920e+02	1.027200e-01	-5.509275e-02	0.000000e+00	
-2.000000e+00	-1.028481e+00	1.224752e+00	4.280726e+01	-3.950845e-08	2.539629e+05	1.012859e+05	2.880920e+02	1.027200e-01	-5.508723e-02	0.000000e+00	
-1.948718e+00	-1.028481e+00	1.224752e+00	4.280727e+01	1.684172e-06	2.539629e+05	1.012859e+05	2.880920e+02	1.027200e-01	-5.509271e-02	0.000000e+00	
-2.000000e+00	-1.060127e+00	1.224752e+00	4.280726e+01	-2.799877e-08	2.539629e+05	1.012859e+05	2.880920e+02	1.027199e-01	-5.508718e-02	0.000000e+00	
-1.948718e+00	-1.060127e+00	1.224752e+00	4.280727e+01	1.925607e-06	2.539629e+05	1.012859e+05	2.880920e+02	1.027200e-01	-5.509265e-02	0.000000e+00	
-2.000000e+00	-1.091772e+00	1.224752e+00	4.280726e+01	1.662684e-07	2.539629e+05	1.012859e+05	2.880920e+02	1.027199e-01	-5.508711e-02	0.000000e+00	
-1.948718e+00	-1.091772e+00	1.224752e+00	4.280726e+01	2.455363e-06	2.539629e+05	1.012859e+05	2.880920e+02	1.027200e-01	-5.509260e-02	0.000000e+00	
-2.000000e+00	-1.123418e+00	1.224752e+00	4.280726e+01	7.702470e-07	2.539629e+05	1.012859e+05	2.880920e+02	1.027199e-01	-5.508702e-02	0.000000e+00	
-1.948718e+00	-1.123418e+00	1.224752e+00	4.280726e+01	3.376959e-06	2.539629e+05	1.012859e+05	2.880920e+02	1.027200e-01	-5.509253e-02	0.000000e+00	
-2.000000e+00	-1.155063e+00	1.224752e+00	4.280726e+01	1.949732e-06	2.539629e+05	1.012859e+05	2.880920e+02	1.027199e-01	-5.508690e-02	0.000000e+00	
-1.948718e+00	-1.155063e+00	1.224752e+00	4.280726e+01	4.734870e-06	2.539629e+05	1.012859e+05	2.880920e+02	1.027200e-01	-5.509250e-02	0.000000e+00	
-2.000000e+00	-1.186709e+00	1.224752e+00	4.280726e+01	3.214326e-06	2.539629e+05	1.012859e+05	2.880920e+02	1.027199e-01	-5.508670e-02	0.000000e+00	
-1.948718e+00	-1.186709e+00	1.224752e+00	4.280726e+01	5.464832e-06	2.539629e+05	1.012859e+05	2.880920e+02	1.027199e-01	-5.509239e-02	0.000000e+00	
-2.000000e+00	-1.218354e+00	1.224752e+00	4.280725e+01	3.371237e-06	2.539629e+05	1.012859e+05	2.880920e+02	1.027199e-01	-5.508648e-02	0.000000e+00	
-1.948718e+00	-1.218354e+00	1.224752e+00	4.280725e+01	4.717686e-06	2.539629e+05	1.012859e+05	2.880920e+02	1.027199e-01	-5.509244e-02	0.000000e+00	
-1.897436e+00	1.218354e+00	1.224752e+00	4.280725e+01	-5.246834e-06	2.539629e+05	1.012859e+05	2.880920e+02	1.027199e-01	-5.509671e-02	0.000000e+00	
-1.897436e+00	1.250000e+00	1.224752e+00	4.280723e+01	1.160899e-07	2.539629e+05	1.012859e+05	2.880920e+02	1.027199e-01	-5.509656e-02	0.000000e+00	
-1.897436e+00	1.186709e+00	1.224752e+00	4.280726e+01	-7.140246e-06	2.539629e+05	1.012859e+05	2.880920e+02	1.027199e-01	-5.509667e-02	0.000000e+00	
-1.897436e+00	1.155063e+00	1.224752e+00	4.280726e+01	-6.971775e-06	2.539629e+05	1.012859e+05	2.880920e+02	1.027200e-01	-5.509677e-02	0.000000e+00	
-1.897436e+00	1.123418e+00	1.224752e+00	4.280727e+01	-5.586117e-06	2.539629e+05	1.012859e+05	2.880920e+02	1.027200e-01	-5.509679e-02	0.000000e+00	
-1.897436e+00	1.091772e+00	1.224752e+00	4.280727e+01	-4.383607e-06	2.539629e+05	1.012859e+05	2.880920e+02	1.027200e-01	-5.509686e-02	0.000000e+00	
-1.897436e+00	1.060127e+00	1.224752e+00	4.280727e+01	-3.533319e-06	2.539629e+05	1.012859e+05	2.880920e+02	1.027200e-01	-5.509689e-02	0.000000e+00	
-1.897436e+00	1.028481e+00	1.224752e+00	4.280727e+01	-3.069643e-06	2.539629e+05	1.012859e+05	2.880920e+02	1.027200e-01	-5.509694e-02	0.000000e+00	
-1.897436e+00	9.968354e-01	1.224752e+00	4.280727e+01	-2.755016e-06	2.539629e+05	1.012859e+05	2.880920e+02	1.027200e-01	-5.509697e-02	0.000000e+00	
-1.897436e+00	9.651899e-01	1.224752e+00	4.280727e+01	-2.506106e-06	2.539629e+05	1.012859e+05	2.880920e+02	1.027200e-01	-5.509701e-02	0.000000e+00	
-1.897436e+00	9.335443e-01	1.224752e+00	4.280727e+01	-2.264337e-06	2.539629e+05	1.012859e+05	2.880920e+02	1.027200e-01	-5.509704e-02	0.000000e+00	
-1.897436e+00	9.018987e-01	1.224752e+00	4.280727e+01	-2.042777e-06	2.539629e+05	1.012859e+05	2.880920e+02	1.027200e-01	-5.509707e-02	0.000000e+00	
-1.897436e+00	8.702532e-01	1.224752e+00	4.280727e+01	-1.843297e-06	2.539629e+05	1.012859e+05	2.880920e+02	1.027200e-01	-5.509709e-02	0.000000e+00	
-1.897436e+00	8.386076e-01	1.224752e+00	4.280727e+01	-1.672037e-06	2.539629e+05	1.012859e+05	2.880920e+02	1.027200e-01	-5.509712e-02	0.000000e+00	
-1.897436e+00	8.069620e-01	1.224752e+00	4.280727e+01	-1.523166e-06	2.539629e+05	1.012859e+05	2.880920e+02	1.027200e-01	-5.509714e-02	0.000000e+00	
-1.897436e+00	7.753165e-01	1.224752e+00	4.280727e+01	-1.392918e-06	2.539629e+05	1.012859e+05	2.880920e+02	1.027200e-01	-5.509716e-02	0.000000e+00	
-1.897436e+00	7.436709e-01	1.224752e+00	4.280727e+01	-1.276306e-06	2.539629e+05	1.012859e+05	2.880920e+02	1.027200e-01	-5.509718e-02	0.000000e+00	
-1.897436e+00	7.120253e-01	1.224752e+00	4.280727e+01	-1.171151e-06	2.539629e+05	1.012859e+05	2.880920e+02	1.027200e-01	-5.509720e-02	0.000000e+00	
-1.897436e+00	6.803797e-01	1.224752e+00	4.280727e+01	-1.075482e-06	2.539629e+05	1.012859e+05	2.880920e+02	1.027200e-01	-5.509722e-02	0.000000e+00	
-1.897436e+00	6.487342e-01	1.224752e+00	4.280727e+01	-9.882576e-07	2.539629e+05	1.012859e+05	2.880920e+02	1.027200e-01	-5.509723e-02	0.000000e+00	
-1.897436e+00	6.170886e-01	1.224752e+00	4.280727e+01	-9.083144e-07	2.539629e+05	1.012859e+05	2.880920e+02	1.027200e-01	-5.509725e-02	0.000000e+00	
-1.897436e+00	5.854430e-01	1.224752e+00	4.280727e+01	-8.347647e-07	2.539629e+05	1.012859e+05	2.880920e+02	1.027200e-01	-5.509726e-02	0.000000e+00	
-1.897436e+00	5.537975e-01	1.224752e+00	4.280727e+01	-7.667250e-07	2.539629e+05	1.012859e+05	2.880920e+02	1.027200e-01	-5.509727e-02	0.000000e+00	
-1.897436e+00	5.221519e-01	1.224752e+00	4.280727e+01	-7.034981e-07	2.539629e+05	1.012859e+05	2.880920e+02	1.027200e-01	-5.509728e-02	0.000000e+00	
-1.897436e+00	4.905063e-01	1.224752e+00	4.280728e+01	-6.444557e-07	2.539629e+05	1.012859e+05	2.880920e+02	1.027200e-01	-5.509730e-02	0.000000e+00	
-1.897436e+00	4.588608e-01	1.224752e+00	4.280728e+01	-5.890825e-07	2.539629e+05	1.012859e+05	2.880920e+02	1.027200e-01	-5.509730e-02	0.000000e+00	
-1.897436e+00	4.272152e-01	1.224752e+00	4.280728e+01	-5.369160e-07	2.539629e+05	1.012859e+05	2.880920e+02	1.027200e-01	-5.509731e-02	0.000000e+00	
-1.897436e+00	3.955696e-01	1.224752e+00	4.280728e+01	-4.875555e-07	2.539629e+05	1.012859e+05	2.880920e+02	1.027200e-01	-5.509732e-02	0.000000e+00	
-1.897436e+00	3.639241e-01	1.224752e+00	4.280728e+01	-4.406390e-07	2.539629e+05	1.012859e+05	2.880920e+02	1.027200e-01	-5.509733e-02	0.000000e+00	
-1.897436e+00	3.322785e-01	1.224752e+00	4.280728e+01	-3.958443e-07	2.539629e+05	1.012859e+05	2.880920e+02	1.027200e-01	-5.509734e-02	0.000000e+00	
-1.897436e+00	3.006329e-01	1.224752e+00	4.280728e+01	-3.528783e-07	2.539629e+05	1.012859e+05	2.880920e+02	1.027200e-01	-5.509734e-02	0.000000e+00	
-1.897436e+00	2.689873e-01	1.224752e+00	4.280728e+01	-3.114754e-07	2.539629e+05	1.012859e+05	2.880920e+02	1.027200e-01	-5.509735e-02	0.000000e+00	
-1.897436e+00	2.373418e-01	1.224752e+00	4.280728e+01	-2.713911e-07	2.539629e+05	1.012859e+05	2.880920e+02	1.027200e-01	-5.509735e-02	0.000000e+00	
-1.897436e+00	2.056962e-01	1.224752e+00	4.280728e+01	-2.323997e-07	2.539629e+05	1.012859e+05	2.880920e+02	1.027200e-01	-5.509736e-02	0.000000e+00	
-1.897436e+00	1.740506e-01	1.224752e+00	4.280728e+01	-1.942902e-07	2.539629e+05	1.012859e+05	2.880920e+02	1.027200e-01	-5.509736e-02	0.000000e+00	
-1.897436e+00	1.424051e-01	1.224752e+00	4.280728e+01	-1.568646e-07	2.539629e+05	1.012859e+05	2.880920e+02	1.027200e-01	-5.509737e-02	0.000000e+00	
-1.897436e+00	1.107595e-01	1.224752e+00	4.280728e+01	-1.199347e-07	2.539629e+05	1.012859e+05	2.880920e+02	1.027200e-01	-5.509737e-02	0.000000e+00	
-1.897436e+00	7.911392e-02	1.224752e+00	4.280728e+01	-8.332164e-08	2.539629e+05	1.012859e+05	2.880920e+02	1.027200e-01	-5.509737e-02	0.000000e+00	
-1.897436e+00	4.746835e-02	1.224752e+00	4.280728e+01	-4.685255e-08	2.539629e+05	1.012859e+05	2.880920e+02	1.027200e-01	-5.509737e-02	0.000000e+00	
-1.897436e+00	1.582278e-02	1.224752e+00	4.280728e+01	-1.035998e-08	2.539629e+05	1.012859e+05	2.880920e+02	1.027200e-01	-5.509737e-02	0.000000e+00	
-1.897436e+00	-1.582278e-02	1.224752e+00	4.280728e+01	2.632024e-08	2.539629e+05	1.012859e+05	2.880920e+02	1.027200e-01	-5.509737e-02	0.000000e+00	
-1.897436e+00	-4.746835e-02	1.224752e+00	4.280728e+01	6.334998e-08	2.539629e+05	1.012859e+05	2.880920e+02	1.027200e-01	-5.509737e-02	0.000000e+00	
-1.897436e+00	-7.911392e-02	1.224752e+00	4.280728e+01	1.008903e-07	2.539629e+05	1.012859e+05	2.880920e+02	1.027200e-01	-5.509737e-02	0.000000e+00	
-1.897436e+00	-1.107595e-01	1.224752e+00	4.280728e+01	1.391032e-07	2.539629e+05	1.012859e+05	2.880920e+02	1.027200e-01	-5.509737e-02	0.000000e+00	