TITLE = "Visualization of the volumetric solution"
VARIABLES = "x","y","Density","Momentum_x","Momentum_y","Energy","Pressure","Temperature","Mach","C<sub>p</sub>","Roe_Dissipation"
ZONE NODES= 2400, ELEMENTS= 2291, DATAPACKING=POINT, ZONETYPE=FEQUADRILATERAL
0.000000e+00	1.250000e+00	1.224751e+00	4.280785e+01	-5.220100e-02	2.539633e+05	1.012861e+05	2.880928e+02	1.027214e-01	-5.487277e-02	0.000000e+00	
0.000000e+00	1.218354e+00	1.224751e+00	4.280787e+01	-5.200824e-02	2.539633e+05	1.012861e+05	2.880928e+02	1.027215e-01	-5.485788e-02	0.000000e+00	
3.448276e-02	1.218354e+00	1.224804e+00	4.280671e+01	-2.870343e-01	2.539778e+05	1.012919e+05	2.880969e+02	1.027157e-01	-4.666623e-02	0.000000e+00	
3.448276e-02	1.250000e+00	1.224804e+00	4.280665e+01	-2.870161e-01	2.539778e+05	1.012919e+05	2.880969e+02	1.027156e-01	-4.666148e-02	0.000000e+00	
0.000000e+00	1.186709e+00	1.224751e+00	4.280792e+01	-5.192380e-02	2.539633e+05	1.012861e+05	2.880928e+02	1.027216e-01	-5.486743e-02	0.000000e+00	
3.448276e-02	1.186709e+00	1.224804e+00	4.280674e+01	-2.870109e-01	2.539778e+05	1.012919e+05	2.880969e+02	1.027158e-01	-4.665931e-02	0.000000e+00	
0.000000e+00	1.155063e+00	1.224751e+00	4.280800e+01	-5.187988e-02	2.539633e+05	1.012861e+05	2.880928e+02	1.027218e-01	-5.486987e-02	0.000000e+00	
3.448276e-02	1.155063e+00	1.224804e+00	4.280679e+01	-2.870024e-01	2.539778e+05	1.012919e+05	2.880969e+02	1.027159e-01	-4.665659e-02	0.000000e+00	
0.000000e+00	1.123418e+00	1.224751e+00	4.280807e+01	-5.186255e-02	2.539633e+05	1.012861e+05	2.880928e+02	1.027219e-01	-5.487015e-02	0.000000e+00	
3.448276e-02	1.123418e+00	1.224804e+00	4.280684e+01	-2.870007e-01	2.539779e+05	1.012919e+05	2.880969e+02	1.027160e-01	-4.665435e-02	0.000000e+00	
0.000000e+00	1.091772e+00	1.224751e+00	4.280811e+01	-5.185933e-02	2.539633e+05	1.012861e+05	2.880928e+02	1.027220e-01	-5.487027e-02	0.000000e+00	
3.448276e-02	1.091772e+00	1.224804e+00	4.280688e+01	-2.870051e-01	2.539779e+05	1.012919e+05	2.880969e+02	1.027161e-01	-4.665338e-02	0.000000e+00	
0.000000e+00	1.060127e+00	1.224751e+00	4.280813e+01	-5.186108e-02	2.539633e+05	1.012861e+05	2.880928e+02	1.027221e-01	-5.487018e-02	0.000000e+00	
3.448276e-02	1.060127e+00	1.224804e+00	4.280690e+01	-2.870105e-01	2.539779e+05	1.012919e+05	2.880969e+02	1.027162e-01	-4.665272e-02	0.000000e+00	
0.000000e+00	1.028481e+00	1.224751e+00	4.280814e+01	-5.186448e-02	2.539633e+05	1.012861e+05	2.880928e+02	1.027221e-01	-5.487017e-02	0.000000e+00	
3.448276e-02	1.028481e+00	1.224804e+00	4.280691e+01	-2.870161e-01	2.539779e+05	1.012919e+05	2.880969e+02	1.027162e-01	-4.665247e-02	0.000000e+00	
0.000000e+00	9.968354e-01	1.224751e+00	4.280814e+01	-5.186782e-02	2.539633e+05	1.012861e+05	2.880928e+02	1.027221e-01	-5.487017e-02	0.000000e+00	
3.448276e-02	9.968354e-01	1.224804e+00	4.280690e+01	-2.870208e-01	2.539779e+05	1.012919e+05	2.880969e+02	1.027162e-01	-4.665233e-02	0.000000e+00	
0.000000e+00	9.651899e-01	1.224751e+00	4.280813e+01	-5.187064e-02	2.539633e+05	1.012861e+05	2.880928e+02	1.027221e-01	-5.487020e-02	0.000000e+00	
3.448276e-02	9.651899e-01	1.224804e+00	4.280690e+01	-2.870245e-01	2.539779e+05	1.012919e+05	2.880969e+02	1.027162e-01	-4.665228e-02	0.000000e+00	
0.000000e+00	9.335443e-01	1.224751e+00	4.280812e+01	-5.187282e-02	2.539633e+05	1.012861e+05	2.880928e+02	1.027221e-01	-5.487020e-02	0.000000e+00	
3.448276e-02	9.335443e-01	1.224804e+00	4.280689e+01	-2.870273e-01	2.539779e+05	1.012919e+05	2.880969e+02	1.027162e-01	-4.665224e-02	0.000000e+00	
0.000000e+00	9.018987e-01	1.224751e+00	4.280812e+01	-5.187455e-02	2.539633e+05	1.012861e+05	2.880928e+02	1.027221e-01	-5.487020e-02	0.000000e+00	
3.448276e-02	9.018987e-01	1.224804e+00	4.280689e+01	-2.870294e-01	2.539779e+05	1.012919e+05	2.880969e+02	1.027161e-01	-4.665220e-02	0.000000e+00	
0.000000e+00	8.702532e-01	1.224751e+00	4.280811e+01	-5.187602e-02	2.539633e+05	1.012861e+05	2.880928e+02	1.027220e-01	-5.487019e-02	0.000000e+00	
3.448276e-02	8.702532e-01	1.224804e+00	4.280688e+01	-2.870311e-01	2.539779e+05	1.012919e+05	2.880969e+02	1.027161e-01	-4.665216e-02	0.000000e+00	
0.000000e+00	8.386076e-01	1.224751e+00	4.280811e+01	-5.187740e-02	2.539633e+05	1.012861e+05	2.880928e+02	1.027220e-01	-5.487016e-02	0.000000e+00	
3.448276e-02	8.386076e-01	1.224804e+00	4.280688e+01	-2.870325e-01	2.539779e+05	1.012919e+05	2.880969e+02	1.027161e-01	-4.665212e-02	0.000000e+00	
0.000000e+00	8.069620e-01	1.224751e+00	4.280811e+01	-5.187877e-02	2.539633e+05	1.012861e+05	2.880928e+02	1.027220e-01	-5.487013e-02	0.000000e+00	
3.448276e-02	8.069620e-01	1.224804e+00	4.280688e+01	-2.870337e-01	2.539779e+05	1.012919e+05	2.880969e+02	1.027161e-01	-4.665208e-02	0.000000e+00	
0.000000e+00	7.753165e-01	1.224751e+00	4.280811e+01	-5.188016e-02	2.539633e+05	1.012861e+05	2.880928e+02	1.027220e-01	-5.487010e-02	0.000000e+00	
3.448276e-02	7.753165e-01	1.224804e+00	4.280688e+01	-2.870350e-01	2.539779e+05	1.012919e+05	2.880969e+02	1.027161e-01	-4.665205e-02	0.000000e+00	
0.000000e+00	7.436709e-01	1.224751e+00	4.280811e+01	-5.188153e-02	2.539633e+05	1.012861e+05	2.880928e+02	1.027220e-01	-5.487008e-02	0.000000e+00	
3.448276e-02	7.436709e-01	1.224804e+00	4.280688e+01	-2.870361e-01	2.539779e+05	1.012919e+05	2.880969e+02	1.027161e-01	-4.665204e-02	0.000000e+00	
0.000000e+00	7.120253e-01	1.224751e+00	4.280811e+01	-5.188286e-02	2.539633e+05	1.012861e+05	2.880928e+02	1.027220e-01	-5.487006e-02	0.000000e+00	
3.448276e-02	7.120253e-01	1.224804e+00	4.280688e+01	-2.870372e-01	2.539779e+05	1.012919e+05	2.880969e+02	1.027161e-01	-4.665203e-02	0.000000e+00	
0.000000e+00	6.803797e-01	1.224751e+00	4.280811e+01	-5.188412e-02	2.539633e+05	1.012861e+05	2.880928e+02	1.027220e-01	-5.487004e-02	0.000000e+00	
3.448276e-02	6.803797e-01	1.224804e+00	4.280688e+01	-2.870383e-01	2.539779e+05	1.012919e+05	2.880969e+02	1.027161e-01	-4.665203e-02	0.000000e+00	
0.000000e+00	6.487342e-01	1.224751e+00	4.280811e+01	-5.188530e-02	2.539633e+05	1.012861e+05	2.880928e+02	1.027220e-01	-5.487003e-02	0.000000e+00	
3.448276e-02	6.487342e-01	1.224804e+00	4.280688e+01	-2.870393e-01	2.539779e+05	1.012919e+05	2.880969e+02	1.027161e-01	-4.665203e-02	0.000000e+00	
0.000000e+00	6.170886e-01	1.224751e+00	4.280811e+01	-5.188640e-02	2.539633e+05	1.012861e+05	2.880928e+02	1.027220e-01	-5.487002e-02	0.000000e+00	
3.448276e-02	6.170886e-01	1.224804e+00	4.280688e+01	-2.870401e-01	2.539779e+05	1.012919e+05	2.880969e+02	1.027161e-01	-4.665204e-02	0.000000e+00	
0.000000e+00	5.854430e-01	1.224751e+00	4.280811e+01	-5.188743e-02	2.539633e+05	1.012861e+05	2.880928e+02	1.027220e-01	-5.487002e-02	0.000000e+00	
3.448276e-02	5.854430e-01	1.224804e+00	4.280688e+01	-2.870410e-01	2.539779e+05	1.012919e+05	2.880969e+02	1.027161e-01	-4.665205e-02	0.000000e+00	
0.000000e+00	5.537975e-01	1.224751e+00	4.280811e+01	-5.188840e-02	2.539633e+05	1.012861e+05	2.880928e+02	1.027220e-01	-5.487002e-02	0.000000e+00	
3.448276e-02	5.537975e-01	1.224804e+00	4.280688e+01	-2.870417e-01	2.539779e+05	1.012919e+05	2.880969e+02	1.027161e-01	-4.665206e-02	0.000000e+00	
0.000000e+00	5.221519e-01	1.224751e+00	4.280811e+01	-5.188932e-02	2.539633e+05	1.012861e+05	2.880928e+02	1.027220e-01	-5.487002e-02	0.000000e+00	
3.448276e-02	5.221519e-01	1.224804e+00	4.280688e+01	-2.870425e-01	2.539779e+05	1.012919e+05	2.880969e+02	1.027161e-01	-4.665207e-02	0.000000e+00	
0.000000e+00	4.905063e-01	1.224751e+00	4.280811e+01	-5.189020e-02	2.539633e+05	1.012861e+05	2.880928e+02	1.027220e-01	-5.487002e-02	0.000000e+00	
3.448276e-02	4.905063e-01	1.224804e+00	4.280688e+01	-2.870431e-01	2.539779e+05	1.012919e+05	2.880969e+02	1.027161e-01	-4.665208e-02	0.000000e+00	
0.000000e+00	4.588608e-01	1.224751e+00	4.280811e+01	-5.189103e-02	2.539633e+05	1.012861e+05	2.880928e+02	1.027220e-01	-5.487003e-02	0.000000e+00	
3.448276e-02	4.588608e-01	1.224804e+00	4.280688e+01	-2.870437e-01	2.539779e+05	1.012919e+05	2.880969e+02	1.027161e-01	-4.665210e-02	0.000000e+00	
0.000000e+00	4.272152e-01	1.224751e+00	4.280811e+01	-5.189181e-02	2.539633e+05	1.012861e+05	2.880928e+02	1.027220e-01	-5.487003e-02	0.000000e+00	
3.448276e-02	4.272152e-01	1.224804e+00	4.280688e+01	-2.870443e-01	2.539779e+05	1.012919e+05	2.880969e+02	1.027161e-01	-4.665212e-02	0.000000e+00	
0.000000e+00	3.955696e-01	1.224751e+00	4.280811e+01	-5.189256e-02	2.539633e+05	1.012861e+05	2.880928e+02	1.027220e-01	-5.487004e-02	0.000000e+00	
3.448276e-02	3.955696e-01	1.224804e+00	4.280688e+01	-2.870449e-01	2.539779e+05	1.012919e+05	2.880969e+02	1.027161e-01	-4.665214e-02	0.000000e+00	
0.000000e+00	3.639241e-01	1.224751e+00	4.280811e+01	-5.189327e-02	2.539633e+05	1.012861e+05	2.880928e+02	1.027220e-01	-5.487005e-02	0.000000e+00	
3.448276e-02	3.639241e-01	1.224804e+00	4.280688e+01	-2.870454e-01	2.539779e+05	1.012919e+05	2.880969e+02	1.027161e-01	-4.665215e-02	0.000000e+00	
0.000000e+00	3.322785e-01	1.224751e+00	4.280811e+01	-5.189394e-02	2.539633e+05	1.012861e+05	2.880928e+02	1.027220e-01	-5.487006e-02	0.000000e+00	
3.448276e-02	3.322785e-01	1.224804e+00	4.280688e+01	-2.870459e-01	2.539779e+05	1.012919e+05	2.880969e+02	1.027161e-01	-4.665218e-02	0.000000e+00	
0.000000e+00	3.006329e-01	1.224751e+00	4.280811e+01	-5.189457e-02	2.539633e+05	1.012861e+05	2.880928e+02	1.027220e-01	-5.487007e-02	0.000000e+00	
3.448276e-02	3.006329e-01	1.224804e+00	4.280688e+01	-2.870463e-01	2.539779e+05	1.012919e+05	2.880969e+02	1.027161e-01	-4.665220e-02	0.000000e+00	
0.000000e+00	2.689873e-01	1.224751e+00	4.280811e+01	-5.189517e-02	2.539633e+05	1.012861e+05	2.880928e+02	1.027220e-01	-5.487009e-02	0.000000e+00	
3.448276e-02	2.689873e-01	1.224804e+00	4.280688e+01	-2.870467e-01	2.539779e+05	1.012919e+05	2.880969e+02	1.027161e-01	-4.665222e-02	0.000000e+00	
0.000000e+00	2.373418e-01	1.224751e+00	4.280811e+01	-5.189574e-02	2.539633e+05	1.012861e+05	2.880928e+02	1.027220e-01	-5.487010e-02	0.000000e+00	
3.448276e-02	2.373418e-01	1.224804e+00	4.280688e+01	-2.870471e-01	2.539779e+05	1.012919e+05	2.880969e+02	1.027161e-01	-4.665224e-02	0.000000e+00	
0.000000e+00	2.056962e-01	1.224751e+00	4.280811e+01	-5.189627e-02	2.539633e+05	1.012861e+05	2.880928e+02	1.027220e-01	-5.487012e-02	0.000000e+00	
3.448276e-02	2.056962e-01	1.224804e+00	4.280688e+01	-2.870475e-01	2.539779e+05	1.012919e+05	2.880969e+02	1.027161e-01	-4.665227e-02	0.000000e+00	
0.000000e+00	1.740506e-01	1.224751e+00	4.280811e+01	-5.189678e-02	2.539633e+05	1.012861e+05	2.880928e+02	1.027220e-01	-5.487013e-02	0.000000e+00	
3.448276e-02	1.740506e-01	1.224804e+00	4.280688e+01	-2.870478e-01	2.539779e+05	1.012919e+05	2.880969e+02	1.027161e-01	-4.665229e-02	0.000000e+00	
0.000000e+00	1.424051e-01	1.224751e+00	4.280811e+01	-5.189725e-02	2.539633e+05	1.012861e+05	2.880928e+02	1.027220e-01	-5.487015e-02	0.000000e+00	
3.448276e-02	1.424051e-01	1.224804e+00	4.280688e+01	-2.870481e-01	2.539779e+05	1.012919e+05	2.880969e+02	1.027161e-01	-4.665232e-02	0.000000e+00	
0.000000e+00	1.107595e-01	1.224751e+00	4.280811e+01	-5.189770e-02	2.539633e+05	1.012861e+05	2.880928e+02	1.027220e-01	-5.487016e-02	0.000000e+00	
3.448276e-02	1.107595e-01	1.224804e+00	4.280688e+01	-2.870484e-01	2.539779e+05	1.012919e+05	2.880969e+02	1.027161e-01	-4.665234e-02	0.000000e+00	
0.000000e+00	7.911392e-02	1.224751e+00	4.280811e+01	-5.189812e-02	2.539633e+05	1.012861e+05	2.880928e+02	1.027220e-01	-5.487018e-02	0.000000e+00	
3.448276e-02	7.911392e-02	1.224804e+00	4.280688e+01	-2.870486e-01	2.539779e+05	1.012919e+05	2.880969e+02	1.027161e-01	-4.665237e-02	0.000000e+00	
0.000000e+00	4.746835e-02	1.224751e+00	4.280811e+01	-5.189852e-02	2.539633e+05	1.012861e+05	2.880928e+02	1.027220e-01	-5.487020e-02	0.000000e+00	
3.448276e-02	4.746835e-02	1.224804e+00	4.280688e+01	-2.870488e-01	2.539779e+05	1.012919e+05	2.880969e+02	1.027161e-01	-4.665239e-02	0.000000e+00	
0.000000e+00	1.582278e-02	1.224751e+00	4.280811e+01	-5.189890e-02	2.539633e+05	1.012861e+05	2.880928e+02	1.027220e-01	-5.487022e-02	0.000000e+00	
3.448276e-02	1.582278e-02	1.224804e+00	4.280688e+01	-2.870491e-01	2.539779e+05	1.012919e+05	2.880969e+02	1.027161e-01	-4.665242e-02	0.000000e+00	
0.000000e+00	-1.582278e-02	1.224751e+00	4.280811e+01	-5.189926e-02	2.539633e+05	1.012861e+05	2.880928e+02	1.027220e-01	-5.487024e-02	0.000000e+00	
3.448276e-02	-1.582278e-02	1.224804e+00	4.280688e+01	-2.870492e-01	2.539779e+05	1.012919e+05	2.880969e+02	1.027161e-01	-4.665245e-02	0.000000e+00	
0.000000e+00	-4.746835e-02	1.224751e+00	4.280811e+01	-5.189959e-02	2.539633e+05	1.012861e+05	2.880928e+02	1.027220e-01	-5.487026e-02	0.000000e+00	
3.448276e-02	-4.746835e-02	1.224804e+00	4.280688e+01	-2.870494e-01	2.539779e+05	1.012919e+05	2.880969e+02	1.027161e-01	-4.665247e-02	0.000000e+00	
0.000000e+00	-7.911392e-02	1.224751e+00	4.280811e+01	-5.189991e-02	2.539633e+05	1.012861e+05	2.880928e+02	1.027220e-01	-5.487028e-02	0.000000e+00	
3.448276e-02	-7.911392e-02	1.224804e+00	4.280688e+01	-2.870496e-01	2.539779e+05	1.012919e+05	2.880969e+02	1.027161e-01	-4.665250e-02	0.000000e+00	
0.000000e+00	-1.107595e-01	1.224751e+00	4.280811e+01	-5.190022e-02	2.539633e+05	1.012861e+05	2.880928e+02	1.027220e-01	-5.487030e-02	0.000000e+00	
3.448276e-02	-1.107595e-01	1.224804e+00	4.280688e+01	-2.870497e-01	2.539779e+05	1.012919e+05	2.880969e+02	1.027161e-01	-4.665253e-02	0.000000e+00	
0.000000e+00	-1.424051e-01	1.224751e+00	4.280812e+01	-5.190050e-02	2.539633e+05	1.012861e+05	2.880928e+02	1.027220e-01	-5.487033e-02	0.000000e+00	
3.448276e-02	-1.424051e-01	1.224804e+00	4.280689e+01	-2.870499e-01	2.539779e+05	1.012919e+05	2.880969e+02	1.027161e-01	-4.665256e-02	0.000000e+00	
0.000000e+00	-1.740506e-01	1.224751e+00	4.280812e+01	-5.190078e-02	2.539633e+05	1.012861e+05	2.880928e+02	1.027220e-01	-5.487035e-02	0.000000e+00	
3.448276e-02	-1.740506e-01	1.224804e+00	4.280689e+01	-2.870500e-01	2.539779e+05	1.012919e+05	2.880969e+02	1.027161e-01	-4.665259e-02	0.000000e+00	
0.000000e+00	-2.056962e-01	1.224751e+00	4.280812e+01	-5.190104e-02	2.539633e+05	1.012861e+05	2.880928e+02	1.027220e-01	-5.487037e-02	0.000000e+00	
3.448276e-02	-2.056962e-01	1.224804e+00	4.280689e+01	-2.870501e-01	2.539779e+05	1.012919e+05	2.880969e+02	1.027161e-01	-4.665262e-02	0.000000e+00	
0.000000e+00	-2.373418e-01	1.224751e+00	4.280812e+01	-5.190130e-02	2.539633e+05	1.012861e+05	2.880928e+02	1.027221e-01	-5.487040e-02	0.000000e+00	
3.448276e-02	-2.373418e-01	1.224804e+00	4.280689e+01	-2.870502e-01	2.539779e+05	1.012919e+05	2.880969e+02	1.027161e-01	-4.665265e-02	0.000000e+00	
0.000000e+00	-2.689873e-01	1.224751e+00	4.280812e+01	-5.190154e-02	2.539633e+05	1.012861e+05	2.880928e+02	1.027221e-01	-5.487042e-02	0.000000e+00	
3.448276e-02	-2.689873e-01	1.224804e+00	4.280689e+01	-2.870503e-01	2.539779e+05	1.012919e+05	2.880969e+02	1.027161e-01	-4.665268e-02	0.000000e+00	
0.000000e+00	-3.006329e-01	1.224751e+00	4.280812e+01	-5.190178e-02	2.539633e+05	1.012861e+05	2.880928e+02	1.027221e-01	-5.487045e-02	0.000000e+00	
3.448276e-02	-3.006329e-01	1.224804e+00	4.280689e+01	-2.870504e-01	2.539779e+05	1.012919e+05	2.880969e+02	1.027161e-01	-4.665271e-02	0.000000e+00	
0.000000e+00	-3.322785e-01	1.224751e+00	4.280812e+01	-5.190202e-02	2.539633e+05	1.012861e+05	2.880928e+02	1.027221e-01	-5.487047e-02	0.000000e+00	
3.448276e-02	-3.322785e-01	1.224804e+00	4.280689e+01	-2.870505e-01	2.539779e+05	1.012919e+05	2.880969e+02	1.027162e-01	-4.665274e-02	0.000000e+00	
0.000000e+00	-3.639241e-01	1.224751e+00	4.280812e+01	-5.190225e-02	2.539633e+05	1.012861e+05	2.880928e+02	1.027221e-01	-5.487050e-02	0.000000e+00	
3.448276e-02	-3.639241e-01	1.224804e+00	4.280689e+01	-2.870506e-01	2.539779e+05	1.012919e+05	2.880969e+02	1.027162e-01	-4.665277e-02	0.000000e+00	
0.000000e+00	-3.955696e-01	1.224751e+00	4.280812e+01	-5.190249e-02	2.539633e+05	1.012861e+05	2.880928e+02	1.027221e-01	-5.487053e-02	0.000000e+00	
3.448276e-02	-3.955696e-01	1.224804e+00	4.280689e+01	-2.870507e-01	2.539779e+05	1.012919e+05	2.880969e+02	1.027162e-01	-4.665280e-02	0.000000e+00	
0.000000e+00	-4.272152e-01	1.224751e+00	4.280812e+01	-5.190273e-02	2.539633e+05	1.012861e+05	2.880928e+02	1.027221e-01	-5.487056e-02	0.000000e+00	
3.448276e-02	-4.272152e-01	1.224804e+00	4.280689e+01	-2.870508e-01	2.539779e+05	1.012919e+05	2.880969e+02	1.027162e-01	-4.665284e-02	0.000000e+00	
0.000000e+00	-4.588608e-01	1.224751e+00	4.280812e+01	-5.190297e-02	2.539633e+05	1.012861e+05	2.880928e+02	1.027221e-01	-5.487059e-02	0.000000e+00	
3.448276e-02	-4.588608e-01	1.224804e+00	4.280689e+01	-2.870509e-01	2.539779e+05	1.012919e+05	2.880969e+02	1.027162e-01	-4.665287e-02	0.000000e+00	
0.000000e+00	-4.905063e-01	1.224751e+00	4.280812e+01	-5.190323e-02	2.539633e+05	1.012861e+05	2.880928e+02	1.027221e-01	-5.487062e-02	0.000000e+00	
3.448276e-02	-4.905063e-01	1.224804e+00	4.280689e+01	-2.870510e-01	2.539779e+05	1.012919e+05	2.880969e+02	1.027162e-01	-4.665291e-02	0.000000e+00	
0.000000e+00	-5.221519e-01	1.224751e+00	4.280812e+01	-5.190350e-02	2.539633e+05	1.012861e+05	2.880928e+02	1.027221e-01	-5.487065e-02	0.000000e+00	
3.448276e-02	-5.221519e-01	1.224804e+00	4.280689e+01	-2.870511e-01	2.539779e+05	1.012919e+05	2.880969e+02	1.027162e-01	-4.665295e-02	0.000000e+00	
0.000000e+00	-5.537975e-01	1.224751e+00	4.280812e+01	-5.190378e-02	2.539633e+05	1.012861e+05	2.880928e+02	1.027221e-01	-5.487069e-02	0.000000e+00	
3.448276e-02	-5.537975e-01	1.224804e+00	4.280689e+01	-2.870512e-01	2.539779e+05	1.012919e+05	2.880969e+02	1.027162e-01	-4.665299e-02	0.000000e+00	
0.000000e+00	-5.854430e-01	1.224751e+00	4.280813e+01	-5.190408e-02	2.539633e+05	1.012861e+05	2.880928e+02	1.027221e-01	-5.487073e-02	0.000000e+00	
3.448276e-02	-5.854430e-01	1.224804e+00	4.280689e+01	-2.870513e-01	2.539779e+05	1.012919e+05	2.880969e+02	1.027162e-01	-4.665304e-02	0.000000e+00	
0.000000e+00	-6.170886e-01	1.224751e+00	4.280813e+01	-5.190440e-02	2.539633e+05	1.012861e+05	2.880928e+02	1.027221e-01	-5.487077e-02	0.000000e+00	
3.448276e-02	-6.170886e-01	1.224804e+00	4.280690e+01	-2.870515e-01	2.539779e+05	1.012919e+05	2.880969e+02	1.027162e-01	-4.665308e-02	0.000000e+00	
0.000000e+00	-6.487342e-01	1.224751e+00	4.280813e+01	-5.190475e-02	2.539633e+05	1.012861e+05	2.880928e+02	1.027221e-01	-5.487081e-02	0.000000e+00	
3.448276e-02	-6.487342e-01	1.224804e+00	4.280690e+01	-2.870516e-01	2.539779e+05	1.012919e+05	2.880969e+02	1.027162e-01	-4.665314e-02	0.000000e+00	
0.000000e+00	-6.803797e-01	1.224751e+00	4.280813e+01	-5.190513e-02	2.539633e+05	1.012861e+05	2.880928e+02	1.027221e-01	-5.487086e-02	0.000000e+00	
3.448276e-02	-6.803797e-01	1.224804e+00	4.280690e+01	-2.870518e-01	2.539779e+05	1.012919e+05	2.880969e+02	1.027162e-01	-4.665319e-02	0.000000e+00	
0.000000e+00	-7.120253e-01	1.224751e+00	4.280813e+01	-5.190556e-02	2.539633e+05	1.012861e+05	2.880928e+02	1.027221e-01	-5.487092e-02	0.000000e+00	
3.448276e-02	-7.120253e-01	1.224804e+00	4.280690e+01	-2.870521e-01	2.539779e+05	1.012919e+05	2.880969e+02	1.027162e-01	-4.665326e-02	0.000000e+00	
0.000000e+00	-7.436709e-01	1.224751e+00	4.280813e+01	-5.190605e-02	2.539633e+05	1.012861e+05	2.880928e+02	1.027221e-01	-5.487098e-02	0.000000e+00	
3.448276e-02	-7.436709e-01	1.224804e+00	4.280690e+01	-2.870524e-01	2.539779e+05	1.012919e+05	2.880969e+02	1.027162e-01	-4.665332e-02	0.000000e+00	
0.000000e+00	-7.753165e-01	1.224751e+00	4.280813e+01	-5.190661e-02	2.539633e+05	1.012861e+05	2.880928e+02	1.027221e-01	-5.487105e-02	0.000000e+00	
3.448276e-02	-7.753165e-01	1.224804e+00	4.280690e+01	-2.870527e-01	2.539779e+05	1.012919e+05	2.880969e+02	1.027162e-01	-4.665339e-02	0.000000e+00	
0.000000e+00	-8.069620e-01	1.224751e+00	4.280813e+01	-5.190728e-02	2.539633e+05	1.012861e+05	2.880928e+02	1.027221e-01	-5.487112e-02	0.000000e+00	
3.448276e-02	-8.069620e-01	1.224804e+00	4.280690e+01	-2.870531e-01	2.539779e+05	1.012919e+05	2.880969e+02	1.027162e-01	-4.665346e-02	0.000000e+00	
0.000000e+00	-8.386076e-01	1.224751e+00	4.280813e+01	-5.190805e-02	2.539633e+05	1.012861e+05	2.880928e+02	1.027221e-01	-5.487120e-02	0.000000e+00	
3.448276e-02	-8.386076e-01	1.224804e+00	4.280690e+01	-2.870535e-01	2.539779e+05	1.012919e+05	2.880969e+02	1.027162e-01	-4.665354e-02	0.000000e+00	
0.000000e+00	-8.702532e-01	1.224751e+00	4.280814e+01	-5.190897e-02	2.539633e+05	1.012861e+05	2.880928e+02	1.027221e-01	-5.487128e-02	0.000000e+00	
3.448276e-02	-8.702532e-01	1.224804e+00	4.280691e+01	-2.870540e-01	2.539779e+05	1.012919e+05	2.880969e+02	1.027162e-01	-4.665362e-02	0.000000e+00	
0.000000e+00	-9.018987e-01	1.224751e+00	4.280814e+01	-5.191005e-02	2.539633e+05	1.012861e+05	2.880928e+02	1.027221e-01	-5.487136e-02	0.000000e+00	
3.448276e-02	-9.018987e-01	1.224804e+00	4.280691e+01	-2.870545e-01	2.539779e+05	1.012919e+05	2.880969e+02	1.027162e-01	-4.665371e-02	0.000000e+00	
0.000000e+00	-9.335443e-01	1.224751e+00	4.280815e+01	-5.191132e-02	2.539633e+05	1.012861e+05	2.880928e+02	1.027221e-01	-5.487148e-02	0.000000e+00	
3.448276e-02	-9.335443e-01	1.224804e+00	4.280692e+01	-2.870553e-01	2.539779e+05	1.012919e+05	2.880969e+02	1.027162e-01	-4.665386e-02	0.000000e+00	
0.000000e+00	-9.651899e-01	1.224751e+00	4.280816e+01	-5.191285e-02	2.539633e+05	1.012861e+05	2.880928e+02	1.027222e-01	-5.487164e-02	0.000000e+00	
3.448276e-02	-9.651899e-01	1.224804e+00	4.280693e+01	-2.870563e-01	2.539779e+05	1.012919e+05	2.880969e+02	1.027162e-01	-4.665407e-02	0.000000e+00	
0.000000e+00	-9.968354e-01	1.224751e+00	4.280817e+01	-5.191460e-02	2.539633e+05	1.012861e+05	2.880928e+02	1.027222e-01	-5.487188e-02	0.000000e+00	
3.448276e-02	-9.968354e-01	1.224804e+00	4.280694e+01	-2.870577e-01	2.539779e+05	1.012919e+05	2.880969e+02	1.027163e-01	-4.665439e-02	0.000000e+00	
0.000000e+00	-1.028481e+00	1.224751e+00	4.280818e+01	-5.191647e-02	2.539633e+05	1.012861e+05	2.880928e+02	1.027222e-01	-5.487223e-02	0.000000e+00	
3.448276e-02	-1.028481e+00	1.224804e+00	4.280695e+01	-2.870596e-01	2.539779e+05	1.012919e+05	2.880969e+02	1.027163e-01	-4.665480e-02	0.000000e+00	
0.000000e+00	-1.060127e+00	1.224751e+00	4.280818e+01	-5.191811e-02	2.539633e+05	1.012861e+05	2.880928e+02	1.027222e-01	-5.487278e-02	0.000000e+00	
3.448276e-02	-1.060127e+00	1.224804e+00	4.280695e+01	-2.870612e-01	2.539779e+05	1.012919e+05	2.880969e+02	1.027163e-01	-4.665537e-02	0.000000e+00	
0.000000e+00	-1.091772e+00	1.224751e+00	4.280816e+01	-5.191981e-02	2.539633e+05	1.012861e+05	2.880928e+02	1.027222e-01	-5.487345e-02	0.000000e+00	
3.448276e-02	-1.091772e+00	1.224804e+00	4.280693e+01	-2.870630e-01	2.539779e+05	1.012919e+05	2.880969e+02	1.027163e-01	-4.665577e-02	0.000000e+00	
0.000000e+00	-1.123418e+00	1.224751e+00	4.280813e+01	-5.192283e-02	2.539633e+05	1.012861e+05	2.880928e+02	1.027221e-01	-5.487465e-02	0.000000e+00	
3.448276e-02	-1.123418e+00	1.224804e+00	4.280689e+01	-2.870638e-01	2.539779e+05	1.012919e+05	2.880969e+02	1.027162e-01	-4.665630e-02	0.000000e+00	
0.000000e+00	-1.155063e+00	1.224751e+00	4.280808e+01	-5.193521e-02	2.539633e+05	1.012861e+05	2.880928e+02	1.027220e-01	-5.487611e-02	0.000000e+00	
3.448276e-02	-1.155063e+00	1.224804e+00	4.280683e+01	-2.870671e-01	2.539779e+05	1.012919e+05	2.880969e+02	1.027160e-01	-4.665566e-02	0.000000e+00	
0.000000e+00	-1.186709e+00	1.224751e+00	4.280800e+01	-5.196673e-02	2.539633e+05	1.012861e+05	2.880928e+02	1.027218e-01	-5.488018e-02	0.000000e+00	
3.448276e-02	-1.186709e+00	1.224804e+00	4.280674e+01	-2.870689e-01	2.539779e+05	1.012919e+05	2.880969e+02	1.027158e-01	-4.665515e-02	0.000000e+00	
0.000000e+00	-1.218354e+00	1.224751e+00	4.280791e+01	-5.202824e-02	2.539633e+05	1.012861e+05	2.880928e+02	1.027216e-01	-5.489211e-02	0.000000e+00	
3.448276e-02	-1.218354e+00	1.224804e+00	4.280664e+01	-2.870814e-01	2.539779e+05	1.012919e+05	2.880969e+02	1.027156e-01	-4.664797e-02	0.000000e+00	
6.896552e-02	1.218354e+00	1.224836e+00	4.280721e+01	-4.714218e-01	2.539873e+05	1.012957e+05	2.881000e+02	1.027176e-01	-4.135549e-02	0.000000e+00	
6.896552e-02	1.250000e+00	1.224836e+00	4.280718e+01	-4.713914e-01	2.539873e+05	1.012957e+05	2.881000e+02	1.027175e-01	-4.135147e-02	0.000000e+00	
6.896552e-02	1.186709e+00	1.224836e+00	4.280726e+01	-4.714198e-01	2.539873e+05	1.012957e+05	2.881000e+02	1.027177e-01	-4.135078e-02	0.000000e+00	
6.896552e-02	1.155063e+00	1.224836e+00	4.280732e+01	-4.714252e-01	2.539873e+05	1.012957e+05	2.881000e+02	1.027178e-01	-4.135116e-02	0.000000e+00	
6.896552e-02	1.123418e+00	1.224836e+00	4.280737e+01	-4.714261e-01	2.539873e+05	1.012957e+05	2.881000e+02	1.027180e-01	-4.135028e-02	0.000000e+00	
6.896552e-02	1.091772e+00	1.224836e+00	4.280741e+01	-4.714303e-01	2.539873e+05	1.012957e+05	2.881000e+02	1.027180e-01	-4.135033e-02	0.000000e+00	
6.896552e-02	1.060127e+00	1.224836e+00	4.280743e+01	-4.714345e-01	2.539873e+05	1.012957e+05	2.881000e+02	1.027181e-01	-4.135026e-02	0.000000e+00	
6.896552e-02	1.028481e+00	1.224836e+00	4.280743e+01	-4.714392e-01	2.539873e+05	1.012957e+05	2.881000e+02	1.027181e-01	-4.135042e-02	0.000000e+00	
6.896552e-02	9.968354e-01	1.224836e+00	4.280743e+01	-4.714431e-01	2.539873e+05	1.012957e+05	2.881000e+02	1.027181e-01	-4.135053e-02	0.000000e+00	
6.896552e-02	9.651899e-01	1.224836e+00	4.280743e+01	-4.714465e-01	2.539873e+05	1.012957e+05	2.881000e+02	1.027181e-01	-4.135065e-02	0.000000e+00	
6.896552e-02	9.335443e-01	1.224836e+00	4.280742e+01	-4.714490e-01	2.539873e+05	1.012957e+05	2.881000e+02	1.027181e-01	-4.135072e-02	0.000000e+00	
6.896552e-02	9.018987e-01	1.224836e+00	4.280742e+01	-4.714510e-01	2.539873e+05	1.012957e+05	2.881000e+02	1.027181e-01	-4.135076e-02	0.000000e+00	
6.896552e-02	8.702532e-01	1.224836e+00	4.280741e+01	-4.714525e-01	2.539873e+05	1.012957e+05	2.881000e+02	1.027181e-01	-4.135076e-02	0.000000e+00	
6.896552e-02	8.386076e-01	1.224836e+00	4.280741e+01	-4.714537e-01	2.539873e+05	1.012957e+05	2.881000e+02	1.027181e-01	-4.135076e-02	0.000000e+00	
6.896552e-02	8.069620e-01	1.224836e+00	4.280741e+01	-4.714548e-01	2.539873e+05	1.012957e+05	2.881000e+02	1.027181e-01	-4.135076e-02	0.000000e+00	
6.896552e-02	7.753165e-01	1.224836e+00	4.280741e+01	-4.714558e-01	2.539873e+05	1.012957e+05	2.881000e+02	1.027181e-01	-4.135075e-02	0.000000e+00	
6.896552e-02	7.436709e-01	1.224836e+00	4.280741e+01	-4.714568e-01	2.539873e+05	1.012957e+05	2.881000e+02	1.027181e-01	-4.135076e-02	0.000000e+00	
6.896552e-02	7.120253e-01	1.224836e+00	4.280741e+01	-4.714577e-01	2.539873e+05	1.012957e+05	2.881000e+02	1.027181e-01	-4.135076e-02	0.000000e+00	
6.896552e-02	6.803797e-01	1.224836e+00	4.280741e+01	-4.714585e-01	2.539873e+05	1.012957e+05	2.881000e+02	1.027181e-01	-4.135078e-02	0.000000e+00	
6.896552e-02	6.487342e-01	1.224836e+00	4.280741e+01	-4.714593e-01	2.539873e+05	1.012957e+05	2.881000e+02	1.027181e-01	-4.135079e-02	0.000000e+00	
6.896552e-02	6.170886e-01	1.224836e+00	4.280741e+01	-4.714600e-01	2.539873e+05	1.012957e+05	2.881000e+02	1.027181e-01	-4.135081e-02	0.000000e+00	
6.896552e-02	5.854430e-01	1.224836e+00	4.280741e+01	-4.714606e-01	2.539873e+05	1.012957e+05	2.881000e+02	1.027181e-01	-4.135083e-02	0.000000e+00	
6.896552e-02	5.537975e-01	1.224836e+00	4.280741e+01	-4.714612e-01	2.539873e+05	1.012957e+05	2.881000e+02	1.027181e-01	-4.135085e-02	0.000000e+00	
6.896552e-02	5.221519e-01	1.224836e+00	4.280741e+01	-4.714617e-01	2.539873e+05	1.012957e+05	2.881000e+02	1.027181e-01	-4.135087e-02	0.000000e+00	
6.896552e-02	4.905063e-01	1.224836e+00	4.280741e+01	-4.714622e-01	2.539873e+05	1.012957e+05	2.881000e+02	1.027181e-01	-4.135090e-02	0.000000e+00	
6.896552e-02	4.588608e-01	1.224836e+00	4.280741e+01	-4.714627e-01	2.539873e+05	1.012957e+05	2.881000e+02	1.027181e-01	-4.135092e-02	0.000000e+00	
6.896552e-02	4.272152e-01	1.224836e+00	4.280741e+01	-4.714631e-01	2.539873e+05	1.012957e+05	2.881000e+02	1.027181e-01	-4.135094e-02	0.000000e+00	
6.896552e-02	3.955696e-01	1.224836e+00	4.280741e+01	-4.714635e-01	2.539873e+05	1.012957e+05	2.881000e+02	1.027181e-01	-4.135097e-02	0.000000e+00	
6.896552e-02	3.639241e-01	1.224836e+00	4.280741e+01	-4.714638e-01	2.539873e+05	1.012957e+05	2.881000e+02	1.027181e-01	-4.135100e-02	0.000000e+00	
6.896552e-02	3.322785e-01	1.224836e+00	4.280741e+01	-4.714641e-01	2.539873e+05	1.012957e+05	2.881000e+02	1.027181e-01	-4.135102e-02	0.000000e+00	
6.896552e-02	3.006329e-01	1.224836e+00	4.280741e+01	-4.714644e-01	2.539873e+05	1.012957e+05	2.881000e+02	1.027181e-01	-4.135105e-02	0.000000e+00	
6.896552e-02	2.689873e-01	1.224836e+00	4.280741e+01	-4.714647e-01	2.539873e+05	1.012957e+05	2.881000e+02	1.027181e-01	-4.135108e-02	0.000000e+00	
6.896552e-02	2.373418e-01	1.224836e+00	4.280741e+01	-4.714649e-01	2.539873e+05	1.012957e+05	2.881000e+02	1.027181e-01	-4.135111e-02	0.000000e+00	
6.896552e-02	2.056962e-01	1.224836e+00	4.280741e+01	-4.714651e-01	2.539873e+05	1.012957e+05	2.881000e+02	1.027181e-01	-4.135114e-02	0.000000e+00	
6.896552e-02	1.740506e-01	1.224836e+00	4.280741e+01	-4.714653e-01	2.539873e+05	1.012957e+05	2.881000e+02	1.027181e-01	-4.135117e-02	0.000000e+00	
6.896552e-02	1.424051e-01	1.224836e+00	4.280741e+01	-4.714654e-01	2.539873e+05	1.012957e+05	2.881000e+02	1.027181e-01	-4.135120e-02	0.000000e+00	
6.896552e-02	1.107595e-01	1.224836e+00	4.280742e+01	-4.714656e-01	2.539873e+05	1.012957e+05	2.881000e+02	1.027181e-01	-4.135123e-02	0.000000e+00	
6.896552e-02	7.911392e-02	1.224836e+00	4.280742e+01	-4.714657e-01	2.539873e+05	1.012957e+05	2.881000e+02	1.027181e-01	-4.135126e-02	0.000000e+00	
6.896552e-02	4.746835e-02	1.224836e+00	4.280742e+01	-4.714658e-01	2.539873e+05	1.012957e+05	2.881000e+02	1.027181e-01	-4.135129e-02	0.000000e+00	
6.896552e-02	1.582278e-02	1.224836e+00	4.280742e+01	-4.714659e-01	2.539873e+05	1.012957e+05	2.881000e+02	1.027181e-01	-4.135133e-02	0.000000e+00	
6.896552e-02	-1.582278e-02	1.224836e+00	4.280742e+01	-4.714659e-01	2.539873e+05	1.012957e+05	2.881000e+02	1.027181e-01	-4.135136e-02	0.000000e+00	
6.896552e-02	-4.746835e-02	1.224836e+00	4.280742e+01	-4.714660e-01	2.539873e+05	1.012957e+05	2.881000e+02	1.027181e-01	-4.135139e-02	0.000000e+00	
6.896552e-02	-7.911392e-02	1.224836e+00	4.280742e+01	-4.714660e-01	2.539873e+05	1.012957e+05	2.881000e+02	1.027181e-01	-4.135142e-02	0.000000e+00	
6.896552e-02	-1.107595e-01	1.224836e+00	4.280742e+01	-4.714660e-01	2.539873e+05	1.012957e+05	2.881000e+02	1.027181e-01	-4.135145e-02	0.000000e+00	
6.896552e-02	-1.424051e-01	1.224836e+00	4.280742e+01	-4.714660e-01	2.539873e+05	1.012957e+05	2.881000e+02	1.027181e-01	-4.135149e-02	0.000000e+00	