TITLE = "Visualization of the volumetric solution"
VARIABLES = "x","y","Density","Momentum_x","Momentum_y","Energy","Pressure","Temperature","Mach","C<sub>p</sub>","Roe_Dissipation"
ZONE NODES= 3200, ELEMENTS= 3081, DATAPACKING=POINT, ZONETYPE=FEQUADRILATERAL
-2.000000e+00	1.250000e+00	1.224741e+00	4.284482e+01	-6.952743e-08	2.539609e+05	1.012846e+05	2.880910e+02	1.028112e-01	-5.695902e-02	0.000000e+00	
-2.000000e+00	1.218354e+00	1.224741e+00	4.284482e+01	-5.820592e-06	2.539609e+05	1.012846e+05	2.880910e+02	1.028112e-01	-5.695976e-02	0.000000e+00	
-1.948718e+00	1.218354e+00	1.224741e+00	4.284482e+01	-8.090298e-06	2.539609e+05	1.012846e+05	2.880910e+02	1.028112e-01	-5.696946e-02	0.000000e+00	
-1.948718e+00	1.250000e+00	1.224741e+00	4.284481e+01	1.074390e-07	2.539609e+05	1.012846e+05	2.880910e+02	1.028112e-01	-5.696901e-02	0.000000e+00	
-2.000000e+00	1.186709e+00	1.224741e+00	4.284483e+01	-5.588359e-06	2.539609e+05	1.012846e+05	2.880910e+02	1.028113e-01	-5.696015e-02	0.000000e+00	
-1.948718e+00	1.186709e+00	1.224741e+00	4.284484e+01	-9.542593e-06	2.539609e+05	1.012846e+05	2.880910e+02	1.028113e-01	-5.696937e-02	0.000000e+00	
-2.000000e+00	1.155063e+00	1.224741e+00	4.284484e+01	-3.409742e-06	2.539609e+05	1.012846e+05	2.880910e+02	1.028113e-01	-5.696050e-02	0.000000e+00	
-1.948718e+00	1.155063e+00	1.224741e+00	4.284484e+01	-8.313158e-06	2.539609e+05	1.012846e+05	2.880910e+02	1.028113e-01	-5.696955e-02	0.000000e+00	
-2.000000e+00	1.123418e+00	1.224741e+00	4.284484e+01	-1.362681e-06	2.539609e+05	1.012846e+05	2.880910e+02	1.028113e-01	-5.696072e-02	0.000000e+00	
-1.948718e+00	1.123418e+00	1.224741e+00	4.284484e+01	-5.942489e-06	2.539609e+05	1.012846e+05	2.880910e+02	1.028113e-01	-5.696961e-02	0.000000e+00	
-2.000000e+00	1.091772e+00	1.224741e+00	4.284484e+01	-3.218439e-07	2.539609e+05	1.012846e+05	2.880910e+02	1.028113e-01	-5.696087e-02	0.000000e+00	
-1.948718e+00	1.091772e+00	1.224741e+00	4.284485e+01	-4.320086e-06	2.539609e+05	1.012846e+05	2.880910e+02	1.028113e-01	-5.696973e-02	0.000000e+00	
-2.000000e+00	1.060127e+00	1.224741e+00	4.284484e+01	-7.170707e-09	2.539609e+05	1.012846e+05	2.880910e+02	1.028113e-01	-5.696099e-02	0.000000e+00	
-1.948718e+00	1.060127e+00	1.224741e+00	4.284485e+01	-3.406614e-06	2.539609e+05	1.012846e+05	2.880910e+02	1.028113e-01	-5.696982e-02	0.000000e+00	
-2.000000e+00	1.028481e+00	1.224741e+00	4.284485e+01	-1.030248e-08	2.539609e+05	1.012846e+05	2.880910e+02	1.028113e-01	-5.696109e-02	0.000000e+00	
-1.948718e+00	1.028481e+00	1.224741e+00	4.284485e+01	-3.006835e-06	2.539609e+05	1.012846e+05	2.880910e+02	1.028113e-01	-5.696992e-02	0.000000e+00	
-2.000000e+00	9.968354e-01	1.224741e+00	4.284485e+01	-4.692388e-08	2.539609e+05	1.012846e+05	2.880910e+02	1.028113e-01	-5.696118e-02	0.000000e+00	
-1.948718e+00	9.968354e-01	1.224741e+00	4.284485e+01	-2.742659e-06	2.539609e+05	1.012846e+05	2.880910e+02	1.028113e-01	-5.697000e-02	0.000000e+00	
-2.000000e+00	9.651899e-01	1.224741e+00	4.284485e+01	-4.911615e-08	2.539609e+05	1.012846e+05	2.880910e+02	1.028113e-01	-5.696126e-02	0.000000e+00	
-1.948718e+00	9.651899e-01	1.224741e+00	4.284485e+01	-2.506083e-06	2.539609e+05	1.012846e+05	2.880910e+02	1.028113e-01	-5.697008e-02	0.000000e+00	
-2.000000e+00	9.335443e-01	1.224741e+00	4.284485e+01	-2.699482e-08	2.539609e+05	1.012846e+05	2.880910e+02	1.028113e-01	-5.696133e-02	0.000000e+00	
-1.948718e+00	9.335443e-01	1.224741e+00	4.284485e+01	-2.258216e-06	2.539609e+05	1.012846e+05	2.880910e+02	1.028113e-01	-5.697014e-02	0.000000e+00	
-2.000000e+00	9.018987e-01	1.224741e+00	4.284485e+01	-8.914193e-09	2.539609e+05	1.012846e+05	2.880910e+02	1.028113e-01	-5.696140e-02	0.000000e+00	
-1.948718e+00	9.018987e-01	1.224741e+00	4.284486e+01	-2.031467e-06	2.539609e+05	1.012846e+05	2.880910e+02	1.028113e-01	-5.697021e-02	0.000000e+00	
-2.000000e+00	8.702532e-01	1.224741e+00	4.284485e+01	-2.852942e-09	2.539609e+05	1.012846e+05	2.880910e+02	1.028113e-01	-5.696145e-02	0.000000e+00	
-1.948718e+00	8.702532e-01	1.224741e+00	4.284486e+01	-1.834348e-06	2.539609e+05	1.012846e+05	2.880910e+02	1.028113e-01	-5.697026e-02	0.000000e+00	
-2.000000e+00	8.386076e-01	1.224741e+00	4.284485e+01	-6.458066e-09	2.539609e+05	1.012846e+05	2.880910e+02	1.028113e-01	-5.696151e-02	0.000000e+00	
-1.948718e+00	8.386076e-01	1.224741e+00	4.284486e+01	-1.670474e-06	2.539609e+05	1.012846e+05	2.880910e+02	1.028113e-01	-5.697032e-02	0.000000e+00	
-2.000000e+00	8.069620e-01	1.224741e+00	4.284486e+01	-1.318108e-08	2.539609e+05	1.012846e+05	2.880910e+02	1.028113e-01	-5.696155e-02	0.000000e+00	
-1.948718e+00	8.069620e-01	1.224741e+00	4.284486e+01	-1.530407e-06	2.539609e+05	1.012846e+05	2.880910e+02	1.028113e-01	-5.697036e-02	0.000000e+00	
-2.000000e+00	7.753165e-01	1.224741e+00	4.284486e+01	-1.954830e-08	2.539609e+05	1.012846e+05	2.880910e+02	1.028113e-01	-5.696160e-02	0.000000e+00	
-1.948718e+00	7.753165e-01	1.224741e+00	4.284486e+01	-1.408104e-06	2.539609e+05	1.012846e+05	2.880910e+02	1.028113e-01	-5.697041e-02	0.000000e+00	
-2.000000e+00	7.436709e-01	1.224741e+00	4.284486e+01	-2.435729e-08	2.539609e+05	1.012846e+05	2.880910e+02	1.028113e-01	-5.696164e-02	0.000000e+00	
-1.948718e+00	7.436709e-01	1.224741e+00	4.284486e+01	-1.298302e-06	2.539609e+05	1.012846e+05	2.880910e+02	1.028113e-01	-5.697045e-02	0.000000e+00	
-2.000000e+00	7.120253e-01	1.224741e+00	4.284486e+01	-2.801070e-08	2.539609e+05	1.012846e+05	2.880910e+02	1.028113e-01	-5.696168e-02	0.000000e+00	
-1.948718e+00	7.120253e-01	1.224741e+00	4.284486e+01	-1.199102e-06	2.539609e+05	1.012846e+05	2.880910e+02	1.028113e-01	-5.697049e-02	0.000000e+00	
-2.000000e+00	6.803797e-01	1.224741e+00	4.284486e+01	-3.096115e-08	2.539609e+05	1.012846e+05	2.880910e+02	1.028113e-01	-5.696171e-02	0.000000e+00	
-1.948718e+00	6.803797e-01	1.224741e+00	4.284486e+01	-1.108953e-06	2.539609e+05	1.012846e+05	2.880910e+02	1.028113e-01	-5.697052e-02	0.000000e+00	
-2.000000e+00	6.487342e-01	1.224741e+00	4.284486e+01	-3.352970e-08	2.539609e+05	1.012846e+05	2.880910e+02	1.028113e-01	-5.696174e-02	0.000000e+00	
-1.948718e+00	6.487342e-01	1.224741e+00	4.284486e+01	-1.026941e-06	2.539609e+05	1.012846e+05	2.880910e+02	1.028113e-01	-5.697056e-02	0.000000e+00	
-2.000000e+00	6.170886e-01	1.224741e+00	4.284486e+01	-3.578275e-08	2.539609e+05	1.012846e+05	2.880910e+02	1.028113e-01	-5.696177e-02	0.000000e+00	
-1.948718e+00	6.170886e-01	1.224741e+00	4.284486e+01	-9.519407e-07	2.539609e+05	1.012846e+05	2.880910e+02	1.028113e-01	-5.697059e-02	0.000000e+00	
-2.000000e+00	5.854430e-01	1.224741e+00	4.284486e+01	-3.774308e-08	2.539609e+05	1.012846e+05	2.880910e+02	1.028113e-01	-5.696180e-02	0.000000e+00	
-1.948718e+00	5.854430e-01	1.224741e+00	4.284486e+01	-8.830193e-07	2.539609e+05	1.012846e+05	2.880910e+02	1.028113e-01	-5.697062e-02	0.000000e+00	
-2.000000e+00	5.537975e-01	1.224741e+00	4.284486e+01	-3.941762e-08	2.539609e+05	1.012846e+05	2.880910e+02	1.028113e-01	-5.696183e-02	0.000000e+00	
-1.948718e+00	5.537975e-01	1.224741e+00	4.284487e+01	-8.192797e-07	2.539609e+05	1.012846e+05	2.880910e+02	1.028113e-01	-5.697064e-02	0.000000e+00	
-2.000000e+00	5.221519e-01	1.224741e+00	4.284486e+01	-4.084308e-08	2.539609e+05	1.012846e+05	2.880910e+02	1.028113e-01	-5.696185e-02	0.000000e+00	
-1.948718e+00	5.221519e-01	1.224741e+00	4.284487e+01	-7.600084e-07	2.539609e+05	1.012846e+05	2.880910e+02	1.028113e-01	-5.697067e-02	0.000000e+00	
-2.000000e+00	4.905063e-01	1.224741e+00	4.284486e+01	-4.205789e-08	2.539609e+05	1.012846e+05	2.880910e+02	1.028113e-01	-5.696187e-02	0.000000e+00	
-1.948718e+00	4.905063e-01	1.224741e+00	4.284487e+01	-7.045793e-07	2.539609e+05	1.012846e+05	2.880910e+02	1.028113e-01	-5.697069e-02	0.000000e+00	
-2.000000e+00	4.588608e-01	1.224741e+00	4.284486e+01	-4.310060e-08	2.539609e+05	1.012846e+05	2.880910e+02	1.028113e-01	-5.696189e-02	0.000000e+00	
-1.948718e+00	4.588608e-01	1.224741e+00	4.284487e+01	-6.524703e-07	2.539609e+05	1.012846e+05	2.880910e+02	1.028113e-01	-5.697071e-02	0.000000e+00	
-2.000000e+00	4.272152e-01	1.224741e+00	4.284486e+01	-4.400017e-08	2.539609e+05	1.012846e+05	2.880910e+02	1.028113e-01	-5.696191e-02	0.000000e+00	
-1.948718e+00	4.272152e-01	1.224741e+00	4.284487e+01	-6.032158e-07	2.539609e+05	1.012846e+05	2.880910e+02	1.028113e-01	-5.697073e-02	0.000000e+00	
-2.000000e+00	3.955696e-01	1.224741e+00	4.284486e+01	-4.478001e-08	2.539609e+05	1.012846e+05	2.880910e+02	1.028113e-01	-5.696193e-02	0.000000e+00	
-1.948718e+00	3.955696e-01	1.224741e+00	4.284487e+01	-5.564092e-07	2.539609e+05	1.012846e+05	2.880910e+02	1.028113e-01	-5.697075e-02	0.000000e+00	
-2.000000e+00	3.639241e-01	1.224741e+00	4.284486e+01	-4.545846e-08	2.539609e+05	1.012846e+05	2.880910e+02	1.028113e-01	-5.696195e-02	0.000000e+00	
-1.948718e+00	3.639241e-01	1.224741e+00	4.284487e+01	-5.116852e-07	2.539609e+05	1.012846e+05	2.880910e+02	1.028113e-01	-5.697077e-02	0.000000e+00	
-2.000000e+00	3.322785e-01	1.224741e+00	4.284486e+01	-4.605138e-08	2.539609e+05	1.012846e+05	2.880910e+02	1.028113e-01	-5.696196e-02	0.000000e+00	
-1.948718e+00	3.322785e-01	1.224741e+00	4.284487e+01	-4.687198e-07	2.539609e+05	1.012846e+05	2.880910e+02	1.028113e-01	-5.697078e-02	0.000000e+00	
-2.000000e+00	3.006329e-01	1.224741e+00	4.284486e+01	-4.657173e-08	2.539609e+05	1.012846e+05	2.880910e+02	1.028113e-01	-5.696198e-02	0.000000e+00	
-1.948718e+00	3.006329e-01	1.224741e+00	4.284487e+01	-4.272210e-07	2.539609e+05	1.012846e+05	2.880910e+02	1.028113e-01	-5.697080e-02	0.000000e+00	
-2.000000e+00	2.689873e-01	1.224741e+00	4.284486e+01	-4.703136e-08	2.539609e+05	1.012846e+05	2.880910e+02	1.028113e-01	-5.696199e-02	0.000000e+00	
-1.948718e+00	2.689873e-01	1.224741e+00	4.284487e+01	-3.869263e-07	2.539609e+05	1.012846e+05	2.880910e+02	1.028113e-01	-5.697081e-02	0.000000e+00	
-2.000000e+00	2.373418e-01	1.224741e+00	4.284487e+01	-4.743965e-08	2.539609e+05	1.012846e+05	2.880910e+02	1.028113e-01	-5.696200e-02	0.000000e+00	
-1.948718e+00	2.373418e-01	1.224741e+00	4.284487e+01	-3.475961e-07	2.539609e+05	1.012846e+05	2.880910e+02	1.028113e-01	-5.697082e-02	0.000000e+00	
-2.000000e+00	2.056962e-01	1.224741e+00	4.284487e+01	-4.780527e-08	2.539609e+05	1.012846e+05	2.880910e+02	1.028113e-01	-5.696201e-02	0.000000e+00	
-1.948718e+00	2.056962e-01	1.224741e+00	4.284487e+01	-3.090127e-07	2.539609e+05	1.012846e+05	2.880910e+02	1.028113e-01	-5.697083e-02	0.000000e+00	
-2.000000e+00	1.740506e-01	1.224741e+00	4.284487e+01	-4.813505e-08	2.539609e+05	1.012846e+05	2.880910e+02	1.028113e-01	-5.696202e-02	0.000000e+00	
-1.948718e+00	1.740506e-01	1.224741e+00	4.284487e+01	-2.709743e-07	2.539609e+05	1.012846e+05	2.880910e+02	1.028114e-01	-5.697084e-02	0.000000e+00	
-2.000000e+00	1.424051e-01	1.224741e+00	4.284487e+01	-4.843521e-08	2.539609e+05	1.012846e+05	2.880910e+02	1.028113e-01	-5.696203e-02	0.000000e+00	
-1.948718e+00	1.424051e-01	1.224741e+00	4.284487e+01	-2.332946e-07	2.539609e+05	1.012846e+05	2.880910e+02	1.028114e-01	-5.697085e-02	0.000000e+00	
-2.000000e+00	1.107595e-01	1.224741e+00	4.284487e+01	-4.871156e-08	2.539609e+05	1.012846e+05	2.880910e+02	1.028113e-01	-5.696204e-02	0.000000e+00	
-1.948718e+00	1.107595e-01	1.224741e+00	4.284487e+01	-1.957998e-07	2.539609e+05	1.012846e+05	2.880910e+02	1.028114e-01	-5.697086e-02	0.000000e+00	
-2.000000e+00	7.911392e-02	1.224741e+00	4.284487e+01	-4.896875e-08	2.539609e+05	1.012846e+05	2.880910e+02	1.028113e-01	-5.696204e-02	0.000000e+00	
-1.948718e+00	7.911392e-02	1.224741e+00	4.284487e+01	-1.583258e-07	2.539609e+05	1.012846e+05	2.880910e+02	1.028114e-01	-5.697086e-02	0.000000e+00	
-2.000000e+00	4.746835e-02	1.224741e+00	4.284487e+01	-4.921153e-08	2.539609e+05	1.012846e+05	2.880910e+02	1.028113e-01	-5.696205e-02	0.000000e+00	
-1.948718e+00	4.746835e-02	1.224741e+00	4.284487e+01	-1.207177e-07	2.539609e+05	1.012846e+05	2.880910e+02	1.028114e-01	-5.697087e-02	0.000000e+00	
-2.000000e+00	1.582278e-02	1.224741e+00	4.284487e+01	-4.944400e-08	2.539609e+05	1.012846e+05	2.880910e+02	1.028113e-01	-5.696205e-02	0.000000e+00	
-1.948718e+00	1.582278e-02	1.224741e+00	4.284487e+01	-8.282702e-08	2.539609e+05	1.012846e+05	2.880910e+02	1.028114e-01	-5.697087e-02	0.000000e+00	
-2.000000e+00	-1.582278e-02	1.224741e+00	4.284487e+01	-4.967082e-08	2.539609e+05	1.012846e+05	2.880910e+02	1.028113e-01	-5.696205e-02	0.000000e+00	
-1.948718e+00	-1.582278e-02	1.224741e+00	4.284487e+01	-4.451072e-08	2.539609e+05	1.012846e+05	2.880910e+02	1.028114e-01	-5.697087e-02	0.000000e+00	
-2.000000e+00	-4.746835e-02	1.224741e+00	4.284487e+01	-4.989564e-08	2.539609e+05	1.012846e+05	2.880910e+02	1.028113e-01	-5.696206e-02	0.000000e+00	
-1.948718e+00	-4.746835e-02	1.224741e+00	4.284487e+01	-5.628956e-09	2.539609e+05	1.012846e+05	2.880910e+02	1.028114e-01	-5.697087e-02	0.000000e+00	
-2.000000e+00	-7.911392e-02	1.224741e+00	4.284487e+01	-5.012306e-08	2.539609e+05	1.012846e+05	2.880910e+02	1.028113e-01	-5.696206e-02	0.000000e+00	
-1.948718e+00	-7.911392e-02	1.224741e+00	4.284487e+01	3.395596e-08	2.539609e+05	1.012846e+05	2.880910e+02	1.028114e-01	-5.697087e-02	0.000000e+00	
-2.000000e+00	-1.107595e-01	1.224741e+00	4.284487e+01	-5.035738e-08	2.539609e+05	1.012846e+05	2.880910e+02	1.028113e-01	-5.696206e-02	0.000000e+00	
-1.948718e+00	-1.107595e-01	1.224741e+00	4.284487e+01	7.438124e-08	2.539609e+05	1.012846e+05	2.880910e+02	1.028114e-01	-5.697087e-02	0.000000e+00	
-2.000000e+00	-1.424051e-01	1.224741e+00	4.284487e+01	-5.060328e-08	2.539609e+05	1.012846e+05	2.880910e+02	1.028113e-01	-5.696205e-02	0.000000e+00	
-1.948718e+00	-1.424051e-01	1.224741e+00	4.284487e+01	1.157859e-07	2.539609e+05	1.012846e+05	2.880910e+02	1.028114e-01	-5.697087e-02	0.000000e+00	
-2.000000e+00	-1.740506e-01	1.224741e+00	4.284487e+01	-5.086606e-08	2.539609e+05	1.012846e+05	2.880910e+02	1.028113e-01	-5.696205e-02	0.000000e+00	
-1.948718e+00	-1.740506e-01	1.224741e+00	4.284487e+01	1.583117e-07	2.539609e+05	1.012846e+05	2.880910e+02	1.028114e-01	-5.697087e-02	0.000000e+00	
-2.000000e+00	-2.056962e-01	1.224741e+00	4.284487e+01	-5.115146e-08	2.539609e+05	1.012846e+05	2.880910e+02	1.028113e-01	-5.696205e-02	0.000000e+00	
-1.948718e+00	-2.056962e-01	1.224741e+00	4.284487e+01	2.021058e-07	2.539609e+05	1.012846e+05	2.880910e+02	1.028114e-01	-5.697086e-02	0.000000e+00	
-2.000000e+00	-2.373418e-01	1.224741e+00	4.284487e+01	-5.146584e-08	2.539609e+05	1.012846e+05	2.880910e+02	1.028113e-01	-5.696204e-02	0.000000e+00	
-1.948718e+00	-2.373418e-01	1.224741e+00	4.284487e+01	2.473226e-07	2.539609e+05	1.012846e+05	2.880910e+02	1.028114e-01	-5.697086e-02	0.000000e+00	
-2.000000e+00	-2.689873e-01	1.224741e+00	4.284487e+01	-5.181657e-08	2.539609e+05	1.012846e+05	2.880910e+02	1.028113e-01	-5.696203e-02	0.000000e+00	
-1.948718e+00	-2.689873e-01	1.224741e+00	4.284487e+01	2.941266e-07	2.539609e+05	1.012846e+05	2.880910e+02	1.028114e-01	-5.697085e-02	0.000000e+00	
-2.000000e+00	-3.006329e-01	1.224741e+00	4.284487e+01	-5.221206e-08	2.539609e+05	1.012846e+05	2.880910e+02	1.028113e-01	-5.696202e-02	0.000000e+00	
-1.948718e+00	-3.006329e-01	1.224741e+00	4.284487e+01	3.426947e-07	2.539609e+05	1.012846e+05	2.880910e+02	1.028114e-01	-5.697084e-02	0.000000e+00	
-2.000000e+00	-3.322785e-01	1.224741e+00	4.284487e+01	-5.266309e-08	2.539609e+05	1.012846e+05	2.880910e+02	1.028113e-01	-5.696201e-02	0.000000e+00	
-1.948718e+00	-3.322785e-01	1.224741e+00	4.284487e+01	3.932194e-07	2.539609e+05	1.012846e+05	2.880910e+02	1.028113e-01	-5.697083e-02	0.000000e+00	
-2.000000e+00	-3.639241e-01	1.224741e+00	4.284486e+01	-5.318165e-08	2.539609e+05	1.012846e+05	2.880910e+02	1.028113e-01	-5.696200e-02	0.000000e+00	
-1.948718e+00	-3.639241e-01	1.224741e+00	4.284487e+01	4.459132e-07	2.539609e+05	1.012846e+05	2.880910e+02	1.028113e-01	-5.697082e-02	0.000000e+00	
-2.000000e+00	-3.955696e-01	1.224741e+00	4.284486e+01	-5.378121e-08	2.539609e+05	1.012846e+05	2.880910e+02	1.028113e-01	-5.696199e-02	0.000000e+00	
-1.948718e+00	-3.955696e-01	1.224741e+00	4.284487e+01	5.010140e-07	2.539609e+05	1.012846e+05	2.880910e+02	1.028113e-01	-5.697080e-02	0.000000e+00	
-2.000000e+00	-4.272152e-01	1.224741e+00	4.284486e+01	-5.447860e-08	2.539609e+05	1.012846e+05	2.880910e+02	1.028113e-01	-5.696197e-02	0.000000e+00	
-1.948718e+00	-4.272152e-01	1.224741e+00	4.284487e+01	5.587880e-07	2.539609e+05	1.012846e+05	2.880910e+02	1.028113e-01	-5.697079e-02	0.000000e+00	
-2.000000e+00	-4.588608e-01	1.224741e+00	4.284486e+01	-5.529257e-08	2.539609e+05	1.012846e+05	2.880910e+02	1.028113e-01	-5.696196e-02	0.000000e+00	
-1.948718e+00	-4.588608e-01	1.224741e+00	4.284487e+01	6.195394e-07	2.539609e+05	1.012846e+05	2.880910e+02	1.028113e-01	-5.697077e-02	0.000000e+00	
-2.000000e+00	-4.905063e-01	1.224741e+00	4.284486e+01	-5.624769e-08	2.539609e+05	1.012846e+05	2.880910e+02	1.028113e-01	-5.696194e-02	0.000000e+00	
-1.948718e+00	-4.905063e-01	1.224741e+00	4.284487e+01	6.836111e-07	2.539609e+05	1.012846e+05	2.880910e+02	1.028113e-01	-5.697075e-02	0.000000e+00	
-2.000000e+00	-5.221519e-01	1.224741e+00	4.284486e+01	-5.737368e-08	2.539609e+05	1.012846e+05	2.880910e+02	1.028113e-01	-5.696192e-02	0.000000e+00	
-1.948718e+00	-5.221519e-01	1.224741e+00	4.284487e+01	7.514032e-07	2.539609e+05	1.012846e+05	2.880910e+02	1.028113e-01	-5.697073e-02	0.000000e+00	
-2.000000e+00	-5.537975e-01	1.224741e+00	4.284486e+01	-5.871052e-08	2.539609e+05	1.012846e+05	2.880910e+02	1.028113e-01	-5.696189e-02	0.000000e+00	
-1.948718e+00	-5.537975e-01	1.224741e+00	4.284487e+01	8.233697e-07	2.539609e+05	1.012846e+05	2.880910e+02	1.028113e-01	-5.697071e-02	0.000000e+00	
-2.000000e+00	-5.854430e-01	1.224741e+00	4.284486e+01	-6.029762e-08	2.539609e+05	1.012846e+05	2.880910e+02	1.028113e-01	-5.696187e-02	0.000000e+00	
-1.948718e+00	-5.854430e-01	1.224741e+00	4.284487e+01	9.000683e-07	2.539609e+05	1.012846e+05	2.880910e+02	1.028113e-01	-5.697068e-02	0.000000e+00	
-2.000000e+00	-6.170886e-01	1.224741e+00	4.284486e+01	-6.217346e-08	2.539609e+05	1.012846e+05	2.880910e+02	1.028113e-01	-5.696184e-02	0.000000e+00	
-1.948718e+00	-6.170886e-01	1.224741e+00	4.284487e+01	9.821429e-07	2.539609e+05	1.012846e+05	2.880910e+02	1.028113e-01	-5.697065e-02	0.000000e+00	
-2.000000e+00	-6.487342e-01	1.224741e+00	4.284486e+01	-6.434573e-08	2.539609e+05	1.012846e+05	2.880910e+02	1.028113e-01	-5.696181e-02	0.000000e+00	
-1.948718e+00	-6.487342e-01	1.224741e+00	4.284486e+01	1.070421e-06	2.539609e+05	1.012846e+05	2.880910e+02	1.028113e-01	-5.697062e-02	0.000000e+00	
-2.000000e+00	-6.803797e-01	1.224741e+00	4.284486e+01	-6.683908e-08	2.539609e+05	1.012846e+05	2.880910e+02	1.028113e-01	-5.696178e-02	0.000000e+00	
-1.948718e+00	-6.803797e-01	1.224741e+00	4.284486e+01	1.165769e-06	2.539609e+05	1.012846e+05	2.880910e+02	1.028113e-01	-5.697059e-02	0.000000e+00	
-2.000000e+00	-7.120253e-01	1.224741e+00	4.284486e+01	-6.972106e-08	2.539609e+05	1.012846e+05	2.880910e+02	1.028113e-01	-5.696174e-02	0.000000e+00	
-1.948718e+00	-7.120253e-01	1.224741e+00	4.284486e+01	1.269245e-06	2.539609e+05	1.012846e+05	2.880910e+02	1.028113e-01	-5.697055e-02	0.000000e+00	
-2.000000e+00	-7.436709e-01	1.224741e+00	4.284486e+01	-7.331288e-08	2.539609e+05	1.012846e+05	2.880910e+02	1.028113e-01	-5.696170e-02	0.000000e+00	
-1.948718e+00	-7.436709e-01	1.224741e+00	4.284486e+01	1.381700e-06	2.539609e+05	1.012846e+05	2.880910e+02	1.028113e-01	-5.697051e-02	0.000000e+00	
-2.000000e+00	-7.753165e-01	1.224741e+00	4.284486e+01	-7.806615e-08	2.539609e+05	1.012846e+05	2.880910e+02	1.028113e-01	-5.696166e-02	0.000000e+00	
-1.948718e+00	-7.753165e-01	1.224741e+00	4.284486e+01	1.504626e-06	2.539609e+05	1.012846e+05	2.880910e+02	1.028113e-01	-5.697047e-02	0.000000e+00	
-2.000000e+00	-8.069620e-01	1.224741e+00	4.284486e+01	-8.438005e-08	2.539609e+05	1.012846e+05	2.880910e+02	1.028113e-01	-5.696162e-02	0.000000e+00	
-1.948718e+00	-8.069620e-01	1.224741e+00	4.284486e+01	1.639870e-06	2.539609e+05	1.012846e+05	2.880910e+02	1.028113e-01	-5.697042e-02	0.000000e+00	
-2.000000e+00	-8.386076e-01	1.224741e+00	4.284486e+01	-9.105642e-08	2.539609e+05	1.012846e+05	2.880910e+02	1.028113e-01	-5.696157e-02	0.000000e+00	
-1.948718e+00	-8.386076e-01	1.224741e+00	4.284486e+01	1.792628e-06	2.539609e+05	1.012846e+05	2.880910e+02	1.028113e-01	-5.697037e-02	0.000000e+00	
-2.000000e+00	-8.702532e-01	1.224741e+00	4.284485e+01	-9.462706e-08	2.539609e+05	1.012846e+05	2.880910e+02	1.028113e-01	-5.696151e-02	0.000000e+00	
-1.948718e+00	-8.702532e-01	1.224741e+00	4.284486e+01	1.968909e-06	2.539609e+05	1.012846e+05	2.880910e+02	1.028113e-01	-5.697032e-02	0.000000e+00	
-2.000000e+00	-9.018987e-01	1.224741e+00	4.284485e+01	-8.856760e-08	2.539609e+05	1.012846e+05	2.880910e+02	1.028113e-01	-5.696145e-02	0.000000e+00	
-1.948718e+00	-9.018987e-01	1.224741e+00	4.284486e+01	2.178058e-06	2.539609e+05	1.012846e+05	2.880910e+02	1.028113e-01	-5.697026e-02	0.000000e+00	
-2.000000e+00	-9.335443e-01	1.224741e+00	4.284485e+01	-7.048962e-08	2.539609e+05	1.012846e+05	2.880910e+02	1.028113e-01	-5.696139e-02	0.000000e+00	
-1.948718e+00	-9.335443e-01	1.224741e+00	4.284486e+01	2.416544e-06	2.539609e+05	1.012846e+05	2.880910e+02	1.028113e-01	-5.697019e-02	0.000000e+00	
-2.000000e+00	-9.651899e-01	1.224741e+00	4.284485e+01	-4.828041e-08	2.539609e+05	1.012846e+05	2.880910e+02	1.028113e-01	-5.696131e-02	0.000000e+00	
-1.948718e+00	-9.651899e-01	1.224741e+00	4.284485e+01	2.675832e-06	2.539609e+05	1.012846e+05	2.880910e+02	1.028113e-01	-5.697012e-02	0.000000e+00	
-2.000000e+00	-9.968354e-01	1.224741e+00	4.284485e+01	-4.992384e-08	2.539609e+05	1.012846e+05	2.880910e+02	1.028113e-01	-5.696123e-02	0.000000e+00	
-1.948718e+00	-9.968354e-01	1.224741e+00	4.284485e+01	2.924013e-06	2.539609e+05	1.012846e+05	2.880910e+02	1.028113e-01	-5.697004e-02	0.000000e+00	
-2.000000e+00	-1.028481e+00	1.224741e+00	4.284485e+01	-8.523578e-08	2.539609e+05	1.012846e+05	2.880910e+02	1.028113e-01	-5.696113e-02	0.000000e+00	
-1.948718e+00	-1.028481e+00	1.224741e+00	4.284485e+01	3.199699e-06	2.539609e+05	1.012846e+05	2.880910e+02	1.028113e-01	-5.696996e-02	0.000000e+00	
-2.000000e+00	-1.060127e+00	1.224741e+00	4.284484e+01	-8.599899e-08	2.539609e+05	1.012846e+05	2.880910e+02	1.028113e-01	-5.696102e-02	0.000000e+00	
-1.948718e+00	-1.060127e+00	1.224741e+00	4.284485e+01	3.611369e-06	2.539609e+05	1.012846e+05	2.880910e+02	1.028113e-01	-5.696985e-02	0.000000e+00	
-2.000000e+00	-1.091772e+00	1.224741e+00	4.284484e+01	2.305422e-07	2.539609e+05	1.012846e+05	2.880910e+02	1.028113e-01	-5.696090e-02	0.000000e+00	
-1.948718e+00	-1.091772e+00	1.224741e+00	4.284485e+01	4.533920e-06	2.539609e+05	1.012846e+05	2.880910e+02	1.028113e-01	-5.696976e-02	0.000000e+00	
-2.000000e+00	-1.123418e+00	1.224741e+00	4.284484e+01	1.270735e-06	2.539609e+05	1.012846e+05	2.880910e+02	1.028113e-01	-5.696074e-02	0.000000e+00	
-1.948718e+00	-1.123418e+00	1.224741e+00	4.284484e+01	6.162527e-06	2.539609e+05	1.012846e+05	2.880910e+02	1.028113e-01	-5.696963e-02	0.000000e+00	
-2.000000e+00	-1.155063e+00	1.224741e+00	4.284484e+01	3.309551e-06	2.539609e+05	1.012846e+05	2.880910e+02	1.028113e-01	-5.696052e-02	0.000000e+00	
-1.948718e+00	-1.155063e+00	1.224741e+00	4.284484e+01	8.528917e-06	2.539609e+05	1.012846e+05	2.880910e+02	1.028113e-01	-5.696957e-02	0.000000e+00	
-2.000000e+00	-1.186709e+00	1.224741e+00	4.284483e+01	5.474127e-06	2.539609e+05	1.012846e+05	2.880910e+02	1.028113e-01	-5.696016e-02	0.000000e+00	
-1.948718e+00	-1.186709e+00	1.224741e+00	4.284484e+01	9.754320e-06	2.539609e+05	1.012846e+05	2.880910e+02	1.028113e-01	-5.696938e-02	0.000000e+00	
-2.000000e+00	-1.218354e+00	1.224741e+00	4.284482e+01	5.695345e-06	2.539609e+05	1.012846e+05	2.880910e+02	1.028112e-01	-5.695977e-02	0.000000e+00	
-1.948718e+00	-1.218354e+00	1.224741e+00	4.284482e+01	8.285639e-06	2.539609e+05	1.012846e+05	2.880910e+02	1.028112e-01	-5.696946e-02	0.000000e+00	
-1.897436e+00	1.218354e+00	1.224741e+00	4.284481e+01	-9.420870e-06	2.539609e+05	1.012846e+05	2.880910e+02	1.028112e-01	-5.697634e-02	0.000000e+00	
-1.897436e+00	1.250000e+00	1.224741e+00	4.284479e+01	2.861067e-07	2.539609e+05	1.012846e+05	2.880910e+02	1.028112e-01	-5.697610e-02	0.000000e+00	
-1.897436e+00	1.186709e+00	1.224741e+00	4.284483e+01	-1.302335e-05	2.539609e+05	1.012846e+05	2.880910e+02	1.028113e-01	-5.697628e-02	0.000000e+00	
-1.897436e+00	1.155063e+00	1.224741e+00	4.284484e+01	-1.279780e-05	2.539609e+05	1.012846e+05	2.880910e+02	1.028113e-01	-5.697645e-02	0.000000e+00	
-1.897436e+00	1.123418e+00	1.224741e+00	4.284485e+01	-1.033330e-05	2.539609e+05	1.012846e+05	2.880910e+02	1.028113e-01	-5.697649e-02	0.000000e+00	
-1.897436e+00	1.091772e+00	1.224741e+00	4.284485e+01	-8.142444e-06	2.539609e+05	1.012846e+05	2.880910e+02	1.028113e-01	-5.697660e-02	0.000000e+00	
-1.897436e+00	1.060127e+00	1.224741e+00	4.284485e+01	-6.606780e-06	2.539609e+05	1.012846e+05	2.880910e+02	1.028113e-01	-5.697667e-02	0.000000e+00	
-1.897436e+00	1.028481e+00	1.224741e+00	4.284485e+01	-5.777281e-06	2.539609e+05	1.012846e+05	2.880910e+02	1.028113e-01	-5.697675e-02	0.000000e+00	
-1.897436e+00	9.968354e-01	1.224741e+00	4.284485e+01	-5.225007e-06	2.539609e+05	1.012846e+05	2.880910e+02	1.028113e-01	-5.697682e-02	0.000000e+00	
-1.897436e+00	9.651899e-01	1.224741e+00	4.284485e+01	-4.781557e-06	2.539609e+05	1.012846e+05	2.880910e+02	1.028113e-01	-5.697688e-02	0.000000e+00	
-1.897436e+00	9.335443e-01	1.224741e+00	4.284486e+01	-4.343380e-06	2.539609e+05	1.012846e+05	2.880910e+02	1.028113e-01	-5.697694e-02	0.000000e+00	
-1.897436e+00	9.018987e-01	1.224741e+00	4.284486e+01	-3.934931e-06	2.539609e+05	1.012846e+05	2.880910e+02	1.028113e-01	-5.697700e-02	0.000000e+00	
-1.897436e+00	8.702532e-01	1.224741e+00	4.284486e+01	-3.565395e-06	2.539609e+05	1.012846e+05	2.880910e+02	1.028113e-01	-5.697705e-02	0.000000e+00	
-1.897436e+00	8.386076e-01	1.224741e+00	4.284486e+01	-3.247090e-06	2.539609e+05	1.012846e+05	2.880910e+02	1.028113e-01	-5.697710e-02	0.000000e+00	
-1.897436e+00	8.069620e-01	1.224741e+00	4.284486e+01	-2.970762e-06	2.539609e+05	1.012846e+05	2.880910e+02	1.028113e-01	-5.697714e-02	0.000000e+00	
-1.897436e+00	7.753165e-01	1.224741e+00	4.284486e+01	-2.728987e-06	2.539609e+05	1.012846e+05	2.880910e+02	1.028113e-01	-5.697718e-02	0.000000e+00	
-1.897436e+00	7.436709e-01	1.224741e+00	4.284486e+01	-2.512756e-06	2.539609e+05	1.012846e+05	2.880910e+02	1.028113e-01	-5.697722e-02	0.000000e+00	
-1.897436e+00	7.120253e-01	1.224741e+00	4.284486e+01	-2.317775e-06	2.539609e+05	1.012846e+05	2.880910e+02	1.028113e-01	-5.697725e-02	0.000000e+00	
-1.897436e+00	6.803797e-01	1.224741e+00	4.284486e+01	-2.140517e-06	2.539609e+05	1.012846e+05	2.880910e+02	1.028113e-01	-5.697729e-02	0.000000e+00	
-1.897436e+00	6.487342e-01	1.224741e+00	4.284486e+01	-1.978954e-06	2.539609e+05	1.012846e+05	2.880910e+02	1.028113e-01	-5.697732e-02	0.000000e+00	
-1.897436e+00	6.170886e-01	1.224741e+00	4.284486e+01	-1.830954e-06	2.539609e+05	1.012846e+05	2.880910e+02	1.028113e-01	-5.697735e-02	0.000000e+00	
-1.897436e+00	5.854430e-01	1.224741e+00	4.284486e+01	-1.694782e-06	2.539609e+05	1.012846e+05	2.880910e+02	1.028113e-01	-5.697738e-02	0.000000e+00	
-1.897436e+00	5.537975e-01	1.224741e+00	4.284487e+01	-1.568756e-06	2.539609e+05	1.012846e+05	2.880910e+02	1.028113e-01	-5.697740e-02	0.000000e+00	
-1.897436e+00	5.221519e-01	1.224741e+00	4.284487e+01	-1.451500e-06	2.539609e+05	1.012846e+05	2.880910e+02	1.028113e-01	-5.697742e-02	0.000000e+00	
-1.897436e+00	4.905063e-01	1.224741e+00	4.284487e+01	-1.341790e-06	2.539609e+05	1.012846e+05	2.880910e+02	1.028113e-01	-5.697745e-02	0.000000e+00	
-1.897436e+00	4.588608e-01	1.224741e+00	4.284487e+01	-1.238598e-06	2.539609e+05	1.012846e+05	2.880910e+02	1.028113e-01	-5.697747e-02	0.000000e+00	
-1.897436e+00	4.272152e-01	1.224741e+00	4.284487e+01	-1.141011e-06	2.539609e+05	1.012846e+05	2.880910e+02	1.028113e-01	-5.697749e-02	0.000000e+00	
-1.897436e+00	3.955696e-01	1.224741e+00	4.284487e+01	-1.048233e-06	2.539609e+05	1.012846e+05	2.880910e+02	1.028113e-01	-5.697750e-02	0.000000e+00	
-1.897436e+00	3.639241e-01	1.224741e+00	4.284487e+01	-9.595467e-07	2.539609e+05	1.012846e+05	2.880910e+02	1.028114e-01	-5.697752e-02	0.000000e+00	
-1.897436e+00	3.322785e-01	1.224741e+00	4.284487e+01	-8.743167e-07	2.539609e+05	1.012846e+05	2.880910e+02	1.028114e-01	-5.697753e-02	0.000000e+00	
-1.897436e+00	3.006329e-01	1.224741e+00	4.284487e+01	-7.919678e-07	2.539609e+05	1.012846e+05	2.880910e+02	1.028114e-01	-5.697755e-02	0.000000e+00	
-1.897436e+00	2.689873e-01	1.224741e+00	4.284487e+01	-7.119823e-07	2.539609e+05	1.012846e+05	2.880910e+02	1.028114e-01	-5.697756e-02	0.000000e+00	
-1.897436e+00	2.373418e-01	1.224741e+00	4.284487e+01	-6.338882e-07	2.539609e+05	1.012846e+05	2.880910e+02	1.028114e-01	-5.697757e-02	0.000000e+00	
-1.897436e+00	2.056962e-01	1.224741e+00	4.284487e+01	-5.572540e-07	2.539609e+05	1.012846e+05	2.880910e+02	1.028114e-01	-5.697758e-02	0.000000e+00	
-1.897436e+00	1.740506e-01	1.224741e+00	4.284487e+01	-4.816822e-07	2.539609e+05	1.012846e+05	2.880910e+02	1.028114e-01	-5.697759e-02	0.000000e+00	
-1.897436e+00	1.424051e-01	1.224741e+00	4.284487e+01	-4.068038e-07	2.539609e+05	1.012846e+05	2.880910e+02	1.028114e-01	-5.697760e-02	0.000000e+00	
-1.897436e+00	1.107595e-01	1.224741e+00	4.284487e+01	-3.322744e-07	2.539609e+05	1.012846e+05	2.880910e+02	1.028114e-01	-5.697761e-02	0.000000e+00	
-1.897436e+00	7.911392e-02	1.224741e+00	4.284487e+01	-2.577700e-07	2.539609e+05	1.012846e+05	2.880910e+02	1.028114e-01	-5.697761e-02	0.000000e+00	
-1.897436e+00	4.746835e-02	1.224741e+00	4.284487e+01	-1.829830e-07	2.539609e+05	1.012846e+05	2.880910e+02	1.028114e-01	-5.697762e-02	0.000000e+00	
-1.897436e+00	1.582278e-02	1.224741e+00	4.284487e+01	-1.076198e-07	2.539609e+05	1.012846e+05	2.880910e+02	1.028114e-01	-5.697762e-02	0.000000e+00	
-1.897436e+00	-1.582278e-02	1.224741e+00	4.284487e+01	-3.139666e-08	2.539609e+05	1.012846e+05	2.880910e+02	1.028114e-01	-5.697762e-02	0.000000e+00	
-1.897436e+00	-4.746835e-02	1.224741e+00	4.284487e+01	4.596309e-08	2.539609e+05	1.012846e+05	2.880910e+02	1.028114e-01	-5.697763e-02	0.000000e+00	
-1.897436e+00	-7.911392e-02	1.224741e+00	4.284487e+01	1.247321e-07	2.539609e+05	1.012846e+05	2.880910e+02	1.028114e-01	-5.697763e-02	0.000000e+00	
-1.897436e+00	-1.107595e-01	1.224741e+00	4.284487e+01	2.051821e-07	2.539609e+05	1.012846e+05	2.880910e+02	1.028114e-01	-5.697763e-02	0.000000e+00	