TITLE = "Visualization of the volumetric solution"
VARIABLES = "x","y","Density","Momentum_x","Momentum_y","Energy","Pressure","Temperature","Mach","C<sub>p</sub>","Roe_Dissipation"
ZONE NODES= 3200, ELEMENTS= 3081, DATAPACKING=POINT, ZONETYPE=FEQUADRILATERAL
1.000000e+00	1.250000e+00	1.225118e+00	4.284442e+01	-5.274590e+00	2.540815e+05	1.013284e+05	2.881266e+02	1.035481e-01	4.784706e-03	0.000000e+00	
1.000000e+00	1.218354e+00	1.225118e+00	4.284434e+01	-5.274592e+00	2.540815e+05	1.013284e+05	2.881266e+02	1.035479e-01	4.785483e-03	0.000000e+00	
1.051282e+00	1.218354e+00	1.225118e+00	4.284434e+01	-5.274622e+00	2.540815e+05	1.013284e+05	2.881266e+02	1.035479e-01	4.770939e-03	0.000000e+00	
1.051282e+00	1.250000e+00	1.225118e+00	4.284442e+01	-5.274621e+00	2.540815e+05	1.013284e+05	2.881266e+02	1.035481e-01	4.770569e-03	0.000000e+00	
1.000000e+00	1.186709e+00	1.225118e+00	4.284432e+01	-5.274593e+00	2.540815e+05	1.013284e+05	2.881266e+02	1.035478e-01	4.785900e-03	0.000000e+00	
1.051282e+00	1.186709e+00	1.225118e+00	4.284431e+01	-5.274624e+00	2.540815e+05	1.013284e+05	2.881266e+02	1.035478e-01	4.771102e-03	0.000000e+00	
1.000000e+00	1.155063e+00	1.225118e+00	4.284433e+01	-5.274595e+00	2.540815e+05	1.013284e+05	2.881266e+02	1.035479e-01	4.786693e-03	0.000000e+00	
1.051282e+00	1.155063e+00	1.225118e+00	4.284433e+01	-5.274626e+00	2.540815e+05	1.013284e+05	2.881266e+02	1.035479e-01	4.771555e-03	0.000000e+00	
1.000000e+00	1.123418e+00	1.225118e+00	4.284439e+01	-5.274599e+00	2.540815e+05	1.013284e+05	2.881266e+02	1.035480e-01	4.787229e-03	0.000000e+00	
1.051282e+00	1.123418e+00	1.225118e+00	4.284438e+01	-5.274630e+00	2.540815e+05	1.013284e+05	2.881266e+02	1.035480e-01	4.771765e-03	0.000000e+00	
1.000000e+00	1.091772e+00	1.225118e+00	4.284446e+01	-5.274603e+00	2.540815e+05	1.013284e+05	2.881266e+02	1.035482e-01	4.787732e-03	0.000000e+00	
1.051282e+00	1.091772e+00	1.225118e+00	4.284445e+01	-5.274636e+00	2.540815e+05	1.013284e+05	2.881266e+02	1.035482e-01	4.772058e-03	0.000000e+00	
1.000000e+00	1.060127e+00	1.225119e+00	4.284455e+01	-5.274607e+00	2.540815e+05	1.013284e+05	2.881266e+02	1.035484e-01	4.787987e-03	0.000000e+00	
1.051282e+00	1.060127e+00	1.225118e+00	4.284454e+01	-5.274643e+00	2.540815e+05	1.013284e+05	2.881266e+02	1.035484e-01	4.772196e-03	0.000000e+00	
1.000000e+00	1.028481e+00	1.225119e+00	4.284463e+01	-5.274610e+00	2.540815e+05	1.013284e+05	2.881266e+02	1.035486e-01	4.788096e-03	0.000000e+00	
1.051282e+00	1.028481e+00	1.225118e+00	4.284462e+01	-5.274649e+00	2.540815e+05	1.013284e+05	2.881266e+02	1.035486e-01	4.772319e-03	0.000000e+00	
1.000000e+00	9.968354e-01	1.225119e+00	4.284470e+01	-5.274612e+00	2.540815e+05	1.013284e+05	2.881266e+02	1.035488e-01	4.788023e-03	0.000000e+00	
1.051282e+00	9.968354e-01	1.225118e+00	4.284470e+01	-5.274653e+00	2.540815e+05	1.013284e+05	2.881266e+02	1.035488e-01	4.772344e-03	0.000000e+00	
1.000000e+00	9.651899e-01	1.225119e+00	4.284475e+01	-5.274612e+00	2.540815e+05	1.013284e+05	2.881266e+02	1.035489e-01	4.787853e-03	0.000000e+00	
1.051282e+00	9.651899e-01	1.225118e+00	4.284475e+01	-5.274655e+00	2.540815e+05	1.013284e+05	2.881266e+02	1.035489e-01	4.772337e-03	0.000000e+00	
1.000000e+00	9.335443e-01	1.225119e+00	4.284479e+01	-5.274611e+00	2.540815e+05	1.013284e+05	2.881266e+02	1.035490e-01	4.787611e-03	0.000000e+00	
1.051282e+00	9.335443e-01	1.225118e+00	4.284479e+01	-5.274656e+00	2.540815e+05	1.013284e+05	2.881266e+02	1.035490e-01	4.772278e-03	0.000000e+00	
1.000000e+00	9.018987e-01	1.225118e+00	4.284480e+01	-5.274609e+00	2.540815e+05	1.013284e+05	2.881266e+02	1.035490e-01	4.787354e-03	0.000000e+00	
1.051282e+00	9.018987e-01	1.225118e+00	4.284481e+01	-5.274654e+00	2.540815e+05	1.013284e+05	2.881266e+02	1.035490e-01	4.772202e-03	0.000000e+00	
1.000000e+00	8.702532e-01	1.225118e+00	4.284481e+01	-5.274605e+00	2.540815e+05	1.013284e+05	2.881266e+02	1.035490e-01	4.787107e-03	0.000000e+00	
1.051282e+00	8.702532e-01	1.225118e+00	4.284482e+01	-5.274651e+00	2.540815e+05	1.013284e+05	2.881266e+02	1.035490e-01	4.772105e-03	0.000000e+00	
1.000000e+00	8.386076e-01	1.225118e+00	4.284481e+01	-5.274602e+00	2.540815e+05	1.013284e+05	2.881266e+02	1.035490e-01	4.786895e-03	0.000000e+00	
1.051282e+00	8.386076e-01	1.225118e+00	4.284481e+01	-5.274648e+00	2.540815e+05	1.013284e+05	2.881266e+02	1.035490e-01	4.772007e-03	0.000000e+00	
1.000000e+00	8.069620e-01	1.225118e+00	4.284480e+01	-5.274598e+00	2.540815e+05	1.013284e+05	2.881266e+02	1.035490e-01	4.786719e-03	0.000000e+00	
1.051282e+00	8.069620e-01	1.225118e+00	4.284481e+01	-5.274645e+00	2.540815e+05	1.013284e+05	2.881266e+02	1.035490e-01	4.771906e-03	0.000000e+00	
1.000000e+00	7.753165e-01	1.225118e+00	4.284480e+01	-5.274596e+00	2.540815e+05	1.013284e+05	2.881266e+02	1.035490e-01	4.786582e-03	0.000000e+00	
1.051282e+00	7.753165e-01	1.225118e+00	4.284480e+01	-5.274642e+00	2.540815e+05	1.013284e+05	2.881266e+02	1.035490e-01	4.771810e-03	0.000000e+00	
1.000000e+00	7.436709e-01	1.225118e+00	4.284479e+01	-5.274594e+00	2.540815e+05	1.013284e+05	2.881266e+02	1.035490e-01	4.786472e-03	0.000000e+00	
1.051282e+00	7.436709e-01	1.225118e+00	4.284480e+01	-5.274639e+00	2.540815e+05	1.013284e+05	2.881266e+02	1.035490e-01	4.771718e-03	0.000000e+00	
1.000000e+00	7.120253e-01	1.225118e+00	4.284479e+01	-5.274592e+00	2.540815e+05	1.013284e+05	2.881266e+02	1.035490e-01	4.786382e-03	0.000000e+00	
1.051282e+00	7.120253e-01	1.225118e+00	4.284480e+01	-5.274637e+00	2.540815e+05	1.013284e+05	2.881266e+02	1.035490e-01	4.771633e-03	0.000000e+00	
1.000000e+00	6.803797e-01	1.225118e+00	4.284479e+01	-5.274591e+00	2.540815e+05	1.013284e+05	2.881266e+02	1.035490e-01	4.786304e-03	0.000000e+00	
1.051282e+00	6.803797e-01	1.225118e+00	4.284480e+01	-5.274636e+00	2.540815e+05	1.013284e+05	2.881266e+02	1.035490e-01	4.771553e-03	0.000000e+00	
1.000000e+00	6.487342e-01	1.225118e+00	4.284480e+01	-5.274590e+00	2.540815e+05	1.013284e+05	2.881266e+02	1.035490e-01	4.786232e-03	0.000000e+00	
1.051282e+00	6.487342e-01	1.225118e+00	4.284480e+01	-5.274635e+00	2.540815e+05	1.013284e+05	2.881266e+02	1.035490e-01	4.771477e-03	0.000000e+00	
1.000000e+00	6.170886e-01	1.225118e+00	4.284480e+01	-5.274589e+00	2.540815e+05	1.013284e+05	2.881266e+02	1.035490e-01	4.786162e-03	0.000000e+00	
1.051282e+00	6.170886e-01	1.225118e+00	4.284480e+01	-5.274634e+00	2.540815e+05	1.013284e+05	2.881266e+02	1.035490e-01	4.771406e-03	0.000000e+00	
1.000000e+00	5.854430e-01	1.225118e+00	4.284480e+01	-5.274589e+00	2.540815e+05	1.013284e+05	2.881266e+02	1.035490e-01	4.786093e-03	0.000000e+00	
1.051282e+00	5.854430e-01	1.225118e+00	4.284480e+01	-5.274633e+00	2.540815e+05	1.013284e+05	2.881266e+02	1.035490e-01	4.771338e-03	0.000000e+00	
1.000000e+00	5.537975e-01	1.225118e+00	4.284480e+01	-5.274588e+00	2.540815e+05	1.013284e+05	2.881266e+02	1.035490e-01	4.786025e-03	0.000000e+00	
1.051282e+00	5.537975e-01	1.225118e+00	4.284480e+01	-5.274633e+00	2.540815e+05	1.013284e+05	2.881266e+02	1.035490e-01	4.771272e-03	0.000000e+00	
1.000000e+00	5.221519e-01	1.225118e+00	4.284480e+01	-5.274587e+00	2.540815e+05	1.013284e+05	2.881266e+02	1.035490e-01	4.785959e-03	0.000000e+00	
1.051282e+00	5.221519e-01	1.225118e+00	4.284481e+01	-5.274632e+00	2.540815e+05	1.013284e+05	2.881266e+02	1.035490e-01	4.771210e-03	0.000000e+00	
1.000000e+00	4.905063e-01	1.225118e+00	4.284481e+01	-5.274587e+00	2.540815e+05	1.013284e+05	2.881266e+02	1.035490e-01	4.785895e-03	0.000000e+00	
1.051282e+00	4.905063e-01	1.225118e+00	4.284481e+01	-5.274631e+00	2.540815e+05	1.013284e+05	2.881266e+02	1.035490e-01	4.771150e-03	0.000000e+00	
1.000000e+00	4.588608e-01	1.225118e+00	4.284481e+01	-5.274586e+00	2.540815e+05	1.013284e+05	2.881266e+02	1.035490e-01	4.785834e-03	0.000000e+00	
1.051282e+00	4.588608e-01	1.225118e+00	4.284481e+01	-5.274630e+00	2.540815e+05	1.013284e+05	2.881266e+02	1.035490e-01	4.771091e-03	0.000000e+00	
1.000000e+00	4.272152e-01	1.225118e+00	4.284481e+01	-5.274586e+00	2.540815e+05	1.013284e+05	2.881266e+02	1.035490e-01	4.785774e-03	0.000000e+00	
1.051282e+00	4.272152e-01	1.225118e+00	4.284481e+01	-5.274630e+00	2.540815e+05	1.013284e+05	2.881266e+02	1.035490e-01	4.771035e-03	0.000000e+00	
1.000000e+00	3.955696e-01	1.225118e+00	4.284481e+01	-5.274585e+00	2.540815e+05	1.013284e+05	2.881266e+02	1.035490e-01	4.785717e-03	0.000000e+00	
1.051282e+00	3.955696e-01	1.225118e+00	4.284481e+01	-5.274629e+00	2.540815e+05	1.013284e+05	2.881266e+02	1.035490e-01	4.770981e-03	0.000000e+00	
1.000000e+00	3.639241e-01	1.225118e+00	4.284481e+01	-5.274585e+00	2.540815e+05	1.013284e+05	2.881266e+02	1.035490e-01	4.785663e-03	0.000000e+00	
1.051282e+00	3.639241e-01	1.225118e+00	4.284482e+01	-5.274629e+00	2.540815e+05	1.013284e+05	2.881266e+02	1.035490e-01	4.770928e-03	0.000000e+00	
1.000000e+00	3.322785e-01	1.225118e+00	4.284482e+01	-5.274584e+00	2.540815e+05	1.013284e+05	2.881266e+02	1.035490e-01	4.785609e-03	0.000000e+00	
1.051282e+00	3.322785e-01	1.225118e+00	4.284482e+01	-5.274628e+00	2.540815e+05	1.013284e+05	2.881266e+02	1.035490e-01	4.770877e-03	0.000000e+00	
1.000000e+00	3.006329e-01	1.225118e+00	4.284482e+01	-5.274584e+00	2.540815e+05	1.013284e+05	2.881266e+02	1.035490e-01	4.785558e-03	0.000000e+00	
1.051282e+00	3.006329e-01	1.225118e+00	4.284482e+01	-5.274627e+00	2.540815e+05	1.013284e+05	2.881266e+02	1.035491e-01	4.770828e-03	0.000000e+00	
1.000000e+00	2.689873e-01	1.225118e+00	4.284482e+01	-5.274583e+00	2.540815e+05	1.013284e+05	2.881266e+02	1.035490e-01	4.785508e-03	0.000000e+00	
1.051282e+00	2.689873e-01	1.225118e+00	4.284482e+01	-5.274627e+00	2.540815e+05	1.013284e+05	2.881266e+02	1.035491e-01	4.770780e-03	0.000000e+00	
1.000000e+00	2.373418e-01	1.225118e+00	4.284482e+01	-5.274583e+00	2.540815e+05	1.013284e+05	2.881266e+02	1.035490e-01	4.785460e-03	0.000000e+00	
1.051282e+00	2.373418e-01	1.225118e+00	4.284482e+01	-5.274626e+00	2.540815e+05	1.013284e+05	2.881266e+02	1.035491e-01	4.770733e-03	0.000000e+00	
1.000000e+00	2.056962e-01	1.225118e+00	4.284482e+01	-5.274582e+00	2.540815e+05	1.013284e+05	2.881266e+02	1.035490e-01	4.785412e-03	0.000000e+00	
1.051282e+00	2.056962e-01	1.225118e+00	4.284483e+01	-5.274626e+00	2.540815e+05	1.013284e+05	2.881266e+02	1.035491e-01	4.770687e-03	0.000000e+00	
1.000000e+00	1.740506e-01	1.225118e+00	4.284483e+01	-5.274582e+00	2.540815e+05	1.013284e+05	2.881266e+02	1.035490e-01	4.785366e-03	0.000000e+00	
1.051282e+00	1.740506e-01	1.225118e+00	4.284483e+01	-5.274625e+00	2.540815e+05	1.013284e+05	2.881266e+02	1.035491e-01	4.770643e-03	0.000000e+00	
1.000000e+00	1.424051e-01	1.225118e+00	4.284483e+01	-5.274581e+00	2.540815e+05	1.013284e+05	2.881266e+02	1.035490e-01	4.785321e-03	0.000000e+00	
1.051282e+00	1.424051e-01	1.225118e+00	4.284483e+01	-5.274625e+00	2.540815e+05	1.013284e+05	2.881266e+02	1.035491e-01	4.770600e-03	0.000000e+00	
1.000000e+00	1.107595e-01	1.225118e+00	4.284483e+01	-5.274581e+00	2.540815e+05	1.013284e+05	2.881266e+02	1.035491e-01	4.785278e-03	0.000000e+00	
1.051282e+00	1.107595e-01	1.225118e+00	4.284483e+01	-5.274625e+00	2.540815e+05	1.013284e+05	2.881266e+02	1.035491e-01	4.770558e-03	0.000000e+00	
1.000000e+00	7.911392e-02	1.225118e+00	4.284483e+01	-5.274580e+00	2.540815e+05	1.013284e+05	2.881266e+02	1.035491e-01	4.785235e-03	0.000000e+00	
1.051282e+00	7.911392e-02	1.225118e+00	4.284483e+01	-5.274624e+00	2.540815e+05	1.013284e+05	2.881266e+02	1.035491e-01	4.770517e-03	0.000000e+00	
1.000000e+00	4.746835e-02	1.225118e+00	4.284483e+01	-5.274580e+00	2.540815e+05	1.013284e+05	2.881266e+02	1.035491e-01	4.785193e-03	0.000000e+00	
1.051282e+00	4.746835e-02	1.225118e+00	4.284483e+01	-5.274624e+00	2.540815e+05	1.013284e+05	2.881266e+02	1.035491e-01	4.770477e-03	0.000000e+00	
1.000000e+00	1.582278e-02	1.225118e+00	4.284483e+01	-5.274580e+00	2.540815e+05	1.013284e+05	2.881266e+02	1.035491e-01	4.785153e-03	0.000000e+00	
1.051282e+00	1.582278e-02	1.225118e+00	4.284484e+01	-5.274623e+00	2.540815e+05	1.013284e+05	2.881266e+02	1.035491e-01	4.770438e-03	0.000000e+00	
1.000000e+00	-1.582278e-02	1.225118e+00	4.284484e+01	-5.274579e+00	2.540815e+05	1.013284e+05	2.881266e+02	1.035491e-01	4.785113e-03	0.000000e+00	
1.051282e+00	-1.582278e-02	1.225118e+00	4.284484e+01	-5.274623e+00	2.540815e+05	1.013284e+05	2.881266e+02	1.035491e-01	4.770399e-03	0.000000e+00	
1.000000e+00	-4.746835e-02	1.225118e+00	4.284484e+01	-5.274579e+00	2.540815e+05	1.013284e+05	2.881266e+02	1.035491e-01	4.785074e-03	0.000000e+00	
1.051282e+00	-4.746835e-02	1.225118e+00	4.284484e+01	-5.274622e+00	2.540815e+05	1.013284e+05	2.881266e+02	1.035491e-01	4.770362e-03	0.000000e+00	
1.000000e+00	-7.911392e-02	1.225118e+00	4.284484e+01	-5.274579e+00	2.540815e+05	1.013284e+05	2.881266e+02	1.035491e-01	4.785036e-03	0.000000e+00	
1.051282e+00	-7.911392e-02	1.225118e+00	4.284484e+01	-5.274622e+00	2.540815e+05	1.013284e+05	2.881266e+02	1.035491e-01	4.770326e-03	0.000000e+00	
1.000000e+00	-1.107595e-01	1.225118e+00	4.284484e+01	-5.274578e+00	2.540815e+05	1.013284e+05	2.881266e+02	1.035491e-01	4.784999e-03	0.000000e+00	
1.051282e+00	-1.107595e-01	1.225118e+00	4.284484e+01	-5.274622e+00	2.540815e+05	1.013284e+05	2.881266e+02	1.035491e-01	4.770290e-03	0.000000e+00	
1.000000e+00	-1.424051e-01	1.225118e+00	4.284484e+01	-5.274578e+00	2.540815e+05	1.013284e+05	2.881266e+02	1.035491e-01	4.784963e-03	0.000000e+00	
1.051282e+00	-1.424051e-01	1.225118e+00	4.284484e+01	-5.274621e+00	2.540815e+05	1.013284e+05	2.881266e+02	1.035491e-01	4.770255e-03	0.000000e+00	
1.000000e+00	-1.740506e-01	1.225118e+00	4.284484e+01	-5.274577e+00	2.540815e+05	1.013284e+05	2.881266e+02	1.035491e-01	4.784927e-03	0.000000e+00	
1.051282e+00	-1.740506e-01	1.225118e+00	4.284485e+01	-5.274621e+00	2.540815e+05	1.013284e+05	2.881266e+02	1.035491e-01	4.770221e-03	0.000000e+00	
1.000000e+00	-2.056962e-01	1.225118e+00	4.284485e+01	-5.274577e+00	2.540815e+05	1.013284e+05	2.881266e+02	1.035491e-01	4.784892e-03	0.000000e+00	
1.051282e+00	-2.056962e-01	1.225118e+00	4.284485e+01	-5.274621e+00	2.540815e+05	1.013284e+05	2.881266e+02	1.035491e-01	4.770188e-03	0.000000e+00	
1.000000e+00	-2.373418e-01	1.225118e+00	4.284485e+01	-5.274577e+00	2.540815e+05	1.013284e+05	2.881266e+02	1.035491e-01	4.784858e-03	0.000000e+00	
1.051282e+00	-2.373418e-01	1.225118e+00	4.284485e+01	-5.274620e+00	2.540815e+05	1.013284e+05	2.881266e+02	1.035491e-01	4.770155e-03	0.000000e+00	
1.000000e+00	-2.689873e-01	1.225118e+00	4.284485e+01	-5.274576e+00	2.540815e+05	1.013284e+05	2.881266e+02	1.035491e-01	4.784824e-03	0.000000e+00	
1.051282e+00	-2.689873e-01	1.225118e+00	4.284485e+01	-5.274620e+00	2.540815e+05	1.013284e+05	2.881266e+02	1.035491e-01	4.770123e-03	0.000000e+00	
1.000000e+00	-3.006329e-01	1.225118e+00	4.284485e+01	-5.274576e+00	2.540815e+05	1.013284e+05	2.881266e+02	1.035491e-01	4.784791e-03	0.000000e+00	
1.051282e+00	-3.006329e-01	1.225118e+00	4.284485e+01	-5.274620e+00	2.540815e+05	1.013284e+05	2.881266e+02	1.035491e-01	4.770091e-03	0.000000e+00	
1.000000e+00	-3.322785e-01	1.225118e+00	4.284485e+01	-5.274576e+00	2.540815e+05	1.013284e+05	2.881266e+02	1.035491e-01	4.784759e-03	0.000000e+00	
1.051282e+00	-3.322785e-01	1.225118e+00	4.284485e+01	-5.274619e+00	2.540815e+05	1.013284e+05	2.881266e+02	1.035491e-01	4.770060e-03	0.000000e+00	
1.000000e+00	-3.639241e-01	1.225118e+00	4.284485e+01	-5.274576e+00	2.540815e+05	1.013284e+05	2.881266e+02	1.035491e-01	4.784727e-03	0.000000e+00	
1.051282e+00	-3.639241e-01	1.225118e+00	4.284486e+01	-5.274619e+00	2.540815e+05	1.013284e+05	2.881266e+02	1.035491e-01	4.770030e-03	0.000000e+00	
1.000000e+00	-3.955696e-01	1.225118e+00	4.284486e+01	-5.274575e+00	2.540815e+05	1.013284e+05	2.881266e+02	1.035491e-01	4.784695e-03	0.000000e+00	
1.051282e+00	-3.955696e-01	1.225118e+00	4.284486e+01	-5.274619e+00	2.540815e+05	1.013284e+05	2.881266e+02	1.035491e-01	4.770000e-03	0.000000e+00	
1.000000e+00	-4.272152e-01	1.225118e+00	4.284486e+01	-5.274575e+00	2.540815e+05	1.013284e+05	2.881266e+02	1.035491e-01	4.784664e-03	0.000000e+00	
1.051282e+00	-4.272152e-01	1.225118e+00	4.284486e+01	-5.274618e+00	2.540815e+05	1.013284e+05	2.881266e+02	1.035491e-01	4.769971e-03	0.000000e+00	
1.000000e+00	-4.588608e-01	1.225118e+00	4.284486e+01	-5.274575e+00	2.540815e+05	1.013284e+05	2.881266e+02	1.035491e-01	4.784633e-03	0.000000e+00	
1.051282e+00	-4.588608e-01	1.225118e+00	4.284486e+01	-5.274618e+00	2.540815e+05	1.013284e+05	2.881266e+02	1.035491e-01	4.769942e-03	0.000000e+00	
1.000000e+00	-4.905063e-01	1.225118e+00	4.284486e+01	-5.274574e+00	2.540815e+05	1.013284e+05	2.881266e+02	1.035491e-01	4.784603e-03	0.000000e+00	
1.051282e+00	-4.905063e-01	1.225118e+00	4.284486e+01	-5.274618e+00	2.540815e+05	1.013284e+05	2.881266e+02	1.035491e-01	4.769914e-03	0.000000e+00	
1.000000e+00	-5.221519e-01	1.225118e+00	4.284486e+01	-5.274574e+00	2.540815e+05	1.013284e+05	2.881266e+02	1.035491e-01	4.784572e-03	0.000000e+00	
1.051282e+00	-5.221519e-01	1.225118e+00	4.284486e+01	-5.274618e+00	2.540815e+05	1.013284e+05	2.881266e+02	1.035492e-01	4.769886e-03	0.000000e+00	
1.000000e+00	-5.537975e-01	1.225118e+00	4.284486e+01	-5.274574e+00	2.540815e+05	1.013284e+05	2.881266e+02	1.035491e-01	4.784542e-03	0.000000e+00	
1.051282e+00	-5.537975e-01	1.225118e+00	4.284486e+01	-5.274617e+00	2.540815e+05	1.013284e+05	2.881266e+02	1.035492e-01	4.769858e-03	0.000000e+00	
1.000000e+00	-5.854430e-01	1.225118e+00	4.284486e+01	-5.274574e+00	2.540815e+05	1.013284e+05	2.881266e+02	1.035491e-01	4.784512e-03	0.000000e+00	
1.051282e+00	-5.854430e-01	1.225118e+00	4.284487e+01	-5.274617e+00	2.540815e+05	1.013284e+05	2.881266e+02	1.035492e-01	4.769831e-03	0.000000e+00	
1.000000e+00	-6.170886e-01	1.225118e+00	4.284487e+01	-5.274574e+00	2.540815e+05	1.013284e+05	2.881266e+02	1.035491e-01	4.784482e-03	0.000000e+00	
1.051282e+00	-6.170886e-01	1.225118e+00	4.284487e+01	-5.274617e+00	2.540815e+05	1.013284e+05	2.881266e+02	1.035492e-01	4.769804e-03	0.000000e+00	
1.000000e+00	-6.487342e-01	1.225118e+00	4.284487e+01	-5.274573e+00	2.540815e+05	1.013284e+05	2.881266e+02	1.035491e-01	4.784452e-03	0.000000e+00	
1.051282e+00	-6.487342e-01	1.225118e+00	4.284487e+01	-5.274617e+00	2.540815e+05	1.013284e+05	2.881266e+02	1.035492e-01	4.769777e-03	0.000000e+00	
1.000000e+00	-6.803797e-01	1.225118e+00	4.284487e+01	-5.274573e+00	2.540815e+05	1.013284e+05	2.881266e+02	1.035491e-01	4.784421e-03	0.000000e+00	
1.051282e+00	-6.803797e-01	1.225118e+00	4.284487e+01	-5.274617e+00	2.540815e+05	1.013284e+05	2.881266e+02	1.035492e-01	4.769750e-03	0.000000e+00	
1.000000e+00	-7.120253e-01	1.225118e+00	4.284487e+01	-5.274573e+00	2.540815e+05	1.013284e+05	2.881266e+02	1.035491e-01	4.784390e-03	0.000000e+00	
1.051282e+00	-7.120253e-01	1.225118e+00	4.284487e+01	-5.274616e+00	2.540815e+05	1.013284e+05	2.881266e+02	1.035492e-01	4.769723e-03	0.000000e+00	
1.000000e+00	-7.436709e-01	1.225118e+00	4.284487e+01	-5.274573e+00	2.540815e+05	1.013284e+05	2.881266e+02	1.035491e-01	4.784358e-03	0.000000e+00	
1.051282e+00	-7.436709e-01	1.225118e+00	4.284487e+01	-5.274616e+00	2.540815e+05	1.013284e+05	2.881266e+02	1.035492e-01	4.769697e-03	0.000000e+00	
1.000000e+00	-7.753165e-01	1.225118e+00	4.284487e+01	-5.274573e+00	2.540815e+05	1.013284e+05	2.881266e+02	1.035491e-01	4.784326e-03	0.000000e+00	
1.051282e+00	-7.753165e-01	1.225118e+00	4.284487e+01	-5.274616e+00	2.540815e+05	1.013284e+05	2.881266e+02	1.035492e-01	4.769671e-03	0.000000e+00	
1.000000e+00	-8.069620e-01	1.225118e+00	4.284487e+01	-5.274573e+00	2.540815e+05	1.013284e+05	2.881266e+02	1.035491e-01	4.784295e-03	0.000000e+00	
1.051282e+00	-8.069620e-01	1.225118e+00	4.284487e+01	-5.274616e+00	2.540815e+05	1.013284e+05	2.881266e+02	1.035492e-01	4.769646e-03	0.000000e+00	
1.000000e+00	-8.386076e-01	1.225118e+00	4.284487e+01	-5.274573e+00	2.540815e+05	1.013284e+05	2.881266e+02	1.035491e-01	4.784264e-03	0.000000e+00	
1.051282e+00	-8.386076e-01	1.225118e+00	4.284487e+01	-5.274616e+00	2.540815e+05	1.013284e+05	2.881266e+02	1.035492e-01	4.769621e-03	0.000000e+00	
1.000000e+00	-8.702532e-01	1.225118e+00	4.284487e+01	-5.274573e+00	2.540815e+05	1.013284e+05	2.881266e+02	1.035491e-01	4.784234e-03	0.000000e+00	
1.051282e+00	-8.702532e-01	1.225118e+00	4.284487e+01	-5.274616e+00	2.540815e+05	1.013284e+05	2.881266e+02	1.035492e-01	4.769598e-03	0.000000e+00	
1.000000e+00	-9.018987e-01	1.225118e+00	4.284487e+01	-5.274573e+00	2.540815e+05	1.013284e+05	2.881266e+02	1.035491e-01	4.784202e-03	0.000000e+00	
1.051282e+00	-9.018987e-01	1.225118e+00	4.284487e+01	-5.274617e+00	2.540815e+05	1.013284e+05	2.881266e+02	1.035492e-01	4.769574e-03	0.000000e+00	
1.000000e+00	-9.335443e-01	1.225118e+00	4.284487e+01	-5.274574e+00	2.540815e+05	1.013284e+05	2.881266e+02	1.035491e-01	4.784169e-03	0.000000e+00	
1.051282e+00	-9.335443e-01	1.225118e+00	4.284487e+01	-5.274617e+00	2.540815e+05	1.013284e+05	2.881266e+02	1.035492e-01	4.769552e-03	0.000000e+00	
1.000000e+00	-9.651899e-01	1.225118e+00	4.284487e+01	-5.274575e+00	2.540815e+05	1.013284e+05	2.881266e+02	1.035492e-01	4.784129e-03	0.000000e+00	
1.051282e+00	-9.651899e-01	1.225118e+00	4.284487e+01	-5.274618e+00	2.540815e+05	1.013284e+05	2.881266e+02	1.035492e-01	4.769527e-03	0.000000e+00	
1.000000e+00	-9.968354e-01	1.225118e+00	4.284488e+01	-5.274576e+00	2.540815e+05	1.013284e+05	2.881266e+02	1.035492e-01	4.784083e-03	0.000000e+00	
1.051282e+00	-9.968354e-01	1.225118e+00	4.284488e+01	-5.274619e+00	2.540815e+05	1.013284e+05	2.881266e+02	1.035492e-01	4.769509e-03	0.000000e+00	
1.000000e+00	-1.028481e+00	1.225118e+00	4.284489e+01	-5.274578e+00	2.540815e+05	1.013284e+05	2.881266e+02	1.035492e-01	4.784007e-03	0.000000e+00	
1.051282e+00	-1.028481e+00	1.225118e+00	4.284489e+01	-5.274621e+00	2.540815e+05	1.013284e+05	2.881266e+02	1.035492e-01	4.769480e-03	0.000000e+00	
1.000000e+00	-1.060127e+00	1.225118e+00	4.284490e+01	-5.274580e+00	2.540815e+05	1.013284e+05	2.881266e+02	1.035492e-01	4.783896e-03	0.000000e+00	
1.051282e+00	-1.060127e+00	1.225118e+00	4.284490e+01	-5.274623e+00	2.540815e+05	1.013284e+05	2.881266e+02	1.035492e-01	4.769468e-03	0.000000e+00	
1.000000e+00	-1.091772e+00	1.225118e+00	4.284491e+01	-5.274581e+00	2.540815e+05	1.013284e+05	2.881266e+02	1.035493e-01	4.783705e-03	0.000000e+00	
1.051282e+00	-1.091772e+00	1.225118e+00	4.284491e+01	-5.274624e+00	2.540815e+05	1.013284e+05	2.881266e+02	1.035493e-01	4.769427e-03	0.000000e+00	
1.000000e+00	-1.123418e+00	1.225118e+00	4.284490e+01	-5.274584e+00	2.540815e+05	1.013284e+05	2.881266e+02	1.035492e-01	4.783485e-03	0.000000e+00	
1.051282e+00	-1.123418e+00	1.225118e+00	4.284490e+01	-5.274625e+00	2.540815e+05	1.013284e+05	2.881266e+02	1.035492e-01	4.769455e-03	0.000000e+00	
1.000000e+00	-1.155063e+00	1.225118e+00	4.284485e+01	-5.274586e+00	2.540815e+05	1.013284e+05	2.881266e+02	1.035491e-01	4.783240e-03	0.000000e+00	
1.051282e+00	-1.155063e+00	1.225118e+00	4.284485e+01	-5.274625e+00	2.540815e+05	1.013284e+05	2.881266e+02	1.035491e-01	4.769414e-03	0.000000e+00	
1.000000e+00	-1.186709e+00	1.225118e+00	4.284475e+01	-5.274587e+00	2.540815e+05	1.013284e+05	2.881266e+02	1.035489e-01	4.783266e-03	0.000000e+00	
1.051282e+00	-1.186709e+00	1.225118e+00	4.284475e+01	-5.274624e+00	2.540815e+05	1.013284e+05	2.881266e+02	1.035489e-01	4.769653e-03	0.000000e+00	
1.000000e+00	-1.218354e+00	1.225118e+00	4.284459e+01	-5.274588e+00	2.540815e+05	1.013284e+05	2.881266e+02	1.035485e-01	4.783499e-03	0.000000e+00	
1.051282e+00	-1.218354e+00	1.225118e+00	4.284459e+01	-5.274620e+00	2.540815e+05	1.013284e+05	2.881266e+02	1.035485e-01	4.769621e-03	0.000000e+00	
1.102564e+00	1.218354e+00	1.225118e+00	4.284433e+01	-5.274652e+00	2.540815e+05	1.013284e+05	2.881266e+02	1.035479e-01	4.759102e-03	0.000000e+00	
1.102564e+00	1.250000e+00	1.225118e+00	4.284442e+01	-5.274653e+00	2.540815e+05	1.013284e+05	2.881266e+02	1.035481e-01	4.758584e-03	0.000000e+00	
1.102564e+00	1.186709e+00	1.225118e+00	4.284431e+01	-5.274654e+00	2.540815e+05	1.013284e+05	2.881266e+02	1.035478e-01	4.759173e-03	0.000000e+00	
1.102564e+00	1.155063e+00	1.225118e+00	4.284432e+01	-5.274656e+00	2.540815e+05	1.013284e+05	2.881266e+02	1.035479e-01	4.759569e-03	0.000000e+00	
1.102564e+00	1.123418e+00	1.225118e+00	4.284437e+01	-5.274662e+00	2.540815e+05	1.013284e+05	2.881266e+02	1.035480e-01	4.759722e-03	0.000000e+00	
1.102564e+00	1.091772e+00	1.225118e+00	4.284444e+01	-5.274669e+00	2.540815e+05	1.013284e+05	2.881266e+02	1.035482e-01	4.759981e-03	0.000000e+00	
1.102564e+00	1.060127e+00	1.225118e+00	4.284452e+01	-5.274677e+00	2.540815e+05	1.013284e+05	2.881266e+02	1.035484e-01	4.760092e-03	0.000000e+00	
1.102564e+00	1.028481e+00	1.225118e+00	4.284461e+01	-5.274685e+00	2.540815e+05	1.013284e+05	2.881266e+02	1.035486e-01	4.760210e-03	0.000000e+00	
1.102564e+00	9.968354e-01	1.225118e+00	4.284469e+01	-5.274692e+00	2.540815e+05	1.013284e+05	2.881266e+02	1.035488e-01	4.760234e-03	0.000000e+00	
1.102564e+00	9.651899e-01	1.225118e+00	4.284475e+01	-5.274696e+00	2.540815e+05	1.013284e+05	2.881266e+02	1.035489e-01	4.760238e-03	0.000000e+00	
1.102564e+00	9.335443e-01	1.225118e+00	4.284479e+01	-5.274698e+00	2.540815e+05	1.013284e+05	2.881266e+02	1.035490e-01	4.760192e-03	0.000000e+00	
1.102564e+00	9.018987e-01	1.225118e+00	4.284481e+01	-5.274697e+00	2.540815e+05	1.013284e+05	2.881266e+02	1.035491e-01	4.760133e-03	0.000000e+00	
1.102564e+00	8.702532e-01	1.225118e+00	4.284482e+01	-5.274695e+00	2.540815e+05	1.013284e+05	2.881266e+02	1.035491e-01	4.760054e-03	0.000000e+00	
1.102564e+00	8.386076e-01	1.225118e+00	4.284482e+01	-5.274692e+00	2.540815e+05	1.013284e+05	2.881266e+02	1.035491e-01	4.759974e-03	0.000000e+00	
1.102564e+00	8.069620e-01	1.225118e+00	4.284481e+01	-5.274689e+00	2.540815e+05	1.013284e+05	2.881266e+02	1.035491e-01	4.759891e-03	0.000000e+00	
1.102564e+00	7.753165e-01	1.225118e+00	4.284480e+01	-5.274685e+00	2.540815e+05	1.013284e+05	2.881266e+02	1.035490e-01	4.759813e-03	0.000000e+00	
1.102564e+00	7.436709e-01	1.225118e+00	4.284480e+01	-5.274683e+00	2.540815e+05	1.013284e+05	2.881266e+02	1.035490e-01	4.759738e-03	0.000000e+00	
1.102564e+00	7.120253e-01	1.225118e+00	4.284480e+01	-5.274680e+00	2.540815e+05	1.013284e+05	2.881266e+02	1.035490e-01	4.759667e-03	0.000000e+00	
1.102564e+00	6.803797e-01	1.225118e+00	4.284480e+01	-5.274679e+00	2.540815e+05	1.013284e+05	2.881266e+02	1.035490e-01	4.759599e-03	0.000000e+00	
1.102564e+00	6.487342e-01	1.225118e+00	4.284480e+01	-5.274678e+00	2.540815e+05	1.013284e+05	2.881266e+02	1.035490e-01	4.759534e-03	0.000000e+00	
1.102564e+00	6.170886e-01	1.225118e+00	4.284480e+01	-5.274677e+00	2.540815e+05	1.013284e+05	2.881266e+02	1.035490e-01	4.759472e-03	0.000000e+00	
1.102564e+00	5.854430e-01	1.225118e+00	4.284480e+01	-5.274676e+00	2.540815e+05	1.013284e+05	2.881266e+02	1.035490e-01	4.759412e-03	0.000000e+00	
1.102564e+00	5.537975e-01	1.225118e+00	4.284480e+01	-5.274675e+00	2.540815e+05	1.013284e+05	2.881266e+02	1.035490e-01	4.759353e-03	0.000000e+00	
1.102564e+00	5.221519e-01	1.225118e+00	4.284480e+01	-5.274674e+00	2.540815e+05	1.013284e+05	2.881266e+02	1.035490e-01	4.759296e-03	0.000000e+00	
1.102564e+00	4.905063e-01	1.225118e+00	4.284481e+01	-5.274674e+00	2.540815e+05	1.013284e+05	2.881266e+02	1.035490e-01	4.759241e-03	0.000000e+00	
1.102564e+00	4.588608e-01	1.225118e+00	4.284481e+01	-5.274673e+00	2.540815e+05	1.013284e+05	2.881266e+02	1.035490e-01	4.759188e-03	0.000000e+00	
1.102564e+00	4.272152e-01	1.225118e+00	4.284481e+01	-5.274672e+00	2.540815e+05	1.013284e+05	2.881266e+02	1.035490e-01	4.759136e-03	0.000000e+00	
1.102564e+00	3.955696e-01	1.225118e+00	4.284481e+01	-5.274671e+00	2.540815e+05	1.013284e+05	2.881266e+02	1.035491e-01	4.759085e-03	0.000000e+00	
1.102564e+00	3.639241e-01	1.225118e+00	4.284481e+01	-5.274671e+00	2.540815e+05	1.013284e+05	2.881266e+02	1.035491e-01	4.759036e-03	0.000000e+00	
1.102564e+00	3.322785e-01	1.225118e+00	4.284482e+01	-5.274670e+00	2.540815e+05	1.013284e+05	2.881266e+02	1.035491e-01	4.758988e-03	0.000000e+00	
1.102564e+00	3.006329e-01	1.225118e+00	4.284482e+01	-5.274670e+00	2.540815e+05	1.013284e+05	2.881266e+02	1.035491e-01	4.758942e-03	0.000000e+00	
1.102564e+00	2.689873e-01	1.225118e+00	4.284482e+01	-5.274669e+00	2.540815e+05	1.013284e+05	2.881266e+02	1.035491e-01	4.758896e-03	0.000000e+00	
1.102564e+00	2.373418e-01	1.225118e+00	4.284482e+01	-5.274668e+00	2.540815e+05	1.013284e+05	2.881266e+02	1.035491e-01	4.758852e-03	0.000000e+00	
1.102564e+00	2.056962e-01	1.225118e+00	4.284482e+01	-5.274668e+00	2.540815e+05	1.013284e+05	2.881266e+02	1.035491e-01	4.758809e-03	0.000000e+00	
1.102564e+00	1.740506e-01	1.225118e+00	4.284482e+01	-5.274667e+00	2.540815e+05	1.013284e+05	2.881266e+02	1.035491e-01	4.758767e-03	0.000000e+00	
1.102564e+00	1.424051e-01	1.225118e+00	4.284483e+01	-5.274667e+00	2.540815e+05	1.013284e+05	2.881266e+02	1.035491e-01	4.758726e-03	0.000000e+00	
1.102564e+00	1.107595e-01	1.225118e+00	4.284483e+01	-5.274666e+00	2.540815e+05	1.013284e+05	2.881266e+02	1.035491e-01	4.758686e-03	0.000000e+00	
1.102564e+00	7.911392e-02	1.225118e+00	4.284483e+01	-5.274666e+00	2.540815e+05	1.013284e+05	2.881266e+02	1.035491e-01	4.758647e-03	0.000000e+00	
1.102564e+00	4.746835e-02	1.225118e+00	4.284483e+01	-5.274666e+00	2.540815e+05	1.013284e+05	2.881266e+02	1.035491e-01	4.758609e-03	0.000000e+00	
1.102564e+00	1.582278e-02	1.225118e+00	4.284483e+01	-5.274665e+00	2.540815e+05	1.013284e+05	2.881266e+02	1.035491e-01	4.758571e-03	0.000000e+00	
1.102564e+00	-1.582278e-02	1.225118e+00	4.284483e+01	-5.274665e+00	2.540815e+05	1.013284e+05	2.881266e+02	1.035491e-01	4.758535e-03	0.000000e+00	
1.102564e+00	-4.746835e-02	1.225118e+00	4.284484e+01	-5.274664e+00	2.540815e+05	1.013284e+05	2.881266e+02	1.035491e-01	4.758499e-03	0.000000e+00	
1.102564e+00	-7.911392e-02	1.225118e+00	4.284484e+01	-5.274664e+00	2.540815e+05	1.013284e+05	2.881266e+02	1.035491e-01	4.758465e-03	0.000000e+00	
1.102564e+00	-1.107595e-01	1.225118e+00	4.284484e+01	-5.274663e+00	2.540815e+05	1.013284e+05	2.881266e+02	1.035491e-01	4.758431e-03	0.000000e+00	
1.102564e+00	-1.424051e-01	1.225118e+00	4.284484e+01	-5.274663e+00	2.540815e+05	1.013284e+05	2.881266e+02	1.035491e-01	4.758397e-03	0.000000e+00	
1.102564e+00	-1.740506e-01	1.225118e+00	4.284484e+01	-5.274663e+00	2.540815e+05	1.013284e+05	2.881266e+02	1.035491e-01	4.758365e-03	0.000000e+00	