TITLE = "SU2 Simulation"
VARIABLES = "Iteration","CL","CD","CSF","CMx","CMy","CMz","CFx","CFy","CFz","CL/CD","AoA","Custom_ObjFunc","Res_Flow[0]","Res_Flow[1]","Res_Flow[2]","Res_Flow[3]","Res_Flow[4]","Linear_Solver_Iterations","CFL_Number","Time(min)"
ZONE T= "Convergence history"
           0, 0.00000000e+00, 0.00000000e+00, 0.00000000e+00, 0.00000000e+00, 0.00000000e+00, 0.00000000e+00, 0.00000000e+00, 0.00000000e+00, 0.00000000e+00, 0.00000000e+00, 0.00000000e+00, 0.00000000e+00, -1.62443716e+01, -1.32514527e+01, -1.32295822e+01, -1.09138774e+01, 0.00000000e+00, 5.0000000000, 5.0000000000, 0.0011238000
           1, 0.00000000e+00, 0.00000000e+00, 0.00000000e+00, 0.00000000e+00, 0.00000000e+00, 0.00000000e+00, 0.00000000e+00, 0.00000000e+00, 0.00000000e+00, 0.00000000e+00, 0.00000000e+00, 0.00000000e+00, -1.59567078e+01, -2.11097612e-01, 3.00731927e-01, 1.32076055e+00, 0.00000000e+00, 5.0000000000, 5.0000000000, 0.0022296833
           2, 0.00000000e+00, 0.00000000e+00, 0.00000000e+00, 0.00000000e+00, 0.00000000e+00, 0.00000000e+00, 0.00000000e+00, 0.00000000e+00, 0.00000000e+00, 0.00000000e+00, 0.00000000e+00, 0.00000000e+00, -3.77155523e+00, -2.47202597e-01, 2.83268562e-01, 1.71806761e+00, 0.00000000e+00, 5.0000000000, 5.0000000000, 0.0032496667
           3, 0.00000000e+00, 0.00000000e+00, 0.00000000e+00, 0.00000000e+00, 0.00000000e+00, 0.00000000e+00, 0.00000000e+00, 0.00000000e+00, 0.00000000e+00, 0.00000000e+00, 0.00000000e+00, 0.00000000e+00, -3.56677167e+00, -2.86693832e-01, 2.65777031e-01, 1.90285297e+00, 0.00000000e+00, 5.0000000000, 5.0000000000, 0.0042357833
           4, 0.00000000e+00, 0.00000000e+00, 0.00000000e+00, 0.00000000e+00, 0.00000000e+00, 0.00000000e+00, 0.00000000e+00, 0.00000000e+00, 0.00000000e+00, 0.00000000e+00, 0.00000000e+00, 0.00000000e+00, -3.47204549e+00, -3.28623692e-01, 2.48264201e-01, 1.99312363e+00, 0.00000000e+00, 5.0000000000, 5.0000000000, 0.0052613500
           5, 0.00000000e+00, 0.00000000e+00, 0.00000000e+00, 0.00000000e+00, 0.00000000e+00, 0.00000000e+00, 0.00000000e+00, 0.00000000e+00, 0.00000000e+00, 0.00000000e+00, 0.00000000e+00, 0.00000000e+00, -3.41393695e+00, -3.72749692e-01, 2.30707748e-01, 2.04951149e+00, 0.00000000e+00, 5.0000000000, 5.0000000000, 0.0063155833
           6, 0.00000000e+00, 0.00000000e+00, 0.00000000e+00, 0.00000000e+00, 0.00000000e+00, 0.00000000e+00, 0.00000000e+00, 0.00000000e+00, 0.00000000e+00, 0.00000000e+00, 0.00000000e+00, 0.00000000e+00, -3.37259947e+00, -4.19442936e-01, 2.13103278e-01, 2.08996597e+00, 0.00000000e+00, 5.0000000000, 5.0000000000, 0.0073628500
           7, 0.00000000e+00, 0.00000000e+00, 0.00000000e+00, 0.00000000e+00, 0.00000000e+00, 0.00000000e+00, 0.00000000e+00, 0.00000000e+00, 0.00000000e+00, 0.00000000e+00, 0.00000000e+00, 0.00000000e+00, -3.34132443e+00, -4.69393145e-01, 1.95462546e-01, 2.12069772e+00, 0.00000000e+00, 5.0000000000, 5.0000000000, 0.0083627500
           8, 0.00000000e+00, 0.00000000e+00, 0.00000000e+00, 0.00000000e+00, 0.00000000e+00, 0.00000000e+00, 0.00000000e+00, 0.00000000e+00, 0.00000000e+00, 0.00000000e+00, 0.00000000e+00, 0.00000000e+00, -3.31723284e+00, -5.23548583e-01, 1.77799771e-01, 2.14442555e+00, 0.00000000e+00, 5.0000000000, 5.0000000000, 0.0093535167
           9, 0.00000000e+00, 0.00000000e+00, 0.00000000e+00, 0.00000000e+00, 0.00000000e+00, 0.00000000e+00, 0.00000000e+00, 0.00000000e+00, 0.00000000e+00, 0.00000000e+00, 0.00000000e+00, 0.00000000e+00, -3.29888066e+00, -5.83188249e-01, 1.60125402e-01, 2.16252580e+00, 0.00000000e+00, 5.0000000000, 5.0000000000, 0.0103628333
          10, 0.00000000e+00, 0.00000000e+00, 0.00000000e+00, 0.00000000e+00, 0.00000000e+00, 0.00000000e+00, 0.00000000e+00, 0.00000000e+00, 0.00000000e+00, 0.00000000e+00, 0.00000000e+00, 0.00000000e+00, -3.28576565e+00, -6.49975664e-01, 1.42445995e-01, 2.17545880e+00, 0.00000000e+00, 5.0000000000, 5.0000000000, 0.0113532833
          11, 0.00000000e+00, 0.00000000e+00, 0.00000000e+00, 0.00000000e+00, 0.00000000e+00, 0.00000000e+00, 0.00000000e+00, 0.00000000e+00, 0.00000000e+00, 0.00000000e+00, 0.00000000e+00, 0.00000000e+00, -3.27816903e+00, -7.25882024e-01, 1.24765787e-01, 2.18291086e+00, 0.00000000e+00, 5.0000000000, 5.0000000000, 0.0123868833
          12, 0.00000000e+00, 0.00000000e+00, 0.00000000e+00, 0.00000000e+00, 0.00000000e+00, 0.00000000e+00, 0.00000000e+00, 0.00000000e+00, 0.00000000e+00, 0.00000000e+00, 0.00000000e+00, 0.00000000e+00, -3.27696474e+00, -8.12774872e-01, 1.07088060e-01, 2.18398068e+00, 0.00000000e+00, 5.0000000000, 5.0000000000, 0.0133870167
          13, 0.00000000e+00, 0.00000000e+00, 0.00000000e+00, 0.00000000e+00, 0.00000000e+00, 0.00000000e+00, 0.00000000e+00, 0.00000000e+00, 0.00000000e+00, 0.00000000e+00, 0.00000000e+00, 0.00000000e+00, -3.28338717e+00, -9.11023817e-01, 8.94159960e-02, 2.17740913e+00, 0.00000000e+00, 5.0000000000, 5.0000000000, 0.0143791667
          14, 0.00000000e+00, 0.00000000e+00, 0.00000000e+00, 0.00000000e+00, 0.00000000e+00, 0.00000000e+00, 0.00000000e+00, 0.00000000e+00, 0.00000000e+00, 0.00000000e+00, 0.00000000e+00, 0.00000000e+00, -3.29881601e+00, -1.01528772e+00, 7.17531184e-02, 2.16179166e+00, 0.00000000e+00, 5.0000000000, 5.0000000000, 0.0154015000
          15, 0.00000000e+00, 0.00000000e+00, 0.00000000e+00, 0.00000000e+00, 0.00000000e+00, 0.00000000e+00, 0.00000000e+00, 0.00000000e+00, 0.00000000e+00, 0.00000000e+00, 0.00000000e+00, 0.00000000e+00, -3.32462839e+00, -1.10538167e+00, 5.41033407e-02, 2.13572265e+00, 0.00000000e+00, 5.0000000000, 5.0000000000, 0.0164034667
          16, 0.00000000e+00, 0.00000000e+00, 0.00000000e+00, 0.00000000e+00, 0.00000000e+00, 0.00000000e+00, 0.00000000e+00, 0.00000000e+00, 0.00000000e+00, 0.00000000e+00, 0.00000000e+00, 0.00000000e+00, -3.36214020e+00, -1.14562609e+00, 3.64709777e-02, 2.09784875e+00, 0.00000000e+00, 5.0000000000, 5.0000000000, 0.0173974833
          17, 0.00000000e+00, 0.00000000e+00, 0.00000000e+00, 0.00000000e+00, 0.00000000e+00, 0.00000000e+00, 0.00000000e+00, 0.00000000e+00, 0.00000000e+00, 0.00000000e+00, 0.00000000e+00, 0.00000000e+00, -3.41263201e+00, -1.12495567e+00, 1.88603999e-02, 2.04683486e+00, 0.00000000e+00, 5.0000000000, 5.0000000000, 0.0183758167
          18, 0.00000000e+00, 0.00000000e+00, 0.00000000e+00, 0.00000000e+00, 0.00000000e+00, 0.00000000e+00, 0.00000000e+00, 0.00000000e+00, 0.00000000e+00, 0.00000000e+00, 0.00000000e+00, 0.00000000e+00, -3.47743043e+00, -1.07469386e+00, 1.27587289e-03, 1.98126902e+00, 0.00000000e+00, 5.0000000000, 5.0000000000, 0.0193743000
          19, 0.00000000e+00, 0.00000000e+00, 0.00000000e+00, 0.00000000e+00, 0.00000000e+00, 0.00000000e+00, 0.00000000e+00, 0.00000000e+00, 0.00000000e+00, 0.00000000e+00, 0.00000000e+00, 0.00000000e+00, -3.55796322e+00, -1.02329428e+00, -1.62785852e-02, 1.89958564e+00, 0.00000000e+00, 5.0000000000, 5.0000000000, 0.0203656500
          20, 0.00000000e+00, 0.00000000e+00, 0.00000000e+00, 0.00000000e+00, 0.00000000e+00, 0.00000000e+00, 0.00000000e+00, 0.00000000e+00, 0.00000000e+00, 0.00000000e+00, 0.00000000e+00, 0.00000000e+00, -3.65548833e+00, -9.80921186e-01, -3.37993068e-02, 1.80031075e+00, 0.00000000e+00, 5.0000000000, 5.0000000000, 0.0217003500
          21, 0.00000000e+00, 0.00000000e+00, 0.00000000e+00, 0.00000000e+00, 0.00000000e+00, 0.00000000e+00, 0.00000000e+00, 0.00000000e+00, 0.00000000e+00, 0.00000000e+00, 0.00000000e+00, 0.00000000e+00, -3.76931516e+00, -9.48656049e-01, -5.12830886e-02, 1.68388755e+00, 0.00000000e+00, 5.0000000000, 5.0000000000, 0.0227382333
          22, 0.00000000e+00, 0.00000000e+00, 0.00000000e+00, 0.00000000e+00, 0.00000000e+00, 0.00000000e+00, 0.00000000e+00, 0.00000000e+00, 0.00000000e+00, 0.00000000e+00, 0.00000000e+00, 0.00000000e+00, -3.88941058e+00, -9.24878153e-01, -6.87275299e-02, 1.56067764e+00, 0.00000000e+00, 5.0000000000, 5.0000000000, 0.0239380500
          23, 0.00000000e+00, 0.00000000e+00, 0.00000000e+00, 0.00000000e+00, 0.00000000e+00, 0.00000000e+00, 0.00000000e+00, 0.00000000e+00, 0.00000000e+00, 0.00000000e+00, 0.00000000e+00, 0.00000000e+00, -3.97838067e+00, -9.07595659e-01, -8.61324919e-02, 1.47114201e+00, 0.00000000e+00, 5.0000000000, 5.0000000000, 0.0251935000
          24, 0.00000000e+00, 0.00000000e+00, 0.00000000e+00, 0.00000000e+00, 0.00000000e+00, 0.00000000e+00, 0.00000000e+00, 0.00000000e+00, 0.00000000e+00, 0.00000000e+00, 0.00000000e+00, 0.00000000e+00, -3.98353299e+00, -8.95163078e-01, -1.03502572e-01, 1.47107039e+00, 0.00000000e+00, 5.0000000000, 5.0000000000, 0.0263966667
          25, 0.00000000e+00, 0.00000000e+00, 0.00000000e+00, 0.00000000e+00, 0.00000000e+00, 0.00000000e+00, 0.00000000e+00, 0.00000000e+00, 0.00000000e+00, 0.00000000e+00, 0.00000000e+00, 0.00000000e+00, -3.92068375e+00, -8.86441794e-01, -1.20841246e-01, 1.53904753e+00, 0.00000000e+00, 5.0000000000, 5.0000000000, 0.0276419500
          26, 0.00000000e+00, 0.00000000e+00, 0.00000000e+00, 0.00000000e+00, 0.00000000e+00, 0.00000000e+00, 0.00000000e+00, 0.00000000e+00, 0.00000000e+00, 0.00000000e+00, 0.00000000e+00, 0.00000000e+00, -3.84363567e+00, -8.80742147e-01, -1.38146754e-01, 1.61827952e+00, 0.00000000e+00, 5.0000000000, 5.0000000000, 0.0288432667
          27, 0.00000000e+00, 0.00000000e+00, 0.00000000e+00, 0.00000000e+00, 0.00000000e+00, 0.00000000e+00, 0.00000000e+00, 0.00000000e+00, 0.00000000e+00, 0.00000000e+00, 0.00000000e+00, 0.00000000e+00, -3.77631000e+00, -8.77686101e-01, -1.55419085e-01, 1.68603919e+00, 0.00000000e+00, 5.0000000000, 5.0000000000, 0.0300841500
          28, 0.00000000e+00, 0.00000000e+00, 0.00000000e+00, 0.00000000e+00, 0.00000000e+00, 0.00000000e+00, 0.00000000e+00, 0.00000000e+00, 0.00000000e+00, 0.00000000e+00, 0.00000000e+00, 0.00000000e+00, -3.72282761e+00, -8.77072971e-01, -1.72660754e-01, 1.73917834e+00, 0.00000000e+00, 5.0000000000, 5.0000000000, 0.0312919167
          29, 0.00000000e+00, 0.00000000e+00, 0.00000000e+00, 0.00000000e+00, 0.00000000e+00, 0.00000000e+00, 0.00000000e+00, 0.00000000e+00, 0.00000000e+00, 0.00000000e+00, 0.00000000e+00, 0.00000000e+00, -3.68199395e+00, -8.78776451e-01, -1.89875564e-01, 1.77931745e+00, 0.00000000e+00, 5.0000000000, 5.0000000000, 0.0325154667
          30, 0.00000000e+00, 0.00000000e+00, 0.00000000e+00, 0.00000000e+00, 0.00000000e+00, 0.00000000e+00, 0.00000000e+00, 0.00000000e+00, 0.00000000e+00, 0.00000000e+00, 0.00000000e+00, 0.00000000e+00, -3.65184338e+00, -8.82681324e-01, -2.07067929e-01, 1.80860537e+00, 0.00000000e+00, 5.0000000000, 5.0000000000, 0.0337476167
          31, 0.00000000e+00, 0.00000000e+00, 0.00000000e+00, 0.00000000e+00, 0.00000000e+00, 0.00000000e+00, 0.00000000e+00, 0.00000000e+00, 0.00000000e+00, 0.00000000e+00, 0.00000000e+00, 0.00000000e+00, -3.63064703e+00, -8.88654448e-01, -2.24242473e-01, 1.82886018e+00, 0.00000000e+00, 5.0000000000, 5.0000000000, 0.0349535000
          32, 0.00000000e+00, 0.00000000e+00, 0.00000000e+00, 0.00000000e+00, 0.00000000e+00, 0.00000000e+00, 0.00000000e+00, 0.00000000e+00, 0.00000000e+00, 0.00000000e+00, 0.00000000e+00, 0.00000000e+00, -3.61704254e+00, -8.96538935e-01, -2.41403743e-01, 1.84149547e+00, 0.00000000e+00, 5.0000000000, 5.0000000000, 0.0362495833
          33, 0.00000000e+00, 0.00000000e+00, 0.00000000e+00, 0.00000000e+00, 0.00000000e+00, 0.00000000e+00, 0.00000000e+00, 0.00000000e+00, 0.00000000e+00, 0.00000000e+00, 0.00000000e+00, 0.00000000e+00, -3.60997740e+00, -9.06161175e-01, -2.58555950e-01, 1.84759771e+00, 0.00000000e+00, 5.0000000000, 5.0000000000, 0.0375093000
          34, 0.00000000e+00, 0.00000000e+00, 0.00000000e+00, 0.00000000e+00, 0.00000000e+00, 0.00000000e+00, 0.00000000e+00, 0.00000000e+00, 0.00000000e+00, 0.00000000e+00, 0.00000000e+00, 0.00000000e+00, -3.60862831e+00, -9.17343025e-01, -2.75702771e-01, 1.84801464e+00, 0.00000000e+00, 5.0000000000, 5.0000000000, 0.0387495000
          35, 0.00000000e+00, 0.00000000e+00, 0.00000000e+00, 0.00000000e+00, 0.00000000e+00, 0.00000000e+00, 0.00000000e+00, 0.00000000e+00, 0.00000000e+00, 0.00000000e+00, 0.00000000e+00, 0.00000000e+00, -3.61232959e+00, -9.29914107e-01, -2.92847210e-01, 1.84342984e+00, 0.00000000e+00, 5.0000000000, 5.0000000000, 0.0399887000
          36, 0.00000000e+00, 0.00000000e+00, 0.00000000e+00, 0.00000000e+00, 0.00000000e+00, 0.00000000e+00, 0.00000000e+00, 0.00000000e+00, 0.00000000e+00, 0.00000000e+00, 0.00000000e+00, 0.00000000e+00, -3.62051466e+00, -9.43721185e-01, -3.09991537e-01, 1.83442277e+00, 0.00000000e+00, 5.0000000000, 5.0000000000, 0.0412242833
          37, 0.00000000e+00, 0.00000000e+00, 0.00000000e+00, 0.00000000e+00, 0.00000000e+00, 0.00000000e+00, 0.00000000e+00, 0.00000000e+00, 0.00000000e+00, 0.00000000e+00, 0.00000000e+00, 0.00000000e+00, -3.63266915e+00, -9.58633171e-01, -3.27137286e-01, 1.82151676e+00, 0.00000000e+00, 5.0000000000, 5.0000000000, 0.0424296000
          38, 0.00000000e+00, 0.00000000e+00, 0.00000000e+00, 0.00000000e+00, 0.00000000e+00, 0.00000000e+00, 0.00000000e+00, 0.00000000e+00, 0.00000000e+00, 0.00000000e+00, 0.00000000e+00, 0.00000000e+00, -3.64829418e+00, -9.74541708e-01, -3.44285323e-01, 1.80521675e+00, 0.00000000e+00, 5.0000000000, 5.0000000000, 0.0437311167
          39, 0.00000000e+00, 0.00000000e+00, 0.00000000e+00, 0.00000000e+00, 0.00000000e+00, 0.00000000e+00, 0.00000000e+00, 0.00000000e+00, 0.00000000e+00, 0.00000000e+00, 0.00000000e+00, 0.00000000e+00, -3.66687940e+00, -9.91358260e-01, -3.61435958e-01, 1.78603750e+00, 0.00000000e+00, 5.0000000000, 5.0000000000, 0.0450331500
          40, 0.00000000e+00, 0.00000000e+00, 0.00000000e+00, 0.00000000e+00, 0.00000000e+00, 0.00000000e+00, 0.00000000e+00, 0.00000000e+00, 0.00000000e+00, 0.00000000e+00, 0.00000000e+00, 0.00000000e+00, -3.68788525e+00, -1.00900921e+00, -3.78589081e-01, 1.76452245e+00, 0.00000000e+00, 5.0000000000, 5.0000000000, 0.0463074167
          41, 0.00000000e+00, 0.00000000e+00, 0.00000000e+00, 0.00000000e+00, 0.00000000e+00, 0.00000000e+00, 0.00000000e+00, 0.00000000e+00, 0.00000000e+00, 0.00000000e+00, 0.00000000e+00, 0.00000000e+00, -3.71073441e+00, -1.02743060e+00, -3.95744310e-01, 1.74125324e+00, 0.00000000e+00, 5.0000000000, 5.0000000000, 0.0478702667
          42, 0.00000000e+00, 0.00000000e+00, 0.00000000e+00, 0.00000000e+00, 0.00000000e+00, 0.00000000e+00, 0.00000000e+00, 0.00000000e+00, 0.00000000e+00, 0.00000000e+00, 0.00000000e+00, 0.00000000e+00, -3.73481257e+00, -1.04656370e+00, -4.12901118e-01, 1.71684986e+00, 0.00000000e+00, 5.0000000000, 5.0000000000, 0.0493572333
          43, 0.00000000e+00, 0.00000000e+00, 0.00000000e+00, 0.00000000e+00, 0.00000000e+00, 0.00000000e+00, 0.00000000e+00, 0.00000000e+00, 0.00000000e+00, 0.00000000e+00, 0.00000000e+00, 0.00000000e+00, -3.75947837e+00, -1.06635219e+00, -4.30058935e-01, 1.69196113e+00, 0.00000000e+00, 5.0000000000, 5.0000000000, 0.0507757000
          44, 0.00000000e+00, 0.00000000e+00, 0.00000000e+00, 0.00000000e+00, 0.00000000e+00, 0.00000000e+00, 0.00000000e+00, 0.00000000e+00, 0.00000000e+00, 0.00000000e+00, 0.00000000e+00, 0.00000000e+00, -3.78408295e+00, -1.08674098e+00, -4.47217216e-01, 1.66724514e+00, 0.00000000e+00, 5.0000000000, 5.0000000000, 0.0521730500
          45, 0.00000000e+00, 0.00000000e+00, 0.00000000e+00, 0.00000000e+00, 0.00000000e+00, 0.00000000e+00, 0.00000000e+00, 0.00000000e+00, 0.00000000e+00, 0.00000000e+00, 0.00000000e+00, 0.00000000e+00, -3.80799892e+00, -1.10767641e+00, -4.64375480e-01, 1.64333933e+00, 0.00000000e+00, 5.0000000000, 5.0000000000, 0.0535586333
          46, 0.00000000e+00, 0.00000000e+00, 0.00000000e+00, 0.00000000e+00, 0.00000000e+00, 0.00000000e+00, 0.00000000e+00, 0.00000000e+00, 0.00000000e+00, 0.00000000e+00, 0.00000000e+00, 0.00000000e+00, -3.83065802e+00, -1.12910713e+00, -4.81533326e-01, 1.62082093e+00, 0.00000000e+00, 5.0000000000, 5.0000000000, 0.0547265833
          47, 0.00000000e+00, 0.00000000e+00, 0.00000000e+00, 0.00000000e+00, 0.00000000e+00, 0.00000000e+00, 0.00000000e+00, 0.00000000e+00, 0.00000000e+00, 0.00000000e+00, 0.00000000e+00, 0.00000000e+00, -3.85159390e+00, -1.15098510e+00, -4.98690437e-01, 1.60016116e+00, 0.00000000e+00, 5.0000000000, 5.0000000000, 0.0561102333
          48, 0.00000000e+00, 0.00000000e+00, 0.00000000e+00, 0.00000000e+00, 0.00000000e+00, 0.00000000e+00, 0.00000000e+00, 0.00000000e+00, 0.00000000e+00, 0.00000000e+00, 0.00000000e+00, 0.00000000e+00, -3.87048345e+00, -1.17326641e+00, -5.15846585e-01, 1.58168074e+00, 0.00000000e+00, 5.0000000000, 5.0000000000, 0.0578048833
          49, 0.00000000e+00, 0.00000000e+00, 0.00000000e+00, 0.00000000e+00, 0.00000000e+00, 0.00000000e+00, 0.00000000e+00, 0.00000000e+00, 0.00000000e+00, 0.00000000e+00, 0.00000000e+00, 0.00000000e+00, -3.88717711e+00, -1.19591168e+00, -5.33001641e-01, 1.56551721e+00, 0.00000000e+00, 5.0000000000, 5.0000000000, 0.0591022167
          50, 0.00000000e+00, 0.00000000e+00, 0.00000000e+00, 0.00000000e+00, 0.00000000e+00, 0.00000000e+00, 0.00000000e+00, 0.00000000e+00, 0.00000000e+00, 0.00000000e+00, 0.00000000e+00, 0.00000000e+00, -3.90170845e+00, -1.21888655e+00, -5.50155592e-01, 1.55161513e+00, 0.00000000e+00, 5.0000000000, 5.0000000000, 0.0603774667
          51, 0.00000000e+00, 0.00000000e+00, 0.00000000e+00, 0.00000000e+00, 0.00000000e+00, 0.00000000e+00, 0.00000000e+00, 0.00000000e+00, 0.00000000e+00, 0.00000000e+00, 0.00000000e+00, 0.00000000e+00, -3.91427802e+00, -1.24216255e+00, -5.67308563e-01, 1.53974441e+00, 0.00000000e+00, 5.0000000000, 5.0000000000, 0.0616337333
          52, 0.00000000e+00, 0.00000000e+00, 0.00000000e+00, 0.00000000e+00, 0.00000000e+00, 0.00000000e+00, 0.00000000e+00, 0.00000000e+00, 0.00000000e+00, 0.00000000e+00, 0.00000000e+00, 0.00000000e+00, -3.92521387e+00, -1.26571893e+00, -5.84460846e-01, 1.52954391e+00, 0.00000000e+00, 5.0000000000, 5.0000000000, 0.0629288667
          53, 0.00000000e+00, 0.00000000e+00, 0.00000000e+00, 0.00000000e+00, 0.00000000e+00, 0.00000000e+00, 0.00000000e+00, 0.00000000e+00, 0.00000000e+00, 0.00000000e+00, 0.00000000e+00, 0.00000000e+00, -3.93491829e+00, -1.28954575e+00, -6.01612915e-01, 1.52057921e+00, 0.00000000e+00, 5.0000000000, 5.0000000000, 0.0641818667
          54, 0.00000000e+00, 0.00000000e+00, 0.00000000e+00, 0.00000000e+00, 0.00000000e+00, 0.00000000e+00, 0.00000000e+00, 0.00000000e+00, 0.00000000e+00, 0.00000000e+00, 0.00000000e+00, 0.00000000e+00, -3.94381304e+00, -1.31364807e+00, -6.18765444e-01, 1.51240094e+00, 0.00000000e+00, 5.0000000000, 5.0000000000, 0.0654401000
          55, 0.00000000e+00, 0.00000000e+00, 0.00000000e+00, 0.00000000e+00, 0.00000000e+00, 0.00000000e+00, 0.00000000e+00, 0.00000000e+00, 0.00000000e+00, 0.00000000e+00, 0.00000000e+00, 0.00000000e+00, -3.95229381e+00, -1.33805078e+00, -6.35919310e-01, 1.50459224e+00, 0.00000000e+00, 5.0000000000, 5.0000000000, 0.0667103833
          56, 0.00000000e+00, 0.00000000e+00, 0.00000000e+00, 0.00000000e+00, 0.00000000e+00, 0.00000000e+00, 0.00000000e+00, 0.00000000e+00, 0.00000000e+00, 0.00000000e+00, 0.00000000e+00, 0.00000000e+00, -3.96069956e+00, -1.36280316e+00, -6.53075587e-01, 1.49679970e+00, 0.00000000e+00, 5.0000000000, 5.0000000000, 0.0679344667
          57, 0.00000000e+00, 0.00000000e+00, 0.00000000e+00, 0.00000000e+00, 0.00000000e+00, 0.00000000e+00, 0.00000000e+00, 0.00000000e+00, 0.00000000e+00, 0.00000000e+00, 0.00000000e+00, 0.00000000e+00, -3.96929754e+00, -1.38798230e+00, -6.70235537e-01, 1.48874746e+00, 0.00000000e+00, 5.0000000000, 5.0000000000, 0.0691787500
          58, 0.00000000e+00, 0.00000000e+00, 0.00000000e+00, 0.00000000e+00, 0.00000000e+00, 0.00000000e+00, 0.00000000e+00, 0.00000000e+00, 0.00000000e+00, 0.00000000e+00, 0.00000000e+00, 0.00000000e+00, -3.97828165e+00, -1.41369406e+00, -6.87400588e-01, 1.48023754e+00, 0.00000000e+00, 5.0000000000, 5.0000000000, 0.0704517500
          59, 0.00000000e+00, 0.00000000e+00, 0.00000000e+00, 0.00000000e+00, 0.00000000e+00, 0.00000000e+00, 0.00000000e+00, 0.00000000e+00, 0.00000000e+00, 0.00000000e+00, 0.00000000e+00, 0.00000000e+00, -3.98778017e+00, -1.44007091e+00, -7.04572313e-01, 1.47114078e+00, 0.00000000e+00, 5.0000000000, 5.0000000000, 0.0716724500
          60, 0.00000000e+00, 0.00000000e+00, 0.00000000e+00, 0.00000000e+00, 0.00000000e+00, 0.00000000e+00, 0.00000000e+00, 0.00000000e+00, 0.00000000e+00, 0.00000000e+00, 0.00000000e+00, 0.00000000e+00, -3.99786874e+00, -1.46726604e+00, -7.21752401e-01, 1.46138265e+00, 0.00000000e+00, 5.0000000000, 5.0000000000, 0.0728606500
          61, 0.00000000e+00, 0.00000000e+00, 0.00000000e+00, 0.00000000e+00, 0.00000000e+00, 0.00000000e+00, 0.00000000e+00, 0.00000000e+00, 0.00000000e+00, 0.00000000e+00, 0.00000000e+00, 0.00000000e+00, -4.00858518e+00, -1.49544370e+00, -7.38942628e-01, 1.45092771e+00, 0.00000000e+00, 5.0000000000, 5.0000000000, 0.0740126500
          62, 0.00000000e+00, 0.00000000e+00, 0.00000000e+00, 0.00000000e+00, 0.00000000e+00, 0.00000000e+00, 0.00000000e+00, 0.00000000e+00, 0.00000000e+00, 0.00000000e+00, 0.00000000e+00, 0.00000000e+00, -4.01994340e+00, -1.52476631e+00, -7.56144824e-01, 1.43976529e+00, 0.00000000e+00, 5.0000000000, 5.0000000000, 0.0751751500
          63, 0.00000000e+00, 0.00000000e+00, 0.00000000e+00, 0.00000000e+00, 0.00000000e+00, 0.00000000e+00, 0.00000000e+00, 0.00000000e+00, 0.00000000e+00, 0.00000000e+00, 0.00000000e+00, 0.00000000e+00, -4.03194437e+00, -1.55537884e+00, -7.73360839e-01, 1.42789827e+00, 0.00000000e+00, 5.0000000000, 5.0000000000, 0.0763547167
          64, 0.00000000e+00, 0.00000000e+00, 0.00000000e+00, 0.00000000e+00, 0.00000000e+00, 0.00000000e+00, 0.00000000e+00, 0.00000000e+00, 0.00000000e+00, 0.00000000e+00, 0.00000000e+00, 0.00000000e+00, -4.04458291e+00, -1.58739166e+00, -7.90592505e-01, 1.41533624e+00, 0.00000000e+00, 5.0000000000, 5.0000000000, 0.0775290833
          65, 0.00000000e+00, 0.00000000e+00, 0.00000000e+00, 0.00000000e+00, 0.00000000e+00, 0.00000000e+00, 0.00000000e+00, 0.00000000e+00, 0.00000000e+00, 0.00000000e+00, 0.00000000e+00, 0.00000000e+00, -4.05784994e+00, -1.62086285e+00, -8.07841600e-01, 1.40209331e+00, 0.00000000e+00, 5.0000000000, 5.0000000000, 0.0787703000
          66, 0.00000000e+00, 0.00000000e+00, 0.00000000e+00, 0.00000000e+00, 0.00000000e+00, 0.00000000e+00, 0.00000000e+00, 0.00000000e+00, 0.00000000e+00, 0.00000000e+00, 0.00000000e+00, 0.00000000e+00, -4.07173020e+00, -1.65578177e+00, -8.25109813e-01, 1.38819032e+00, 0.00000000e+00, 5.0000000000, 5.0000000000, 0.0800646167
          67, 0.00000000e+00, 0.00000000e+00, 0.00000000e+00, 0.00000000e+00, 0.00000000e+00, 0.00000000e+00, 0.00000000e+00, 0.00000000e+00, 0.00000000e+00, 0.00000000e+00, 0.00000000e+00, 0.00000000e+00, -4.08619649e+00, -1.69205577e+00, -8.42398712e-01, 1.37366061e+00, 0.00000000e+00, 5.0000000000, 5.0000000000, 0.0812892833
          68, 0.00000000e+00, 0.00000000e+00, 0.00000000e+00, 0.00000000e+00, 0.00000000e+00, 0.00000000e+00, 0.00000000e+00, 0.00000000e+00, 0.00000000e+00, 0.00000000e+00, 0.00000000e+00, 0.00000000e+00, -4.10120130e+00, -1.72950348e+00, -8.59709725e-01, 1.35855826e+00, 0.00000000e+00, 5.0000000000, 5.0000000000, 0.0825153000
          69, 0.00000000e+00, 0.00000000e+00, 0.00000000e+00, 0.00000000e+00, 0.00000000e+00, 0.00000000e+00, 0.00000000e+00, 0.00000000e+00, 0.00000000e+00, 0.00000000e+00, 0.00000000e+00, 0.00000000e+00, -4.11666735e+00, -1.76785845e+00, -8.77044122e-01, 1.34296737e+00, 0.00000000e+00, 5.0000000000, 5.0000000000, 0.0837642000
          70, 0.00000000e+00, 0.00000000e+00, 0.00000000e+00, 0.00000000e+00, 0.00000000e+00, 0.00000000e+00, 0.00000000e+00, 0.00000000e+00, 0.00000000e+00, 0.00000000e+00, 0.00000000e+00, 0.00000000e+00, -4.13247773e+00, -1.80678725e+00, -8.94403027e-01, 1.32701178e+00, 0.00000000e+00, 5.0000000000, 5.0000000000, 0.0850259000
          71, 0.00000000e+00, 0.00000000e+00, 0.00000000e+00, 0.00000000e+00, 0.00000000e+00, 0.00000000e+00, 0.00000000e+00, 0.00000000e+00, 0.00000000e+00, 0.00000000e+00, 0.00000000e+00, 0.00000000e+00, -4.14846606e+00, -1.84592324e+00, -9.11787439e-01, 1.31086476e+00, 0.00000000e+00, 5.0000000000, 5.0000000000, 0.0862871500
          72, 0.00000000e+00, 0.00000000e+00, 0.00000000e+00, 0.00000000e+00, 0.00000000e+00, 0.00000000e+00, 0.00000000e+00, 0.00000000e+00, 0.00000000e+00, 0.00000000e+00, 0.00000000e+00, 0.00000000e+00, -4.16440604e+00, -1.88491015e+00, -9.29198281e-01, 1.29475925e+00, 0.00000000e+00, 5.0000000000, 5.0000000000, 0.0875734500
          73, 0.00000000e+00, 0.00000000e+00, 0.00000000e+00, 0.00000000e+00, 0.00000000e+00, 0.00000000e+00, 0.00000000e+00, 0.00000000e+00, 0.00000000e+00, 0.00000000e+00, 0.00000000e+00, 0.00000000e+00, -4.17999920e+00, -1.92343626e+00, -9.46636483e-01, 1.27900026e+00, 0.00000000e+00, 5.0000000000, 5.0000000000, 0.0888793833
          74, 0.00000000e+00, 0.00000000e+00, 0.00000000e+00, 0.00000000e+00, 0.00000000e+00, 0.00000000e+00, 0.00000000e+00, 0.00000000e+00, 0.00000000e+00, 0.00000000e+00, 0.00000000e+00, 0.00000000e+00, -4.19485864e+00, -1.96122130e+00, -9.64103076e-01, 1.26398126e+00, 0.00000000e+00, 5.0000000000, 5.0000000000, 0.0901757167
          75, 0.00000000e+00, 0.00000000e+00, 0.00000000e+00, 0.00000000e+00, 0.00000000e+00, 0.00000000e+00, 0.00000000e+00, 0.00000000e+00, 0.00000000e+00, 0.00000000e+00, 0.00000000e+00, 0.00000000e+00, -4.20848785e+00, -1.99789671e+00, -9.81599329e-01, 1.25020603e+00, 0.00000000e+00, 5.0000000000, 5.0000000000, 0.0914134667
          76, 0.00000000e+00, 0.00000000e+00, 0.00000000e+00, 0.00000000e+00, 0.00000000e+00, 0.00000000e+00, 0.00000000e+00, 0.00000000e+00, 0.00000000e+00, 0.00000000e+00, 0.00000000e+00, 0.00000000e+00, -4.22025584e+00, -2.03270084e+00, -9.99126907e-01, 1.23831430e+00, 0.00000000e+00, 5.0000000000, 5.0000000000, 0.0926409333
          77, 0.00000000e+00, 0.00000000e+00, 0.00000000e+00, 0.00000000e+00, 0.00000000e+00, 0.00000000e+00, 0.00000000e+00, 0.00000000e+00, 0.00000000e+00, 0.00000000e+00, 0.00000000e+00, 0.00000000e+00, -4.22937602e+00, -2.06391611e+00, -1.01668804e+00, 1.22910380e+00, 0.00000000e+00, 5.0000000000, 5.0000000000, 0.0938827500
          78, 0.00000000e+00, 0.00000000e+00, 0.00000000e+00, 0.00000000e+00, 0.00000000e+00, 0.00000000e+00, 0.00000000e+00, 0.00000000e+00, 0.00000000e+00, 0.00000000e+00, 0.00000000e+00, 0.00000000e+00, -4.23490575e+00, -2.08809985e+00, -1.03428573e+00, 1.22353108e+00, 0.00000000e+00, 5.0000000000, 5.0000000000, 0.0951163667
          79, 0.00000000e+00, 0.00000000e+00, 0.00000000e+00, 0.00000000e+00, 0.00000000e+00, 0.00000000e+00, 0.00000000e+00, 0.00000000e+00, 0.00000000e+00, 0.00000000e+00, 0.00000000e+00, 0.00000000e+00, -4.23579257e+00, -2.09963091e+00, -1.05192396e+00, 1.22266415e+00, 0.00000000e+00, 5.0000000000, 5.0000000000, 0.0963490167
          80, 0.00000000e+00, 0.00000000e+00, 0.00000000e+00, 0.00000000e+00, 0.00000000e+00, 0.00000000e+00, 0.00000000e+00, 0.00000000e+00, 0.00000000e+00, 0.00000000e+00, 0.00000000e+00, 0.00000000e+00, -4.23099266e+00, -2.09188658e+00, -1.06960793e+00, 1.22756039e+00, 0.00000000e+00, 5.0000000000, 5.0000000000, 0.0976131667
          81, 0.00000000e+00, 0.00000000e+00, 0.00000000e+00, 0.00000000e+00, 0.00000000e+00, 0.00000000e+00, 0.00000000e+00, 0.00000000e+00, 0.00000000e+00, 0.00000000e+00, 0.00000000e+00, 0.00000000e+00, -4.21966112e+00, -2.06085958e+00, -1.08734428e+00, 1.23907098e+00, 0.00000000e+00, 5.0000000000, 5.0000000000, 0.0988031333
          82, 0.00000000e+00, 0.00000000e+00, 0.00000000e+00, 0.00000000e+00, 0.00000000e+00, 0.00000000e+00, 0.00000000e+00, 0.00000000e+00, 0.00000000e+00, 0.00000000e+00, 0.00000000e+00, 0.00000000e+00, -4.20136902e+00, -2.00844933e+00, -1.10514137e+00, 1.25761892e+00, 0.00000000e+00, 5.0000000000, 5.0000000000, 0.1000433833
          83, 0.00000000e+00, 0.00000000e+00, 0.00000000e+00, 0.00000000e+00, 0.00000000e+00, 0.00000000e+00, 0.00000000e+00, 0.00000000e+00, 0.00000000e+00, 0.00000000e+00, 0.00000000e+00, 0.00000000e+00, -4.17625824e+00, -1.94130869e+00, -1.12300956e+00, 1.28304319e+00, 0.00000000e+00, 5.0000000000, 5.0000000000, 0.1012385667
          84, 0.00000000e+00, 0.00000000e+00, 0.00000000e+00, 0.00000000e+00, 0.00000000e+00, 0.00000000e+00, 0.00000000e+00, 0.00000000e+00, 0.00000000e+00, 0.00000000e+00, 0.00000000e+00, 0.00000000e+00, -4.14505080e+00, -1.86676983e+00, -1.14096146e+00, 1.31459418e+00, 0.00000000e+00, 5.0000000000, 5.0000000000, 0.1024841667
          85, 0.00000000e+00, 0.00000000e+00, 0.00000000e+00, 0.00000000e+00, 0.00000000e+00, 0.00000000e+00, 0.00000000e+00, 0.00000000e+00, 0.00000000e+00, 0.00000000e+00, 0.00000000e+00, 0.00000000e+00, -4.10890344e+00, -1.79023298e+00, -1.15901221e+00, 1.35108685e+00, 0.00000000e+00, 5.0000000000, 5.0000000000, 0.1037015500
          86, 0.00000000e+00, 0.00000000e+00, 0.00000000e+00, 0.00000000e+00, 0.00000000e+00, 0.00000000e+00, 0.00000000e+00, 0.00000000e+00, 0.00000000e+00, 0.00000000e+00, 0.00000000e+00, 0.00000000e+00, -4.06918008e+00, -1.71487713e+00, -1.17717981e+00, 1.39113508e+00, 0.00000000e+00, 5.0000000000, 5.0000000000, 0.1049422333
          87, 0.00000000e+00, 0.00000000e+00, 0.00000000e+00, 0.00000000e+00, 0.00000000e+00, 0.00000000e+00, 0.00000000e+00, 0.00000000e+00, 0.00000000e+00, 0.00000000e+00, 0.00000000e+00, 0.00000000e+00, -4.02723747e+00, -1.64231446e+00, -1.19548534e+00, 1.43336876e+00, 0.00000000e+00, 5.0000000000, 5.0000000000, 0.1060822167
          88, 0.00000000e+00, 0.00000000e+00, 0.00000000e+00, 0.00000000e+00, 0.00000000e+00, 0.00000000e+00, 0.00000000e+00, 0.00000000e+00, 0.00000000e+00, 0.00000000e+00, 0.00000000e+00, 0.00000000e+00, -3.98428336e+00, -1.57324786e+00, -1.21395325e+00, 1.47657495e+00, 0.00000000e+00, 5.0000000000, 5.0000000000, 0.1072398333
          89, 0.00000000e+00, 0.00000000e+00, 0.00000000e+00, 0.00000000e+00, 0.00000000e+00, 0.00000000e+00, 0.00000000e+00, 0.00000000e+00, 0.00000000e+00, 0.00000000e+00, 0.00000000e+00, 0.00000000e+00, -3.94131475e+00, -1.50790158e+00, -1.23261164e+00, 1.51975718e+00, 0.00000000e+00, 5.0000000000, 5.0000000000, 0.1084627333