TITLE = "SU2 Simulation"
VARIABLES = "Iteration","CL","CD","CSF","CMx","CMy","CMz","CFx","CFy","CFz","CL/CD","AoA","Custom_ObjFunc","Res_Flow[0]","Res_Flow[1]","Res_Flow[2]","Res_Flow[3]","Res_Flow[4]","Linear_Solver_Iterations","CFL_Number","Time(min)"
ZONE T= "Convergence history"
           0, 0.00000000e+00, 0.00000000e+00, 0.00000000e+00, 0.00000000e+00, 0.00000000e+00, 0.00000000e+00, 0.00000000e+00, 0.00000000e+00, 0.00000000e+00, 0.00000000e+00, 0.00000000e+00, 0.00000000e+00, -3.70734323e+00, -1.09757952e+00, -1.29867072e+01, 1.81212178e+00, 0.00000000e+00, 5.0000000000, 5.0000000000, 0.0022023497
           1, 0.00000000e+00, 0.00000000e+00, 0.00000000e+00, 0.00000000e+00, 0.00000000e+00, 0.00000000e+00, 0.00000000e+00, 0.00000000e+00, 0.00000000e+00, 0.00000000e+00, 0.00000000e+00, 0.00000000e+00, -3.99302781e+00, -1.36998898e+00, -3.48553279e+00, 1.54589397e+00, 0.00000000e+00, 5.0000000000, 5.0000000000, 0.0039481296
           2, 0.00000000e+00, 0.00000000e+00, 0.00000000e+00, 0.00000000e+00, 0.00000000e+00, 0.00000000e+00, 0.00000000e+00, 0.00000000e+00, 0.00000000e+00, 0.00000000e+00, 0.00000000e+00, 0.00000000e+00, -4.10267505e+00, -1.50806153e+00, -3.42442052e+00, 1.40289791e+00, 0.00000000e+00, 5.0000000000, 5.0000000000, 0.0056508433
           3, 0.00000000e+00, 0.00000000e+00, 0.00000000e+00, 0.00000000e+00, 0.00000000e+00, 0.00000000e+00, 0.00000000e+00, 0.00000000e+00, 0.00000000e+00, 0.00000000e+00, 0.00000000e+00, 0.00000000e+00, -4.08312202e+00, -1.52613384e+00, -3.46767421e+00, 1.38017116e+00, 0.00000000e+00, 5.0000000000, 5.0000000000, 0.0073184941
           4, 0.00000000e+00, 0.00000000e+00, 0.00000000e+00, 0.00000000e+00, 0.00000000e+00, 0.00000000e+00, 0.00000000e+00, 0.00000000e+00, 0.00000000e+00, 0.00000000e+00, 0.00000000e+00, 0.00000000e+00, -4.07762789e+00, -1.54127384e+00, -3.41782173e+00, 1.36612927e+00, 0.00000000e+00, 5.0000000000, 5.0000000000, 0.0089538430
           5, 0.00000000e+00, 0.00000000e+00, 0.00000000e+00, 0.00000000e+00, 0.00000000e+00, 0.00000000e+00, 0.00000000e+00, 0.00000000e+00, 0.00000000e+00, 0.00000000e+00, 0.00000000e+00, 0.00000000e+00, -4.09510641e+00, -1.56954271e+00, -3.34209518e+00, 1.33820210e+00, 0.00000000e+00, 5.0000000000, 5.0000000000, 0.0105992035
           6, 0.00000000e+00, 0.00000000e+00, 0.00000000e+00, 0.00000000e+00, 0.00000000e+00, 0.00000000e+00, 0.00000000e+00, 0.00000000e+00, 0.00000000e+00, 0.00000000e+00, 0.00000000e+00, 0.00000000e+00, -4.12167869e+00, -1.60013037e+00, -3.30787477e+00, 1.30564659e+00, 0.00000000e+00, 5.0000000000, 5.0000000000, 0.0123491770
           7, 0.00000000e+00, 0.00000000e+00, 0.00000000e+00, 0.00000000e+00, 0.00000000e+00, 0.00000000e+00, 0.00000000e+00, 0.00000000e+00, 0.00000000e+00, 0.00000000e+00, 0.00000000e+00, 0.00000000e+00, -4.14833078e+00, -1.62681209e+00, -3.30807057e+00, 1.27653654e+00, 0.00000000e+00, 5.0000000000, 5.0000000000, 0.0141214806
           8, 0.00000000e+00, 0.00000000e+00, 0.00000000e+00, 0.00000000e+00, 0.00000000e+00, 0.00000000e+00, 0.00000000e+00, 0.00000000e+00, 0.00000000e+00, 0.00000000e+00, 0.00000000e+00, 0.00000000e+00, -4.17194890e+00, -1.64898760e+00, -3.32518911e+00, 1.25312827e+00, 0.00000000e+00, 5.0000000000, 5.0000000000, 0.0158827720
           9, 0.00000000e+00, 0.00000000e+00, 0.00000000e+00, 0.00000000e+00, 0.00000000e+00, 0.00000000e+00, 0.00000000e+00, 0.00000000e+00, 0.00000000e+00, 0.00000000e+00, 0.00000000e+00, 0.00000000e+00, -4.19234070e+00, -1.66755828e+00, -3.34740369e+00, 1.23450436e+00, 0.00000000e+00, 5.0000000000, 5.0000000000, 0.0175184840
          10, 0.00000000e+00, 0.00000000e+00, 0.00000000e+00, 0.00000000e+00, 0.00000000e+00, 0.00000000e+00, 0.00000000e+00, 0.00000000e+00, 0.00000000e+00, 0.00000000e+00, 0.00000000e+00, 0.00000000e+00, -4.20996360e+00, -1.68316771e+00, -3.36965672e+00, 1.21929756e+00, 0.00000000e+00, 5.0000000000, 5.0000000000, 0.0191532583
          11, 0.00000000e+00, 0.00000000e+00, 0.00000000e+00, 0.00000000e+00, 0.00000000e+00, 0.00000000e+00, 0.00000000e+00, 0.00000000e+00, 0.00000000e+00, 0.00000000e+00, 0.00000000e+00, 0.00000000e+00, -4.22526380e+00, -1.69638065e+00, -3.39067802e+00, 1.20649588e+00, 0.00000000e+00, 5.0000000000, 5.0000000000, 0.0207900236
          12, 0.00000000e+00, 0.00000000e+00, 0.00000000e+00, 0.00000000e+00, 0.00000000e+00, 0.00000000e+00, 0.00000000e+00, 0.00000000e+00, 0.00000000e+00, 0.00000000e+00, 0.00000000e+00, 0.00000000e+00, -4.23871331e+00, -1.70788842e+00, -3.41027963e+00, 1.19532723e+00, 0.00000000e+00, 5.0000000000, 5.0000000000, 0.0224200167
          13, 0.00000000e+00, 0.00000000e+00, 0.00000000e+00, 0.00000000e+00, 0.00000000e+00, 0.00000000e+00, 0.00000000e+00, 0.00000000e+00, 0.00000000e+00, 0.00000000e+00, 0.00000000e+00, 0.00000000e+00, -4.25081828e+00, -1.71834107e+00, -3.42839250e+00, 1.18516605e+00, 0.00000000e+00, 5.0000000000, 5.0000000000, 0.0240505877
          14, 0.00000000e+00, 0.00000000e+00, 0.00000000e+00, 0.00000000e+00, 0.00000000e+00, 0.00000000e+00, 0.00000000e+00, 0.00000000e+00, 0.00000000e+00, 0.00000000e+00, 0.00000000e+00, 0.00000000e+00, -4.26201964e+00, -1.72817358e+00, -3.44500558e+00, 1.17557413e+00, 0.00000000e+00, 5.0000000000, 5.0000000000, 0.0256867861
          15, 0.00000000e+00, 0.00000000e+00, 0.00000000e+00, 0.00000000e+00, 0.00000000e+00, 0.00000000e+00, 0.00000000e+00, 0.00000000e+00, 0.00000000e+00, 0.00000000e+00, 0.00000000e+00, 0.00000000e+00, -4.27262259e+00, -1.73760333e+00, -3.46020038e+00, 1.16631952e+00, 0.00000000e+00, 5.0000000000, 5.0000000000, 0.0273184741
          16, 0.00000000e+00, 0.00000000e+00, 0.00000000e+00, 0.00000000e+00, 0.00000000e+00, 0.00000000e+00, 0.00000000e+00, 0.00000000e+00, 0.00000000e+00, 0.00000000e+00, 0.00000000e+00, 0.00000000e+00, -4.28280442e+00, -1.74671891e+00, -3.47412417e+00, 1.15732196e+00, 0.00000000e+00, 5.0000000000, 5.0000000000, 0.0289503205
          17, 0.00000000e+00, 0.00000000e+00, 0.00000000e+00, 0.00000000e+00, 0.00000000e+00, 0.00000000e+00, 0.00000000e+00, 0.00000000e+00, 0.00000000e+00, 0.00000000e+00, 0.00000000e+00, 0.00000000e+00, -4.29266213e+00, -1.75555818e+00, -3.48695375e+00, 1.14857188e+00, 0.00000000e+00, 5.0000000000, 5.0000000000, 0.0306289849
          18, 0.00000000e+00, 0.00000000e+00, 0.00000000e+00, 0.00000000e+00, 0.00000000e+00, 0.00000000e+00, 0.00000000e+00, 0.00000000e+00, 0.00000000e+00, 0.00000000e+00, 0.00000000e+00, 0.00000000e+00, -4.30225427e+00, -1.76414605e+00, -3.49886642e+00, 1.14007182e+00, 0.00000000e+00, 5.0000000000, 5.0000000000, 0.0323475342
          19, 0.00000000e+00, 0.00000000e+00, 0.00000000e+00, 0.00000000e+00, 0.00000000e+00, 0.00000000e+00, 0.00000000e+00, 0.00000000e+00, 0.00000000e+00, 0.00000000e+00, 0.00000000e+00, 0.00000000e+00, -4.31162199e+00, -1.77250578e+00, -3.51001441e+00, 1.13181264e+00, 0.00000000e+00, 5.0000000000, 5.0000000000, 0.0341527302
          20, 0.00000000e+00, 0.00000000e+00, 0.00000000e+00, 0.00000000e+00, 0.00000000e+00, 0.00000000e+00, 0.00000000e+00, 0.00000000e+00, 0.00000000e+00, 0.00000000e+00, 0.00000000e+00, 0.00000000e+00, -4.32079509e+00, -1.78066023e+00, -3.52050799e+00, 1.12377306e+00, 0.00000000e+00, 5.0000000000, 5.0000000000, 0.0359516771
          21, 0.00000000e+00, 0.00000000e+00, 0.00000000e+00, 0.00000000e+00, 0.00000000e+00, 0.00000000e+00, 0.00000000e+00, 0.00000000e+00, 0.00000000e+00, 0.00000000e+00, 0.00000000e+00, 0.00000000e+00, -4.32979311e+00, -1.78863049e+00, -3.53041051e+00, 1.11592721e+00, 0.00000000e+00, 5.0000000000, 5.0000000000, 0.0375946368
          22, 0.00000000e+00, 0.00000000e+00, 0.00000000e+00, 0.00000000e+00, 0.00000000e+00, 0.00000000e+00, 0.00000000e+00, 0.00000000e+00, 0.00000000e+00, 0.00000000e+00, 0.00000000e+00, 0.00000000e+00, -4.33862679e+00, -1.79643432e+00, -3.53974125e+00, 1.10825141e+00, 0.00000000e+00, 5.0000000000, 5.0000000000, 0.0392393312
          23, 0.00000000e+00, 0.00000000e+00, 0.00000000e+00, 0.00000000e+00, 0.00000000e+00, 0.00000000e+00, 0.00000000e+00, 0.00000000e+00, 0.00000000e+00, 0.00000000e+00, 0.00000000e+00, 0.00000000e+00, -4.34730111e+00, -1.80408559e+00, -3.54848091e+00, 1.10072709e+00, 0.00000000e+00, 5.0000000000, 5.0000000000, 0.0408788335
          24, 0.00000000e+00, 0.00000000e+00, 0.00000000e+00, 0.00000000e+00, 0.00000000e+00, 0.00000000e+00, 0.00000000e+00, 0.00000000e+00, 0.00000000e+00, 0.00000000e+00, 0.00000000e+00, 0.00000000e+00, -4.35581907e+00, -1.81159529e+00, -3.55658069e+00, 1.09334032e+00, 0.00000000e+00, 5.0000000000, 5.0000000000, 0.0425172650
          25, 0.00000000e+00, 0.00000000e+00, 0.00000000e+00, 0.00000000e+00, 0.00000000e+00, 0.00000000e+00, 0.00000000e+00, 0.00000000e+00, 0.00000000e+00, 0.00000000e+00, 0.00000000e+00, 0.00000000e+00, -4.36418568e+00, -1.81897455e+00, -3.56397878e+00, 1.08607885e+00, 0.00000000e+00, 5.0000000000, 5.0000000000, 0.0441646446
          26, 0.00000000e+00, 0.00000000e+00, 0.00000000e+00, 0.00000000e+00, 0.00000000e+00, 0.00000000e+00, 0.00000000e+00, 0.00000000e+00, 0.00000000e+00, 0.00000000e+00, 0.00000000e+00, 0.00000000e+00, -4.37241216e+00, -1.82623901e+00, -3.57062647e+00, 1.07892723e+00, 0.00000000e+00, 5.0000000000, 5.0000000000, 0.0458225824
          27, 0.00000000e+00, 0.00000000e+00, 0.00000000e+00, 0.00000000e+00, 0.00000000e+00, 0.00000000e+00, 0.00000000e+00, 0.00000000e+00, 0.00000000e+00, 0.00000000e+00, 0.00000000e+00, 0.00000000e+00, -4.38052067e+00, -1.83341471e+00, -3.57651975e+00, 1.07186055e+00, 0.00000000e+00, 5.0000000000, 5.0000000000, 0.0474615158
          28, 0.00000000e+00, 0.00000000e+00, 0.00000000e+00, 0.00000000e+00, 0.00000000e+00, 0.00000000e+00, 0.00000000e+00, 0.00000000e+00, 0.00000000e+00, 0.00000000e+00, 0.00000000e+00, 0.00000000e+00, -4.38855005e+00, -1.84054508e+00, -3.58172716e+00, 1.06483696e+00, 0.00000000e+00, 5.0000000000, 5.0000000000, 0.0491073446
          29, 0.00000000e+00, 0.00000000e+00, 0.00000000e+00, 0.00000000e+00, 0.00000000e+00, 0.00000000e+00, 0.00000000e+00, 0.00000000e+00, 0.00000000e+00, 0.00000000e+00, 0.00000000e+00, 0.00000000e+00, -4.39656260e+00, -1.84769880e+00, -3.58640246e+00, 1.05778935e+00, 0.00000000e+00, 5.0000000000, 5.0000000000, 0.0507438525
          30, 0.00000000e+00, 0.00000000e+00, 0.00000000e+00, 0.00000000e+00, 0.00000000e+00, 0.00000000e+00, 0.00000000e+00, 0.00000000e+00, 0.00000000e+00, 0.00000000e+00, 0.00000000e+00, 0.00000000e+00, -4.40465098e+00, -1.85497758e+00, -3.59077461e+00, 1.05061737e+00, 0.00000000e+00, 5.0000000000, 5.0000000000, 0.0524215587
          31, 0.00000000e+00, 0.00000000e+00, 0.00000000e+00, 0.00000000e+00, 0.00000000e+00, 0.00000000e+00, 0.00000000e+00, 0.00000000e+00, 0.00000000e+00, 0.00000000e+00, 0.00000000e+00, 0.00000000e+00, -4.41294357e+00, -1.86252175e+00, -3.59511536e+00, 1.04318170e+00, 0.00000000e+00, 5.0000000000, 5.0000000000, 0.0542681849
          32, 0.00000000e+00, 0.00000000e+00, 0.00000000e+00, 0.00000000e+00, 0.00000000e+00, 0.00000000e+00, 0.00000000e+00, 0.00000000e+00, 0.00000000e+00, 0.00000000e+00, 0.00000000e+00, 0.00000000e+00, -4.42160568e+00, -1.87051107e+00, -3.59969263e+00, 1.03530316e+00, 0.00000000e+00, 5.0000000000, 5.0000000000, 0.0560202693
          33, 0.00000000e+00, 0.00000000e+00, 0.00000000e+00, 0.00000000e+00, 0.00000000e+00, 0.00000000e+00, 0.00000000e+00, 0.00000000e+00, 0.00000000e+00, 0.00000000e+00, 0.00000000e+00, 0.00000000e+00, -4.43083357e+00, -1.87915768e+00, -3.60472180e+00, 1.02676986e+00, 0.00000000e+00, 5.0000000000, 5.0000000000, 0.0576512666
          34, 0.00000000e+00, 0.00000000e+00, 0.00000000e+00, 0.00000000e+00, 0.00000000e+00, 0.00000000e+00, 0.00000000e+00, 0.00000000e+00, 0.00000000e+00, 0.00000000e+00, 0.00000000e+00, 0.00000000e+00, -4.44083879e+00, -1.88868874e+00, -3.61032621e+00, 1.01735459e+00, 0.00000000e+00, 5.0000000000, 5.0000000000, 0.0592689446
          35, 0.00000000e+00, 0.00000000e+00, 0.00000000e+00, 0.00000000e+00, 0.00000000e+00, 0.00000000e+00, 0.00000000e+00, 0.00000000e+00, 0.00000000e+00, 0.00000000e+00, 0.00000000e+00, 0.00000000e+00, -4.45182135e+00, -1.89931742e+00, -3.61651444e+00, 1.00684402e+00, 0.00000000e+00, 5.0000000000, 5.0000000000, 0.0608981475
          36, 0.00000000e+00, 0.00000000e+00, 0.00000000e+00, 0.00000000e+00, 0.00000000e+00, 0.00000000e+00, 0.00000000e+00, 0.00000000e+00, 0.00000000e+00, 0.00000000e+00, 0.00000000e+00, 0.00000000e+00, -4.46393211e+00, -1.91120252e+00, -3.62317787e+00, 9.95079222e-01, 0.00000000e+00, 5.0000000000, 5.0000000000, 0.0625246298
          37, 0.00000000e+00, 0.00000000e+00, 0.00000000e+00, 0.00000000e+00, 0.00000000e+00, 0.00000000e+00, 0.00000000e+00, 0.00000000e+00, 0.00000000e+00, 0.00000000e+00, 0.00000000e+00, 0.00000000e+00, -4.47722685e+00, -1.92439934e+00, -3.63011034e+00, 9.82004942e-01, 0.00000000e+00, 5.0000000000, 5.0000000000, 0.0641494472
          38, 0.00000000e+00, 0.00000000e+00, 0.00000000e+00, 0.00000000e+00, 0.00000000e+00, 0.00000000e+00, 0.00000000e+00, 0.00000000e+00, 0.00000000e+00, 0.00000000e+00, 0.00000000e+00, 0.00000000e+00, -4.49161734e+00, -1.93880703e+00, -3.63704970e+00, 9.67722354e-01, 0.00000000e+00, 5.0000000000, 5.0000000000, 0.0657888750
          39, 0.00000000e+00, 0.00000000e+00, 0.00000000e+00, 0.00000000e+00, 0.00000000e+00, 0.00000000e+00, 0.00000000e+00, 0.00000000e+00, 0.00000000e+00, 0.00000000e+00, 0.00000000e+00, 0.00000000e+00, -4.50682899e+00, -1.95412242e+00, -3.64373939e+00, 9.52535109e-01, 0.00000000e+00, 5.0000000000, 5.0000000000, 0.0674102618
          40, 0.00000000e+00, 0.00000000e+00, 0.00000000e+00, 0.00000000e+00, 0.00000000e+00, 0.00000000e+00, 0.00000000e+00, 0.00000000e+00, 0.00000000e+00, 0.00000000e+00, 0.00000000e+00, 0.00000000e+00, -4.52238042e+00, -1.96981706e+00, -3.65000314e+00, 9.36972143e-01, 0.00000000e+00, 5.0000000000, 5.0000000000, 0.0690373485
          41, 0.00000000e+00, 0.00000000e+00, 0.00000000e+00, 0.00000000e+00, 0.00000000e+00, 0.00000000e+00, 0.00000000e+00, 0.00000000e+00, 0.00000000e+00, 0.00000000e+00, 0.00000000e+00, 0.00000000e+00, -4.53760557e+00, -1.98516064e+00, -3.65581833e+00, 9.21763710e-01, 0.00000000e+00, 5.0000000000, 5.0000000000, 0.0706670866
          42, 0.00000000e+00, 0.00000000e+00, 0.00000000e+00, 0.00000000e+00, 0.00000000e+00, 0.00000000e+00, 0.00000000e+00, 0.00000000e+00, 0.00000000e+00, 0.00000000e+00, 0.00000000e+00, 0.00000000e+00, -4.55173893e+00, -1.99931481e+00, -3.66136619e+00, 9.07747070e-01, 0.00000000e+00, 5.0000000000, 5.0000000000, 0.0724248863
          43, 0.00000000e+00, 0.00000000e+00, 0.00000000e+00, 0.00000000e+00, 0.00000000e+00, 0.00000000e+00, 0.00000000e+00, 0.00000000e+00, 0.00000000e+00, 0.00000000e+00, 0.00000000e+00, 0.00000000e+00, -4.56406826e+00, -2.01150347e+00, -3.66703775e+00, 8.95695880e-01, 0.00000000e+00, 5.0000000000, 5.0000000000, 0.0742206271
          44, 0.00000000e+00, 0.00000000e+00, 0.00000000e+00, 0.00000000e+00, 0.00000000e+00, 0.00000000e+00, 0.00000000e+00, 0.00000000e+00, 0.00000000e+00, 0.00000000e+00, 0.00000000e+00, 0.00000000e+00, -4.57412528e+00, -2.02122571e+00, -3.67338725e+00, 8.86107598e-01, 0.00000000e+00, 5.0000000000, 5.0000000000, 0.0760079137
          45, 0.00000000e+00, 0.00000000e+00, 0.00000000e+00, 0.00000000e+00, 0.00000000e+00, 0.00000000e+00, 0.00000000e+00, 0.00000000e+00, 0.00000000e+00, 0.00000000e+00, 0.00000000e+00, 0.00000000e+00, -4.58184686e+00, -2.02843332e+00, -3.68104293e+00, 8.79027047e-01, 0.00000000e+00, 5.0000000000, 5.0000000000, 0.0776660903
          46, 0.00000000e+00, 0.00000000e+00, 0.00000000e+00, 0.00000000e+00, 0.00000000e+00, 0.00000000e+00, 0.00000000e+00, 0.00000000e+00, 0.00000000e+00, 0.00000000e+00, 0.00000000e+00, 0.00000000e+00, -4.58763325e+00, -2.03358849e+00, -3.69059711e+00, 8.73990083e-01, 0.00000000e+00, 5.0000000000, 5.0000000000, 0.0793298175
          47, 0.00000000e+00, 0.00000000e+00, 0.00000000e+00, 0.00000000e+00, 0.00000000e+00, 0.00000000e+00, 0.00000000e+00, 0.00000000e+00, 0.00000000e+00, 0.00000000e+00, 0.00000000e+00, 0.00000000e+00, -4.59227366e+00, -2.03757177e+00, -3.70249731e+00, 8.70116622e-01, 0.00000000e+00, 5.0000000000, 5.0000000000, 0.0809683197
          48, 0.00000000e+00, 0.00000000e+00, 0.00000000e+00, 0.00000000e+00, 0.00000000e+00, 0.00000000e+00, 0.00000000e+00, 0.00000000e+00, 0.00000000e+00, 0.00000000e+00, 0.00000000e+00, 0.00000000e+00, -4.59677720e+00, -2.04148876e+00, -3.71695159e+00, 8.66304073e-01, 0.00000000e+00, 5.0000000000, 5.0000000000, 0.0826199461
          49, 0.00000000e+00, 0.00000000e+00, 0.00000000e+00, 0.00000000e+00, 0.00000000e+00, 0.00000000e+00, 0.00000000e+00, 0.00000000e+00, 0.00000000e+00, 0.00000000e+00, 0.00000000e+00, 0.00000000e+00, -4.60218395e+00, -2.04646300e+00, -3.73385515e+00, 8.61433705e-01, 0.00000000e+00, 5.0000000000, 5.0000000000, 0.0842722800
          50, 0.00000000e+00, 0.00000000e+00, 0.00000000e+00, 0.00000000e+00, 0.00000000e+00, 0.00000000e+00, 0.00000000e+00, 0.00000000e+00, 0.00000000e+00, 0.00000000e+00, 0.00000000e+00, 0.00000000e+00, -4.60941794e+00, -2.05348247e+00, -3.75274567e+00, 8.54523300e-01, 0.00000000e+00, 5.0000000000, 5.0000000000, 0.0859144392
          51, 0.00000000e+00, 0.00000000e+00, 0.00000000e+00, 0.00000000e+00, 0.00000000e+00, 0.00000000e+00, 0.00000000e+00, 0.00000000e+00, 0.00000000e+00, 0.00000000e+00, 0.00000000e+00, 0.00000000e+00, -4.61920456e+00, -2.06332021e+00, -3.77280308e+00, 8.44806052e-01, 0.00000000e+00, 5.0000000000, 5.0000000000, 0.0875463968
          52, 0.00000000e+00, 0.00000000e+00, 0.00000000e+00, 0.00000000e+00, 0.00000000e+00, 0.00000000e+00, 0.00000000e+00, 0.00000000e+00, 0.00000000e+00, 0.00000000e+00, 0.00000000e+00, 0.00000000e+00, -4.63204376e+00, -2.07651527e+00, -3.79291688e+00, 8.31749605e-01, 0.00000000e+00, 5.0000000000, 5.0000000000, 0.0891816241
          53, 0.00000000e+00, 0.00000000e+00, 0.00000000e+00, 0.00000000e+00, 0.00000000e+00, 0.00000000e+00, 0.00000000e+00, 0.00000000e+00, 0.00000000e+00, 0.00000000e+00, 0.00000000e+00, 0.00000000e+00, -4.64821805e+00, -2.09338915e+00, -3.81184498e+00, 8.15039728e-01, 0.00000000e+00, 5.0000000000, 5.0000000000, 0.0908286578
          54, 0.00000000e+00, 0.00000000e+00, 0.00000000e+00, 0.00000000e+00, 0.00000000e+00, 0.00000000e+00, 0.00000000e+00, 0.00000000e+00, 0.00000000e+00, 0.00000000e+00, 0.00000000e+00, 0.00000000e+00, -4.66781626e+00, -2.11407657e+00, -3.82846758e+00, 7.94549411e-01, 0.00000000e+00, 5.0000000000, 5.0000000000, 0.0924701322
          55, 0.00000000e+00, 0.00000000e+00, 0.00000000e+00, 0.00000000e+00, 0.00000000e+00, 0.00000000e+00, 0.00000000e+00, 0.00000000e+00, 0.00000000e+00, 0.00000000e+00, 0.00000000e+00, 0.00000000e+00, -4.69076036e+00, -2.13855816e+00, -3.84208367e+00, 7.70306315e-01, 0.00000000e+00, 5.0000000000, 5.0000000000, 0.0942918617
          56, 0.00000000e+00, 0.00000000e+00, 0.00000000e+00, 0.00000000e+00, 0.00000000e+00, 0.00000000e+00, 0.00000000e+00, 0.00000000e+00, 0.00000000e+00, 0.00000000e+00, 0.00000000e+00, 0.00000000e+00, -4.71682898e+00, -2.16668907e+00, -3.85263072e+00, 7.42464624e-01, 0.00000000e+00, 5.0000000000, 5.0000000000, 0.0960660442
          57, 0.00000000e+00, 0.00000000e+00, 0.00000000e+00, 0.00000000e+00, 0.00000000e+00, 0.00000000e+00, 0.00000000e+00, 0.00000000e+00, 0.00000000e+00, 0.00000000e+00, 0.00000000e+00, 0.00000000e+00, -4.74567587e+00, -2.19822142e+00, -3.86070847e+00, 7.11283053e-01, 0.00000000e+00, 5.0000000000, 5.0000000000, 0.0977089171
          58, 0.00000000e+00, 0.00000000e+00, 0.00000000e+00, 0.00000000e+00, 0.00000000e+00, 0.00000000e+00, 0.00000000e+00, 0.00000000e+00, 0.00000000e+00, 0.00000000e+00, 0.00000000e+00, 0.00000000e+00, -4.77684359e+00, -2.23282058e+00, -3.86739040e+00, 6.77108880e-01, 0.00000000e+00, 5.0000000000, 5.0000000000, 0.0993400353
          59, 0.00000000e+00, 0.00000000e+00, 0.00000000e+00, 0.00000000e+00, 0.00000000e+00, 0.00000000e+00, 0.00000000e+00, 0.00000000e+00, 0.00000000e+00, 0.00000000e+00, 0.00000000e+00, 0.00000000e+00, -4.80977422e+00, -2.27007587e+00, -3.87392779e+00, 6.40367247e-01, 0.00000000e+00, 5.0000000000, 5.0000000000, 0.1009634240
          60, 0.00000000e+00, 0.00000000e+00, 0.00000000e+00, 0.00000000e+00, 0.00000000e+00, 0.00000000e+00, 0.00000000e+00, 0.00000000e+00, 0.00000000e+00, 0.00000000e+00, 0.00000000e+00, 0.00000000e+00, -4.84381957e+00, -2.30950627e+00, -3.88148291e+00, 6.01554853e-01, 0.00000000e+00, 5.0000000000, 5.0000000000, 0.1026047158
          61, 0.00000000e+00, 0.00000000e+00, 0.00000000e+00, 0.00000000e+00, 0.00000000e+00, 0.00000000e+00, 0.00000000e+00, 0.00000000e+00, 0.00000000e+00, 0.00000000e+00, 0.00000000e+00, 0.00000000e+00, -4.87825411e+00, -2.35056195e+00, -3.89096683e+00, 5.61237179e-01, 0.00000000e+00, 5.0000000000, 5.0000000000, 0.1042343196
          62, 0.00000000e+00, 0.00000000e+00, 0.00000000e+00, 0.00000000e+00, 0.00000000e+00, 0.00000000e+00, 0.00000000e+00, 0.00000000e+00, 0.00000000e+00, 0.00000000e+00, 0.00000000e+00, 0.00000000e+00, -4.91229431e+00, -2.39262218e+00, -3.90298257e+00, 5.20048066e-01, 0.00000000e+00, 5.0000000000, 5.0000000000, 0.1058693803
          63, 0.00000000e+00, 0.00000000e+00, 0.00000000e+00, 0.00000000e+00, 0.00000000e+00, 0.00000000e+00, 0.00000000e+00, 0.00000000e+00, 0.00000000e+00, 0.00000000e+00, 0.00000000e+00, 0.00000000e+00, -4.94512845e+00, -2.43499160e+00, -3.91783690e+00, 4.78689624e-01, 0.00000000e+00, 5.0000000000, 5.0000000000, 0.1075096774
          64, 0.00000000e+00, 0.00000000e+00, 0.00000000e+00, 0.00000000e+00, 0.00000000e+00, 0.00000000e+00, 0.00000000e+00, 0.00000000e+00, 0.00000000e+00, 0.00000000e+00, 0.00000000e+00, 0.00000000e+00, -4.97595932e+00, -2.47689822e+00, -3.93558268e+00, 4.37928904e-01, 0.00000000e+00, 5.0000000000, 5.0000000000, 0.1091455935
          65, 0.00000000e+00, 0.00000000e+00, 0.00000000e+00, 0.00000000e+00, 0.00000000e+00, 0.00000000e+00, 0.00000000e+00, 0.00000000e+00, 0.00000000e+00, 0.00000000e+00, 0.00000000e+00, 0.00000000e+00, -5.00405928e+00, -2.51749941e+00, -3.95606662e+00, 3.98585661e-01, 0.00000000e+00, 5.0000000000, 5.0000000000, 0.1107865925
          66, 0.00000000e+00, 0.00000000e+00, 0.00000000e+00, 0.00000000e+00, 0.00000000e+00, 0.00000000e+00, 0.00000000e+00, 0.00000000e+00, 0.00000000e+00, 0.00000000e+00, 0.00000000e+00, 0.00000000e+00, -5.02883195e+00, -2.55590468e+00, -3.97896929e+00, 3.61504107e-01, 0.00000000e+00, 5.0000000000, 5.0000000000, 0.1124438076
          67, 0.00000000e+00, 0.00000000e+00, 0.00000000e+00, 0.00000000e+00, 0.00000000e+00, 0.00000000e+00, 0.00000000e+00, 0.00000000e+00, 0.00000000e+00, 0.00000000e+00, 0.00000000e+00, 0.00000000e+00, -5.04986886e+00, -2.59122418e+00, -4.00383246e+00, 3.27502443e-01, 0.00000000e+00, 5.0000000000, 5.0000000000, 0.1142382798
          68, 0.00000000e+00, 0.00000000e+00, 0.00000000e+00, 0.00000000e+00, 0.00000000e+00, 0.00000000e+00, 0.00000000e+00, 0.00000000e+00, 0.00000000e+00, 0.00000000e+00, 0.00000000e+00, 0.00000000e+00, -5.06698674e+00, -2.62264693e+00, -4.03007312e+00, 2.97299670e-01, 0.00000000e+00, 5.0000000000, 5.0000000000, 0.1160342565
          69, 0.00000000e+00, 0.00000000e+00, 0.00000000e+00, 0.00000000e+00, 0.00000000e+00, 0.00000000e+00, 0.00000000e+00, 0.00000000e+00, 0.00000000e+00, 0.00000000e+00, 0.00000000e+00, 0.00000000e+00, -5.08023420e+00, -2.64954042e+00, -4.05698747e+00, 2.71429859e-01, 0.00000000e+00, 5.0000000000, 5.0000000000, 0.1177173792
          70, 0.00000000e+00, 0.00000000e+00, 0.00000000e+00, 0.00000000e+00, 0.00000000e+00, 0.00000000e+00, 0.00000000e+00, 0.00000000e+00, 0.00000000e+00, 0.00000000e+00, 0.00000000e+00, 0.00000000e+00, -5.08986502e+00, -2.67154712e+00, -4.08375322e+00, 2.50165823e-01, 0.00000000e+00, 5.0000000000, 5.0000000000, 0.1193518732
          71, 0.00000000e+00, 0.00000000e+00, 0.00000000e+00, 0.00000000e+00, 0.00000000e+00, 0.00000000e+00, 0.00000000e+00, 0.00000000e+00, 0.00000000e+00, 0.00000000e+00, 0.00000000e+00, 0.00000000e+00, -5.09628586e+00, -2.68864449e+00, -4.10944427e+00, 2.33478619e-01, 0.00000000e+00, 5.0000000000, 5.0000000000, 0.1209856282
          72, 0.00000000e+00, 0.00000000e+00, 0.00000000e+00, 0.00000000e+00, 0.00000000e+00, 0.00000000e+00, 0.00000000e+00, 0.00000000e+00, 0.00000000e+00, 0.00000000e+00, 0.00000000e+00, 0.00000000e+00, -5.09999258e+00, -2.70114271e+00, -4.13307656e+00, 2.21050108e-01, 0.00000000e+00, 5.0000000000, 5.0000000000, 0.1226293240
          73, 0.00000000e+00, 0.00000000e+00, 0.00000000e+00, 0.00000000e+00, 0.00000000e+00, 0.00000000e+00, 0.00000000e+00, 0.00000000e+00, 0.00000000e+00, 0.00000000e+00, 0.00000000e+00, 0.00000000e+00, -5.10150987e+00, -2.70961867e+00, -4.15370019e+00, 2.12335933e-01, 0.00000000e+00, 5.0000000000, 5.0000000000, 0.1242772047
          74, 0.00000000e+00, 0.00000000e+00, 0.00000000e+00, 0.00000000e+00, 0.00000000e+00, 0.00000000e+00, 0.00000000e+00, 0.00000000e+00, 0.00000000e+00, 0.00000000e+00, 0.00000000e+00, 0.00000000e+00, -5.10134376e+00, -2.71481053e+00, -4.17053536e+00, 2.06657669e-01, 0.00000000e+00, 5.0000000000, 5.0000000000, 0.1259156556
          75, 0.00000000e+00, 0.00000000e+00, 0.00000000e+00, 0.00000000e+00, 0.00000000e+00, 0.00000000e+00, 0.00000000e+00, 0.00000000e+00, 0.00000000e+00, 0.00000000e+00, 0.00000000e+00, 0.00000000e+00, -5.09995051e+00, -2.71750762e+00, -4.18311946e+00, 2.03296640e-01, 0.00000000e+00, 5.0000000000, 5.0000000000, 0.1275563049
          76, 0.00000000e+00, 0.00000000e+00, 0.00000000e+00, 0.00000000e+00, 0.00000000e+00, 0.00000000e+00, 0.00000000e+00, 0.00000000e+00, 0.00000000e+00, 0.00000000e+00, 0.00000000e+00, 0.00000000e+00, -5.09772068e+00, -2.71846282e+00, -4.19140872e+00, 2.01568391e-01, 0.00000000e+00, 5.0000000000, 5.0000000000, 0.1291988818
          77, 0.00000000e+00, 0.00000000e+00, 0.00000000e+00, 0.00000000e+00, 0.00000000e+00, 0.00000000e+00, 0.00000000e+00, 0.00000000e+00, 0.00000000e+00, 0.00000000e+00, 0.00000000e+00, 0.00000000e+00, -5.09497513e+00, -2.71833791e+00, -4.19578481e+00, 2.00868621e-01, 0.00000000e+00, 5.0000000000, 5.0000000000, 0.1308424424
          78, 0.00000000e+00, 0.00000000e+00, 0.00000000e+00, 0.00000000e+00, 0.00000000e+00, 0.00000000e+00, 0.00000000e+00, 0.00000000e+00, 0.00000000e+00, 0.00000000e+00, 0.00000000e+00, 0.00000000e+00, -5.09196866e+00, -2.71767960e+00, -4.19695893e+00, 2.00692701e-01, 0.00000000e+00, 5.0000000000, 5.0000000000, 0.1325034092
          79, 0.00000000e+00, 0.00000000e+00, 0.00000000e+00, 0.00000000e+00, 0.00000000e+00, 0.00000000e+00, 0.00000000e+00, 0.00000000e+00, 0.00000000e+00, 0.00000000e+00, 0.00000000e+00, 0.00000000e+00, -5.08889745e+00, -2.71691830e+00, -4.19581394e+00, 2.00637137e-01, 0.00000000e+00, 5.0000000000, 5.0000000000, 0.1343343184
          80, 0.00000000e+00, 0.00000000e+00, 0.00000000e+00, 0.00000000e+00, 0.00000000e+00, 0.00000000e+00, 0.00000000e+00, 0.00000000e+00, 0.00000000e+00, 0.00000000e+00, 0.00000000e+00, 0.00000000e+00, -5.08590771e+00, -2.71638004e+00, -4.19324500e+00, 2.00390595e-01, 0.00000000e+00, 5.0000000000, 5.0000000000, 0.1360844173
          81, 0.00000000e+00, 0.00000000e+00, 0.00000000e+00, 0.00000000e+00, 0.00000000e+00, 0.00000000e+00, 0.00000000e+00, 0.00000000e+00, 0.00000000e+00, 0.00000000e+00, 0.00000000e+00, 0.00000000e+00, -5.08310449e+00, -2.71630365e+00, -4.19004276e+00, 1.99720042e-01, 0.00000000e+00, 5.0000000000, 5.0000000000, 0.1377665625
          82, 0.00000000e+00, 0.00000000e+00, 0.00000000e+00, 0.00000000e+00, 0.00000000e+00, 0.00000000e+00, 0.00000000e+00, 0.00000000e+00, 0.00000000e+00, 0.00000000e+00, 0.00000000e+00, 0.00000000e+00, -5.08055978e+00, -2.71685844e+00, -4.18683176e+00, 1.98455863e-01, 0.00000000e+00, 5.0000000000, 5.0000000000, 0.1393868645
          83, 0.00000000e+00, 0.00000000e+00, 0.00000000e+00, 0.00000000e+00, 0.00000000e+00, 0.00000000e+00, 0.00000000e+00, 0.00000000e+00, 0.00000000e+00, 0.00000000e+00, 0.00000000e+00, 0.00000000e+00, -5.07831951e+00, -2.71816030e+00, -4.18405376e+00, 1.96478085e-01, 0.00000000e+00, 5.0000000000, 5.0000000000, 0.1410338399
          84, 0.00000000e+00, 0.00000000e+00, 0.00000000e+00, 0.00000000e+00, 0.00000000e+00, 0.00000000e+00, 0.00000000e+00, 0.00000000e+00, 0.00000000e+00, 0.00000000e+00, 0.00000000e+00, 0.00000000e+00, -5.07640939e+00, -2.72028509e+00, -4.18197907e+00, 1.93704616e-01, 0.00000000e+00, 5.0000000000, 5.0000000000, 0.1427927071
          85, 0.00000000e+00, 0.00000000e+00, 0.00000000e+00, 0.00000000e+00, 0.00000000e+00, 0.00000000e+00, 0.00000000e+00, 0.00000000e+00, 0.00000000e+00, 0.00000000e+00, 0.00000000e+00, 0.00000000e+00, -5.07483970e+00, -2.72327937e+00, -4.18073048e+00, 1.90081670e-01, 0.00000000e+00, 5.0000000000, 5.0000000000, 0.1443991817
          86, 0.00000000e+00, 0.00000000e+00, 0.00000000e+00, 0.00000000e+00, 0.00000000e+00, 0.00000000e+00, 0.00000000e+00, 0.00000000e+00, 0.00000000e+00, 0.00000000e+00, 0.00000000e+00, 0.00000000e+00, -5.07360909e+00, -2.72716863e+00, -4.18031097e+00, 1.85576236e-01, 0.00000000e+00, 5.0000000000, 5.0000000000, 0.1460274677
          87, 0.00000000e+00, 0.00000000e+00, 0.00000000e+00, 0.00000000e+00, 0.00000000e+00, 0.00000000e+00, 0.00000000e+00, 0.00000000e+00, 0.00000000e+00, 0.00000000e+00, 0.00000000e+00, 0.00000000e+00, -5.07270761e+00, -2.73196346e+00, -4.18063066e+00, 1.80170253e-01, 0.00000000e+00, 5.0000000000, 5.0000000000, 0.1476411643
          88, 0.00000000e+00, 0.00000000e+00, 0.00000000e+00, 0.00000000e+00, 0.00000000e+00, 0.00000000e+00, 0.00000000e+00, 0.00000000e+00, 0.00000000e+00, 0.00000000e+00, 0.00000000e+00, 0.00000000e+00, -5.07211910e+00, -2.73766413e+00, -4.18153221e+00, 1.73856206e-01, 0.00000000e+00, 5.0000000000, 5.0000000000, 0.1492808580
          89, 0.00000000e+00, 0.00000000e+00, 0.00000000e+00, 0.00000000e+00, 0.00000000e+00, 0.00000000e+00, 0.00000000e+00, 0.00000000e+00, 0.00000000e+00, 0.00000000e+00, 0.00000000e+00, 0.00000000e+00, -5.07182300e+00, -2.74426380e+00, -4.18281503e+00, 1.66633808e-01, 0.00000000e+00, 5.0000000000, 5.0000000000, 0.1509310731