TITLE = "SU2 Simulation"
VARIABLES = "Iteration","CL","CD","CSF","CMx","CMy","CMz","CFx","CFy","CFz","CL/CD","AoA","Custom_ObjFunc","Res_Flow[0]","Res_Flow[1]","Res_Flow[2]","Res_Flow[3]","Res_Flow[4]","Linear_Solver_Iterations","CFL_Number","Time(min)"
ZONE T= "Convergence history"
           0, 0.00000000e+00, 0.00000000e+00, 0.00000000e+00, 0.00000000e+00, 0.00000000e+00, 0.00000000e+00, 0.00000000e+00, 0.00000000e+00, 0.00000000e+00, 0.00000000e+00, 0.00000000e+00, 0.00000000e+00, -1.56600892e+01, -1.30024231e+01, -1.26119551e+01, -1.03228183e+01, 0.00000000e+00, 5.0000000000, 5.0000000000, 0.0022023497
           1, 0.00000000e+00, 0.00000000e+00, 0.00000000e+00, 0.00000000e+00, 0.00000000e+00, 0.00000000e+00, 0.00000000e+00, 0.00000000e+00, 0.00000000e+00, 0.00000000e+00, 0.00000000e+00, 0.00000000e+00, -7.64217358e+00, -5.06975043e+00, -3.75305371e+00, -2.16355776e+00, 0.00000000e+00, 5.0000000000, 5.0000000000, 0.0039481296
           2, 0.00000000e+00, 0.00000000e+00, 0.00000000e+00, 0.00000000e+00, 0.00000000e+00, 0.00000000e+00, 0.00000000e+00, 0.00000000e+00, 0.00000000e+00, 0.00000000e+00, 0.00000000e+00, 0.00000000e+00, -7.31575457e+00, -4.75268833e+00, -3.46398124e+00, -1.84119064e+00, 0.00000000e+00, 5.0000000000, 5.0000000000, 0.0056508433
           3, 0.00000000e+00, 0.00000000e+00, 0.00000000e+00, 0.00000000e+00, 0.00000000e+00, 0.00000000e+00, 0.00000000e+00, 0.00000000e+00, 0.00000000e+00, 0.00000000e+00, 0.00000000e+00, 0.00000000e+00, -7.19272622e+00, -4.61453155e+00, -3.29953259e+00, -1.71994198e+00, 0.00000000e+00, 5.0000000000, 5.0000000000, 0.0073184941
           4, 0.00000000e+00, 0.00000000e+00, 0.00000000e+00, 0.00000000e+00, 0.00000000e+00, 0.00000000e+00, 0.00000000e+00, 0.00000000e+00, 0.00000000e+00, 0.00000000e+00, 0.00000000e+00, 0.00000000e+00, -7.16185367e+00, -4.55268418e+00, -3.18551722e+00, -1.68914430e+00, 0.00000000e+00, 5.0000000000, 5.0000000000, 0.0089538430
           5, 0.00000000e+00, 0.00000000e+00, 0.00000000e+00, 0.00000000e+00, 0.00000000e+00, 0.00000000e+00, 0.00000000e+00, 0.00000000e+00, 0.00000000e+00, 0.00000000e+00, 0.00000000e+00, 0.00000000e+00, -7.17470116e+00, -4.52731555e+00, -3.09885201e+00, -1.70047107e+00, 0.00000000e+00, 5.0000000000, 5.0000000000, 0.0105992035
           6, 0.00000000e+00, 0.00000000e+00, 0.00000000e+00, 0.00000000e+00, 0.00000000e+00, 0.00000000e+00, 0.00000000e+00, 0.00000000e+00, 0.00000000e+00, 0.00000000e+00, 0.00000000e+00, 0.00000000e+00, -7.20036869e+00, -4.51800356e+00, -3.02930663e+00, -1.72365183e+00, 0.00000000e+00, 5.0000000000, 5.0000000000, 0.0123491770
           7, 0.00000000e+00, 0.00000000e+00, 0.00000000e+00, 0.00000000e+00, 0.00000000e+00, 0.00000000e+00, 0.00000000e+00, 0.00000000e+00, 0.00000000e+00, 0.00000000e+00, 0.00000000e+00, 0.00000000e+00, -7.22247523e+00, -4.51447562e+00, -2.97143912e+00, -1.74347568e+00, 0.00000000e+00, 5.0000000000, 5.0000000000, 0.0141214806
           8, 0.00000000e+00, 0.00000000e+00, 0.00000000e+00, 0.00000000e+00, 0.00000000e+00, 0.00000000e+00, 0.00000000e+00, 0.00000000e+00, 0.00000000e+00, 0.00000000e+00, 0.00000000e+00, 0.00000000e+00, -7.23751596e+00, -4.51236041e+00, -2.92202244e+00, -1.75716914e+00, 0.00000000e+00, 5.0000000000, 5.0000000000, 0.0158827720
           9, 0.00000000e+00, 0.00000000e+00, 0.00000000e+00, 0.00000000e+00, 0.00000000e+00, 0.00000000e+00, 0.00000000e+00, 0.00000000e+00, 0.00000000e+00, 0.00000000e+00, 0.00000000e+00, 0.00000000e+00, -7.24659906e+00, -4.51006256e+00, -2.87899706e+00, -1.76583671e+00, 0.00000000e+00, 5.0000000000, 5.0000000000, 0.0175184840
          10, 0.00000000e+00, 0.00000000e+00, 0.00000000e+00, 0.00000000e+00, 0.00000000e+00, 0.00000000e+00, 0.00000000e+00, 0.00000000e+00, 0.00000000e+00, 0.00000000e+00, 0.00000000e+00, 0.00000000e+00, -7.25070249e+00, -4.50702630e+00, -2.84097137e+00, -1.77015678e+00, 0.00000000e+00, 5.0000000000, 5.0000000000, 0.0191532583
          11, 0.00000000e+00, 0.00000000e+00, 0.00000000e+00, 0.00000000e+00, 0.00000000e+00, 0.00000000e+00, 0.00000000e+00, 0.00000000e+00, 0.00000000e+00, 0.00000000e+00, 0.00000000e+00, 0.00000000e+00, -7.25119668e+00, -4.50314895e+00, -2.80696100e+00, -1.77114903e+00, 0.00000000e+00, 5.0000000000, 5.0000000000, 0.0207900236
          12, 0.00000000e+00, 0.00000000e+00, 0.00000000e+00, 0.00000000e+00, 0.00000000e+00, 0.00000000e+00, 0.00000000e+00, 0.00000000e+00, 0.00000000e+00, 0.00000000e+00, 0.00000000e+00, 0.00000000e+00, -7.25012243e+00, -4.49860491e+00, -2.77624375e+00, -1.77055662e+00, 0.00000000e+00, 5.0000000000, 5.0000000000, 0.0224200167
          13, 0.00000000e+00, 0.00000000e+00, 0.00000000e+00, 0.00000000e+00, 0.00000000e+00, 0.00000000e+00, 0.00000000e+00, 0.00000000e+00, 0.00000000e+00, 0.00000000e+00, 0.00000000e+00, 0.00000000e+00, -7.24913994e+00, -4.49369511e+00, -2.74827416e+00, -1.76988306e+00, 0.00000000e+00, 5.0000000000, 5.0000000000, 0.0240505877
          14, 0.00000000e+00, 0.00000000e+00, 0.00000000e+00, 0.00000000e+00, 0.00000000e+00, 0.00000000e+00, 0.00000000e+00, 0.00000000e+00, 0.00000000e+00, 0.00000000e+00, 0.00000000e+00, 0.00000000e+00, -7.24890234e+00, -4.48870947e+00, -2.72263058e+00, -1.76977037e+00, 0.00000000e+00, 5.0000000000, 5.0000000000, 0.0256867861
          15, 0.00000000e+00, 0.00000000e+00, 0.00000000e+00, 0.00000000e+00, 0.00000000e+00, 0.00000000e+00, 0.00000000e+00, 0.00000000e+00, 0.00000000e+00, 0.00000000e+00, 0.00000000e+00, 0.00000000e+00, -7.24931659e+00, -4.48385801e+00, -2.69898064e+00, -1.77019621e+00, 0.00000000e+00, 5.0000000000, 5.0000000000, 0.0273184741
          16, 0.00000000e+00, 0.00000000e+00, 0.00000000e+00, 0.00000000e+00, 0.00000000e+00, 0.00000000e+00, 0.00000000e+00, 0.00000000e+00, 0.00000000e+00, 0.00000000e+00, 0.00000000e+00, 0.00000000e+00, -7.25005953e+00, -4.47926599e+00, -2.67705782e+00, -1.77092135e+00, 0.00000000e+00, 5.0000000000, 5.0000000000, 0.0289503205
          17, 0.00000000e+00, 0.00000000e+00, 0.00000000e+00, 0.00000000e+00, 0.00000000e+00, 0.00000000e+00, 0.00000000e+00, 0.00000000e+00, 0.00000000e+00, 0.00000000e+00, 0.00000000e+00, 0.00000000e+00, -7.25088978e+00, -4.47499719e+00, -2.65664488e+00, -1.77176223e+00, 0.00000000e+00, 5.0000000000, 5.0000000000, 0.0306289849
          18, 0.00000000e+00, 0.00000000e+00, 0.00000000e+00, 0.00000000e+00, 0.00000000e+00, 0.00000000e+00, 0.00000000e+00, 0.00000000e+00, 0.00000000e+00, 0.00000000e+00, 0.00000000e+00, 0.00000000e+00, -7.25172356e+00, -4.47107904e+00, -2.63756176e+00, -1.77265793e+00, 0.00000000e+00, 5.0000000000, 5.0000000000, 0.0323475342
          19, 0.00000000e+00, 0.00000000e+00, 0.00000000e+00, 0.00000000e+00, 0.00000000e+00, 0.00000000e+00, 0.00000000e+00, 0.00000000e+00, 0.00000000e+00, 0.00000000e+00, 0.00000000e+00, 0.00000000e+00, -7.25260766e+00, -4.46752101e+00, -2.61965674e+00, -1.77365143e+00, 0.00000000e+00, 5.0000000000, 5.0000000000, 0.0341527302
          20, 0.00000000e+00, 0.00000000e+00, 0.00000000e+00, 0.00000000e+00, 0.00000000e+00, 0.00000000e+00, 0.00000000e+00, 0.00000000e+00, 0.00000000e+00, 0.00000000e+00, 0.00000000e+00, 0.00000000e+00, -7.25368917e+00, -4.46432667e+00, -2.60280057e+00, -1.77487173e+00, 0.00000000e+00, 5.0000000000, 5.0000000000, 0.0359516771
          21, 0.00000000e+00, 0.00000000e+00, 0.00000000e+00, 0.00000000e+00, 0.00000000e+00, 0.00000000e+00, 0.00000000e+00, 0.00000000e+00, 0.00000000e+00, 0.00000000e+00, 0.00000000e+00, 0.00000000e+00, -7.25521965e+00, -4.46150380e+00, -2.58688577e+00, -1.77654691e+00, 0.00000000e+00, 5.0000000000, 5.0000000000, 0.0375946368
          22, 0.00000000e+00, 0.00000000e+00, 0.00000000e+00, 0.00000000e+00, 0.00000000e+00, 0.00000000e+00, 0.00000000e+00, 0.00000000e+00, 0.00000000e+00, 0.00000000e+00, 0.00000000e+00, 0.00000000e+00, -7.25758921e+00, -4.45907240e+00, -2.57182973e+00, -1.77904247e+00, 0.00000000e+00, 5.0000000000, 5.0000000000, 0.0392393312
          23, 0.00000000e+00, 0.00000000e+00, 0.00000000e+00, 0.00000000e+00, 0.00000000e+00, 0.00000000e+00, 0.00000000e+00, 0.00000000e+00, 0.00000000e+00, 0.00000000e+00, 0.00000000e+00, 0.00000000e+00, -7.26134522e+00, -4.45705917e+00, -2.55756604e+00, -1.78288031e+00, 0.00000000e+00, 5.0000000000, 5.0000000000, 0.0408788335
          24, 0.00000000e+00, 0.00000000e+00, 0.00000000e+00, 0.00000000e+00, 0.00000000e+00, 0.00000000e+00, 0.00000000e+00, 0.00000000e+00, 0.00000000e+00, 0.00000000e+00, 0.00000000e+00, 0.00000000e+00, -7.26720674e+00, -4.45548761e+00, -2.54402971e+00, -1.78875088e+00, 0.00000000e+00, 5.0000000000, 5.0000000000, 0.0425172650
          25, 0.00000000e+00, 0.00000000e+00, 0.00000000e+00, 0.00000000e+00, 0.00000000e+00, 0.00000000e+00, 0.00000000e+00, 0.00000000e+00, 0.00000000e+00, 0.00000000e+00, 0.00000000e+00, 0.00000000e+00, -7.27611257e+00, -4.45438211e+00, -2.53115766e+00, -1.79755860e+00, 0.00000000e+00, 5.0000000000, 5.0000000000, 0.0441646446
          26, 0.00000000e+00, 0.00000000e+00, 0.00000000e+00, 0.00000000e+00, 0.00000000e+00, 0.00000000e+00, 0.00000000e+00, 0.00000000e+00, 0.00000000e+00, 0.00000000e+00, 0.00000000e+00, 0.00000000e+00, -7.28924952e+00, -4.45377422e+00, -2.51889301e+00, -1.81044915e+00, 0.00000000e+00, 5.0000000000, 5.0000000000, 0.0458225824
          27, 0.00000000e+00, 0.00000000e+00, 0.00000000e+00, 0.00000000e+00, 0.00000000e+00, 0.00000000e+00, 0.00000000e+00, 0.00000000e+00, 0.00000000e+00, 0.00000000e+00, 0.00000000e+00, 0.00000000e+00, -7.30803018e+00, -4.45370358e+00, -2.50718580e+00, -1.82878791e+00, 0.00000000e+00, 5.0000000000, 5.0000000000, 0.0474615158
          28, 0.00000000e+00, 0.00000000e+00, 0.00000000e+00, 0.00000000e+00, 0.00000000e+00, 0.00000000e+00, 0.00000000e+00, 0.00000000e+00, 0.00000000e+00, 0.00000000e+00, 0.00000000e+00, 0.00000000e+00, -7.33401581e+00, -4.45421347e+00, -2.49599197e+00, -1.85408621e+00, 0.00000000e+00, 5.0000000000, 5.0000000000, 0.0491073446
          29, 0.00000000e+00, 0.00000000e+00, 0.00000000e+00, 0.00000000e+00, 0.00000000e+00, 0.00000000e+00, 0.00000000e+00, 0.00000000e+00, 0.00000000e+00, 0.00000000e+00, 0.00000000e+00, 0.00000000e+00, -7.36874175e+00, -4.45534049e+00, -2.48527221e+00, -1.88783818e+00, 0.00000000e+00, 5.0000000000, 5.0000000000, 0.0507438525
          30, 0.00000000e+00, 0.00000000e+00, 0.00000000e+00, 0.00000000e+00, 0.00000000e+00, 0.00000000e+00, 0.00000000e+00, 0.00000000e+00, 0.00000000e+00, 0.00000000e+00, 0.00000000e+00, 0.00000000e+00, -7.41328343e+00, -4.45709783e+00, -2.47499093e+00, -1.93112641e+00, 0.00000000e+00, 5.0000000000, 5.0000000000, 0.0524215587
          31, 0.00000000e+00, 0.00000000e+00, 0.00000000e+00, 0.00000000e+00, 0.00000000e+00, 0.00000000e+00, 0.00000000e+00, 0.00000000e+00, 0.00000000e+00, 0.00000000e+00, 0.00000000e+00, 0.00000000e+00, -7.46710135e+00, -4.45945259e+00, -2.46511538e+00, -1.98359368e+00, 0.00000000e+00, 5.0000000000, 5.0000000000, 0.0542681849
          32, 0.00000000e+00, 0.00000000e+00, 0.00000000e+00, 0.00000000e+00, 0.00000000e+00, 0.00000000e+00, 0.00000000e+00, 0.00000000e+00, 0.00000000e+00, 0.00000000e+00, 0.00000000e+00, 0.00000000e+00, -7.52515080e+00, -4.46229855e+00, -2.45561513e+00, -2.04088293e+00, 0.00000000e+00, 5.0000000000, 5.0000000000, 0.0560202693
          33, 0.00000000e+00, 0.00000000e+00, 0.00000000e+00, 0.00000000e+00, 0.00000000e+00, 0.00000000e+00, 0.00000000e+00, 0.00000000e+00, 0.00000000e+00, 0.00000000e+00, 0.00000000e+00, 0.00000000e+00, -7.57268835e+00, -4.46542444e+00, -2.44646279e+00, -2.08985437e+00, 0.00000000e+00, 5.0000000000, 5.0000000000, 0.0576512666
          34, 0.00000000e+00, 0.00000000e+00, 0.00000000e+00, 0.00000000e+00, 0.00000000e+00, 0.00000000e+00, 0.00000000e+00, 0.00000000e+00, 0.00000000e+00, 0.00000000e+00, 0.00000000e+00, 0.00000000e+00, -7.58495189e+00, -4.46847023e+00, -2.43763779e+00, -2.10708276e+00, 0.00000000e+00, 5.0000000000, 5.0000000000, 0.0592689446
          35, 0.00000000e+00, 0.00000000e+00, 0.00000000e+00, 0.00000000e+00, 0.00000000e+00, 0.00000000e+00, 0.00000000e+00, 0.00000000e+00, 0.00000000e+00, 0.00000000e+00, 0.00000000e+00, 0.00000000e+00, -7.54795529e+00, -4.47084538e+00, -2.42913236e+00, -2.07618638e+00, 0.00000000e+00, 5.0000000000, 5.0000000000, 0.0608981475
          36, 0.00000000e+00, 0.00000000e+00, 0.00000000e+00, 0.00000000e+00, 0.00000000e+00, 0.00000000e+00, 0.00000000e+00, 0.00000000e+00, 0.00000000e+00, 0.00000000e+00, 0.00000000e+00, 0.00000000e+00, -7.47600082e+00, -4.47154587e+00, -2.42094560e+00, -2.00767243e+00, 0.00000000e+00, 5.0000000000, 5.0000000000, 0.0625246298
          37, 0.00000000e+00, 0.00000000e+00, 0.00000000e+00, 0.00000000e+00, 0.00000000e+00, 0.00000000e+00, 0.00000000e+00, 0.00000000e+00, 0.00000000e+00, 0.00000000e+00, 0.00000000e+00, 0.00000000e+00, -7.39008266e+00, -4.46874898e+00, -2.41306721e+00, -1.92210172e+00, 0.00000000e+00, 5.0000000000, 5.0000000000, 0.0641494472
          38, 0.00000000e+00, 0.00000000e+00, 0.00000000e+00, 0.00000000e+00, 0.00000000e+00, 0.00000000e+00, 0.00000000e+00, 0.00000000e+00, 0.00000000e+00, 0.00000000e+00, 0.00000000e+00, 0.00000000e+00, -7.29899278e+00, -4.45907037e+00, -2.40547715e+00, -1.82941850e+00, 0.00000000e+00, 5.0000000000, 5.0000000000, 0.0657888750
          39, 0.00000000e+00, 0.00000000e+00, 0.00000000e+00, 0.00000000e+00, 0.00000000e+00, 0.00000000e+00, 0.00000000e+00, 0.00000000e+00, 0.00000000e+00, 0.00000000e+00, 0.00000000e+00, 0.00000000e+00, -7.20137974e+00, -4.43669213e+00, -2.39815416e+00, -1.72923314e+00, 0.00000000e+00, 5.0000000000, 5.0000000000, 0.0674102618
          40, 0.00000000e+00, 0.00000000e+00, 0.00000000e+00, 0.00000000e+00, 0.00000000e+00, 0.00000000e+00, 0.00000000e+00, 0.00000000e+00, 0.00000000e+00, 0.00000000e+00, 0.00000000e+00, 0.00000000e+00, -7.09277292e+00, -4.39360265e+00, -2.39107911e+00, -1.61783585e+00, 0.00000000e+00, 5.0000000000, 5.0000000000, 0.0690373485
          41, 0.00000000e+00, 0.00000000e+00, 0.00000000e+00, 0.00000000e+00, 0.00000000e+00, 0.00000000e+00, 0.00000000e+00, 0.00000000e+00, 0.00000000e+00, 0.00000000e+00, 0.00000000e+00, 0.00000000e+00, -6.97104363e+00, -4.32301417e+00, -2.38423504e+00, -1.49372673e+00, 0.00000000e+00, 5.0000000000, 5.0000000000, 0.0706670866
          42, 0.00000000e+00, 0.00000000e+00, 0.00000000e+00, 0.00000000e+00, 0.00000000e+00, 0.00000000e+00, 0.00000000e+00, 0.00000000e+00, 0.00000000e+00, 0.00000000e+00, 0.00000000e+00, 0.00000000e+00, -6.83838296e+00, -4.22472286e+00, -2.37760710e+00, -1.35940582e+00, 0.00000000e+00, 5.0000000000, 5.0000000000, 0.0724248863
          43, 0.00000000e+00, 0.00000000e+00, 0.00000000e+00, 0.00000000e+00, 0.00000000e+00, 0.00000000e+00, 0.00000000e+00, 0.00000000e+00, 0.00000000e+00, 0.00000000e+00, 0.00000000e+00, 0.00000000e+00, -6.69959670e+00, -4.10595246e+00, -2.37118273e+00, -1.21963168e+00, 0.00000000e+00, 5.0000000000, 5.0000000000, 0.0742206271
          44, 0.00000000e+00, 0.00000000e+00, 0.00000000e+00, 0.00000000e+00, 0.00000000e+00, 0.00000000e+00, 0.00000000e+00, 0.00000000e+00, 0.00000000e+00, 0.00000000e+00, 0.00000000e+00, 0.00000000e+00, -6.55946488e+00, -3.97634497e+00, -2.36495139e+00, -1.07897683e+00, 0.00000000e+00, 5.0000000000, 5.0000000000, 0.0760079137
          45, 0.00000000e+00, 0.00000000e+00, 0.00000000e+00, 0.00000000e+00, 0.00000000e+00, 0.00000000e+00, 0.00000000e+00, 0.00000000e+00, 0.00000000e+00, 0.00000000e+00, 0.00000000e+00, 0.00000000e+00, -6.42143748e+00, -3.84352776e+00, -2.35890390e+00, -9.40697499e-01, 0.00000000e+00, 5.0000000000, 5.0000000000, 0.0776660903
          46, 0.00000000e+00, 0.00000000e+00, 0.00000000e+00, 0.00000000e+00, 0.00000000e+00, 0.00000000e+00, 0.00000000e+00, 0.00000000e+00, 0.00000000e+00, 0.00000000e+00, 0.00000000e+00, 0.00000000e+00, -6.28760359e+00, -3.71217880e+00, -2.35303195e+00, -8.06756157e-01, 0.00000000e+00, 5.0000000000, 5.0000000000, 0.0793298175
          47, 0.00000000e+00, 0.00000000e+00, 0.00000000e+00, 0.00000000e+00, 0.00000000e+00, 0.00000000e+00, 0.00000000e+00, 0.00000000e+00, 0.00000000e+00, 0.00000000e+00, 0.00000000e+00, 0.00000000e+00, -6.15910238e+00, -3.58481917e+00, -2.34732782e+00, -6.78221653e-01, 0.00000000e+00, 5.0000000000, 5.0000000000, 0.0809683197
          48, 0.00000000e+00, 0.00000000e+00, 0.00000000e+00, 0.00000000e+00, 0.00000000e+00, 0.00000000e+00, 0.00000000e+00, 0.00000000e+00, 0.00000000e+00, 0.00000000e+00, 0.00000000e+00, 0.00000000e+00, -6.03650820e+00, -3.46271687e+00, -2.34178424e+00, -5.55632310e-01, 0.00000000e+00, 5.0000000000, 5.0000000000, 0.0826199461
          49, 0.00000000e+00, 0.00000000e+00, 0.00000000e+00, 0.00000000e+00, 0.00000000e+00, 0.00000000e+00, 0.00000000e+00, 0.00000000e+00, 0.00000000e+00, 0.00000000e+00, 0.00000000e+00, 0.00000000e+00, -5.92008514e+00, -3.34647723e+00, -2.33639432e+00, -4.39234357e-01, 0.00000000e+00, 5.0000000000, 5.0000000000, 0.0842722800
          50, 0.00000000e+00, 0.00000000e+00, 0.00000000e+00, 0.00000000e+00, 0.00000000e+00, 0.00000000e+00, 0.00000000e+00, 0.00000000e+00, 0.00000000e+00, 0.00000000e+00, 0.00000000e+00, 0.00000000e+00, -5.80993870e+00, -3.23637281e+00, -2.33115154e+00, -3.29124459e-01, 0.00000000e+00, 5.0000000000, 5.0000000000, 0.0859144392
          51, 0.00000000e+00, 0.00000000e+00, 0.00000000e+00, 0.00000000e+00, 0.00000000e+00, 0.00000000e+00, 0.00000000e+00, 0.00000000e+00, 0.00000000e+00, 0.00000000e+00, 0.00000000e+00, 0.00000000e+00, -5.70610179e+00, -3.13251787e+00, -2.32604970e+00, -2.25330950e-01, 0.00000000e+00, 5.0000000000, 5.0000000000, 0.0875463968
          52, 0.00000000e+00, 0.00000000e+00, 0.00000000e+00, 0.00000000e+00, 0.00000000e+00, 0.00000000e+00, 0.00000000e+00, 0.00000000e+00, 0.00000000e+00, 0.00000000e+00, 0.00000000e+00, 0.00000000e+00, -5.60856906e+00, -3.03494611e+00, -2.32108290e+00, -1.27846042e-01, 0.00000000e+00, 5.0000000000, 5.0000000000, 0.0891816241
          53, 0.00000000e+00, 0.00000000e+00, 0.00000000e+00, 0.00000000e+00, 0.00000000e+00, 0.00000000e+00, 0.00000000e+00, 0.00000000e+00, 0.00000000e+00, 0.00000000e+00, 0.00000000e+00, 0.00000000e+00, -5.51729942e+00, -2.94363468e+00, -2.31624554e+00, -3.66274700e-02, 0.00000000e+00, 5.0000000000, 5.0000000000, 0.0908286578
          54, 0.00000000e+00, 0.00000000e+00, 0.00000000e+00, 0.00000000e+00, 0.00000000e+00, 0.00000000e+00, 0.00000000e+00, 0.00000000e+00, 0.00000000e+00, 0.00000000e+00, 0.00000000e+00, 0.00000000e+00, -5.43222512e+00, -2.85852405e+00, -2.31153240e+00, 4.83928746e-02, 0.00000000e+00, 5.0000000000, 5.0000000000, 0.0924701322
          55, 0.00000000e+00, 0.00000000e+00, 0.00000000e+00, 0.00000000e+00, 0.00000000e+00, 0.00000000e+00, 0.00000000e+00, 0.00000000e+00, 0.00000000e+00, 0.00000000e+00, 0.00000000e+00, 0.00000000e+00, -5.35327192e+00, -2.77954347e+00, -2.30693857e+00, 1.27289244e-01, 0.00000000e+00, 5.0000000000, 5.0000000000, 0.0942918617
          56, 0.00000000e+00, 0.00000000e+00, 0.00000000e+00, 0.00000000e+00, 0.00000000e+00, 0.00000000e+00, 0.00000000e+00, 0.00000000e+00, 0.00000000e+00, 0.00000000e+00, 0.00000000e+00, 0.00000000e+00, -5.28037076e+00, -2.70662520e+00, -2.30245945e+00, 2.00130570e-01, 0.00000000e+00, 5.0000000000, 5.0000000000, 0.0960660442
          57, 0.00000000e+00, 0.00000000e+00, 0.00000000e+00, 0.00000000e+00, 0.00000000e+00, 0.00000000e+00, 0.00000000e+00, 0.00000000e+00, 0.00000000e+00, 0.00000000e+00, 0.00000000e+00, 0.00000000e+00, -5.21345934e+00, -2.63970724e+00, -2.29809067e+00, 2.66979039e-01, 0.00000000e+00, 5.0000000000, 5.0000000000, 0.0977089171
          58, 0.00000000e+00, 0.00000000e+00, 0.00000000e+00, 0.00000000e+00, 0.00000000e+00, 0.00000000e+00, 0.00000000e+00, 0.00000000e+00, 0.00000000e+00, 0.00000000e+00, 0.00000000e+00, 0.00000000e+00, -5.15247986e+00, -2.57873179e+00, -2.29382811e+00, 3.27892317e-01, 0.00000000e+00, 5.0000000000, 5.0000000000, 0.0993400353
          59, 0.00000000e+00, 0.00000000e+00, 0.00000000e+00, 0.00000000e+00, 0.00000000e+00, 0.00000000e+00, 0.00000000e+00, 0.00000000e+00, 0.00000000e+00, 0.00000000e+00, 0.00000000e+00, 0.00000000e+00, -5.09737639e+00, -2.52364275e+00, -2.28966785e+00, 3.82926247e-01, 0.00000000e+00, 5.0000000000, 5.0000000000, 0.1009634240
          60, 0.00000000e+00, 0.00000000e+00, 0.00000000e+00, 0.00000000e+00, 0.00000000e+00, 0.00000000e+00, 0.00000000e+00, 0.00000000e+00, 0.00000000e+00, 0.00000000e+00, 0.00000000e+00, 0.00000000e+00, -5.04809221e+00, -2.47438325e+00, -2.28560614e+00, 4.32137494e-01, 0.00000000e+00, 5.0000000000, 5.0000000000, 0.1026047158
          61, 0.00000000e+00, 0.00000000e+00, 0.00000000e+00, 0.00000000e+00, 0.00000000e+00, 0.00000000e+00, 0.00000000e+00, 0.00000000e+00, 0.00000000e+00, 0.00000000e+00, 0.00000000e+00, 0.00000000e+00, -5.00456688e+00, -2.43089269e+00, -2.28163937e+00, 4.75586522e-01, 0.00000000e+00, 5.0000000000, 5.0000000000, 0.1042343196
          62, 0.00000000e+00, 0.00000000e+00, 0.00000000e+00, 0.00000000e+00, 0.00000000e+00, 0.00000000e+00, 0.00000000e+00, 0.00000000e+00, 0.00000000e+00, 0.00000000e+00, 0.00000000e+00, 0.00000000e+00, -4.96673239e+00, -2.39310289e+00, -2.27776401e+00, 5.13341526e-01, 0.00000000e+00, 5.0000000000, 5.0000000000, 0.1058693803
          63, 0.00000000e+00, 0.00000000e+00, 0.00000000e+00, 0.00000000e+00, 0.00000000e+00, 0.00000000e+00, 0.00000000e+00, 0.00000000e+00, 0.00000000e+00, 0.00000000e+00, 0.00000000e+00, 0.00000000e+00, -4.93450756e+00, -2.36093257e+00, -2.27397661e+00, 5.45484041e-01, 0.00000000e+00, 5.0000000000, 5.0000000000, 0.1075096774
          64, 0.00000000e+00, 0.00000000e+00, 0.00000000e+00, 0.00000000e+00, 0.00000000e+00, 0.00000000e+00, 0.00000000e+00, 0.00000000e+00, 0.00000000e+00, 0.00000000e+00, 0.00000000e+00, 0.00000000e+00, -4.90779003e+00, -2.33427930e+00, -2.27027370e+00, 5.72117129e-01, 0.00000000e+00, 5.0000000000, 5.0000000000, 0.1091455935
          65, 0.00000000e+00, 0.00000000e+00, 0.00000000e+00, 0.00000000e+00, 0.00000000e+00, 0.00000000e+00, 0.00000000e+00, 0.00000000e+00, 0.00000000e+00, 0.00000000e+00, 0.00000000e+00, 0.00000000e+00, -4.88644448e+00, -2.31300767e+00, -2.26665181e+00, 5.93377230e-01, 0.00000000e+00, 5.0000000000, 5.0000000000, 0.1107865925
          66, 0.00000000e+00, 0.00000000e+00, 0.00000000e+00, 0.00000000e+00, 0.00000000e+00, 0.00000000e+00, 0.00000000e+00, 0.00000000e+00, 0.00000000e+00, 0.00000000e+00, 0.00000000e+00, 0.00000000e+00, -4.87028592e+00, -2.29693234e+00, -2.26310751e+00, 6.09451102e-01, 0.00000000e+00, 5.0000000000, 5.0000000000, 0.1124438076
          67, 0.00000000e+00, 0.00000000e+00, 0.00000000e+00, 0.00000000e+00, 0.00000000e+00, 0.00000000e+00, 0.00000000e+00, 0.00000000e+00, 0.00000000e+00, 0.00000000e+00, 0.00000000e+00, 0.00000000e+00, -4.85905635e+00, -2.28579430e+00, -2.25963735e+00, 6.20599429e-01, 0.00000000e+00, 5.0000000000, 5.0000000000, 0.1142382798
          68, 0.00000000e+00, 0.00000000e+00, 0.00000000e+00, 0.00000000e+00, 0.00000000e+00, 0.00000000e+00, 0.00000000e+00, 0.00000000e+00, 0.00000000e+00, 0.00000000e+00, 0.00000000e+00, 0.00000000e+00, -4.85239322e+00, -2.27922877e+00, -2.25623796e+00, 6.27188630e-01, 0.00000000e+00, 5.0000000000, 5.0000000000, 0.1160342565
          69, 0.00000000e+00, 0.00000000e+00, 0.00000000e+00, 0.00000000e+00, 0.00000000e+00, 0.00000000e+00, 0.00000000e+00, 0.00000000e+00, 0.00000000e+00, 0.00000000e+00, 0.00000000e+00, 0.00000000e+00, -4.84978934e+00, -2.27672429e+00, -2.25290610e+00, 6.29731251e-01, 0.00000000e+00, 5.0000000000, 5.0000000000, 0.1177173792
          70, 0.00000000e+00, 0.00000000e+00, 0.00000000e+00, 0.00000000e+00, 0.00000000e+00, 0.00000000e+00, 0.00000000e+00, 0.00000000e+00, 0.00000000e+00, 0.00000000e+00, 0.00000000e+00, 0.00000000e+00, -4.85054672e+00, -2.27757573e+00, -2.24963869e+00, 6.28932252e-01, 0.00000000e+00, 5.0000000000, 5.0000000000, 0.1193518732
          71, 0.00000000e+00, 0.00000000e+00, 0.00000000e+00, 0.00000000e+00, 0.00000000e+00, 0.00000000e+00, 0.00000000e+00, 0.00000000e+00, 0.00000000e+00, 0.00000000e+00, 0.00000000e+00, 0.00000000e+00, -4.85373343e+00, -2.28084042e+00, -2.24643288e+00, 6.25731834e-01, 0.00000000e+00, 5.0000000000, 5.0000000000, 0.1209856282
          72, 0.00000000e+00, 0.00000000e+00, 0.00000000e+00, 0.00000000e+00, 0.00000000e+00, 0.00000000e+00, 0.00000000e+00, 0.00000000e+00, 0.00000000e+00, 0.00000000e+00, 0.00000000e+00, 0.00000000e+00, -4.85816348e+00, -2.28531810e+00, -2.24328609e+00, 6.21324351e-01, 0.00000000e+00, 5.0000000000, 5.0000000000, 0.1226293240
          73, 0.00000000e+00, 0.00000000e+00, 0.00000000e+00, 0.00000000e+00, 0.00000000e+00, 0.00000000e+00, 0.00000000e+00, 0.00000000e+00, 0.00000000e+00, 0.00000000e+00, 0.00000000e+00, 0.00000000e+00, -4.86243254e+00, -2.28958836e+00, -2.24019604e+00, 6.17120158e-01, 0.00000000e+00, 5.0000000000, 5.0000000000, 0.1242772047
          74, 0.00000000e+00, 0.00000000e+00, 0.00000000e+00, 0.00000000e+00, 0.00000000e+00, 0.00000000e+00, 0.00000000e+00, 0.00000000e+00, 0.00000000e+00, 0.00000000e+00, 0.00000000e+00, 0.00000000e+00, -4.86504597e+00, -2.29214267e+00, -2.23716076e+00, 6.14614059e-01, 0.00000000e+00, 5.0000000000, 5.0000000000, 0.1259156556
          75, 0.00000000e+00, 0.00000000e+00, 0.00000000e+00, 0.00000000e+00, 0.00000000e+00, 0.00000000e+00, 0.00000000e+00, 0.00000000e+00, 0.00000000e+00, 0.00000000e+00, 0.00000000e+00, 0.00000000e+00, -4.86465102e+00, -2.29162236e+00, -2.23417859e+00, 6.15149968e-01, 0.00000000e+00, 5.0000000000, 5.0000000000, 0.1275563049
          76, 0.00000000e+00, 0.00000000e+00, 0.00000000e+00, 0.00000000e+00, 0.00000000e+00, 0.00000000e+00, 0.00000000e+00, 0.00000000e+00, 0.00000000e+00, 0.00000000e+00, 0.00000000e+00, 0.00000000e+00, -4.86032212e+00, -2.28710828e+00, -2.23124828e+00, 6.19635457e-01, 0.00000000e+00, 5.0000000000, 5.0000000000, 0.1291988818
          77, 0.00000000e+00, 0.00000000e+00, 0.00000000e+00, 0.00000000e+00, 0.00000000e+00, 0.00000000e+00, 0.00000000e+00, 0.00000000e+00, 0.00000000e+00, 0.00000000e+00, 0.00000000e+00, 0.00000000e+00, -4.85178067e+00, -2.27833997e+00, -2.22836890e+00, 6.28326188e-01, 0.00000000e+00, 5.0000000000, 5.0000000000, 0.1308424424
          78, 0.00000000e+00, 0.00000000e+00, 0.00000000e+00, 0.00000000e+00, 0.00000000e+00, 0.00000000e+00, 0.00000000e+00, 0.00000000e+00, 0.00000000e+00, 0.00000000e+00, 0.00000000e+00, 0.00000000e+00, -4.83943268e+00, -2.26574626e+00, -2.22553962e+00, 6.40795419e-01, 0.00000000e+00, 5.0000000000, 5.0000000000, 0.1325034092
          79, 0.00000000e+00, 0.00000000e+00, 0.00000000e+00, 0.00000000e+00, 0.00000000e+00, 0.00000000e+00, 0.00000000e+00, 0.00000000e+00, 0.00000000e+00, 0.00000000e+00, 0.00000000e+00, 0.00000000e+00, -4.82420256e+00, -2.25026946e+00, -2.22275956e+00, 6.56106129e-01, 0.00000000e+00, 5.0000000000, 5.0000000000, 0.1343343184
          80, 0.00000000e+00, 0.00000000e+00, 0.00000000e+00, 0.00000000e+00, 0.00000000e+00, 0.00000000e+00, 0.00000000e+00, 0.00000000e+00, 0.00000000e+00, 0.00000000e+00, 0.00000000e+00, 0.00000000e+00, -4.80725557e+00, -2.23308071e+00, -2.22002772e+00, 6.73090139e-01, 0.00000000e+00, 5.0000000000, 5.0000000000, 0.1360844173
          81, 0.00000000e+00, 0.00000000e+00, 0.00000000e+00, 0.00000000e+00, 0.00000000e+00, 0.00000000e+00, 0.00000000e+00, 0.00000000e+00, 0.00000000e+00, 0.00000000e+00, 0.00000000e+00, 0.00000000e+00, -4.78973813e+00, -2.21531791e+00, -2.21734301e+00, 6.90605648e-01, 0.00000000e+00, 5.0000000000, 5.0000000000, 0.1377665625
          82, 0.00000000e+00, 0.00000000e+00, 0.00000000e+00, 0.00000000e+00, 0.00000000e+00, 0.00000000e+00, 0.00000000e+00, 0.00000000e+00, 0.00000000e+00, 0.00000000e+00, 0.00000000e+00, 0.00000000e+00, -4.77261344e+00, -2.19792223e+00, -2.21470421e+00, 7.07698094e-01, 0.00000000e+00, 5.0000000000, 5.0000000000, 0.1393868645
          83, 0.00000000e+00, 0.00000000e+00, 0.00000000e+00, 0.00000000e+00, 0.00000000e+00, 0.00000000e+00, 0.00000000e+00, 0.00000000e+00, 0.00000000e+00, 0.00000000e+00, 0.00000000e+00, 0.00000000e+00, -4.75659898e+00, -2.18157708e+00, -2.21210997e+00, 7.23659785e-01, 0.00000000e+00, 5.0000000000, 5.0000000000, 0.1410338399
          84, 0.00000000e+00, 0.00000000e+00, 0.00000000e+00, 0.00000000e+00, 0.00000000e+00, 0.00000000e+00, 0.00000000e+00, 0.00000000e+00, 0.00000000e+00, 0.00000000e+00, 0.00000000e+00, 0.00000000e+00, -4.74217375e+00, -2.16671610e+00, -2.20955888e+00, 7.38020958e-01, 0.00000000e+00, 5.0000000000, 5.0000000000, 0.1427927071
          85, 0.00000000e+00, 0.00000000e+00, 0.00000000e+00, 0.00000000e+00, 0.00000000e+00, 0.00000000e+00, 0.00000000e+00, 0.00000000e+00, 0.00000000e+00, 0.00000000e+00, 0.00000000e+00, 0.00000000e+00, -4.72961929e+00, -2.15356362e+00, -2.20704946e+00, 7.50508128e-01, 0.00000000e+00, 5.0000000000, 5.0000000000, 0.1443991817
          86, 0.00000000e+00, 0.00000000e+00, 0.00000000e+00, 0.00000000e+00, 0.00000000e+00, 0.00000000e+00, 0.00000000e+00, 0.00000000e+00, 0.00000000e+00, 0.00000000e+00, 0.00000000e+00, 0.00000000e+00, -4.71906964e+00, -2.14218330e+00, -2.20458027e+00, 7.60994062e-01, 0.00000000e+00, 5.0000000000, 5.0000000000, 0.1460274677
          87, 0.00000000e+00, 0.00000000e+00, 0.00000000e+00, 0.00000000e+00, 0.00000000e+00, 0.00000000e+00, 0.00000000e+00, 0.00000000e+00, 0.00000000e+00, 0.00000000e+00, 0.00000000e+00, 0.00000000e+00, -4.71055758e+00, -2.13252295e+00, -2.20214989e+00, 7.69451737e-01, 0.00000000e+00, 5.0000000000, 5.0000000000, 0.1476411643
          88, 0.00000000e+00, 0.00000000e+00, 0.00000000e+00, 0.00000000e+00, 0.00000000e+00, 0.00000000e+00, 0.00000000e+00, 0.00000000e+00, 0.00000000e+00, 0.00000000e+00, 0.00000000e+00, 0.00000000e+00, -4.70405234e+00, -2.12445155e+00, -2.19975701e+00, 7.75916806e-01, 0.00000000e+00, 5.0000000000, 5.0000000000, 0.1492808580