VARIABLES = "x"
 "y"
 "Density"
 "Momentum_x"
 "Momentum_y"
 "Energy"
 "Pressure"
 "Temperature"
 "Mach"
 "C<sub>p</sub>"
 "Roe_Dissipation"
ZONE
DT=(DOUBLE,DOUBLE,DOUBLE,DOUBLE,DOUBLE,DOUBLE,DOUBLE,DOUBLE,DOUBLE,DOUBLE,DOUBLE)
                     -2                    -0.6        1.22509002685547        41.6850891113281    5.83742887803549E-14           254021.796875                  101325        288.123809814453      0.0999941006302834    4.78687215945683E-05                       0 
      -1.99749874937469                    -0.6        1.22509002685547        41.6850891113281   -6.32833518761446E-12           254021.796875                  101325        288.123809814453      0.0999941006302834    4.78686893004524E-05                       0 
      -1.99499749874937                    -0.6        1.22509002685547        41.6850891113281   -1.27150446640098E-11           254021.796875                  101325        288.123809814453      0.0999941006302834    4.78686570063365E-05                       0 
      -1.99249624812406                    -0.6        1.22509002685547        41.6850891113281   -1.91017541404047E-11           254021.796875                  101325        288.123809814453      0.0999941006302834    4.78686247122205E-05                       0 
      -1.98999499749875                    -0.6        1.22509002685547        41.6850891113281   -2.54884636167995E-11           254021.796875                  101325        288.123809814453      0.0999941006302834    4.78685924181046E-05                       0 
      -1.98749374687344                    -0.6        1.22509002685547        41.6850891113281   -3.18751730931943E-11           254021.796875                  101325        288.123809814453      0.0999941006302834    4.78685601239886E-05                       0 
      -1.98499249624812                    -0.6        1.22509002685547        41.6850891113281   -3.82618825695897E-11           254021.796875                  101325        288.123809814453      0.0999941006302834    4.78685278298726E-05                       0 
      -1.98249124562281                    -0.6        1.22509002685547        41.6850891113281   -4.46485920459845E-11           254021.796875                  101325        288.123809814453      0.0999941006302834    4.78684955357567E-05                       0 
       -1.9799899949975                    -0.6        1.22509002685547        41.6850891113281   -5.10353015223793E-11           254021.796875                  101325        288.123809814453      0.0999941006302834    4.78684632416408E-05                       0 
      -1.97748874437219                    -0.6        1.22509002685547        41.6850891113281   -5.74220109987747E-11           254021.796875                  101325        288.123809814453      0.0999941006302834    4.78684309475248E-05                       0 
      -1.97498749374687                    -0.6        1.22509002685547        41.6850891113281   -6.36603099961147E-11           254021.796875                  101325        288.123809814453      0.0999941006302834    4.78683986534089E-05                       0 
      -1.97248624312156                    -0.6        1.22509002685547        41.6850891113281   -6.97861088045724E-11           254021.796875                  101325        288.123809814453      0.0999941006302834    4.78683663592929E-05                       0 
      -1.96998499249625                    -0.6        1.22509002685547        41.6850891113281   -7.61541944530143E-11           254021.796875                  101325        288.123809814453      0.0999941006302834     4.7868334065177E-05                       0 
      -1.96748374187094                    -0.6        1.22509002685547        41.6850891113281   -8.25409039294091E-11           254021.796875                  101325        288.123809814453      0.0999941006302834     4.7868301771061E-05                       0 
      -1.96498249124562                    -0.6        1.22509002685547        41.6850891113281   -8.89276134058039E-11           254021.796875                  101325        288.123809814453      0.0999941006302834    4.78682694769451E-05                       0 
      -1.96248124062031                    -0.6        1.22509002685547        41.6850891113281   -9.53143228821988E-11           254021.796875                  101325        288.123809814453      0.0999941006302834    4.78682371828291E-05                       0 
        -1.959979989995                    -0.6        1.22509002685547        41.6850891113281   -1.01701032358594E-10           254021.796875                  101325        288.123809814453      0.0999941006302834    4.78682048887132E-05                       0 
      -1.95747873936968                    -0.6        1.22509002685547        41.6850891113281   -1.08087741834989E-10           254021.796875                  101325        288.123809814453      0.0999941006302834    4.78681725945972E-05                       0 
      -1.95497748874437                    -0.6        1.22509002685547        41.6850891113281   -1.14474451311384E-10           254021.796875                  101325        288.123809814453      0.0999941006302834    4.78681403004813E-05                       0 
      -1.95247623811906                    -0.6        1.22509002685547        41.6850891113281   -1.20861160787779E-10           254021.796875                  101325        288.123809814453      0.0999941006302834    4.78681080063653E-05                       0 
      -1.94997498749375                    -0.6        1.22509002685547        41.6850891113281   -1.27247870264174E-10           254021.796875                  101325        288.123809814453      0.0999941006302834    4.78680757122494E-05                       0 
      -1.94747373686843                    -0.6        1.22509002685547        41.6850891113281   -1.33547662580598E-10           254021.796875                  101325        288.123809814453      0.0999941006302834    4.78680472576473E-05                       0 
      -1.94497248624312                    -0.6        1.22509002685547        41.6850891113281   -1.39759642113116E-10           254021.796875                  101325        288.123809814453      0.0999941006302834    4.78680226821229E-05                       0 
      -1.94247123561781                    -0.6        1.22509002685547        41.6850891113281   -1.45971621645632E-10           254021.796875                  101325        288.123809814453      0.0999941006302834    4.78679981065984E-05                       0 
       -1.9399699849925                    -0.6        1.22509002685547        41.6850891113281   -1.52183601178149E-10           254021.796875                  101325        288.123809814453      0.0999941006302834    4.78679735310739E-05                       0 
      -1.93746873436718                    -0.6        1.22509002685547        41.6850891113281   -1.58395580710666E-10           254021.796875                  101325        288.123809814453      0.0999941006302834    4.78679489555494E-05                       0 
      -1.93496748374187                    -0.6        1.22509002685547        41.6850891113281   -1.64607560243183E-10           254021.796875                  101325        288.123809814453      0.0999941006302834    4.78679243800249E-05                       0 
      -1.93246623311656                    -0.6        1.22509002685547        41.6850891113281     -1.708195397757E-10           254021.796875                  101325        288.123809814453      0.0999941006302834    4.78678998045004E-05                       0 
      -1.92996498249125                    -0.6        1.22509002685547        41.6850891113281   -1.77031519308216E-10           254021.796875                  101325        288.123809814453      0.0999941006302834     4.7867875228976E-05                       0 
      -1.92746373186593                    -0.6        1.22509002685547        41.6850891113281   -1.83243498840733E-10           254021.796875                  101325        288.123809814453      0.0999941006302834    4.78678506534515E-05                       0 
      -1.92496248124062                    -0.6        1.22509002685547        41.6850891113281   -1.89438136147578E-10           254021.796875                  101325        288.123809814453      0.0999941006302834    4.78678260955671E-05                       0 
      -1.92246123061531                    -0.6        1.22509002685547        41.6850891113281   -1.95388449939864E-10           254021.796875                  101325        288.123809814453      0.0999941006302834    4.78678017862036E-05                       0 
      -1.91995997998999                    -0.6        1.22509002685547        41.6850891113281   -2.01450254993467E-10           254021.796875                  101325        288.123809814453      0.0999941006302834    4.78677773634334E-05                       0 
      -1.91745872936468                    -0.6        1.22509002685547        41.6850891113281   -2.07662234525984E-10           254021.796875                  101325        288.123809814453      0.0999941006302834    4.78677527879089E-05                       0 
      -1.91495747873937                    -0.6        1.22509002685547        41.6850891113281   -2.13874214058501E-10           254021.796875                  101325        288.123809814453      0.0999941006302834    4.78677282123845E-05                       0 
      -1.91245622811406                    -0.6        1.22509002685547        41.6850891113281   -2.20086193591017E-10           254021.796875                  101325        288.123809814453      0.0999941006302834      4.786770363686E-05                       0 
      -1.90995497748874                    -0.6        1.22509002685547        41.6850891113281   -2.26298173123535E-10           254021.796875                  101325        288.123809814453      0.0999941006302834    4.78676790613355E-05                       0 
      -1.90745372686343                    -0.6        1.22509002685547        41.6850891113281   -2.32510152656051E-10           254021.796875                  101325        288.123809814453      0.0999941006302834     4.7867654485811E-05                       0 
      -1.90495247623812                    -0.6        1.22509002685547        41.6850891113281   -2.38722132188568E-10           254021.796875                  101325        288.123809814453      0.0999941006302834    4.78676299102865E-05                       0 
      -1.90245122561281                    -0.6        1.22509002685547        41.6850891113281   -2.44934111721085E-10           254021.796875                  101325        288.123809814453      0.0999941006302834     4.7867605334762E-05                       0 
      -1.89994997498749                    -0.6        1.22509002685547        41.6850891113281   -2.51146091253602E-10           254021.796875                  101325        288.123809814453      0.0999941006302834    4.78675807592376E-05                       0 
      -1.89744872436218                    -0.6        1.22509002685547        41.6850891113281   -2.57358070786119E-10           254021.796875                  101325        288.123809814453      0.0999941006302834    4.78675561837131E-05                       0 
      -1.89494747373687                    -0.6        1.22509002685547        41.6850891113281   -2.63465627985723E-10           254021.796875                  101325        288.123809814453      0.0999941006302834    4.78675283422714E-05                       0 
      -1.89244622311156                    -0.6        1.22509002685547        41.6850891113281   -2.69572652211663E-10           254021.796875                  101325        288.123809814453      0.0999941006302834    4.78675004841604E-05                       0 
      -1.88994497248624                    -0.6        1.22509002685547        41.6850891113281   -2.75679676437603E-10           254021.796875                  101325        288.123809814453      0.0999941006302834    4.78674726260493E-05                       0 
      -1.88744372186093                    -0.6        1.22509002685547        41.6850891113281   -2.81786700663543E-10           254021.796875                  101325        288.123809814453      0.0999941006302834    4.78674447679383E-05                       0 
      -1.88494247123562                    -0.6        1.22509002685547        41.6850891113281   -2.87893724889483E-10           254021.796875                  101325        288.123809814453      0.0999941006302834    4.78674169098273E-05                       0 
      -1.88244122061031                    -0.6        1.22509002685547        41.6850891113281   -2.94000749115423E-10           254021.796875                  101325        288.123809814453      0.0999941006302834    4.78673890517163E-05                       0 
      -1.87993996998499                    -0.6        1.22509002685547        41.6850891113281   -3.00107773341363E-10           254021.796875                  101325        288.123809814453      0.0999941006302834    4.78673611936053E-05                       0 
      -1.87743871935968                    -0.6        1.22509002685547        41.6850891113281   -3.06214797567303E-10           254021.796875                  101325        288.123809814453      0.0999941006302834    4.78673333354943E-05                       0 
      -1.87493746873437                    -0.6        1.22509002685547        41.6850891113281   -3.12321821793243E-10           254021.796875                  101325        288.123809814453      0.0999941006302834    4.78673054773833E-05                       0 
      -1.87243621810905                    -0.6        1.22509002685547        41.6850891113281   -3.18283473165661E-10           254021.796875                  101325        288.123809814453      0.0999941006302834    4.78672776192723E-05                       0 
      -1.86993496748374                    -0.6        1.22509002685547        41.6850891113281   -3.24132624821839E-10           254021.796875                  101325        288.123809814453      0.0999941006302834    4.78672497611613E-05                       0 
      -1.86743371685843                    -0.6        1.22509002685547        41.6850891113281   -3.30219932576563E-10           254021.796875                  101325        288.123809814453      0.0999941006302834    4.78672219030503E-05                       0 
      -1.86493246623312                    -0.6        1.22509002685547        41.6850891113281   -3.36326956802503E-10           254021.796875                  101325        288.123809814453      0.0999941006302834    4.78671940449392E-05                       0 
       -1.8624312156078                    -0.6        1.22509002685547        41.6850891113281   -3.42433981028443E-10           254021.796875                  101325        288.123809814453      0.0999941006302834    4.78671661868282E-05                       0 
      -1.85992996498249                    -0.6        1.22509002685547        41.6850891113281   -3.48541005254383E-10           254021.796875                  101325        288.123809814453      0.0999941006302834    4.78671383287172E-05                       0 
      -1.85742871435718                    -0.6        1.22509002685547        41.6850891113281   -3.54648029480323E-10           254021.796875                  101325        288.123809814453      0.0999941006302834    4.78671104706062E-05                       0 
      -1.85492746373187                    -0.6        1.22509002685547        41.6850891113281   -3.60755053706263E-10           254021.796875                  101325        288.123809814453      0.0999941006302834    4.78670826124952E-05                       0 
      -1.85242621310655                    -0.6        1.22509002685547        41.6850891113281   -3.66862077932203E-10           254021.796875                  101325        288.123809814453      0.0999941006302834    4.78670547543842E-05                       0 
      -1.84992496248124                    -0.6        1.22509002685547        41.6850891113281   -3.72969102158143E-10           254021.796875                  101325        288.123809814453      0.0999941006302834    4.78670268962732E-05                       0 
      -1.84742371185593                    -0.6        1.22509002685547        41.6850891113281   -3.79076126384083E-10           254021.796875                  101325        288.123809814453      0.0999941006302834    4.78669990381622E-05                       0 
      -1.84492246123062                    -0.6        1.22509002685547        41.6850891113281    -3.8513924473524E-10           254021.796875                  101325        288.123809814453      0.0999941006302834    4.78669721847109E-05                       0 
       -1.8424212106053                    -0.6        1.22509002685547        41.6850891113281   -3.91157094450003E-10           254021.796875                  101325        288.123809814453      0.0999941006302834    4.78669463671021E-05                       0 
      -1.83991995997999                    -0.6        1.22509002685547        41.6850891113281   -3.97174944164766E-10           254021.796875                  101325        288.123809814453      0.0999941006302834    4.78669205494933E-05                       0 
      -1.83741870935468                    -0.6        1.22509002685547        41.6850891113281   -4.03192793879529E-10           254021.796875                  101325        288.123809814453      0.0999941006302834    4.78668947318846E-05                       0 
      -1.83491745872936                    -0.6        1.22509002685547        41.6850891113281   -4.09210643594292E-10           254021.796875                  101325        288.123809814453      0.0999941006302834    4.78668689142758E-05                       0 
      -1.83241620810405                    -0.6        1.22509002685547        41.6850891113281   -4.15228493309055E-10           254021.796875                  101325        288.123809814453      0.0999941006302834    4.78668430966671E-05                       0 
      -1.82991495747874                    -0.6        1.22509002685547        41.6850891113281   -4.21246343023818E-10           254021.796875                  101325        288.123809814453      0.0999941006302834    4.78668172790583E-05                       0 
      -1.82741370685343                    -0.6        1.22509002685547        41.6850891113281   -4.27264192738581E-10           254021.796875                  101325        288.123809814453      0.0999941006302834    4.78667914614496E-05                       0 
      -1.82491245622811                    -0.6        1.22509002685547        41.6850891113281   -4.33282042453343E-10           254021.796875                  101325        288.123809814453      0.0999941006302834    4.78667656438408E-05                       0 
       -1.8224112056028                    -0.6        1.22509002685547        41.6850891113281   -4.39285274073036E-10           254021.796875                  101325        288.123809814453      0.0999941006302834    4.78667398208026E-05                       0 
      -1.81990995497749                    -0.6        1.22509002685547        41.6850891113281   -4.45064258824803E-10           254021.796875                  101325        288.123809814453      0.0999941006302834    4.78667139144735E-05                       0 
      -1.81740870435218                    -0.6        1.22509002685547        41.6850891113281   -4.50943806839302E-10           254021.796875                  101325        288.123809814453      0.0999941006302834    4.78666880454961E-05                       0 
      -1.81490745372686                    -0.6        1.22509002685547        41.6850891113281   -4.56961656554065E-10           254021.796875                  101325        288.123809814453      0.0999941006302834    4.78666622278873E-05                       0 
      -1.81240620310155                    -0.6        1.22509002685547        41.6850891113281   -4.62979506268828E-10           254021.796875                  101325        288.123809814453      0.0999941006302834    4.78666364102786E-05                       0 
      -1.80990495247624                    -0.6        1.22509002685547        41.6850891113281   -4.68997355983591E-10           254021.796875                  101325        288.123809814453      0.0999941006302834    4.78666105926698E-05                       0 
      -1.80740370185093                    -0.6        1.22509002685547        41.6850891113281   -4.75015205698354E-10           254021.796875                  101325        288.123809814453      0.0999941006302834    4.78665847750611E-05                       0 
      -1.80490245122561                    -0.6        1.22509002685547        41.6850891113281   -4.81033055413117E-10           254021.796875                  101325        288.123809814453      0.0999941006302834    4.78665589574523E-05                       0 
       -1.8024012006003                    -0.6        1.22509002685547        41.6850891113281    -4.8705090512788E-10           254021.796875                  101325        288.123809814453      0.0999941006302834    4.78665331398436E-05                       0 
      -1.79989994997499                    -0.6        1.22509002685547        41.6850891113281   -4.93068754842643E-10           254021.796875                  101325        288.123809814453      0.0999941006302834    4.78665073222348E-05                       0 
      -1.79739869934967                    -0.6        1.22509002685547        41.6850891113281   -4.99086604557405E-10           254021.796875                  101325        288.123809814453      0.0999941006302834    4.78664815046261E-05                       0 
      -1.79489744872436                    -0.6        1.22509002685547        41.6850891113281   -5.05104454272168E-10           254021.796875                  101325        288.123809814453      0.0999941006302834    4.78664556870173E-05                       0 
      -1.79239619809905                    -0.6        1.22509002685547        41.6850891113281   -5.11081300506865E-10           254021.796875                  101325        288.123809814453      0.0999941006302834    4.78664293425537E-05                       0 
      -1.78989494747374                    -0.6        1.22509002685547        41.6850891113281   -5.17057726029081E-10           254021.796875                  101325        288.123809814453      0.0999941006302834    4.78664029926844E-05                       0 
      -1.78739369684842                    -0.6        1.22509002685547        41.6850891113281   -5.23034151551297E-10           254021.796875                  101325        288.123809814453      0.0999941006302834    4.78663766428151E-05                       0 
      -1.78489244622311                    -0.6        1.22509002685547        41.6850891113281   -5.29010577073513E-10           254021.796875                  101325        288.123809814453      0.0999941006302834    4.78663502929457E-05                       0 
       -1.7823911955978                    -0.6        1.22509002685547        41.6850891113281   -5.34987002595729E-10           254021.796875                  101325        288.123809814453      0.0999941006302834    4.78663239430764E-05                       0 
      -1.77988994497249                    -0.6        1.22509002685547        41.6850891113281   -5.40963428117945E-10           254021.796875                  101325        288.123809814453      0.0999941006302834    4.78662975932071E-05                       0 
      -1.77738869434717                    -0.6        1.22509002685547        41.6850891113281   -5.46939853640161E-10           254021.796875                  101325        288.123809814453      0.0999941006302834    4.78662712433377E-05                       0 
      -1.77488744372186                    -0.6        1.22509002685547        41.6850891113281   -5.52916279162377E-10           254021.796875                  101325        288.123809814453      0.0999941006302834    4.78662448934684E-05                       0 
      -1.77238619309655                    -0.6        1.22509002685547        41.6850891113281   -5.58892704684593E-10           254021.796875                  101325        288.123809814453      0.0999941006302834    4.78662185435991E-05                       0 
      -1.76988494247124                    -0.6        1.22509002685547        41.6850891113281   -5.64740611715782E-10           254021.796875                  101325        288.123809814453      0.0999941006302834    4.78661922432942E-05                       0 
      -1.76738369184592                    -0.6        1.22509002685547        41.6850891113281   -5.70486989877432E-10           254021.796875                  101325        288.123809814453      0.0999941006302834     4.7866165982145E-05                       0 
      -1.76488244122061                    -0.6        1.22509002685547        41.6850891113281   -5.76444658189933E-10           254021.796875                  101325        288.123809814453      0.0999941006302834    4.78661396395096E-05                       0 
       -1.7623811905953                    -0.6        1.22509002685547        41.6850891113281   -5.82421083712149E-10           254021.796875                  101325        288.123809814453      0.0999941006302834    4.78661132896402E-05                       0 
      -1.75987993996998                    -0.6        1.22509002685547        41.6850891113281   -5.88397509234366E-10           254021.796875                  101325        288.123809814453      0.0999941006302834    4.78660869397709E-05                       0 
      -1.75737868934467                    -0.6        1.22509002685547        41.6850891113281   -5.94373934756581E-10           254021.796875                  101325        288.123809814453      0.0999941006302834    4.78660605899016E-05                       0 
      -1.75487743871936                    -0.6        1.22509002685547        41.6850891113281   -6.00350360278797E-10           254021.796875                  101325        288.123809814453      0.0999941006302834    4.78660342400322E-05                       0 
      -1.75237618809405                    -0.6        1.22509002685547        41.6850891113281   -6.06326785801014E-10           254021.796875                  101325        288.123809814453      0.0999941006302834    4.78660078901629E-05                       0 
      -1.74987493746873                    -0.6        1.22509002685547        41.6850891113281    -6.1230321132323E-10           254021.796875                  101325        288.123809814453      0.0999941006302834    4.78659815402936E-05                       0 
      -1.74737368684342                    -0.6        1.22509002685547        41.6850891113281   -6.18279636845446E-10           254021.796875                  101325        288.123809814453      0.0999941006302834    4.78659551904242E-05                       0 
      -1.74487243621811                    -0.6        1.22509002685547        41.6850891113281   -6.24256062367662E-10           254021.796875                  101325        288.123809814453      0.0999941006302834    4.78659288405549E-05                       0 
       -1.7423711855928                    -0.6        1.22509002685547        41.6850891113281   -6.30182405688556E-10           254021.796875                  101325        288.123809814453      0.0999941006302834    4.78659029662333E-05                       0 
      -1.73986993496748                    -0.6        1.22509002685547        41.6850891113281   -6.36056052301198E-10           254021.796875                  101325        288.123809814453      0.0999941006302834    4.78658775922851E-05                       0 
      -1.73736868434217                    -0.6        1.22509002685547        41.6850891113281   -6.41929698913842E-10           254021.796875                  101325        288.123809814453      0.0999941006302834    4.78658522183368E-05                       0 
      -1.73486743371686                    -0.6        1.22509002685547        41.6850891113281   -6.47803345526484E-10           254021.796875                  101325        288.123809814453      0.0999941006302834    4.78658268443886E-05                       0 
      -1.73236618309155                    -0.6        1.22509002685547        41.6850891113281   -6.53676992139127E-10           254021.796875                  101325        288.123809814453      0.0999941006302834    4.78658014704403E-05                       0 
      -1.72986493246623                    -0.6        1.22509002685547        41.6850891113281    -6.5955063875177E-10           254021.796875                  101325        288.123809814453      0.0999941006302834    4.78657760964921E-05                       0 
      -1.72736368184092                    -0.6        1.22509002685547        41.6850891113281   -6.65424285364413E-10           254021.796875                  101325        288.123809814453      0.0999941006302834    4.78657507225438E-05                       0 
      -1.72486243121561                    -0.6        1.22509002685547        41.6850891113281   -6.71297931977056E-10           254021.796875                  101325        288.123809814453      0.0999941006302834    4.78657253485956E-05                       0 
       -1.7223611805903                    -0.6        1.22509002685547        41.6850891113281   -6.77171578589699E-10           254021.796875                  101325        288.123809814453      0.0999941006302834    4.78656999746473E-05                       0 