VARIABLES = "x"
 "y"
 "Density"
 "Momentum_x"
 "Momentum_y"
 "Energy"
 "Pressure"
 "Temperature"
 "Mach"
 "C<sub>p</sub>"
 "Roe_Dissipation"
ZONE
DT=(DOUBLE,DOUBLE,DOUBLE,DOUBLE,DOUBLE,DOUBLE,DOUBLE,DOUBLE,DOUBLE,DOUBLE,DOUBLE)
                      2                    1.25        1.22509002685547        41.6850891113281       0.287400990724564           254021.703125                  101325        288.123809814453      0.0999964997172356   -6.20395894657122E-08                       0 
                      2         1.2474974974975        1.22509002685547        41.6850891113281       0.287400990724564           254021.703125                  101325        288.123809814453      0.0999964997172356   -6.20367294823882E-08                       0 
                      2        1.24499499499499        1.22509002685547        41.6850891113281       0.287400990724564           254021.703125                  101325        288.123809814453      0.0999964997172356   -6.20338694990641E-08                       0 
                      2        1.24249249249249        1.22509002685547        41.6850891113281       0.287400990724564           254021.703125                  101325        288.123809814453      0.0999964997172356   -6.20310095157401E-08                       0 
                      2        1.23998998998999        1.22509002685547        41.6850891113281       0.287400990724564           254021.703125                  101325        288.123809814453      0.0999964997172356    -6.2028149532416E-08                       0 
                      2        1.23748748748749        1.22509002685547        41.6850891113281       0.287400990724564           254021.703125                  101325        288.123809814453      0.0999964997172356    -6.2025289549092E-08                       0 
                      2        1.23498498498498        1.22509002685547        41.6850891113281       0.287400990724564           254021.703125                  101325        288.123809814453      0.0999964997172356   -6.20224295657679E-08                       0 
                      2        1.23248248248248        1.22509002685547        41.6850891113281       0.287400990724564           254021.703125                  101325        288.123809814453      0.0999964997172356   -6.20195695824439E-08                       0 
                      2        1.22997997997998        1.22509002685547        41.6850891113281       0.287400990724564           254021.703125                  101325        288.123809814453      0.0999964997172356   -6.20167095991199E-08                       0 
                      2        1.22747747747748        1.22509002685547        41.6850891113281       0.287400990724564           254021.703125                  101325        288.123809814453      0.0999964997172356   -6.20138496157958E-08                       0 
                      2        1.22497497497497        1.22509002685547        41.6850891113281       0.287400990724564           254021.703125                  101325        288.123809814453      0.0999964997172356   -6.20109896324718E-08                       0 
                      2        1.22247247247247        1.22509002685547        41.6850891113281       0.287400990724564           254021.703125                  101325        288.123809814453      0.0999964997172356   -6.20081296491477E-08                       0 
                      2        1.21996996996997        1.22509002685547        41.6850891113281       0.287400990724564           254021.703125                  101325        288.123809814453      0.0999964997172356   -6.20052696658237E-08                       0 
                      2        1.21746746746747        1.22509002685547        41.6850891113281       0.287400990724564           254021.703125                  101325        288.123809814453      0.0999964997172356   -6.20039610864369E-08                       0 
                      2        1.21496496496496        1.22509002685547        41.6850891113281       0.287400990724564           254021.703125                  101325        288.123809814453      0.0999964997172356   -6.20054804689712E-08                       0 
                      2        1.21246246246246        1.22509002685547        41.6850891113281       0.287400990724564           254021.703125                  101325        288.123809814453      0.0999964997172356   -6.20069998515055E-08                       0 
                      2        1.20995995995996        1.22509002685547        41.6850891113281       0.287400990724564           254021.703125                  101325        288.123809814453      0.0999964997172356   -6.20085192340399E-08                       0 
                      2        1.20745745745746        1.22509002685547        41.6850891113281       0.287400990724564           254021.703125                  101325        288.123809814453      0.0999964997172356   -6.20100386165742E-08                       0 
                      2        1.20495495495495        1.22509002685547        41.6850891113281       0.287400990724564           254021.703125                  101325        288.123809814453      0.0999964997172356   -6.20115579991085E-08                       0 
                      2        1.20245245245245        1.22509002685547        41.6850891113281       0.287400990724564           254021.703125                  101325        288.123809814453      0.0999964997172356   -6.20130773816428E-08                       0 
                      2        1.19994994994995        1.22509002685547        41.6850891113281       0.287400990724564           254021.703125                  101325        288.123809814453      0.0999964997172356   -6.20145967641771E-08                       0 
                      2        1.19744744744745        1.22509002685547        41.6850891113281       0.287400990724564           254021.703125                  101325        288.123809814453      0.0999964997172356   -6.20161161467114E-08                       0 
                      2        1.19494494494494        1.22509002685547        41.6850891113281       0.287400990724564           254021.703125                  101325        288.123809814453      0.0999964997172356   -6.20176355292457E-08                       0 
                      2        1.19244244244244        1.22509002685547        41.6850891113281       0.287400990724564           254021.703125                  101325        288.123809814453      0.0999964997172356   -6.20191549117801E-08                       0 
                      2        1.18993993993994        1.22509002685547        41.6850891113281       0.287400990724564           254021.703125                  101325        288.123809814453      0.0999964997172356   -6.20206742943144E-08                       0 
                      2        1.18743743743744        1.22509002685547        41.6850891113281       0.287400990724564           254021.703125                  101325        288.123809814453      0.0999964997172356   -6.20221936768487E-08                       0 
                      2        1.18493493493493        1.22509002685547        41.6850891113281       0.287400990724564           254021.703125                  101325        288.123809814453      0.0999964997172356   -6.20217735135656E-08                       0 
                      2        1.18243243243243        1.22509002685547        41.6850891113281       0.287400990724564           254021.703125                  101325        288.123809814453      0.0999964997172356    -6.2020557037358E-08                       0 
                      2        1.17992992992993        1.22509002685547        41.6850891113281       0.287400990724564           254021.703125                  101325        288.123809814453      0.0999964997172356   -6.20193405611504E-08                       0 
                      2        1.17742742742743        1.22509002685547        41.6850891113281       0.287400990724564           254021.703125                  101325        288.123809814453      0.0999964997172356   -6.20181240849428E-08                       0 
                      2        1.17492492492492        1.22509002685547        41.6850891113281       0.287400990724564           254021.703125                  101325        288.123809814453      0.0999964997172356   -6.20169076087353E-08                       0 
                      2        1.17242242242242        1.22509002685547        41.6850891113281       0.287400990724564           254021.703125                  101325        288.123809814453      0.0999964997172356   -6.20156911325277E-08                       0 
                      2        1.16991991991992        1.22509002685547        41.6850891113281       0.287400990724564           254021.703125                  101325        288.123809814453      0.0999964997172356   -6.20144746563201E-08                       0 
                      2        1.16741741741742        1.22509002685547        41.6850891113281       0.287400990724564           254021.703125                  101325        288.123809814453      0.0999964997172356   -6.20132581801126E-08                       0 
                      2        1.16491491491491        1.22509002685547        41.6850891113281       0.287400990724564           254021.703125                  101325        288.123809814453      0.0999964997172356    -6.2012041703905E-08                       0 
                      2        1.16241241241241        1.22509002685547        41.6850891113281       0.287400990724564           254021.703125                  101325        288.123809814453      0.0999964997172356   -6.20108252276974E-08                       0 
                      2        1.15990990990991        1.22509002685547        41.6850891113281       0.287400990724564           254021.703125                  101325        288.123809814453      0.0999964997172356   -6.20096087514898E-08                       0 
                      2        1.15740740740741        1.22509002685547        41.6850891113281       0.287400990724564           254021.703125                  101325        288.123809814453      0.0999964997172356   -6.20083922752823E-08                       0 
                      2         1.1549049049049        1.22509002685547        41.6850891113281       0.287400990724564           254021.703125                  101325        288.123809814453      0.0999964997172356    -6.2007278211896E-08                       0 
                      2         1.1524024024024        1.22509002685547        41.6850891113281       0.287400990724564           254021.703125                  101325        288.123809814453      0.0999964997172356    -6.2007682498736E-08                       0 
                      2         1.1498998998999        1.22509002685547        41.6850891113281       0.287400990724564           254021.703125                  101325        288.123809814453      0.0999964997172356    -6.2008086785576E-08                       0 
                      2         1.1473973973974        1.22509002685547        41.6850891113281       0.287400990724564           254021.703125                  101325        288.123809814453      0.0999964997172356    -6.2008491072416E-08                       0 
                      2        1.14489489489489        1.22509002685547        41.6850891113281       0.287400990724564           254021.703125                  101325        288.123809814453      0.0999964997172356   -6.20088953592559E-08                       0 
                      2        1.14239239239239        1.22509002685547        41.6850891113281       0.287400990724564           254021.703125                  101325        288.123809814453      0.0999964997172356   -6.20092996460959E-08                       0 
                      2        1.13988988988989        1.22509002685547        41.6850891113281       0.287400990724564           254021.703125                  101325        288.123809814453      0.0999964997172356   -6.20097039329359E-08                       0 
                      2        1.13738738738739        1.22509002685547        41.6850891113281       0.287400990724564           254021.703125                  101325        288.123809814453      0.0999964997172356   -6.20101082197759E-08                       0 
                      2        1.13488488488488        1.22509002685547        41.6850891113281       0.287400990724564           254021.703125                  101325        288.123809814453      0.0999964997172356   -6.20105125066158E-08                       0 
                      2        1.13238238238238        1.22509002685547        41.6850891113281       0.287400990724564           254021.703125                  101325        288.123809814453      0.0999964997172356   -6.20109167934558E-08                       0 
                      2        1.12987987987988        1.22509002685547        41.6850891113281       0.287400990724564           254021.703125                  101325        288.123809814453      0.0999964997172356   -6.20113210802958E-08                       0 
                      2        1.12737737737738        1.22509002685547        41.6850891113281       0.287400990724564           254021.703125                  101325        288.123809814453      0.0999964997172356   -6.20117253671358E-08                       0 
                      2        1.12487487487487        1.22509002685547        41.6850891113281       0.287400990724564           254021.703125                  101325        288.123809814453      0.0999964997172356   -6.20121296539757E-08                       0 
                      2        1.12237237237237        1.22509002685547        41.6850891113281       0.287400990724564           254021.703125                  101325        288.123809814453      0.0999964997172356   -6.20121490350529E-08                       0 
                      2        1.11986986986987        1.22509002685547        41.6850891113281       0.287400990724564           254021.703125                  101325        288.123809814453      0.0999964997172356      -6.20116321029E-08                       0 
                      2        1.11736736736737        1.22509002685547        41.6850891113281       0.287400990724564           254021.703125                  101325        288.123809814453      0.0999964997172356   -6.20111151707472E-08                       0 
                      2        1.11486486486486        1.22509002685547        41.6850891113281       0.287400990724564           254021.703125                  101325        288.123809814453      0.0999964997172356   -6.20105982385943E-08                       0 
                      2        1.11236236236236        1.22509002685547        41.6850891113281       0.287400990724564           254021.703125                  101325        288.123809814453      0.0999964997172356   -6.20100813064414E-08                       0 
                      2        1.10985985985986        1.22509002685547        41.6850891113281       0.287400990724564           254021.703125                  101325        288.123809814453      0.0999964997172356   -6.20095643742886E-08                       0 
                      2        1.10735735735736        1.22509002685547        41.6850891113281       0.287400990724564           254021.703125                  101325        288.123809814453      0.0999964997172356   -6.20090474421357E-08                       0 
                      2        1.10485485485485        1.22509002685547        41.6850891113281       0.287400990724564           254021.703125                  101325        288.123809814453      0.0999964997172356   -6.20085305099828E-08                       0 
                      2        1.10235235235235        1.22509002685547        41.6850891113281       0.287400990724564           254021.703125                  101325        288.123809814453      0.0999964997172356   -6.20080135778299E-08                       0 
                      2        1.09984984984985        1.22509002685547        41.6850891113281       0.287400990724564           254021.703125                  101325        288.123809814453      0.0999964997172356   -6.20074966456771E-08                       0 
                      2        1.09734734734735        1.22509002685547        41.6850891113281       0.287400990724564           254021.703125                  101325        288.123809814453      0.0999964997172356   -6.20069797135242E-08                       0 
                      2        1.09484484484484        1.22509002685547        41.6850891113281       0.287400990724564           254021.703125                  101325        288.123809814453      0.0999964997172356   -6.20064627813713E-08                       0 
                      2        1.09234234234234        1.22509002685547        41.6850891113281       0.287400990724564           254021.703125                  101325        288.123809814453      0.0999964997172356   -6.20059458492184E-08                       0 
                      2        1.08983983983984        1.22509002685547        41.6850891113281       0.287400990724564           254021.703125                  101325        288.123809814453      0.0999964997172356   -6.20058345350805E-08                       0 
                      2        1.08733733733734        1.22509002685547        41.6850891113281       0.287400990724564           254021.703125                  101325        288.123809814453      0.0999964997172356   -6.20058429636079E-08                       0 
                      2        1.08483483483483        1.22509002685547        41.6850891113281       0.287400990724564           254021.703125                  101325        288.123809814453      0.0999964997172356   -6.20058513921353E-08                       0 
                      2        1.08233233233233        1.22509002685547        41.6850891113281       0.287400990724564           254021.703125                  101325        288.123809814453      0.0999964997172356   -6.20058598206626E-08                       0 
                      2        1.07982982982983        1.22509002685547        41.6850891113281       0.287400990724564           254021.703125                  101325        288.123809814453      0.0999964997172356     -6.200586824919E-08                       0 
                      2        1.07732732732733        1.22509002685547        41.6850891113281       0.287400990724564           254021.703125                  101325        288.123809814453      0.0999964997172356   -6.20058766777174E-08                       0 
                      2        1.07482482482482        1.22509002685547        41.6850891113281       0.287400990724564           254021.703125                  101325        288.123809814453      0.0999964997172356   -6.20058851062448E-08                       0 
                      2        1.07232232232232        1.22509002685547        41.6850891113281       0.287400990724564           254021.703125                  101325        288.123809814453      0.0999964997172356   -6.20058935347721E-08                       0 
                      2        1.06981981981982        1.22509002685547        41.6850891113281       0.287400990724564           254021.703125                  101325        288.123809814453      0.0999964997172356   -6.20059019632995E-08                       0 
                      2        1.06731731731732        1.22509002685547        41.6850891113281       0.287400990724564           254021.703125                  101325        288.123809814453      0.0999964997172356   -6.20059103918269E-08                       0 
                      2        1.06481481481481        1.22509002685547        41.6850891113281       0.287400990724564           254021.703125                  101325        288.123809814453      0.0999964997172356   -6.20059188203542E-08                       0 
                      2        1.06231231231231        1.22509002685547        41.6850891113281       0.287400990724564           254021.703125                  101325        288.123809814453      0.0999964997172356   -6.20059272488816E-08                       0 
                      2        1.05980980980981        1.22509002685547        41.6850891113281       0.287400990724564           254021.703125                  101325        288.123809814453      0.0999964997172356   -6.20058996387087E-08                       0 
                      2        1.05730730730731        1.22509002685547        41.6850891113281       0.287400990724564           254021.703125                  101325        288.123809814453      0.0999964997172356   -6.20056237542662E-08                       0 
                      2         1.0548048048048        1.22509002685547        41.6850891113281       0.287400990724564           254021.703125                  101325        288.123809814453      0.0999964997172356   -6.20053478698238E-08                       0 
                      2         1.0523023023023        1.22509002685547        41.6850891113281       0.287400990724564           254021.703125                  101325        288.123809814453      0.0999964997172356   -6.20050719853813E-08                       0 
                      2         1.0497997997998        1.22509002685547        41.6850891113281       0.287400990724564           254021.703125                  101325        288.123809814453      0.0999964997172356   -6.20047961009388E-08                       0 
                      2         1.0472972972973        1.22509002685547        41.6850891113281       0.287400990724564           254021.703125                  101325        288.123809814453      0.0999964997172356   -6.20045202164964E-08                       0 
                      2        1.04479479479479        1.22509002685547        41.6850891113281       0.287400990724564           254021.703125                  101325        288.123809814453      0.0999964997172356   -6.20042443320539E-08                       0 
                      2        1.04229229229229        1.22509002685547        41.6850891113281       0.287400990724564           254021.703125                  101325        288.123809814453      0.0999964997172356   -6.20039684476115E-08                       0 
                      2        1.03978978978979        1.22509002685547        41.6850891113281       0.287400990724564           254021.703125                  101325        288.123809814453      0.0999964997172356    -6.2003692563169E-08                       0 
                      2        1.03728728728729        1.22509002685547        41.6850891113281       0.287400990724564           254021.703125                  101325        288.123809814453      0.0999964997172356   -6.20034166787266E-08                       0 
                      2        1.03478478478478        1.22509002685547        41.6850891113281       0.287400990724564           254021.703125                  101325        288.123809814453      0.0999964997172356   -6.20031407942841E-08                       0 
                      2        1.03228228228228        1.22509002685547        41.6850891113281       0.287400990724564           254021.703125                  101325        288.123809814453      0.0999964997172356   -6.20028649098416E-08                       0 
                      2        1.02977977977978        1.22509002685547        41.6850891113281       0.287400990724564           254021.703125                  101325        288.123809814453      0.0999964997172356   -6.20025890253992E-08                       0 
                      2        1.02727727727728        1.22509002685547        41.6850891113281       0.287400990724564           254021.703125                  101325        288.123809814453      0.0999964997172356    -6.2002386789127E-08                       0 
                      2        1.02477477477477        1.22509002685547        41.6850891113281       0.287400990724564           254021.703125                  101325        288.123809814453      0.0999964997172356    -6.2002264016122E-08                       0 
                      2        1.02227227227227        1.22509002685547        41.6850891113281       0.287400990724564           254021.703125                  101325        288.123809814453      0.0999964997172356    -6.2002141243117E-08                       0 
                      2        1.01976976976977        1.22509002685547        41.6850891113281       0.287400990724564           254021.703125                  101325        288.123809814453      0.0999964997172356    -6.2002018470112E-08                       0 
                      2        1.01726726726727        1.22509002685547        41.6850891113281       0.287400990724564           254021.703125                  101325        288.123809814453      0.0999964997172356    -6.2001895697107E-08                       0 
                      2        1.01476476476476        1.22509002685547        41.6850891113281       0.287400990724564           254021.703125                  101325        288.123809814453      0.0999964997172356    -6.2001772924102E-08                       0 
                      2        1.01226226226226        1.22509002685547        41.6850891113281       0.287400990724564           254021.703125                  101325        288.123809814453      0.0999964997172356    -6.2001650151097E-08                       0 
                      2        1.00975975975976        1.22509002685547        41.6850891113281       0.287400990724564           254021.703125                  101325        288.123809814453      0.0999964997172356    -6.2001527378092E-08                       0 
                      2        1.00725725725726        1.22509002685547        41.6850891113281       0.287400990724564           254021.703125                  101325        288.123809814453      0.0999964997172356    -6.2001404605087E-08                       0 
                      2        1.00475475475475        1.22509002685547        41.6850891113281       0.287400990724564           254021.703125                  101325        288.123809814453      0.0999964997172356    -6.2001281832082E-08                       0 
                      2        1.00225225225225        1.22509002685547        41.6850891113281       0.287400990724564           254021.703125                  101325        288.123809814453      0.0999964997172356   -6.20011590590771E-08                       0 
                      2        0.99974974974975        1.22509002685547        41.6850891113281       0.287400990724564           254021.703125                  101325        288.123809814453      0.0999964997172356   -6.20010362860721E-08                       0 
                      2       0.997247247247247        1.22509002685547        41.6850891113281       0.287400990724564           254021.703125                  101325        288.123809814453      0.0999964997172356   -6.20009135130671E-08                       0 
                      2       0.994744744744745        1.22509002685547        41.6850891113281       0.287400990724564           254021.703125                  101325        288.123809814453      0.0999964997172356   -6.20007245515303E-08                       0 
                      2       0.992242242242242        1.22509002685547        41.6850891113281       0.287400990724564           254021.703125                  101325        288.123809814453      0.0999964997172356    -6.2000522551629E-08                       0 
                      2        0.98973973973974        1.22509002685547        41.6850891113281       0.287400990724564           254021.703125                  101325        288.123809814453      0.0999964997172356   -6.20003205517278E-08                       0 
                      2       0.987237237237237        1.22509002685547        41.6850891113281       0.287400990724564           254021.703125                  101325        288.123809814453      0.0999964997172356   -6.20001185518265E-08                       0 
                      2       0.984734734734735        1.22509002685547        41.6850891113281       0.287400990724564           254021.703125                  101325        288.123809814453      0.0999964997172356   -6.19999165519252E-08                       0 
                      2       0.982232232232232        1.22509002685547        41.6850891113281       0.287400990724564           254021.703125                  101325        288.123809814453      0.0999964997172356    -6.1999714552024E-08                       0 
                      2        0.97972972972973        1.22509002685547        41.6850891113281       0.287400990724564           254021.703125                  101325        288.123809814453      0.0999964997172356   -6.19995125521227E-08                       0 
                      2       0.977227227227227        1.22509002685547        41.6850891113281       0.287400990724564           254021.703125                  101325        288.123809814453      0.0999964997172356   -6.19993105522214E-08                       0 
                      2       0.974724724724725        1.22509002685547        41.6850891113281       0.287400990724564           254021.703125                  101325        288.123809814453      0.0999964997172356   -6.19991085523202E-08                       0 
                      2       0.972222222222222        1.22509002685547        41.6850891113281       0.287400990724564           254021.703125                  101325        288.123809814453      0.0999964997172356   -6.19989065524189E-08                       0 