/*--------------------------------*- C++ -*----------------------------------*\
  =========                 |
  \\      /  F ield         | OpenFOAM: The Open Source CFD Toolbox
   \\    /   O peration     | Website:  https://openfoam.org
    \\  /    A nd           | Version:  6
     \\/     M anipulation  |
\*---------------------------------------------------------------------------*/
FoamFile
{
    version     2.0;
    format      ascii;
    class       volScalarField;
    location    "166";
    object      p;
}
// * * * * * * * * * * * * * * * * * * * * * * * * * * * * * * * * * * * * * //

dimensions      [0 2 -2 0 0 0 0];

internalField   nonuniform List<scalar> 
3200
(
82214.7
82214.7
82214.7
82214.7
82214.7
82214.7
82214.7
82214.7
82214.7
82214.7
82214.7
82214.7
82214.7
82214.7
82214.7
82214.7
82214.5
82216.9
82183.4
82650.5
76139.3
60385.5
47169.2
38438.7
31822.8
26282.9
21731.5
18049.3
15044.4
12570.3
10525.9
8831.57
7422.66
6247.46
5264.62
4440.69
3748.48
3165.8
2674.45
2259.45
1908.43
1611.12
1359.01
1144.98
963.107
808.413
676.725
564.536
468.89
387.297
317.648
258.164
207.335
163.881
126.719
94.9129
67.7249
44.3112
24.765
6.09557
-2.64576
-0.455297
0.280555
0.0277833
-0.0380516
-0.0156269
-0.0141903
-0.0193739
-0.0213991
-0.0222069
-0.022749
-0.0228813
-0.0225952
-0.0219638
-0.0210383
-0.0198003
-0.018284
-0.0162896
-0.013299
-0.0118102
82214.7
82214.7
82214.7
82214.7
82214.7
82214.7
82214.7
82214.7
82214.7
82214.7
82214.7
82214.7
82214.7
82214.7
82214.7
82214.7
82214.5
82216.9
82183.4
82650.5
76139.3
60385.4
47169.2
38438.7
31822.8
26282.9
21731.4
18049.3
15044.3
12570.3
10525.9
8831.55
7422.64
6247.44
5264.6
4440.67
3748.46
3165.78
2674.43
2259.43
1908.41
1611.1
1358.99
1144.96
963.091
808.397
676.709
564.521
468.876
387.283
317.635
258.151
207.323
163.869
126.707
94.9021
67.7144
44.3011
24.7555
6.08687
-2.65289
-0.460802
0.276771
0.0257072
-0.0385651
-0.0147338
-0.0120184
-0.0160405
-0.0170173
-0.0168812
-0.0165734
-0.015944
-0.0149811
-0.0137618
-0.012351
-0.0107533
-0.00911315
-0.00725131
-0.00549659
-0.0062424
82214.7
82214.7
82214.7
82214.7
82214.7
82214.7
82214.7
82214.7
82214.7
82214.7
82214.7
82214.7
82214.7
82214.7
82214.7
82214.7
82214.5
82216.9
82183.4
82650.5
76139.3
60385.4
47169.2
38438.7
31822.8
26282.9
21731.4
18049.2
15044.3
12570.3
10525.8
8831.52
7422.61
6247.42
5264.57
4440.64
3748.44
3165.76
2674.41
2259.41
1908.39
1611.08
1358.97
1144.95
963.073
808.379
676.692
564.504
468.86
387.267
317.62
258.137
207.309
163.855
126.694
94.889
67.7018
44.2892
24.7445
6.07724
-2.65973
-0.465298
0.274241
0.0249204
-0.0378035
-0.0125955
-0.00865333
-0.0115859
-0.0116015
-0.0106196
-0.00957216
-0.00830192
-0.00679569
-0.00513288
-0.00339365
-0.00160857
-2.27672e-05
0.00147999
0.00195852
-0.000591529
82214.7
82214.7
82214.7
82214.7
82214.7
82214.7
82214.7
82214.7
82214.7
82214.7
82214.7
82214.7
82214.7
82214.7
82214.7
82214.7
82214.5
82216.9
82183.4
82650.4
76139.3
60385.4
47169.1
38438.7
31822.8
26282.9
21731.4
18049.2
15044.3
12570.2
10525.8
8831.5
7422.59
6247.4
5264.55
4440.62
3748.42
3165.74
2674.39
2259.39
1908.37
1611.06
1358.95
1144.92
963.051
808.358
676.671
564.484
468.84
387.247
317.601
258.118
207.291
163.838
126.678
94.8737
67.6878
44.2766
24.7335
6.06823
-2.66635
-0.470354
0.270185
0.0216516
-0.0404037
-0.0146392
-0.010241
-0.0128041
-0.0125247
-0.0113134
-0.010096
-0.00871182
-0.00714638
-0.00548071
-0.00380145
-0.0021446
-0.000786669
0.000455843
0.000538407
-0.000263065
82214.7
82214.7
82214.7
82214.7
82214.7
82214.7
82214.7
82214.7
82214.7
82214.7
82214.7
82214.7
82214.7
82214.7
82214.7
82214.7
82214.5
82216.9
82183.4
82650.4
76139.3
60385.4
47169.1
38438.7
31822.7
26282.9
21731.4
18049.2
15044.3
12570.2
10525.8
8831.48
7422.57
6247.37
5264.53
4440.6
3748.39
3165.72
2674.37
2259.37
1908.34
1611.04
1358.92
1144.9
963.027
808.333
676.647
564.46
468.816
387.224
317.578
258.096
207.269
163.818
126.658
94.8555
67.671
44.2615
24.7203
6.05692
-2.67555
-0.478236
0.263109
0.0152339
-0.0462541
-0.0200342
-0.015281
-0.0175649
-0.0170658
-0.0156845
-0.0143393
-0.012863
-0.011235
-0.00952932
-0.00782339
-0.00613041
-0.0046911
-0.00316526
-0.00265469
-0.000691244
82214.7
82214.7
82214.7
82214.7
82214.7
82214.7
82214.7
82214.7
82214.7
82214.7
82214.7
82214.7
82214.7
82214.7
82214.7
82214.7
82214.5
82216.9
82183.4
82650.4
76139.3
60385.4
47169.1
38438.7
31822.7
26282.8
21731.4
18049.2
15044.3
12570.2
10525.8
8831.46
7422.55
6247.35
5264.5
4440.57
3748.37
3165.69
2674.34
2259.34
1908.32
1611.01
1358.9
1144.87
963.001
808.307
676.621
564.434
468.791
387.199
317.554
258.072
207.246
163.796
126.637
94.8357
67.6525
44.2445
24.7051
6.04354
-2.68684
-0.488026
0.254432
0.00754069
-0.0530795
-0.026137
-0.0207862
-0.0225653
-0.0216347
-0.0198836
-0.0182195
-0.0164638
-0.0145837
-0.0126392
-0.0106886
-0.00871619
-0.00691532
-0.0048252
-0.00380602
-2.69232e-05
82214.7
82214.7
82214.7
82214.7
82214.7
82214.7
82214.7
82214.7
82214.7
82214.7
82214.7
82214.7
82214.7
82214.7
82214.7
82214.7
82214.5
82216.9
82183.4
82650.4
76139.2
60385.4
47169.1
38438.6
31822.7
26282.8
21731.3
18049.2
15044.2
12570.2
10525.8
8831.44
7422.52
6247.33
5264.48
4440.55
3748.34
3165.66
2674.32
2259.32
1908.29
1610.98
1358.87
1144.85
962.975
808.281
676.596
564.408
468.766
387.174
317.529
258.048
207.223
163.773
126.616
94.8154
67.6335
44.2269
24.6891
6.02936
-2.69883
-0.498236
0.245631
-2.07495e-05
-0.0595534
-0.0316917
-0.0255629
-0.0266715
-0.025159
-0.0229014
-0.0207923
-0.0186389
-0.0163935
-0.0141012
-0.0118026
-0.00946361
-0.0072635
-0.00468085
-0.00341149
0.00132919
82214.7
82214.7
82214.7
82214.7
82214.7
82214.7
82214.7
82214.7
82214.7
82214.7
82214.7
82214.7
82214.7
82214.7
82214.7
82214.7
82214.5
82216.9
82183.4
82650.4
76139.2
60385.4
47169.1
38438.6
31822.7
26282.8
21731.3
18049.1
15044.2
12570.2
10525.7
8831.41
7422.5
6247.3
5264.46
4440.53
3748.32
3165.64
2674.29
2259.29
1908.26
1610.96
1358.85
1144.82
962.949
808.256
676.57
564.383
468.741
387.15
317.505
258.025
207.2
163.751
126.594
94.795
67.6143
44.2091
24.6729
6.015
-2.7109
-0.508412
0.236955
-0.00740787
-0.0658203
-0.0370073
-0.0300689
-0.0304794
-0.0283614
-0.0255767
-0.0230039
-0.0204349
-0.0178082
-0.0151561
-0.0125069
-0.00982288
-0.00728288
-0.00434173
-0.00293743
0.00262452
82214.7
82214.7
82214.7
82214.7
82214.7
82214.7
82214.7
82214.7
82214.7
82214.7
82214.7
82214.7
82214.7
82214.7
82214.7
82214.7
82214.5
82216.9
82183.4
82650.4
76139.2
60385.4
47169.1
38438.6
31822.7
26282.8
21731.3
18049.1
15044.2
12570.1
10525.7
8831.39
7422.48
6247.28
5264.44
4440.5
3748.3
3165.62
2674.27
2259.27
1908.24
1610.93
1358.82
1144.8
962.924
808.231
676.545
564.359
468.716
387.126
317.481
258.001
207.177
163.729
126.573
94.7747
67.5952
44.1914
24.6568
6.00068
-2.72299
-0.518602
0.22824
-0.0148788
-0.072209
-0.0424718
-0.0347462
-0.0344791
-0.0317741
-0.0284777
-0.0254528
-0.022477
-0.0194761
-0.016473
-0.0134872
-0.0104788
-0.00762948
-0.00436545
-0.00277709
0.0036799
82214.7
82214.7
82214.7
82214.7
82214.7
82214.7
82214.7
82214.7
82214.7
82214.7
82214.7
82214.7
82214.7
82214.7
82214.7
82214.7
82214.5
82216.9
82183.4
82650.4
76139.2
60385.3
47169.1
38438.6
31822.7
26282.8
21731.3
18049.1
15044.2
12570.1
10525.7
8831.38
7422.46
6247.26
5264.42
4440.48
3748.28
3165.6
2674.25
2259.24
1908.22
1610.91
1358.8
1144.77
962.901
808.208
676.522
564.335
468.693
387.102
317.458
257.979
207.155
163.707
126.552
94.7549
67.5766
44.1741
24.641
5.98662
-2.73493
-0.528698
0.219573
-0.0223441
-0.0786217
-0.0479797
-0.0394818
-0.0385494
-0.035266
-0.0314621
-0.027986
-0.0246016
-0.0212238
-0.0178675
-0.0145442
-0.0112146
-0.00804825
-0.00446487
-0.00264844
0.00462046
82214.7
82214.7
82214.7
82214.7
82214.7
82214.7
82214.7
82214.7
82214.7
82214.7
82214.7
82214.7
82214.7
82214.7
82214.7
82214.7
82214.5
82216.9
82183.4
82650.4
76139.2
60385.3
47169.1
38438.6
31822.7
26282.8
21731.3
18049.1
15044.2
12570.1
10525.7
8831.36
7422.45
6247.25
5264.4
4440.47
3748.26
3165.58
2674.23
2259.23
1908.2
1610.89
1358.78
1144.75
962.88
808.186
676.5
564.313
468.671
387.081
317.437
257.958
207.134
163.687
126.533
94.7364
67.559
44.1577
24.626
5.9732
-2.74638
-0.53839
0.21126
-0.0294979
-0.0847552
-0.0532313
-0.0439788
-0.0423944
-0.0385412
-0.0342342
-0.0303082
-0.0265153
-0.0227605
-0.0190528
-0.0153975
-0.0117545
-0.00828654
-0.00441445
-0.00238509
0.00549399
82214.7
82214.7
82214.7
82214.7
82214.7
82214.7
82214.7
82214.7
82214.7
82214.7
82214.7
82214.7
82214.7
82214.7
82214.7
82214.7
82214.5
82216.9
82183.4
82650.4
76139.2
60385.3
47169
38438.6
31822.6
26282.8
21731.3
18049.1
15044.2
12570.1
10525.7
8831.35
7422.43
6247.23
5264.39
4440.45
3748.24
3165.56
2674.21
2259.21
1908.18
1610.87
1358.76
1144.73
962.861
808.167
676.481
564.294
468.652
387.061
317.418
257.939
207.116
163.669
126.515
94.7194
67.5429
44.1426
24.6122
5.9608
-2.75701
-0.547362
0.20359
-0.0360802
-0.0903795
-0.0580248
-0.0480598
-0.045858
-0.041463
-0.0366759
-0.0323195
-0.0281361
-0.0240234
-0.0199859
-0.0160244
-0.0121045
-0.00837176
-0.00427696
-0.00206714
0.00624079
82214.7
82214.7
82214.7
82214.7
82214.7
82214.7
82214.7
82214.7
82214.7
82214.7
82214.7
82214.7
82214.7
82214.7
82214.7
82214.7
82214.5
82216.9
82183.4
82650.4
76139.2
60385.3
47169
38438.6
31822.6
26282.7
21731.3
18049.1
15044.2
12570.1
10525.7
8831.34
7422.42
6247.22
5264.37
4440.44
3748.23
3165.55
2674.2
2259.19
1908.17
1610.86
1358.74
1144.72
962.845
808.151
676.465
564.278
468.635
387.045
317.401
257.922
207.099
163.653
126.5
94.7044
67.5286
44.1293
24.5999
5.94972
-2.76653
-0.555381
0.196756
-0.0419355
-0.0953732
-0.0622685
-0.0516592
-0.0488982
-0.0440113
-0.0387876
-0.0340406
-0.0295049
-0.0250729
-0.0207471
-0.0165262
-0.012379
-0.00843868
-0.00418266
-0.00180249
0.0067975
82214.7
82214.7
82214.7
82214.7
82214.7
82214.7
82214.7
82214.7
82214.7
82214.7
82214.7
82214.7
82214.7
82214.7
82214.7
82214.7
82214.5
82216.9
82183.4
82650.4
76139.2
60385.3
47169
38438.6
31822.6
26282.7
21731.3
18049.1
15044.1
12570.1
10525.7
8831.33
7422.42
6247.22
5264.37
4440.43
3748.22
3165.54
2674.19
2259.18
1908.16
1610.85
1358.73
1144.71
962.833
808.139
676.452
564.264
468.622
387.031
317.387
257.908
207.086
163.64
126.487
94.6918
67.5166
44.1179
24.5894
5.94022
-2.77474
-0.562276
0.190896
-0.046953
-0.0996493
-0.065896
-0.0547284
-0.0514826
-0.0461691
-0.0405675
-0.0354841
-0.0306486
-0.0259501
-0.0213904
-0.0169652
-0.0126502
-0.00855052
-0.00418973
-0.00163523
0.00714023
82214.7
82214.7
82214.7
82214.7
82214.7
82214.7
82214.7
82214.7
82214.7
82214.7
82214.7
82214.7
82214.7
82214.7
82214.7
82214.7
82214.5
82216.9
82183.4
82650.4
76139.2
60385.3
47169
38438.6
31822.6
26282.7
21731.3
18049.1
15044.1
12570.1
10525.7
8831.33
7422.41
6247.21
5264.36
4440.43
3748.22
3165.53
2674.18
2259.18
1908.15
1610.84
1358.73
1144.7
962.824
808.129
676.442
564.254
468.612
387.021
317.377
257.898
207.075
163.629
126.476
94.6818
67.507
44.1088
24.581
5.93252
-2.78145
-0.567898
0.186135
-0.0510275
-0.103118
-0.0688322
-0.0572051
-0.0535609
-0.0478975
-0.0419876
-0.0366331
-0.0315606
-0.0266577
-0.021926
-0.0173584
-0.0129313
-0.00872527
-0.0043044
-0.0015646
0.00726365
82214.7
82214.7
82214.7
82214.7
82214.7
82214.7
82214.7
82214.7
82214.7
82214.7
82214.7
82214.7
82214.7
82214.7
82214.7
82214.7
82214.5
82216.9
82183.4
82650.4
76139.2
60385.3
47169
38438.6
31822.6
26282.7
21731.3
18049.1
15044.1
12570.1
10525.7
8831.33
7422.41
6247.21
5264.36
4440.43
3748.22
3165.53
2674.18
2259.18
1908.15
1610.84
1358.72
1144.69
962.819
808.124
676.436
564.248
468.605
387.014
317.37
257.891
207.068
163.622
126.469
94.6747
67.5
44.1022
24.5747
5.92678
-2.78651
-0.57212
0.18258
-0.0540661
-0.105702
-0.0710102
-0.0590342
-0.0550888
-0.0491628
-0.0430244
-0.0374736
-0.0322358
-0.027198
-0.0223612
-0.017713
-0.013233
-0.0089631
-0.00452754
-0.00159637
0.00716575
82214.7
82214.7
82214.7
82214.7
82214.7
82214.7
82214.7
82214.7
82214.7
82214.7
82214.7
82214.7
82214.7
82214.7
82214.7
82214.7
82214.5
82216.9
82183.4
82650.4
76139.2
60385.3
47169.1
38438.6
31822.6
26282.8
21731.3
18049.1
15044.2
12570.1
10525.7
8831.33
7422.42
6247.22
5264.36
4440.43
3748.22
3165.53
2674.18
2259.18
1908.15
1610.84
1358.72
1144.69
962.818
808.122
676.434
564.246
468.602
387.011
317.366
257.887
207.064
163.618
126.465
94.6705
67.4959
44.0982
24.5709
5.92313
-2.78982
-0.574849
0.180308
-0.0560038
-0.107345
-0.0723884
-0.0601845
-0.0560453
-0.0499533
-0.0436749
-0.0380104
-0.0326853
-0.0275858
-0.0227121
-0.0180459
-0.0135644
-0.0092763
-0.00486236
-0.00173059
0.00684712
82214.7
82214.7
82214.7
82214.7
82214.7
82214.7
82214.7
82214.7
82214.7
82214.7
82214.7
82214.7
82214.7
82214.7
82214.7
82214.7
82214.5
82216.9
82183.4
82650.4
76139.2
60385.3
47169.1
38438.6
31822.7
26282.8
21731.3
18049.1
15044.2
12570.1
10525.7
8831.34
7422.42
6247.22
5264.37
4440.43
3748.22
3165.54
2674.19
2259.18
1908.15
1610.84
1358.72
1144.7
962.821
808.125
676.436
564.247
468.603
387.012
317.367
257.887
207.064
163.617
126.464
94.6695
67.4947
44.0968
24.5694
5.92165
-2.7913
-0.576033
0.179362
-0.056808
-0.108026
-0.0729513
-0.0606483
-0.0564298
-0.0502751
-0.0439511
-0.0382596
-0.0329273
-0.0278398
-0.0229946
-0.0183663
-0.0139312
-0.00965664
-0.00529688
-0.00196144
0.00631875
82214.7
82214.7
82214.7
82214.7
82214.7
82214.7
82214.7
82214.7
82214.7
82214.7
82214.7
82214.7
82214.7
82214.7
82214.7
82214.7
82214.5
82216.9
82183.4
82650.4
76139.3
60385.4
47169.1
38438.6
31822.7
26282.8
21731.3
18049.1
15044.2
12570.1
10525.7
8831.35
7422.43
6247.23
5264.38
4440.44
3748.23
3165.55
2674.19
2259.19
1908.16
1610.85
1358.73
1144.7
962.827
808.131
676.442
564.253
468.608
387.016
317.371
257.891
207.067
163.62
126.467
94.6716
67.4964
44.0982
24.5705
5.92237
-2.79093
-0.575656
0.17975
-0.0564744
-0.107743
-0.0727029
-0.0604339
-0.056254
-0.0501428
-0.0438689
-0.0382372
-0.0329754
-0.0279681
-0.0232099
-0.0186676
-0.0143142
-0.010083
-0.00580183
-0.00226212
0.00560128
82214.7
82214.7
82214.7
82214.7
82214.7
82214.7
82214.7
82214.7
82214.7
82214.7
82214.7
82214.7
82214.7
82214.7
82214.7
82214.7
82214.5
82216.9
82183.4
82650.4
76139.3
60385.4
47169.1
38438.6
31822.7
26282.8
21731.3
18049.1
15044.2
12570.1
10525.7
8831.36
7422.45
6247.25
5264.39
4440.46
3748.25
3165.56
2674.21
2259.2
1908.17
1610.86
1358.74
1144.71
962.837
808.141
676.451
564.262
468.617
387.024
317.378
257.898
207.074
163.626
126.472
94.6767
67.501
44.1023
24.5739
5.92524
-2.78873
-0.573738
0.181451
-0.0550232
-0.106517
-0.0716634
-0.0595613
-0.0555377
-0.0495746
-0.0434441
-0.0379543
-0.0328342
-0.0279672
-0.0233443
-0.0189246
-0.0146811
-0.0105116
-0.00633169
-0.00260122
0.00472324
82214.7
82214.7
82214.7
82214.7
82214.7
82214.7
82214.7
82214.7
82214.7
82214.7
82214.7
82214.7
82214.7
82214.7
82214.7
82214.7
82214.5
82216.9
82183.4
82650.4
76139.3
60385.4
47169.1
38438.6
31822.7
26282.8
21731.3
18049.1
15044.2
12570.1
10525.7
8831.38
7422.46
6247.26
5264.41
4440.47
3748.26
3165.58
2674.22
2259.22
1908.19
1610.87
1358.76
1144.73
962.851
808.154
676.464
564.274
468.629
387.036
317.389
257.908
207.084
163.635
126.481
94.6847
67.5083
44.1088
24.5797
5.93019
-2.78477
-0.570334
0.184417
-0.052498
-0.104385
-0.0698671
-0.058061
-0.054307
-0.0485915
-0.0426908
-0.0374168
-0.0324999
-0.027822
-0.0233712
-0.0191011
-0.0149852
-0.0108954
-0.00683856
-0.00294068
0.00371687
82214.7
82214.7
82214.7
82214.7
82214.7
82214.7
82214.7
82214.7
82214.7
82214.7
82214.7
82214.7
82214.7
82214.7
82214.7
82214.7
82214.5
82216.9
82183.4
82650.5
76139.3
60385.4
47169.1
38438.6
31822.7
26282.8
21731.3
18049.1
15044.2
12570.1
10525.7
8831.4
7422.48
6247.28
5264.43
4440.49
3748.28
3165.6
2674.24
2259.23
1908.2
1610.89
1358.77
1144.74
962.868
808.17
676.48
564.289
468.644
387.05
317.403
257.921
207.096
163.648
126.492
94.6954
67.5182
44.1178
24.5877
5.9371
-2.77914
-0.565531
0.188569
-0.0489651
-0.101406
-0.0673627
-0.0559736
-0.052594
-0.0472165
-0.0416222
-0.036627
-0.0319629
-0.0275112
-0.0232586
-0.0191554
-0.0151804
-0.0111849
-0.00727482
-0.0032488
0.00261596
82214.7
82214.7
82214.7
82214.7
82214.7
82214.7
82214.7
82214.7
82214.7
82214.7
82214.7
82214.7
82214.7
82214.7
82214.7
82214.7
82214.5
82216.9
82183.4
82650.5
76139.3
60385.4
47169.1
38438.7
31822.7
26282.8
21731.3
18049.2
15044.2
12570.2
10525.7
8831.42
7422.5
6247.3
5264.45
4440.51
3748.3
3165.62
2674.26
2259.25
1908.22
1610.91
1358.79
1144.76
962.887
808.189
676.499
564.308
468.661
387.067
317.42
257.938
207.112
163.662
126.506
94.7085
67.5304
44.129
24.5977
5.94581
-2.77198
-0.559448
0.193806
-0.0445122
-0.0976527
-0.0642117
-0.0533486
-0.0504365
-0.0454752
-0.0402513
-0.0355851
-0.0312112
-0.0270116
-0.0229737
-0.019049
-0.0152249
-0.011341
-0.00760528
-0.0035
0.00145337
82214.7
82214.7
82214.7
82214.7
82214.7
82214.7
82214.7
82214.7
82214.7
82214.7
82214.7
82214.7
82214.7
82214.7
82214.7
82214.7
82214.5
82216.9
82183.4
82650.5
76139.3
60385.4
47169.1
38438.7
31822.7
26282.9
21731.4
18049.2
15044.3
12570.2
10525.8
8831.44
7422.52
6247.32
5264.47
4440.53
3748.32
3165.64
2674.28
2259.28
1908.25
1610.93
1358.82
1144.79
962.908
808.21
676.52
564.328
468.681
387.087
317.439
257.956
207.13
163.679
126.522
94.7238
67.5446
44.142
24.6094
5.95608
-2.76347
-0.552232
0.2
-0.0392471
-0.0932154
-0.0604877
-0.0502449
-0.0478784
-0.0433974
-0.0385941
-0.0342942
-0.0302361
-0.0263052
-0.0224924
-0.0187546
-0.0150917
-0.0113404
-0.00780812
-0.00368189
0.000258644
82214.7
82214.7
82214.7
82214.7
82214.7
82214.7
82214.7
82214.7
82214.7
82214.7
82214.7
82214.7
82214.7
82214.7
82214.7
82214.7
82214.5
82216.9
82183.5
82650.5
76139.3
60385.4
47169.2
38438.7
31822.8
26282.9
21731.4
18049.2
15044.3
12570.2
10525.8
8831.46
7422.55
6247.35
5264.49
4440.56
3748.35
3165.66
2674.31
2259.3
1908.27
1610.96
1358.84
1144.81
962.932
808.233
676.542
564.351
468.703
387.108
317.46
257.976
207.149
163.698
126.54
94.7408
67.5606
44.1567
24.6226
5.96769
-2.75382
-0.544057
0.207002
-0.0332958
-0.0881986
-0.0562766
-0.0467302
-0.0449714
-0.0410192
-0.0366729
-0.0327647
-0.0290388
-0.0253865
-0.0218058
-0.0182631
-0.0147749
-0.0111798
-0.00788341
-0.0037966
-0.000942816
82214.7
82214.7
82214.7
82214.7
82214.7
82214.7
82214.7
82214.7
82214.7
82214.7
82214.7
82214.7
82214.7
82214.7
82214.7
82214.7
82214.5
82217
82183.5
82650.5
76139.3
60385.5
47169.2
38438.7
31822.8
26282.9
21731.4
18049.2
15044.3
12570.2
10525.8
8831.49
7422.57
6247.37
5264.52
4440.58
3748.37
3165.69
2674.33
2259.32
1908.29
1610.98
1358.86
1144.83
962.956
808.257
676.566
564.374
468.727
387.131
317.482
257.998
207.17
163.719
126.56
94.7592
67.5778
44.1726
24.637
5.98035
-2.74324
-0.535122
0.214644
-0.0268005
-0.0827209
-0.0516754
-0.0428828
-0.0417764
-0.0383867
-0.0345209
-0.0310197
-0.0276353
-0.024268
-0.0209261
-0.0175893
-0.0142915
-0.0108815
-0.00784925
-0.00385925
-0.00213078
82214.7
82214.7
82214.7
82214.7
82214.7
82214.7
82214.7
82214.7
82214.7
82214.7
82214.7
82214.7
82214.7
82214.7
82214.7
82214.7
82214.6
82217
82183.5
82650.5
76139.4
60385.5
47169.2
38438.7
31822.8
26282.9
21731.4
18049.2
15044.3
12570.3
10525.8
8831.51
7422.59
6247.39
5264.54
4440.61
3748.39
3165.71
2674.36
2259.35
1908.32
1611.01
1358.89
1144.86
962.981
808.282
676.591
564.398
468.751
387.155
317.505
258.021
207.192
163.74
126.58
94.7785
67.5958
44.1893
24.6521
5.99375
-2.73201
-0.52564
0.222742
-0.0199173
-0.0769129
-0.0467924
-0.0387916
-0.0383655
-0.0355577
-0.0321852
-0.0290986
-0.026061
-0.0229841
-0.0198891
-0.0167715
-0.013684
-0.0104856
-0.00774244
-0.00389767
-0.00328861
82214.7
82214.7
82214.7
82214.7
82214.7
82214.7
82214.7
82214.7
82214.7
82214.7
82214.7
82214.7
82214.7
82214.7
82214.7
82214.7
82214.6
82217
82183.5
82650.5
76139.4
60385.5
47169.2
38438.7
31822.8
26282.9
21731.4
18049.3
15044.3
12570.3
10525.9
8831.53
7422.61
6247.41
5264.56
4440.63
3748.42
3165.73
2674.38
2259.37
1908.34
1611.03
1358.91
1144.88
963.005
808.307
676.615
564.423
468.775
387.179
317.529
258.044
207.215
163.761
126.601
94.7982
67.6144
44.2065
24.6677
6.00757
-2.72039
-0.515843
0.231099
-0.0128128
-0.0709153
-0.041746
-0.0345558
-0.0348221
-0.0326036
-0.0297282
-0.0270587
-0.024371
-0.0215904
-0.0187527
-0.0158703
-0.0130116
-0.0100517
-0.00760935
-0.00394343
-0.0044028
82214.7
82214.7
82214.7
82214.7
82214.7
82214.7
82214.7
82214.7
82214.7
82214.7
82214.7
82214.7
82214.7
82214.7
82214.7
82214.7
82214.6
82217
82183.5
82650.5
76139.4
60385.5
47169.2
38438.8
31822.8
26282.9
21731.5
18049.3
15044.4
12570.3
10525.9
8831.55
7422.63
6247.44
5264.59
4440.65
3748.44
3165.76
2674.4
2259.4
1908.37
1611.05
1358.94
1144.91
963.03
808.331
676.639
564.447
468.799
387.202
317.552
258.066
207.237
163.783
126.622
94.8179
67.6329
44.2237
24.6834
6.02148
-2.70866
-0.505966
0.239512
-0.00566137
-0.0648764
-0.0366625
-0.0302839
-0.031241
-0.0296085
-0.0272275
-0.024974
-0.0226385
-0.0201611
-0.0175923
-0.0149604
-0.0123482
-0.00964196
-0.00750163
-0.0040316
-0.00546047
82214.7
82214.7
82214.7
82214.7
82214.7
82214.7
82214.7
82214.7
82214.7
82214.7
82214.7
82214.7
82214.7
82214.7
82214.7
82214.7
82214.6
82217
82183.5
82650.5
76139.4
60385.5
47169.2
38438.8
31822.8
26283
21731.5
18049.3
15044.4
12570.3
10525.9
8831.57
7422.65
6247.45
5264.61
4440.67
3748.46
3165.78
2674.42
2259.42
1908.39
1611.08
1358.96
1144.93
963.052
808.354
676.662
564.47
468.821
387.225
317.574
258.088
207.258
163.804
126.642
94.837
67.651
44.2405
24.6987
6.03515
-2.69711
-0.496251
0.247775
0.00135963
-0.0589489
-0.0316744
-0.0260924
-0.0277261
-0.026668
-0.0247731
-0.0229321
-0.0209503
-0.0187826
-0.0164931
-0.0141247
-0.0117676
-0.00932426
-0.00746641
-0.00418947
-0.00644883
82214.7
82214.7
82214.7
82214.7
82214.7
82214.7
82214.7
82214.7
82214.7
82214.7
82214.7
82214.7
82214.7
82214.7
82214.7
82214.7
82214.6
82217
82183.5
82650.5
76139.4
60385.5
47169.2
38438.8
31822.9
26283
21731.5
18049.3
15044.4
12570.3
10525.9
8831.59
7422.67
6247.47
5264.62
4440.69
3748.48
3165.8
2674.44
2259.44
1908.41
1611.1
1358.98
1144.95
963.074
808.375
676.684
564.491
468.843
387.246
317.595
258.109
207.278
163.823
126.661
94.8553
67.6683
44.2566
24.7134
6.04824
-2.68601
-0.486933
0.255683
0.00807297
-0.0532871
-0.0269171
-0.022102
-0.0243877
-0.0238849
-0.0224634
-0.0210285
-0.0193999
-0.0175461
-0.0155425
-0.0134427
-0.0113421
-0.00915107
-0.00754281
-0.00443962
-0.00735347
82214.7
82214.7
82214.7
82214.7
82214.7
82214.7
82214.7
82214.7
82214.7
82214.7
82214.7
82214.7
82214.7
82214.7
82214.7
82214.7
82214.6
82217
82183.5
82650.5
76139.4
60385.5
47169.2
38438.8
31822.9
26283
21731.5
18049.3
15044.4
12570.3
10525.9
8831.6
7422.68
6247.49
5264.64
4440.7
3748.49
3165.81
2674.46
2259.46
1908.43
1611.12
1359
1144.97
963.092
808.394
676.703
564.51
468.862
387.265
317.614
258.128
207.297
163.841
126.678
94.8721
67.6842
44.2715
24.727
6.06045
-2.67563
-0.478241
0.26304
0.0143062
-0.0480425
-0.0225255
-0.018435
-0.0213383
-0.0213649
-0.0203991
-0.0193598
-0.0180797
-0.0165388
-0.0148204
-0.012986
-0.0111274
-0.00916947
-0.00775645
-0.00479082
-0.0081593
82214.7
82214.7
82214.7
82214.7
82214.7
82214.7
82214.7
82214.7
82214.7
82214.7
82214.7
82214.7
82214.7
82214.7
82214.7
82214.7
82214.6
82217
82183.5
82650.5
76139.4
60385.5
47169.3
38438.8
31822.9
26283
21731.5
18049.3
15044.4
12570.3
10525.9
8831.61
7422.7
6247.5
5264.65
4440.72
3748.51
3165.83
2674.47
2259.47
1908.44
1611.13
1359.01
1144.99
963.108
808.41
676.719
564.527
468.879
387.282
317.631
258.144
207.313
163.858
126.694
94.8871
67.6985
44.2849
24.7393
6.07148
-2.66623
-0.470388
0.269659
0.0198958
-0.0433603
-0.0186298
-0.0152099
-0.0186878
-0.0192108
-0.0186768
-0.0180168
-0.0170743
-0.0158373
-0.014394
-0.0128087
-0.0111682
-0.0094027
-0.00812119
-0.00524666
-0.00885064
82214.7
82214.7
82214.7
82214.7
82214.7
82214.7
82214.7
82214.7
82214.7
82214.7
82214.7
82214.7
82214.7
82214.7
82214.7
82214.7
82214.6
82217
82183.5
82650.5
76139.4
60385.5
47169.3
38438.8
31822.9
26283
21731.5
18049.3
15044.4
12570.4
10525.9
8831.62
7422.7
6247.51
5264.66
4440.73
3748.52
3165.84
2674.48
2259.48
1908.45
1611.14
1359.03
1145
963.121
808.424
676.733
564.541
468.893
387.296
317.645
258.158
207.327
163.871
126.707
94.9
67.7108
44.2964
24.75
6.08107
-2.65802
-0.463566
0.275372
0.0246913
-0.0393749
-0.0153513
-0.0125374
-0.0165378
-0.0175164
-0.0173828
-0.0170779
-0.016453
-0.0155012
-0.0143118
-0.0129492
-0.0114871
-0.00986902
-0.00864018
-0.00580074
-0.00941425
82214.7
82214.7
82214.7
82214.7
82214.7
82214.7
82214.7
82214.7
82214.7
82214.7
82214.7
82214.7
82214.7
82214.7
82214.7
82214.7
82214.6
82217
82183.5
82650.5
76139.4
60385.5
47169.3
38438.8
31822.9
26283
21731.5
18049.3
15044.4
12570.4
10525.9
8831.62
7422.71
6247.51
5264.66
4440.73
3748.52
3165.84
2674.49
2259.49
1908.46
1611.15
1359.03
1145.01
963.131
808.434
676.743
564.551
468.903
387.307
317.656
258.169
207.338
163.882
126.718
94.9104
67.7208
44.3059
24.7588
6.08901
-2.65119
-0.457943
0.28003
0.0285597
-0.0362061
-0.0127981
-0.0105154
-0.0149769
-0.0163614
-0.0165878
-0.0166042
-0.0162669
-0.0155713
-0.0146043
-0.0134269
-0.0120991
-0.0105689
-0.0093144
-0.00645138
-0.00984183
82214.7
82214.7
82214.7
82214.7
82214.7
82214.7
82214.7
82214.7
82214.7
82214.7
82214.7
82214.7
82214.7
82214.7
82214.7
82214.7
82214.6
82217
82183.5
82650.5
76139.4
60385.5
47169.3
38438.8
31822.9
26283
21731.5
18049.3
15044.4
12570.4
10525.9
8831.62
7422.71
6247.51
5264.67
4440.73
3748.53
3165.85
2674.49
2259.49
1908.46
1611.16
1359.04
1145.01
963.137
808.44
676.75
564.558
468.91
387.314
317.664
258.177
207.346
163.89
126.726
94.9182
67.7284
44.3131
24.7655
6.09511
-2.64592
-0.453656
0.28351
0.0313886
-0.0339548
-0.0110604
-0.00922403
-0.0140758
-0.0158062
-0.0163419
-0.0166354
-0.0165453
-0.0160667
-0.0152824
-0.0142481
-0.013004
-0.0115095
-0.0101474
-0.00719968
-0.010135
82214.7
82214.7
82214.7
82214.7
82214.7
82214.7
82214.7
82214.7
82214.7
82214.7
82214.7
82214.7
82214.7
82214.7
82214.7
82214.7
82214.6
82217
82183.5
82650.5
76139.4
60385.5
47169.2
38438.8
31822.9
26283
21731.5
18049.3
15044.4
12570.4
10525.9
8831.62
7422.71
6247.51
5264.66
4440.73
3748.52
3165.84
2674.49
2259.49
1908.46
1611.16
1359.04
1145.01
963.138
808.442
676.752
564.561
468.914
387.318
317.668
258.182
207.351
163.895
126.731
94.9231
67.7332
44.3178
24.77
6.09925
-2.64231
-0.450816
0.285708
0.0330829
-0.0327077
-0.0102153
-0.00873113
-0.013892
-0.0158985
-0.0166821
-0.0171981
-0.0173054
-0.0169975
-0.0163516
-0.0154161
-0.0142132
-0.0127021
-0.0111678
-0.00807993
-0.0103187
82214.7
82214.7
82214.7
82214.7
82214.7
82214.7
82214.7
82214.7
82214.7
82214.7
82214.7
82214.7
82214.7
82214.7
82214.7
82214.7
82214.6
82217
82183.5
82650.5
76139.4
60385.5
47169.2
38438.8
31822.9
26283
21731.5
18049.3
15044.4
12570.3
10525.9
8831.61
7422.7
6247.5
5264.66
4440.73
3748.52
3165.84
2674.49
2259.49
1908.46
1611.15
1359.04
1145.01
963.136
808.44
676.751
564.56
468.914
387.318
317.668
258.182
207.352
163.896
126.732
94.9251
67.7353
44.32
24.7722
6.10136
-2.64044
-0.449495
0.286552
0.0335731
-0.0325257
-0.010315
-0.00907883
-0.0144578
-0.0166596
-0.0176197
-0.018294
-0.018541
-0.0183521
-0.0177991
-0.0169253
-0.0157287
-0.0141776
-0.0124254
-0.00915524
-0.0104532
82214.7
82214.7
82214.7
82214.7
82214.7
82214.7
82214.7
82214.7
82214.7
82214.7
82214.7
82214.7
82214.7
82214.7
82214.7
82214.7
82214.5
82217
82183.5
82650.5
76139.4
60385.5
47169.2
38438.8
31822.8
26283
21731.5
18049.3
15044.4
12570.3
10525.9
8831.6
7422.69
6247.49
5264.65
4440.72
3748.51
3165.83
2674.48
2259.48
1908.45
1611.15
1359.03
1145.01
963.13
808.435
676.746
564.556
468.909
387.314
317.665
258.18
207.35
163.894
126.731
94.924
67.7346
44.3196
24.7721
6.10141
-2.64038
-0.449799
0.28593
0.0327578
-0.0334974
-0.0114343
-0.0103277
-0.0158189
-0.0181207
-0.0191721
-0.0199282
-0.0202475
-0.0201192
-0.0196127
-0.018766
-0.0175619
-0.0159676
-0.0140008
-0.0105528
-0.0106729
82214.7
82214.7
82214.7
82214.7
82214.7
82214.7
82214.7
82214.7
82214.7
82214.7
82214.7
82214.7
82214.7
82214.7
82214.7
82214.7
82214.5
82216.9
82183.5
82650.5
76139.3
60385.5
47169.2
38438.8
31822.8
26283
21731.5
18049.3
15044.4
12570.3
10525.9
8831.59
7422.68
6247.48
5264.64
4440.7
3748.5
3165.82
2674.47
2259.47
1908.44
1611.13
1359.02
1145
963.121
808.426
676.737
564.547
468.902
387.307
317.658
258.173
207.344
163.889
126.726
94.92
67.7313
44.3169
24.7699
6.09977
-2.64182
-0.451514
0.283994
0.0307395
-0.0355681
-0.0135619
-0.0125068
-0.0180399
-0.0203812
-0.0214706
-0.0222642
-0.0226189
-0.0225256
-0.0220535
-0.021244
-0.0200693
-0.0185165
-0.0164559
-0.0129924
-0.0117954
)
;

boundaryField
{
    cyclic1
    {
        type            cyclic;
    }
    cyclic2
    {
        type            cyclic;
    }
    frontAndBack
    {
        type            empty;
    }
    outlet
    {
        type            fixedValue;
        value           uniform 0;
    }
    inlet
    {
        type            zeroGradient;
    }
}


// ************************************************************************* //
