VARIABLES = "x"
 "y"
 "Density"
 "Momentum_x"
 "Momentum_y"
 "Energy"
 "Pressure"
 "Temperature"
 "Mach"
 "C<sub>p</sub>"
 "Roe_Dissipation"
ZONE
DT=(DOUBLE,DOUBLE,DOUBLE,DOUBLE,DOUBLE,DOUBLE,DOUBLE,DOUBLE,DOUBLE,DOUBLE,DOUBLE)
                     -2                       0        1.22412502765656        44.8130798339844    1.07265395854479E-06           253853.703125          101213.3984375        288.033111572266       0.107599198818207      -0.157401904463768                       0 
      -1.99749874937469                       0        1.22412502765656        44.8130801342203    3.13467903729449E-07           253853.703125          101213.3984375        288.033111572266       0.107599198818207      -0.157401920022265                       0 
      -1.99499749874937                       0        1.22412502765656        44.8130804344562   -4.45718151086466E-07           253853.703125          101213.3984375        288.033111572266       0.107599198818207      -0.157401935580763                       0 
      -1.99249624812406                       0        1.22412502765656        44.8130807346921   -1.20490420590231E-06           253853.703125          101213.3984375        288.033111572266       0.107599198818207       -0.15740195113926                       0 
      -1.98999499749875                       0        1.22412502765656        44.8130810349279   -1.96409026071816E-06           253853.703125          101213.3984375        288.033111572266       0.107599198818207      -0.157401966697757                       0 
      -1.98749374687344                       0        1.22412502765656        44.8130813351638     -2.723276315534E-06           253853.703125          101213.3984375        288.033111572266       0.107599198818207      -0.157401982256255                       0 
      -1.98499249624812                       0        1.22412502765656        44.8130816353997   -3.48246237034992E-06           253853.703125          101213.3984375        288.033111572266       0.107599198818207      -0.157401997814752                       0 
      -1.98249124562281                       0        1.22412502765656        44.8130819356356   -4.24164842516577E-06           253853.703125          101213.3984375        288.033111572266       0.107599198818207      -0.157402013373249                       0 
       -1.9799899949975                       0        1.22412502765656        44.8130822358715   -5.00083447998161E-06           253853.703125          101213.3984375        288.033111572266       0.107599198818207      -0.157402028931747                       0 
      -1.97748874437219                       0        1.22412502765656        44.8130825361074   -5.76002053479752E-06           253853.703125          101213.3984375        288.033111572266       0.107599198818207      -0.157402044490244                       0 
      -1.97498749374687                       0        1.22412502765656        44.8130828363433   -6.51920658961337E-06           253853.703125          101213.3984375        288.033111572266       0.107599198818207      -0.157402060048741                       0 
      -1.97248624312156                       0        1.22412502765656        44.8130831365792   -7.27839264442922E-06           253853.703125          101213.3984375        288.033111572266       0.107599198818207      -0.157402075607239                       0 
      -1.96998499249625                       0        1.22412502765656        44.8130834368151   -8.03757869924513E-06           253853.703125          101213.3984375        288.033111572266       0.107599198818207      -0.157402091165736                       0 
      -1.96748374187094                       0        1.22412502765656         44.813083737051   -8.79676475406098E-06           253853.703125          101213.3984375        288.033111572266       0.107599198818207      -0.157402106724233                       0 
      -1.96498249124562                       0        1.22412502765656        44.8130840372869   -9.55595080887682E-06           253853.703125          101213.3984375        288.033111572266       0.107599198818207      -0.157402122282731                       0 
      -1.96248124062031                       0        1.22412502765656        44.8130843375228   -1.03151368636927E-05           253853.703125          101213.3984375        288.033111572266       0.107599198818207      -0.157402137841228                       0 
        -1.959979989995                       0        1.22412502765656        44.8130846377586   -1.10743229185086E-05           253853.703125          101213.3984375        288.033111572266       0.107599198818207      -0.157402153399725                       0 
      -1.95747873936968                       0        1.22412502765656        44.8130849379946   -1.18335089733244E-05           253853.703125          101213.3984375        288.033111572266       0.107599198818207      -0.157402168958222                       0 
      -1.95497748874437                       0        1.22412502765656        44.8130852382304   -1.25926950281403E-05           253853.703125          101213.3984375        288.033111572266       0.107599198818207       -0.15740218451672                       0 
      -1.95247623811906                       0        1.22412502765656        44.8130857000655   -1.33316771005181E-05           253853.703125          101213.3984375        288.033111572266       0.107599198818207      -0.157402203089903                       0 
      -1.94997498749375                       0        1.22412502765656        44.8130867626778    -1.3995546801317E-05           253853.703125          101213.3984375        288.033111572266       0.107599198818207       -0.15740223287079                       0 
      -1.94747373686843                       0        1.22412502765656        44.8130878252902    -1.4659416502116E-05           253853.703125          101213.3984375        288.033111572266       0.107599198818207      -0.157402262651677                       0 
      -1.94497248624312                       0        1.22412502765656        44.8130888879026    -1.5323286202915E-05           253853.703125          101213.3984375        288.033111572266       0.107599198818207      -0.157402292432563                       0 
      -1.94247123561781                       0        1.22412502765656        44.8130899505149    -1.5987155903714E-05           253853.703125          101213.3984375        288.033111572266       0.107599198818207       -0.15740232221345                       0 
       -1.9399699849925                       0        1.22412502765656        44.8130910131273   -1.66510256045129E-05           253853.703125          101213.3984375        288.033111572266       0.107599198818207      -0.157402351994336                       0 
      -1.93746873436718                       0        1.22412502765656        44.8130920757397   -1.73148953053119E-05           253853.703125          101213.3984375        288.033111572266       0.107599198818207      -0.157402381775223                       0 
      -1.93496748374187                       0        1.22412502765656         44.813093138352   -1.79787650061109E-05           253853.703125          101213.3984375        288.033111572266       0.107599198818207       -0.15740241155611                       0 
      -1.93246623311656                       0        1.22412502765656        44.8130942009644   -1.86426347069099E-05           253853.703125          101213.3984375        288.033111572266       0.107599198818207      -0.157402441336996                       0 
      -1.92996498249125                       0        1.22412502765656        44.8130952635768   -1.93065044077088E-05           253853.703125          101213.3984375        288.033111572266       0.107599198818207      -0.157402471117883                       0 
      -1.92746373186593                       0        1.22412502765656        44.8130963261891   -1.99703741085079E-05           253853.703125          101213.3984375        288.033111572266       0.107599198818207      -0.157402500898769                       0 
      -1.92496248124062                       0        1.22412502765656        44.8130973888015   -2.06342438093068E-05           253853.703125          101213.3984375        288.033111572266       0.107599198818207      -0.157402530679656                       0 
      -1.92246123061531                       0        1.22412502765656        44.8130984514139   -2.12981135101058E-05           253853.703125          101213.3984375        288.033111572266       0.107599198818207      -0.157402560460543                       0 
      -1.91995997998999                       0        1.22412502765656        44.8130995140262   -2.19619832109048E-05           253853.703125          101213.3984375        288.033111572266       0.107599198818207      -0.157402590241429                       0 
      -1.91745872936468                       0        1.22412502765656        44.8131005766386   -2.26258529117038E-05           253853.703125          101213.3984375        288.033111572266       0.107599198818207      -0.157402620022316                       0 
      -1.91495747873937                       0        1.22412502765656         44.813101639251   -2.32897226125027E-05           253853.703125          101213.3984375        288.033111572266       0.107599198818207      -0.157402649803202                       0 
      -1.91245622811406                       0        1.22412502765656        44.8131027018633   -2.39535923133017E-05           253853.703125          101213.3984375        288.033111572266       0.107599198818207      -0.157402679584089                       0 
      -1.90995497748874                       0        1.22412502765656        44.8131037644757   -2.46174620141007E-05           253853.703125          101213.3984375        288.033111572266       0.107599198818207      -0.157402709364976                       0 
      -1.90745372686343                       0        1.22412502765656        44.8131048270881   -2.52813317148997E-05           253853.703125          101213.3984375        288.033111572266       0.107599198818207      -0.157402739145862                       0 
      -1.90495247623812                       0        1.22412502765656        44.8131058897005   -2.59452014156986E-05           253853.703125          101213.3984375        288.033111572266       0.107599198818207      -0.157402768926749                       0 
      -1.90245122561281                       0        1.22412502765656        44.8131069523128   -2.66090711164976E-05           253853.703125          101213.3984375        288.033111572266       0.107599198818207      -0.157402798707635                       0 
      -1.89994997498749                       0        1.22412502765656        44.8131080149252   -2.72729408172966E-05           253853.703125          101213.3984375        288.033111572266       0.107599198818207      -0.157402828488522                       0 
      -1.89744872436218                       0        1.22412502765656        44.8131090775375   -2.79368105180956E-05           253853.703125          101213.3984375        288.033111572266       0.107599198818207      -0.157402858269409                       0 
      -1.89494747373687                       0        1.22412502765656         44.813109787258   -2.88865373524028E-05           253853.703125          101213.3984375        288.033111572266       0.107599198818207      -0.157402878899809                       0 
      -1.89244622311156                       0        1.22412502765656        44.8131112538628   -2.98946438987293E-05           253853.703125          101213.3984375        288.033111572266       0.107599203426839      -0.157402980409928                       0 
      -1.88994497248624                       0        1.22412502765656        44.8131125153451   -3.05931150064039E-05           253853.703125          101213.3984375        288.033111572266       0.107599208059535      -0.157403073337535                       0 
      -1.88744372186093                       0        1.22412502765656        44.8131137768275   -3.12915861140784E-05           253853.703125          101213.3984375        288.033111572266       0.107599212692231      -0.157403166265143                       0 
      -1.88494247123562                       0        1.22412502765656        44.8131150383098   -3.19900572217531E-05           253853.703125          101213.3984375        288.033111572266       0.107599217324927       -0.15740325919275                       0 
      -1.88244122061031                       0        1.22412502765656        44.8131162997921   -3.26885283294276E-05           253853.703125          101213.3984375        288.033111572266       0.107599221957623      -0.157403352120357                       0 
      -1.87993996998499                       0        1.22412502765656        44.8131175612745   -3.33869994371022E-05           253853.703125          101213.3984375        288.033111572266       0.107599226590319      -0.157403445047965                       0 
      -1.87743871935968                       0        1.22412502765656        44.8131188227568   -3.40854705447768E-05           253853.703125          101213.3984375        288.033111572266       0.107599231223014      -0.157403537975572                       0 
      -1.87493746873437                       0        1.22412502765656        44.8131200842392   -3.47839416524514E-05           253853.703125          101213.3984375        288.033111572266        0.10759923585571      -0.157403630903179                       0 
      -1.87243621810905                       0        1.22412502765656        44.8131213457215    -3.5482412760126E-05           253853.703125          101213.3984375        288.033111572266       0.107599240488406      -0.157403723830787                       0 
      -1.86993496748374                       0        1.22412502765656        44.8131226072038   -3.61808838678006E-05           253853.703125          101213.3984375        288.033111572266       0.107599245121102      -0.157403816758394                       0 
      -1.86743371685843                       0        1.22412502765656        44.8131238686862   -3.68793549754752E-05           253853.703125          101213.3984375        288.033111572266       0.107599249753798      -0.157403909686001                       0 
      -1.86493246623312                       0        1.22412502765656        44.8131251301685   -3.75778260831497E-05           253853.703125          101213.3984375        288.033111572266       0.107599254386493      -0.157404002613608                       0 
       -1.8624312156078                       0        1.22412502765656        44.8131263916508   -3.82762971908243E-05           253853.703125          101213.3984375        288.033111572266       0.107599259019189      -0.157404095541216                       0 
      -1.85992996498249                       0        1.22412502765656        44.8131276531332   -3.89747682984989E-05           253853.703125          101213.3984375        288.033111572266       0.107599263651885      -0.157404188468823                       0 
      -1.85742871435718                       0        1.22412502765656        44.8131289146155   -3.96732394061735E-05           253853.703125          101213.3984375        288.033111572266       0.107599268284581       -0.15740428139643                       0 
      -1.85492746373187                       0        1.22412502765656        44.8131301760978   -4.03717105138481E-05           253853.703125          101213.3984375        288.033111572266       0.107599272917277      -0.157404374324038                       0 
      -1.85242621310655                       0        1.22412502765656        44.8131314375802   -4.10701816215227E-05           253853.703125          101213.3984375        288.033111572266       0.107599277549973      -0.157404467251645                       0 
      -1.84992496248124                       0        1.22412502765656        44.8131326990625   -4.17686527291972E-05           253853.703125          101213.3984375        288.033111572266       0.107599282182668      -0.157404560179252                       0 
      -1.84742371185593                       0        1.22412502765656        44.8131339605448   -4.24671238368718E-05           253853.703125          101213.3984375        288.033111572266       0.107599286815364       -0.15740465310686                       0 
      -1.84492246123062                       0        1.22412502765656        44.8131352220272   -4.31655949445464E-05           253853.703125          101213.3984375        288.033111572266        0.10759929144806      -0.157404746034467                       0 
       -1.8424212106053                       0        1.22412502765656        44.8131364835095    -4.3864066052221E-05           253853.703125          101213.3984375        288.033111572266       0.107599296080756      -0.157404838962074                       0 
      -1.83991995997999                       0        1.22412502765656        44.8131377449918   -4.45625371598956E-05           253853.703125          101213.3984375        288.033111572266       0.107599300713452      -0.157404931889681                       0 
      -1.83741870935468                       0        1.22412502765656        44.8131395322679   -4.52822970617108E-05           253853.703125          101213.3984375        288.033111572266        0.10759930526027      -0.157405037230246                       0 
      -1.83491745872936                       0        1.22412502765656        44.8131418910694   -4.60251973785057E-05           253853.703125          101213.3984375        288.033111572266       0.107599309713742        -0.1574051560634                       0 
      -1.83241620810405                       0        1.22412502765656        44.8131442498709   -4.67680976953006E-05           253853.703125          101213.3984375        288.033111572266       0.107599314167214      -0.157405274896555                       0 
      -1.82991495747874                       0        1.22412502765656        44.8131466086724   -4.75109980120955E-05           253853.703125          101213.3984375        288.033111572266       0.107599318620686      -0.157405393729709                       0 
      -1.82741370685343                       0        1.22412502765656        44.8131489674739   -4.82538983288905E-05           253853.703125          101213.3984375        288.033111572266       0.107599323074158      -0.157405512562864                       0 
      -1.82491245622811                       0        1.22412502765656        44.8131513262753   -4.89967986456854E-05           253853.703125          101213.3984375        288.033111572266        0.10759932752763      -0.157405631396019                       0 
       -1.8224112056028                       0        1.22412502765656        44.8131536850768   -4.97396989624803E-05           253853.703125          101213.3984375        288.033111572266       0.107599331981102      -0.157405750229173                       0 
      -1.81990995497749                       0        1.22412502765656        44.8131560438783   -5.04825992792752E-05           253853.703125          101213.3984375        288.033111572266       0.107599336434574      -0.157405869062328                       0 
      -1.81740870435218                       0        1.22412502765656        44.8131584026798   -5.12254995960701E-05           253853.703125          101213.3984375        288.033111572266       0.107599340888046      -0.157405987895482                       0 
      -1.81490745372686                       0        1.22412502765656        44.8131607614813    -5.1968399912865E-05           253853.703125          101213.3984375        288.033111572266       0.107599345341518      -0.157406106728637                       0 
      -1.81240620310155                       0        1.22412502765656        44.8131631202828   -5.27113002296599E-05           253853.703125          101213.3984375        288.033111572266        0.10759934979499      -0.157406225561791                       0 
      -1.80990495247624                       0        1.22412502765656        44.8131654790842   -5.34542005464549E-05           253853.703125          101213.3984375        288.033111572266       0.107599354248462      -0.157406344394946                       0 
      -1.80740370185093                       0        1.22412502765656        44.8131678378857   -5.41971008632498E-05           253853.703125          101213.3984375        288.033111572266       0.107599358701934        -0.1574064632281                       0 
      -1.80490245122561                       0        1.22412502765656        44.8131701966872   -5.49400011800447E-05           253853.703125          101213.3984375        288.033111572266       0.107599363155406      -0.157406582061255                       0 
       -1.8024012006003                       0        1.22412502765656        44.8131725554887   -5.56829014968396E-05           253853.703125          101213.3984375        288.033111572266       0.107599367608878      -0.157406700894409                       0 
      -1.79989994997499                       0        1.22412502765656        44.8131749142902   -5.64258018136345E-05           253853.703125          101213.3984375        288.033111572266        0.10759937206235      -0.157406819727564                       0 
      -1.79739869934967                       0        1.22412502765656        44.8131772730917   -5.71687021304294E-05           253853.703125          101213.3984375        288.033111572266       0.107599376515822      -0.157406938560719                       0 
      -1.79489744872436                       0        1.22412502765656        44.8131796318931   -5.79116024472243E-05           253853.703125          101213.3984375        288.033111572266       0.107599380969294      -0.157407057393873                       0 
      -1.79239619809905                       0        1.22412502765656        44.8131819906946   -5.86545027640192E-05           253853.703125          101213.3984375        288.033111572266       0.107599385422766      -0.157407176227028                       0 
      -1.78989494747374                       0        1.22412502765656        44.8131843494961   -5.93974030808141E-05           253853.703125          101213.3984375        288.033111572266       0.107599389876238      -0.157407295060182                       0 
      -1.78739369684842                       0        1.22412502765656        44.8131867065007   -6.02968637461058E-05           253853.703125          101213.3984375        288.033111572266        0.10759939432724      -0.157407407895901                       0 
      -1.78489244622311                       0        1.22412502765656        44.8131890610449   -6.14106934394804E-05           253853.703125          101213.3984375        288.033111572266       0.107599398774859       -0.15740751251968                       0 
       -1.7823911955978                       0        1.22412502765656        44.8131917317711   -6.25922832526174E-05           253853.703125          101213.3984375        288.033107365408       0.107599406916571      -0.157407661124744                       0 
      -1.77988994497249                       0        1.22412502765656        44.8131945205598   -6.37951739795062E-05           253853.703125          101213.3984375        288.033101588017       0.107599416437418      -0.157407826040766                       0 
      -1.77738869434717                       0        1.22412502765656         44.813197312063   -6.45862602968184E-05           253853.703125          101213.3984375         288.03309580634       0.107599425965328      -0.157407979823012                       0 
      -1.77488744372186                       0        1.22412502765656        44.8132001035662   -6.53773466141305E-05           253853.703125          101213.3984375        288.033090024663       0.107599435493238      -0.157408133605258                       0 
      -1.77238619309655                       0        1.22412502765656        44.8132028950695   -6.61684329314426E-05           253853.703125          101213.3984375        288.033084242986       0.107599445021148      -0.157408287387504                       0 
      -1.76988494247124                       0        1.22412502765656        44.8132056865727   -6.69595192487547E-05           253853.703125          101213.3984375        288.033078461309       0.107599454549057       -0.15740844116975                       0 
      -1.76738369184592                       0        1.22412502765656        44.8132084780759   -6.77506055660668E-05           253853.703125          101213.3984375        288.033072679633       0.107599464076967      -0.157408594951996                       0 
      -1.76488244122061                       0        1.22412502765656        44.8132112695792   -6.85416918833789E-05           253853.703125          101213.3984375        288.033066897956       0.107599473604877      -0.157408748734242                       0 
       -1.7623811905953                       0        1.22412502765656        44.8132140610824    -6.9332778200691E-05           253853.703125          101213.3984375        288.033061116279       0.107599483132787      -0.157408902516488                       0 
      -1.75987993996998                       0        1.22412502765656        44.8132168525856   -7.01238645180031E-05           253853.703125          101213.3984375        288.033055334602       0.107599492660696      -0.157409056298734                       0 
      -1.75737868934467                       0        1.22412502765656        44.8132196440889   -7.09149508353152E-05           253853.703125          101213.3984375        288.033049552925       0.107599502188606      -0.157409210080981                       0 
      -1.75487743871936                       0        1.22412502765656        44.8132224355921   -7.17060371526273E-05           253853.703125          101213.3984375        288.033043771249       0.107599511716516      -0.157409363863227                       0 
      -1.75237618809405                       0        1.22412502765656        44.8132252270953   -7.24971234699395E-05           253853.703125          101213.3984375        288.033037989572       0.107599521244426      -0.157409517645473                       0 
      -1.74987493746873                       0        1.22412502765656        44.8132280185986   -7.32882097872516E-05           253853.703125          101213.3984375        288.033032207895       0.107599530772336      -0.157409671427719                       0 
      -1.74737368684342                       0        1.22412502765656        44.8132308101018   -7.40792961045637E-05           253853.703125          101213.3984375        288.033026426218       0.107599540300245      -0.157409825209965                       0 
      -1.74487243621811                       0        1.22412502765656         44.813233601605   -7.48703824218757E-05           253853.703125          101213.3984375        288.033020644541       0.107599549828155      -0.157409978992211                       0 
       -1.7423711855928                       0        1.22412502765656        44.8132363931083   -7.56614687391879E-05           253853.703125          101213.3984375        288.033014862865       0.107599559356065      -0.157410132774457                       0 
      -1.73986993496748                       0        1.22412502765656        44.8132391846115      -7.64525550565E-05           253853.703125          101213.3984375        288.033009081188       0.107599568883975      -0.157410286556703                       0 
      -1.73736868434217                       0        1.22412502765656        44.8132419761147   -7.72436413738122E-05           253853.703125          101213.3984375        288.033003299511       0.107599578411884      -0.157410440338949                       0 
      -1.73486743371686                       0        1.22412502765656        44.8132447676179   -7.80347276911243E-05           253853.703125          101213.3984375        288.032997517834       0.107599587939794      -0.157410594121195                       0 
      -1.73236618309155                       0        1.22412502765656        44.8132475591212   -7.88258140084363E-05           253853.703125          101213.3984375        288.032991736157       0.107599597467704      -0.157410747903441                       0 
      -1.72986493246623                       0        1.22412502765656        44.8132510648393   -7.96672368474576E-05          253853.6998811        101213.395425308        288.032989501953       0.107599607115833      -0.157410930150611                       0 
      -1.72736368184092                       0        1.22412502765656        44.8132550203711   -8.05403617118791E-05        253853.694594187        101213.390516031        288.032989501953       0.107599616839677      -0.157411130325037                       0 
      -1.72486243121561                       0        1.22412502765656        44.8132589759029   -8.14134865763006E-05        253853.689307274        101213.385606755        288.032989501953       0.107599626563521      -0.157411330499462                       0 
       -1.7223611805903                       0        1.22412502765656        44.8132629314347   -8.22866114407221E-05        253853.684020362        101213.380697479        288.032989501953       0.107599636287365      -0.157411530673888                       0 