VARIABLES = "x"
 "y"
 "Density"
 "Momentum_x"
 "Momentum_y"
 "Energy"
 "Pressure"
 "Temperature"
 "Mach"
 "C<sub>p</sub>"
 "Roe_Dissipation"
ZONE
DT=(DOUBLE,DOUBLE,DOUBLE,DOUBLE,DOUBLE,DOUBLE,DOUBLE,DOUBLE,DOUBLE,DOUBLE,DOUBLE)
                     -2                       0         1.2246880531311        43.0174217224121    6.30553387281871E-08           253951.703125                101278.5        288.085998535156       0.103230699896812     -0.0655780807137489                       0 
      -1.99749874937469                       0         1.2246880531311        43.0174217224121    1.65669511618159E-08           253951.703125                101278.5        288.085998535156       0.103230699896812     -0.0655780820820115                       0 
      -1.99499749874937                       0         1.2246880531311        43.0174217224121   -2.99214364046042E-08           253951.703125                101278.5        288.085998535156       0.103230699896812      -0.065578083450274                       0 
      -1.99249624812406                       0         1.2246880531311        43.0174217224121   -7.64098239710201E-08           253951.703125                101278.5        288.085998535156       0.103230699896812     -0.0655780848185365                       0 
      -1.98999499749875                       0         1.2246880531311        43.0174217224121   -1.22898211537436E-07           253951.703125                101278.5        288.085998535156       0.103230699896812     -0.0655780861867991                       0 
      -1.98749374687344                       0         1.2246880531311        43.0174217224121   -1.69386599103852E-07           253951.703125                101278.5        288.085998535156       0.103230699896812     -0.0655780875550616                       0 
      -1.98499249624812                       0         1.2246880531311        43.0174217224121   -2.15874986670272E-07           253951.703125                101278.5        288.085998535156       0.103230699896812     -0.0655780889233241                       0 
      -1.98249124562281                       0         1.2246880531311        43.0174217224121   -2.62363374236688E-07           253951.703125                101278.5        288.085998535156       0.103230699896812     -0.0655780902915866                       0 
       -1.9799899949975                       0         1.2246880531311        43.0174217224121   -3.08851761803104E-07           253951.703125                101278.5        288.085998535156       0.103230699896812     -0.0655780916598492                       0 
      -1.97748874437219                       0         1.2246880531311        43.0174217224121   -3.55340149369524E-07           253951.703125                101278.5        288.085998535156       0.103230699896812     -0.0655780930281117                       0 
      -1.97498749374687                       0         1.2246880531311        43.0174217224121    -4.0182853693594E-07           253951.703125                101278.5        288.085998535156       0.103230699896812     -0.0655780943963742                       0 
      -1.97248624312156                       0         1.2246880531311        43.0174217224121   -4.48316924502356E-07           253951.703125                101278.5        288.085998535156       0.103230699896812     -0.0655780957646368                       0 
      -1.96998499249625                       0         1.2246880531311        43.0174217224121   -4.94805312068776E-07           253951.703125                101278.5        288.085998535156       0.103230699896812     -0.0655780971328993                       0 
      -1.96748374187094                       0         1.2246880531311        43.0174217224121   -5.41293699635192E-07           253951.703125                101278.5        288.085998535156       0.103230699896812     -0.0655780985011618                       0 
      -1.96498249124562                       0         1.2246880531311        43.0174217224121   -5.87782087201608E-07           253951.703125                101278.5        288.085998535156       0.103230699896812     -0.0655780998694244                       0 
      -1.96248124062031                       0         1.2246880531311        43.0174217224121   -6.34270474768024E-07           253951.703125                101278.5        288.085998535156       0.103230699896812     -0.0655781012376869                       0 
        -1.959979989995                       0         1.2246880531311        43.0174217224121   -6.80758862334444E-07           253951.703125                101278.5        288.085998535156       0.103230699896812     -0.0655781026059494                       0 
      -1.95747873936968                       0         1.2246880531311        43.0174217224121    -7.2724724990086E-07           253951.703125                101278.5        288.085998535156       0.103230699896812      -0.065578103974212                       0 
      -1.95497748874437                       0         1.2246880531311        43.0174217224121   -7.73735637467276E-07           253951.703125                101278.5        288.085998535156       0.103230699896812     -0.0655781053424745                       0 
      -1.95247623811906                       0         1.2246880531311        43.0174217224121   -8.18948939356353E-07           253951.703125                101278.5        288.085998535156       0.103230699896812     -0.0655781069256082                       0 
      -1.94997498749375                       0         1.2246880531311        43.0174217224121   -8.59421853577569E-07           253951.703125                101278.5        288.085998535156       0.103230699896812     -0.0655781093075688                       0 
      -1.94747373686843                       0         1.2246880531311        43.0174217224121   -8.99894767798784E-07           253951.703125                101278.5        288.085998535156       0.103230699896812     -0.0655781116895293                       0 
      -1.94497248624312                       0         1.2246880531311        43.0174217224121   -9.40367682020003E-07           253951.703125                101278.5        288.085998535156       0.103230699896812     -0.0655781140714899                       0 
      -1.94247123561781                       0         1.2246880531311        43.0174217224121   -9.80840596241219E-07           253951.703125                101278.5        288.085998535156       0.103230699896812     -0.0655781164534505                       0 
       -1.9399699849925                       0         1.2246880531311        43.0174217224121   -1.02131351046243E-06           253951.703125                101278.5        288.085998535156       0.103230699896812      -0.065578118835411                       0 
      -1.93746873436718                       0         1.2246880531311        43.0174217224121   -1.06178642468365E-06           253951.703125                101278.5        288.085998535156       0.103230699896812     -0.0655781212173716                       0 
      -1.93496748374187                       0         1.2246880531311        43.0174217224121   -1.10225933890487E-06           253951.703125                101278.5        288.085998535156       0.103230699896812     -0.0655781235993322                       0 
      -1.93246623311656                       0         1.2246880531311        43.0174217224121   -1.14273225312608E-06           253951.703125                101278.5        288.085998535156       0.103230699896812     -0.0655781259812927                       0 
      -1.92996498249125                       0         1.2246880531311        43.0174217224121    -1.1832051673473E-06           253951.703125                101278.5        288.085998535156       0.103230699896812     -0.0655781283632533                       0 
      -1.92746373186593                       0         1.2246880531311        43.0174217224121   -1.22367808156852E-06           253951.703125                101278.5        288.085998535156       0.103230699896812     -0.0655781307452139                       0 
      -1.92496248124062                       0         1.2246880531311        43.0174217224121   -1.26415099578973E-06           253951.703125                101278.5        288.085998535156       0.103230699896812     -0.0655781331271744                       0 
      -1.92246123061531                       0         1.2246880531311        43.0174217224121   -1.30462391001095E-06           253951.703125                101278.5        288.085998535156       0.103230699896812      -0.065578135509135                       0 
      -1.91995997998999                       0         1.2246880531311        43.0174217224121   -1.34509682423217E-06           253951.703125                101278.5        288.085998535156       0.103230699896812     -0.0655781378910956                       0 
      -1.91745872936468                       0         1.2246880531311        43.0174217224121   -1.38556973845338E-06           253951.703125                101278.5        288.085998535156       0.103230699896812     -0.0655781402730561                       0 
      -1.91495747873937                       0         1.2246880531311        43.0174217224121    -1.4260426526746E-06           253951.703125                101278.5        288.085998535156       0.103230699896812     -0.0655781426550167                       0 
      -1.91245622811406                       0         1.2246880531311        43.0174217224121   -1.46651556689581E-06           253951.703125                101278.5        288.085998535156       0.103230699896812     -0.0655781450369773                       0 
      -1.90995497748874                       0         1.2246880531311        43.0174217224121   -1.50698848111703E-06           253951.703125                101278.5        288.085998535156       0.103230699896812     -0.0655781474189378                       0 
      -1.90745372686343                       0         1.2246880531311        43.0174217224121   -1.54746139533825E-06           253951.703125                101278.5        288.085998535156       0.103230699896812     -0.0655781498008984                       0 
      -1.90495247623812                       0         1.2246880531311        43.0174217224121   -1.58793430955946E-06           253951.703125                101278.5        288.085998535156       0.103230699896812      -0.065578152182859                       0 
      -1.90245122561281                       0         1.2246880531311        43.0174217224121   -1.62840722378068E-06           253951.703125                101278.5        288.085998535156       0.103230699896812     -0.0655781545648195                       0 
      -1.89994997498749                       0         1.2246880531311        43.0174217224121    -1.6688801380019E-06           253951.703125                101278.5        288.085998535156       0.103230699896812     -0.0655781569467801                       0 
      -1.89744872436218                       0         1.2246880531311        43.0174217224121   -1.70935305222311E-06           253951.703125                101278.5        288.085998535156       0.103230699896812     -0.0655781593287407                       0 
      -1.89494747373687                       0         1.2246880531311        43.0174217224121   -1.77546562859688E-06           253951.703125                101278.5        288.085998535156       0.103230699896812     -0.0655781610180597                       0 
      -1.89244622311156                       0         1.2246880531311        43.0174217224121   -1.84553954879506E-06           253951.703125                101278.5        288.085998535156       0.103230700199362     -0.0655781693935345                       0 
      -1.88994497248624                       0         1.2246880531311        43.0174217224121   -1.88820230640638E-06           253951.703125                101278.5        288.085998535156       0.103230702303538     -0.0655781769828296                       0 
      -1.88744372186093                       0         1.2246880531311        43.0174217224121   -1.93086506401771E-06           253951.703125                101278.5        288.085998535156       0.103230704407714     -0.0655781845721246                       0 
      -1.88494247123562                       0         1.2246880531311        43.0174217224121   -1.97352782162904E-06           253951.703125                101278.5        288.085998535156        0.10323070651189     -0.0655781921614196                       0 
      -1.88244122061031                       0         1.2246880531311        43.0174217224121   -2.01619057924036E-06           253951.703125                101278.5        288.085998535156       0.103230708616066     -0.0655781997507147                       0 
      -1.87993996998499                       0         1.2246880531311        43.0174217224121   -2.05885333685169E-06           253951.703125                101278.5        288.085998535156       0.103230710720242     -0.0655782073400097                       0 
      -1.87743871935968                       0         1.2246880531311        43.0174217224121   -2.10151609446302E-06           253951.703125                101278.5        288.085998535156       0.103230712824418     -0.0655782149293048                       0 
      -1.87493746873437                       0         1.2246880531311        43.0174217224121   -2.14417885207435E-06           253951.703125                101278.5        288.085998535156       0.103230714928594     -0.0655782225185998                       0 
      -1.87243621810905                       0         1.2246880531311        43.0174217224121   -2.18684160968567E-06           253951.703125                101278.5        288.085998535156        0.10323071703277     -0.0655782301078949                       0 
      -1.86993496748374                       0         1.2246880531311        43.0174217224121     -2.229504367297E-06           253951.703125                101278.5        288.085998535156       0.103230719136946     -0.0655782376971899                       0 
      -1.86743371685843                       0         1.2246880531311        43.0174217224121   -2.27216712490833E-06           253951.703125                101278.5        288.085998535156       0.103230721241122     -0.0655782452864849                       0 
      -1.86493246623312                       0         1.2246880531311        43.0174217224121   -2.31482988251965E-06           253951.703125                101278.5        288.085998535156       0.103230723345298       -0.06557825287578                       0 
       -1.8624312156078                       0         1.2246880531311        43.0174217224121   -2.35749264013098E-06           253951.703125                101278.5        288.085998535156       0.103230725449474      -0.065578260465075                       0 
      -1.85992996498249                       0         1.2246880531311        43.0174217224121   -2.40015539774231E-06           253951.703125                101278.5        288.085998535156        0.10323072755365     -0.0655782680543701                       0 
      -1.85742871435718                       0         1.2246880531311        43.0174217224121   -2.44281815535363E-06           253951.703125                101278.5        288.085998535156       0.103230729657826     -0.0655782756436651                       0 
      -1.85492746373187                       0         1.2246880531311        43.0174217224121   -2.48548091296496E-06           253951.703125                101278.5        288.085998535156       0.103230731762002     -0.0655782832329602                       0 
      -1.85242621310655                       0         1.2246880531311        43.0174217224121   -2.52814367057629E-06           253951.703125                101278.5        288.085998535156       0.103230733866178     -0.0655782908222552                       0 
      -1.84992496248124                       0         1.2246880531311        43.0174217224121   -2.57080642818761E-06           253951.703125                101278.5        288.085998535156       0.103230735970354     -0.0655782984115502                       0 
      -1.84742371185593                       0         1.2246880531311        43.0174217224121   -2.61346918579894E-06           253951.703125                101278.5        288.085998535156        0.10323073807453     -0.0655783060008453                       0 
      -1.84492246123062                       0         1.2246880531311        43.0174217224121   -2.65613194341026E-06           253951.703125                101278.5        288.085998535156       0.103230740178706     -0.0655783135901403                       0 
       -1.8424212106053                       0         1.2246880531311        43.0174217224121   -2.69879470102159E-06           253951.703125                101278.5        288.085998535156       0.103230742282882     -0.0655783211794354                       0 
      -1.83991995997999                       0         1.2246880531311        43.0174217224121   -2.74145745863292E-06           253951.703125                101278.5        288.085998535156       0.103230744387058     -0.0655783287687304                       0 
      -1.83741870935468                       0         1.2246880531311        43.0174218905005   -2.78523470322403E-06           253951.703125                101278.5        288.085998535156       0.103230746527877     -0.0655783376357964                       0 
      -1.83491745872936                       0         1.2246880531311        43.0174222412971   -2.83022336876419E-06           253951.703125                101278.5        288.085998535156       0.103230748708528     -0.0655783478917692                       0 
      -1.83241620810405                       0         1.2246880531311        43.0174225920937   -2.87521203430434E-06           253951.703125                101278.5        288.085998535156       0.103230750889178      -0.065578358147742                       0 
      -1.82991495747874                       0         1.2246880531311        43.0174229428902   -2.92020069984449E-06           253951.703125                101278.5        288.085998535156       0.103230753069828     -0.0655783684037148                       0 
      -1.82741370685343                       0         1.2246880531311        43.0174232936868   -2.96518936538465E-06           253951.703125                101278.5        288.085998535156       0.103230755250479     -0.0655783786596876                       0 
      -1.82491245622811                       0         1.2246880531311        43.0174236444834    -3.0101780309248E-06           253951.703125                101278.5        288.085998535156       0.103230757431129     -0.0655783889156604                       0 
       -1.8224112056028                       0         1.2246880531311        43.0174239952799   -3.05516669646495E-06           253951.703125                101278.5        288.085998535156       0.103230759611779     -0.0655783991716332                       0 
      -1.81990995497749                       0         1.2246880531311        43.0174243460765   -3.10015536200511E-06           253951.703125                101278.5        288.085998535156        0.10323076179243      -0.065578409427606                       0 
      -1.81740870435218                       0         1.2246880531311        43.0174246968731   -3.14514402754526E-06           253951.703125                101278.5        288.085998535156        0.10323076397308     -0.0655784196835788                       0 
      -1.81490745372686                       0         1.2246880531311        43.0174250476696   -3.19013269308541E-06           253951.703125                101278.5        288.085998535156       0.103230766153731     -0.0655784299395516                       0 
      -1.81240620310155                       0         1.2246880531311        43.0174253984662   -3.23512135862556E-06           253951.703125                101278.5        288.085998535156       0.103230768334381     -0.0655784401955244                       0 
      -1.80990495247624                       0         1.2246880531311        43.0174257492627   -3.28011002416572E-06           253951.703125                101278.5        288.085998535156       0.103230770515031     -0.0655784504514972                       0 
      -1.80740370185093                       0         1.2246880531311        43.0174261000593   -3.32509868970587E-06           253951.703125                101278.5        288.085998535156       0.103230772695682       -0.06557846070747                       0 
      -1.80490245122561                       0         1.2246880531311        43.0174264508559   -3.37008735524602E-06           253951.703125                101278.5        288.085998535156       0.103230774876332     -0.0655784709634428                       0 
       -1.8024012006003                       0         1.2246880531311        43.0174268016524   -3.41507602078618E-06           253951.703125                101278.5        288.085998535156       0.103230777056982     -0.0655784812194156                       0 
      -1.79989994997499                       0         1.2246880531311         43.017427152449   -3.46006468632633E-06           253951.703125                101278.5        288.085998535156       0.103230779237633     -0.0655784914753884                       0 
      -1.79739869934967                       0         1.2246880531311        43.0174275032456   -3.50505335186648E-06           253951.703125                101278.5        288.085998535156       0.103230781418283     -0.0655785017313612                       0 
      -1.79489744872436                       0         1.2246880531311        43.0174278540421   -3.55004201740663E-06           253951.703125                101278.5        288.085998535156       0.103230783598933      -0.065578511987334                       0 
      -1.79239619809905                       0         1.2246880531311        43.0174282048387   -3.59503068294679E-06           253951.703125                101278.5        288.085998535156       0.103230785779584     -0.0655785222433068                       0 
      -1.78989494747374                       0         1.2246880531311        43.0174285556352   -3.64001934848694E-06           253951.703125                101278.5        288.085998535156       0.103230787960234     -0.0655785324992796                       0 
      -1.78739369684842                       0         1.2246880531311        43.0174289062372   -3.69916572114992E-06           253951.703125                101278.5        288.085998535156       0.103230791097717     -0.0655785423051002                       0 
      -1.78489244622311                       0         1.2246880531311        43.0174292565728   -3.77769742314403E-06           253951.703125                101278.5        288.085998535156       0.103230795545337     -0.0655785514945536                       0 
       -1.7823911955978                       0         1.2246880531311        43.0174293518066   -3.86073276461733E-06           253951.703125                101278.5        288.085998535156        0.10323079675436     -0.0655785642303182                       0 
      -1.77988994497249                       0         1.2246880531311        43.0174293543588   -3.94509760113763E-06           253951.703125                101278.5        288.085998535156        0.10323079675436     -0.0655785782834661                       0 
      -1.77738869434717                       0         1.2246880531311         43.017429619977   -3.99320078244588E-06           253951.703125                101278.5        288.085998535156        0.10323079675436      -0.065578591665003                       0 
      -1.77488744372186                       0         1.2246880531311        43.0174298855952   -4.04130396375413E-06           253951.703125                101278.5        288.085998535156        0.10323079675436     -0.0655786050465398                       0 
      -1.77238619309655                       0         1.2246880531311        43.0174301512134   -4.08940714506238E-06           253951.703125                101278.5        288.085998535156        0.10323079675436     -0.0655786184280766                       0 
      -1.76988494247124                       0         1.2246880531311        43.0174304168316   -4.13751032637063E-06           253951.703125                101278.5        288.085998535156        0.10323079675436     -0.0655786318096134                       0 
      -1.76738369184592                       0         1.2246880531311        43.0174306824499   -4.18561350767888E-06           253951.703125                101278.5        288.085998535156        0.10323079675436     -0.0655786451911503                       0 
      -1.76488244122061                       0         1.2246880531311        43.0174309480681   -4.23371668898712E-06           253951.703125                101278.5        288.085998535156        0.10323079675436     -0.0655786585726871                       0 
       -1.7623811905953                       0         1.2246880531311        43.0174312136863   -4.28181987029537E-06           253951.703125                101278.5        288.085998535156        0.10323079675436     -0.0655786719542239                       0 
      -1.75987993996998                       0         1.2246880531311        43.0174314793045   -4.32992305160362E-06           253951.703125                101278.5        288.085998535156        0.10323079675436     -0.0655786853357607                       0 
      -1.75737868934467                       0         1.2246880531311        43.0174317449227   -4.37802623291187E-06           253951.703125                101278.5        288.085998535156        0.10323079675436     -0.0655786987172976                       0 
      -1.75487743871936                       0         1.2246880531311        43.0174320105409   -4.42612941422012E-06           253951.703125                101278.5        288.085998535156        0.10323079675436     -0.0655787120988344                       0 
      -1.75237618809405                       0         1.2246880531311        43.0174322761592   -4.47423259552837E-06           253951.703125                101278.5        288.085998535156        0.10323079675436     -0.0655787254803712                       0 
      -1.74987493746873                       0         1.2246880531311        43.0174325417774   -4.52233577683662E-06           253951.703125                101278.5        288.085998535156        0.10323079675436      -0.065578738861908                       0 
      -1.74737368684342                       0         1.2246880531311        43.0174328073956   -4.57043895814486E-06           253951.703125                101278.5        288.085998535156        0.10323079675436     -0.0655787522434449                       0 
      -1.74487243621811                       0         1.2246880531311        43.0174330730138   -4.61854213945311E-06           253951.703125                101278.5        288.085998535156        0.10323079675436     -0.0655787656249817                       0 
       -1.7423711855928                       0         1.2246880531311         43.017433338632   -4.66664532076136E-06           253951.703125                101278.5        288.085998535156        0.10323079675436     -0.0655787790065185                       0 
      -1.73986993496748                       0         1.2246880531311        43.0174336042502   -4.71474850206961E-06           253951.703125                101278.5        288.085998535156        0.10323079675436     -0.0655787923880553                       0 
      -1.73736868434217                       0         1.2246880531311        43.0174338698685   -4.76285168337786E-06           253951.703125                101278.5        288.085998535156        0.10323079675436     -0.0655788057695922                       0 
      -1.73486743371686                       0         1.2246880531311        43.0174341354867   -4.81095486468611E-06           253951.703125                101278.5        288.085998535156        0.10323079675436      -0.065578819151129                       0 
      -1.73236618309155                       0         1.2246880531311        43.0174344011049   -4.85905804599435E-06           253951.703125                101278.5        288.085998535156        0.10323079675436     -0.0655788325326658                       0 
      -1.72986493246623                       0         1.2246880531311        43.0174346701726   -4.90998174969225E-06           253951.703125                101278.5        288.085998535156        0.10323079675436     -0.0655788482932874                       0 
      -1.72736368184092                       0         1.2246880531311        43.0174349414127   -4.96268182309949E-06           253951.703125                101278.5        288.085998535156        0.10323079675436     -0.0655788655522605                       0 
      -1.72486243121561                       0         1.2246880531311        43.0174352126528   -5.01538189650675E-06           253951.703125                101278.5        288.085998535156        0.10323079675436     -0.0655788828112336                       0 
       -1.7223611805903                       0         1.2246880531311         43.017435483893     -5.068081969914E-06           253951.703125                101278.5        288.085998535156        0.10323079675436     -0.0655789000702067                       0 