VARIABLES = "x"
 "y"
 "Density"
 "Momentum_x"
 "Momentum_y"
 "Energy"
 "Pressure"
 "Temperature"
 "Mach"
 "C<sub>p</sub>"
 "Roe_Dissipation"
ZONE
DT=(DOUBLE,DOUBLE,DOUBLE,DOUBLE,DOUBLE,DOUBLE,DOUBLE,DOUBLE,DOUBLE,DOUBLE,DOUBLE)
                     -2                       0        1.22136795520782         52.702751159668    3.80326400772885E-06            253372.90625           100894.296875        287.773406982422       0.126885697245598      -0.607186675071716                       0 
      -1.99749874937469                       0        1.22136795520782          52.70275215181    9.58579692258043E-07            253372.90625           100894.296875        287.773406982422       0.126885699982123      -0.607186752988014                       0 
      -1.99499749874937                       0        1.22136795520782        52.7027531439521   -1.88610462321509E-06            253372.90625           100894.296875        287.773406982422       0.126885702718648      -0.607186830904311                       0 
      -1.99249624812406                       0        1.22136795520782        52.7027541360941   -4.73078893868797E-06            253372.90625           100894.296875        287.773406982422       0.126885705455173      -0.607186908820609                       0 
      -1.98999499749875                       0        1.22136795520782        52.7027551282362   -7.57547325416084E-06            253372.90625           100894.296875        287.773406982422       0.126885708191698      -0.607186986736906                       0 
      -1.98749374687344                       0        1.22136795520782        52.7027561203783   -1.04201575696337E-05            253372.90625           100894.296875        287.773406982422       0.126885710928223      -0.607187064653204                       0 
      -1.98499249624812                       0        1.22136795520782        52.7027571125203   -1.32648418851069E-05            253372.90625           100894.296875        287.773406982422       0.126885713664748      -0.607187142569501                       0 
      -1.98249124562281                       0        1.22136795520782        52.7027581046624   -1.61095262005797E-05            253372.90625           100894.296875        287.773406982422       0.126885716401273      -0.607187220485799                       0 
       -1.9799899949975                       0        1.22136795520782        52.7027590968044   -1.89542105160526E-05            253372.90625           100894.296875        287.773406982422       0.126885719137798      -0.607187298402096                       0 
      -1.97748874437219                       0        1.22136795520782        52.7027600889465   -2.17988948315257E-05            253372.90625           100894.296875        287.773406982422       0.126885721874323      -0.607187376318394                       0 
      -1.97498749374687                       0        1.22136795520782        52.7027610810885   -2.46435791469986E-05            253372.90625           100894.296875        287.773406982422       0.126885724610848      -0.607187454234691                       0 
      -1.97248624312156                       0        1.22136795520782        52.7027620732306   -2.74882634624715E-05            253372.90625           100894.296875        287.773406982422       0.126885727347374      -0.607187532150989                       0 
      -1.96998499249625                       0        1.22136795520782        52.7027630653727   -3.03329477779446E-05            253372.90625           100894.296875        287.773406982422       0.126885730083899      -0.607187610067286                       0 
      -1.96748374187094                       0        1.22136795520782        52.7027640575147   -3.31776320934175E-05            253372.90625           100894.296875        287.773406982422       0.126885732820424      -0.607187687983584                       0 
      -1.96498249124562                       0        1.22136795520782        52.7027650496568   -3.60223164088904E-05            253372.90625           100894.296875        287.773406982422       0.126885735556949      -0.607187765899881                       0 
      -1.96248124062031                       0        1.22136795520782        52.7027660417988   -3.88670007243633E-05            253372.90625           100894.296875        287.773406982422       0.126885738293474      -0.607187843816179                       0 
        -1.959979989995                       0        1.22136795520782        52.7027670339409   -4.17116850398364E-05            253372.90625           100894.296875        287.773406982422       0.126885741029999      -0.607187921732476                       0 
      -1.95747873936968                       0        1.22136795520782        52.7027680260829   -4.45563693553093E-05            253372.90625           100894.296875        287.773406982422       0.126885743766524      -0.607187999648774                       0 
      -1.95497748874437                       0        1.22136795520782         52.702769018225   -4.74010536707821E-05            253372.90625           100894.296875        287.773406982422       0.126885746503049      -0.607188077565071                       0 
      -1.95247623811906                       0        1.22136795520782        52.7027706297933   -5.01732268123299E-05            253372.90625           100894.296875        287.773406982422       0.126885750077512      -0.607188172875267                       0 
      -1.94997498749375                       0        1.22136795520782        52.7027745442036   -5.26758250690162E-05            253372.90625           100894.296875        287.773406982422       0.126885756767178      -0.607188332850783                       0 
      -1.94747373686843                       0        1.22136795520782        52.7027784586138   -5.51784233257024E-05            253372.90625           100894.296875        287.773406982422       0.126885763456844      -0.607188492826298                       0 
      -1.94497248624312                       0        1.22136795520782        52.7027823730241   -5.76810215823889E-05            253372.90625           100894.296875        287.773406982422        0.12688577014651      -0.607188652801813                       0 
      -1.94247123561781                       0        1.22136795520782        52.7027862874343   -6.01836198390752E-05            253372.90625           100894.296875        287.773406982422       0.126885776836176      -0.607188812777329                       0 
       -1.9399699849925                       0        1.22136795520782        52.7027902018446   -6.26862180957615E-05            253372.90625           100894.296875        287.773406982422       0.126885783525842      -0.607188972752844                       0 
      -1.93746873436718                       0        1.22136795520782        52.7027941162548   -6.51888163524478E-05            253372.90625           100894.296875        287.773406982422       0.126885790215508       -0.60718913272836                       0 
      -1.93496748374187                       0        1.22136795520782         52.702798030665   -6.76914146091343E-05            253372.90625           100894.296875        287.773406982422       0.126885796905174      -0.607189292703875                       0 
      -1.93246623311656                       0        1.22136795520782        52.7028019450753   -7.01940128658205E-05            253372.90625           100894.296875        287.773406982422       0.126885803594839       -0.60718945267939                       0 
      -1.92996498249125                       0        1.22136795520782        52.7028058594855   -7.26966111225068E-05            253372.90625           100894.296875        287.773406982422       0.126885810284505      -0.607189612654906                       0 
      -1.92746373186593                       0        1.22136795520782        52.7028097738957   -7.51992093791933E-05            253372.90625           100894.296875        287.773406982422       0.126885816974171      -0.607189772630421                       0 
      -1.92496248124062                       0        1.22136795520782         52.702813688306   -7.77018076358796E-05            253372.90625           100894.296875        287.773406982422       0.126885823663837      -0.607189932605936                       0 
      -1.92246123061531                       0        1.22136795520782        52.7028176027162   -8.02044058925658E-05            253372.90625           100894.296875        287.773406982422       0.126885830353503      -0.607190092581452                       0 
      -1.91995997998999                       0        1.22136795520782        52.7028215171265   -8.27070041492523E-05            253372.90625           100894.296875        287.773406982422       0.126885837043169      -0.607190252556967                       0 
      -1.91745872936468                       0        1.22136795520782        52.7028254315367   -8.52096024059386E-05            253372.90625           100894.296875        287.773406982422       0.126885843732835      -0.607190412532483                       0 
      -1.91495747873937                       0        1.22136795520782        52.7028293459469   -8.77122006626249E-05            253372.90625           100894.296875        287.773406982422       0.126885850422501      -0.607190572507998                       0 
      -1.91245622811406                       0        1.22136795520782        52.7028332603572   -9.02147989193111E-05            253372.90625           100894.296875        287.773406982422       0.126885857112167      -0.607190732483513                       0 
      -1.90995497748874                       0        1.22136795520782        52.7028371747674   -9.27173971759976E-05            253372.90625           100894.296875        287.773406982422       0.126885863801833      -0.607190892459029                       0 
      -1.90745372686343                       0        1.22136795520782        52.7028410891777   -9.52199954326839E-05            253372.90625           100894.296875        287.773406982422       0.126885870491499      -0.607191052434544                       0 
      -1.90495247623812                       0        1.22136795520782        52.7028450035879   -9.77225936893702E-05            253372.90625           100894.296875        287.773406982422       0.126885877181165      -0.607191212410059                       0 
      -1.90245122561281                       0        1.22136795520782        52.7028489179982   -0.000100225191946057            253372.90625           100894.296875        287.773406982422       0.126885883870831      -0.607191372385575                       0 
      -1.89994997498749                       0        1.22136795520782        52.7028528324084   -0.000102727790202743            253372.90625           100894.296875        287.773406982422       0.126885890560497       -0.60719153236109                       0 
      -1.89744872436218                       0        1.22136795520782        52.7028567468186   -0.000105230388459429            253372.90625           100894.296875        287.773406982422       0.126885897250163      -0.607191692336606                       0 
      -1.89494747373687                       0        1.22136795520782        52.7028600882241   -0.000108921713965105            253372.90625           100894.296875        287.773406982422       0.126885902004305      -0.607191811213297                       0 
      -1.89244622311156                       0        1.22136795520782        52.7028672014139   -0.000112840373399311            253372.90625           100894.296875        287.773406982422       0.126885919634475       -0.60719229016665                       0 
      -1.88994497248624                       0        1.22136795520782        52.7028737795219   -0.000115475422250932            253372.90625           100894.296875        287.773406982422       0.126885937079101      -0.607192731770582                       0 
      -1.88744372186093                       0        1.22136795520782        52.7028803576299   -0.000118110471102552            253372.90625           100894.296875        287.773406982422       0.126885954523726      -0.607193173374514                       0 
      -1.88494247123562                       0        1.22136795520782         52.702886935738   -0.000120745519954173            253372.90625           100894.296875        287.773406982422       0.126885971968352      -0.607193614978445                       0 
      -1.88244122061031                       0        1.22136795520782         52.702893513846   -0.000123380568805793            253372.90625           100894.296875        287.773406982422       0.126885989412978      -0.607194056582377                       0 
      -1.87993996998499                       0        1.22136795520782        52.7029000919541   -0.000126015617657414            253372.90625           100894.296875        287.773406982422       0.126886006857604      -0.607194498186309                       0 
      -1.87743871935968                       0        1.22136795520782        52.7029066700621   -0.000128650666509034            253372.90625           100894.296875        287.773406982422       0.126886024302229       -0.60719493979024                       0 
      -1.87493746873437                       0        1.22136795520782        52.7029132481701   -0.000131285715360655            253372.90625           100894.296875        287.773406982422       0.126886041746855      -0.607195381394172                       0 
      -1.87243621810905                       0        1.22136795520782        52.7029198262782   -0.000133920764212275            253372.90625           100894.296875        287.773406982422       0.126886059191481      -0.607195822998104                       0 
      -1.86993496748374                       0        1.22136795520782        52.7029264043862   -0.000136555813063896            253372.90625           100894.296875        287.773406982422       0.126886076636107      -0.607196264602035                       0 
      -1.86743371685843                       0        1.22136795520782        52.7029329824942   -0.000139190861915516            253372.90625           100894.296875        287.773406982422       0.126886094080733      -0.607196706205967                       0 
      -1.86493246623312                       0        1.22136795520782        52.7029395606023   -0.000141825910767137            253372.90625           100894.296875        287.773406982422       0.126886111525358      -0.607197147809899                       0 
       -1.8624312156078                       0        1.22136795520782        52.7029461387103   -0.000144460959618757            253372.90625           100894.296875        287.773406982422       0.126886128969984       -0.60719758941383                       0 
      -1.85992996498249                       0        1.22136795520782        52.7029527168183   -0.000147096008470378            253372.90625           100894.296875        287.773406982422        0.12688614641461      -0.607198031017762                       0 
      -1.85742871435718                       0        1.22136795520782        52.7029592949264   -0.000149731057321998            253372.90625           100894.296875        287.773406982422       0.126886163859236      -0.607198472621694                       0 
      -1.85492746373187                       0        1.22136795520782        52.7029658730344   -0.000152366106173619            253372.90625           100894.296875        287.773406982422       0.126886181303861      -0.607198914225625                       0 
      -1.85242621310655                       0        1.22136795520782        52.7029724511424   -0.000155001155025239            253372.90625           100894.296875        287.773406982422       0.126886198748487      -0.607199355829557                       0 
      -1.84992496248124                       0        1.22136795520782        52.7029790292505    -0.00015763620387686            253372.90625           100894.296875        287.773406982422       0.126886216193113      -0.607199797433489                       0 
      -1.84742371185593                       0        1.22136795520782        52.7029856073585    -0.00016027125272848            253372.90625           100894.296875        287.773406982422       0.126886233637739       -0.60720023903742                       0 
      -1.84492246123062                       0        1.22136795520782        52.7029921854665   -0.000162906301580101            253372.90625           100894.296875        287.773406982422       0.126886251082365      -0.607200680641352                       0 
       -1.8424212106053                       0        1.22136795520782        52.7029987635746   -0.000165541350431721            253372.90625           100894.296875        287.773406982422        0.12688626852699      -0.607201122245284                       0 
      -1.83991995997999                       0        1.22136795520782        52.7030053416826   -0.000168176399283342            253372.90625           100894.296875        287.773406982422       0.126886285971616      -0.607201563849215                       0 
      -1.83741870935468                       0        1.22136795520782        52.7030133763268   -0.000170890022756461            253372.90625           100894.296875        287.773406982422       0.126886306011246      -0.607202074676582                       0 
      -1.83491745872936                       0        1.22136795520782        52.7030229941913   -0.000173689054982013            253372.90625           100894.296875        287.773406982422       0.126886328871585      -0.607202660748182                       0 
      -1.83241620810405                       0        1.22136795520782        52.7030326120557   -0.000176488087207564            253372.90625           100894.296875        287.773406982422       0.126886351731923      -0.607203246819782                       0 
      -1.82991495747874                       0        1.22136795520782        52.7030422299202   -0.000179287119433116            253372.90625           100894.296875        287.773406982422       0.126886374592261      -0.607203832891382                       0 
      -1.82741370685343                       0        1.22136795520782        52.7030518477847   -0.000182086151658667            253372.90625           100894.296875        287.773406982422       0.126886397452599      -0.607204418962982                       0 
      -1.82491245622811                       0        1.22136795520782        52.7030614656491   -0.000184885183884219            253372.90625           100894.296875        287.773406982422       0.126886420312938      -0.607205005034582                       0 
       -1.8224112056028                       0        1.22136795520782        52.7030710835136    -0.00018768421610977            253372.90625           100894.296875        287.773406982422       0.126886443173276      -0.607205591106182                       0 
      -1.81990995497749                       0        1.22136795520782        52.7030807013781   -0.000190483248335322            253372.90625           100894.296875        287.773406982422       0.126886466033614      -0.607206177177782                       0 
      -1.81740870435218                       0        1.22136795520782        52.7030903192426   -0.000193282280560874            253372.90625           100894.296875        287.773406982422       0.126886488893953      -0.607206763249382                       0 
      -1.81490745372686                       0        1.22136795520782         52.703099937107   -0.000196081312786425            253372.90625           100894.296875        287.773406982422       0.126886511754291      -0.607207349320982                       0 
      -1.81240620310155                       0        1.22136795520782        52.7031095549715   -0.000198880345011977            253372.90625           100894.296875        287.773406982422       0.126886534614629      -0.607207935392582                       0 
      -1.80990495247624                       0        1.22136795520782         52.703119172836   -0.000201679377237528            253372.90625           100894.296875        287.773406982422       0.126886557474967      -0.607208521464182                       0 
      -1.80740370185093                       0        1.22136795520782        52.7031287907005    -0.00020447840946308            253372.90625           100894.296875        287.773406982422       0.126886580335306      -0.607209107535782                       0 
      -1.80490245122561                       0        1.22136795520782        52.7031384085649   -0.000207277441688631            253372.90625           100894.296875        287.773406982422       0.126886603195644      -0.607209693607382                       0 
       -1.8024012006003                       0        1.22136795520782        52.7031480264294   -0.000210076473914183            253372.90625           100894.296875        287.773406982422       0.126886626055982      -0.607210279678982                       0 
      -1.79989994997499                       0        1.22136795520782        52.7031576442939   -0.000212875506139735            253372.90625           100894.296875        287.773406982422       0.126886648916321      -0.607210865750582                       0 
      -1.79739869934967                       0        1.22136795520782        52.7031672621583   -0.000215674538365286            253372.90625           100894.296875        287.773406982422       0.126886671776659      -0.607211451822182                       0 
      -1.79489744872436                       0        1.22136795520782        52.7031768800228   -0.000218473570590838            253372.90625           100894.296875        287.773406982422       0.126886694636997      -0.607212037893782                       0 
      -1.79239619809905                       0        1.22136795520782        52.7031864978873   -0.000221272602816389            253372.90625           100894.296875        287.773406982422       0.126886717497335      -0.607212623965382                       0 
      -1.78989494747374                       0        1.22136795520782        52.7031961157518   -0.000224071635041941            253372.90625           100894.296875        287.773406982422       0.126886740357674      -0.607213210036982                       0 
      -1.78739369684842                       0        1.22136795520782        52.7032053484198   -0.000227523406104765            253372.90625           100894.296875        287.773406982422        0.12688676320037      -0.607213770270404                       0 
      -1.78489244622311                       0        1.22136795520782        52.7032140536606    -0.00023186893469612            253372.90625           100894.296875        287.773406982422       0.126886786018911      -0.607214295125101                       0 
       -1.7823911955978                       0        1.22136795520782        52.7032257175176   -0.000236478051101287            253372.90625           100894.296875        287.773402775564       0.126886816029769      -0.607215027063336                       0 
      -1.77988994497249                       0        1.22136795520782        52.7032384791957   -0.000241169020853566            253372.90625           100894.296875        287.773396998173       0.126886848706003      -0.607215835852085                       0 
      -1.77738869434717                       0        1.22136795520782        52.7032505521942   -0.000244154214798428            253372.90625           100894.296875        287.773391216496       0.126886879357847      -0.607216597500317                       0 
      -1.77488744372186                       0        1.22136795520782        52.7032626251927   -0.000247139408743289            253372.90625           100894.296875        287.773385434819        0.12688691000969       -0.60721735914855                       0 
      -1.77238619309655                       0        1.22136795520782        52.7032746981912   -0.000250124602688151            253372.90625           100894.296875        287.773379653143       0.126886940661533      -0.607218120796782                       0 
      -1.76988494247124                       0        1.22136795520782        52.7032867711897   -0.000253109796633013            253372.90625           100894.296875        287.773373871466       0.126886971313376      -0.607218882445014                       0 
      -1.76738369184592                       0        1.22136795520782        52.7032988441883   -0.000256094990577874            253372.90625           100894.296875        287.773368089789       0.126887001965219      -0.607219644093246                       0 
      -1.76488244122061                       0        1.22136795520782        52.7033109171868   -0.000259080184522736            253372.90625           100894.296875        287.773362308112       0.126887032617062      -0.607220405741479                       0 
       -1.7623811905953                       0        1.22136795520782        52.7033229901853   -0.000262065378467597            253372.90625           100894.296875        287.773356526435       0.126887063268906      -0.607221167389711                       0 
      -1.75987993996998                       0        1.22136795520782        52.7033350631838   -0.000265050572412459            253372.90625           100894.296875        287.773350744758       0.126887093920749      -0.607221929037943                       0 
      -1.75737868934467                       0        1.22136795520782        52.7033471361823   -0.000268035766357321            253372.90625           100894.296875        287.773344963082       0.126887124572592      -0.607222690686175                       0 
      -1.75487743871936                       0        1.22136795520782        52.7033592091808   -0.000271020960302182            253372.90625           100894.296875        287.773339181405       0.126887155224435      -0.607223452334408                       0 
      -1.75237618809405                       0        1.22136795520782        52.7033712821794   -0.000274006154247044            253372.90625           100894.296875        287.773333399728       0.126887185876278       -0.60722421398264                       0 
      -1.74987493746873                       0        1.22136795520782        52.7033833551779   -0.000276991348191906            253372.90625           100894.296875        287.773327618051       0.126887216528121      -0.607224975630872                       0 
      -1.74737368684342                       0        1.22136795520782        52.7033954281764   -0.000279976542136767            253372.90625           100894.296875        287.773321836374       0.126887247179965      -0.607225737279104                       0 
      -1.74487243621811                       0        1.22136795520782        52.7034075011749   -0.000282961736081629            253372.90625           100894.296875        287.773316054698       0.126887277831808      -0.607226498927337                       0 
       -1.7423711855928                       0        1.22136795520782        52.7034195741734   -0.000285946930026491            253372.90625           100894.296875        287.773310273021       0.126887308483651      -0.607227260575569                       0 
      -1.73986993496748                       0        1.22136795520782         52.703431647172   -0.000288932123971352            253372.90625           100894.296875        287.773304491344       0.126887339135494      -0.607228022223801                       0 
      -1.73736868434217                       0        1.22136795520782        52.7034437201705   -0.000291917317916214            253372.90625           100894.296875        287.773298709667       0.126887369787337      -0.607228783872033                       0 
      -1.73486743371686                       0        1.22136795520782         52.703455793169   -0.000294902511861076            253372.90625           100894.296875         287.77329292799        0.12688740043918      -0.607229545520266                       0 
      -1.73236618309155                       0        1.22136795520782        52.7034678661675   -0.000297887705805937            253372.90625           100894.296875        287.773287146314       0.126887431091024      -0.607230307168498                       0 
      -1.72986493246623                       0        1.22136795520782        52.7034824679895   -0.000301062382433442            253372.90625           100894.296875        287.773284912109       0.126887468317761      -0.607231211047027                       0 
      -1.72736368184092                       0        1.22136795520782        52.7034986624687   -0.000304356395570783            253372.90625           100894.296875        287.773284912109       0.126887509685377      -0.607232204502433                       0 
      -1.72486243121561                       0        1.22136795520782        52.7035148569478   -0.000307650408708124            253372.90625           100894.296875        287.773284912109       0.126887551052993       -0.60723319795784                       0 
       -1.7223611805903                       0        1.22136795520782         52.703531051427   -0.000310944421845466            253372.90625           100894.296875        287.773284912109       0.126887592420609      -0.607234191413247                       0 