TITLE = "Visualization of the volumetric solution"
VARIABLES = "x","y","Adjoint_Density","Adjoint_Momentum_x","Adjoint_Momentum_y","Adjoint_Energy","Sensitivity_x","Sensitivity_y","Surface_Sensitivity"
ZONE NODES= 2400, ELEMENTS= 2291, DATAPACKING=POINT, ZONETYPE=FEQUADRILATERAL
0.000000e+00	1.250000e+00	6.726137e+00	-4.032206e-02	3.285727e+00	-5.943750e-05	-1.030544e+02	-4.029252e-03	0.000000e+00	
0.000000e+00	1.218354e+00	6.894820e+00	-4.180037e-02	2.811698e+00	-6.939665e-05	-1.030809e+02	1.132758e-02	0.000000e+00	
3.448276e-02	1.218354e+00	-9.294446e+00	-6.368391e-02	3.776565e+00	-1.891639e-05	2.862440e+01	-1.151250e-04	0.000000e+00	
3.448276e-02	1.250000e+00	-1.247524e+01	-6.133213e-02	4.698442e+00	-2.503593e-05	2.861361e+01	-3.738539e-03	0.000000e+00	
0.000000e+00	1.186709e+00	7.132168e+00	-4.971477e-02	2.808272e+00	-7.188686e-05	-1.031052e+02	8.668929e-03	0.000000e+00	
3.448276e-02	1.186709e+00	-8.999704e+00	-7.313066e-02	3.777263e+00	-2.574372e-05	2.863288e+01	4.016806e-03	0.000000e+00	
0.000000e+00	1.155063e+00	7.208888e+00	-5.328220e-02	2.809641e+00	-6.781984e-05	-1.030998e+02	3.756980e-03	0.000000e+00	
3.448276e-02	1.155063e+00	-8.933077e+00	-7.585025e-02	3.779700e+00	-2.084825e-05	2.863618e+01	2.019581e-03	0.000000e+00	
0.000000e+00	1.123418e+00	7.080377e+00	-4.994331e-02	2.810009e+00	-6.468522e-05	-1.031014e+02	1.064327e-03	0.000000e+00	
3.448276e-02	1.123418e+00	-9.027928e+00	-7.309318e-02	3.779856e+00	-1.789873e-05	2.863789e+01	9.031247e-04	0.000000e+00	
0.000000e+00	1.091772e+00	7.050634e+00	-4.915270e-02	2.811044e+00	-6.325762e-05	-1.031021e+02	-2.578641e-04	0.000000e+00	
3.448276e-02	1.091772e+00	-9.045081e+00	-7.257629e-02	3.780588e+00	-1.630104e-05	2.863864e+01	3.103651e-04	0.000000e+00	
0.000000e+00	1.060127e+00	7.011989e+00	-4.794891e-02	2.811291e+00	-6.260317e-05	-1.031019e+02	-5.124791e-04	0.000000e+00	
3.448276e-02	1.060127e+00	-9.076016e+00	-7.156247e-02	3.780523e+00	-1.561062e-05	2.863915e+01	2.060118e-04	0.000000e+00	
0.000000e+00	1.028481e+00	7.003719e+00	-4.768646e-02	2.811625e+00	-6.237783e-05	-1.031023e+02	-3.541687e-04	0.000000e+00	
3.448276e-02	1.028481e+00	-9.082909e+00	-7.135108e-02	3.780649e+00	-1.527145e-05	2.863947e+01	1.296583e-04	0.000000e+00	
0.000000e+00	9.968354e-01	6.995397e+00	-4.743831e-02	2.811701e+00	-6.228580e-05	-1.031025e+02	-1.462394e-04	0.000000e+00	
3.448276e-02	9.968354e-01	-9.092162e+00	-7.107338e-02	3.780580e+00	-1.506659e-05	2.863966e+01	7.930905e-05	0.000000e+00	
0.000000e+00	9.651899e-01	6.994941e+00	-4.743601e-02	2.811759e+00	-6.230399e-05	-1.031027e+02	-1.250042e-05	0.000000e+00	
3.448276e-02	9.651899e-01	-9.094261e+00	-7.102152e-02	3.780552e+00	-1.498222e-05	2.863977e+01	2.229974e-05	0.000000e+00	
0.000000e+00	9.335443e-01	6.995515e+00	-4.745790e-02	2.811752e+00	-6.234724e-05	-1.031027e+02	4.350430e-05	0.000000e+00	
3.448276e-02	9.335443e-01	-9.095552e+00	-7.098398e-02	3.780491e+00	-1.493840e-05	2.863982e+01	-6.206482e-06	0.000000e+00	
0.000000e+00	9.018987e-01	6.997789e+00	-4.752480e-02	2.811737e+00	-6.240693e-05	-1.031028e+02	5.524687e-05	0.000000e+00	
3.448276e-02	9.018987e-01	-9.094849e+00	-7.100163e-02	3.780443e+00	-1.493181e-05	2.863986e+01	-1.708040e-05	0.000000e+00	
0.000000e+00	8.702532e-01	7.000112e+00	-4.758929e-02	2.811711e+00	-6.246202e-05	-1.031028e+02	5.075249e-05	0.000000e+00	
3.448276e-02	8.702532e-01	-9.093807e+00	-7.102606e-02	3.780399e+00	-1.493711e-05	2.863985e+01	-1.510787e-05	0.000000e+00	
0.000000e+00	8.386076e-01	7.002338e+00	-4.765022e-02	2.811686e+00	-6.251218e-05	-1.031027e+02	4.449436e-05	0.000000e+00	
3.448276e-02	8.386076e-01	-9.092506e+00	-7.105838e-02	3.780363e+00	-1.495056e-05	2.863989e+01	-1.145498e-05	0.000000e+00	
0.000000e+00	8.069620e-01	7.004185e+00	-4.770079e-02	2.811665e+00	-6.254425e-05	-1.031028e+02	3.995416e-05	0.000000e+00	
3.448276e-02	8.069620e-01	-9.091298e+00	-7.108895e-02	3.780336e+00	-1.496450e-05	2.863987e+01	-8.673558e-06	0.000000e+00	
0.000000e+00	7.753165e-01	7.005606e+00	-4.773963e-02	2.811647e+00	-6.258175e-05	-1.031028e+02	3.667938e-05	0.000000e+00	
3.448276e-02	7.753165e-01	-9.090299e+00	-7.111467e-02	3.780314e+00	-1.497838e-05	2.863987e+01	-6.980286e-06	0.000000e+00	
0.000000e+00	7.436709e-01	7.006703e+00	-4.777008e-02	2.811633e+00	-6.259730e-05	-1.031028e+02	3.394241e-05	0.000000e+00	
3.448276e-02	7.436709e-01	-9.089450e+00	-7.113700e-02	3.780298e+00	-1.498972e-05	2.863990e+01	-6.189104e-06	0.000000e+00	
0.000000e+00	7.120253e-01	7.007491e+00	-4.779188e-02	2.811624e+00	-6.261505e-05	-1.031028e+02	3.161521e-05	0.000000e+00	
3.448276e-02	7.120253e-01	-9.088803e+00	-7.115413e-02	3.780287e+00	-1.499943e-05	2.863987e+01	-6.407841e-06	0.000000e+00	
0.000000e+00	6.803797e-01	7.008055e+00	-4.780755e-02	2.811616e+00	-6.262608e-05	-1.031028e+02	2.877274e-05	0.000000e+00	
3.448276e-02	6.803797e-01	-9.088311e+00	-7.116720e-02	3.780279e+00	-1.500671e-05	2.863989e+01	-5.647201e-06	0.000000e+00	
0.000000e+00	6.487342e-01	7.008452e+00	-4.781858e-02	2.811611e+00	-6.263372e-05	-1.031028e+02	2.615281e-05	0.000000e+00	
3.448276e-02	6.487342e-01	-9.087943e+00	-7.117701e-02	3.780273e+00	-1.501236e-05	2.863988e+01	-5.006745e-06	0.000000e+00	
0.000000e+00	6.170886e-01	7.008724e+00	-4.782615e-02	2.811607e+00	-6.263893e-05	-1.031028e+02	2.394424e-05	0.000000e+00	
3.448276e-02	6.170886e-01	-9.087675e+00	-7.118416e-02	3.780269e+00	-1.501651e-05	2.863988e+01	-4.495796e-06	0.000000e+00	
0.000000e+00	5.854430e-01	7.008908e+00	-4.783127e-02	2.811605e+00	-6.264242e-05	-1.031028e+02	2.193063e-05	0.000000e+00	
3.448276e-02	5.854430e-01	-9.087484e+00	-7.118930e-02	3.780266e+00	-1.501952e-05	2.863988e+01	-3.920682e-06	0.000000e+00	
0.000000e+00	5.537975e-01	7.009029e+00	-4.783467e-02	2.811603e+00	-6.264471e-05	-1.031028e+02	2.025040e-05	0.000000e+00	
3.448276e-02	5.537975e-01	-9.087350e+00	-7.119291e-02	3.780264e+00	-1.502165e-05	2.863988e+01	-3.438924e-06	0.000000e+00	
0.000000e+00	5.221519e-01	7.009108e+00	-4.783690e-02	2.811602e+00	-6.264620e-05	-1.031028e+02	1.881338e-05	0.000000e+00	
3.448276e-02	5.221519e-01	-9.087258e+00	-7.119542e-02	3.780263e+00	-1.502314e-05	2.863988e+01	-3.019489e-06	0.000000e+00	
0.000000e+00	4.905063e-01	7.009158e+00	-4.783833e-02	2.811601e+00	-6.264714e-05	-1.031028e+02	1.761399e-05	0.000000e+00	
3.448276e-02	4.905063e-01	-9.087196e+00	-7.119713e-02	3.780262e+00	-1.502415e-05	2.863988e+01	-2.675443e-06	0.000000e+00	
0.000000e+00	4.588608e-01	7.009188e+00	-4.783924e-02	2.811601e+00	-6.264774e-05	-1.031028e+02	1.660763e-05	0.000000e+00	
3.448276e-02	4.588608e-01	-9.087155e+00	-7.119829e-02	3.780261e+00	-1.502484e-05	2.863988e+01	-2.393558e-06	0.000000e+00	
0.000000e+00	4.272152e-01	7.009206e+00	-4.783981e-02	2.811600e+00	-6.264810e-05	-1.031028e+02	1.577261e-05	0.000000e+00	
3.448276e-02	4.272152e-01	-9.087129e+00	-7.119905e-02	3.780261e+00	-1.502530e-05	2.863988e+01	-2.167838e-06	0.000000e+00	
0.000000e+00	3.955696e-01	7.009217e+00	-4.784015e-02	2.811600e+00	-6.264832e-05	-1.031028e+02	1.507971e-05	0.000000e+00	
3.448276e-02	3.955696e-01	-9.087112e+00	-7.119956e-02	3.780261e+00	-1.502561e-05	2.863987e+01	-1.987768e-06	0.000000e+00	
0.000000e+00	3.639241e-01	7.009222e+00	-4.784036e-02	2.811600e+00	-6.264845e-05	-1.031028e+02	1.450873e-05	0.000000e+00	
3.448276e-02	3.639241e-01	-9.087103e+00	-7.119988e-02	3.780261e+00	-1.502580e-05	2.863987e+01	-1.846141e-06	0.000000e+00	
0.000000e+00	3.322785e-01	7.009224e+00	-4.784048e-02	2.811600e+00	-6.264853e-05	-1.031027e+02	1.404029e-05	0.000000e+00	
3.448276e-02	3.322785e-01	-9.087097e+00	-7.120009e-02	3.780261e+00	-1.502593e-05	2.863987e+01	-1.736389e-06	0.000000e+00	
0.000000e+00	3.006329e-01	7.009224e+00	-4.784056e-02	2.811600e+00	-6.264857e-05	-1.031027e+02	1.366013e-05	0.000000e+00	
3.448276e-02	3.006329e-01	-9.087095e+00	-7.120022e-02	3.780261e+00	-1.502601e-05	2.863987e+01	-1.654128e-06	0.000000e+00	
0.000000e+00	2.689873e-01	7.009223e+00	-4.784060e-02	2.811600e+00	-6.264859e-05	-1.031027e+02	1.335593e-05	0.000000e+00	
3.448276e-02	2.689873e-01	-9.087094e+00	-7.120030e-02	3.780261e+00	-1.502606e-05	2.863987e+01	-1.595914e-06	0.000000e+00	
0.000000e+00	2.373418e-01	7.009222e+00	-4.784062e-02	2.811600e+00	-6.264861e-05	-1.031027e+02	1.311798e-05	0.000000e+00	
3.448276e-02	2.373418e-01	-9.087095e+00	-7.120035e-02	3.780261e+00	-1.502609e-05	2.863987e+01	-1.559155e-06	0.000000e+00	
0.000000e+00	2.056962e-01	7.009220e+00	-4.784063e-02	2.811600e+00	-6.264861e-05	-1.031027e+02	1.293794e-05	0.000000e+00	
3.448276e-02	2.056962e-01	-9.087096e+00	-7.120039e-02	3.780261e+00	-1.502611e-05	2.863987e+01	-1.541567e-06	0.000000e+00	
0.000000e+00	1.740506e-01	7.009218e+00	-4.784064e-02	2.811600e+00	-6.264862e-05	-1.031027e+02	1.280890e-05	0.000000e+00	
3.448276e-02	1.740506e-01	-9.087098e+00	-7.120041e-02	3.780261e+00	-1.502613e-05	2.863987e+01	-1.541150e-06	0.000000e+00	
0.000000e+00	1.424051e-01	7.009216e+00	-4.784065e-02	2.811600e+00	-6.264862e-05	-1.031027e+02	1.272506e-05	0.000000e+00	
3.448276e-02	1.424051e-01	-9.087100e+00	-7.120043e-02	3.780261e+00	-1.502614e-05	2.863987e+01	-1.556133e-06	0.000000e+00	
0.000000e+00	1.107595e-01	7.009214e+00	-4.784066e-02	2.811600e+00	-6.264863e-05	-1.031027e+02	1.268175e-05	0.000000e+00	
3.448276e-02	1.107595e-01	-9.087101e+00	-7.120045e-02	3.780261e+00	-1.502614e-05	2.863987e+01	-1.585044e-06	0.000000e+00	
0.000000e+00	7.911392e-02	7.009212e+00	-4.784067e-02	2.811600e+00	-6.264863e-05	-1.031027e+02	1.267521e-05	0.000000e+00	
3.448276e-02	7.911392e-02	-9.087103e+00	-7.120046e-02	3.780261e+00	-1.502615e-05	2.863987e+01	-1.626721e-06	0.000000e+00	
0.000000e+00	4.746835e-02	7.009210e+00	-4.784069e-02	2.811600e+00	-6.264864e-05	-1.031027e+02	1.270253e-05	0.000000e+00	
3.448276e-02	4.746835e-02	-9.087105e+00	-7.120049e-02	3.780261e+00	-1.502615e-05	2.863986e+01	-1.680302e-06	0.000000e+00	
0.000000e+00	1.582278e-02	7.009209e+00	-4.784072e-02	2.811600e+00	-6.264865e-05	-1.031027e+02	1.276149e-05	0.000000e+00	
3.448276e-02	1.582278e-02	-9.087106e+00	-7.120053e-02	3.780261e+00	-1.502616e-05	2.863986e+01	-1.745182e-06	0.000000e+00	
0.000000e+00	-1.582278e-02	7.009208e+00	-4.784076e-02	2.811601e+00	-6.264866e-05	-1.031027e+02	1.285043e-05	0.000000e+00	
3.448276e-02	-1.582278e-02	-9.087107e+00	-7.120058e-02	3.780261e+00	-1.502616e-05	2.863986e+01	-1.820976e-06	0.000000e+00	
0.000000e+00	-4.746835e-02	7.009207e+00	-4.784082e-02	2.811601e+00	-6.264868e-05	-1.031027e+02	1.296816e-05	0.000000e+00	
3.448276e-02	-4.746835e-02	-9.087107e+00	-7.120066e-02	3.780261e+00	-1.502617e-05	2.863986e+01	-1.907484e-06	0.000000e+00	
0.000000e+00	-7.911392e-02	7.009208e+00	-4.784090e-02	2.811601e+00	-6.264871e-05	-1.031027e+02	1.311391e-05	0.000000e+00	
3.448276e-02	-7.911392e-02	-9.087106e+00	-7.120078e-02	3.780261e+00	-1.502617e-05	2.863986e+01	-2.004653e-06	0.000000e+00	
0.000000e+00	-1.107595e-01	7.009209e+00	-4.784103e-02	2.811601e+00	-6.264874e-05	-1.031027e+02	1.328724e-05	0.000000e+00	
3.448276e-02	-1.107595e-01	-9.087104e+00	-7.120095e-02	3.780262e+00	-1.502617e-05	2.863986e+01	-2.112561e-06	0.000000e+00	
0.000000e+00	-1.424051e-01	7.009213e+00	-4.784121e-02	2.811601e+00	-6.264879e-05	-1.031027e+02	1.348799e-05	0.000000e+00	
3.448276e-02	-1.424051e-01	-9.087099e+00	-7.120120e-02	3.780262e+00	-1.502617e-05	2.863986e+01	-2.231369e-06	0.000000e+00	
0.000000e+00	-1.740506e-01	7.009219e+00	-4.784146e-02	2.811601e+00	-6.264886e-05	-1.031027e+02	1.371623e-05	0.000000e+00	
3.448276e-02	-1.740506e-01	-9.087090e+00	-7.120157e-02	3.780262e+00	-1.502617e-05	2.863986e+01	-2.361269e-06	0.000000e+00	
0.000000e+00	-2.056962e-01	7.009228e+00	-4.784183e-02	2.811601e+00	-6.264895e-05	-1.031027e+02	1.397216e-05	0.000000e+00	
3.448276e-02	-2.056962e-01	-9.087077e+00	-7.120209e-02	3.780263e+00	-1.502617e-05	2.863986e+01	-2.502423e-06	0.000000e+00	
0.000000e+00	-2.373418e-01	7.009243e+00	-4.784234e-02	2.811601e+00	-6.264907e-05	-1.031027e+02	1.425605e-05	0.000000e+00	
3.448276e-02	-2.373418e-01	-9.087057e+00	-7.120283e-02	3.780263e+00	-1.502617e-05	2.863985e+01	-2.654930e-06	0.000000e+00	
0.000000e+00	-2.689873e-01	7.009264e+00	-4.784306e-02	2.811601e+00	-6.264923e-05	-1.031027e+02	1.456821e-05	0.000000e+00	
3.448276e-02	-2.689873e-01	-9.087028e+00	-7.120388e-02	3.780264e+00	-1.502617e-05	2.863985e+01	-2.818796e-06	0.000000e+00	
0.000000e+00	-3.006329e-01	7.009294e+00	-4.784406e-02	2.811602e+00	-6.264944e-05	-1.031027e+02	1.490901e-05	0.000000e+00	
3.448276e-02	-3.006329e-01	-9.086986e+00	-7.120533e-02	3.780265e+00	-1.502618e-05	2.863985e+01	-2.993997e-06	0.000000e+00	
0.000000e+00	-3.322785e-01	7.009337e+00	-4.784542e-02	2.811602e+00	-6.264971e-05	-1.031027e+02	1.527891e-05	0.000000e+00	
3.448276e-02	-3.322785e-01	-9.086927e+00	-7.120735e-02	3.780267e+00	-1.502620e-05	2.863985e+01	-3.180492e-06	0.000000e+00	
0.000000e+00	-3.639241e-01	7.009396e+00	-4.784727e-02	2.811603e+00	-6.265006e-05	-1.031027e+02	1.567872e-05	0.000000e+00	
3.448276e-02	-3.639241e-01	-9.086846e+00	-7.121010e-02	3.780269e+00	-1.502623e-05	2.863985e+01	-3.378296e-06	0.000000e+00	
0.000000e+00	-3.955696e-01	7.009475e+00	-4.784975e-02	2.811603e+00	-6.265049e-05	-1.031027e+02	1.610958e-05	0.000000e+00	
3.448276e-02	-3.955696e-01	-9.086735e+00	-7.121383e-02	3.780272e+00	-1.502629e-05	2.863985e+01	-3.587181e-06	0.000000e+00	
0.000000e+00	-4.272152e-01	7.009582e+00	-4.785306e-02	2.811604e+00	-6.265103e-05	-1.031027e+02	1.657356e-05	0.000000e+00	
3.448276e-02	-4.272152e-01	-9.086585e+00	-7.121884e-02	3.780276e+00	-1.502640e-05	2.863984e+01	-3.806481e-06	0.000000e+00	
0.000000e+00	-4.588608e-01	7.009723e+00	-4.785740e-02	2.811605e+00	-6.265168e-05	-1.031026e+02	1.707302e-05	0.000000e+00	
3.448276e-02	-4.588608e-01	-9.086385e+00	-7.122548e-02	3.780282e+00	-1.502657e-05	2.863984e+01	-4.033985e-06	0.000000e+00	
0.000000e+00	-4.905063e-01	7.009907e+00	-4.786304e-02	2.811607e+00	-6.265245e-05	-1.031026e+02	1.761174e-05	0.000000e+00	
3.448276e-02	-4.905063e-01	-9.086121e+00	-7.123417e-02	3.780289e+00	-1.502686e-05	2.863984e+01	-4.265837e-06	0.000000e+00	
0.000000e+00	-5.221519e-01	7.010143e+00	-4.787026e-02	2.811609e+00	-6.265333e-05	-1.031026e+02	1.819166e-05	0.000000e+00	
3.448276e-02	-5.221519e-01	-9.085780e+00	-7.124539e-02	3.780297e+00	-1.502733e-05	2.863984e+01	-4.494765e-06	0.000000e+00	
0.000000e+00	-5.537975e-01	7.010442e+00	-4.787937e-02	2.811611e+00	-6.265428e-05	-1.031026e+02	1.881461e-05	0.000000e+00	
3.448276e-02	-5.537975e-01	-9.085343e+00	-7.125968e-02	3.780308e+00	-1.502806e-05	2.863984e+01	-4.712381e-06	0.000000e+00	
0.000000e+00	-5.854430e-01	7.010814e+00	-4.789066e-02	2.811614e+00	-6.265524e-05	-1.031026e+02	1.947333e-05	0.000000e+00	
3.448276e-02	-5.854430e-01	-9.084794e+00	-7.127756e-02	3.780322e+00	-1.502920e-05	2.863983e+01	-4.906125e-06	0.000000e+00	
0.000000e+00	-6.170886e-01	7.011266e+00	-4.790433e-02	2.811618e+00	-6.265608e-05	-1.031026e+02	2.016410e-05	0.000000e+00	
3.448276e-02	-6.170886e-01	-9.084117e+00	-7.129946e-02	3.780338e+00	-1.503096e-05	2.863983e+01	-5.065939e-06	0.000000e+00	
0.000000e+00	-6.487342e-01	7.011800e+00	-4.792044e-02	2.811622e+00	-6.265659e-05	-1.031026e+02	2.088256e-05	0.000000e+00	
3.448276e-02	-6.487342e-01	-9.083303e+00	-7.132567e-02	3.780357e+00	-1.503361e-05	2.863983e+01	-5.168183e-06	0.000000e+00	
0.000000e+00	-6.803797e-01	7.012408e+00	-4.793873e-02	2.811626e+00	-6.265641e-05	-1.031026e+02	2.169483e-05	0.000000e+00	
3.448276e-02	-6.803797e-01	-9.082353e+00	-7.135602e-02	3.780378e+00	-1.503760e-05	2.863982e+01	-5.185078e-06	0.000000e+00	
0.000000e+00	-7.120253e-01	7.013064e+00	-4.795843e-02	2.811630e+00	-6.265503e-05	-1.031026e+02	2.274359e-05	0.000000e+00	
3.448276e-02	-7.120253e-01	-9.081289e+00	-7.138971e-02	3.780400e+00	-1.504348e-05	2.863982e+01	-5.025406e-06	0.000000e+00	
0.000000e+00	-7.436709e-01	7.013713e+00	-4.797788e-02	2.811633e+00	-6.265164e-05	-1.031026e+02	2.439473e-05	0.000000e+00	
3.448276e-02	-7.436709e-01	-9.080168e+00	-7.142475e-02	3.780420e+00	-1.505205e-05	2.863982e+01	-4.585207e-06	0.000000e+00	
0.000000e+00	-7.753165e-01	7.014260e+00	-4.799416e-02	2.811635e+00	-6.264512e-05	-1.031026e+02	2.703612e-05	0.000000e+00	
3.448276e-02	-7.753165e-01	-9.079098e+00	-7.145731e-02	3.780434e+00	-1.506432e-05	2.863982e+01	-3.620236e-06	0.000000e+00	
0.000000e+00	-8.069620e-01	7.014539e+00	-4.800224e-02	2.811632e+00	-6.263380e-05	-1.031026e+02	3.119227e-05	0.000000e+00	
3.448276e-02	-8.069620e-01	-9.078271e+00	-7.148075e-02	3.780435e+00	-1.508165e-05	2.863981e+01	-2.017608e-06	0.000000e+00	
0.000000e+00	-8.386076e-01	7.014302e+00	-4.799454e-02	2.811622e+00	-6.261561e-05	-1.031025e+02	3.685828e-05	0.000000e+00	
3.448276e-02	-8.386076e-01	-9.077995e+00	-7.148440e-02	3.780411e+00	-1.510538e-05	2.863981e+01	6.205217e-07	0.000000e+00	
0.000000e+00	-8.702532e-01	7.013135e+00	-4.795886e-02	2.811602e+00	-6.258734e-05	-1.031025e+02	4.485164e-05	0.000000e+00	
3.448276e-02	-8.702532e-01	-9.078777e+00	-7.145139e-02	3.780347e+00	-1.513743e-05	2.863979e+01	4.283852e-06	0.000000e+00	
0.000000e+00	-9.018987e-01	7.010491e+00	-4.787915e-02	2.811564e+00	-6.254593e-05	-1.031025e+02	5.755837e-05	0.000000e+00	
3.448276e-02	-9.018987e-01	-9.081343e+00	-7.135761e-02	3.780218e+00	-1.517816e-05	2.863978e+01	1.063707e-05	0.000000e+00	
0.000000e+00	-9.335443e-01	7.005505e+00	-4.772940e-02	2.811502e+00	-6.248581e-05	-1.031025e+02	8.660024e-05	0.000000e+00	
3.448276e-02	-9.335443e-01	-9.086820e+00	-7.116668e-02	3.779993e+00	-1.522978e-05	2.863975e+01	2.085887e-05	0.000000e+00	
0.000000e+00	-9.651899e-01	6.997360e+00	-4.748220e-02	2.811404e+00	-6.240572e-05	-1.031024e+02	1.541446e-04	0.000000e+00	
3.448276e-02	-9.651899e-01	-9.096507e+00	-7.083263e-02	3.779624e+00	-1.528716e-05	2.863970e+01	4.186954e-05	0.000000e+00	
0.000000e+00	-9.968354e-01	6.984550e+00	-4.708728e-02	2.811263e+00	-6.229660e-05	-1.031022e+02	2.992103e-04	0.000000e+00	
3.448276e-02	-9.968354e-01	-9.112338e+00	-7.028789e-02	3.779075e+00	-1.535650e-05	2.863962e+01	7.206634e-05	0.000000e+00	
0.000000e+00	-1.028481e+00	6.966156e+00	-4.651358e-02	2.811060e+00	-6.216828e-05	-1.031021e+02	5.371400e-04	0.000000e+00	
3.448276e-02	-1.028481e+00	-9.136226e+00	-6.945952e-02	3.778261e+00	-1.541348e-05	2.863950e+01	1.166688e-04	0.000000e+00	
0.000000e+00	-1.060127e+00	6.938565e+00	-4.567253e-02	2.810793e+00	-6.199761e-05	-1.031019e+02	8.126809e-04	0.000000e+00	
3.448276e-02	-1.060127e+00	-9.171927e+00	-6.824857e-02	3.777205e+00	-1.550567e-05	2.863926e+01	1.240769e-04	0.000000e+00	
0.000000e+00	-1.091772e+00	6.900448e+00	-4.456298e-02	2.810451e+00	-6.181846e-05	-1.031024e+02	8.281789e-04	0.000000e+00	
3.448276e-02	-1.091772e+00	-9.224947e+00	-6.654016e-02	3.775813e+00	-1.555726e-05	2.863881e+01	8.299524e-05	0.000000e+00	
0.000000e+00	-1.123418e+00	6.848440e+00	-4.308035e-02	2.810021e+00	-6.158518e-05	-1.031023e+02	-6.213637e-06	0.000000e+00	
3.448276e-02	-1.123418e+00	-9.302151e+00	-6.425966e-02	3.774560e+00	-1.597693e-05	2.863767e+01	-1.810266e-04	0.000000e+00	
0.000000e+00	-1.155063e+00	6.785893e+00	-4.111650e-02	2.809699e+00	-6.129476e-05	-1.031015e+02	-2.063720e-03	0.000000e+00	
3.448276e-02	-1.155063e+00	-9.412872e+00	-6.106471e-02	3.773043e+00	-1.678283e-05	2.863547e+01	-4.769438e-04	0.000000e+00	
0.000000e+00	-1.186709e+00	6.763882e+00	-3.959013e-02	2.808732e+00	-6.127841e-05	-1.031099e+02	-7.010646e-03	0.000000e+00	
3.448276e-02	-1.186709e+00	-9.608374e+00	-5.599900e-02	3.780686e+00	-2.212879e-05	2.863059e+01	-1.286775e-03	0.000000e+00	
0.000000e+00	-1.218354e+00	6.358922e+00	-2.630981e-02	2.774004e+00	-3.894264e-05	-1.030907e+02	-1.470481e-02	0.000000e+00	
3.448276e-02	-1.218354e+00	-9.699186e+00	-4.556036e-02	3.714902e+00	9.640348e-06	2.862439e+01	-1.921505e-03	0.000000e+00	
6.896552e-02	1.218354e+00	-2.227629e+01	-6.097236e-02	3.791943e+00	2.258732e-05	2.139996e+01	-3.396396e-03	0.000000e+00	
6.896552e-02	1.250000e+00	-2.835864e+01	-5.911993e-02	4.724541e+00	4.031086e-05	2.140307e+01	-6.659029e-04	0.000000e+00	
6.896552e-02	1.186709e+00	-2.190264e+01	-7.326202e-02	3.795663e+00	1.306699e-05	2.140219e+01	-8.239356e-04	0.000000e+00	
6.896552e-02	1.155063e+00	-2.185513e+01	-7.521977e-02	3.798182e+00	1.856447e-05	2.140391e+01	-4.634987e-04	0.000000e+00	
6.896552e-02	1.123418e+00	-2.191342e+01	-7.337058e-02	3.798457e+00	2.129995e-05	2.140489e+01	-1.443978e-04	0.000000e+00	
6.896552e-02	1.091772e+00	-2.191690e+01	-7.321501e-02	3.799018e+00	2.288017e-05	2.140525e+01	-2.029307e-04	0.000000e+00	
6.896552e-02	1.060127e+00	-2.193388e+01	-7.261099e-02	3.798903e+00	2.340117e-05	2.140547e+01	-9.580904e-05	0.000000e+00	
6.896552e-02	1.028481e+00	-2.193457e+01	-7.260042e-02	3.798983e+00	2.365423e-05	2.140559e+01	-5.704627e-05	0.000000e+00	
6.896552e-02	9.968354e-01	-2.193999e+01	-7.244097e-02	3.798907e+00	2.378624e-05	2.140568e+01	-2.631660e-05	0.000000e+00	
6.896552e-02	9.651899e-01	-2.194051e+01	-7.243641e-02	3.798883e+00	2.383383e-05	2.140572e+01	-3.271680e-05	0.000000e+00	
6.896552e-02	9.335443e-01	-2.194129e+01	-7.241058e-02	3.798832e+00	2.385832e-05	2.140574e+01	-3.319646e-05	0.000000e+00	
6.896552e-02	9.018987e-01	-2.194071e+01	-7.242218e-02	3.798796e+00	2.385856e-05	2.140576e+01	-3.158999e-05	0.000000e+00	
6.896552e-02	8.702532e-01	-2.194006e+01	-7.243334e-02	3.798762e+00	2.385356e-05	2.140576e+01	-2.404419e-05	0.000000e+00	
6.896552e-02	8.386076e-01	-2.193922e+01	-7.245121e-02	3.798735e+00	2.384377e-05	2.140577e+01	-1.779997e-05	0.000000e+00	
6.896552e-02	8.069620e-01	-2.193845e+01	-7.246869e-02	3.798713e+00	2.383412e-05	2.140576e+01	-1.273998e-05	0.000000e+00	
6.896552e-02	7.753165e-01	-2.193780e+01	-7.248423e-02	3.798696e+00	2.382467e-05	2.140576e+01	-1.037932e-05	0.000000e+00	
6.896552e-02	7.436709e-01	-2.193722e+01	-7.249854e-02	3.798682e+00	2.381673e-05	2.140577e+01	-8.985766e-06	0.000000e+00	
6.896552e-02	7.120253e-01	-2.193676e+01	-7.250996e-02	3.798673e+00	2.380989e-05	2.140576e+01	-7.862976e-06	0.000000e+00	
6.896552e-02	6.803797e-01	-2.193639e+01	-7.251927e-02	3.798665e+00	2.380453e-05	2.140577e+01	-7.131326e-06	0.000000e+00	
6.896552e-02	6.487342e-01	-2.193610e+01	-7.252656e-02	3.798660e+00	2.380021e-05	2.140576e+01	-6.408934e-06	0.000000e+00	
6.896552e-02	6.170886e-01	-2.193588e+01	-7.253215e-02	3.798656e+00	2.379696e-05	2.140576e+01	-5.737624e-06	0.000000e+00	
6.896552e-02	5.854430e-01	-2.193571e+01	-7.253636e-02	3.798654e+00	2.379448e-05	2.140576e+01	-5.151698e-06	0.000000e+00	
6.896552e-02	5.537975e-01	-2.193559e+01	-7.253947e-02	3.798652e+00	2.379267e-05	2.140576e+01	-4.671058e-06	0.000000e+00	
6.896552e-02	5.221519e-01	-2.193551e+01	-7.254174e-02	3.798651e+00	2.379134e-05	2.140576e+01	-4.277120e-06	0.000000e+00	
6.896552e-02	4.905063e-01	-2.193545e+01	-7.254336e-02	3.798650e+00	2.379040e-05	2.140576e+01	-3.963839e-06	0.000000e+00	
6.896552e-02	4.588608e-01	-2.193540e+01	-7.254451e-02	3.798649e+00	2.378973e-05	2.140576e+01	-3.714898e-06	0.000000e+00	
6.896552e-02	4.272152e-01	-2.193537e+01	-7.254532e-02	3.798649e+00	2.378927e-05	2.140576e+01	-3.519265e-06	0.000000e+00	
6.896552e-02	3.955696e-01	-2.193535e+01	-7.254587e-02	3.798648e+00	2.378895e-05	2.140576e+01	-3.365915e-06	0.000000e+00	
6.896552e-02	3.639241e-01	-2.193534e+01	-7.254625e-02	3.798648e+00	2.378873e-05	2.140576e+01	-3.246748e-06	0.000000e+00	
6.896552e-02	3.322785e-01	-2.193533e+01	-7.254650e-02	3.798648e+00	2.378858e-05	2.140576e+01	-3.155330e-06	0.000000e+00	
6.896552e-02	3.006329e-01	-2.193533e+01	-7.254667e-02	3.798648e+00	2.378848e-05	2.140576e+01	-3.087099e-06	0.000000e+00	
6.896552e-02	2.689873e-01	-2.193533e+01	-7.254678e-02	3.798648e+00	2.378842e-05	2.140575e+01	-3.038640e-06	0.000000e+00	
6.896552e-02	2.373418e-01	-2.193533e+01	-7.254685e-02	3.798648e+00	2.378837e-05	2.140575e+01	-3.007339e-06	0.000000e+00	
6.896552e-02	2.056962e-01	-2.193533e+01	-7.254690e-02	3.798648e+00	2.378834e-05	2.140575e+01	-2.991033e-06	0.000000e+00	
6.896552e-02	1.740506e-01	-2.193533e+01	-7.254693e-02	3.798648e+00	2.378832e-05	2.140575e+01	-2.987889e-06	0.000000e+00	
6.896552e-02	1.424051e-01	-2.193533e+01	-7.254696e-02	3.798648e+00	2.378831e-05	2.140575e+01	-2.996366e-06	0.000000e+00	
6.896552e-02	1.107595e-01	-2.193533e+01	-7.254698e-02	3.798648e+00	2.378830e-05	2.140575e+01	-3.015213e-06	0.000000e+00	
6.896552e-02	7.911392e-02	-2.193533e+01	-7.254700e-02	3.798648e+00	2.378829e-05	2.140575e+01	-3.043465e-06	0.000000e+00	
6.896552e-02	4.746835e-02	-2.193533e+01	-7.254702e-02	3.798648e+00	2.378829e-05	2.140575e+01	-3.080411e-06	0.000000e+00	
6.896552e-02	1.582278e-02	-2.193533e+01	-7.254705e-02	3.798648e+00	2.378829e-05	2.140575e+01	-3.125558e-06	0.000000e+00	
6.896552e-02	-1.582278e-02	-2.193533e+01	-7.254710e-02	3.798649e+00	2.378829e-05	2.140575e+01	-3.178584e-06	0.000000e+00	
6.896552e-02	-4.746835e-02	-2.193533e+01	-7.254716e-02	3.798649e+00	2.378829e-05	2.140575e+01	-3.239307e-06	0.000000e+00	
6.896552e-02	-7.911392e-02	-2.193533e+01	-7.254726e-02	3.798649e+00	2.378829e-05	2.140575e+01	-3.307648e-06	0.000000e+00	
6.896552e-02	-1.107595e-01	-2.193533e+01	-7.254741e-02	3.798649e+00	2.378830e-05	2.140575e+01	-3.383617e-06	0.000000e+00	
6.896552e-02	-1.424051e-01	-2.193533e+01	-7.254762e-02	3.798649e+00	2.378831e-05	2.140575e+01	-3.467291e-06	0.000000e+00	
6.896552e-02	-1.740506e-01	-2.193532e+01	-7.254794e-02	3.798650e+00	2.378832e-05	2.140574e+01	-3.558812e-06	0.000000e+00	
6.896552e-02	-2.056962e-01	-2.193531e+01	-7.254840e-02	3.798650e+00	2.378832e-05	2.140574e+01	-3.658367e-06	0.000000e+00	
6.896552e-02	-2.373418e-01	-2.193530e+01	-7.254905e-02	3.798651e+00	2.378833e-05	2.140574e+01	-3.766208e-06	0.000000e+00	
6.896552e-02	-2.689873e-01	-2.193527e+01	-7.254998e-02	3.798652e+00	2.378832e-05	2.140574e+01	-3.882597e-06	0.000000e+00	
6.896552e-02	-3.006329e-01	-2.193524e+01	-7.255129e-02	3.798653e+00	2.378830e-05	2.140574e+01	-4.007794e-06	0.000000e+00	
6.896552e-02	-3.322785e-01	-2.193519e+01	-7.255311e-02	3.798655e+00	2.378825e-05	2.140574e+01	-4.141844e-06	0.000000e+00	
6.896552e-02	-3.639241e-01	-2.193513e+01	-7.255562e-02	3.798658e+00	2.378814e-05	2.140574e+01	-4.284443e-06	0.000000e+00	
6.896552e-02	-3.955696e-01	-2.193504e+01	-7.255905e-02	3.798662e+00	2.378795e-05	2.140574e+01	-4.434385e-06	0.000000e+00	
6.896552e-02	-4.272152e-01	-2.193492e+01	-7.256366e-02	3.798667e+00	2.378764e-05	2.140574e+01	-4.589468e-06	0.000000e+00	
6.896552e-02	-4.588608e-01	-2.193475e+01	-7.256979e-02	3.798674e+00	2.378713e-05	2.140573e+01	-4.745516e-06	0.000000e+00	
6.896552e-02	-4.905063e-01	-2.193454e+01	-7.257786e-02	3.798683e+00	2.378634e-05	2.140573e+01	-4.897368e-06	0.000000e+00	
6.896552e-02	-5.221519e-01	-2.193427e+01	-7.258830e-02	3.798695e+00	2.378514e-05	2.140573e+01	-5.037610e-06	0.000000e+00	
6.896552e-02	-5.537975e-01	-2.193391e+01	-7.260161e-02	3.798710e+00	2.378334e-05	2.140573e+01	-5.161437e-06	0.000000e+00	
6.896552e-02	-5.854430e-01	-2.193348e+01	-7.261825e-02	3.798729e+00	2.378069e-05	2.140573e+01	-5.262870e-06	0.000000e+00	
6.896552e-02	-6.170886e-01	-2.193294e+01	-7.263864e-02	3.798754e+00	2.377684e-05	2.140573e+01	-5.345911e-06	0.000000e+00	
6.896552e-02	-6.487342e-01	-2.193230e+01	-7.266297e-02	3.798784e+00	2.377131e-05	2.140572e+01	-5.400643e-06	0.000000e+00	
6.896552e-02	-6.803797e-01	-2.193157e+01	-7.269106e-02	3.798819e+00	2.376347e-05	2.140572e+01	-5.421511e-06	0.000000e+00	
6.896552e-02	-7.120253e-01	-2.193076e+01	-7.272206e-02	3.798860e+00	2.375249e-05	2.140572e+01	-5.317207e-06	0.000000e+00	
6.896552e-02	-7.436709e-01	-2.192994e+01	-7.275404e-02	3.798904e+00	2.373731e-05	2.140572e+01	-4.992158e-06	0.000000e+00	
6.896552e-02	-7.753165e-01	-2.192919e+01	-7.278331e-02	3.798947e+00	2.371674e-05	2.140572e+01	-4.122654e-06	0.000000e+00	
6.896552e-02	-8.069620e-01	-2.192869e+01	-7.280364e-02	3.798982e+00	2.368925e-05	2.140571e+01	-2.557419e-06	0.000000e+00	
6.896552e-02	-8.386076e-01	-2.192867e+01	-7.280488e-02	3.798997e+00	2.365379e-05	2.140571e+01	3.928222e-07	0.000000e+00	
6.896552e-02	-8.702532e-01	-2.192954e+01	-7.277162e-02	3.798971e+00	2.360896e-05	2.140571e+01	4.700794e-06	0.000000e+00	
6.896552e-02	-9.018987e-01	-2.193189e+01	-7.268089e-02	3.798874e+00	2.355649e-05	2.140570e+01	1.257148e-05	0.000000e+00	
6.896552e-02	-9.335443e-01	-2.193657e+01	-7.250033e-02	3.798663e+00	2.349686e-05	2.140569e+01	2.400691e-05	0.000000e+00	
6.896552e-02	-9.651899e-01	-2.194466e+01	-7.218520e-02	3.798271e+00	2.344226e-05	2.140568e+01	4.671161e-05	0.000000e+00	
6.896552e-02	-9.968354e-01	-2.195749e+01	-7.167679e-02	3.797626e+00	2.339372e-05	2.140568e+01	7.579852e-05	0.000000e+00	
6.896552e-02	-1.028481e+00	-2.197637e+01	-7.090264e-02	3.796618e+00	2.338962e-05	2.140568e+01	1.304879e-04	0.000000e+00	
6.896552e-02	-1.060127e+00	-2.200414e+01	-6.976866e-02	3.795222e+00	2.340430e-05	2.140568e+01	1.769093e-04	0.000000e+00	
6.896552e-02	-1.091772e+00	-2.204362e+01	-6.822288e-02	3.793335e+00	2.352624e-05	2.140568e+01	3.077711e-04	0.000000e+00	
6.896552e-02	-1.123418e+00	-2.211369e+01	-6.598358e-02	3.791739e+00	2.352822e-05	2.140554e+01	4.239520e-04	0.000000e+00	
6.896552e-02	-1.155063e+00	-2.218476e+01	-6.384153e-02	3.789303e+00	2.349912e-05	2.140536e+01	1.050523e-03	0.000000e+00	
6.896552e-02	-1.186709e+00	-2.246752e+01	-5.851662e-02	3.803436e+00	1.957305e-05	2.140472e+01	1.236899e-03	0.000000e+00	
6.896552e-02	-1.218354e+00	-2.242917e+01	-4.705842e-02	3.735964e+00	4.251845e-05	2.140415e+01	2.774061e-03	0.000000e+00	
1.034483e-01	1.218354e+00	-2.866402e+01	-5.968832e-02	3.804708e+00	4.299814e-05	1.538325e+01	-1.656090e-03	0.000000e+00	
1.034483e-01	1.250000e+00	-3.624898e+01	-6.254586e-02	4.741274e+00	7.863113e-05	1.538546e+01	4.111141e-04	0.000000e+00	
1.034483e-01	1.186709e+00	-2.819771e+01	-7.453716e-02	3.810412e+00	3.090036e-05	1.538253e+01	-1.478625e-03	0.000000e+00	
1.034483e-01	1.155063e+00	-2.816741e+01	-7.588069e-02	3.813080e+00	3.661148e-05	1.538229e+01	-8.227777e-04	0.000000e+00	
1.034483e-01	1.123418e+00	-2.821167e+01	-7.451970e-02	3.813592e+00	3.914520e-05	1.538238e+01	-3.828870e-04	0.000000e+00	
1.034483e-01	1.091772e+00	-2.821431e+01	-7.445809e-02	3.814029e+00	4.079298e-05	1.538239e+01	-2.848852e-04	0.000000e+00	
1.034483e-01	1.060127e+00	-2.822414e+01	-7.410269e-02	3.813862e+00	4.124606e-05	1.538241e+01	-1.636444e-04	0.000000e+00	