TITLE = "Visualization of the volumetric solution"
VARIABLES = "x","y","Adjoint_Density","Adjoint_Momentum_x","Adjoint_Momentum_y","Adjoint_Energy","Sensitivity_x","Sensitivity_y","Surface_Sensitivity"
ZONE NODES= 3200, ELEMENTS= 3081, DATAPACKING=POINT, ZONETYPE=FEQUADRILATERAL
-2.000000e+00	1.250000e+00	4.577775e-17	2.040397e-20	-2.258590e-22	-1.798504e-22	0.000000e+00	0.000000e+00	0.000000e+00	
-2.000000e+00	1.218354e+00	3.928296e-17	1.776422e-20	-7.881965e-22	-1.564982e-22	0.000000e+00	0.000000e+00	0.000000e+00	
-1.948718e+00	1.218354e+00	-2.140446e-17	3.225375e-21	-1.644519e-21	8.311674e-23	0.000000e+00	0.000000e+00	0.000000e+00	
-1.948718e+00	1.250000e+00	-2.489425e-17	5.144169e-21	-7.082705e-22	9.412749e-23	0.000000e+00	0.000000e+00	0.000000e+00	
-2.000000e+00	1.186709e+00	3.553251e-17	1.597618e-20	-1.525440e-21	-1.412591e-22	0.000000e+00	0.000000e+00	0.000000e+00	
-1.948718e+00	1.186709e+00	-2.017350e-17	2.930206e-21	-2.743164e-21	7.814180e-23	0.000000e+00	0.000000e+00	0.000000e+00	
-2.000000e+00	1.155063e+00	3.132393e-17	1.396238e-20	-2.182442e-21	-1.243558e-22	0.000000e+00	0.000000e+00	0.000000e+00	
-1.948718e+00	1.155063e+00	-1.842811e-17	2.611653e-21	-3.559077e-21	7.115848e-23	0.000000e+00	0.000000e+00	0.000000e+00	
-2.000000e+00	1.123418e+00	2.768523e-17	1.228176e-20	-2.781659e-21	-1.098185e-22	0.000000e+00	0.000000e+00	0.000000e+00	
-1.948718e+00	1.123418e+00	-1.664501e-17	2.385824e-21	-4.150742e-21	6.410436e-23	0.000000e+00	0.000000e+00	0.000000e+00	
-2.000000e+00	1.091772e+00	2.494257e-17	1.104379e-20	-3.310659e-21	-9.892372e-23	0.000000e+00	0.000000e+00	0.000000e+00	
-1.948718e+00	1.091772e+00	-1.509766e-17	2.210961e-21	-4.590243e-21	5.805038e-23	0.000000e+00	0.000000e+00	0.000000e+00	
-2.000000e+00	1.060127e+00	2.294913e-17	1.017540e-20	-3.784000e-21	-9.105008e-23	0.000000e+00	0.000000e+00	0.000000e+00	
-1.948718e+00	1.060127e+00	-1.386279e-17	2.071635e-21	-4.954304e-21	5.326993e-23	0.000000e+00	0.000000e+00	0.000000e+00	
-2.000000e+00	1.028481e+00	2.138051e-17	9.513936e-21	-4.214016e-21	-8.488353e-23	0.000000e+00	0.000000e+00	0.000000e+00	
-1.948718e+00	1.028481e+00	-1.287682e-17	1.935923e-21	-5.294273e-21	4.948345e-23	0.000000e+00	0.000000e+00	0.000000e+00	
-2.000000e+00	9.968354e-01	1.991434e-17	8.901993e-21	-4.610250e-21	-7.912347e-23	0.000000e+00	0.000000e+00	0.000000e+00	
-1.948718e+00	9.968354e-01	-1.201793e-17	1.788051e-21	-5.630847e-21	4.619215e-23	0.000000e+00	0.000000e+00	0.000000e+00	
-2.000000e+00	9.651899e-01	1.833241e-17	8.235032e-21	-4.978135e-21	-7.289344e-23	0.000000e+00	0.000000e+00	0.000000e+00	
-1.948718e+00	9.651899e-01	-1.116804e-17	1.621095e-21	-5.963670e-21	4.292473e-23	0.000000e+00	0.000000e+00	0.000000e+00	
-2.000000e+00	9.335443e-01	1.653251e-17	7.464249e-21	-5.317946e-21	-6.578433e-23	0.000000e+00	0.000000e+00	0.000000e+00	
-1.948718e+00	9.335443e-01	-1.024508e-17	1.437254e-21	-6.279460e-21	3.935996e-23	0.000000e+00	0.000000e+00	0.000000e+00	
-2.000000e+00	9.018987e-01	1.450608e-17	6.586866e-21	-5.627195e-21	-5.776311e-23	0.000000e+00	0.000000e+00	0.000000e+00	
-1.948718e+00	9.018987e-01	-9.208228e-18	1.243567e-21	-6.562362e-21	3.534388e-23	0.000000e+00	0.000000e+00	0.000000e+00	
-2.000000e+00	8.702532e-01	1.229847e-17	5.624539e-21	-5.901187e-21	-4.901208e-23	0.000000e+00	0.000000e+00	0.000000e+00	
-1.948718e+00	8.702532e-01	-8.049032e-18	1.048415e-21	-6.798129e-21	3.085071e-23	0.000000e+00	0.000000e+00	0.000000e+00	
-2.000000e+00	8.386076e-01	9.976883e-18	4.608456e-21	-6.134741e-21	-3.979977e-23	0.000000e+00	0.000000e+00	0.000000e+00	
-1.948718e+00	8.386076e-01	-6.778645e-18	8.592648e-22	-6.977141e-21	2.593088e-23	0.000000e+00	0.000000e+00	0.000000e+00	
-2.000000e+00	8.069620e-01	7.608093e-18	3.568073e-21	-6.322734e-21	-3.039191e-23	0.000000e+00	0.000000e+00	0.000000e+00	
-1.948718e+00	8.069620e-01	-5.417482e-18	6.811632e-22	-7.094190e-21	2.066915e-23	0.000000e+00	0.000000e+00	0.000000e+00	
-2.000000e+00	7.753165e-01	5.248375e-18	2.527157e-21	-6.460912e-21	-2.101177e-23	0.000000e+00	0.000000e+00	0.000000e+00	
-1.948718e+00	7.753165e-01	-3.989109e-18	5.164192e-22	-7.148095e-21	1.516049e-23	0.000000e+00	0.000000e+00	0.000000e+00	
-2.000000e+00	7.436709e-01	2.940418e-18	1.502686e-21	-6.546172e-21	-1.182840e-23	0.000000e+00	0.000000e+00	0.000000e+00	
-1.948718e+00	7.436709e-01	-2.517809e-18	3.646348e-22	-7.140644e-21	9.500503e-24	0.000000e+00	0.000000e+00	0.000000e+00	
-2.000000e+00	7.120253e-01	7.143243e-19	5.061059e-22	-6.576931e-21	-2.961316e-24	0.000000e+00	0.000000e+00	0.000000e+00	
-1.948718e+00	7.120253e-01	-1.028174e-18	2.231692e-22	-7.075977e-21	3.784093e-24	0.000000e+00	0.000000e+00	0.000000e+00	
-2.000000e+00	6.803797e-01	-1.410763e-18	-4.554701e-22	-6.553257e-21	5.512619e-24	0.000000e+00	0.000000e+00	0.000000e+00	
-1.948718e+00	6.803797e-01	4.547819e-19	8.766726e-23	-6.959979e-21	-1.893849e-24	0.000000e+00	0.000000e+00	0.000000e+00	
-2.000000e+00	6.487342e-01	-3.425356e-18	-1.378230e-21	-6.476985e-21	1.355391e-23	0.000000e+00	0.000000e+00	0.000000e+00	
-1.948718e+00	6.487342e-01	1.906010e-18	-4.725503e-23	-6.799883e-21	-7.439621e-24	0.000000e+00	0.000000e+00	0.000000e+00	
-2.000000e+00	6.170886e-01	-5.329038e-18	-2.261261e-21	-6.351629e-21	2.115822e-23	0.000000e+00	0.000000e+00	0.000000e+00	
-1.948718e+00	6.170886e-01	3.301658e-18	-1.872727e-22	-6.603753e-21	-1.276520e-23	0.000000e+00	0.000000e+00	0.000000e+00	
-2.000000e+00	5.854430e-01	-7.129867e-18	-3.106303e-21	-6.182166e-21	2.835433e-23	0.000000e+00	0.000000e+00	0.000000e+00	
-1.948718e+00	5.854430e-01	4.620993e-18	-3.375370e-22	-6.379884e-21	-1.779528e-23	0.000000e+00	0.000000e+00	0.000000e+00	
-2.000000e+00	5.537975e-01	-8.843131e-18	-3.917423e-21	-5.974604e-21	3.519965e-23	0.000000e+00	0.000000e+00	0.000000e+00	
-1.948718e+00	5.537975e-01	5.848477e-18	-5.018919e-22	-6.136045e-21	-2.247481e-23	0.000000e+00	0.000000e+00	0.000000e+00	
-2.000000e+00	5.221519e-01	-1.048895e-17	-4.700300e-21	-5.735435e-21	4.177110e-23	0.000000e+00	0.000000e+00	0.000000e+00	
-1.948718e+00	5.221519e-01	6.975412e-18	-6.822067e-22	-5.878704e-21	-2.677484e-23	0.000000e+00	0.000000e+00	0.000000e+00	
-2.000000e+00	4.905063e-01	-1.208874e-17	-5.461091e-21	-5.470999e-21	4.815161e-23	0.000000e+00	0.000000e+00	0.000000e+00	
-1.948718e+00	4.905063e-01	8.000629e-18	-8.779605e-22	-5.612354e-21	-3.069458e-23	0.000000e+00	0.000000e+00	0.000000e+00	
-2.000000e+00	4.588608e-01	-1.366116e-17	-6.205028e-21	-5.186873e-21	5.441401e-23	0.000000e+00	0.000000e+00	0.000000e+00	
-1.948718e+00	4.588608e-01	8.929981e-18	-1.086162e-21	-5.339097e-21	-3.425897e-23	0.000000e+00	0.000000e+00	0.000000e+00	
-2.000000e+00	4.272152e-01	-1.521815e-17	-6.935048e-21	-4.887390e-21	6.060562e-23	0.000000e+00	0.000000e+00	0.000000e+00	
-1.948718e+00	4.272152e-01	9.774704e-18	-1.301648e-21	-5.058579e-21	-3.751206e-23	0.000000e+00	0.000000e+00	0.000000e+00	
-2.000000e+00	3.955696e-01	-1.676213e-17	-7.650770e-21	-4.575349e-21	6.673695e-23	0.000000e+00	0.000000e+00	0.000000e+00	
-1.948718e+00	3.955696e-01	1.054895e-17	-1.517719e-21	-4.768311e-21	-4.050741e-23	0.000000e+00	0.000000e+00	0.000000e+00	
-2.000000e+00	3.639241e-01	-1.828484e-17	-8.348084e-21	-4.251984e-21	7.277686e-23	0.000000e+00	0.000000e+00	0.000000e+00	
-1.948718e+00	3.639241e-01	1.126701e-17	-1.726999e-21	-4.464323e-21	-4.329759e-23	0.000000e+00	0.000000e+00	0.000000e+00	
-2.000000e+00	3.322785e-01	-1.976807e-17	-9.019417e-21	-3.917154e-21	7.865525e-23	0.000000e+00	0.000000e+00	0.000000e+00	
-1.948718e+00	3.322785e-01	1.194074e-17	-1.922372e-21	-4.142013e-21	-4.592463e-23	0.000000e+00	0.000000e+00	0.000000e+00	
-2.000000e+00	3.006329e-01	-2.118614e-17	-9.654644e-21	-3.569744e-21	8.427248e-23	0.000000e+00	0.000000e+00	0.000000e+00	
-1.948718e+00	3.006329e-01	1.257761e-17	-2.097825e-21	-3.797053e-21	-4.841324e-23	0.000000e+00	0.000000e+00	0.000000e+00	
-2.000000e+00	2.689873e-01	-2.250953e-17	-1.024241e-20	-3.208158e-21	8.951347e-23	0.000000e+00	0.000000e+00	0.000000e+00	
-1.948718e+00	2.689873e-01	1.317980e-17	-2.249052e-21	-3.426168e-21	-5.076765e-23	0.000000e+00	0.000000e+00	0.000000e+00	
-2.000000e+00	2.373418e-01	-2.370889e-17	-1.077160e-20	-2.830838e-21	9.426340e-23	0.000000e+00	0.000000e+00	0.000000e+00	
-1.948718e+00	2.373418e-01	1.374412e-17	-2.373757e-21	-3.027681e-21	-5.297225e-23	0.000000e+00	0.000000e+00	0.000000e+00	
-2.000000e+00	2.056962e-01	-2.475867e-17	-1.123264e-20	-2.436720e-21	9.842198e-23	0.000000e+00	0.000000e+00	0.000000e+00	
-1.948718e+00	2.056962e-01	1.426296e-17	-2.471622e-21	-2.601749e-21	-5.499530e-23	0.000000e+00	0.000000e+00	0.000000e+00	
-2.000000e+00	1.740506e-01	-2.563977e-17	-1.161850e-20	-2.025552e-21	1.019139e-22	0.000000e+00	0.000000e+00	0.000000e+00	
-1.948718e+00	1.740506e-01	1.472569e-17	-2.544008e-21	-2.150288e-21	-5.679475e-23	0.000000e+00	0.000000e+00	0.000000e+00	
-2.000000e+00	1.424051e-01	-2.634079e-17	-1.192503e-20	-1.598064e-21	1.046938e-22	0.000000e+00	0.000000e+00	0.000000e+00	
-1.948718e+00	1.424051e-01	1.512031e-17	-2.593471e-21	-1.676658e-21	-5.832454e-23	0.000000e+00	0.000000e+00	0.000000e+00	
-2.000000e+00	1.107595e-01	-2.685781e-17	-1.215095e-20	-1.155982e-21	1.067455e-22	0.000000e+00	0.000000e+00	0.000000e+00	
-1.948718e+00	1.107595e-01	1.543504e-17	-2.623209e-21	-1.185192e-21	-5.954043e-23	0.000000e+00	0.000000e+00	0.000000e+00	
-2.000000e+00	7.911392e-02	-2.719292e-17	-1.229719e-20	-7.019332e-22	1.080766e-22	0.000000e+00	0.000000e+00	0.000000e+00	
-1.948718e+00	7.911392e-02	1.565950e-17	-2.636526e-21	-6.807094e-22	-6.040424e-23	0.000000e+00	0.000000e+00	0.000000e+00	
-2.000000e+00	4.746835e-02	-2.735199e-17	-1.236611e-20	-2.392638e-22	1.087095e-22	0.000000e+00	0.000000e+00	0.000000e+00	
-1.948718e+00	4.746835e-02	1.578552e-17	-2.636403e-21	-1.680966e-22	-6.088648e-23	0.000000e+00	0.000000e+00	0.000000e+00	
-2.000000e+00	1.582278e-02	-2.734210e-17	-1.236049e-20	2.281639e-22	1.086714e-22	0.000000e+00	0.000000e+00	0.000000e+00	
-1.948718e+00	1.582278e-02	1.580748e-17	-2.625178e-21	3.479533e-22	-6.096731e-23	0.000000e+00	0.000000e+00	0.000000e+00	
-2.000000e+00	-1.582278e-02	-2.716933e-17	-1.228270e-20	6.961771e-22	1.079859e-22	0.000000e+00	0.000000e+00	0.000000e+00	
-1.948718e+00	-1.582278e-02	1.572236e-17	-2.604359e-21	8.630341e-22	-6.063646e-23	0.000000e+00	0.000000e+00	0.000000e+00	
-2.000000e+00	-4.746835e-02	-2.683722e-17	-1.213418e-20	1.160478e-21	1.066669e-22	0.000000e+00	0.000000e+00	0.000000e+00	
-1.948718e+00	-4.746835e-02	1.552975e-17	-2.574541e-21	1.372971e-21	-5.989282e-23	0.000000e+00	0.000000e+00	0.000000e+00	
-2.000000e+00	-7.911392e-02	-2.634632e-17	-1.191521e-20	1.616815e-21	1.047165e-22	0.000000e+00	0.000000e+00	0.000000e+00	
-1.948718e+00	-7.911392e-02	1.523166e-17	-2.535406e-21	1.873684e-21	-5.874389e-23	0.000000e+00	0.000000e+00	0.000000e+00	
-2.000000e+00	-1.107595e-01	-2.569477e-17	-1.162516e-20	2.061137e-21	1.021278e-22	0.000000e+00	0.000000e+00	0.000000e+00	
-1.948718e+00	-1.107595e-01	1.483250e-17	-2.485798e-21	2.361044e-21	-5.720568e-23	0.000000e+00	0.000000e+00	0.000000e+00	
-2.000000e+00	-1.424051e-01	-2.487980e-17	-1.126307e-20	2.489763e-21	9.889042e-23	0.000000e+00	0.000000e+00	0.000000e+00	
-1.948718e+00	-1.424051e-01	1.433896e-17	-2.423867e-21	2.830819e-21	-5.530247e-23	0.000000e+00	0.000000e+00	0.000000e+00	
-2.000000e+00	-1.740506e-01	-2.389983e-17	-1.082842e-20	2.899537e-21	9.499885e-23	0.000000e+00	0.000000e+00	0.000000e+00	
-1.948718e+00	-1.740506e-01	1.375979e-17	-2.347307e-21	3.278740e-21	-5.306637e-23	0.000000e+00	0.000000e+00	0.000000e+00	
-2.000000e+00	-2.056962e-01	-2.275663e-17	-1.032198e-20	3.287980e-21	9.046070e-23	0.000000e+00	0.000000e+00	0.000000e+00	
-1.948718e+00	-2.056962e-01	1.310536e-17	-2.253665e-21	3.700719e-21	-5.053592e-23	0.000000e+00	0.000000e+00	0.000000e+00	
-2.000000e+00	-2.373418e-01	-2.145704e-17	-9.746444e-21	3.653404e-21	8.530368e-23	0.000000e+00	0.000000e+00	0.000000e+00	
-1.948718e+00	-2.373418e-01	1.238688e-17	-2.140744e-21	4.093177e-21	-4.775354e-23	0.000000e+00	0.000000e+00	0.000000e+00	
-2.000000e+00	-2.689873e-01	-2.001396e-17	-9.106789e-21	3.994949e-21	7.957895e-23	0.000000e+00	0.000000e+00	0.000000e+00	
-1.948718e+00	-2.689873e-01	1.161537e-17	-2.007030e-21	4.453416e-21	-4.476163e-23	0.000000e+00	0.000000e+00	0.000000e+00	
-2.000000e+00	-3.006329e-01	-1.844599e-17	-8.410216e-21	4.312520e-21	7.336008e-23	0.000000e+00	0.000000e+00	0.000000e+00	
-1.948718e+00	-3.006329e-01	1.080036e-17	-1.852100e-21	4.779930e-21	-4.159798e-23	0.000000e+00	0.000000e+00	0.000000e+00	
-2.000000e+00	-3.322785e-01	-1.677608e-17	-7.665615e-21	4.606612e-21	6.673727e-23	0.000000e+00	0.000000e+00	0.000000e+00	
-1.948718e+00	-3.322785e-01	9.948775e-18	-1.676926e-21	5.072583e-21	-3.829105e-23	0.000000e+00	0.000000e+00	0.000000e+00	
-2.000000e+00	-3.639241e-01	-1.502900e-17	-6.882674e-21	4.878022e-21	5.980769e-23	0.000000e+00	0.000000e+00	0.000000e+00	
-1.948718e+00	-3.639241e-01	9.063973e-18	-1.483986e-21	5.332564e-21	-3.485633e-23	0.000000e+00	0.000000e+00	0.000000e+00	
-2.000000e+00	-3.955696e-01	-1.322843e-17	-6.070784e-21	5.127495e-21	5.266381e-23	0.000000e+00	0.000000e+00	0.000000e+00	
-1.948718e+00	-3.955696e-01	8.145474e-18	-1.277144e-21	5.562106e-21	-3.129478e-23	0.000000e+00	0.000000e+00	0.000000e+00	
-2.000000e+00	-4.272152e-01	-1.139395e-17	-5.237964e-21	5.355348e-21	4.538193e-23	0.000000e+00	0.000000e+00	0.000000e+00	
-1.948718e+00	-4.272152e-01	7.189360e-18	-1.061281e-21	5.763994e-21	-2.759391e-23	0.000000e+00	0.000000e+00	0.000000e+00	
-2.000000e+00	-4.588608e-01	-9.538892e-18	-4.390054e-21	5.561160e-21	3.801367e-23	0.000000e+00	0.000000e+00	0.000000e+00	
-1.948718e+00	-4.588608e-01	6.189438e-18	-8.417308e-22	5.940950e-21	-2.373186e-23	0.000000e+00	0.000000e+00	0.000000e+00	
-2.000000e+00	-4.905063e-01	-7.669317e-18	-3.530362e-21	5.743578e-21	3.058221e-23	0.000000e+00	0.000000e+00	0.000000e+00	
-1.948718e+00	-4.905063e-01	5.138989e-18	-6.236040e-22	6.095006e-21	-1.968377e-23	0.000000e+00	0.000000e+00	0.000000e+00	
-2.000000e+00	-5.221519e-01	-5.784454e-18	-2.659833e-21	5.900287e-21	2.308428e-23	0.000000e+00	0.000000e+00	0.000000e+00	
-1.948718e+00	-5.221519e-01	4.032768e-18	-4.111392e-22	6.226999e-21	-1.542930e-23	0.000000e+00	0.000000e+00	0.000000e+00	
-2.000000e+00	-5.537975e-01	-3.878498e-18	-1.777711e-21	6.028167e-21	1.549736e-23	0.000000e+00	0.000000e+00	0.000000e+00	
-1.948718e+00	-5.537975e-01	2.868856e-18	-2.071893e-22	6.336290e-21	-1.095982e-23	0.000000e+00	0.000000e+00	0.000000e+00	
-2.000000e+00	-5.854430e-01	-1.943226e-18	-8.824524e-22	6.123603e-21	7.789986e-24	0.000000e+00	0.000000e+00	0.000000e+00	
-1.948718e+00	-5.854430e-01	1.649932e-18	-1.293964e-23	6.420762e-21	-6.283460e-24	0.000000e+00	0.000000e+00	0.000000e+00	
-2.000000e+00	-6.170886e-01	2.918586e-20	2.732450e-23	6.182895e-21	-6.714432e-26	0.000000e+00	0.000000e+00	0.000000e+00	
-1.948718e+00	-6.170886e-01	3.836903e-19	1.721050e-22	6.477079e-21	-1.427081e-24	0.000000e+00	0.000000e+00	0.000000e+00	
-2.000000e+00	-6.487342e-01	2.043829e-18	9.521428e-22	6.202697e-21	-8.092251e-24	0.000000e+00	0.000000e+00	0.000000e+00	
-1.948718e+00	-6.487342e-01	-9.176516e-19	3.498914e-22	6.501135e-21	3.565261e-24	0.000000e+00	0.000000e+00	0.000000e+00	
-2.000000e+00	-6.803797e-01	4.101524e-18	1.891266e-21	6.180424e-21	-1.628669e-23	0.000000e+00	0.000000e+00	0.000000e+00	
-1.948718e+00	-6.803797e-01	-2.238554e-18	5.233983e-22	6.488571e-21	8.636569e-24	0.000000e+00	0.000000e+00	0.000000e+00	
-2.000000e+00	-7.120253e-01	6.197987e-18	2.842544e-21	6.114558e-21	-2.463203e-23	0.000000e+00	0.000000e+00	0.000000e+00	
-1.948718e+00	-7.120253e-01	-3.561608e-18	6.961165e-22	6.435267e-21	1.372219e-23	0.000000e+00	0.000000e+00	0.000000e+00	
-2.000000e+00	-7.436709e-01	8.323071e-18	3.802089e-21	6.004844e-21	-3.308726e-23	0.000000e+00	0.000000e+00	0.000000e+00	
-1.948718e+00	-7.436709e-01	-4.868705e-18	8.714600e-22	6.337726e-21	1.875401e-23	0.000000e+00	0.000000e+00	0.000000e+00	
-2.000000e+00	-7.753165e-01	1.045939e-17	4.763539e-21	5.852386e-21	-4.158346e-23	0.000000e+00	0.000000e+00	0.000000e+00	
-1.948718e+00	-7.753165e-01	-6.141475e-18	1.052169e-21	6.193456e-21	2.366192e-23	0.000000e+00	0.000000e+00	0.000000e+00	
-2.000000e+00	-8.069620e-01	1.257970e-17	5.716429e-21	5.659620e-21	-5.001312e-23	0.000000e+00	0.000000e+00	0.000000e+00	
-1.948718e+00	-8.069620e-01	-7.360928e-18	1.239636e-21	6.001331e-21	2.837196e-23	0.000000e+00	0.000000e+00	0.000000e+00	
-2.000000e+00	-8.386076e-01	1.464370e-17	6.644262e-21	5.430271e-21	-5.821696e-23	0.000000e+00	0.000000e+00	0.000000e+00	
-1.948718e+00	-8.386076e-01	-8.506743e-18	1.433280e-21	5.762299e-21	3.280332e-23	0.000000e+00	0.000000e+00	0.000000e+00	
-2.000000e+00	-8.702532e-01	1.659563e-17	7.522557e-21	5.169072e-21	-6.597372e-23	0.000000e+00	0.000000e+00	0.000000e+00	
-1.948718e+00	-8.702532e-01	-9.557418e-18	1.629865e-21	5.480178e-21	3.686846e-23	0.000000e+00	0.000000e+00	0.000000e+00	
-2.000000e+00	-9.018987e-01	1.836685e-17	8.319677e-21	4.881534e-21	-7.300956e-23	0.000000e+00	0.000000e+00	0.000000e+00	
-1.948718e+00	-9.018987e-01	-1.049299e-17	1.823286e-21	5.163025e-21	4.048374e-23	0.000000e+00	0.000000e+00	0.000000e+00	
-2.000000e+00	-9.335443e-01	1.988660e-17	9.001066e-21	4.573077e-21	-7.904077e-23	0.000000e+00	0.000000e+00	0.000000e+00	
-1.948718e+00	-9.335443e-01	-1.130223e-17	2.004649e-21	4.823629e-21	4.359761e-23	0.000000e+00	0.000000e+00	0.000000e+00	
-2.000000e+00	-9.651899e-01	2.110713e-17	9.542049e-21	4.248437e-21	-8.387378e-23	0.000000e+00	0.000000e+00	0.000000e+00	
-1.948718e+00	-9.651899e-01	-1.199490e-17	2.163983e-21	4.480075e-21	4.624036e-23	0.000000e+00	0.000000e+00	0.000000e+00	
-2.000000e+00	-9.968354e-01	2.204102e-17	9.944698e-21	3.909528e-21	-8.755549e-23	0.000000e+00	0.000000e+00	0.000000e+00	
-1.948718e+00	-9.968354e-01	-1.261695e-17	2.292226e-21	4.151814e-21	4.858573e-23	0.000000e+00	0.000000e+00	0.000000e+00	
-2.000000e+00	-1.028481e+00	2.280931e-17	1.026433e-20	3.555076e-21	-9.056669e-23	0.000000e+00	0.000000e+00	0.000000e+00	
-1.948718e+00	-1.028481e+00	-1.326111e-17	2.386735e-21	3.856240e-21	5.099786e-23	0.000000e+00	0.000000e+00	0.000000e+00	
-2.000000e+00	-1.060127e+00	2.367363e-17	1.062021e-20	3.176374e-21	-9.395414e-23	0.000000e+00	0.000000e+00	0.000000e+00	
-1.948718e+00	-1.060127e+00	-1.406071e-17	2.453284e-21	3.593039e-21	5.401169e-23	0.000000e+00	0.000000e+00	0.000000e+00	
-2.000000e+00	-1.091772e+00	2.503033e-17	1.120421e-20	2.761785e-21	-9.930815e-23	0.000000e+00	0.000000e+00	0.000000e+00	
-1.948718e+00	-1.091772e+00	-1.515334e-17	2.515942e-21	3.343019e-21	5.819584e-23	0.000000e+00	0.000000e+00	0.000000e+00	
-2.000000e+00	-1.123418e+00	2.729972e-17	1.220891e-20	2.287967e-21	-1.083293e-22	0.000000e+00	0.000000e+00	0.000000e+00	
-1.948718e+00	-1.123418e+00	-1.661138e-17	2.604148e-21	3.034336e-21	6.387412e-23	0.000000e+00	0.000000e+00	0.000000e+00	
-2.000000e+00	-1.155063e+00	3.071305e-17	1.377820e-20	1.748213e-21	-1.219650e-22	0.000000e+00	0.000000e+00	0.000000e+00	
-1.948718e+00	-1.155063e+00	-1.835678e-17	2.770618e-21	2.600579e-21	7.077753e-23	0.000000e+00	0.000000e+00	0.000000e+00	
-2.000000e+00	-1.186709e+00	3.496827e-17	1.574638e-20	1.111752e-21	-1.390675e-22	0.000000e+00	0.000000e+00	0.000000e+00	
-1.948718e+00	-1.186709e+00	-2.010241e-17	3.009641e-21	1.899287e-21	7.778598e-23	0.000000e+00	0.000000e+00	0.000000e+00	
-2.000000e+00	-1.218354e+00	3.896389e-17	1.775130e-20	3.716047e-22	-1.551077e-22	0.000000e+00	0.000000e+00	0.000000e+00	
-1.948718e+00	-1.218354e+00	-2.136243e-17	3.357953e-21	6.316746e-22	8.332298e-23	0.000000e+00	0.000000e+00	0.000000e+00	
-1.897436e+00	1.218354e+00	-1.859783e-17	6.866398e-21	-1.047395e-21	7.090694e-23	0.000000e+00	0.000000e+00	0.000000e+00	
-1.897436e+00	1.250000e+00	-2.324686e-17	9.443866e-21	-7.833212e-22	8.671337e-23	0.000000e+00	0.000000e+00	0.000000e+00	
-1.897436e+00	1.186709e+00	-1.698246e-17	6.414792e-21	-1.536016e-21	6.468026e-23	0.000000e+00	0.000000e+00	0.000000e+00	
-1.897436e+00	1.155063e+00	-1.505465e-17	5.870124e-21	-1.963459e-21	5.728865e-23	0.000000e+00	0.000000e+00	0.000000e+00	
-1.897436e+00	1.123418e+00	-1.330910e-17	5.418495e-21	-2.357753e-21	5.063213e-23	0.000000e+00	0.000000e+00	0.000000e+00	
-1.897436e+00	1.091772e+00	-1.195750e-17	5.027075e-21	-2.708785e-21	4.548754e-23	0.000000e+00	0.000000e+00	0.000000e+00	
-1.897436e+00	1.060127e+00	-1.098604e-17	4.695498e-21	-3.024587e-21	4.179615e-23	0.000000e+00	0.000000e+00	0.000000e+00	
-1.897436e+00	1.028481e+00	-1.025747e-17	4.387660e-21	-3.306560e-21	3.902649e-23	0.000000e+00	0.000000e+00	0.000000e+00	
-1.897436e+00	9.968354e-01	-9.611717e-18	4.080453e-21	-3.552630e-21	3.656559e-23	0.000000e+00	0.000000e+00	0.000000e+00	
-1.897436e+00	9.651899e-01	-8.925570e-18	3.756182e-21	-3.761794e-21	3.394602e-23	0.000000e+00	0.000000e+00	0.000000e+00	
-1.897436e+00	9.335443e-01	-8.131794e-18	3.408636e-21	-3.931908e-21	3.091432e-23	0.000000e+00	0.000000e+00	0.000000e+00	
-1.897436e+00	9.018987e-01	-7.211443e-18	3.039156e-21	-4.062692e-21	2.740181e-23	0.000000e+00	0.000000e+00	0.000000e+00	
-1.897436e+00	8.702532e-01	-6.176340e-18	2.653445e-21	-4.154185e-21	2.345566e-23	0.000000e+00	0.000000e+00	0.000000e+00	
-1.897436e+00	8.386076e-01	-5.052701e-18	2.258206e-21	-4.207919e-21	1.917719e-23	0.000000e+00	0.000000e+00	0.000000e+00	
-1.897436e+00	8.069620e-01	-3.870385e-18	1.858838e-21	-4.226211e-21	1.468052e-23	0.000000e+00	0.000000e+00	0.000000e+00	
-1.897436e+00	7.753165e-01	-2.657787e-18	1.458515e-21	-4.212573e-21	1.007367e-23	0.000000e+00	0.000000e+00	0.000000e+00	
-1.897436e+00	7.436709e-01	-1.440481e-18	1.058068e-21	-4.171301e-21	5.453336e-24	0.000000e+00	0.000000e+00	0.000000e+00	
-1.897436e+00	7.120253e-01	-2.414645e-19	6.565307e-22	-4.107397e-21	9.060556e-25	0.000000e+00	0.000000e+00	0.000000e+00	
-1.897436e+00	6.803797e-01	9.185325e-19	2.518753e-22	-4.026085e-21	-3.490592e-24	0.000000e+00	0.000000e+00	0.000000e+00	
-1.897436e+00	6.487342e-01	2.021407e-18	-1.581713e-22	-3.932413e-21	-7.669224e-24	0.000000e+00	0.000000e+00	0.000000e+00	
-1.897436e+00	6.170886e-01	3.052782e-18	-5.753970e-22	-3.830708e-21	-1.157676e-23	0.000000e+00	0.000000e+00	0.000000e+00	
-1.897436e+00	5.854430e-01	4.003443e-18	-1.000480e-21	-3.724147e-21	-1.517972e-23	0.000000e+00	0.000000e+00	0.000000e+00	
-1.897436e+00	5.537975e-01	4.870503e-18	-1.432545e-21	-3.614402e-21	-1.846851e-23	0.000000e+00	0.000000e+00	0.000000e+00	
-1.897436e+00	5.221519e-01	5.657780e-18	-1.868930e-21	-3.501495e-21	-2.145866e-23	0.000000e+00	0.000000e+00	0.000000e+00	
-1.897436e+00	4.905063e-01	6.375064e-18	-2.305204e-21	-3.383860e-21	-2.418794e-23	0.000000e+00	0.000000e+00	0.000000e+00	
-1.897436e+00	4.588608e-01	7.036320e-18	-2.735445e-21	-3.258631e-21	-2.670942e-23	0.000000e+00	0.000000e+00	0.000000e+00	
-1.897436e+00	4.272152e-01	7.657122e-18	-3.152757e-21	-3.122113e-21	-2.908171e-23	0.000000e+00	0.000000e+00	0.000000e+00	
-1.897436e+00	3.955696e-01	8.251843e-18	-3.549951e-21	-2.970365e-21	-3.135836e-23	0.000000e+00	0.000000e+00	0.000000e+00	
-1.897436e+00	3.639241e-01	8.831162e-18	-3.920268e-21	-2.799803e-21	-3.357851e-23	0.000000e+00	0.000000e+00	0.000000e+00	
-1.897436e+00	3.322785e-01	9.400359e-18	-4.258033e-21	-2.607724e-21	-3.576064e-23	0.000000e+00	0.000000e+00	0.000000e+00	
-1.897436e+00	3.006329e-01	9.958658e-18	-4.559122e-21	-2.392685e-21	-3.790029e-23	0.000000e+00	0.000000e+00	0.000000e+00	
-1.897436e+00	2.689873e-01	1.049967e-17	-4.821169e-21	-2.154669e-21	-3.997190e-23	0.000000e+00	0.000000e+00	0.000000e+00	
-1.897436e+00	2.373418e-01	1.101274e-17	-5.043506e-21	-1.895054e-21	-4.193410e-23	0.000000e+00	0.000000e+00	0.000000e+00	
-1.897436e+00	2.056962e-01	1.148481e-17	-5.226875e-21	-1.616377e-21	-4.373687e-23	0.000000e+00	0.000000e+00	0.000000e+00	
-1.897436e+00	1.740506e-01	1.190241e-17	-5.372991e-21	-1.321984e-21	-4.532910e-23	0.000000e+00	0.000000e+00	0.000000e+00	
-1.897436e+00	1.424051e-01	1.225338e-17	-5.484071e-21	-1.015613e-21	-4.666503e-23	0.000000e+00	0.000000e+00	0.000000e+00	
-1.897436e+00	1.107595e-01	1.252800e-17	-5.562407e-21	-7.009980e-22	-4.770847e-23	0.000000e+00	0.000000e+00	0.000000e+00	
-1.897436e+00	7.911392e-02	1.271947e-17	-5.610053e-21	-3.815550e-22	-4.843441e-23	0.000000e+00	0.000000e+00	0.000000e+00	
-1.897436e+00	4.746835e-02	1.282372e-17	-5.628653e-21	-6.019236e-23	-4.882834e-23	0.000000e+00	0.000000e+00	0.000000e+00	
-1.897436e+00	1.582278e-02	1.283893e-17	-5.619384e-21	2.607373e-22	-4.888399e-23	0.000000e+00	0.000000e+00	0.000000e+00	
-1.897436e+00	-1.582278e-02	1.276476e-17	-5.582985e-21	5.793534e-22	-4.860059e-23	0.000000e+00	0.000000e+00	0.000000e+00	
-1.897436e+00	-4.746835e-02	1.260183e-17	-5.519802e-21	8.940650e-22	-4.798069e-23	0.000000e+00	0.000000e+00	0.000000e+00	
-1.897436e+00	-7.911392e-02	1.235146e-17	-5.429836e-21	1.203339e-21	-4.702919e-23	0.000000e+00	0.000000e+00	0.000000e+00	
-1.897436e+00	-1.107595e-01	1.201582e-17	-5.312757e-21	1.505474e-21	-4.575387e-23	0.000000e+00	0.000000e+00	0.000000e+00	
-1.897436e+00	-1.424051e-01	1.159830e-17	-5.167911e-21	1.798430e-21	-4.416707e-23	0.000000e+00	0.000000e+00	0.000000e+00	
-1.897436e+00	-1.740506e-01	1.110408e-17	-4.994343e-21	2.079756e-21	-4.228777e-23	0.000000e+00	0.000000e+00	0.000000e+00	
-1.897436e+00	-2.056962e-01	1.054047e-17	-4.790887e-21	2.346647e-21	-4.014306e-23	0.000000e+00	0.000000e+00	0.000000e+00	
-1.897436e+00	-2.373418e-01	9.916932e-18	-4.556347e-21	2.596104e-21	-3.776829e-23	0.000000e+00	0.000000e+00	0.000000e+00	
-1.897436e+00	-2.689873e-01	9.244497e-18	-4.289765e-21	2.825206e-21	-3.520514e-23	0.000000e+00	0.000000e+00	0.000000e+00	
-1.897436e+00	-3.006329e-01	8.534776e-18	-3.990761e-21	3.031422e-21	-3.249775e-23	0.000000e+00	0.000000e+00	0.000000e+00	
-1.897436e+00	-3.322785e-01	7.798547e-18	-3.659865e-21	3.212912e-21	-2.968744e-23	0.000000e+00	0.000000e+00	0.000000e+00	
-1.897436e+00	-3.639241e-01	7.044279e-18	-3.298781e-21	3.368766e-21	-2.680711e-23	0.000000e+00	0.000000e+00	0.000000e+00	
-1.897436e+00	-3.955696e-01	6.276916e-18	-2.910493e-21	3.499112e-21	-2.387646e-23	0.000000e+00	0.000000e+00	0.000000e+00	
-1.897436e+00	-4.272152e-01	5.497250e-18	-2.499192e-21	3.605075e-21	-2.089954e-23	0.000000e+00	0.000000e+00	0.000000e+00	
-1.897436e+00	-4.588608e-01	4.702082e-18	-2.069992e-21	3.688577e-21	-1.786515e-23	0.000000e+00	0.000000e+00	0.000000e+00	
-1.897436e+00	-4.905063e-01	3.885231e-18	-1.628494e-21	3.752007e-21	-1.475058e-23	0.000000e+00	0.000000e+00	0.000000e+00	
-1.897436e+00	-5.221519e-01	3.039207e-18	-1.180267e-21	3.797817e-21	-1.152780e-23	0.000000e+00	0.000000e+00	0.000000e+00	
-1.897436e+00	-5.537975e-01	2.157209e-18	-7.303353e-22	3.828108e-21	-8.171058e-24	0.000000e+00	0.000000e+00	0.000000e+00	
-1.897436e+00	-5.854430e-01	1.234999e-18	-2.827658e-22	3.844282e-21	-4.663929e-24	0.000000e+00	0.000000e+00	0.000000e+00	
-1.897436e+00	-6.170886e-01	2.722090e-19	1.596052e-22	3.846819e-21	-1.004395e-24	0.000000e+00	0.000000e+00	0.000000e+00	
-1.897436e+00	-6.487342e-01	-7.271744e-19	5.952637e-22	3.835212e-21	2.793226e-24	0.000000e+00	0.000000e+00	0.000000e+00	
-1.897436e+00	-6.803797e-01	-1.755152e-18	1.023927e-21	3.808057e-21	6.699470e-24	0.000000e+00	0.000000e+00	0.000000e+00	
-1.897436e+00	-7.120253e-01	-2.800597e-18	1.446285e-21	3.763311e-21	1.067298e-23	0.000000e+00	0.000000e+00	0.000000e+00	
-1.897436e+00	-7.436709e-01	-3.850166e-18	1.863540e-21	3.698596e-21	1.466384e-23	0.000000e+00	0.000000e+00	0.000000e+00	
-1.897436e+00	-7.753165e-01	-4.888688e-18	2.276785e-21	3.611634e-21	1.861501e-23	0.000000e+00	0.000000e+00	0.000000e+00	
-1.897436e+00	-8.069620e-01	-5.898707e-18	2.686175e-21	3.500534e-21	2.246049e-23	0.000000e+00	0.000000e+00	0.000000e+00	
-1.897436e+00	-8.386076e-01	-6.859362e-18	3.090081e-21	3.364217e-21	2.612103e-23	0.000000e+00	0.000000e+00	0.000000e+00	
-1.897436e+00	-8.702532e-01	-7.745526e-18	3.484338e-21	3.202413e-21	2.950057e-23	0.000000e+00	0.000000e+00	0.000000e+00	
-1.897436e+00	-9.018987e-01	-8.529030e-18	3.862181e-21	3.016077e-21	3.249103e-23	0.000000e+00	0.000000e+00	0.000000e+00	
-1.897436e+00	-9.335443e-01	-9.184464e-18	4.215036e-21	2.806801e-21	3.499369e-23	0.000000e+00	0.000000e+00	0.000000e+00	
-1.897436e+00	-9.651899e-01	-9.701791e-18	4.534999e-21	2.577674e-21	3.696774e-23	0.000000e+00	0.000000e+00	0.000000e+00	
-1.897436e+00	-9.968354e-01	-1.010569e-17	4.818186e-21	2.331378e-21	3.850332e-23	0.000000e+00	0.000000e+00	0.000000e+00	
-1.897436e+00	-1.028481e+00	-1.047636e-17	5.069216e-21	2.072730e-21	3.990321e-23	0.000000e+00	0.000000e+00	0.000000e+00	
-1.897436e+00	-1.060127e+00	-1.095857e-17	5.303873e-21	1.802288e-21	4.171792e-23	0.000000e+00	0.000000e+00	0.000000e+00	
-1.897436e+00	-1.091772e+00	-1.173992e-17	5.549149e-21	1.524237e-21	4.466739e-23	0.000000e+00	0.000000e+00	0.000000e+00	
-1.897436e+00	-1.123418e+00	-1.298239e-17	5.839205e-21	1.227362e-21	4.938101e-23	0.000000e+00	0.000000e+00	0.000000e+00	
-1.897436e+00	-1.155063e+00	-1.471165e-17	6.193057e-21	9.069262e-22	5.596456e-23	0.000000e+00	0.000000e+00	0.000000e+00	
-1.897436e+00	-1.186709e+00	-1.670653e-17	6.619936e-21	5.457183e-22	6.362744e-23	0.000000e+00	0.000000e+00	0.000000e+00	
-1.897436e+00	-1.218354e+00	-1.845153e-17	7.056056e-21	1.553545e-23	7.066059e-23	0.000000e+00	0.000000e+00	0.000000e+00	
-1.846154e+00	1.218354e+00	1.587804e-18	4.670655e-21	-1.009256e-21	-8.365285e-24	0.000000e+00	0.000000e+00	0.000000e+00	
-1.846154e+00	1.250000e+00	1.362215e-18	6.669863e-21	-8.331426e-22	-8.443339e-24	0.000000e+00	0.000000e+00	0.000000e+00	
-1.846154e+00	1.186709e+00	1.879415e-18	4.248085e-21	-1.474872e-21	-9.309701e-24	0.000000e+00	0.000000e+00	0.000000e+00	
-1.846154e+00	1.155063e+00	2.054453e-18	3.773569e-21	-1.899141e-21	-9.805108e-24	0.000000e+00	0.000000e+00	0.000000e+00	
-1.846154e+00	1.123418e+00	2.064160e-18	3.435921e-21	-2.288831e-21	-9.677061e-24	0.000000e+00	0.000000e+00	0.000000e+00	
-1.846154e+00	1.091772e+00	1.942414e-18	3.187879e-21	-2.638585e-21	-9.068688e-24	0.000000e+00	0.000000e+00	0.000000e+00	
-1.846154e+00	1.060127e+00	1.756123e-18	3.020255e-21	-2.946821e-21	-8.238077e-24	0.000000e+00	0.000000e+00	0.000000e+00	