TITLE = "Visualization of the volumetric solution"
VARIABLES = "x","y","Density","Momentum_x","Momentum_y","Energy","Pressure","Temperature","Mach","C<sub>p</sub>","Roe_Dissipation"
ZONE NODES= 3200, ELEMENTS= 3081, DATAPACKING=POINT, ZONETYPE=FEQUADRILATERAL
-2.000000e+00	1.250000e+00	1.225097e+00	4.165944e+01	-6.879841e-08	2.540231e+05	1.013259e+05	2.881245e+02	9.993183e-02	1.289061e-03	0.000000e+00	
-2.000000e+00	1.218354e+00	1.225097e+00	4.165944e+01	-1.015220e-06	2.540231e+05	1.013259e+05	2.881245e+02	9.993183e-02	1.288926e-03	0.000000e+00	
-1.948718e+00	1.218354e+00	1.225097e+00	4.165944e+01	-1.768477e-06	2.540231e+05	1.013259e+05	2.881245e+02	9.993183e-02	1.286886e-03	0.000000e+00	
-1.948718e+00	1.250000e+00	1.225097e+00	4.165944e+01	-5.641196e-07	2.540231e+05	1.013259e+05	2.881245e+02	9.993182e-02	1.286961e-03	0.000000e+00	
-2.000000e+00	1.186709e+00	1.225097e+00	4.165944e+01	-9.145972e-07	2.540231e+05	1.013259e+05	2.881245e+02	9.993183e-02	1.288855e-03	0.000000e+00	
-1.948718e+00	1.186709e+00	1.225097e+00	4.165944e+01	-1.870452e-06	2.540231e+05	1.013259e+05	2.881245e+02	9.993184e-02	1.286896e-03	0.000000e+00	
-2.000000e+00	1.155063e+00	1.225097e+00	4.165944e+01	-5.180459e-07	2.540231e+05	1.013259e+05	2.881245e+02	9.993183e-02	1.288801e-03	0.000000e+00	
-1.948718e+00	1.155063e+00	1.225097e+00	4.165944e+01	-1.614376e-06	2.540231e+05	1.013259e+05	2.881245e+02	9.993184e-02	1.286865e-03	0.000000e+00	
-2.000000e+00	1.123418e+00	1.225097e+00	4.165944e+01	-1.739740e-07	2.540231e+05	1.013259e+05	2.881245e+02	9.993184e-02	1.288770e-03	0.000000e+00	
-1.948718e+00	1.123418e+00	1.225097e+00	4.165944e+01	-1.237781e-06	2.540231e+05	1.013259e+05	2.881245e+02	9.993184e-02	1.286855e-03	0.000000e+00	
-2.000000e+00	1.091772e+00	1.225097e+00	4.165944e+01	6.063074e-09	2.540231e+05	1.013259e+05	2.881245e+02	9.993184e-02	1.288749e-03	0.000000e+00	
-1.948718e+00	1.091772e+00	1.225097e+00	4.165944e+01	-9.909232e-07	2.540231e+05	1.013259e+05	2.881245e+02	9.993184e-02	1.286837e-03	0.000000e+00	
-2.000000e+00	1.060127e+00	1.225097e+00	4.165944e+01	7.633716e-08	2.540231e+05	1.013259e+05	2.881245e+02	9.993184e-02	1.288735e-03	0.000000e+00	
-1.948718e+00	1.060127e+00	1.225097e+00	4.165944e+01	-8.432026e-07	2.540231e+05	1.013259e+05	2.881245e+02	9.993184e-02	1.286825e-03	0.000000e+00	
-2.000000e+00	1.028481e+00	1.225097e+00	4.165944e+01	9.449143e-08	2.540231e+05	1.013259e+05	2.881245e+02	9.993184e-02	1.288724e-03	0.000000e+00	
-1.948718e+00	1.028481e+00	1.225097e+00	4.165945e+01	-7.699541e-07	2.540231e+05	1.013259e+05	2.881245e+02	9.993184e-02	1.286812e-03	0.000000e+00	
-2.000000e+00	9.968354e-01	1.225097e+00	4.165944e+01	9.925678e-08	2.540231e+05	1.013259e+05	2.881245e+02	9.993184e-02	1.288715e-03	0.000000e+00	
-1.948718e+00	9.968354e-01	1.225097e+00	4.165945e+01	-7.219820e-07	2.540231e+05	1.013259e+05	2.881245e+02	9.993184e-02	1.286803e-03	0.000000e+00	
-2.000000e+00	9.651899e-01	1.225097e+00	4.165944e+01	1.015002e-07	2.540231e+05	1.013259e+05	2.881245e+02	9.993184e-02	1.288707e-03	0.000000e+00	
-1.948718e+00	9.651899e-01	1.225097e+00	4.165945e+01	-6.877510e-07	2.540231e+05	1.013259e+05	2.881245e+02	9.993184e-02	1.286793e-03	0.000000e+00	
-2.000000e+00	9.335443e-01	1.225097e+00	4.165945e+01	1.037356e-07	2.540231e+05	1.013259e+05	2.881245e+02	9.993184e-02	1.288699e-03	0.000000e+00	
-1.948718e+00	9.335443e-01	1.225097e+00	4.165945e+01	-6.583153e-07	2.540231e+05	1.013259e+05	2.881245e+02	9.993184e-02	1.286785e-03	0.000000e+00	
-2.000000e+00	9.018987e-01	1.225097e+00	4.165945e+01	1.049034e-07	2.540231e+05	1.013259e+05	2.881245e+02	9.993184e-02	1.288693e-03	0.000000e+00	
-1.948718e+00	9.018987e-01	1.225097e+00	4.165945e+01	-6.349064e-07	2.540231e+05	1.013259e+05	2.881245e+02	9.993184e-02	1.286778e-03	0.000000e+00	
-2.000000e+00	8.702532e-01	1.225097e+00	4.165945e+01	1.052070e-07	2.540231e+05	1.013259e+05	2.881245e+02	9.993184e-02	1.288686e-03	0.000000e+00	
-1.948718e+00	8.702532e-01	1.225097e+00	4.165945e+01	-6.156716e-07	2.540231e+05	1.013259e+05	2.881245e+02	9.993184e-02	1.286771e-03	0.000000e+00	
-2.000000e+00	8.386076e-01	1.225097e+00	4.165945e+01	1.048906e-07	2.540231e+05	1.013259e+05	2.881245e+02	9.993184e-02	1.288680e-03	0.000000e+00	
-1.948718e+00	8.386076e-01	1.225097e+00	4.165945e+01	-6.003670e-07	2.540231e+05	1.013259e+05	2.881245e+02	9.993184e-02	1.286765e-03	0.000000e+00	
-2.000000e+00	8.069620e-01	1.225097e+00	4.165945e+01	1.044858e-07	2.540231e+05	1.013259e+05	2.881245e+02	9.993184e-02	1.288675e-03	0.000000e+00	
-1.948718e+00	8.069620e-01	1.225097e+00	4.165945e+01	-5.874395e-07	2.540231e+05	1.013259e+05	2.881245e+02	9.993184e-02	1.286759e-03	0.000000e+00	
-2.000000e+00	7.753165e-01	1.225097e+00	4.165945e+01	1.041403e-07	2.540231e+05	1.013259e+05	2.881245e+02	9.993184e-02	1.288670e-03	0.000000e+00	
-1.948718e+00	7.753165e-01	1.225097e+00	4.165945e+01	-5.763354e-07	2.540231e+05	1.013259e+05	2.881245e+02	9.993184e-02	1.286753e-03	0.000000e+00	
-2.000000e+00	7.436709e-01	1.225097e+00	4.165945e+01	1.039240e-07	2.540231e+05	1.013259e+05	2.881245e+02	9.993184e-02	1.288665e-03	0.000000e+00	
-1.948718e+00	7.436709e-01	1.225097e+00	4.165945e+01	-5.663569e-07	2.540231e+05	1.013259e+05	2.881245e+02	9.993184e-02	1.286748e-03	0.000000e+00	
-2.000000e+00	7.120253e-01	1.225097e+00	4.165945e+01	1.037708e-07	2.540231e+05	1.013259e+05	2.881245e+02	9.993184e-02	1.288660e-03	0.000000e+00	
-1.948718e+00	7.120253e-01	1.225097e+00	4.165945e+01	-5.573038e-07	2.540231e+05	1.013259e+05	2.881245e+02	9.993184e-02	1.286743e-03	0.000000e+00	
-2.000000e+00	6.803797e-01	1.225097e+00	4.165945e+01	1.036558e-07	2.540231e+05	1.013259e+05	2.881245e+02	9.993184e-02	1.288655e-03	0.000000e+00	
-1.948718e+00	6.803797e-01	1.225097e+00	4.165945e+01	-5.489069e-07	2.540231e+05	1.013259e+05	2.881245e+02	9.993184e-02	1.286739e-03	0.000000e+00	
-2.000000e+00	6.487342e-01	1.225097e+00	4.165945e+01	1.035524e-07	2.540231e+05	1.013259e+05	2.881245e+02	9.993184e-02	1.288651e-03	0.000000e+00	
-1.948718e+00	6.487342e-01	1.225097e+00	4.165945e+01	-5.410478e-07	2.540231e+05	1.013259e+05	2.881245e+02	9.993184e-02	1.286734e-03	0.000000e+00	
-2.000000e+00	6.170886e-01	1.225097e+00	4.165945e+01	1.034658e-07	2.540231e+05	1.013259e+05	2.881245e+02	9.993184e-02	1.288647e-03	0.000000e+00	
-1.948718e+00	6.170886e-01	1.225097e+00	4.165945e+01	-5.335622e-07	2.540231e+05	1.013259e+05	2.881245e+02	9.993184e-02	1.286730e-03	0.000000e+00	
-2.000000e+00	5.854430e-01	1.225097e+00	4.165945e+01	1.033950e-07	2.540231e+05	1.013259e+05	2.881245e+02	9.993184e-02	1.288643e-03	0.000000e+00	
-1.948718e+00	5.854430e-01	1.225097e+00	4.165945e+01	-5.263515e-07	2.540231e+05	1.013259e+05	2.881245e+02	9.993185e-02	1.286726e-03	0.000000e+00	
-2.000000e+00	5.537975e-01	1.225097e+00	4.165945e+01	1.033425e-07	2.540231e+05	1.013259e+05	2.881245e+02	9.993184e-02	1.288639e-03	0.000000e+00	
-1.948718e+00	5.537975e-01	1.225097e+00	4.165945e+01	-5.193145e-07	2.540231e+05	1.013259e+05	2.881245e+02	9.993185e-02	1.286722e-03	0.000000e+00	
-2.000000e+00	5.221519e-01	1.225097e+00	4.165945e+01	1.033041e-07	2.540231e+05	1.013259e+05	2.881245e+02	9.993184e-02	1.288636e-03	0.000000e+00	
-1.948718e+00	5.221519e-01	1.225097e+00	4.165945e+01	-5.123898e-07	2.540231e+05	1.013259e+05	2.881245e+02	9.993185e-02	1.286719e-03	0.000000e+00	
-2.000000e+00	4.905063e-01	1.225097e+00	4.165945e+01	1.032769e-07	2.540231e+05	1.013259e+05	2.881245e+02	9.993184e-02	1.288633e-03	0.000000e+00	
-1.948718e+00	4.905063e-01	1.225097e+00	4.165945e+01	-5.055231e-07	2.540231e+05	1.013259e+05	2.881245e+02	9.993185e-02	1.286716e-03	0.000000e+00	
-2.000000e+00	4.588608e-01	1.225097e+00	4.165945e+01	1.032569e-07	2.540231e+05	1.013259e+05	2.881245e+02	9.993184e-02	1.288629e-03	0.000000e+00	
-1.948718e+00	4.588608e-01	1.225097e+00	4.165945e+01	-4.986799e-07	2.540231e+05	1.013259e+05	2.881245e+02	9.993185e-02	1.286713e-03	0.000000e+00	
-2.000000e+00	4.272152e-01	1.225097e+00	4.165945e+01	1.032422e-07	2.540231e+05	1.013259e+05	2.881245e+02	9.993184e-02	1.288627e-03	0.000000e+00	
-1.948718e+00	4.272152e-01	1.225097e+00	4.165945e+01	-4.918307e-07	2.540231e+05	1.013259e+05	2.881245e+02	9.993185e-02	1.286710e-03	0.000000e+00	
-2.000000e+00	3.955696e-01	1.225097e+00	4.165945e+01	1.032315e-07	2.540231e+05	1.013259e+05	2.881245e+02	9.993184e-02	1.288624e-03	0.000000e+00	
-1.948718e+00	3.955696e-01	1.225097e+00	4.165945e+01	-4.849550e-07	2.540231e+05	1.013259e+05	2.881245e+02	9.993185e-02	1.286707e-03	0.000000e+00	
-2.000000e+00	3.639241e-01	1.225097e+00	4.165945e+01	1.032243e-07	2.540231e+05	1.013259e+05	2.881245e+02	9.993184e-02	1.288621e-03	0.000000e+00	
-1.948718e+00	3.639241e-01	1.225097e+00	4.165945e+01	-4.780367e-07	2.540231e+05	1.013259e+05	2.881245e+02	9.993185e-02	1.286705e-03	0.000000e+00	
-2.000000e+00	3.322785e-01	1.225097e+00	4.165945e+01	1.032194e-07	2.540231e+05	1.013259e+05	2.881245e+02	9.993184e-02	1.288619e-03	0.000000e+00	
-1.948718e+00	3.322785e-01	1.225097e+00	4.165945e+01	-4.710656e-07	2.540231e+05	1.013259e+05	2.881245e+02	9.993185e-02	1.286702e-03	0.000000e+00	
-2.000000e+00	3.006329e-01	1.225097e+00	4.165945e+01	1.032168e-07	2.540231e+05	1.013259e+05	2.881245e+02	9.993184e-02	1.288617e-03	0.000000e+00	
-1.948718e+00	3.006329e-01	1.225097e+00	4.165945e+01	-4.640346e-07	2.540231e+05	1.013259e+05	2.881245e+02	9.993185e-02	1.286700e-03	0.000000e+00	
-2.000000e+00	2.689873e-01	1.225097e+00	4.165945e+01	1.032162e-07	2.540231e+05	1.013259e+05	2.881245e+02	9.993184e-02	1.288615e-03	0.000000e+00	
-1.948718e+00	2.689873e-01	1.225097e+00	4.165945e+01	-4.569406e-07	2.540231e+05	1.013259e+05	2.881245e+02	9.993185e-02	1.286698e-03	0.000000e+00	
-2.000000e+00	2.373418e-01	1.225097e+00	4.165945e+01	1.032171e-07	2.540231e+05	1.013259e+05	2.881245e+02	9.993184e-02	1.288613e-03	0.000000e+00	
-1.948718e+00	2.373418e-01	1.225097e+00	4.165945e+01	-4.497835e-07	2.540231e+05	1.013259e+05	2.881245e+02	9.993185e-02	1.286697e-03	0.000000e+00	
-2.000000e+00	2.056962e-01	1.225097e+00	4.165945e+01	1.032193e-07	2.540231e+05	1.013259e+05	2.881245e+02	9.993184e-02	1.288612e-03	0.000000e+00	
-1.948718e+00	2.056962e-01	1.225097e+00	4.165945e+01	-4.425646e-07	2.540231e+05	1.013259e+05	2.881245e+02	9.993185e-02	1.286695e-03	0.000000e+00	
-2.000000e+00	1.740506e-01	1.225097e+00	4.165945e+01	1.032224e-07	2.540231e+05	1.013259e+05	2.881245e+02	9.993184e-02	1.288611e-03	0.000000e+00	
-1.948718e+00	1.740506e-01	1.225097e+00	4.165945e+01	-4.352884e-07	2.540231e+05	1.013259e+05	2.881245e+02	9.993185e-02	1.286694e-03	0.000000e+00	
-2.000000e+00	1.424051e-01	1.225097e+00	4.165945e+01	1.032265e-07	2.540231e+05	1.013259e+05	2.881245e+02	9.993184e-02	1.288610e-03	0.000000e+00	
-1.948718e+00	1.424051e-01	1.225097e+00	4.165945e+01	-4.279601e-07	2.540231e+05	1.013259e+05	2.881245e+02	9.993185e-02	1.286693e-03	0.000000e+00	
-2.000000e+00	1.107595e-01	1.225097e+00	4.165945e+01	1.032310e-07	2.540231e+05	1.013259e+05	2.881245e+02	9.993184e-02	1.288609e-03	0.000000e+00	
-1.948718e+00	1.107595e-01	1.225097e+00	4.165945e+01	-4.205870e-07	2.540231e+05	1.013259e+05	2.881245e+02	9.993185e-02	1.286692e-03	0.000000e+00	
-2.000000e+00	7.911392e-02	1.225097e+00	4.165945e+01	1.032363e-07	2.540231e+05	1.013259e+05	2.881245e+02	9.993184e-02	1.288608e-03	0.000000e+00	
-1.948718e+00	7.911392e-02	1.225097e+00	4.165945e+01	-4.131763e-07	2.540231e+05	1.013259e+05	2.881245e+02	9.993185e-02	1.286691e-03	0.000000e+00	
-2.000000e+00	4.746835e-02	1.225097e+00	4.165945e+01	1.032418e-07	2.540231e+05	1.013259e+05	2.881245e+02	9.993184e-02	1.288608e-03	0.000000e+00	
-1.948718e+00	4.746835e-02	1.225097e+00	4.165945e+01	-4.057373e-07	2.540231e+05	1.013259e+05	2.881245e+02	9.993185e-02	1.286691e-03	0.000000e+00	
-2.000000e+00	1.582278e-02	1.225097e+00	4.165945e+01	1.032472e-07	2.540231e+05	1.013259e+05	2.881245e+02	9.993184e-02	1.288608e-03	0.000000e+00	
-1.948718e+00	1.582278e-02	1.225097e+00	4.165945e+01	-3.982790e-07	2.540231e+05	1.013259e+05	2.881245e+02	9.993185e-02	1.286691e-03	0.000000e+00	
-2.000000e+00	-1.582278e-02	1.225097e+00	4.165945e+01	1.032530e-07	2.540231e+05	1.013259e+05	2.881245e+02	9.993184e-02	1.288608e-03	0.000000e+00	
-1.948718e+00	-1.582278e-02	1.225097e+00	4.165945e+01	-3.908107e-07	2.540231e+05	1.013259e+05	2.881245e+02	9.993185e-02	1.286691e-03	0.000000e+00	
-2.000000e+00	-4.746835e-02	1.225097e+00	4.165945e+01	1.032589e-07	2.540231e+05	1.013259e+05	2.881245e+02	9.993184e-02	1.288608e-03	0.000000e+00	
-1.948718e+00	-4.746835e-02	1.225097e+00	4.165945e+01	-3.833421e-07	2.540231e+05	1.013259e+05	2.881245e+02	9.993185e-02	1.286691e-03	0.000000e+00	
-2.000000e+00	-7.911392e-02	1.225097e+00	4.165945e+01	1.032646e-07	2.540231e+05	1.013259e+05	2.881245e+02	9.993184e-02	1.288609e-03	0.000000e+00	
-1.948718e+00	-7.911392e-02	1.225097e+00	4.165945e+01	-3.758830e-07	2.540231e+05	1.013259e+05	2.881245e+02	9.993185e-02	1.286692e-03	0.000000e+00	
-2.000000e+00	-1.107595e-01	1.225097e+00	4.165945e+01	1.032700e-07	2.540231e+05	1.013259e+05	2.881245e+02	9.993184e-02	1.288609e-03	0.000000e+00	
-1.948718e+00	-1.107595e-01	1.225097e+00	4.165945e+01	-3.684424e-07	2.540231e+05	1.013259e+05	2.881245e+02	9.993185e-02	1.286693e-03	0.000000e+00	
-2.000000e+00	-1.424051e-01	1.225097e+00	4.165945e+01	1.032750e-07	2.540231e+05	1.013259e+05	2.881245e+02	9.993184e-02	1.288610e-03	0.000000e+00	
-1.948718e+00	-1.424051e-01	1.225097e+00	4.165945e+01	-3.610293e-07	2.540231e+05	1.013259e+05	2.881245e+02	9.993185e-02	1.286693e-03	0.000000e+00	
-2.000000e+00	-1.740506e-01	1.225097e+00	4.165945e+01	1.032796e-07	2.540231e+05	1.013259e+05	2.881245e+02	9.993184e-02	1.288611e-03	0.000000e+00	
-1.948718e+00	-1.740506e-01	1.225097e+00	4.165945e+01	-3.536511e-07	2.540231e+05	1.013259e+05	2.881245e+02	9.993185e-02	1.286695e-03	0.000000e+00	
-2.000000e+00	-2.056962e-01	1.225097e+00	4.165945e+01	1.032832e-07	2.540231e+05	1.013259e+05	2.881245e+02	9.993184e-02	1.288613e-03	0.000000e+00	
-1.948718e+00	-2.056962e-01	1.225097e+00	4.165945e+01	-3.463152e-07	2.540231e+05	1.013259e+05	2.881245e+02	9.993185e-02	1.286696e-03	0.000000e+00	
-2.000000e+00	-2.373418e-01	1.225097e+00	4.165945e+01	1.032859e-07	2.540231e+05	1.013259e+05	2.881245e+02	9.993184e-02	1.288614e-03	0.000000e+00	
-1.948718e+00	-2.373418e-01	1.225097e+00	4.165945e+01	-3.390268e-07	2.540231e+05	1.013259e+05	2.881245e+02	9.993185e-02	1.286698e-03	0.000000e+00	
-2.000000e+00	-2.689873e-01	1.225097e+00	4.165945e+01	1.032873e-07	2.540231e+05	1.013259e+05	2.881245e+02	9.993184e-02	1.288616e-03	0.000000e+00	
-1.948718e+00	-2.689873e-01	1.225097e+00	4.165945e+01	-3.317896e-07	2.540231e+05	1.013259e+05	2.881245e+02	9.993185e-02	1.286699e-03	0.000000e+00	
-2.000000e+00	-3.006329e-01	1.225097e+00	4.165945e+01	1.032870e-07	2.540231e+05	1.013259e+05	2.881245e+02	9.993184e-02	1.288618e-03	0.000000e+00	
-1.948718e+00	-3.006329e-01	1.225097e+00	4.165945e+01	-3.246055e-07	2.540231e+05	1.013259e+05	2.881245e+02	9.993185e-02	1.286701e-03	0.000000e+00	
-2.000000e+00	-3.322785e-01	1.225097e+00	4.165945e+01	1.032848e-07	2.540231e+05	1.013259e+05	2.881245e+02	9.993184e-02	1.288621e-03	0.000000e+00	
-1.948718e+00	-3.322785e-01	1.225097e+00	4.165945e+01	-3.174732e-07	2.540231e+05	1.013259e+05	2.881245e+02	9.993185e-02	1.286704e-03	0.000000e+00	
-2.000000e+00	-3.639241e-01	1.225097e+00	4.165945e+01	1.032798e-07	2.540231e+05	1.013259e+05	2.881245e+02	9.993184e-02	1.288623e-03	0.000000e+00	
-1.948718e+00	-3.639241e-01	1.225097e+00	4.165945e+01	-3.103897e-07	2.540231e+05	1.013259e+05	2.881245e+02	9.993185e-02	1.286706e-03	0.000000e+00	
-2.000000e+00	-3.955696e-01	1.225097e+00	4.165945e+01	1.032717e-07	2.540231e+05	1.013259e+05	2.881245e+02	9.993184e-02	1.288626e-03	0.000000e+00	
-1.948718e+00	-3.955696e-01	1.225097e+00	4.165945e+01	-3.033462e-07	2.540231e+05	1.013259e+05	2.881245e+02	9.993185e-02	1.286709e-03	0.000000e+00	
-2.000000e+00	-4.272152e-01	1.225097e+00	4.165945e+01	1.032592e-07	2.540231e+05	1.013259e+05	2.881245e+02	9.993184e-02	1.288629e-03	0.000000e+00	
-1.948718e+00	-4.272152e-01	1.225097e+00	4.165945e+01	-2.963321e-07	2.540231e+05	1.013259e+05	2.881245e+02	9.993185e-02	1.286711e-03	0.000000e+00	
-2.000000e+00	-4.588608e-01	1.225097e+00	4.165945e+01	1.032416e-07	2.540231e+05	1.013259e+05	2.881245e+02	9.993184e-02	1.288632e-03	0.000000e+00	
-1.948718e+00	-4.588608e-01	1.225097e+00	4.165945e+01	-2.893287e-07	2.540231e+05	1.013259e+05	2.881245e+02	9.993185e-02	1.286715e-03	0.000000e+00	
-2.000000e+00	-4.905063e-01	1.225097e+00	4.165945e+01	1.032157e-07	2.540231e+05	1.013259e+05	2.881245e+02	9.993184e-02	1.288635e-03	0.000000e+00	
-1.948718e+00	-4.905063e-01	1.225097e+00	4.165945e+01	-2.823156e-07	2.540231e+05	1.013259e+05	2.881245e+02	9.993185e-02	1.286718e-03	0.000000e+00	
-2.000000e+00	-5.221519e-01	1.225097e+00	4.165945e+01	1.031791e-07	2.540231e+05	1.013259e+05	2.881245e+02	9.993184e-02	1.288639e-03	0.000000e+00	
-1.948718e+00	-5.221519e-01	1.225097e+00	4.165945e+01	-2.752581e-07	2.540231e+05	1.013259e+05	2.881245e+02	9.993185e-02	1.286721e-03	0.000000e+00	
-2.000000e+00	-5.537975e-01	1.225097e+00	4.165945e+01	1.031250e-07	2.540231e+05	1.013259e+05	2.881245e+02	9.993184e-02	1.288642e-03	0.000000e+00	
-1.948718e+00	-5.537975e-01	1.225097e+00	4.165945e+01	-2.681234e-07	2.540231e+05	1.013259e+05	2.881245e+02	9.993185e-02	1.286725e-03	0.000000e+00	
-2.000000e+00	-5.854430e-01	1.225097e+00	4.165945e+01	1.030509e-07	2.540231e+05	1.013259e+05	2.881245e+02	9.993184e-02	1.288646e-03	0.000000e+00	
-1.948718e+00	-5.854430e-01	1.225097e+00	4.165945e+01	-2.608453e-07	2.540231e+05	1.013259e+05	2.881245e+02	9.993184e-02	1.286729e-03	0.000000e+00	
-2.000000e+00	-6.170886e-01	1.225097e+00	4.165945e+01	1.029472e-07	2.540231e+05	1.013259e+05	2.881245e+02	9.993184e-02	1.288650e-03	0.000000e+00	
-1.948718e+00	-6.170886e-01	1.225097e+00	4.165945e+01	-2.533711e-07	2.540231e+05	1.013259e+05	2.881245e+02	9.993184e-02	1.286733e-03	0.000000e+00	
-2.000000e+00	-6.487342e-01	1.225097e+00	4.165945e+01	1.028181e-07	2.540231e+05	1.013259e+05	2.881245e+02	9.993184e-02	1.288655e-03	0.000000e+00	
-1.948718e+00	-6.487342e-01	1.225097e+00	4.165945e+01	-2.455746e-07	2.540231e+05	1.013259e+05	2.881245e+02	9.993184e-02	1.286737e-03	0.000000e+00	
-2.000000e+00	-6.803797e-01	1.225097e+00	4.165945e+01	1.026488e-07	2.540231e+05	1.013259e+05	2.881245e+02	9.993184e-02	1.288659e-03	0.000000e+00	
-1.948718e+00	-6.803797e-01	1.225097e+00	4.165945e+01	-2.373887e-07	2.540231e+05	1.013259e+05	2.881245e+02	9.993184e-02	1.286742e-03	0.000000e+00	
-2.000000e+00	-7.120253e-01	1.225097e+00	4.165945e+01	1.024478e-07	2.540231e+05	1.013259e+05	2.881245e+02	9.993184e-02	1.288664e-03	0.000000e+00	
-1.948718e+00	-7.120253e-01	1.225097e+00	4.165945e+01	-2.285935e-07	2.540231e+05	1.013259e+05	2.881245e+02	9.993184e-02	1.286747e-03	0.000000e+00	
-2.000000e+00	-7.436709e-01	1.225097e+00	4.165945e+01	1.021542e-07	2.540231e+05	1.013259e+05	2.881245e+02	9.993184e-02	1.288669e-03	0.000000e+00	
-1.948718e+00	-7.436709e-01	1.225097e+00	4.165945e+01	-2.191612e-07	2.540231e+05	1.013259e+05	2.881245e+02	9.993184e-02	1.286752e-03	0.000000e+00	
-2.000000e+00	-7.753165e-01	1.225097e+00	4.165945e+01	1.017666e-07	2.540231e+05	1.013259e+05	2.881245e+02	9.993184e-02	1.288674e-03	0.000000e+00	
-1.948718e+00	-7.753165e-01	1.225097e+00	4.165945e+01	-2.086688e-07	2.540231e+05	1.013259e+05	2.881245e+02	9.993184e-02	1.286757e-03	0.000000e+00	
-2.000000e+00	-8.069620e-01	1.225097e+00	4.165945e+01	1.011556e-07	2.540231e+05	1.013259e+05	2.881245e+02	9.993184e-02	1.288680e-03	0.000000e+00	
-1.948718e+00	-8.069620e-01	1.225097e+00	4.165945e+01	-1.971491e-07	2.540231e+05	1.013259e+05	2.881245e+02	9.993184e-02	1.286763e-03	0.000000e+00	
-2.000000e+00	-8.386076e-01	1.225097e+00	4.165945e+01	1.004842e-07	2.540231e+05	1.013259e+05	2.881245e+02	9.993184e-02	1.288685e-03	0.000000e+00	
-1.948718e+00	-8.386076e-01	1.225097e+00	4.165945e+01	-1.834955e-07	2.540231e+05	1.013259e+05	2.881245e+02	9.993184e-02	1.286769e-03	0.000000e+00	
-2.000000e+00	-8.702532e-01	1.225097e+00	4.165945e+01	9.972597e-08	2.540231e+05	1.013259e+05	2.881245e+02	9.993184e-02	1.288692e-03	0.000000e+00	
-1.948718e+00	-8.702532e-01	1.225097e+00	4.165945e+01	-1.678427e-07	2.540231e+05	1.013259e+05	2.881245e+02	9.993184e-02	1.286776e-03	0.000000e+00	
-2.000000e+00	-9.018987e-01	1.225097e+00	4.165945e+01	9.958913e-08	2.540231e+05	1.013259e+05	2.881245e+02	9.993184e-02	1.288698e-03	0.000000e+00	
-1.948718e+00	-9.018987e-01	1.225097e+00	4.165945e+01	-1.476456e-07	2.540231e+05	1.013259e+05	2.881245e+02	9.993184e-02	1.286783e-03	0.000000e+00	
-2.000000e+00	-9.335443e-01	1.225097e+00	4.165944e+01	9.974854e-08	2.540231e+05	1.013259e+05	2.881245e+02	9.993184e-02	1.288705e-03	0.000000e+00	
-1.948718e+00	-9.335443e-01	1.225097e+00	4.165945e+01	-1.245981e-07	2.540231e+05	1.013259e+05	2.881245e+02	9.993184e-02	1.286791e-03	0.000000e+00	
-2.000000e+00	-9.651899e-01	1.225097e+00	4.165944e+01	1.010711e-07	2.540231e+05	1.013259e+05	2.881245e+02	9.993184e-02	1.288713e-03	0.000000e+00	
-1.948718e+00	-9.651899e-01	1.225097e+00	4.165945e+01	-9.378091e-08	2.540231e+05	1.013259e+05	2.881245e+02	9.993184e-02	1.286799e-03	0.000000e+00	
-2.000000e+00	-9.968354e-01	1.225097e+00	4.165944e+01	1.018929e-07	2.540231e+05	1.013259e+05	2.881245e+02	9.993184e-02	1.288722e-03	0.000000e+00	
-1.948718e+00	-9.968354e-01	1.225097e+00	4.165945e+01	-6.074474e-08	2.540231e+05	1.013259e+05	2.881245e+02	9.993184e-02	1.286810e-03	0.000000e+00	
-2.000000e+00	-1.028481e+00	1.225097e+00	4.165944e+01	1.085651e-07	2.540231e+05	1.013259e+05	2.881245e+02	9.993184e-02	1.288731e-03	0.000000e+00	
-1.948718e+00	-1.028481e+00	1.225097e+00	4.165945e+01	-6.433981e-09	2.540231e+05	1.013259e+05	2.881245e+02	9.993184e-02	1.286819e-03	0.000000e+00	
-2.000000e+00	-1.060127e+00	1.225097e+00	4.165944e+01	1.317413e-07	2.540231e+05	1.013259e+05	2.881245e+02	9.993184e-02	1.288744e-03	0.000000e+00	
-1.948718e+00	-1.060127e+00	1.225097e+00	4.165944e+01	6.801334e-08	2.540231e+05	1.013259e+05	2.881245e+02	9.993184e-02	1.286835e-03	0.000000e+00	
-2.000000e+00	-1.091772e+00	1.225097e+00	4.165944e+01	2.173943e-07	2.540231e+05	1.013259e+05	2.881245e+02	9.993184e-02	1.288758e-03	0.000000e+00	
-1.948718e+00	-1.091772e+00	1.225097e+00	4.165944e+01	2.349359e-07	2.540231e+05	1.013259e+05	2.881245e+02	9.993184e-02	1.286843e-03	0.000000e+00	
-2.000000e+00	-1.123418e+00	1.225097e+00	4.165944e+01	4.074222e-07	2.540231e+05	1.013259e+05	2.881245e+02	9.993184e-02	1.288782e-03	0.000000e+00	
-1.948718e+00	-1.123418e+00	1.225097e+00	4.165944e+01	4.650491e-07	2.540231e+05	1.013259e+05	2.881245e+02	9.993184e-02	1.286869e-03	0.000000e+00	
-2.000000e+00	-1.155063e+00	1.225097e+00	4.165944e+01	7.513567e-07	2.540231e+05	1.013259e+05	2.881245e+02	9.993183e-02	1.288813e-03	0.000000e+00	
-1.948718e+00	-1.155063e+00	1.225097e+00	4.165944e+01	8.468326e-07	2.540231e+05	1.013259e+05	2.881245e+02	9.993184e-02	1.286867e-03	0.000000e+00	
-2.000000e+00	-1.186709e+00	1.225097e+00	4.165944e+01	1.076953e-06	2.540231e+05	1.013259e+05	2.881245e+02	9.993183e-02	1.288876e-03	0.000000e+00	
-1.948718e+00	-1.186709e+00	1.225097e+00	4.165944e+01	9.607278e-07	2.540231e+05	1.013259e+05	2.881245e+02	9.993184e-02	1.286923e-03	0.000000e+00	
-2.000000e+00	-1.218354e+00	1.225097e+00	4.165944e+01	1.096127e-06	2.540231e+05	1.013259e+05	2.881245e+02	9.993183e-02	1.288930e-03	0.000000e+00	
-1.948718e+00	-1.218354e+00	1.225097e+00	4.165944e+01	8.545145e-07	2.540231e+05	1.013259e+05	2.881245e+02	9.993183e-02	1.286883e-03	0.000000e+00	
-1.897436e+00	1.218354e+00	1.225097e+00	4.165944e+01	-2.203176e-06	2.540231e+05	1.013259e+05	2.881245e+02	9.993183e-02	1.285304e-03	0.000000e+00	
-1.897436e+00	1.250000e+00	1.225097e+00	4.165944e+01	-9.715136e-07	2.540231e+05	1.013259e+05	2.881245e+02	9.993182e-02	1.285337e-03	0.000000e+00	
-1.897436e+00	1.186709e+00	1.225097e+00	4.165944e+01	-2.553523e-06	2.540231e+05	1.013259e+05	2.881245e+02	9.993184e-02	1.285310e-03	0.000000e+00	
-1.897436e+00	1.155063e+00	1.225097e+00	4.165945e+01	-2.445039e-06	2.540231e+05	1.013259e+05	2.881245e+02	9.993184e-02	1.285283e-03	0.000000e+00	
-1.897436e+00	1.123418e+00	1.225097e+00	4.165945e+01	-2.095515e-06	2.540231e+05	1.013259e+05	2.881245e+02	9.993184e-02	1.285278e-03	0.000000e+00	
-1.897436e+00	1.091772e+00	1.225097e+00	4.165945e+01	-1.816663e-06	2.540231e+05	1.013259e+05	2.881245e+02	9.993184e-02	1.285262e-03	0.000000e+00	
-1.897436e+00	1.060127e+00	1.225097e+00	4.165945e+01	-1.617332e-06	2.540231e+05	1.013259e+05	2.881245e+02	9.993184e-02	1.285254e-03	0.000000e+00	
-1.897436e+00	1.028481e+00	1.225097e+00	4.165945e+01	-1.504799e-06	2.540231e+05	1.013259e+05	2.881245e+02	9.993184e-02	1.285243e-03	0.000000e+00	
-1.897436e+00	9.968354e-01	1.225097e+00	4.165945e+01	-1.426614e-06	2.540231e+05	1.013259e+05	2.881245e+02	9.993184e-02	1.285235e-03	0.000000e+00	
-1.897436e+00	9.651899e-01	1.225097e+00	4.165945e+01	-1.370601e-06	2.540231e+05	1.013259e+05	2.881245e+02	9.993184e-02	1.285226e-03	0.000000e+00	
-1.897436e+00	9.335443e-01	1.225097e+00	4.165945e+01	-1.322133e-06	2.540231e+05	1.013259e+05	2.881245e+02	9.993184e-02	1.285219e-03	0.000000e+00	
-1.897436e+00	9.018987e-01	1.225097e+00	4.165945e+01	-1.282517e-06	2.540231e+05	1.013259e+05	2.881245e+02	9.993184e-02	1.285213e-03	0.000000e+00	
-1.897436e+00	8.702532e-01	1.225097e+00	4.165945e+01	-1.248819e-06	2.540231e+05	1.013259e+05	2.881245e+02	9.993184e-02	1.285206e-03	0.000000e+00	
-1.897436e+00	8.386076e-01	1.225097e+00	4.165945e+01	-1.221223e-06	2.540231e+05	1.013259e+05	2.881245e+02	9.993184e-02	1.285200e-03	0.000000e+00	
-1.897436e+00	8.069620e-01	1.225097e+00	4.165945e+01	-1.197542e-06	2.540231e+05	1.013259e+05	2.881245e+02	9.993184e-02	1.285195e-03	0.000000e+00	
-1.897436e+00	7.753165e-01	1.225097e+00	4.165945e+01	-1.177015e-06	2.540231e+05	1.013259e+05	2.881245e+02	9.993185e-02	1.285190e-03	0.000000e+00	
-1.897436e+00	7.436709e-01	1.225097e+00	4.165945e+01	-1.158438e-06	2.540231e+05	1.013259e+05	2.881245e+02	9.993185e-02	1.285185e-03	0.000000e+00	
-1.897436e+00	7.120253e-01	1.225097e+00	4.165945e+01	-1.141422e-06	2.540231e+05	1.013259e+05	2.881245e+02	9.993185e-02	1.285180e-03	0.000000e+00	
-1.897436e+00	6.803797e-01	1.225097e+00	4.165945e+01	-1.125476e-06	2.540231e+05	1.013259e+05	2.881245e+02	9.993185e-02	1.285176e-03	0.000000e+00	
-1.897436e+00	6.487342e-01	1.225097e+00	4.165945e+01	-1.110401e-06	2.540231e+05	1.013259e+05	2.881245e+02	9.993185e-02	1.285171e-03	0.000000e+00	
-1.897436e+00	6.170886e-01	1.225097e+00	4.165945e+01	-1.095927e-06	2.540231e+05	1.013259e+05	2.881245e+02	9.993185e-02	1.285167e-03	0.000000e+00	
-1.897436e+00	5.854430e-01	1.225097e+00	4.165945e+01	-1.081894e-06	2.540231e+05	1.013259e+05	2.881245e+02	9.993185e-02	1.285163e-03	0.000000e+00	
-1.897436e+00	5.537975e-01	1.225097e+00	4.165945e+01	-1.068133e-06	2.540231e+05	1.013259e+05	2.881245e+02	9.993185e-02	1.285160e-03	0.000000e+00	
-1.897436e+00	5.221519e-01	1.225097e+00	4.165945e+01	-1.054535e-06	2.540231e+05	1.013259e+05	2.881245e+02	9.993185e-02	1.285156e-03	0.000000e+00	
-1.897436e+00	4.905063e-01	1.225097e+00	4.165945e+01	-1.041003e-06	2.540231e+05	1.013259e+05	2.881245e+02	9.993185e-02	1.285153e-03	0.000000e+00	
-1.897436e+00	4.588608e-01	1.225097e+00	4.165945e+01	-1.027477e-06	2.540231e+05	1.013259e+05	2.881245e+02	9.993185e-02	1.285150e-03	0.000000e+00	
-1.897436e+00	4.272152e-01	1.225097e+00	4.165945e+01	-1.013904e-06	2.540231e+05	1.013259e+05	2.881245e+02	9.993185e-02	1.285147e-03	0.000000e+00	
-1.897436e+00	3.955696e-01	1.225097e+00	4.165945e+01	-1.000249e-06	2.540231e+05	1.013259e+05	2.881245e+02	9.993185e-02	1.285145e-03	0.000000e+00	
-1.897436e+00	3.639241e-01	1.225097e+00	4.165945e+01	-9.864859e-07	2.540231e+05	1.013259e+05	2.881245e+02	9.993185e-02	1.285142e-03	0.000000e+00	
-1.897436e+00	3.322785e-01	1.225097e+00	4.165945e+01	-9.725980e-07	2.540231e+05	1.013259e+05	2.881245e+02	9.993185e-02	1.285140e-03	0.000000e+00	
-1.897436e+00	3.006329e-01	1.225097e+00	4.165945e+01	-9.585748e-07	2.540231e+05	1.013259e+05	2.881245e+02	9.993185e-02	1.285138e-03	0.000000e+00	
-1.897436e+00	2.689873e-01	1.225097e+00	4.165945e+01	-9.444126e-07	2.540231e+05	1.013259e+05	2.881245e+02	9.993185e-02	1.285136e-03	0.000000e+00	
-1.897436e+00	2.373418e-01	1.225097e+00	4.165945e+01	-9.301127e-07	2.540231e+05	1.013259e+05	2.881245e+02	9.993185e-02	1.285134e-03	0.000000e+00	
-1.897436e+00	2.056962e-01	1.225097e+00	4.165945e+01	-9.156809e-07	2.540231e+05	1.013259e+05	2.881245e+02	9.993185e-02	1.285133e-03	0.000000e+00	
-1.897436e+00	1.740506e-01	1.225097e+00	4.165945e+01	-9.011267e-07	2.540231e+05	1.013259e+05	2.881245e+02	9.993185e-02	1.285131e-03	0.000000e+00	
-1.897436e+00	1.424051e-01	1.225097e+00	4.165945e+01	-8.864623e-07	2.540231e+05	1.013259e+05	2.881245e+02	9.993185e-02	1.285130e-03	0.000000e+00	
-1.897436e+00	1.107595e-01	1.225097e+00	4.165945e+01	-8.717030e-07	2.540231e+05	1.013259e+05	2.881245e+02	9.993185e-02	1.285130e-03	0.000000e+00	
-1.897436e+00	7.911392e-02	1.225097e+00	4.165945e+01	-8.568652e-07	2.540231e+05	1.013259e+05	2.881245e+02	9.993185e-02	1.285129e-03	0.000000e+00	
-1.897436e+00	4.746835e-02	1.225097e+00	4.165945e+01	-8.419676e-07	2.540231e+05	1.013259e+05	2.881245e+02	9.993185e-02	1.285129e-03	0.000000e+00	
-1.897436e+00	1.582278e-02	1.225097e+00	4.165945e+01	-8.270295e-07	2.540231e+05	1.013259e+05	2.881245e+02	9.993185e-02	1.285128e-03	0.000000e+00	
-1.897436e+00	-1.582278e-02	1.225097e+00	4.165945e+01	-8.120708e-07	2.540231e+05	1.013259e+05	2.881245e+02	9.993185e-02	1.285128e-03	0.000000e+00	
-1.897436e+00	-4.746835e-02	1.225097e+00	4.165945e+01	-7.971118e-07	2.540231e+05	1.013259e+05	2.881245e+02	9.993185e-02	1.285129e-03	0.000000e+00	
-1.897436e+00	-7.911392e-02	1.225097e+00	4.165945e+01	-7.821728e-07	2.540231e+05	1.013259e+05	2.881245e+02	9.993185e-02	1.285129e-03	0.000000e+00	
-1.897436e+00	-1.107595e-01	1.225097e+00	4.165945e+01	-7.672730e-07	2.540231e+05	1.013259e+05	2.881245e+02	9.993185e-02	1.285130e-03	0.000000e+00	
-1.897436e+00	-1.424051e-01	1.225097e+00	4.165945e+01	-7.524311e-07	2.540231e+05	1.013259e+05	2.881245e+02	9.993185e-02	1.285131e-03	0.000000e+00	