TITLE = "Surface Analysis"
VARIABLES = "y(in)", "z(in)", "PT/PT<sub>inf</sub>", "TT/TT<sub>inf</sub>", "P/P<sub>inf</sub>", "T/T<sub>inf</sub>", "v<sub>x</sub>/v<sub>inf</sub>", "v<sub>y</sub>/v<sub>inf</sub>", "v<sub>z</sub>/v<sub>inf</sub>", "<greek>a</greek> (deg)", "<greek>b</greek> (deg)", "Mach", "Filtered <greek>a</greek> (deg)", "Filtered <greek>b</greek> (deg)", "Filtered Mach"
ZONE T= "outflow_2", NODES=720 , ELEMENTS= 684, DATAPACKING=POINT, ZONETYPE=FEQUADRILATERAL
 nan nan 2.781342323134e-309 nan nan nan nan nan nan nan nan 5.562684646268e-309 nan nan 36.0059239819515
 nan nan 2.98032062874815e-309 nan nan nan nan nan nan nan nan 5.562684646268e-309 nan nan 36.0059242056289
 nan nan 2.781342323134e-309 nan nan nan nan nan nan nan nan 5.562684646268e-309 nan nan 36.0059244445793
 nan nan 2.82476411470033e-309 nan nan nan nan nan nan nan nan 5.60610643783433e-309 nan nan 36.0059246953837
 nan nan 2.82476411470033e-309 nan nan nan nan nan nan nan nan 5.60610643783433e-309 nan nan 36.0059249630285
 nan nan 2.82476411470033e-309 nan nan nan nan nan nan nan nan 5.60610643783433e-309 nan nan 36.0059252760972
 nan nan 2.82476411470033e-309 nan nan nan nan nan nan nan nan 5.60610643783433e-309 nan nan 36.0059258000306
 nan nan 2.82476411470033e-309 nan nan nan nan nan nan nan nan 5.60610643783433e-309 nan nan 36.0059194949165
 nan nan 2.82476411470033e-309 nan nan nan nan nan nan nan nan 5.60610643783433e-309 nan nan 36.0059195900763
 nan nan 2.82476411470033e-309 nan nan nan nan nan nan nan nan 5.60610643783433e-309 nan nan 36.0059197228896
 nan nan 2.82476411470033e-309 nan nan nan nan nan nan nan nan 5.60610643783433e-309 nan nan 36.0059198408334
 nan nan 2.82476411470033e-309 nan nan nan nan nan nan nan nan 5.60610643783433e-309 nan nan 36.0059199367692
 nan nan 2.82476411470033e-309 nan nan nan nan nan nan nan nan 5.60610643783433e-309 nan nan 36.0059200220192
 nan nan 2.82476411470033e-309 nan nan nan nan nan nan nan nan 5.60610643783433e-309 nan nan 36.0059201039694
 nan nan 2.82476411470033e-309 nan nan nan nan nan nan nan nan 5.60610643783433e-309 nan nan 36.0059201891923
 nan nan 2.82476411470033e-309 nan nan nan nan nan nan nan nan 5.60610643783433e-309 nan nan 36.0059202817653
 nan nan 2.781342323134e-309 nan nan nan nan nan nan nan nan 5.60610643783433e-309 nan nan 36.0059203850122
 nan nan 2.78134232313455e-309 nan nan nan nan nan nan nan nan 5.56268464626859e-309 nan nan 36.0059205011308
 nan nan 2.78142720426082e-309 nan nan nan nan nan nan nan nan 5.56276952739483e-309 nan nan 36.0059206316306
 nan nan 2.78142720426082e-309 nan nan nan nan nan nan nan nan 5.562684646268e-309 nan nan 36.0059207766661
 nan nan 2.26252437848816e-302 0 2.33771215110939e-302 0 0 -2.62935703189165e-302 0 nan -90 2.48353459150052e-302 nan nan 1.34870190689088e-300
 nan nan 3.06682435306503e-302 34.009629616167 3.21264679345616e-302 0.724128041804931 101327.961677215 -3.50429167423842e-302 1.22512413016215 0.000692745031801926 -1.98149770106194e-305 3.35846923384729e-302 nan nan 1.19322503663064e-300
 nan nan 3.9417589954118e-302 0 4.08758143580293e-302 0 0 -4.37922631658518e-302 0 nan -90 4.23340387619406e-302 nan nan 1.48031865753174e-300
 nan nan 4.96706918300104e-302 34.009799260008 5.2587140637833e-302 0.723538742508027 101327.920768865 -5.84200382534781e-302 1.22512365912921 0.000692745045133464 -3.30335568471037e-305 5.55035894456555e-302 nan nan 2.00493642151703e-300
 nan nan 6.71693846769458e-302 0 7.00858334847683e-302 0 0 -7.59187311004134e-302 0 nan -90 7.30022822925909e-302 nan nan 2.57747746948376e-300
 nan nan 8.46680775238811e-302 34.0099057373568 8.75845263317037e-302 0.723245863352647 101327.909915045 -9.35084860443757e-302 1.225123535126 0.000692745049219897 -5.2874293010609e-305 9.05009751395262e-302 nan nan 3.24863417244309e-300
 nan nan 1.11007178891311e-301 0 1.16840076506956e-301 0 0 -1.28505871738246e-301 0 nan -90 1.22672974122601e-301 nan nan 4.39119852395609e-300
 nan nan 1.46004564585182e-301 34.009947107556 1.51837462200827e-301 0.723117144936119 101327.902798289 -1.63503257432117e-301 1.22512345069035 0.000692745050130712 -9.24527827853112e-305 1.57670359816472e-301 nan nan 5.53776160981772e-300
 nan nan 1.81001950279052e-301 0 1.87016972088751e-301 0 0 -2.10348562551332e-301 0 nan -90 1.98682767320042e-301 nan nan 7.25709432072022e-300
 nan nan 2.45345948245203e-301 34.0099398478929 2.57011743476493e-301 0.723047097295429 101327.900651508 -2.80343333939073e-301 1.22512342286025 0.000692745049071031 -1.58519911555046e-304 2.68677538707783e-301 nan nan 9.54580028818323e-300
 nan nan 3.15340719632944e-301 0 3.27006514864234e-301 0 0 -3.50338105326815e-301 0 nan -90 3.38672310095524e-301 nan nan 1.1842549255392e-299
 nan nan 3.97365534640083e-301 34.0099226221575 4.20697125102664e-301 0.723007989366 101327.898911816 -4.67360306027825e-301 1.22512340022665 0.000692745048166574 -2.64268511781155e-304 4.44028715565244e-301 nan nan 1.60394913672309e-299
 nan nan 5.37355077415566e-301 0 5.60686667878147e-301 0 0 -6.07349848803308e-301 0 nan -90 5.84018258340727e-301 nan nan 2.06198197509647e-299
 nan nan 6.77344620191049e-301 34.0099080899972 7.00676210653629e-301 0.722984337169049 101327.898129354 -7.48067888355006e-301 1.22512338944305 0.000692745047418424 -4.22994393284359e-304 7.2400780111621e-301 nan nan 2.59890733746394e-299
 nan nan 8.88057431130488e-301 0 9.34720612055649e-301 0 0 -1.02804697390597e-300 0 nan -90 9.8138379298081e-301 nan nan 3.51295881867434e-299
 nan nan 1.16803651668145e-300 34.0099005775845 1.21469969760662e-300 0.722971227578143 101327.897506675 -1.30802605945694e-300 1.22512338113227 0.000692745046976149 -7.39622300907543e-304 1.26136287853178e-300 nan nan 4.43020928736364e-299
 nan nan 1.44801560223242e-300 0 1.49613577671001e-300 0 0 -1.68278850041065e-300 0 nan -90 1.58946213856033e-300 nan nan 5.80567545608564e-299
 nan nan 1.96276758596162e-300 34.0098970820999 2.05609394781194e-300 0.722963716912957 101327.897213835 -2.24274667151259e-300 1.2251233770487 0.000692745046669146 -1.26815933546422e-303 2.14942030966226e-300 nan nan 7.63664023005551e-299
 nan nan 2.52272575706355e-300 0 2.61605211891387e-300 0 0 -2.80270484261452e-300 0 nan -90 2.7093784807642e-300 nan nan 9.47403940382253e-299
 nan nan 3.17892427712067e-300 34.0098955169002 3.36557700082131e-300 0.72295934366155 101327.897000059 -3.7388824482226e-300 1.22512337413877 0.000692745046485243 -2.11414813413695e-303 3.55222972452195e-300 nan nan 1.27735017092835e-298
 nan nan 6.35784855424133e-300 290057.720506488 6.73115400164262e-300 340.281720174298 0 -7.4777648964452e-300 0 nan -90 7.10445944904391e-300 nan -56.25 3.81574747164074e-298
 nan nan 8.59768123864906e-300 1 8.97098668605035e-300 288.124075211653 34.0098938004407 -9.71759758085292e-300 0.722954162356096 1.21776283988644 -1.63710398996364e-299 9.34429213345163e-300 nan -22.5 3.29921314090766e-298
 nan nan 1.08375139230568e-299 290057.720506893 1.12108193704581e-299 340.281720189242 0 -1.19690862136801e-299 0 nan -90 1.15841248178594e-299 nan -56.25 4.15830465737863e-298
 nan nan 1.42089188980878e-299 1 1.49555297928904e-299 288.124075224391 34.0098934114257 -1.64487515824955e-299 0.722952427310065 1.21775993213463 -2.77108790825999e-299 1.5702140687693e-299 nan -22.5 5.62080348925363e-298
 nan nan 1.86885842669033e-299 290057.720505206 1.94351951617058e-299 340.281720196764 0 -2.0928416951311e-299 0 nan -90 2.01818060565084e-299 nan -56.25 7.08842611252257e-298
 nan nan 2.31682496357187e-299 1 2.39381724273602e-299 288.124075228929 34.0098933305862 -2.69246160065705e-299 0.722951043692048 1.2177576051278 -4.53593560906438e-299 2.54313942169653e-299 nan -22.5 9.28919385584383e-298
 nan nan 3.14042813753859e-299 290057.720506016 3.28975031649911e-299 340.281720199444 0 -3.58839467442014e-299 0 nan -90 3.43907249545962e-299 nan -56.25 1.22187777091952e-297
 nan nan 4.03636121130168e-299 1 4.1856833902622e-299 288.124075229398 34.0098934516096 -4.48432774818323e-299 0.722949888594517 1.21775565570521 -7.55465624406838e-299 4.33500556922271e-299 nan -22.5 1.51586601339546e-297
 nan nan 5.08627884339307e-299 290057.720509768 5.3849232013141e-299 340.281720199721 0 -5.98221191715616e-299 0 nan -90 5.68356755923513e-299 nan -56.25 2.05307973026177e-297
 nan nan 6.87814499091925e-299 1 7.17678934884028e-299 288.124075227299 34.0098936711702 -7.77407806468234e-299 0.722948881085766 1.21775395128302 -1.30968319694897e-298 7.47543370676131e-299 nan -22.5 2.63937051272613e-297
 nan nan 8.67001113844543e-299 290057.720514397 8.96865549636646e-299 340.281720198481 0 -9.57526897094407e-299 0 nan -90 9.26729985428749e-299 nan -56.25 3.32664372590291e-297
 nan nan 1.13671351184703e-298 1 1.19644238343123e-298 288.124075223815 34.0098939090192 -1.31590012659964e-298 0.722947954035096 1.2177523816911 -2.21687029417331e-298 1.25617125501544e-298 nan -22.5 4.4966427914029e-297
 nan nan 1.49508674135226e-298 290057.720518316 1.55481561293647e-298 340.281720196424 0 -1.67427335610488e-298 0 nan -90 1.61454448452067e-298 nan -56.25 5.67074089001806e-297
 nan nan 1.8534599708575e-298 1 1.91505379418881e-298 288.124075219454 34.0098941341698 -2.15396928052564e-298 0.722947075980215 1.21775089505866 -3.62874840151166e-298 2.03451153735723e-298 nan -22.5 7.43135508467507e-297
 nan nan 2.51234251003087e-298 290057.720520957 2.63180025319929e-298 340.281720193848 0 -2.87071573953611e-298 0 nan -90 2.7512579963677e-298 nan -56.25 9.77502216735617e-297
 nan nan 3.22908896904135e-298 1 3.34854671220976e-298 288.124075214716 34.0098943412885 -3.58746219854658e-298 0.722946231104546 1.2177494649428 -6.04372483715442e-298 3.46800445537817e-298 nan -22.5 1.21269281071637e-296
 nan nan 4.06902307471445e-298 290057.72052263 4.30793856105128e-298 340.28172019105 0 -4.78576953372492e-298 0 nan -90 4.5468540473881e-298 nan -56.25 1.64246378420942e-296
 nan nan 5.5025159927354e-298 1 5.74143147907222e-298 288.124075209905 34.0098945365802 -6.21926245174587e-298 0.722945415338066 1.2177480842678 -1.0477465308984e-297 5.98034696540904e-298 nan -22.5 2.1114964101809e-296
 nan nan 6.93600891075634e-298 290057.720523848 7.17492439709317e-298 340.281720188209 0 -7.66021517675526e-298 0 nan -90 7.41383988342999e-298 nan -56.25 2.66131498072232e-296
 nan nan 9.0937080947762e-298 1 9.57153906744985e-298 288.124075205267 34.0098947242083 -1.05272010127971e-297 0.722944625900341 1.21774674820263 -1.77349619282941e-297 1.00493700401235e-297 nan -22.5 3.58125759402023e-296
 nan nan 1.81874161895524e-297 101327.896620267 1.91430781348997e-297 1.22512336927964 290057.720526229 -2.10544020255943e-297 340.281720182913 0.0672166127218646 -4.15892524442962e-301 2.0098740080247e-297 nan -11.25 1.06977041018867e-295
 nan nan 2.39213878616362e-297 0 2.48770498069835e-297 0 1 -2.67883736976781e-297 288.124075196994 89.8011427909488 -1.53486075289622e-295 2.58327117523308e-297 nan -11.25 9.07318542402889e-296
 nan nan 2.965535953372e-297 101327.896614225 3.0640860707021e-297 1.22512336922335 290057.720527524 -3.44635084884102e-297 340.281720180585 0.0672166127211045 -6.80765738628845e-301 3.25521845977156e-297 nan -11.25 1.18901681354801e-295
 nan nan 4.0197480160494e-297 0 4.21088040511886e-297 0 1 -4.59314518325778e-297 288.124075193473 89.8011427909464 -2.63167833691514e-295 4.40201279418832e-297 nan -11.25 1.56400354677699e-295
 nan nan 5.16654235046615e-297 101327.896608938 5.35767473953561e-297 1.2251233691744 290057.720528812 -5.73993951767453e-297 340.281720178506 0.0672166127203955 -1.1338236693839e-300 5.54880712860507e-297 nan -11.25 1.94030849714618e-295
 nan nan 6.51043691954312e-297 0 6.89270169768204e-297 0 1 -7.65723125395988e-297 288.124075190391 89.8011427909443 -4.38727033607568e-295 7.27496647582096e-297 nan -11.25 2.62794205473507e-295
 nan nan 8.80402558837664e-297 101327.89660436 9.18629036651555e-297 1.22512336913215 290057.720530028 -9.95081992279339e-297 340.281720176686 0.0672166127197542 -1.96560871825418e-300 9.56855514465447e-297 nan -11.25 3.37839425628944e-295
 nan nan 1.10976142572101e-296 0 1.14798790353491e-296 0 1 -1.22563442828084e-296 288.124075187748 89.8011427909424 -7.02236799664218e-295 1.1862143813488e-296 nan -11.25 4.25810396915572e-295
 nan nan 1.45499329516419e-296 101327.896600428 1.53144625079198e-296 1.22512336909585 290057.720531139 -1.68435216204754e-296 340.281720175125 0.0672166127191884 -3.32714019548737e-300 1.60789920641976e-296 nan -11.25 5.75570277299572e-295
 nan nan 1.91371102893089e-296 0 1.99016398455868e-296 0 1 -2.14306989581425e-296 288.124075185539 89.8011427909409 -1.22788860231697e-294 2.06661694018646e-296 nan -11.25 7.25854833922311e-295
 nan nan 2.3724287626976e-296 101327.896597112 2.45126885656168e-296 1.22512336906514 290057.720532138 -2.75708067907282e-296 340.281720173821 0.0672166127186993 -5.44612590894414e-300 2.60417476781725e-296 nan -11.25 9.51213450838409e-295
 nan nan 3.21579841283952e-296 0 3.36870432409509e-296 0 1 -3.67451614660622e-296 288.124075183753 89.8011427909397 -2.10534266953211e-294 3.52161023535065e-296 nan -11.25 1.25120283742159e-294
 nan nan 4.13323388037292e-296 101327.896594373 4.28613979162849e-296 1.22512336903962 290057.720533031 -4.59195161413963e-296 340.281720172767 0.0672166127182841 -9.07058935493929e-300 4.43904570288406e-296 nan -11.25 1.55224679771695e-294
 nan nan 5.2083495356345e-296 0 5.51416135814563e-296 0 1 -6.1257850031679e-296 288.124075182375 89.8011427909387 -3.50981626886054e-294 5.81997318065677e-296 nan -11.25 2.10235364378805e-294
 nan nan 7.04322047070131e-296 101327.896592182 7.34903229321244e-296 1.225123369019 290057.720533825 -7.96065593823471e-296 340.281720171953 0.0672166127179392 -1.57248697458276e-299 7.65484411572358e-296 nan -11.25 2.70271540503155e-294
 nan nan 8.87809140576812e-296 0 9.18390322827925e-296 0 1 -9.80507542624673e-296 288.124075181387 89.801142790938 -5.61789439731374e-294 9.48971505079039e-296 nan -11.25 3.40648317532458e-294
 nan nan 1.16399463613135e-295 101327.896590507 1.22515700063358e-295 1.22512336900295 290057.720534527 -1.34748172963803e-295 340.281720171369 0.0672166127176613 -2.66171215635881e-299 1.28631936513581e-295 nan -11.25 4.60456221839657e-294
 nan nan 1.53096882314472e-295 0 1.59213118764694e-295 0 1 -1.7144559166514e-295 288.12407518077 89.8011427909376 -9.82310881853578e-294 1.65329355214917e-295 nan -11.25 5.80683867137849e-294
 nan nan 1.89794301015808e-295 101327.89658932 1.96101508524935e-295 1.22512336899122 290057.720535137 -2.20566454325825e-295 340.281720171005 0.0672166127174479 -4.35690072711026e-299 2.0833398142538e-295 nan -11.25 7.60970760670727e-294
 nan nan 2.57263873027162e-295 0 2.69496345927607e-295 0 1 -2.93961291728498e-295 288.124075180506 89.8011427909374 -1.68427413562569e-293 2.81728818828052e-295 nan -11.25 9.96548347659488e-294
 nan nan 5.14527746054323e-295 34.0098959525491 5.38992691855214e-295 0.722936483183665 101327.896588305 -5.87922583456995e-295 1.22512336897975 0.000692745046383111 -3.32440362888198e-298 5.63457637656105e-295 nan -22.5 2.97653623715153e-293
 nan nan 6.61317420859668e-295 0 6.85782366660559e-295 0 0 -7.3471225826234e-295 0 nan -90 7.10247312461449e-295 nan -56.25 2.48359487634712e-293
 nan nan 8.3333592570152e-295 34.0098959636634 8.82265817303301e-295 0.722935876642879 101327.896588432 -9.80125600506865e-295 1.22512336897962 0.000692745046382162 -5.54211250726582e-298 9.31195708905083e-295 nan -22.5 3.36376583006088e-293
 nan nan 1.12691527531221e-294 0 1.17584516691399e-294 0 0 -1.27370495011755e-294 0 nan -90 1.22477505851577e-294 nan -56.25 4.32434464805048e-293
 nan nan 1.4204946249229e-294 34.0098959628665 1.46942451652468e-294 0.722935276588054 101327.896588957 -1.56881206819948e-294 1.22512336898299 0.000692745046380476 -8.87083551350613e-298 1.51835440812646e-294 nan -22.5 5.45037308051932e-293
 nan nan 1.86239141781017e-294 0 1.96025120101373e-294 0 0 -2.15597076742086e-294 0 nan -90 2.05811098421729e-294 nan -56.25 7.36729954943452e-293
 nan nan 2.44955011703154e-294 34.009895950569 2.54740990023511e-294 0.722934682093097 101327.896589864 -2.74312946664223e-294 1.22512336898971 0.000692745046378081 -1.55110040162715e-297 2.64526968343867e-294 nan -22.5 9.29094187420559e-293
 nan nan 3.03670881625292e-294 0 3.13762413639895e-294 0 0 -3.52906326921321e-294 0 nan -90 3.33334370280608e-294 nan -56.25 1.21755321707316e-292
 nan nan 4.11622196843458e-294 34.0098959271471 4.31194153484171e-294 0.722934092224907 101327.896591138 -4.70338066765596e-294 1.22512336899967 0.000692745046375004 -2.65952290303123e-297 4.50766110124884e-294 nan -22.5 1.59958408825646e-292
 nan nan 5.29053936687734e-294 0 5.48625893328447e-294 0 0 -5.87769806609872e-294 0 nan -90 5.68197849969159e-294 nan -56.25 1.98492035743451e-292
 nan nan 6.66668740561216e-294 34.0098958929374 7.05812653842641e-294 0.722933506032268 101327.896592766 -7.84100480405492e-294 1.22512336901275 0.000692745046371269 -4.43369000562303e-297 7.44956567124066e-294 nan -22.5 2.68710157676235e-292
 nan nan 9.01532220249767e-294 0 9.40676133531193e-294 0 0 -1.01896396009404e-293 0 nan -90 9.79820046812618e-294 nan -56.25 3.45556463115403e-292
 nan nan 1.13639569993832e-293 34.0098958482349 1.17553961321974e-293 0.722932922534489 101327.896594738 -1.25504965455958e-293 1.22512336902887 0.000692745046366896 -7.09666841040002e-297 1.21468352650117e-293 nan -22.5 4.35247628984274e-292
 nan nan 1.48991313424813e-293 0 1.56820096081098e-293 0 0 -1.72477661393668e-293 0 nan -90 1.64648878737383e-293 nan -56.25 5.8860174649749e-292
 nan nan 1.95964009362524e-293 34.009895793291 2.03792792018809e-293 0.722932340707532 101327.896597046 -2.19450357331379e-293 1.22512336904793 0.0006927450463619 -1.24088032121377e-296 2.11621574675094e-293 nan -22.5 7.42493132479175e-292
 nan nan 2.42936705300234e-293 0 2.51009930911916e-293 0 0 -2.82325061537056e-293 0 nan -90 2.66667496224486e-293 nan -56.25 9.72478138743987e-292
 nan nan 3.29297757474767e-293 34.0098957283127 3.44955322787337e-293 0.722931759468645 101327.896599683 -3.76270453412477e-293 1.2251233690699 0.000692745046356294 -2.12761832224555e-296 3.60612888099907e-293 nan -22.5 1.27966727060517e-291
 nan nan 4.23243149350187e-293 0 4.38900714662757e-293 0 0 -4.70215845287898e-293 0 nan -90 4.54558279975328e-293 nan -56.25 1.58793628594761e-291
 nan nan 5.33334992448973e-293 34.0098956534602 5.64650123074113e-293 0.722931177657044 101327.896602644 -6.27280384324393e-293 1.22512336909472 0.000692745046350086 -3.54695200415265e-296 5.95965253699253e-293 nan -22.5 4.53044834004586e-293
 nan nan 7.21225776199814e-293 0 7.52540906824954e-293 0 0 -8.15171168075235e-293 0 nan -90 7.83856037450094e-293 nan -56.25 4.67480158508059e-293
 nan nan 1.44245155239963e-292 1 1.50508181364991e-292 288.124075200227 34.0098954745294 -1.63034233615047e-292 0.722930007137741 1.21772210453582 -2.74660459021047e-292 1.56771207490019e-292 nan -22.5 1.0274970647974e-292
 nan nan 1.81823311990131e-292 290057.720534885 1.88086338115159e-292 340.281720182494 0 -2.00807944729533e-292 0 nan -90 1.94349364240187e-292 nan -67.5 1.4978963971788e-292
 nan nan 2.38386101479701e-292 1 2.50912153729757e-292 288.124075203562 34.0098953705116 -2.75964258229869e-292 0.722929415483964 1.21772111196212 -4.64911377138178e-292 2.63438205979813e-292 nan -22.5 1.98453487918562e-292
 nan nan 3.13542414980038e-292 290057.72053427 3.26068467230094e-292 340.281720184464 0 -3.51120571730206e-292 0 nan -90 3.3859451948015e-292 nan -67.5 2.55713631614763e-292
 nan nan 3.88698728480374e-292 1 4.01615889459066e-292 288.124075207158 34.0098952567137 -4.5172009845929e-292 0.722928817292235 1.21772010872911 -7.61003671654713e-292 4.26667993959178e-292 nan -22.5 3.27970683835605e-292
 nan nan 5.26876411959627e-292 290057.720533581 5.51928516459739e-292 340.281720186587 0 -6.02032725459963e-292 0 nan -90 5.76980620959851e-292 nan -67.5 4.32992729592916e-292
 nan nan 6.771890389603e-292 1 7.02241143460412e-292 288.124075211028 34.009895132937 -7.52345352460636e-292 0.722928210559819 1.21771909147144 -1.26746093346611e-291 7.27293247960524e-292 nan -22.5 5.55292911050524e-292
 nan nan 8.53335987918356e-292 290057.720532821 9.03440196918581e-292 340.281720188873 0 -1.00364861491903e-291 0 nan -90 9.53544405918805e-292 nan -67.5 7.2467618004302e-292
 nan nan 1.15239680700516e-291 1 1.20250101600538e-291 288.124075215191 34.0098949988019 -1.30270943400583e-291 0.722927592981788 1.2177180563214 -2.19464813117006e-291 1.25260522500561e-291 nan -22.5 9.4021293075618e-292
 nan nan 1.45302206100651e-291 290057.720531995 1.50312627000673e-291 340.281720191331 0 -1.60333468800718e-291 0 nan -90 1.55323047900695e-291 nan -67.5 1.19694823719282e-291
 nan nan 1.90395994200852e-291 1 2.00416836000897e-291 288.124075219672 34.0098948536615 -2.20458519600987e-291 0.72292696189561 1.21771699881865 -3.71401993013772e-291 2.10437677800942e-291 nan -22.5 1.585476805341e-291
 nan nan 2.50521045001122e-291 290057.720531105 2.60541886801166e-291 340.281720193977 0 -2.80583570401256e-291 0 nan -90 2.70562728601211e-291 nan -67.5 2.04297129181766e-291
 nan nan 3.10646095801391e-291 1 3.20666937601436e-291 288.124075224508 34.0098946965309 -3.60750304801615e-291 0.722926314195951 1.21771591376931 -6.07748718648603e-291 3.40708621201525e-291 nan -22.5 2.61946327466985e-291
 nan nan 4.20875355601884e-291 290057.720530151 4.40917039201974e-291 340.281720196833 0 -4.81000406402153e-291 0 nan -90 4.60958722802064e-291 nan -67.5 3.4592485319997e-291
 nan nan 5.41125457202423e-291 1 5.61167140802512e-291 288.12407522975 34.0098945260264 -6.01250508002692e-291 0.722925646264332 1.21771479512968 -1.01291453615913e-290 5.81208824402602e-291 nan -22.5 4.43686776620329e-291
 nan nan 6.81417242403051e-291 290057.720529137 7.2150060960323e-291 340.281720199928 0 -8.01667344003589e-291 0 nan -90 7.6158397680341e-291 nan -67.5 5.79036948322872e-291
 nan nan 9.21917445604127e-291 1 9.62000812804307e-291 288.124075235468 34.0098943403911 -1.04216754720467e-290 0.722924953837186 1.21771363578316 -1.75571853892568e-290 1.00208418000449e-290 nan -22.5 7.5201390111349e-291
 nan nan 1.1624176488052e-290 290057.720528068 1.20250101600538e-290 340.281720203305 0 -1.28266775040574e-290 0 nan -90 1.24258438320556e-290 nan -67.5 7.47120911953312e-291
 nan nan 2.82476411466625e-309 34.0098941374601 4.21543527623325e-309 0.722924231951459 101327.896658709 -6.99677759936726e-309 1.22512336957085 0.000692745046236012 -3.95632239348235e-312 5.60610643780025e-309 nan -22.5 1.5606800446782e-291
 nan nan 1.11687910840683e-308 0 1.25594622456353e-308 0 0 -1.53408045687693e-308 0 nan -90 1.39501334072023e-308 nan -67.5 2.93946014043792e-293
 nan nan 3.34195296691403e-308 1 3.48102008307073e-308 288.12407525663 34.0098936685305 -3.75915431538413e-308 0.722922675511205 1.21770982331546 -6.33297119094485e-308 3.62008719922743e-308 nan -22.5 1.95964009362543e-293
 nan nan 4.17635566385423e-308 290057.720524832 4.31542278001093e-308 340.281720215801 0 -4.73696630763425e-308 0 nan -90 4.45883207532085e-308 nan -56.25 2.4293670530025e-293
 nan nan 5.57136900457445e-308 1 5.84950323688785e-308 288.124075265616 34.009893394256 -6.40577170151465e-308 0.722921826323087 1.21770840316883 -1.07916740216279e-307 6.12763746920125e-308 nan -22.5 3.29297757474789e-293
 nan nan 7.24017439845485e-308 290057.720523918 7.51830863076825e-308 340.281720221108 0 -8.07457709539506e-308 0 nan -90 7.79644286308166e-308 nan -56.25 4.23243149350215e-293
 nan nan 8.91766415064171e-308 1 9.47393261526851e-308 288.124075276022 34.0098930839331 -1.05864695445221e-307 0.722920918442914 1.21770688547983 -1.78348112811754e-307 1.00302010798953e-307 nan -22.5 5.33334992449009e-293
 nan nan 1.22552749384025e-307 290057.720523163 1.28115434030293e-307 340.281720227252 0 -1.39240803322829e-307 0 nan -90 1.33678118676561e-307 nan -56.25 7.21225776199861e-293
 nan nan 1.55928857261633e-307 1 1.61491541907901e-307 288.124075288222 34.0098927252773 -1.72616911200437e-307 0.722919941601957 1.21770525339643 -2.90804224648989e-307 1.67054226554169e-307 nan -22.5 9.09116559950714e-293
 nan nan 2.00604021597906e-307 290057.720522516 2.11729390890442e-307 340.281720234456 0 -2.33980129475514e-307 0 nan -90 2.22854760182978e-307 nan -56.25 1.19193050739859e-292
 nan nan 2.67356237353122e-307 1 2.78481606645658e-307 288.124075302767 34.0098922970997 -3.0073234523073e-307 0.722918886029088 1.21770349122327 -5.06637715705483e-307 2.89606975938194e-307 nan -22.5 1.56575653125711e-292
 nan nan 3.34108453108338e-307 290057.720521804 3.45233822400874e-307 340.281720243045 0 -3.7895730461074e-307 0 nan -90 3.56706566025668e-307 nan -56.25 1.94153809875882e-292
 nan nan 4.45709520365956e-307 1 4.67960258951028e-307 288.124075320356 34.0098917670026 -5.12461736121172e-307 0.722917741492122 1.21770158288979 -8.63333963037713e-307 4.902109975361e-307 nan -22.5 2.63047097251195e-292
 nan nan 5.79213951876388e-307 290057.72052062 6.0146469046146e-307 340.281720253432 0 -6.45966167631604e-307 0 nan -90 6.23715429046532e-307 nan -56.25 3.38203410751536e-292
 nan nan 7.13413132051336e-307 1 7.57914609221481e-307 288.124075342192 34.0098910823296 -8.46917563561769e-307 0.722916504542064 1.2176995244729 -1.42678498646542e-306 8.02416086391625e-307 nan -22.5 4.25885776501936e-292
 nan nan 9.80421995072201e-307 290057.720518379 1.02492347224234e-306 340.281720266327 0 -1.11392642658263e-306 0 nan -90 1.06942494941249e-306 nan -56.25 5.76198403502618e-292
 nan nan 1.24743085809306e-306 1 1.29193233526321e-306 288.124075369792 34.0098901776229 -1.3809352896035e-306 0.722915174423643 1.21769731704369 -2.32643397146325e-306 1.33643381243335e-306 nan -22.5 7.26511030503299e-292
 nan nan 1.60483217278325e-306 290057.720514377 1.69383512712354e-306 340.281720282624 0 -1.87184103580411e-306 0 nan -90 1.78283808146383e-306 nan -56.25 9.51979971004326e-292
 nan nan 2.13884989882498e-306 1 2.22785285316527e-306 288.124075405816 34.0098889765896 -2.40585876184584e-306 0.722913770137602 1.21769499532861 -4.05310212136303e-306 2.31685580750555e-306 nan -22.5 1.25260522500569e-291
 nan nan 2.67286762486671e-306 290057.720508709 2.76187057920699e-306 340.281720303897 0 -3.03165843688592e-306 0 nan -90 2.85365252820535e-306 nan -56.25 1.55323047900706e-291
 nan nan 3.56567616292765e-306 1 3.74368207160823e-306 288.124075452921 34.0098874569119 -4.09969388896938e-306 0.722912308114485 1.21769258779413 -6.9066725795878e-306 3.9216879802888e-306 nan -22.5 1.3982836027332e-304
 nan nan 4.63371161501111e-306 290057.720503295 4.81171752369168e-306 340.281720331713 0 -5.16772934105284e-306 0 nan -90 4.98972343237226e-306 nan -56.25 1.74054869580866e-304
 nan nan 9.26742323002221e-306 0 9.62343504738337e-306 0 1 -1.03354586821057e-305 288.124075598444 89.8011427912259 -5.92178161816499e-304 9.97944686474452e-306 nan -11.25 5.19789664688562e-304
 nan nan 1.14146101128214e-305 101327.896822543 1.21266337475437e-305 1.22512337003507 290057.720522217 -1.35506810169883e-305 340.281720417647 0.0672166127691616 -2.67669769452657e-309 1.2838657382266e-305 nan -11.25 4.66217731842884e-304
 nan nan 1.56867519211552e-305 0 1.63987755558775e-305 0 1 -1.78228228253221e-305 288.124075711136 89.8011427913037 -1.02117252690039e-303 1.71107991905998e-305 nan -11.25 6.05955845661208e-304
 nan nan 1.9958893729489e-305 101327.896806705 2.06709173642113e-305 1.2251233693644 290057.720567484 -2.2094964633656e-305 340.281720484193 0.0672166127718168 -4.36447000797811e-309 2.13829409989336e-305 nan -11.25 7.46940789335367e-304
 nan nan 2.5677314764532e-305 0 2.71013620339766e-305 0 1 -2.99494565728658e-305 288.124075861828 89.8011427914077 -1.71597746033555e-303 2.85254093034212e-305 nan -11.25 1.02553394459687e-303
 nan nan 3.42215983811996e-305 101327.896691672 3.56456456506442e-305 1.22512336733282 290057.720634302 -3.84937401895335e-305 340.281720573178 0.0672166127739101 -7.60375847162533e-309 3.70696929200889e-305 nan -11.25 1.30519373613152e-303
 nan nan 4.27658819978673e-305 0 4.41899292673119e-305 0 1 -4.85065349901748e-305 288.124076085851 89.8011427915623 -2.77921973374067e-303 4.56584404512855e-305 nan -11.25 1.6786753345096e-303
 nan nan 5.70508186068424e-305 101327.89651384 5.98989131457316e-305 1.22512336423015 290057.72068895 -6.55951022235101e-305 340.281720705466 0.0672166127873775 -1.29571538561687e-308 6.27470076846208e-305 nan -11.25 2.23727040900527e-303
 nan nan 7.41393858401777e-305 0 7.69874803790669e-305 0 1 -8.26836694568454e-305 288.124076398634 89.8011427917782 -4.73742529453199e-303 7.98355749179561e-305 nan -11.25 2.79765246953732e-303
 nan nan 9.13168809025711e-305 101327.896009214 9.70130699803495e-305 1.22512335679891 290057.720650586 -1.08405448135906e-304 340.281720890169 0.0672166128327524 -2.14135815467362e-308 1.02709259058128e-304 nan -11.25 3.72974185474308e-303
 nan nan 1.25494015369242e-304 0 1.3119020444702e-304 0 1 -1.42582582602577e-304 288.124076876834 89.8011427921082 -8.1693802152031e-303 1.36886393524799e-304 nan -11.25 4.84764676528966e-303
 nan nan 1.59671149835912e-304 101327.895396453 1.65367338913691e-304 1.22512334735686 290057.720467745 -1.76759717069248e-304 340.281721172552 0.0672166129309026 -3.49157600758317e-308 1.71063527991469e-304 nan -11.25 5.97552631468293e-303
 nan nan 2.05418518116256e-304 0 2.16810896271813e-304 0 1 -2.39595652582926e-304 288.12407741326 89.8011427924784 -1.37278196826844e-302 2.2820327442737e-304 nan -11.25 8.20427155677497e-303
 nan nan 2.73772787049597e-304 101327.893834195 2.85165165205154e-304 1.22512332618717 290057.7201742 -3.07949921516268e-304 340.281721489318 0.067216613061499 -6.08300678694934e-308 2.96557543360711e-304 nan -11.25 1.04415498890521e-302
 nan nan 3.42127055982938e-304 0 3.53519434138495e-304 0 1 -3.88052279921398e-304 288.124077959116 89.8011427928552 -2.22337578699253e-302 3.65267523610284e-304 nan -11.25 1.34294026760768e-302