TITLE = "Visualization of the volumetric solution"
VARIABLES = "x","y","Density","Momentum_x","Momentum_y","Energy","Pressure","Temperature","Mach","C<sub>p</sub>","Roe_Dissipation"
ZONE NODES= 3200, ELEMENTS= 3081, DATAPACKING=POINT, ZONETYPE=FEQUADRILATERAL
1.000000e+00	1.250000e+00	1.273503e+00	5.290861e+01	-8.895288e+01	2.716935e+05	1.069951e+05	2.926809e+02	2.369671e-01	7.994225e+00	0.000000e+00	
1.000000e+00	1.218354e+00	1.273503e+00	5.290867e+01	-8.895278e+01	2.716935e+05	1.069951e+05	2.926809e+02	2.369670e-01	7.994235e+00	0.000000e+00	
1.051282e+00	1.218354e+00	1.273506e+00	5.290823e+01	-8.895015e+01	2.716941e+05	1.069954e+05	2.926811e+02	2.369607e-01	7.994698e+00	0.000000e+00	
1.051282e+00	1.250000e+00	1.273505e+00	5.290818e+01	-8.895025e+01	2.716940e+05	1.069954e+05	2.926811e+02	2.369608e-01	7.994678e+00	0.000000e+00	
1.000000e+00	1.186709e+00	1.273503e+00	5.290863e+01	-8.895269e+01	2.716935e+05	1.069951e+05	2.926809e+02	2.369667e-01	7.994240e+00	0.000000e+00	
1.051282e+00	1.186709e+00	1.273506e+00	5.290819e+01	-8.895008e+01	2.716941e+05	1.069954e+05	2.926811e+02	2.369605e-01	7.994698e+00	0.000000e+00	
1.000000e+00	1.155063e+00	1.273503e+00	5.290856e+01	-8.895260e+01	2.716935e+05	1.069951e+05	2.926809e+02	2.369665e-01	7.994243e+00	0.000000e+00	
1.051282e+00	1.155063e+00	1.273506e+00	5.290812e+01	-8.895000e+01	2.716941e+05	1.069954e+05	2.926811e+02	2.369602e-01	7.994704e+00	0.000000e+00	
1.000000e+00	1.123418e+00	1.273503e+00	5.290849e+01	-8.895253e+01	2.716935e+05	1.069951e+05	2.926809e+02	2.369663e-01	7.994248e+00	0.000000e+00	
1.051282e+00	1.123418e+00	1.273506e+00	5.290804e+01	-8.894992e+01	2.716941e+05	1.069954e+05	2.926811e+02	2.369600e-01	7.994710e+00	0.000000e+00	
1.000000e+00	1.091772e+00	1.273503e+00	5.290843e+01	-8.895248e+01	2.716935e+05	1.069951e+05	2.926809e+02	2.369661e-01	7.994253e+00	0.000000e+00	
1.051282e+00	1.091772e+00	1.273506e+00	5.290795e+01	-8.894985e+01	2.716941e+05	1.069955e+05	2.926812e+02	2.369597e-01	7.994715e+00	0.000000e+00	
1.000000e+00	1.060127e+00	1.273503e+00	5.290838e+01	-8.895244e+01	2.716935e+05	1.069951e+05	2.926810e+02	2.369660e-01	7.994259e+00	0.000000e+00	
1.051282e+00	1.060127e+00	1.273506e+00	5.290788e+01	-8.894978e+01	2.716941e+05	1.069955e+05	2.926812e+02	2.369595e-01	7.994721e+00	0.000000e+00	
1.000000e+00	1.028481e+00	1.273503e+00	5.290834e+01	-8.895243e+01	2.716935e+05	1.069951e+05	2.926810e+02	2.369659e-01	7.994266e+00	0.000000e+00	
1.051282e+00	1.028481e+00	1.273506e+00	5.290781e+01	-8.894973e+01	2.716941e+05	1.069955e+05	2.926812e+02	2.369593e-01	7.994726e+00	0.000000e+00	
1.000000e+00	9.968354e-01	1.273503e+00	5.290831e+01	-8.895243e+01	2.716935e+05	1.069951e+05	2.926810e+02	2.369658e-01	7.994272e+00	0.000000e+00	
1.051282e+00	9.968354e-01	1.273506e+00	5.290774e+01	-8.894970e+01	2.716941e+05	1.069955e+05	2.926812e+02	2.369591e-01	7.994731e+00	0.000000e+00	
1.000000e+00	9.651899e-01	1.273503e+00	5.290828e+01	-8.895245e+01	2.716935e+05	1.069951e+05	2.926810e+02	2.369658e-01	7.994279e+00	0.000000e+00	
1.051282e+00	9.651899e-01	1.273506e+00	5.290769e+01	-8.894968e+01	2.716941e+05	1.069955e+05	2.926812e+02	2.369590e-01	7.994736e+00	0.000000e+00	
1.000000e+00	9.335443e-01	1.273503e+00	5.290825e+01	-8.895247e+01	2.716935e+05	1.069951e+05	2.926810e+02	2.369658e-01	7.994285e+00	0.000000e+00	
1.051282e+00	9.335443e-01	1.273506e+00	5.290764e+01	-8.894968e+01	2.716941e+05	1.069955e+05	2.926812e+02	2.369590e-01	7.994741e+00	0.000000e+00	
1.000000e+00	9.018987e-01	1.273503e+00	5.290822e+01	-8.895251e+01	2.716935e+05	1.069952e+05	2.926810e+02	2.369658e-01	7.994291e+00	0.000000e+00	
1.051282e+00	9.018987e-01	1.273506e+00	5.290760e+01	-8.894969e+01	2.716941e+05	1.069955e+05	2.926812e+02	2.369589e-01	7.994746e+00	0.000000e+00	
1.000000e+00	8.702532e-01	1.273503e+00	5.290819e+01	-8.895254e+01	2.716935e+05	1.069952e+05	2.926810e+02	2.369659e-01	7.994297e+00	0.000000e+00	
1.051282e+00	8.702532e-01	1.273506e+00	5.290757e+01	-8.894971e+01	2.716941e+05	1.069955e+05	2.926812e+02	2.369589e-01	7.994750e+00	0.000000e+00	
1.000000e+00	8.386076e-01	1.273503e+00	5.290817e+01	-8.895258e+01	2.716936e+05	1.069952e+05	2.926810e+02	2.369659e-01	7.994303e+00	0.000000e+00	
1.051282e+00	8.386076e-01	1.273506e+00	5.290753e+01	-8.894974e+01	2.716941e+05	1.069955e+05	2.926812e+02	2.369589e-01	7.994754e+00	0.000000e+00	
1.000000e+00	8.069620e-01	1.273503e+00	5.290814e+01	-8.895263e+01	2.716936e+05	1.069952e+05	2.926810e+02	2.369660e-01	7.994308e+00	0.000000e+00	
1.051282e+00	8.069620e-01	1.273506e+00	5.290751e+01	-8.894977e+01	2.716941e+05	1.069955e+05	2.926812e+02	2.369590e-01	7.994759e+00	0.000000e+00	
1.000000e+00	7.753165e-01	1.273503e+00	5.290812e+01	-8.895267e+01	2.716936e+05	1.069952e+05	2.926810e+02	2.369660e-01	7.994313e+00	0.000000e+00	
1.051282e+00	7.753165e-01	1.273506e+00	5.290748e+01	-8.894981e+01	2.716941e+05	1.069955e+05	2.926812e+02	2.369590e-01	7.994762e+00	0.000000e+00	
1.000000e+00	7.436709e-01	1.273503e+00	5.290809e+01	-8.895271e+01	2.716936e+05	1.069952e+05	2.926810e+02	2.369661e-01	7.994317e+00	0.000000e+00	
1.051282e+00	7.436709e-01	1.273506e+00	5.290745e+01	-8.894986e+01	2.716941e+05	1.069955e+05	2.926812e+02	2.369591e-01	7.994766e+00	0.000000e+00	
1.000000e+00	7.120253e-01	1.273503e+00	5.290807e+01	-8.895275e+01	2.716936e+05	1.069952e+05	2.926810e+02	2.369661e-01	7.994321e+00	0.000000e+00	
1.051282e+00	7.120253e-01	1.273506e+00	5.290743e+01	-8.894990e+01	2.716942e+05	1.069955e+05	2.926812e+02	2.369591e-01	7.994770e+00	0.000000e+00	
1.000000e+00	6.803797e-01	1.273503e+00	5.290804e+01	-8.895279e+01	2.716936e+05	1.069952e+05	2.926810e+02	2.369662e-01	7.994325e+00	0.000000e+00	
1.051282e+00	6.803797e-01	1.273506e+00	5.290740e+01	-8.894995e+01	2.716942e+05	1.069955e+05	2.926812e+02	2.369592e-01	7.994773e+00	0.000000e+00	
1.000000e+00	6.487342e-01	1.273503e+00	5.290801e+01	-8.895283e+01	2.716936e+05	1.069952e+05	2.926810e+02	2.369662e-01	7.994329e+00	0.000000e+00	
1.051282e+00	6.487342e-01	1.273506e+00	5.290738e+01	-8.894999e+01	2.716942e+05	1.069955e+05	2.926812e+02	2.369592e-01	7.994777e+00	0.000000e+00	
1.000000e+00	6.170886e-01	1.273503e+00	5.290799e+01	-8.895287e+01	2.716936e+05	1.069952e+05	2.926810e+02	2.369662e-01	7.994332e+00	0.000000e+00	
1.051282e+00	6.170886e-01	1.273506e+00	5.290736e+01	-8.895004e+01	2.716942e+05	1.069955e+05	2.926812e+02	2.369593e-01	7.994780e+00	0.000000e+00	
1.000000e+00	5.854430e-01	1.273503e+00	5.290796e+01	-8.895291e+01	2.716936e+05	1.069952e+05	2.926810e+02	2.369663e-01	7.994335e+00	0.000000e+00	
1.051282e+00	5.854430e-01	1.273506e+00	5.290733e+01	-8.895008e+01	2.716942e+05	1.069955e+05	2.926812e+02	2.369594e-01	7.994783e+00	0.000000e+00	
1.000000e+00	5.537975e-01	1.273503e+00	5.290794e+01	-8.895294e+01	2.716936e+05	1.069952e+05	2.926810e+02	2.369663e-01	7.994338e+00	0.000000e+00	
1.051282e+00	5.537975e-01	1.273506e+00	5.290731e+01	-8.895013e+01	2.716942e+05	1.069955e+05	2.926812e+02	2.369594e-01	7.994786e+00	0.000000e+00	
1.000000e+00	5.221519e-01	1.273503e+00	5.290791e+01	-8.895298e+01	2.716936e+05	1.069952e+05	2.926810e+02	2.369663e-01	7.994341e+00	0.000000e+00	
1.051282e+00	5.221519e-01	1.273506e+00	5.290729e+01	-8.895017e+01	2.716942e+05	1.069955e+05	2.926812e+02	2.369595e-01	7.994788e+00	0.000000e+00	
1.000000e+00	4.905063e-01	1.273503e+00	5.290789e+01	-8.895301e+01	2.716936e+05	1.069952e+05	2.926810e+02	2.369664e-01	7.994344e+00	0.000000e+00	
1.051282e+00	4.905063e-01	1.273506e+00	5.290727e+01	-8.895021e+01	2.716942e+05	1.069955e+05	2.926812e+02	2.369595e-01	7.994791e+00	0.000000e+00	
1.000000e+00	4.588608e-01	1.273503e+00	5.290787e+01	-8.895304e+01	2.716937e+05	1.069952e+05	2.926810e+02	2.369664e-01	7.994346e+00	0.000000e+00	
1.051282e+00	4.588608e-01	1.273506e+00	5.290725e+01	-8.895025e+01	2.716942e+05	1.069955e+05	2.926812e+02	2.369596e-01	7.994793e+00	0.000000e+00	
1.000000e+00	4.272152e-01	1.273503e+00	5.290784e+01	-8.895308e+01	2.716937e+05	1.069952e+05	2.926810e+02	2.369664e-01	7.994348e+00	0.000000e+00	
1.051282e+00	4.272152e-01	1.273506e+00	5.290722e+01	-8.895029e+01	2.716942e+05	1.069955e+05	2.926812e+02	2.369596e-01	7.994795e+00	0.000000e+00	
1.000000e+00	3.955696e-01	1.273503e+00	5.290782e+01	-8.895311e+01	2.716937e+05	1.069952e+05	2.926810e+02	2.369665e-01	7.994350e+00	0.000000e+00	
1.051282e+00	3.955696e-01	1.273506e+00	5.290720e+01	-8.895033e+01	2.716942e+05	1.069955e+05	2.926812e+02	2.369597e-01	7.994797e+00	0.000000e+00	
1.000000e+00	3.639241e-01	1.273503e+00	5.290780e+01	-8.895314e+01	2.716937e+05	1.069952e+05	2.926810e+02	2.369665e-01	7.994352e+00	0.000000e+00	
1.051282e+00	3.639241e-01	1.273506e+00	5.290718e+01	-8.895036e+01	2.716942e+05	1.069955e+05	2.926812e+02	2.369597e-01	7.994799e+00	0.000000e+00	
1.000000e+00	3.322785e-01	1.273503e+00	5.290778e+01	-8.895316e+01	2.716937e+05	1.069952e+05	2.926810e+02	2.369665e-01	7.994354e+00	0.000000e+00	
1.051282e+00	3.322785e-01	1.273506e+00	5.290717e+01	-8.895040e+01	2.716942e+05	1.069955e+05	2.926812e+02	2.369598e-01	7.994801e+00	0.000000e+00	
1.000000e+00	3.006329e-01	1.273503e+00	5.290776e+01	-8.895319e+01	2.716937e+05	1.069952e+05	2.926810e+02	2.369666e-01	7.994356e+00	0.000000e+00	
1.051282e+00	3.006329e-01	1.273506e+00	5.290715e+01	-8.895043e+01	2.716942e+05	1.069955e+05	2.926812e+02	2.369598e-01	7.994803e+00	0.000000e+00	
1.000000e+00	2.689873e-01	1.273503e+00	5.290774e+01	-8.895322e+01	2.716937e+05	1.069952e+05	2.926810e+02	2.369666e-01	7.994357e+00	0.000000e+00	
1.051282e+00	2.689873e-01	1.273506e+00	5.290713e+01	-8.895046e+01	2.716942e+05	1.069955e+05	2.926812e+02	2.369598e-01	7.994804e+00	0.000000e+00	
1.000000e+00	2.373418e-01	1.273503e+00	5.290772e+01	-8.895324e+01	2.716937e+05	1.069952e+05	2.926810e+02	2.369666e-01	7.994358e+00	0.000000e+00	
1.051282e+00	2.373418e-01	1.273506e+00	5.290712e+01	-8.895049e+01	2.716942e+05	1.069955e+05	2.926812e+02	2.369599e-01	7.994805e+00	0.000000e+00	
1.000000e+00	2.056962e-01	1.273503e+00	5.290770e+01	-8.895327e+01	2.716937e+05	1.069952e+05	2.926810e+02	2.369667e-01	7.994359e+00	0.000000e+00	
1.051282e+00	2.056962e-01	1.273506e+00	5.290710e+01	-8.895052e+01	2.716942e+05	1.069955e+05	2.926812e+02	2.369599e-01	7.994806e+00	0.000000e+00	
1.000000e+00	1.740506e-01	1.273503e+00	5.290769e+01	-8.895329e+01	2.716937e+05	1.069952e+05	2.926810e+02	2.369667e-01	7.994360e+00	0.000000e+00	
1.051282e+00	1.740506e-01	1.273506e+00	5.290709e+01	-8.895055e+01	2.716943e+05	1.069955e+05	2.926812e+02	2.369599e-01	7.994807e+00	0.000000e+00	
1.000000e+00	1.424051e-01	1.273503e+00	5.290767e+01	-8.895331e+01	2.716937e+05	1.069952e+05	2.926810e+02	2.369667e-01	7.994361e+00	0.000000e+00	
1.051282e+00	1.424051e-01	1.273506e+00	5.290708e+01	-8.895057e+01	2.716943e+05	1.069955e+05	2.926812e+02	2.369600e-01	7.994808e+00	0.000000e+00	
1.000000e+00	1.107595e-01	1.273503e+00	5.290766e+01	-8.895333e+01	2.716937e+05	1.069952e+05	2.926810e+02	2.369667e-01	7.994361e+00	0.000000e+00	
1.051282e+00	1.107595e-01	1.273506e+00	5.290706e+01	-8.895059e+01	2.716943e+05	1.069955e+05	2.926812e+02	2.369600e-01	7.994809e+00	0.000000e+00	
1.000000e+00	7.911392e-02	1.273503e+00	5.290765e+01	-8.895335e+01	2.716937e+05	1.069952e+05	2.926810e+02	2.369667e-01	7.994362e+00	0.000000e+00	
1.051282e+00	7.911392e-02	1.273506e+00	5.290706e+01	-8.895062e+01	2.716943e+05	1.069955e+05	2.926812e+02	2.369600e-01	7.994809e+00	0.000000e+00	
1.000000e+00	4.746835e-02	1.273503e+00	5.290764e+01	-8.895336e+01	2.716937e+05	1.069952e+05	2.926810e+02	2.369668e-01	7.994362e+00	0.000000e+00	
1.051282e+00	4.746835e-02	1.273506e+00	5.290705e+01	-8.895064e+01	2.716943e+05	1.069955e+05	2.926812e+02	2.369601e-01	7.994809e+00	0.000000e+00	
1.000000e+00	1.582278e-02	1.273503e+00	5.290763e+01	-8.895338e+01	2.716937e+05	1.069952e+05	2.926810e+02	2.369668e-01	7.994362e+00	0.000000e+00	
1.051282e+00	1.582278e-02	1.273506e+00	5.290704e+01	-8.895065e+01	2.716943e+05	1.069955e+05	2.926812e+02	2.369601e-01	7.994809e+00	0.000000e+00	
1.000000e+00	-1.582278e-02	1.273503e+00	5.290762e+01	-8.895339e+01	2.716937e+05	1.069952e+05	2.926810e+02	2.369668e-01	7.994362e+00	0.000000e+00	
1.051282e+00	-1.582278e-02	1.273506e+00	5.290703e+01	-8.895067e+01	2.716943e+05	1.069955e+05	2.926812e+02	2.369601e-01	7.994809e+00	0.000000e+00	
1.000000e+00	-4.746835e-02	1.273503e+00	5.290761e+01	-8.895340e+01	2.716937e+05	1.069952e+05	2.926810e+02	2.369668e-01	7.994362e+00	0.000000e+00	
1.051282e+00	-4.746835e-02	1.273506e+00	5.290703e+01	-8.895068e+01	2.716943e+05	1.069955e+05	2.926812e+02	2.369602e-01	7.994809e+00	0.000000e+00	
1.000000e+00	-7.911392e-02	1.273503e+00	5.290760e+01	-8.895341e+01	2.716937e+05	1.069952e+05	2.926811e+02	2.369668e-01	7.994361e+00	0.000000e+00	
1.051282e+00	-7.911392e-02	1.273506e+00	5.290703e+01	-8.895069e+01	2.716943e+05	1.069955e+05	2.926812e+02	2.369602e-01	7.994808e+00	0.000000e+00	
1.000000e+00	-1.107595e-01	1.273503e+00	5.290760e+01	-8.895341e+01	2.716937e+05	1.069952e+05	2.926811e+02	2.369668e-01	7.994360e+00	0.000000e+00	
1.051282e+00	-1.107595e-01	1.273506e+00	5.290702e+01	-8.895070e+01	2.716943e+05	1.069955e+05	2.926812e+02	2.369602e-01	7.994808e+00	0.000000e+00	
1.000000e+00	-1.424051e-01	1.273503e+00	5.290759e+01	-8.895342e+01	2.716937e+05	1.069952e+05	2.926811e+02	2.369668e-01	7.994360e+00	0.000000e+00	
1.051282e+00	-1.424051e-01	1.273506e+00	5.290702e+01	-8.895071e+01	2.716943e+05	1.069955e+05	2.926812e+02	2.369602e-01	7.994807e+00	0.000000e+00	
1.000000e+00	-1.740506e-01	1.273503e+00	5.290759e+01	-8.895342e+01	2.716937e+05	1.069952e+05	2.926811e+02	2.369668e-01	7.994359e+00	0.000000e+00	
1.051282e+00	-1.740506e-01	1.273506e+00	5.290702e+01	-8.895072e+01	2.716943e+05	1.069955e+05	2.926813e+02	2.369602e-01	7.994806e+00	0.000000e+00	
1.000000e+00	-2.056962e-01	1.273503e+00	5.290759e+01	-8.895342e+01	2.716937e+05	1.069952e+05	2.926811e+02	2.369669e-01	7.994357e+00	0.000000e+00	
1.051282e+00	-2.056962e-01	1.273506e+00	5.290702e+01	-8.895072e+01	2.716943e+05	1.069955e+05	2.926813e+02	2.369602e-01	7.994805e+00	0.000000e+00	
1.000000e+00	-2.373418e-01	1.273503e+00	5.290759e+01	-8.895342e+01	2.716937e+05	1.069952e+05	2.926811e+02	2.369669e-01	7.994356e+00	0.000000e+00	
1.051282e+00	-2.373418e-01	1.273506e+00	5.290702e+01	-8.895072e+01	2.716943e+05	1.069955e+05	2.926813e+02	2.369603e-01	7.994804e+00	0.000000e+00	
1.000000e+00	-2.689873e-01	1.273503e+00	5.290759e+01	-8.895342e+01	2.716937e+05	1.069952e+05	2.926811e+02	2.369669e-01	7.994354e+00	0.000000e+00	
1.051282e+00	-2.689873e-01	1.273506e+00	5.290703e+01	-8.895072e+01	2.716943e+05	1.069955e+05	2.926813e+02	2.369603e-01	7.994802e+00	0.000000e+00	
1.000000e+00	-3.006329e-01	1.273503e+00	5.290759e+01	-8.895342e+01	2.716937e+05	1.069952e+05	2.926811e+02	2.369669e-01	7.994352e+00	0.000000e+00	
1.051282e+00	-3.006329e-01	1.273506e+00	5.290703e+01	-8.895072e+01	2.716943e+05	1.069955e+05	2.926813e+02	2.369603e-01	7.994800e+00	0.000000e+00	
1.000000e+00	-3.322785e-01	1.273503e+00	5.290760e+01	-8.895342e+01	2.716937e+05	1.069952e+05	2.926811e+02	2.369669e-01	7.994350e+00	0.000000e+00	
1.051282e+00	-3.322785e-01	1.273506e+00	5.290704e+01	-8.895072e+01	2.716942e+05	1.069955e+05	2.926813e+02	2.369603e-01	7.994799e+00	0.000000e+00	
1.000000e+00	-3.639241e-01	1.273503e+00	5.290761e+01	-8.895341e+01	2.716937e+05	1.069952e+05	2.926811e+02	2.369669e-01	7.994348e+00	0.000000e+00	
1.051282e+00	-3.639241e-01	1.273506e+00	5.290705e+01	-8.895072e+01	2.716942e+05	1.069955e+05	2.926813e+02	2.369603e-01	7.994796e+00	0.000000e+00	
1.000000e+00	-3.955696e-01	1.273503e+00	5.290762e+01	-8.895341e+01	2.716937e+05	1.069952e+05	2.926811e+02	2.369669e-01	7.994346e+00	0.000000e+00	
1.051282e+00	-3.955696e-01	1.273506e+00	5.290706e+01	-8.895072e+01	2.716942e+05	1.069955e+05	2.926813e+02	2.369603e-01	7.994794e+00	0.000000e+00	
1.000000e+00	-4.272152e-01	1.273503e+00	5.290763e+01	-8.895341e+01	2.716937e+05	1.069952e+05	2.926811e+02	2.369669e-01	7.994343e+00	0.000000e+00	
1.051282e+00	-4.272152e-01	1.273506e+00	5.290707e+01	-8.895071e+01	2.716942e+05	1.069955e+05	2.926813e+02	2.369603e-01	7.994792e+00	0.000000e+00	
1.000000e+00	-4.588608e-01	1.273503e+00	5.290764e+01	-8.895341e+01	2.716937e+05	1.069952e+05	2.926811e+02	2.369669e-01	7.994340e+00	0.000000e+00	
1.051282e+00	-4.588608e-01	1.273506e+00	5.290708e+01	-8.895071e+01	2.716942e+05	1.069955e+05	2.926813e+02	2.369603e-01	7.994789e+00	0.000000e+00	
1.000000e+00	-4.905063e-01	1.273503e+00	5.290765e+01	-8.895341e+01	2.716937e+05	1.069952e+05	2.926811e+02	2.369669e-01	7.994337e+00	0.000000e+00	
1.051282e+00	-4.905063e-01	1.273506e+00	5.290710e+01	-8.895071e+01	2.716942e+05	1.069955e+05	2.926813e+02	2.369603e-01	7.994787e+00	0.000000e+00	
1.000000e+00	-5.221519e-01	1.273503e+00	5.290767e+01	-8.895340e+01	2.716936e+05	1.069952e+05	2.926811e+02	2.369669e-01	7.994334e+00	0.000000e+00	
1.051282e+00	-5.221519e-01	1.273506e+00	5.290711e+01	-8.895070e+01	2.716942e+05	1.069955e+05	2.926813e+02	2.369604e-01	7.994784e+00	0.000000e+00	
1.000000e+00	-5.537975e-01	1.273503e+00	5.290769e+01	-8.895340e+01	2.716936e+05	1.069952e+05	2.926810e+02	2.369669e-01	7.994331e+00	0.000000e+00	
1.051282e+00	-5.537975e-01	1.273506e+00	5.290713e+01	-8.895070e+01	2.716942e+05	1.069955e+05	2.926813e+02	2.369604e-01	7.994781e+00	0.000000e+00	
1.000000e+00	-5.854430e-01	1.273503e+00	5.290770e+01	-8.895339e+01	2.716936e+05	1.069952e+05	2.926810e+02	2.369670e-01	7.994328e+00	0.000000e+00	
1.051282e+00	-5.854430e-01	1.273506e+00	5.290715e+01	-8.895069e+01	2.716942e+05	1.069955e+05	2.926813e+02	2.369604e-01	7.994778e+00	0.000000e+00	
1.000000e+00	-6.170886e-01	1.273503e+00	5.290772e+01	-8.895339e+01	2.716936e+05	1.069952e+05	2.926810e+02	2.369670e-01	7.994324e+00	0.000000e+00	
1.051282e+00	-6.170886e-01	1.273506e+00	5.290717e+01	-8.895069e+01	2.716942e+05	1.069955e+05	2.926812e+02	2.369604e-01	7.994775e+00	0.000000e+00	
1.000000e+00	-6.487342e-01	1.273503e+00	5.290774e+01	-8.895338e+01	2.716936e+05	1.069952e+05	2.926810e+02	2.369670e-01	7.994321e+00	0.000000e+00	
1.051282e+00	-6.487342e-01	1.273506e+00	5.290719e+01	-8.895068e+01	2.716942e+05	1.069955e+05	2.926812e+02	2.369604e-01	7.994771e+00	0.000000e+00	
1.000000e+00	-6.803797e-01	1.273503e+00	5.290775e+01	-8.895337e+01	2.716936e+05	1.069952e+05	2.926810e+02	2.369670e-01	7.994317e+00	0.000000e+00	
1.051282e+00	-6.803797e-01	1.273506e+00	5.290721e+01	-8.895067e+01	2.716942e+05	1.069955e+05	2.926812e+02	2.369604e-01	7.994768e+00	0.000000e+00	
1.000000e+00	-7.120253e-01	1.273503e+00	5.290777e+01	-8.895335e+01	2.716936e+05	1.069952e+05	2.926810e+02	2.369670e-01	7.994313e+00	0.000000e+00	
1.051282e+00	-7.120253e-01	1.273506e+00	5.290723e+01	-8.895067e+01	2.716942e+05	1.069955e+05	2.926812e+02	2.369604e-01	7.994764e+00	0.000000e+00	
1.000000e+00	-7.436709e-01	1.273503e+00	5.290779e+01	-8.895334e+01	2.716936e+05	1.069952e+05	2.926810e+02	2.369669e-01	7.994309e+00	0.000000e+00	
1.051282e+00	-7.436709e-01	1.273506e+00	5.290724e+01	-8.895065e+01	2.716942e+05	1.069955e+05	2.926812e+02	2.369604e-01	7.994761e+00	0.000000e+00	
1.000000e+00	-7.753165e-01	1.273503e+00	5.290781e+01	-8.895332e+01	2.716936e+05	1.069952e+05	2.926810e+02	2.369669e-01	7.994305e+00	0.000000e+00	
1.051282e+00	-7.753165e-01	1.273506e+00	5.290726e+01	-8.895064e+01	2.716942e+05	1.069955e+05	2.926812e+02	2.369604e-01	7.994757e+00	0.000000e+00	
1.000000e+00	-8.069620e-01	1.273503e+00	5.290782e+01	-8.895330e+01	2.716936e+05	1.069952e+05	2.926809e+02	2.369669e-01	7.994301e+00	0.000000e+00	
1.051282e+00	-8.069620e-01	1.273506e+00	5.290728e+01	-8.895063e+01	2.716942e+05	1.069955e+05	2.926812e+02	2.369604e-01	7.994754e+00	0.000000e+00	
1.000000e+00	-8.386076e-01	1.273503e+00	5.290784e+01	-8.895329e+01	2.716936e+05	1.069952e+05	2.926809e+02	2.369669e-01	7.994298e+00	0.000000e+00	
1.051282e+00	-8.386076e-01	1.273506e+00	5.290730e+01	-8.895061e+01	2.716942e+05	1.069955e+05	2.926812e+02	2.369604e-01	7.994750e+00	0.000000e+00	
1.000000e+00	-8.702532e-01	1.273503e+00	5.290786e+01	-8.895326e+01	2.716936e+05	1.069952e+05	2.926809e+02	2.369669e-01	7.994294e+00	0.000000e+00	
1.051282e+00	-8.702532e-01	1.273506e+00	5.290732e+01	-8.895059e+01	2.716942e+05	1.069955e+05	2.926811e+02	2.369604e-01	7.994747e+00	0.000000e+00	
1.000000e+00	-9.018987e-01	1.273503e+00	5.290787e+01	-8.895324e+01	2.716936e+05	1.069952e+05	2.926809e+02	2.369669e-01	7.994290e+00	0.000000e+00	
1.051282e+00	-9.018987e-01	1.273506e+00	5.290734e+01	-8.895058e+01	2.716942e+05	1.069955e+05	2.926811e+02	2.369604e-01	7.994743e+00	0.000000e+00	
1.000000e+00	-9.335443e-01	1.273503e+00	5.290789e+01	-8.895322e+01	2.716936e+05	1.069951e+05	2.926810e+02	2.369669e-01	7.994286e+00	0.000000e+00	
1.051282e+00	-9.335443e-01	1.273506e+00	5.290736e+01	-8.895055e+01	2.716941e+05	1.069955e+05	2.926811e+02	2.369604e-01	7.994740e+00	0.000000e+00	
1.000000e+00	-9.651899e-01	1.273503e+00	5.290791e+01	-8.895319e+01	2.716936e+05	1.069951e+05	2.926810e+02	2.369668e-01	7.994283e+00	0.000000e+00	
1.051282e+00	-9.651899e-01	1.273506e+00	5.290738e+01	-8.895053e+01	2.716941e+05	1.069955e+05	2.926811e+02	2.369603e-01	7.994737e+00	0.000000e+00	
1.000000e+00	-9.968354e-01	1.273503e+00	5.290792e+01	-8.895317e+01	2.716935e+05	1.069951e+05	2.926810e+02	2.369668e-01	7.994279e+00	0.000000e+00	
1.051282e+00	-9.968354e-01	1.273506e+00	5.290740e+01	-8.895051e+01	2.716941e+05	1.069955e+05	2.926811e+02	2.369603e-01	7.994733e+00	0.000000e+00	
1.000000e+00	-1.028481e+00	1.273503e+00	5.290794e+01	-8.895314e+01	2.716935e+05	1.069951e+05	2.926810e+02	2.369668e-01	7.994276e+00	0.000000e+00	
1.051282e+00	-1.028481e+00	1.273506e+00	5.290741e+01	-8.895049e+01	2.716941e+05	1.069955e+05	2.926811e+02	2.369603e-01	7.994731e+00	0.000000e+00	
1.000000e+00	-1.060127e+00	1.273503e+00	5.290796e+01	-8.895311e+01	2.716935e+05	1.069951e+05	2.926810e+02	2.369668e-01	7.994272e+00	0.000000e+00	
1.051282e+00	-1.060127e+00	1.273506e+00	5.290743e+01	-8.895046e+01	2.716941e+05	1.069955e+05	2.926811e+02	2.369603e-01	7.994726e+00	0.000000e+00	
1.000000e+00	-1.091772e+00	1.273503e+00	5.290797e+01	-8.895309e+01	2.716935e+05	1.069951e+05	2.926810e+02	2.369667e-01	7.994272e+00	0.000000e+00	
1.051282e+00	-1.091772e+00	1.273506e+00	5.290745e+01	-8.895044e+01	2.716941e+05	1.069955e+05	2.926811e+02	2.369603e-01	7.994727e+00	0.000000e+00	
1.000000e+00	-1.123418e+00	1.273503e+00	5.290800e+01	-8.895306e+01	2.716935e+05	1.069951e+05	2.926810e+02	2.369667e-01	7.994266e+00	0.000000e+00	
1.051282e+00	-1.123418e+00	1.273506e+00	5.290748e+01	-8.895040e+01	2.716941e+05	1.069955e+05	2.926811e+02	2.369602e-01	7.994718e+00	0.000000e+00	
1.000000e+00	-1.155063e+00	1.273503e+00	5.290801e+01	-8.895304e+01	2.716935e+05	1.069951e+05	2.926810e+02	2.369667e-01	7.994268e+00	0.000000e+00	
1.051282e+00	-1.155063e+00	1.273506e+00	5.290751e+01	-8.895041e+01	2.716941e+05	1.069955e+05	2.926811e+02	2.369603e-01	7.994726e+00	0.000000e+00	
1.000000e+00	-1.186709e+00	1.273503e+00	5.290795e+01	-8.895297e+01	2.716935e+05	1.069951e+05	2.926810e+02	2.369665e-01	7.994255e+00	0.000000e+00	
1.051282e+00	-1.186709e+00	1.273506e+00	5.290742e+01	-8.895030e+01	2.716941e+05	1.069954e+05	2.926812e+02	2.369600e-01	7.994704e+00	0.000000e+00	
1.000000e+00	-1.218354e+00	1.273503e+00	5.290801e+01	-8.895305e+01	2.716936e+05	1.069951e+05	2.926810e+02	2.369667e-01	7.994286e+00	0.000000e+00	
1.051282e+00	-1.218354e+00	1.273506e+00	5.290742e+01	-8.895040e+01	2.716941e+05	1.069955e+05	2.926812e+02	2.369601e-01	7.994740e+00	0.000000e+00	
1.102564e+00	1.218354e+00	1.273508e+00	5.290794e+01	-8.894794e+01	2.716946e+05	1.069957e+05	2.926814e+02	2.369554e-01	7.995090e+00	0.000000e+00	
1.102564e+00	1.250000e+00	1.273508e+00	5.290786e+01	-8.894803e+01	2.716946e+05	1.069957e+05	2.926814e+02	2.369556e-01	7.995068e+00	0.000000e+00	
1.102564e+00	1.186709e+00	1.273508e+00	5.290791e+01	-8.894790e+01	2.716946e+05	1.069957e+05	2.926814e+02	2.369553e-01	7.995085e+00	0.000000e+00	
1.102564e+00	1.155063e+00	1.273508e+00	5.290785e+01	-8.894783e+01	2.716946e+05	1.069957e+05	2.926814e+02	2.369551e-01	7.995093e+00	0.000000e+00	
1.102564e+00	1.123418e+00	1.273508e+00	5.290777e+01	-8.894776e+01	2.716946e+05	1.069957e+05	2.926814e+02	2.369549e-01	7.995096e+00	0.000000e+00	
1.102564e+00	1.091772e+00	1.273508e+00	5.290769e+01	-8.894768e+01	2.716946e+05	1.069957e+05	2.926814e+02	2.369546e-01	7.995101e+00	0.000000e+00	
1.102564e+00	1.060127e+00	1.273508e+00	5.290760e+01	-8.894761e+01	2.716946e+05	1.069957e+05	2.926814e+02	2.369544e-01	7.995106e+00	0.000000e+00	
1.102564e+00	1.028481e+00	1.273508e+00	5.290751e+01	-8.894754e+01	2.716946e+05	1.069957e+05	2.926814e+02	2.369541e-01	7.995110e+00	0.000000e+00	
1.102564e+00	9.968354e-01	1.273508e+00	5.290742e+01	-8.894748e+01	2.716946e+05	1.069957e+05	2.926814e+02	2.369539e-01	7.995115e+00	0.000000e+00	
1.102564e+00	9.651899e-01	1.273508e+00	5.290734e+01	-8.894743e+01	2.716946e+05	1.069957e+05	2.926814e+02	2.369537e-01	7.995120e+00	0.000000e+00	
1.102564e+00	9.335443e-01	1.273508e+00	5.290727e+01	-8.894739e+01	2.716946e+05	1.069957e+05	2.926814e+02	2.369535e-01	7.995124e+00	0.000000e+00	
1.102564e+00	9.018987e-01	1.273508e+00	5.290720e+01	-8.894737e+01	2.716946e+05	1.069957e+05	2.926814e+02	2.369534e-01	7.995129e+00	0.000000e+00	
1.102564e+00	8.702532e-01	1.273508e+00	5.290714e+01	-8.894736e+01	2.716946e+05	1.069957e+05	2.926814e+02	2.369533e-01	7.995133e+00	0.000000e+00	
1.102564e+00	8.386076e-01	1.273508e+00	5.290709e+01	-8.894737e+01	2.716946e+05	1.069958e+05	2.926814e+02	2.369533e-01	7.995137e+00	0.000000e+00	
1.102564e+00	8.069620e-01	1.273508e+00	5.290705e+01	-8.894739e+01	2.716946e+05	1.069958e+05	2.926814e+02	2.369532e-01	7.995141e+00	0.000000e+00	
1.102564e+00	7.753165e-01	1.273508e+00	5.290701e+01	-8.894741e+01	2.716946e+05	1.069958e+05	2.926814e+02	2.369532e-01	7.995145e+00	0.000000e+00	
1.102564e+00	7.436709e-01	1.273508e+00	5.290698e+01	-8.894745e+01	2.716946e+05	1.069958e+05	2.926814e+02	2.369533e-01	7.995149e+00	0.000000e+00	
1.102564e+00	7.120253e-01	1.273508e+00	5.290695e+01	-8.894749e+01	2.716946e+05	1.069958e+05	2.926814e+02	2.369533e-01	7.995152e+00	0.000000e+00	
1.102564e+00	6.803797e-01	1.273508e+00	5.290693e+01	-8.894754e+01	2.716946e+05	1.069958e+05	2.926814e+02	2.369534e-01	7.995156e+00	0.000000e+00	
1.102564e+00	6.487342e-01	1.273508e+00	5.290690e+01	-8.894758e+01	2.716947e+05	1.069958e+05	2.926814e+02	2.369534e-01	7.995159e+00	0.000000e+00	
1.102564e+00	6.170886e-01	1.273508e+00	5.290688e+01	-8.894763e+01	2.716947e+05	1.069958e+05	2.926814e+02	2.369535e-01	7.995162e+00	0.000000e+00	
1.102564e+00	5.854430e-01	1.273508e+00	5.290686e+01	-8.894768e+01	2.716947e+05	1.069958e+05	2.926814e+02	2.369536e-01	7.995165e+00	0.000000e+00	
1.102564e+00	5.537975e-01	1.273508e+00	5.290684e+01	-8.894773e+01	2.716947e+05	1.069958e+05	2.926814e+02	2.369536e-01	7.995168e+00	0.000000e+00	
1.102564e+00	5.221519e-01	1.273508e+00	5.290681e+01	-8.894778e+01	2.716947e+05	1.069958e+05	2.926814e+02	2.369537e-01	7.995170e+00	0.000000e+00	
1.102564e+00	4.905063e-01	1.273508e+00	5.290680e+01	-8.894783e+01	2.716947e+05	1.069958e+05	2.926814e+02	2.369538e-01	7.995172e+00	0.000000e+00	
1.102564e+00	4.588608e-01	1.273508e+00	5.290678e+01	-8.894788e+01	2.716947e+05	1.069958e+05	2.926814e+02	2.369538e-01	7.995175e+00	0.000000e+00	
1.102564e+00	4.272152e-01	1.273508e+00	5.290676e+01	-8.894792e+01	2.716947e+05	1.069958e+05	2.926814e+02	2.369539e-01	7.995177e+00	0.000000e+00	
1.102564e+00	3.955696e-01	1.273508e+00	5.290674e+01	-8.894797e+01	2.716947e+05	1.069958e+05	2.926814e+02	2.369540e-01	7.995179e+00	0.000000e+00	
1.102564e+00	3.639241e-01	1.273508e+00	5.290672e+01	-8.894801e+01	2.716947e+05	1.069958e+05	2.926814e+02	2.369540e-01	7.995180e+00	0.000000e+00	
1.102564e+00	3.322785e-01	1.273509e+00	5.290671e+01	-8.894805e+01	2.716947e+05	1.069958e+05	2.926814e+02	2.369541e-01	7.995182e+00	0.000000e+00	
1.102564e+00	3.006329e-01	1.273509e+00	5.290669e+01	-8.894808e+01	2.716947e+05	1.069958e+05	2.926814e+02	2.369541e-01	7.995183e+00	0.000000e+00	
1.102564e+00	2.689873e-01	1.273509e+00	5.290668e+01	-8.894812e+01	2.716947e+05	1.069958e+05	2.926814e+02	2.369542e-01	7.995185e+00	0.000000e+00	
1.102564e+00	2.373418e-01	1.273509e+00	5.290667e+01	-8.894815e+01	2.716947e+05	1.069958e+05	2.926814e+02	2.369542e-01	7.995186e+00	0.000000e+00	
1.102564e+00	2.056962e-01	1.273509e+00	5.290666e+01	-8.894818e+01	2.716947e+05	1.069958e+05	2.926814e+02	2.369543e-01	7.995187e+00	0.000000e+00	
1.102564e+00	1.740506e-01	1.273509e+00	5.290664e+01	-8.894822e+01	2.716947e+05	1.069958e+05	2.926814e+02	2.369543e-01	7.995188e+00	0.000000e+00	
1.102564e+00	1.424051e-01	1.273509e+00	5.290664e+01	-8.894824e+01	2.716947e+05	1.069958e+05	2.926814e+02	2.369544e-01	7.995188e+00	0.000000e+00	
1.102564e+00	1.107595e-01	1.273509e+00	5.290663e+01	-8.894827e+01	2.716947e+05	1.069958e+05	2.926814e+02	2.369544e-01	7.995189e+00	0.000000e+00	
1.102564e+00	7.911392e-02	1.273509e+00	5.290662e+01	-8.894830e+01	2.716947e+05	1.069958e+05	2.926814e+02	2.369545e-01	7.995189e+00	0.000000e+00	
1.102564e+00	4.746835e-02	1.273509e+00	5.290662e+01	-8.894832e+01	2.716947e+05	1.069958e+05	2.926814e+02	2.369545e-01	7.995189e+00	0.000000e+00	
1.102564e+00	1.582278e-02	1.273509e+00	5.290661e+01	-8.894834e+01	2.716947e+05	1.069958e+05	2.926814e+02	2.369545e-01	7.995189e+00	0.000000e+00	
1.102564e+00	-1.582278e-02	1.273509e+00	5.290661e+01	-8.894836e+01	2.716947e+05	1.069958e+05	2.926814e+02	2.369546e-01	7.995189e+00	0.000000e+00	
1.102564e+00	-4.746835e-02	1.273509e+00	5.290661e+01	-8.894838e+01	2.716948e+05	1.069958e+05	2.926814e+02	2.369546e-01	7.995189e+00	0.000000e+00	
1.102564e+00	-7.911392e-02	1.273508e+00	5.290661e+01	-8.894839e+01	2.716948e+05	1.069958e+05	2.926814e+02	2.369546e-01	7.995188e+00	0.000000e+00	
1.102564e+00	-1.107595e-01	1.273508e+00	5.290661e+01	-8.894840e+01	2.716948e+05	1.069958e+05	2.926814e+02	2.369547e-01	7.995188e+00	0.000000e+00	
1.102564e+00	-1.424051e-01	1.273508e+00	5.290661e+01	-8.894841e+01	2.716947e+05	1.069958e+05	2.926814e+02	2.369547e-01	7.995187e+00	0.000000e+00	
1.102564e+00	-1.740506e-01	1.273508e+00	5.290661e+01	-8.894842e+01	2.716947e+05	1.069958e+05	2.926815e+02	2.369547e-01	7.995186e+00	0.000000e+00	