TITLE = "Visualization of the volumetric solution"
VARIABLES = "x","y","Density","Momentum_x","Momentum_y","Energy","Pressure","Temperature","Mach","C<sub>p</sub>","Roe_Dissipation"
ZONE NODES= 2400, ELEMENTS= 2291, DATAPACKING=POINT, ZONETYPE=FEQUADRILATERAL
0.000000e+00	1.250000e+00	1.221769e+00	5.351932e+01	-5.352584e+00	2.538603e+05	1.010706e+05	2.881813e+02	1.293603e-01	-3.587374e-01	0.000000e+00	
0.000000e+00	1.218354e+00	1.221782e+00	5.352164e+01	-5.334504e+00	2.538606e+05	1.010707e+05	2.881787e+02	1.293608e-01	-3.585863e-01	0.000000e+00	
3.448276e-02	1.218354e+00	1.244934e+00	5.260709e+01	-2.805188e+01	2.604265e+05	1.035996e+05	2.898958e+02	1.403033e-01	3.206901e+00	0.000000e+00	
3.448276e-02	1.250000e+00	1.244914e+00	5.260599e+01	-2.805488e+01	2.604219e+05	1.035977e+05	2.898954e+02	1.403067e-01	3.204289e+00	0.000000e+00	
0.000000e+00	1.186709e+00	1.221781e+00	5.352640e+01	-5.325938e+00	2.538592e+05	1.010700e+05	2.881770e+02	1.293705e-01	-3.594732e-01	0.000000e+00	
3.448276e-02	1.186709e+00	1.244939e+00	5.260637e+01	-2.805329e+01	2.604272e+05	1.035999e+05	2.898954e+02	1.403029e-01	3.207298e+00	0.000000e+00	
0.000000e+00	1.155063e+00	1.221781e+00	5.352922e+01	-5.321890e+00	2.538587e+05	1.010698e+05	2.881764e+02	1.293765e-01	-3.597881e-01	0.000000e+00	
3.448276e-02	1.155063e+00	1.244945e+00	5.260656e+01	-2.805389e+01	2.604281e+05	1.036002e+05	2.898951e+02	1.403034e-01	3.207824e+00	0.000000e+00	
0.000000e+00	1.123418e+00	1.221780e+00	5.352997e+01	-5.319869e+00	2.538585e+05	1.010697e+05	2.881763e+02	1.293779e-01	-3.599398e-01	0.000000e+00	
3.448276e-02	1.123418e+00	1.244948e+00	5.260643e+01	-2.805456e+01	2.604286e+05	1.036004e+05	2.898950e+02	1.403035e-01	3.208095e+00	0.000000e+00	
0.000000e+00	1.091772e+00	1.221779e+00	5.352981e+01	-5.318590e+00	2.538583e+05	1.010696e+05	2.881764e+02	1.293773e-01	-3.600252e-01	0.000000e+00	
3.448276e-02	1.091772e+00	1.244950e+00	5.260606e+01	-2.805490e+01	2.604289e+05	1.036005e+05	2.898949e+02	1.403030e-01	3.208274e+00	0.000000e+00	
0.000000e+00	1.060127e+00	1.221778e+00	5.352962e+01	-5.317689e+00	2.538582e+05	1.010696e+05	2.881765e+02	1.293767e-01	-3.600722e-01	0.000000e+00	
3.448276e-02	1.060127e+00	1.244950e+00	5.260578e+01	-2.805502e+01	2.604291e+05	1.036006e+05	2.898950e+02	1.403024e-01	3.208397e+00	0.000000e+00	
0.000000e+00	1.028481e+00	1.221778e+00	5.352962e+01	-5.317095e+00	2.538582e+05	1.010696e+05	2.881765e+02	1.293766e-01	-3.600992e-01	0.000000e+00	
3.448276e-02	1.028481e+00	1.244951e+00	5.260567e+01	-2.805505e+01	2.604293e+05	1.036007e+05	2.898950e+02	1.403021e-01	3.208481e+00	0.000000e+00	
0.000000e+00	9.968354e-01	1.221778e+00	5.352972e+01	-5.316742e+00	2.538582e+05	1.010696e+05	2.881765e+02	1.293768e-01	-3.601124e-01	0.000000e+00	
3.448276e-02	9.968354e-01	1.244951e+00	5.260567e+01	-2.805509e+01	2.604294e+05	1.036007e+05	2.898950e+02	1.403021e-01	3.208538e+00	0.000000e+00	
0.000000e+00	9.651899e-01	1.221778e+00	5.352980e+01	-5.316554e+00	2.538582e+05	1.010696e+05	2.881765e+02	1.293769e-01	-3.601196e-01	0.000000e+00	
3.448276e-02	9.651899e-01	1.244952e+00	5.260569e+01	-2.805514e+01	2.604294e+05	1.036008e+05	2.898951e+02	1.403022e-01	3.208575e+00	0.000000e+00	
0.000000e+00	9.335443e-01	1.221778e+00	5.352982e+01	-5.316454e+00	2.538582e+05	1.010696e+05	2.881765e+02	1.293769e-01	-3.601229e-01	0.000000e+00	
3.448276e-02	9.335443e-01	1.244952e+00	5.260568e+01	-2.805519e+01	2.604295e+05	1.036008e+05	2.898951e+02	1.403022e-01	3.208599e+00	0.000000e+00	
0.000000e+00	9.018987e-01	1.221778e+00	5.352979e+01	-5.316393e+00	2.538582e+05	1.010696e+05	2.881765e+02	1.293769e-01	-3.601243e-01	0.000000e+00	
3.448276e-02	9.018987e-01	1.244952e+00	5.260565e+01	-2.805523e+01	2.604295e+05	1.036008e+05	2.898951e+02	1.403022e-01	3.208616e+00	0.000000e+00	
0.000000e+00	8.702532e-01	1.221778e+00	5.352974e+01	-5.316345e+00	2.538581e+05	1.010696e+05	2.881765e+02	1.293767e-01	-3.601244e-01	0.000000e+00	
3.448276e-02	8.702532e-01	1.244952e+00	5.260561e+01	-2.805525e+01	2.604295e+05	1.036008e+05	2.898951e+02	1.403021e-01	3.208629e+00	0.000000e+00	
0.000000e+00	8.386076e-01	1.221778e+00	5.352971e+01	-5.316303e+00	2.538581e+05	1.010696e+05	2.881765e+02	1.293767e-01	-3.601240e-01	0.000000e+00	
3.448276e-02	8.386076e-01	1.244952e+00	5.260558e+01	-2.805526e+01	2.604296e+05	1.036008e+05	2.898951e+02	1.403020e-01	3.208638e+00	0.000000e+00	
0.000000e+00	8.069620e-01	1.221778e+00	5.352968e+01	-5.316266e+00	2.538581e+05	1.010696e+05	2.881765e+02	1.293766e-01	-3.601233e-01	0.000000e+00	
3.448276e-02	8.069620e-01	1.244952e+00	5.260556e+01	-2.805526e+01	2.604296e+05	1.036008e+05	2.898951e+02	1.403020e-01	3.208645e+00	0.000000e+00	
0.000000e+00	7.753165e-01	1.221778e+00	5.352967e+01	-5.316233e+00	2.538581e+05	1.010696e+05	2.881765e+02	1.293765e-01	-3.601228e-01	0.000000e+00	
3.448276e-02	7.753165e-01	1.244952e+00	5.260554e+01	-2.805526e+01	2.604296e+05	1.036008e+05	2.898951e+02	1.403019e-01	3.208651e+00	0.000000e+00	
0.000000e+00	7.436709e-01	1.221778e+00	5.352965e+01	-5.316204e+00	2.538581e+05	1.010696e+05	2.881765e+02	1.293765e-01	-3.601224e-01	0.000000e+00	
3.448276e-02	7.436709e-01	1.244952e+00	5.260553e+01	-2.805526e+01	2.604296e+05	1.036008e+05	2.898951e+02	1.403019e-01	3.208655e+00	0.000000e+00	
0.000000e+00	7.120253e-01	1.221778e+00	5.352964e+01	-5.316179e+00	2.538581e+05	1.010696e+05	2.881765e+02	1.293765e-01	-3.601221e-01	0.000000e+00	
3.448276e-02	7.120253e-01	1.244952e+00	5.260552e+01	-2.805525e+01	2.604296e+05	1.036008e+05	2.898951e+02	1.403019e-01	3.208659e+00	0.000000e+00	
0.000000e+00	6.803797e-01	1.221778e+00	5.352964e+01	-5.316156e+00	2.538581e+05	1.010696e+05	2.881765e+02	1.293764e-01	-3.601219e-01	0.000000e+00	
3.448276e-02	6.803797e-01	1.244952e+00	5.260551e+01	-2.805525e+01	2.604296e+05	1.036008e+05	2.898951e+02	1.403019e-01	3.208662e+00	0.000000e+00	
0.000000e+00	6.487342e-01	1.221778e+00	5.352963e+01	-5.316135e+00	2.538581e+05	1.010696e+05	2.881765e+02	1.293764e-01	-3.601217e-01	0.000000e+00	
3.448276e-02	6.487342e-01	1.244952e+00	5.260550e+01	-2.805524e+01	2.604296e+05	1.036008e+05	2.898951e+02	1.403018e-01	3.208665e+00	0.000000e+00	
0.000000e+00	6.170886e-01	1.221778e+00	5.352963e+01	-5.316115e+00	2.538581e+05	1.010696e+05	2.881765e+02	1.293764e-01	-3.601216e-01	0.000000e+00	
3.448276e-02	6.170886e-01	1.244952e+00	5.260550e+01	-2.805523e+01	2.604296e+05	1.036008e+05	2.898951e+02	1.403018e-01	3.208667e+00	0.000000e+00	
0.000000e+00	5.854430e-01	1.221778e+00	5.352963e+01	-5.316097e+00	2.538581e+05	1.010696e+05	2.881765e+02	1.293764e-01	-3.601215e-01	0.000000e+00	
3.448276e-02	5.854430e-01	1.244952e+00	5.260550e+01	-2.805522e+01	2.604296e+05	1.036008e+05	2.898951e+02	1.403018e-01	3.208668e+00	0.000000e+00	
0.000000e+00	5.537975e-01	1.221778e+00	5.352963e+01	-5.316079e+00	2.538581e+05	1.010696e+05	2.881765e+02	1.293764e-01	-3.601216e-01	0.000000e+00	
3.448276e-02	5.537975e-01	1.244952e+00	5.260550e+01	-2.805521e+01	2.604296e+05	1.036008e+05	2.898951e+02	1.403018e-01	3.208670e+00	0.000000e+00	
0.000000e+00	5.221519e-01	1.221778e+00	5.352963e+01	-5.316062e+00	2.538581e+05	1.010696e+05	2.881765e+02	1.293764e-01	-3.601218e-01	0.000000e+00	
3.448276e-02	5.221519e-01	1.244952e+00	5.260549e+01	-2.805520e+01	2.604296e+05	1.036008e+05	2.898951e+02	1.403018e-01	3.208671e+00	0.000000e+00	
0.000000e+00	4.905063e-01	1.221778e+00	5.352963e+01	-5.316044e+00	2.538581e+05	1.010696e+05	2.881765e+02	1.293764e-01	-3.601221e-01	0.000000e+00	
3.448276e-02	4.905063e-01	1.244952e+00	5.260549e+01	-2.805519e+01	2.604296e+05	1.036008e+05	2.898951e+02	1.403017e-01	3.208672e+00	0.000000e+00	
0.000000e+00	4.588608e-01	1.221778e+00	5.352962e+01	-5.316027e+00	2.538581e+05	1.010696e+05	2.881765e+02	1.293764e-01	-3.601224e-01	0.000000e+00	
3.448276e-02	4.588608e-01	1.244952e+00	5.260549e+01	-2.805518e+01	2.604296e+05	1.036008e+05	2.898951e+02	1.403017e-01	3.208673e+00	0.000000e+00	
0.000000e+00	4.272152e-01	1.221778e+00	5.352962e+01	-5.316010e+00	2.538581e+05	1.010696e+05	2.881765e+02	1.293764e-01	-3.601229e-01	0.000000e+00	
3.448276e-02	4.272152e-01	1.244952e+00	5.260549e+01	-2.805517e+01	2.604296e+05	1.036008e+05	2.898951e+02	1.403017e-01	3.208674e+00	0.000000e+00	
0.000000e+00	3.955696e-01	1.221778e+00	5.352962e+01	-5.315993e+00	2.538581e+05	1.010696e+05	2.881765e+02	1.293764e-01	-3.601234e-01	0.000000e+00	
3.448276e-02	3.955696e-01	1.244952e+00	5.260549e+01	-2.805516e+01	2.604296e+05	1.036008e+05	2.898951e+02	1.403017e-01	3.208675e+00	0.000000e+00	
0.000000e+00	3.639241e-01	1.221778e+00	5.352962e+01	-5.315976e+00	2.538581e+05	1.010696e+05	2.881765e+02	1.293764e-01	-3.601239e-01	0.000000e+00	
3.448276e-02	3.639241e-01	1.244952e+00	5.260548e+01	-2.805515e+01	2.604296e+05	1.036008e+05	2.898951e+02	1.403017e-01	3.208676e+00	0.000000e+00	
0.000000e+00	3.322785e-01	1.221778e+00	5.352962e+01	-5.315959e+00	2.538581e+05	1.010696e+05	2.881765e+02	1.293763e-01	-3.601244e-01	0.000000e+00	
3.448276e-02	3.322785e-01	1.244952e+00	5.260548e+01	-2.805513e+01	2.604296e+05	1.036008e+05	2.898951e+02	1.403017e-01	3.208676e+00	0.000000e+00	
0.000000e+00	3.006329e-01	1.221778e+00	5.352961e+01	-5.315943e+00	2.538581e+05	1.010696e+05	2.881765e+02	1.293763e-01	-3.601250e-01	0.000000e+00	
3.448276e-02	3.006329e-01	1.244952e+00	5.260548e+01	-2.805512e+01	2.604296e+05	1.036008e+05	2.898951e+02	1.403016e-01	3.208677e+00	0.000000e+00	
0.000000e+00	2.689873e-01	1.221778e+00	5.352961e+01	-5.315927e+00	2.538581e+05	1.010696e+05	2.881765e+02	1.293763e-01	-3.601255e-01	0.000000e+00	
3.448276e-02	2.689873e-01	1.244952e+00	5.260547e+01	-2.805511e+01	2.604296e+05	1.036008e+05	2.898951e+02	1.403016e-01	3.208678e+00	0.000000e+00	
0.000000e+00	2.373418e-01	1.221778e+00	5.352961e+01	-5.315911e+00	2.538581e+05	1.010696e+05	2.881765e+02	1.293763e-01	-3.601261e-01	0.000000e+00	
3.448276e-02	2.373418e-01	1.244952e+00	5.260547e+01	-2.805510e+01	2.604296e+05	1.036008e+05	2.898951e+02	1.403016e-01	3.208678e+00	0.000000e+00	
0.000000e+00	2.056962e-01	1.221778e+00	5.352960e+01	-5.315896e+00	2.538581e+05	1.010696e+05	2.881765e+02	1.293763e-01	-3.601266e-01	0.000000e+00	
3.448276e-02	2.056962e-01	1.244952e+00	5.260546e+01	-2.805509e+01	2.604296e+05	1.036008e+05	2.898951e+02	1.403016e-01	3.208679e+00	0.000000e+00	
0.000000e+00	1.740506e-01	1.221778e+00	5.352960e+01	-5.315881e+00	2.538581e+05	1.010696e+05	2.881765e+02	1.293763e-01	-3.601271e-01	0.000000e+00	
3.448276e-02	1.740506e-01	1.244952e+00	5.260546e+01	-2.805508e+01	2.604296e+05	1.036008e+05	2.898951e+02	1.403016e-01	3.208680e+00	0.000000e+00	
0.000000e+00	1.424051e-01	1.221778e+00	5.352959e+01	-5.315867e+00	2.538581e+05	1.010696e+05	2.881765e+02	1.293763e-01	-3.601276e-01	0.000000e+00	
3.448276e-02	1.424051e-01	1.244952e+00	5.260545e+01	-2.805508e+01	2.604296e+05	1.036008e+05	2.898951e+02	1.403015e-01	3.208681e+00	0.000000e+00	
0.000000e+00	1.107595e-01	1.221778e+00	5.352958e+01	-5.315854e+00	2.538581e+05	1.010696e+05	2.881765e+02	1.293763e-01	-3.601281e-01	0.000000e+00	
3.448276e-02	1.107595e-01	1.244952e+00	5.260544e+01	-2.805507e+01	2.604296e+05	1.036008e+05	2.898951e+02	1.403015e-01	3.208681e+00	0.000000e+00	
0.000000e+00	7.911392e-02	1.221778e+00	5.352958e+01	-5.315841e+00	2.538581e+05	1.010696e+05	2.881765e+02	1.293762e-01	-3.601285e-01	0.000000e+00	
3.448276e-02	7.911392e-02	1.244952e+00	5.260544e+01	-2.805506e+01	2.604296e+05	1.036008e+05	2.898951e+02	1.403015e-01	3.208682e+00	0.000000e+00	
0.000000e+00	4.746835e-02	1.221778e+00	5.352957e+01	-5.315828e+00	2.538581e+05	1.010696e+05	2.881765e+02	1.293762e-01	-3.601288e-01	0.000000e+00	
3.448276e-02	4.746835e-02	1.244952e+00	5.260543e+01	-2.805505e+01	2.604296e+05	1.036008e+05	2.898951e+02	1.403015e-01	3.208683e+00	0.000000e+00	
0.000000e+00	1.582278e-02	1.221778e+00	5.352956e+01	-5.315817e+00	2.538581e+05	1.010696e+05	2.881765e+02	1.293762e-01	-3.601291e-01	0.000000e+00	
3.448276e-02	1.582278e-02	1.244952e+00	5.260542e+01	-2.805505e+01	2.604296e+05	1.036008e+05	2.898951e+02	1.403014e-01	3.208684e+00	0.000000e+00	
0.000000e+00	-1.582278e-02	1.221778e+00	5.352955e+01	-5.315806e+00	2.538581e+05	1.010696e+05	2.881765e+02	1.293762e-01	-3.601294e-01	0.000000e+00	
3.448276e-02	-1.582278e-02	1.244952e+00	5.260541e+01	-2.805504e+01	2.604296e+05	1.036008e+05	2.898951e+02	1.403014e-01	3.208685e+00	0.000000e+00	
0.000000e+00	-4.746835e-02	1.221778e+00	5.352955e+01	-5.315796e+00	2.538581e+05	1.010696e+05	2.881765e+02	1.293761e-01	-3.601295e-01	0.000000e+00	
3.448276e-02	-4.746835e-02	1.244952e+00	5.260540e+01	-2.805504e+01	2.604296e+05	1.036008e+05	2.898951e+02	1.403014e-01	3.208686e+00	0.000000e+00	
0.000000e+00	-7.911392e-02	1.221778e+00	5.352954e+01	-5.315787e+00	2.538581e+05	1.010696e+05	2.881765e+02	1.293761e-01	-3.601297e-01	0.000000e+00	
3.448276e-02	-7.911392e-02	1.244952e+00	5.260539e+01	-2.805503e+01	2.604296e+05	1.036008e+05	2.898951e+02	1.403013e-01	3.208686e+00	0.000000e+00	
0.000000e+00	-1.107595e-01	1.221778e+00	5.352953e+01	-5.315779e+00	2.538581e+05	1.010696e+05	2.881765e+02	1.293761e-01	-3.601297e-01	0.000000e+00	
3.448276e-02	-1.107595e-01	1.244952e+00	5.260538e+01	-2.805503e+01	2.604296e+05	1.036008e+05	2.898951e+02	1.403013e-01	3.208687e+00	0.000000e+00	
0.000000e+00	-1.424051e-01	1.221778e+00	5.352952e+01	-5.315772e+00	2.538581e+05	1.010696e+05	2.881765e+02	1.293761e-01	-3.601297e-01	0.000000e+00	
3.448276e-02	-1.424051e-01	1.244952e+00	5.260537e+01	-2.805503e+01	2.604296e+05	1.036008e+05	2.898951e+02	1.403013e-01	3.208688e+00	0.000000e+00	
0.000000e+00	-1.740506e-01	1.221778e+00	5.352951e+01	-5.315765e+00	2.538581e+05	1.010696e+05	2.881765e+02	1.293760e-01	-3.601297e-01	0.000000e+00	
3.448276e-02	-1.740506e-01	1.244952e+00	5.260536e+01	-2.805503e+01	2.604296e+05	1.036008e+05	2.898951e+02	1.403013e-01	3.208689e+00	0.000000e+00	
0.000000e+00	-2.056962e-01	1.221778e+00	5.352950e+01	-5.315760e+00	2.538581e+05	1.010696e+05	2.881765e+02	1.293760e-01	-3.601295e-01	0.000000e+00	
3.448276e-02	-2.056962e-01	1.244952e+00	5.260535e+01	-2.805503e+01	2.604296e+05	1.036008e+05	2.898951e+02	1.403012e-01	3.208690e+00	0.000000e+00	
0.000000e+00	-2.373418e-01	1.221778e+00	5.352949e+01	-5.315756e+00	2.538581e+05	1.010696e+05	2.881765e+02	1.293760e-01	-3.601294e-01	0.000000e+00	
3.448276e-02	-2.373418e-01	1.244952e+00	5.260533e+01	-2.805503e+01	2.604296e+05	1.036008e+05	2.898951e+02	1.403012e-01	3.208691e+00	0.000000e+00	
0.000000e+00	-2.689873e-01	1.221778e+00	5.352948e+01	-5.315752e+00	2.538581e+05	1.010696e+05	2.881765e+02	1.293760e-01	-3.601292e-01	0.000000e+00	
3.448276e-02	-2.689873e-01	1.244952e+00	5.260532e+01	-2.805503e+01	2.604296e+05	1.036008e+05	2.898951e+02	1.403012e-01	3.208692e+00	0.000000e+00	
0.000000e+00	-3.006329e-01	1.221778e+00	5.352947e+01	-5.315749e+00	2.538581e+05	1.010696e+05	2.881765e+02	1.293759e-01	-3.601289e-01	0.000000e+00	
3.448276e-02	-3.006329e-01	1.244952e+00	5.260531e+01	-2.805503e+01	2.604296e+05	1.036008e+05	2.898951e+02	1.403012e-01	3.208693e+00	0.000000e+00	
0.000000e+00	-3.322785e-01	1.221778e+00	5.352946e+01	-5.315748e+00	2.538581e+05	1.010696e+05	2.881765e+02	1.293759e-01	-3.601286e-01	0.000000e+00	
3.448276e-02	-3.322785e-01	1.244952e+00	5.260530e+01	-2.805503e+01	2.604296e+05	1.036008e+05	2.898951e+02	1.403012e-01	3.208694e+00	0.000000e+00	
0.000000e+00	-3.639241e-01	1.221778e+00	5.352945e+01	-5.315747e+00	2.538581e+05	1.010696e+05	2.881765e+02	1.293759e-01	-3.601283e-01	0.000000e+00	
3.448276e-02	-3.639241e-01	1.244952e+00	5.260529e+01	-2.805503e+01	2.604296e+05	1.036008e+05	2.898951e+02	1.403011e-01	3.208694e+00	0.000000e+00	
0.000000e+00	-3.955696e-01	1.221778e+00	5.352944e+01	-5.315747e+00	2.538581e+05	1.010696e+05	2.881765e+02	1.293759e-01	-3.601279e-01	0.000000e+00	
3.448276e-02	-3.955696e-01	1.244952e+00	5.260528e+01	-2.805504e+01	2.604296e+05	1.036008e+05	2.898951e+02	1.403011e-01	3.208695e+00	0.000000e+00	
0.000000e+00	-4.272152e-01	1.221778e+00	5.352943e+01	-5.315748e+00	2.538581e+05	1.010696e+05	2.881765e+02	1.293759e-01	-3.601276e-01	0.000000e+00	
3.448276e-02	-4.272152e-01	1.244952e+00	5.260527e+01	-2.805504e+01	2.604296e+05	1.036008e+05	2.898951e+02	1.403011e-01	3.208696e+00	0.000000e+00	
0.000000e+00	-4.588608e-01	1.221778e+00	5.352942e+01	-5.315750e+00	2.538581e+05	1.010696e+05	2.881765e+02	1.293758e-01	-3.601272e-01	0.000000e+00	
3.448276e-02	-4.588608e-01	1.244952e+00	5.260527e+01	-2.805505e+01	2.604296e+05	1.036008e+05	2.898951e+02	1.403011e-01	3.208696e+00	0.000000e+00	
0.000000e+00	-4.905063e-01	1.221778e+00	5.352942e+01	-5.315753e+00	2.538581e+05	1.010696e+05	2.881765e+02	1.293758e-01	-3.601268e-01	0.000000e+00	
3.448276e-02	-4.905063e-01	1.244952e+00	5.260526e+01	-2.805505e+01	2.604296e+05	1.036008e+05	2.898951e+02	1.403011e-01	3.208697e+00	0.000000e+00	
0.000000e+00	-5.221519e-01	1.221778e+00	5.352941e+01	-5.315757e+00	2.538581e+05	1.010696e+05	2.881765e+02	1.293758e-01	-3.601265e-01	0.000000e+00	
3.448276e-02	-5.221519e-01	1.244952e+00	5.260525e+01	-2.805506e+01	2.604296e+05	1.036008e+05	2.898951e+02	1.403011e-01	3.208697e+00	0.000000e+00	
0.000000e+00	-5.537975e-01	1.221778e+00	5.352941e+01	-5.315762e+00	2.538581e+05	1.010696e+05	2.881765e+02	1.293758e-01	-3.601262e-01	0.000000e+00	
3.448276e-02	-5.537975e-01	1.244952e+00	5.260525e+01	-2.805506e+01	2.604296e+05	1.036008e+05	2.898951e+02	1.403011e-01	3.208697e+00	0.000000e+00	
0.000000e+00	-5.854430e-01	1.221778e+00	5.352940e+01	-5.315768e+00	2.538581e+05	1.010696e+05	2.881765e+02	1.293758e-01	-3.601260e-01	0.000000e+00	
3.448276e-02	-5.854430e-01	1.244952e+00	5.260524e+01	-2.805507e+01	2.604296e+05	1.036008e+05	2.898951e+02	1.403011e-01	3.208697e+00	0.000000e+00	
0.000000e+00	-6.170886e-01	1.221778e+00	5.352940e+01	-5.315774e+00	2.538581e+05	1.010696e+05	2.881765e+02	1.293758e-01	-3.601258e-01	0.000000e+00	
3.448276e-02	-6.170886e-01	1.244952e+00	5.260524e+01	-2.805508e+01	2.604296e+05	1.036008e+05	2.898951e+02	1.403011e-01	3.208697e+00	0.000000e+00	
0.000000e+00	-6.487342e-01	1.221778e+00	5.352940e+01	-5.315781e+00	2.538581e+05	1.010696e+05	2.881765e+02	1.293758e-01	-3.601257e-01	0.000000e+00	
3.448276e-02	-6.487342e-01	1.244952e+00	5.260524e+01	-2.805509e+01	2.604296e+05	1.036008e+05	2.898951e+02	1.403011e-01	3.208696e+00	0.000000e+00	
0.000000e+00	-6.803797e-01	1.221778e+00	5.352940e+01	-5.315788e+00	2.538581e+05	1.010696e+05	2.881765e+02	1.293758e-01	-3.601256e-01	0.000000e+00	
3.448276e-02	-6.803797e-01	1.244952e+00	5.260524e+01	-2.805509e+01	2.604296e+05	1.036008e+05	2.898951e+02	1.403011e-01	3.208696e+00	0.000000e+00	
0.000000e+00	-7.120253e-01	1.221778e+00	5.352941e+01	-5.315795e+00	2.538581e+05	1.010696e+05	2.881765e+02	1.293758e-01	-3.601255e-01	0.000000e+00	
3.448276e-02	-7.120253e-01	1.244952e+00	5.260525e+01	-2.805510e+01	2.604296e+05	1.036008e+05	2.898951e+02	1.403011e-01	3.208695e+00	0.000000e+00	
0.000000e+00	-7.436709e-01	1.221778e+00	5.352942e+01	-5.315802e+00	2.538581e+05	1.010696e+05	2.881765e+02	1.293758e-01	-3.601254e-01	0.000000e+00	
3.448276e-02	-7.436709e-01	1.244952e+00	5.260526e+01	-2.805511e+01	2.604296e+05	1.036008e+05	2.898951e+02	1.403012e-01	3.208693e+00	0.000000e+00	
0.000000e+00	-7.753165e-01	1.221778e+00	5.352944e+01	-5.315808e+00	2.538581e+05	1.010696e+05	2.881765e+02	1.293759e-01	-3.601255e-01	0.000000e+00	
3.448276e-02	-7.753165e-01	1.244952e+00	5.260527e+01	-2.805512e+01	2.604296e+05	1.036008e+05	2.898951e+02	1.403012e-01	3.208692e+00	0.000000e+00	
0.000000e+00	-8.069620e-01	1.221778e+00	5.352946e+01	-5.315813e+00	2.538581e+05	1.010696e+05	2.881765e+02	1.293759e-01	-3.601259e-01	0.000000e+00	
3.448276e-02	-8.069620e-01	1.244952e+00	5.260529e+01	-2.805513e+01	2.604296e+05	1.036008e+05	2.898951e+02	1.403012e-01	3.208689e+00	0.000000e+00	
0.000000e+00	-8.386076e-01	1.221778e+00	5.352949e+01	-5.315819e+00	2.538581e+05	1.010696e+05	2.881765e+02	1.293760e-01	-3.601264e-01	0.000000e+00	
3.448276e-02	-8.386076e-01	1.244952e+00	5.260531e+01	-2.805514e+01	2.604296e+05	1.036008e+05	2.898951e+02	1.403013e-01	3.208685e+00	0.000000e+00	
0.000000e+00	-8.702532e-01	1.221778e+00	5.352953e+01	-5.315829e+00	2.538581e+05	1.010696e+05	2.881765e+02	1.293761e-01	-3.601272e-01	0.000000e+00	
3.448276e-02	-8.702532e-01	1.244952e+00	5.260534e+01	-2.805517e+01	2.604296e+05	1.036008e+05	2.898951e+02	1.403014e-01	3.208680e+00	0.000000e+00	
0.000000e+00	-9.018987e-01	1.221778e+00	5.352958e+01	-5.315851e+00	2.538581e+05	1.010696e+05	2.881765e+02	1.293762e-01	-3.601281e-01	0.000000e+00	
3.448276e-02	-9.018987e-01	1.244952e+00	5.260537e+01	-2.805520e+01	2.604296e+05	1.036008e+05	2.898951e+02	1.403015e-01	3.208673e+00	0.000000e+00	
0.000000e+00	-9.335443e-01	1.221778e+00	5.352962e+01	-5.315893e+00	2.538581e+05	1.010696e+05	2.881765e+02	1.293764e-01	-3.601301e-01	0.000000e+00	
3.448276e-02	-9.335443e-01	1.244952e+00	5.260538e+01	-2.805526e+01	2.604296e+05	1.036008e+05	2.898951e+02	1.403016e-01	3.208661e+00	0.000000e+00	
0.000000e+00	-9.651899e-01	1.221778e+00	5.352962e+01	-5.315956e+00	2.538581e+05	1.010696e+05	2.881765e+02	1.293764e-01	-3.601318e-01	0.000000e+00	
3.448276e-02	-9.651899e-01	1.244952e+00	5.260536e+01	-2.805534e+01	2.604296e+05	1.036008e+05	2.898951e+02	1.403017e-01	3.208648e+00	0.000000e+00	
0.000000e+00	-9.968354e-01	1.221778e+00	5.352954e+01	-5.316014e+00	2.538581e+05	1.010696e+05	2.881765e+02	1.293762e-01	-3.601340e-01	0.000000e+00	
3.448276e-02	-9.968354e-01	1.244952e+00	5.260527e+01	-2.805542e+01	2.604295e+05	1.036008e+05	2.898951e+02	1.403016e-01	3.208627e+00	0.000000e+00	
0.000000e+00	-1.028481e+00	1.221778e+00	5.352936e+01	-5.316026e+00	2.538581e+05	1.010696e+05	2.881765e+02	1.293758e-01	-3.601264e-01	0.000000e+00	
3.448276e-02	-1.028481e+00	1.244952e+00	5.260512e+01	-2.805549e+01	2.604295e+05	1.036008e+05	2.898951e+02	1.403014e-01	3.208612e+00	0.000000e+00	
0.000000e+00	-1.060127e+00	1.221778e+00	5.352930e+01	-5.315898e+00	2.538582e+05	1.010696e+05	2.881765e+02	1.293756e-01	-3.601098e-01	0.000000e+00	
3.448276e-02	-1.060127e+00	1.244952e+00	5.260505e+01	-2.805548e+01	2.604294e+05	1.036008e+05	2.898951e+02	1.403012e-01	3.208577e+00	0.000000e+00	
0.000000e+00	-1.091772e+00	1.221778e+00	5.352972e+01	-5.315653e+00	2.538583e+05	1.010696e+05	2.881765e+02	1.293764e-01	-3.600583e-01	0.000000e+00	
3.448276e-02	-1.091772e+00	1.244952e+00	5.260524e+01	-2.805557e+01	2.604294e+05	1.036008e+05	2.898950e+02	1.403017e-01	3.208562e+00	0.000000e+00	
0.000000e+00	-1.123418e+00	1.221779e+00	5.353121e+01	-5.315382e+00	2.538583e+05	1.010696e+05	2.881764e+02	1.293799e-01	-3.600514e-01	0.000000e+00	
3.448276e-02	-1.123418e+00	1.244951e+00	5.260582e+01	-2.805571e+01	2.604292e+05	1.036007e+05	2.898950e+02	1.403032e-01	3.208439e+00	0.000000e+00	
0.000000e+00	-1.155063e+00	1.221779e+00	5.353326e+01	-5.316315e+00	2.538584e+05	1.010696e+05	2.881764e+02	1.293851e-01	-3.600433e-01	0.000000e+00	
3.448276e-02	-1.155063e+00	1.244951e+00	5.260569e+01	-2.805697e+01	2.604291e+05	1.036006e+05	2.898949e+02	1.403044e-01	3.208356e+00	0.000000e+00	
0.000000e+00	-1.186709e+00	1.221773e+00	5.353403e+01	-5.319630e+00	2.538577e+05	1.010693e+05	2.881768e+02	1.293882e-01	-3.605016e-01	0.000000e+00	
3.448276e-02	-1.186709e+00	1.244945e+00	5.260279e+01	-2.805865e+01	2.604281e+05	1.036003e+05	2.898951e+02	1.403007e-01	3.207861e+00	0.000000e+00	
0.000000e+00	-1.218354e+00	1.221751e+00	5.352681e+01	-5.327196e+00	2.538543e+05	1.010681e+05	2.881785e+02	1.293747e-01	-3.622384e-01	0.000000e+00	
3.448276e-02	-1.218354e+00	1.244949e+00	5.259704e+01	-2.806484e+01	2.604292e+05	1.036007e+05	2.898956e+02	1.402952e-01	3.208494e+00	0.000000e+00	
6.896552e-02	1.218354e+00	1.254386e+00	5.303013e+01	-4.537701e+01	2.638265e+05	1.047539e+05	2.909172e+02	1.627257e-01	4.834412e+00	0.000000e+00	
6.896552e-02	1.250000e+00	1.254407e+00	5.302334e+01	-4.537212e+01	2.638303e+05	1.047556e+05	2.909171e+02	1.627036e-01	4.836832e+00	0.000000e+00	
6.896552e-02	1.186709e+00	1.254387e+00	5.303400e+01	-4.537683e+01	2.638269e+05	1.047540e+05	2.909173e+02	1.627322e-01	4.834540e+00	0.000000e+00	
6.896552e-02	1.155063e+00	1.254386e+00	5.303623e+01	-4.537733e+01	2.638267e+05	1.047539e+05	2.909172e+02	1.627371e-01	4.834361e+00	0.000000e+00	
6.896552e-02	1.123418e+00	1.254385e+00	5.303711e+01	-4.537770e+01	2.638265e+05	1.047538e+05	2.909170e+02	1.627393e-01	4.834244e+00	0.000000e+00	
6.896552e-02	1.091772e+00	1.254385e+00	5.303736e+01	-4.537786e+01	2.638264e+05	1.047538e+05	2.909169e+02	1.627400e-01	4.834178e+00	0.000000e+00	
6.896552e-02	1.060127e+00	1.254385e+00	5.303739e+01	-4.537788e+01	2.638264e+05	1.047537e+05	2.909169e+02	1.627401e-01	4.834146e+00	0.000000e+00	
6.896552e-02	1.028481e+00	1.254385e+00	5.303741e+01	-4.537786e+01	2.638264e+05	1.047537e+05	2.909169e+02	1.627401e-01	4.834130e+00	0.000000e+00	
6.896552e-02	9.968354e-01	1.254385e+00	5.303745e+01	-4.537784e+01	2.638263e+05	1.047537e+05	2.909169e+02	1.627402e-01	4.834124e+00	0.000000e+00	
6.896552e-02	9.651899e-01	1.254385e+00	5.303748e+01	-4.537786e+01	2.638263e+05	1.047537e+05	2.909169e+02	1.627403e-01	4.834120e+00	0.000000e+00	
6.896552e-02	9.335443e-01	1.254385e+00	5.303748e+01	-4.537789e+01	2.638263e+05	1.047537e+05	2.909169e+02	1.627403e-01	4.834118e+00	0.000000e+00	
6.896552e-02	9.018987e-01	1.254385e+00	5.303747e+01	-4.537792e+01	2.638263e+05	1.047537e+05	2.909169e+02	1.627403e-01	4.834118e+00	0.000000e+00	
6.896552e-02	8.702532e-01	1.254385e+00	5.303744e+01	-4.537794e+01	2.638263e+05	1.047537e+05	2.909170e+02	1.627403e-01	4.834119e+00	0.000000e+00	
6.896552e-02	8.386076e-01	1.254385e+00	5.303742e+01	-4.537795e+01	2.638263e+05	1.047537e+05	2.909170e+02	1.627403e-01	4.834121e+00	0.000000e+00	
6.896552e-02	8.069620e-01	1.254385e+00	5.303741e+01	-4.537797e+01	2.638263e+05	1.047537e+05	2.909170e+02	1.627403e-01	4.834124e+00	0.000000e+00	
6.896552e-02	7.753165e-01	1.254385e+00	5.303739e+01	-4.537797e+01	2.638263e+05	1.047537e+05	2.909170e+02	1.627403e-01	4.834126e+00	0.000000e+00	
6.896552e-02	7.436709e-01	1.254385e+00	5.303738e+01	-4.537798e+01	2.638264e+05	1.047537e+05	2.909170e+02	1.627403e-01	4.834128e+00	0.000000e+00	
6.896552e-02	7.120253e-01	1.254385e+00	5.303738e+01	-4.537798e+01	2.638264e+05	1.047537e+05	2.909170e+02	1.627403e-01	4.834130e+00	0.000000e+00	
6.896552e-02	6.803797e-01	1.254385e+00	5.303737e+01	-4.537798e+01	2.638264e+05	1.047537e+05	2.909170e+02	1.627403e-01	4.834132e+00	0.000000e+00	
6.896552e-02	6.487342e-01	1.254385e+00	5.303737e+01	-4.537798e+01	2.638264e+05	1.047537e+05	2.909170e+02	1.627403e-01	4.834134e+00	0.000000e+00	
6.896552e-02	6.170886e-01	1.254385e+00	5.303736e+01	-4.537798e+01	2.638264e+05	1.047537e+05	2.909170e+02	1.627402e-01	4.834136e+00	0.000000e+00	
6.896552e-02	5.854430e-01	1.254385e+00	5.303736e+01	-4.537797e+01	2.638264e+05	1.047537e+05	2.909170e+02	1.627402e-01	4.834138e+00	0.000000e+00	
6.896552e-02	5.537975e-01	1.254385e+00	5.303736e+01	-4.537797e+01	2.638264e+05	1.047537e+05	2.909170e+02	1.627402e-01	4.834139e+00	0.000000e+00	
6.896552e-02	5.221519e-01	1.254385e+00	5.303736e+01	-4.537796e+01	2.638264e+05	1.047537e+05	2.909170e+02	1.627402e-01	4.834140e+00	0.000000e+00	
6.896552e-02	4.905063e-01	1.254385e+00	5.303736e+01	-4.537796e+01	2.638264e+05	1.047537e+05	2.909170e+02	1.627402e-01	4.834142e+00	0.000000e+00	
6.896552e-02	4.588608e-01	1.254385e+00	5.303736e+01	-4.537795e+01	2.638264e+05	1.047537e+05	2.909170e+02	1.627402e-01	4.834143e+00	0.000000e+00	
6.896552e-02	4.272152e-01	1.254385e+00	5.303736e+01	-4.537795e+01	2.638264e+05	1.047537e+05	2.909170e+02	1.627402e-01	4.834144e+00	0.000000e+00	
6.896552e-02	3.955696e-01	1.254385e+00	5.303736e+01	-4.537794e+01	2.638264e+05	1.047537e+05	2.909170e+02	1.627402e-01	4.834145e+00	0.000000e+00	
6.896552e-02	3.639241e-01	1.254385e+00	5.303736e+01	-4.537793e+01	2.638264e+05	1.047537e+05	2.909170e+02	1.627401e-01	4.834147e+00	0.000000e+00	
6.896552e-02	3.322785e-01	1.254385e+00	5.303735e+01	-4.537793e+01	2.638264e+05	1.047537e+05	2.909170e+02	1.627401e-01	4.834148e+00	0.000000e+00	
6.896552e-02	3.006329e-01	1.254385e+00	5.303735e+01	-4.537792e+01	2.638264e+05	1.047537e+05	2.909170e+02	1.627401e-01	4.834149e+00	0.000000e+00	
6.896552e-02	2.689873e-01	1.254385e+00	5.303735e+01	-4.537791e+01	2.638264e+05	1.047537e+05	2.909170e+02	1.627401e-01	4.834150e+00	0.000000e+00	
6.896552e-02	2.373418e-01	1.254385e+00	5.303734e+01	-4.537791e+01	2.638264e+05	1.047537e+05	2.909170e+02	1.627401e-01	4.834151e+00	0.000000e+00	
6.896552e-02	2.056962e-01	1.254385e+00	5.303734e+01	-4.537790e+01	2.638264e+05	1.047537e+05	2.909170e+02	1.627401e-01	4.834152e+00	0.000000e+00	
6.896552e-02	1.740506e-01	1.254385e+00	5.303733e+01	-4.537790e+01	2.638264e+05	1.047537e+05	2.909170e+02	1.627400e-01	4.834154e+00	0.000000e+00	
6.896552e-02	1.424051e-01	1.254385e+00	5.303732e+01	-4.537790e+01	2.638264e+05	1.047537e+05	2.909170e+02	1.627400e-01	4.834155e+00	0.000000e+00	
6.896552e-02	1.107595e-01	1.254385e+00	5.303731e+01	-4.537789e+01	2.638264e+05	1.047537e+05	2.909170e+02	1.627400e-01	4.834156e+00	0.000000e+00	
6.896552e-02	7.911392e-02	1.254385e+00	5.303731e+01	-4.537789e+01	2.638264e+05	1.047537e+05	2.909170e+02	1.627400e-01	4.834157e+00	0.000000e+00	
6.896552e-02	4.746835e-02	1.254385e+00	5.303730e+01	-4.537789e+01	2.638264e+05	1.047537e+05	2.909170e+02	1.627400e-01	4.834158e+00	0.000000e+00	
6.896552e-02	1.582278e-02	1.254385e+00	5.303729e+01	-4.537789e+01	2.638264e+05	1.047537e+05	2.909170e+02	1.627399e-01	4.834160e+00	0.000000e+00	
6.896552e-02	-1.582278e-02	1.254385e+00	5.303728e+01	-4.537788e+01	2.638264e+05	1.047537e+05	2.909170e+02	1.627399e-01	4.834161e+00	0.000000e+00	
6.896552e-02	-4.746835e-02	1.254385e+00	5.303727e+01	-4.537788e+01	2.638264e+05	1.047538e+05	2.909170e+02	1.627399e-01	4.834162e+00	0.000000e+00	
6.896552e-02	-7.911392e-02	1.254385e+00	5.303726e+01	-4.537788e+01	2.638264e+05	1.047538e+05	2.909170e+02	1.627399e-01	4.834163e+00	0.000000e+00	
6.896552e-02	-1.107595e-01	1.254385e+00	5.303724e+01	-4.537789e+01	2.638264e+05	1.047538e+05	2.909170e+02	1.627399e-01	4.834165e+00	0.000000e+00	
6.896552e-02	-1.424051e-01	1.254385e+00	5.303723e+01	-4.537789e+01	2.638264e+05	1.047538e+05	2.909170e+02	1.627398e-01	4.834166e+00	0.000000e+00	