TITLE = "Visualization of the volumetric solution"
VARIABLES = "x","y","Density","Momentum_x","Momentum_y","Energy","Pressure","Temperature","Mach","C<sub>p</sub>","Roe_Dissipation"
ZONE NODES= 3200, ELEMENTS= 3081, DATAPACKING=POINT, ZONETYPE=FEQUADRILATERAL
-2.000000e+00	1.250000e+00	1.221287e+00	5.291123e+01	1.333515e-06	2.533586e+05	1.008850e+05	2.877657e+02	1.273977e-01	-6.203860e-01	0.000000e+00	
-2.000000e+00	1.218354e+00	1.221287e+00	5.291192e+01	-3.611219e-04	2.533585e+05	1.008849e+05	2.877657e+02	1.273994e-01	-6.204498e-01	0.000000e+00	
-1.948718e+00	1.218354e+00	1.221281e+00	5.291206e+01	-4.332446e-04	2.533570e+05	1.008843e+05	2.877652e+02	1.274004e-01	-6.213146e-01	0.000000e+00	
-1.948718e+00	1.250000e+00	1.221282e+00	5.291095e+01	2.404638e-06	2.533570e+05	1.008843e+05	2.877652e+02	1.273978e-01	-6.212747e-01	0.000000e+00	
-2.000000e+00	1.186709e+00	1.221287e+00	5.291232e+01	-3.053623e-04	2.533585e+05	1.008849e+05	2.877656e+02	1.274004e-01	-6.204737e-01	0.000000e+00	
-1.948718e+00	1.186709e+00	1.221281e+00	5.291282e+01	-4.227111e-04	2.533571e+05	1.008843e+05	2.877652e+02	1.274023e-01	-6.213044e-01	0.000000e+00	
-2.000000e+00	1.155063e+00	1.221287e+00	5.291250e+01	-1.718566e-04	2.533585e+05	1.008849e+05	2.877656e+02	1.274009e-01	-6.204936e-01	0.000000e+00	
-1.948718e+00	1.155063e+00	1.221281e+00	5.291307e+01	-3.301960e-04	2.533570e+05	1.008843e+05	2.877652e+02	1.274029e-01	-6.213186e-01	0.000000e+00	
-2.000000e+00	1.123418e+00	1.221287e+00	5.291257e+01	-6.675815e-05	2.533585e+05	1.008849e+05	2.877656e+02	1.274011e-01	-6.205029e-01	0.000000e+00	
-1.948718e+00	1.123418e+00	1.221281e+00	5.291310e+01	-1.996941e-04	2.533570e+05	1.008843e+05	2.877652e+02	1.274030e-01	-6.213204e-01	0.000000e+00	
-2.000000e+00	1.091772e+00	1.221286e+00	5.291264e+01	-1.815664e-05	2.533585e+05	1.008849e+05	2.877656e+02	1.274012e-01	-6.205087e-01	0.000000e+00	
-1.948718e+00	1.091772e+00	1.221281e+00	5.291310e+01	-1.235093e-04	2.533570e+05	1.008843e+05	2.877652e+02	1.274030e-01	-6.213268e-01	0.000000e+00	
-2.000000e+00	1.060127e+00	1.221286e+00	5.291270e+01	-3.464966e-07	2.533584e+05	1.008849e+05	2.877656e+02	1.274014e-01	-6.205115e-01	0.000000e+00	
-1.948718e+00	1.060127e+00	1.221281e+00	5.291312e+01	-7.488605e-05	2.533570e+05	1.008843e+05	2.877652e+02	1.274030e-01	-6.213294e-01	0.000000e+00	
-2.000000e+00	1.028481e+00	1.221286e+00	5.291274e+01	3.547828e-06	2.533584e+05	1.008849e+05	2.877656e+02	1.274015e-01	-6.205133e-01	0.000000e+00	
-1.948718e+00	1.028481e+00	1.221281e+00	5.291314e+01	-4.991727e-05	2.533570e+05	1.008843e+05	2.877652e+02	1.274031e-01	-6.213327e-01	0.000000e+00	
-2.000000e+00	9.968354e-01	1.221286e+00	5.291277e+01	4.085008e-06	2.533584e+05	1.008849e+05	2.877656e+02	1.274015e-01	-6.205142e-01	0.000000e+00	
-1.948718e+00	9.968354e-01	1.221281e+00	5.291316e+01	-3.243953e-05	2.533570e+05	1.008843e+05	2.877652e+02	1.274031e-01	-6.213345e-01	0.000000e+00	
-2.000000e+00	9.651899e-01	1.221286e+00	5.291278e+01	3.475579e-06	2.533584e+05	1.008849e+05	2.877656e+02	1.274016e-01	-6.205147e-01	0.000000e+00	
-1.948718e+00	9.651899e-01	1.221281e+00	5.291317e+01	-2.136566e-05	2.533570e+05	1.008843e+05	2.877652e+02	1.274031e-01	-6.213362e-01	0.000000e+00	
-2.000000e+00	9.335443e-01	1.221286e+00	5.291279e+01	2.914782e-06	2.533584e+05	1.008849e+05	2.877656e+02	1.274016e-01	-6.205149e-01	0.000000e+00	
-1.948718e+00	9.335443e-01	1.221281e+00	5.291318e+01	-1.278334e-05	2.533570e+05	1.008843e+05	2.877652e+02	1.274032e-01	-6.213372e-01	0.000000e+00	
-2.000000e+00	9.018987e-01	1.221286e+00	5.291279e+01	2.340133e-06	2.533584e+05	1.008849e+05	2.877656e+02	1.274016e-01	-6.205149e-01	0.000000e+00	
-1.948718e+00	9.018987e-01	1.221281e+00	5.291318e+01	-6.812303e-06	2.533570e+05	1.008843e+05	2.877652e+02	1.274032e-01	-6.213380e-01	0.000000e+00	
-2.000000e+00	8.702532e-01	1.221286e+00	5.291279e+01	1.918511e-06	2.533584e+05	1.008849e+05	2.877656e+02	1.274016e-01	-6.205148e-01	0.000000e+00	
-1.948718e+00	8.702532e-01	1.221281e+00	5.291318e+01	-2.181021e-06	2.533570e+05	1.008843e+05	2.877652e+02	1.274032e-01	-6.213385e-01	0.000000e+00	
-2.000000e+00	8.386076e-01	1.221286e+00	5.291279e+01	1.532934e-06	2.533584e+05	1.008849e+05	2.877656e+02	1.274016e-01	-6.205146e-01	0.000000e+00	
-1.948718e+00	8.386076e-01	1.221281e+00	5.291318e+01	1.079747e-06	2.533570e+05	1.008843e+05	2.877652e+02	1.274032e-01	-6.213389e-01	0.000000e+00	
-2.000000e+00	8.069620e-01	1.221286e+00	5.291278e+01	1.212546e-06	2.533584e+05	1.008849e+05	2.877656e+02	1.274016e-01	-6.205143e-01	0.000000e+00	
-1.948718e+00	8.069620e-01	1.221281e+00	5.291317e+01	3.466597e-06	2.533570e+05	1.008843e+05	2.877652e+02	1.274032e-01	-6.213390e-01	0.000000e+00	
-2.000000e+00	7.753165e-01	1.221286e+00	5.291278e+01	9.264942e-07	2.533584e+05	1.008849e+05	2.877656e+02	1.274016e-01	-6.205140e-01	0.000000e+00	
-1.948718e+00	7.753165e-01	1.221281e+00	5.291317e+01	5.050758e-06	2.533570e+05	1.008843e+05	2.877652e+02	1.274031e-01	-6.213391e-01	0.000000e+00	
-2.000000e+00	7.436709e-01	1.221286e+00	5.291277e+01	7.033448e-07	2.533584e+05	1.008849e+05	2.877656e+02	1.274015e-01	-6.205137e-01	0.000000e+00	
-1.948718e+00	7.436709e-01	1.221281e+00	5.291316e+01	6.111584e-06	2.533570e+05	1.008843e+05	2.877652e+02	1.274031e-01	-6.213391e-01	0.000000e+00	
-2.000000e+00	7.120253e-01	1.221286e+00	5.291277e+01	5.335731e-07	2.533584e+05	1.008849e+05	2.877656e+02	1.274015e-01	-6.205134e-01	0.000000e+00	
-1.948718e+00	7.120253e-01	1.221281e+00	5.291316e+01	6.747882e-06	2.533570e+05	1.008843e+05	2.877652e+02	1.274031e-01	-6.213391e-01	0.000000e+00	
-2.000000e+00	6.803797e-01	1.221286e+00	5.291276e+01	4.167014e-07	2.533584e+05	1.008849e+05	2.877656e+02	1.274015e-01	-6.205131e-01	0.000000e+00	
-1.948718e+00	6.803797e-01	1.221281e+00	5.291315e+01	7.105861e-06	2.533570e+05	1.008843e+05	2.877652e+02	1.274031e-01	-6.213389e-01	0.000000e+00	
-2.000000e+00	6.487342e-01	1.221286e+00	5.291276e+01	3.357098e-07	2.533584e+05	1.008849e+05	2.877656e+02	1.274015e-01	-6.205128e-01	0.000000e+00	
-1.948718e+00	6.487342e-01	1.221281e+00	5.291315e+01	7.242400e-06	2.533570e+05	1.008843e+05	2.877652e+02	1.274031e-01	-6.213388e-01	0.000000e+00	
-2.000000e+00	6.170886e-01	1.221286e+00	5.291275e+01	2.819721e-07	2.533584e+05	1.008849e+05	2.877656e+02	1.274015e-01	-6.205125e-01	0.000000e+00	
-1.948718e+00	6.170886e-01	1.221281e+00	5.291314e+01	7.225703e-06	2.533570e+05	1.008843e+05	2.877652e+02	1.274031e-01	-6.213387e-01	0.000000e+00	
-2.000000e+00	5.854430e-01	1.221286e+00	5.291275e+01	2.455811e-07	2.533584e+05	1.008849e+05	2.877656e+02	1.274015e-01	-6.205123e-01	0.000000e+00	
-1.948718e+00	5.854430e-01	1.221281e+00	5.291314e+01	7.088558e-06	2.533570e+05	1.008843e+05	2.877652e+02	1.274031e-01	-6.213385e-01	0.000000e+00	
-2.000000e+00	5.537975e-01	1.221286e+00	5.291275e+01	2.225058e-07	2.533584e+05	1.008849e+05	2.877656e+02	1.274015e-01	-6.205120e-01	0.000000e+00	
-1.948718e+00	5.537975e-01	1.221281e+00	5.291313e+01	6.868122e-06	2.533570e+05	1.008843e+05	2.877652e+02	1.274031e-01	-6.213383e-01	0.000000e+00	
-2.000000e+00	5.221519e-01	1.221286e+00	5.291274e+01	2.086978e-07	2.533584e+05	1.008849e+05	2.877656e+02	1.274015e-01	-6.205117e-01	0.000000e+00	
-1.948718e+00	5.221519e-01	1.221281e+00	5.291313e+01	6.586178e-06	2.533570e+05	1.008843e+05	2.877652e+02	1.274030e-01	-6.213382e-01	0.000000e+00	
-2.000000e+00	4.905063e-01	1.221286e+00	5.291274e+01	2.021810e-07	2.533584e+05	1.008849e+05	2.877656e+02	1.274015e-01	-6.205115e-01	0.000000e+00	
-1.948718e+00	4.905063e-01	1.221281e+00	5.291313e+01	6.264125e-06	2.533570e+05	1.008843e+05	2.877652e+02	1.274030e-01	-6.213380e-01	0.000000e+00	
-2.000000e+00	4.588608e-01	1.221286e+00	5.291273e+01	2.007715e-07	2.533584e+05	1.008849e+05	2.877656e+02	1.274014e-01	-6.205113e-01	0.000000e+00	
-1.948718e+00	4.588608e-01	1.221281e+00	5.291312e+01	5.915231e-06	2.533570e+05	1.008843e+05	2.877652e+02	1.274030e-01	-6.213378e-01	0.000000e+00	
-2.000000e+00	4.272152e-01	1.221286e+00	5.291273e+01	2.031468e-07	2.533585e+05	1.008849e+05	2.877656e+02	1.274014e-01	-6.205111e-01	0.000000e+00	
-1.948718e+00	4.272152e-01	1.221281e+00	5.291312e+01	5.551148e-06	2.533570e+05	1.008843e+05	2.877652e+02	1.274030e-01	-6.213377e-01	0.000000e+00	
-2.000000e+00	3.955696e-01	1.221286e+00	5.291273e+01	2.080454e-07	2.533585e+05	1.008849e+05	2.877656e+02	1.274014e-01	-6.205109e-01	0.000000e+00	
-1.948718e+00	3.955696e-01	1.221281e+00	5.291312e+01	5.179253e-06	2.533570e+05	1.008843e+05	2.877652e+02	1.274030e-01	-6.213375e-01	0.000000e+00	
-2.000000e+00	3.639241e-01	1.221286e+00	5.291272e+01	2.146960e-07	2.533585e+05	1.008849e+05	2.877656e+02	1.274014e-01	-6.205108e-01	0.000000e+00	
-1.948718e+00	3.639241e-01	1.221281e+00	5.291311e+01	4.805574e-06	2.533570e+05	1.008843e+05	2.877652e+02	1.274030e-01	-6.213374e-01	0.000000e+00	
-2.000000e+00	3.322785e-01	1.221286e+00	5.291272e+01	2.224482e-07	2.533585e+05	1.008849e+05	2.877656e+02	1.274014e-01	-6.205106e-01	0.000000e+00	
-1.948718e+00	3.322785e-01	1.221281e+00	5.291311e+01	4.433880e-06	2.533570e+05	1.008843e+05	2.877652e+02	1.274030e-01	-6.213373e-01	0.000000e+00	
-2.000000e+00	3.006329e-01	1.221286e+00	5.291272e+01	2.309054e-07	2.533585e+05	1.008849e+05	2.877656e+02	1.274014e-01	-6.205105e-01	0.000000e+00	
-1.948718e+00	3.006329e-01	1.221281e+00	5.291311e+01	4.066967e-06	2.533570e+05	1.008843e+05	2.877652e+02	1.274030e-01	-6.213372e-01	0.000000e+00	
-2.000000e+00	2.689873e-01	1.221286e+00	5.291272e+01	2.397526e-07	2.533585e+05	1.008849e+05	2.877656e+02	1.274014e-01	-6.205104e-01	0.000000e+00	
-1.948718e+00	2.689873e-01	1.221281e+00	5.291311e+01	3.706373e-06	2.533570e+05	1.008843e+05	2.877652e+02	1.274030e-01	-6.213370e-01	0.000000e+00	
-2.000000e+00	2.373418e-01	1.221286e+00	5.291272e+01	2.488009e-07	2.533585e+05	1.008849e+05	2.877656e+02	1.274014e-01	-6.205103e-01	0.000000e+00	
-1.948718e+00	2.373418e-01	1.221281e+00	5.291310e+01	3.352972e-06	2.533570e+05	1.008843e+05	2.877652e+02	1.274030e-01	-6.213370e-01	0.000000e+00	
-2.000000e+00	2.056962e-01	1.221286e+00	5.291271e+01	2.579112e-07	2.533585e+05	1.008849e+05	2.877656e+02	1.274014e-01	-6.205102e-01	0.000000e+00	
-1.948718e+00	2.056962e-01	1.221281e+00	5.291310e+01	3.006914e-06	2.533570e+05	1.008843e+05	2.877652e+02	1.274030e-01	-6.213369e-01	0.000000e+00	
-2.000000e+00	1.740506e-01	1.221286e+00	5.291271e+01	2.670093e-07	2.533585e+05	1.008849e+05	2.877656e+02	1.274014e-01	-6.205101e-01	0.000000e+00	
-1.948718e+00	1.740506e-01	1.221281e+00	5.291310e+01	2.667924e-06	2.533570e+05	1.008843e+05	2.877652e+02	1.274030e-01	-6.213368e-01	0.000000e+00	
-2.000000e+00	1.424051e-01	1.221286e+00	5.291271e+01	2.760533e-07	2.533585e+05	1.008849e+05	2.877656e+02	1.274014e-01	-6.205101e-01	0.000000e+00	
-1.948718e+00	1.424051e-01	1.221281e+00	5.291310e+01	2.335311e-06	2.533570e+05	1.008843e+05	2.877652e+02	1.274030e-01	-6.213368e-01	0.000000e+00	
-2.000000e+00	1.107595e-01	1.221286e+00	5.291271e+01	2.850353e-07	2.533585e+05	1.008849e+05	2.877656e+02	1.274014e-01	-6.205100e-01	0.000000e+00	
-1.948718e+00	1.107595e-01	1.221281e+00	5.291310e+01	2.008125e-06	2.533570e+05	1.008843e+05	2.877652e+02	1.274030e-01	-6.213367e-01	0.000000e+00	
-2.000000e+00	7.911392e-02	1.221286e+00	5.291271e+01	2.939655e-07	2.533585e+05	1.008849e+05	2.877656e+02	1.274014e-01	-6.205100e-01	0.000000e+00	
-1.948718e+00	7.911392e-02	1.221281e+00	5.291310e+01	1.685190e-06	2.533570e+05	1.008843e+05	2.877652e+02	1.274030e-01	-6.213367e-01	0.000000e+00	
-2.000000e+00	4.746835e-02	1.221286e+00	5.291271e+01	3.028715e-07	2.533585e+05	1.008849e+05	2.877656e+02	1.274014e-01	-6.205099e-01	0.000000e+00	
-1.948718e+00	4.746835e-02	1.221281e+00	5.291310e+01	1.365188e-06	2.533570e+05	1.008843e+05	2.877652e+02	1.274030e-01	-6.213367e-01	0.000000e+00	
-2.000000e+00	1.582278e-02	1.221286e+00	5.291271e+01	3.117894e-07	2.533585e+05	1.008849e+05	2.877656e+02	1.274014e-01	-6.205099e-01	0.000000e+00	
-1.948718e+00	1.582278e-02	1.221281e+00	5.291310e+01	1.046690e-06	2.533570e+05	1.008843e+05	2.877652e+02	1.274030e-01	-6.213366e-01	0.000000e+00	
-2.000000e+00	-1.582278e-02	1.221286e+00	5.291271e+01	3.207622e-07	2.533585e+05	1.008849e+05	2.877656e+02	1.274014e-01	-6.205099e-01	0.000000e+00	
-1.948718e+00	-1.582278e-02	1.221281e+00	5.291310e+01	7.282159e-07	2.533570e+05	1.008843e+05	2.877652e+02	1.274030e-01	-6.213366e-01	0.000000e+00	
-2.000000e+00	-4.746835e-02	1.221286e+00	5.291271e+01	3.298334e-07	2.533585e+05	1.008849e+05	2.877656e+02	1.274014e-01	-6.205099e-01	0.000000e+00	
-1.948718e+00	-4.746835e-02	1.221281e+00	5.291310e+01	4.082622e-07	2.533570e+05	1.008843e+05	2.877652e+02	1.274030e-01	-6.213367e-01	0.000000e+00	
-2.000000e+00	-7.911392e-02	1.221286e+00	5.291271e+01	3.390475e-07	2.533585e+05	1.008849e+05	2.877656e+02	1.274014e-01	-6.205100e-01	0.000000e+00	
-1.948718e+00	-7.911392e-02	1.221281e+00	5.291310e+01	8.534925e-08	2.533570e+05	1.008843e+05	2.877652e+02	1.274030e-01	-6.213367e-01	0.000000e+00	
-2.000000e+00	-1.107595e-01	1.221286e+00	5.291271e+01	3.484422e-07	2.533585e+05	1.008849e+05	2.877656e+02	1.274014e-01	-6.205100e-01	0.000000e+00	
-1.948718e+00	-1.107595e-01	1.221281e+00	5.291310e+01	-2.419497e-07	2.533570e+05	1.008843e+05	2.877652e+02	1.274030e-01	-6.213367e-01	0.000000e+00	
-2.000000e+00	-1.424051e-01	1.221286e+00	5.291271e+01	3.580475e-07	2.533585e+05	1.008849e+05	2.877656e+02	1.274014e-01	-6.205101e-01	0.000000e+00	
-1.948718e+00	-1.424051e-01	1.221281e+00	5.291310e+01	-5.749533e-07	2.533570e+05	1.008843e+05	2.877652e+02	1.274030e-01	-6.213368e-01	0.000000e+00	
-2.000000e+00	-1.740506e-01	1.221286e+00	5.291271e+01	3.678770e-07	2.533585e+05	1.008849e+05	2.877656e+02	1.274014e-01	-6.205101e-01	0.000000e+00	
-1.948718e+00	-1.740506e-01	1.221281e+00	5.291310e+01	-9.148414e-07	2.533570e+05	1.008843e+05	2.877652e+02	1.274030e-01	-6.213368e-01	0.000000e+00	
-2.000000e+00	-2.056962e-01	1.221286e+00	5.291271e+01	3.779271e-07	2.533585e+05	1.008849e+05	2.877656e+02	1.274014e-01	-6.205102e-01	0.000000e+00	
-1.948718e+00	-2.056962e-01	1.221281e+00	5.291310e+01	-1.262569e-06	2.533570e+05	1.008843e+05	2.877652e+02	1.274030e-01	-6.213369e-01	0.000000e+00	
-2.000000e+00	-2.373418e-01	1.221286e+00	5.291272e+01	3.881597e-07	2.533585e+05	1.008849e+05	2.877656e+02	1.274014e-01	-6.205103e-01	0.000000e+00	
-1.948718e+00	-2.373418e-01	1.221281e+00	5.291310e+01	-1.618840e-06	2.533570e+05	1.008843e+05	2.877652e+02	1.274030e-01	-6.213370e-01	0.000000e+00	
-2.000000e+00	-2.689873e-01	1.221286e+00	5.291272e+01	3.985077e-07	2.533585e+05	1.008849e+05	2.877656e+02	1.274014e-01	-6.205104e-01	0.000000e+00	
-1.948718e+00	-2.689873e-01	1.221281e+00	5.291311e+01	-1.983949e-06	2.533570e+05	1.008843e+05	2.877652e+02	1.274030e-01	-6.213371e-01	0.000000e+00	
-2.000000e+00	-3.006329e-01	1.221286e+00	5.291272e+01	4.088384e-07	2.533585e+05	1.008849e+05	2.877656e+02	1.274014e-01	-6.205105e-01	0.000000e+00	
-1.948718e+00	-3.006329e-01	1.221281e+00	5.291311e+01	-2.357776e-06	2.533570e+05	1.008843e+05	2.877652e+02	1.274030e-01	-6.213372e-01	0.000000e+00	
-2.000000e+00	-3.322785e-01	1.221286e+00	5.291272e+01	4.189720e-07	2.533585e+05	1.008849e+05	2.877656e+02	1.274014e-01	-6.205106e-01	0.000000e+00	
-1.948718e+00	-3.322785e-01	1.221281e+00	5.291311e+01	-2.739487e-06	2.533570e+05	1.008843e+05	2.877652e+02	1.274030e-01	-6.213373e-01	0.000000e+00	
-2.000000e+00	-3.639241e-01	1.221286e+00	5.291272e+01	4.286013e-07	2.533585e+05	1.008849e+05	2.877656e+02	1.274014e-01	-6.205108e-01	0.000000e+00	
-1.948718e+00	-3.639241e-01	1.221281e+00	5.291311e+01	-3.127609e-06	2.533570e+05	1.008843e+05	2.877652e+02	1.274030e-01	-6.213374e-01	0.000000e+00	
-2.000000e+00	-3.955696e-01	1.221286e+00	5.291273e+01	4.373436e-07	2.533585e+05	1.008849e+05	2.877656e+02	1.274014e-01	-6.205109e-01	0.000000e+00	
-1.948718e+00	-3.955696e-01	1.221281e+00	5.291312e+01	-3.519410e-06	2.533570e+05	1.008843e+05	2.877652e+02	1.274030e-01	-6.213376e-01	0.000000e+00	
-2.000000e+00	-4.272152e-01	1.221286e+00	5.291273e+01	4.445553e-07	2.533585e+05	1.008849e+05	2.877656e+02	1.274014e-01	-6.205111e-01	0.000000e+00	
-1.948718e+00	-4.272152e-01	1.221281e+00	5.291312e+01	-3.911247e-06	2.533570e+05	1.008843e+05	2.877652e+02	1.274030e-01	-6.213377e-01	0.000000e+00	
-2.000000e+00	-4.588608e-01	1.221286e+00	5.291273e+01	4.494858e-07	2.533584e+05	1.008849e+05	2.877656e+02	1.274014e-01	-6.205113e-01	0.000000e+00	
-1.948718e+00	-4.588608e-01	1.221281e+00	5.291312e+01	-4.297184e-06	2.533570e+05	1.008843e+05	2.877652e+02	1.274030e-01	-6.213379e-01	0.000000e+00	
-2.000000e+00	-4.905063e-01	1.221286e+00	5.291274e+01	4.508760e-07	2.533584e+05	1.008849e+05	2.877656e+02	1.274015e-01	-6.205115e-01	0.000000e+00	
-1.948718e+00	-4.905063e-01	1.221281e+00	5.291313e+01	-4.670061e-06	2.533570e+05	1.008843e+05	2.877652e+02	1.274030e-01	-6.213381e-01	0.000000e+00	
-2.000000e+00	-5.221519e-01	1.221286e+00	5.291274e+01	4.474366e-07	2.533584e+05	1.008849e+05	2.877656e+02	1.274015e-01	-6.205118e-01	0.000000e+00	
-1.948718e+00	-5.221519e-01	1.221281e+00	5.291313e+01	-5.018340e-06	2.533570e+05	1.008843e+05	2.877652e+02	1.274030e-01	-6.213382e-01	0.000000e+00	
-2.000000e+00	-5.537975e-01	1.221286e+00	5.291275e+01	4.369695e-07	2.533584e+05	1.008849e+05	2.877656e+02	1.274015e-01	-6.205120e-01	0.000000e+00	
-1.948718e+00	-5.537975e-01	1.221281e+00	5.291313e+01	-5.329130e-06	2.533570e+05	1.008843e+05	2.877652e+02	1.274031e-01	-6.213384e-01	0.000000e+00	
-2.000000e+00	-5.854430e-01	1.221286e+00	5.291275e+01	4.175572e-07	2.533584e+05	1.008849e+05	2.877656e+02	1.274015e-01	-6.205123e-01	0.000000e+00	
-1.948718e+00	-5.854430e-01	1.221281e+00	5.291314e+01	-5.581109e-06	2.533570e+05	1.008843e+05	2.877652e+02	1.274031e-01	-6.213386e-01	0.000000e+00	
-2.000000e+00	-6.170886e-01	1.221286e+00	5.291275e+01	3.850943e-07	2.533584e+05	1.008849e+05	2.877656e+02	1.274015e-01	-6.205126e-01	0.000000e+00	
-1.948718e+00	-6.170886e-01	1.221281e+00	5.291314e+01	-5.753162e-06	2.533570e+05	1.008843e+05	2.877652e+02	1.274031e-01	-6.213388e-01	0.000000e+00	
-2.000000e+00	-6.487342e-01	1.221286e+00	5.291276e+01	3.356779e-07	2.533584e+05	1.008849e+05	2.877656e+02	1.274015e-01	-6.205129e-01	0.000000e+00	
-1.948718e+00	-6.487342e-01	1.221281e+00	5.291315e+01	-5.807993e-06	2.533570e+05	1.008843e+05	2.877652e+02	1.274031e-01	-6.213389e-01	0.000000e+00	
-2.000000e+00	-6.803797e-01	1.221286e+00	5.291277e+01	2.592484e-07	2.533584e+05	1.008849e+05	2.877656e+02	1.274015e-01	-6.205132e-01	0.000000e+00	
-1.948718e+00	-6.803797e-01	1.221281e+00	5.291315e+01	-5.714053e-06	2.533570e+05	1.008843e+05	2.877652e+02	1.274031e-01	-6.213391e-01	0.000000e+00	
-2.000000e+00	-7.120253e-01	1.221286e+00	5.291277e+01	1.474852e-07	2.533584e+05	1.008849e+05	2.877656e+02	1.274015e-01	-6.205135e-01	0.000000e+00	
-1.948718e+00	-7.120253e-01	1.221281e+00	5.291316e+01	-5.402326e-06	2.533570e+05	1.008843e+05	2.877652e+02	1.274031e-01	-6.213392e-01	0.000000e+00	
-2.000000e+00	-7.436709e-01	1.221286e+00	5.291278e+01	-1.703006e-08	2.533584e+05	1.008849e+05	2.877656e+02	1.274015e-01	-6.205138e-01	0.000000e+00	
-1.948718e+00	-7.436709e-01	1.221281e+00	5.291316e+01	-4.818424e-06	2.533570e+05	1.008843e+05	2.877652e+02	1.274031e-01	-6.213393e-01	0.000000e+00	
-2.000000e+00	-7.753165e-01	1.221286e+00	5.291278e+01	-2.340926e-07	2.533584e+05	1.008849e+05	2.877656e+02	1.274016e-01	-6.205142e-01	0.000000e+00	
-1.948718e+00	-7.753165e-01	1.221281e+00	5.291317e+01	-3.813536e-06	2.533570e+05	1.008843e+05	2.877652e+02	1.274031e-01	-6.213393e-01	0.000000e+00	
-2.000000e+00	-8.069620e-01	1.221286e+00	5.291279e+01	-5.142809e-07	2.533584e+05	1.008849e+05	2.877656e+02	1.274016e-01	-6.205145e-01	0.000000e+00	
-1.948718e+00	-8.069620e-01	1.221281e+00	5.291317e+01	-2.294175e-06	2.533570e+05	1.008843e+05	2.877652e+02	1.274032e-01	-6.213393e-01	0.000000e+00	
-2.000000e+00	-8.386076e-01	1.221286e+00	5.291279e+01	-8.273591e-07	2.533584e+05	1.008849e+05	2.877656e+02	1.274016e-01	-6.205147e-01	0.000000e+00	
-1.948718e+00	-8.386076e-01	1.221281e+00	5.291318e+01	2.640349e-08	2.533570e+05	1.008843e+05	2.877652e+02	1.274032e-01	-6.213391e-01	0.000000e+00	
-2.000000e+00	-8.702532e-01	1.221286e+00	5.291279e+01	-1.206437e-06	2.533584e+05	1.008849e+05	2.877656e+02	1.274016e-01	-6.205150e-01	0.000000e+00	
-1.948718e+00	-8.702532e-01	1.221281e+00	5.291318e+01	3.208144e-06	2.533570e+05	1.008843e+05	2.877652e+02	1.274032e-01	-6.213388e-01	0.000000e+00	
-2.000000e+00	-9.018987e-01	1.221286e+00	5.291279e+01	-1.617766e-06	2.533584e+05	1.008849e+05	2.877656e+02	1.274016e-01	-6.205151e-01	0.000000e+00	
-1.948718e+00	-9.018987e-01	1.221281e+00	5.291318e+01	7.767363e-06	2.533570e+05	1.008843e+05	2.877652e+02	1.274032e-01	-6.213384e-01	0.000000e+00	
-2.000000e+00	-9.335443e-01	1.221286e+00	5.291279e+01	-2.183159e-06	2.533584e+05	1.008849e+05	2.877656e+02	1.274016e-01	-6.205151e-01	0.000000e+00	
-1.948718e+00	-9.335443e-01	1.221281e+00	5.291318e+01	1.364844e-05	2.533570e+05	1.008843e+05	2.877652e+02	1.274032e-01	-6.213375e-01	0.000000e+00	
-2.000000e+00	-9.651899e-01	1.221286e+00	5.291278e+01	-2.725455e-06	2.533584e+05	1.008849e+05	2.877656e+02	1.274016e-01	-6.205150e-01	0.000000e+00	
-1.948718e+00	-9.651899e-01	1.221281e+00	5.291318e+01	2.217007e-05	2.533570e+05	1.008843e+05	2.877652e+02	1.274032e-01	-6.213366e-01	0.000000e+00	
-2.000000e+00	-9.968354e-01	1.221286e+00	5.291277e+01	-3.319538e-06	2.533584e+05	1.008849e+05	2.877656e+02	1.274015e-01	-6.205145e-01	0.000000e+00	
-1.948718e+00	-9.968354e-01	1.221281e+00	5.291317e+01	3.315661e-05	2.533570e+05	1.008843e+05	2.877652e+02	1.274031e-01	-6.213349e-01	0.000000e+00	
-2.000000e+00	-1.028481e+00	1.221286e+00	5.291275e+01	-2.747603e-06	2.533584e+05	1.008849e+05	2.877656e+02	1.274015e-01	-6.205137e-01	0.000000e+00	
-1.948718e+00	-1.028481e+00	1.221281e+00	5.291315e+01	5.063064e-05	2.533570e+05	1.008843e+05	2.877652e+02	1.274031e-01	-6.213332e-01	0.000000e+00	
-2.000000e+00	-1.060127e+00	1.221286e+00	5.291271e+01	1.183717e-06	2.533584e+05	1.008849e+05	2.877656e+02	1.274014e-01	-6.205119e-01	0.000000e+00	
-1.948718e+00	-1.060127e+00	1.221281e+00	5.291313e+01	7.557273e-05	2.533570e+05	1.008843e+05	2.877652e+02	1.274030e-01	-6.213299e-01	0.000000e+00	
-2.000000e+00	-1.091772e+00	1.221286e+00	5.291265e+01	1.910237e-05	2.533585e+05	1.008849e+05	2.877656e+02	1.274012e-01	-6.205092e-01	0.000000e+00	
-1.948718e+00	-1.091772e+00	1.221281e+00	5.291311e+01	1.244069e-04	2.533570e+05	1.008843e+05	2.877652e+02	1.274030e-01	-6.213273e-01	0.000000e+00	
-2.000000e+00	-1.123418e+00	1.221287e+00	5.291258e+01	6.789793e-05	2.533585e+05	1.008849e+05	2.877656e+02	1.274011e-01	-6.205034e-01	0.000000e+00	
-1.948718e+00	-1.123418e+00	1.221281e+00	5.291311e+01	2.008507e-04	2.533570e+05	1.008843e+05	2.877652e+02	1.274030e-01	-6.213208e-01	0.000000e+00	
-2.000000e+00	-1.155063e+00	1.221287e+00	5.291250e+01	1.734049e-04	2.533585e+05	1.008849e+05	2.877656e+02	1.274009e-01	-6.204942e-01	0.000000e+00	
-1.948718e+00	-1.155063e+00	1.221281e+00	5.291308e+01	3.321378e-04	2.533570e+05	1.008843e+05	2.877652e+02	1.274029e-01	-6.213191e-01	0.000000e+00	
-2.000000e+00	-1.186709e+00	1.221287e+00	5.291233e+01	3.073567e-04	2.533585e+05	1.008849e+05	2.877656e+02	1.274004e-01	-6.204743e-01	0.000000e+00	
-1.948718e+00	-1.186709e+00	1.221281e+00	5.291283e+01	4.254390e-04	2.533571e+05	1.008843e+05	2.877652e+02	1.274023e-01	-6.213049e-01	0.000000e+00	
-2.000000e+00	-1.218354e+00	1.221287e+00	5.291192e+01	3.640891e-04	2.533585e+05	1.008849e+05	2.877657e+02	1.273994e-01	-6.204505e-01	0.000000e+00	
-1.948718e+00	-1.218354e+00	1.221281e+00	5.291206e+01	4.369700e-04	2.533570e+05	1.008843e+05	2.877652e+02	1.274005e-01	-6.213150e-01	0.000000e+00	
-1.897436e+00	1.218354e+00	1.221277e+00	5.291173e+01	-4.021922e-04	2.533559e+05	1.008839e+05	2.877648e+02	1.274001e-01	-6.219525e-01	0.000000e+00	
-1.897436e+00	1.250000e+00	1.221278e+00	5.291033e+01	-2.591717e-08	2.533558e+05	1.008839e+05	2.877648e+02	1.273968e-01	-6.219319e-01	0.000000e+00	
-1.897436e+00	1.186709e+00	1.221278e+00	5.291289e+01	-4.599000e-04	2.533559e+05	1.008839e+05	2.877648e+02	1.274029e-01	-6.219442e-01	0.000000e+00	
-1.897436e+00	1.155063e+00	1.221277e+00	5.291331e+01	-4.063705e-04	2.533559e+05	1.008839e+05	2.877648e+02	1.274039e-01	-6.219564e-01	0.000000e+00	
-1.897436e+00	1.123418e+00	1.221277e+00	5.291334e+01	-2.768919e-04	2.533559e+05	1.008839e+05	2.877648e+02	1.274040e-01	-6.219557e-01	0.000000e+00	
-1.897436e+00	1.091772e+00	1.221277e+00	5.291329e+01	-1.884044e-04	2.533559e+05	1.008839e+05	2.877648e+02	1.274039e-01	-6.219615e-01	0.000000e+00	
-1.897436e+00	1.060127e+00	1.221277e+00	5.291325e+01	-1.207583e-04	2.533559e+05	1.008839e+05	2.877648e+02	1.274038e-01	-6.219627e-01	0.000000e+00	
-1.897436e+00	1.028481e+00	1.221277e+00	5.291325e+01	-8.159868e-05	2.533559e+05	1.008839e+05	2.877648e+02	1.274038e-01	-6.219656e-01	0.000000e+00	
-1.897436e+00	9.968354e-01	1.221277e+00	5.291325e+01	-5.231640e-05	2.533559e+05	1.008839e+05	2.877648e+02	1.274038e-01	-6.219667e-01	0.000000e+00	
-1.897436e+00	9.651899e-01	1.221277e+00	5.291325e+01	-3.338185e-05	2.533559e+05	1.008839e+05	2.877648e+02	1.274038e-01	-6.219683e-01	0.000000e+00	
-1.897436e+00	9.335443e-01	1.221277e+00	5.291325e+01	-1.880814e-05	2.533559e+05	1.008839e+05	2.877648e+02	1.274038e-01	-6.219690e-01	0.000000e+00	
-1.897436e+00	9.018987e-01	1.221277e+00	5.291325e+01	-8.802019e-06	2.533559e+05	1.008839e+05	2.877648e+02	1.274038e-01	-6.219698e-01	0.000000e+00	
-1.897436e+00	8.702532e-01	1.221277e+00	5.291324e+01	-1.089095e-06	2.533559e+05	1.008839e+05	2.877648e+02	1.274038e-01	-6.219702e-01	0.000000e+00	
-1.897436e+00	8.386076e-01	1.221277e+00	5.291324e+01	4.330900e-06	2.533559e+05	1.008839e+05	2.877648e+02	1.274038e-01	-6.219705e-01	0.000000e+00	
-1.897436e+00	8.069620e-01	1.221277e+00	5.291323e+01	8.317910e-06	2.533559e+05	1.008839e+05	2.877648e+02	1.274038e-01	-6.219707e-01	0.000000e+00	
-1.897436e+00	7.753165e-01	1.221277e+00	5.291323e+01	1.094607e-05	2.533559e+05	1.008839e+05	2.877648e+02	1.274038e-01	-6.219708e-01	0.000000e+00	
-1.897436e+00	7.436709e-01	1.221277e+00	5.291322e+01	1.266399e-05	2.533559e+05	1.008839e+05	2.877648e+02	1.274037e-01	-6.219708e-01	0.000000e+00	
-1.897436e+00	7.120253e-01	1.221277e+00	5.291321e+01	1.362241e-05	2.533559e+05	1.008839e+05	2.877648e+02	1.274037e-01	-6.219708e-01	0.000000e+00	
-1.897436e+00	6.803797e-01	1.221277e+00	5.291321e+01	1.407935e-05	2.533559e+05	1.008839e+05	2.877648e+02	1.274037e-01	-6.219707e-01	0.000000e+00	
-1.897436e+00	6.487342e-01	1.221277e+00	5.291320e+01	1.414128e-05	2.533559e+05	1.008839e+05	2.877648e+02	1.274037e-01	-6.219707e-01	0.000000e+00	
-1.897436e+00	6.170886e-01	1.221277e+00	5.291320e+01	1.393585e-05	2.533559e+05	1.008839e+05	2.877648e+02	1.274037e-01	-6.219705e-01	0.000000e+00	
-1.897436e+00	5.854430e-01	1.221277e+00	5.291319e+01	1.352379e-05	2.533559e+05	1.008839e+05	2.877648e+02	1.274037e-01	-6.219704e-01	0.000000e+00	
-1.897436e+00	5.537975e-01	1.221277e+00	5.291319e+01	1.297197e-05	2.533559e+05	1.008839e+05	2.877648e+02	1.274037e-01	-6.219703e-01	0.000000e+00	
-1.897436e+00	5.221519e-01	1.221277e+00	5.291318e+01	1.231863e-05	2.533559e+05	1.008839e+05	2.877648e+02	1.274037e-01	-6.219701e-01	0.000000e+00	
-1.897436e+00	4.905063e-01	1.221277e+00	5.291318e+01	1.160163e-05	2.533559e+05	1.008839e+05	2.877648e+02	1.274036e-01	-6.219700e-01	0.000000e+00	
-1.897436e+00	4.588608e-01	1.221277e+00	5.291318e+01	1.084430e-05	2.533559e+05	1.008839e+05	2.877648e+02	1.274036e-01	-6.219699e-01	0.000000e+00	
-1.897436e+00	4.272152e-01	1.221277e+00	5.291317e+01	1.006726e-05	2.533559e+05	1.008839e+05	2.877648e+02	1.274036e-01	-6.219697e-01	0.000000e+00	
-1.897436e+00	3.955696e-01	1.221277e+00	5.291317e+01	9.283363e-06	2.533559e+05	1.008839e+05	2.877648e+02	1.274036e-01	-6.219696e-01	0.000000e+00	
-1.897436e+00	3.639241e-01	1.221277e+00	5.291317e+01	8.503030e-06	2.533559e+05	1.008839e+05	2.877648e+02	1.274036e-01	-6.219695e-01	0.000000e+00	
-1.897436e+00	3.322785e-01	1.221277e+00	5.291316e+01	7.732517e-06	2.533559e+05	1.008839e+05	2.877648e+02	1.274036e-01	-6.219694e-01	0.000000e+00	
-1.897436e+00	3.006329e-01	1.221277e+00	5.291316e+01	6.976323e-06	2.533559e+05	1.008839e+05	2.877648e+02	1.274036e-01	-6.219693e-01	0.000000e+00	
-1.897436e+00	2.689873e-01	1.221277e+00	5.291316e+01	6.236645e-06	2.533559e+05	1.008839e+05	2.877648e+02	1.274036e-01	-6.219692e-01	0.000000e+00	
-1.897436e+00	2.373418e-01	1.221277e+00	5.291316e+01	5.514490e-06	2.533559e+05	1.008839e+05	2.877648e+02	1.274036e-01	-6.219691e-01	0.000000e+00	
-1.897436e+00	2.056962e-01	1.221277e+00	5.291316e+01	4.809554e-06	2.533559e+05	1.008839e+05	2.877648e+02	1.274036e-01	-6.219690e-01	0.000000e+00	
-1.897436e+00	1.740506e-01	1.221277e+00	5.291316e+01	4.120764e-06	2.533559e+05	1.008839e+05	2.877648e+02	1.274036e-01	-6.219690e-01	0.000000e+00	
-1.897436e+00	1.424051e-01	1.221277e+00	5.291315e+01	3.446302e-06	2.533559e+05	1.008839e+05	2.877648e+02	1.274036e-01	-6.219689e-01	0.000000e+00	
-1.897436e+00	1.107595e-01	1.221277e+00	5.291315e+01	2.783885e-06	2.533559e+05	1.008839e+05	2.877648e+02	1.274036e-01	-6.219689e-01	0.000000e+00	
-1.897436e+00	7.911392e-02	1.221277e+00	5.291315e+01	2.130820e-06	2.533559e+05	1.008839e+05	2.877648e+02	1.274036e-01	-6.219689e-01	0.000000e+00	
-1.897436e+00	4.746835e-02	1.221277e+00	5.291315e+01	1.484162e-06	2.533559e+05	1.008839e+05	2.877648e+02	1.274036e-01	-6.219688e-01	0.000000e+00	
-1.897436e+00	1.582278e-02	1.221277e+00	5.291315e+01	8.407727e-07	2.533559e+05	1.008839e+05	2.877648e+02	1.274036e-01	-6.219688e-01	0.000000e+00	
-1.897436e+00	-1.582278e-02	1.221277e+00	5.291315e+01	1.974214e-07	2.533559e+05	1.008839e+05	2.877648e+02	1.274036e-01	-6.219688e-01	0.000000e+00	
-1.897436e+00	-4.746835e-02	1.221277e+00	5.291315e+01	-4.491642e-07	2.533559e+05	1.008839e+05	2.877648e+02	1.274036e-01	-6.219689e-01	0.000000e+00	
-1.897436e+00	-7.911392e-02	1.221277e+00	5.291315e+01	-1.102214e-06	2.533559e+05	1.008839e+05	2.877648e+02	1.274036e-01	-6.219689e-01	0.000000e+00	
-1.897436e+00	-1.107595e-01	1.221277e+00	5.291315e+01	-1.764863e-06	2.533559e+05	1.008839e+05	2.877648e+02	1.274036e-01	-6.219689e-01	0.000000e+00	