TITLE = "SU2 Simulation"
VARIABLES = "Iteration","CL","CD","CSF","CMx","CMy","CMz","CFx","CFy","CFz","CL/CD","AoA","Custom_ObjFunc","Res_Flow[0]","Res_Flow[1]","Res_Flow[2]","Res_Flow[3]","Res_Flow[4]","Linear_Solver_Iterations","CFL_Number","Time(min)"
ZONE T= "Convergence history"
           0, 0.00000000e+00, 0.00000000e+00, 0.00000000e+00, 0.00000000e+00, 0.00000000e+00, 0.00000000e+00, 0.00000000e+00, 0.00000000e+00, 0.00000000e+00, 0.00000000e+00, 0.00000000e+00, 0.00000000e+00, -1.11536909e+00, 1.38205865e+00, -1.26119551e+01, 4.33622206e+00, 0.00000000e+00, 5.0000000000, 5.0000000000, 0.0012339500
           1, 0.00000000e+00, 0.00000000e+00, 0.00000000e+00, 0.00000000e+00, 0.00000000e+00, 0.00000000e+00, 0.00000000e+00, 0.00000000e+00, 0.00000000e+00, 0.00000000e+00, 0.00000000e+00, 0.00000000e+00, -1.29845750e+00, 1.19381351e+00, -9.20992014e-01, 4.15484266e+00, 0.00000000e+00, 5.0000000000, 5.0000000000, 0.0024854500
           2, 0.00000000e+00, 0.00000000e+00, 0.00000000e+00, 0.00000000e+00, 0.00000000e+00, 0.00000000e+00, 0.00000000e+00, 0.00000000e+00, 0.00000000e+00, 0.00000000e+00, 0.00000000e+00, 0.00000000e+00, -1.32059915e+00, 1.20743289e+00, -2.24811560e-01, 4.14329229e+00, 0.00000000e+00, 5.0000000000, 5.0000000000, 0.0036801500
           3, 0.00000000e+00, 0.00000000e+00, 0.00000000e+00, 0.00000000e+00, 0.00000000e+00, 0.00000000e+00, 0.00000000e+00, 0.00000000e+00, 0.00000000e+00, 0.00000000e+00, 0.00000000e+00, 0.00000000e+00, -1.25947171e+00, 1.29117859e+00, 1.10288474e-01, 4.21270579e+00, 0.00000000e+00, 5.0000000000, 5.0000000000, 0.0048434833
           4, 0.00000000e+00, 0.00000000e+00, 0.00000000e+00, 0.00000000e+00, 0.00000000e+00, 0.00000000e+00, 0.00000000e+00, 0.00000000e+00, 0.00000000e+00, 0.00000000e+00, 0.00000000e+00, 0.00000000e+00, -1.23016229e+00, 1.32819757e+00, 3.12538868e-01, 4.24645355e+00, 0.00000000e+00, 5.0000000000, 5.0000000000, 0.0059806333
           5, 0.00000000e+00, 0.00000000e+00, 0.00000000e+00, 0.00000000e+00, 0.00000000e+00, 0.00000000e+00, 0.00000000e+00, 0.00000000e+00, 0.00000000e+00, 0.00000000e+00, 0.00000000e+00, 0.00000000e+00, -1.22540983e+00, 1.33781079e+00, 4.51113597e-01, 4.25422319e+00, 0.00000000e+00, 5.0000000000, 5.0000000000, 0.0071521167
           6, 0.00000000e+00, 0.00000000e+00, 0.00000000e+00, 0.00000000e+00, 0.00000000e+00, 0.00000000e+00, 0.00000000e+00, 0.00000000e+00, 0.00000000e+00, 0.00000000e+00, 0.00000000e+00, 0.00000000e+00, -1.23066672e+00, 1.33661464e+00, 5.51723447e-01, 4.25107993e+00, 0.00000000e+00, 5.0000000000, 5.0000000000, 0.0083406333
           7, 0.00000000e+00, 0.00000000e+00, 0.00000000e+00, 0.00000000e+00, 0.00000000e+00, 0.00000000e+00, 0.00000000e+00, 0.00000000e+00, 0.00000000e+00, 0.00000000e+00, 0.00000000e+00, 0.00000000e+00, -1.23796022e+00, 1.33228569e+00, 6.27275240e-01, 4.24521249e+00, 0.00000000e+00, 5.0000000000, 5.0000000000, 0.0094735667
           8, 0.00000000e+00, 0.00000000e+00, 0.00000000e+00, 0.00000000e+00, 0.00000000e+00, 0.00000000e+00, 0.00000000e+00, 0.00000000e+00, 0.00000000e+00, 0.00000000e+00, 0.00000000e+00, 0.00000000e+00, -1.24460591e+00, 1.32742037e+00, 6.85209002e-01, 4.23952476e+00, 0.00000000e+00, 5.0000000000, 5.0000000000, 0.0105914333
           9, 0.00000000e+00, 0.00000000e+00, 0.00000000e+00, 0.00000000e+00, 0.00000000e+00, 0.00000000e+00, 0.00000000e+00, 0.00000000e+00, 0.00000000e+00, 0.00000000e+00, 0.00000000e+00, 0.00000000e+00, -1.25036133e+00, 1.32266546e+00, 7.30228739e-01, 4.23445063e+00, 0.00000000e+00, 5.0000000000, 5.0000000000, 0.0116918833
          10, 0.00000000e+00, 0.00000000e+00, 0.00000000e+00, 0.00000000e+00, 0.00000000e+00, 0.00000000e+00, 0.00000000e+00, 0.00000000e+00, 0.00000000e+00, 0.00000000e+00, 0.00000000e+00, 0.00000000e+00, -1.25557134e+00, 1.31811539e+00, 7.65655199e-01, 4.22976533e+00, 0.00000000e+00, 5.0000000000, 5.0000000000, 0.0127631833
          11, 0.00000000e+00, 0.00000000e+00, 0.00000000e+00, 0.00000000e+00, 0.00000000e+00, 0.00000000e+00, 0.00000000e+00, 0.00000000e+00, 0.00000000e+00, 0.00000000e+00, 0.00000000e+00, 0.00000000e+00, -1.26049910e+00, 1.31371080e+00, 7.93736973e-01, 4.22526272e+00, 0.00000000e+00, 5.0000000000, 5.0000000000, 0.0139935333
          12, 0.00000000e+00, 0.00000000e+00, 0.00000000e+00, 0.00000000e+00, 0.00000000e+00, 0.00000000e+00, 0.00000000e+00, 0.00000000e+00, 0.00000000e+00, 0.00000000e+00, 0.00000000e+00, 0.00000000e+00, -1.26524482e+00, 1.30933665e+00, 8.16087045e-01, 4.22086246e+00, 0.00000000e+00, 5.0000000000, 5.0000000000, 0.0151480500
          13, 0.00000000e+00, 0.00000000e+00, 0.00000000e+00, 0.00000000e+00, 0.00000000e+00, 0.00000000e+00, 0.00000000e+00, 0.00000000e+00, 0.00000000e+00, 0.00000000e+00, 0.00000000e+00, 0.00000000e+00, -1.26978160e+00, 1.30485780e+00, 8.33894808e-01, 4.21659217e+00, 0.00000000e+00, 5.0000000000, 5.0000000000, 0.0162151167
          14, 0.00000000e+00, 0.00000000e+00, 0.00000000e+00, 0.00000000e+00, 0.00000000e+00, 0.00000000e+00, 0.00000000e+00, 0.00000000e+00, 0.00000000e+00, 0.00000000e+00, 0.00000000e+00, 0.00000000e+00, -1.27395151e+00, 1.30009675e+00, 8.48061995e-01, 4.21259694e+00, 0.00000000e+00, 5.0000000000, 5.0000000000, 0.0172928167
          15, 0.00000000e+00, 0.00000000e+00, 0.00000000e+00, 0.00000000e+00, 0.00000000e+00, 0.00000000e+00, 0.00000000e+00, 0.00000000e+00, 0.00000000e+00, 0.00000000e+00, 0.00000000e+00, 0.00000000e+00, -1.27741777e+00, 1.29476712e+00, 8.59279166e-01, 4.20918493e+00, 0.00000000e+00, 5.0000000000, 5.0000000000, 0.0184353667
          16, 0.00000000e+00, 0.00000000e+00, 0.00000000e+00, 0.00000000e+00, 0.00000000e+00, 0.00000000e+00, 0.00000000e+00, 0.00000000e+00, 0.00000000e+00, 0.00000000e+00, 0.00000000e+00, 0.00000000e+00, -1.27961603e+00, 1.28839460e+00, 8.68075649e-01, 4.20687376e+00, 0.00000000e+00, 5.0000000000, 5.0000000000, 0.0195735000
          17, 0.00000000e+00, 0.00000000e+00, 0.00000000e+00, 0.00000000e+00, 0.00000000e+00, 0.00000000e+00, 0.00000000e+00, 0.00000000e+00, 0.00000000e+00, 0.00000000e+00, 0.00000000e+00, 0.00000000e+00, -1.27976171e+00, 1.28026204e+00, 8.74853180e-01, 4.20639040e+00, 0.00000000e+00, 5.0000000000, 5.0000000000, 0.0206426000
          18, 0.00000000e+00, 0.00000000e+00, 0.00000000e+00, 0.00000000e+00, 0.00000000e+00, 0.00000000e+00, 0.00000000e+00, 0.00000000e+00, 0.00000000e+00, 0.00000000e+00, 0.00000000e+00, 0.00000000e+00, -1.27698171e+00, 1.26940603e+00, 8.79915094e-01, 4.20856327e+00, 0.00000000e+00, 5.0000000000, 5.0000000000, 0.0217449333
          19, 0.00000000e+00, 0.00000000e+00, 0.00000000e+00, 0.00000000e+00, 0.00000000e+00, 0.00000000e+00, 0.00000000e+00, 0.00000000e+00, 0.00000000e+00, 0.00000000e+00, 0.00000000e+00, 0.00000000e+00, -1.27060370e+00, 1.25468475e+00, 8.83488111e-01, 4.21407017e+00, 0.00000000e+00, 5.0000000000, 5.0000000000, 0.0228484167
          20, 0.00000000e+00, 0.00000000e+00, 0.00000000e+00, 0.00000000e+00, 0.00000000e+00, 0.00000000e+00, 0.00000000e+00, 0.00000000e+00, 0.00000000e+00, 0.00000000e+00, 0.00000000e+00, 0.00000000e+00, -1.26052646e+00, 1.23493413e+00, 8.85741726e-01, 4.22309694e+00, 0.00000000e+00, 5.0000000000, 5.0000000000, 0.0239787667
          21, 0.00000000e+00, 0.00000000e+00, 0.00000000e+00, 0.00000000e+00, 0.00000000e+00, 0.00000000e+00, 0.00000000e+00, 0.00000000e+00, 0.00000000e+00, 0.00000000e+00, 0.00000000e+00, 0.00000000e+00, -1.24747213e+00, 1.20924290e+00, 8.86805282e-01, 4.23507699e+00, 0.00000000e+00, 5.0000000000, 5.0000000000, 0.0249451000
          22, 0.00000000e+00, 0.00000000e+00, 0.00000000e+00, 0.00000000e+00, 0.00000000e+00, 0.00000000e+00, 0.00000000e+00, 0.00000000e+00, 0.00000000e+00, 0.00000000e+00, 0.00000000e+00, 0.00000000e+00, -1.23293666e+00, 1.17741885e+00, 8.86780486e-01, 4.24869083e+00, 0.00000000e+00, 5.0000000000, 5.0000000000, 0.0260742500
          23, 0.00000000e+00, 0.00000000e+00, 0.00000000e+00, 0.00000000e+00, 0.00000000e+00, 0.00000000e+00, 0.00000000e+00, 0.00000000e+00, 0.00000000e+00, 0.00000000e+00, 0.00000000e+00, 0.00000000e+00, -1.21884580e+00, 1.14076818e+00, 8.85751560e-01, 4.26215080e+00, 0.00000000e+00, 5.0000000000, 5.0000000000, 0.0270879167
          24, 0.00000000e+00, 0.00000000e+00, 0.00000000e+00, 0.00000000e+00, 0.00000000e+00, 0.00000000e+00, 0.00000000e+00, 0.00000000e+00, 0.00000000e+00, 0.00000000e+00, 0.00000000e+00, 0.00000000e+00, -1.20710724e+00, 1.10322794e+00, 8.83793370e-01, 4.27361688e+00, 0.00000000e+00, 5.0000000000, 5.0000000000, 0.0281687000
          25, 0.00000000e+00, 0.00000000e+00, 0.00000000e+00, 0.00000000e+00, 0.00000000e+00, 0.00000000e+00, 0.00000000e+00, 0.00000000e+00, 0.00000000e+00, 0.00000000e+00, 0.00000000e+00, 0.00000000e+00, -1.19925515e+00, 1.07221331e+00, 8.80978133e-01, 4.28155511e+00, 0.00000000e+00, 5.0000000000, 5.0000000000, 0.0293289500
          26, 0.00000000e+00, 0.00000000e+00, 0.00000000e+00, 0.00000000e+00, 0.00000000e+00, 0.00000000e+00, 0.00000000e+00, 0.00000000e+00, 0.00000000e+00, 0.00000000e+00, 0.00000000e+00, 0.00000000e+00, -1.19626200e+00, 1.05701380e+00, 8.77379103e-01, 4.28494728e+00, 0.00000000e+00, 5.0000000000, 5.0000000000, 0.0304368833
          27, 0.00000000e+00, 0.00000000e+00, 0.00000000e+00, 0.00000000e+00, 0.00000000e+00, 0.00000000e+00, 0.00000000e+00, 0.00000000e+00, 0.00000000e+00, 0.00000000e+00, 0.00000000e+00, 0.00000000e+00, -1.19849211e+00, 1.06310625e+00, 8.73072829e-01, 4.28336013e+00, 0.00000000e+00, 5.0000000000, 5.0000000000, 0.0315537333
          28, 0.00000000e+00, 0.00000000e+00, 0.00000000e+00, 0.00000000e+00, 0.00000000e+00, 0.00000000e+00, 0.00000000e+00, 0.00000000e+00, 0.00000000e+00, 0.00000000e+00, 0.00000000e+00, 0.00000000e+00, -1.20574439e+00, 1.08743850e+00, 8.68139837e-01, 4.27691938e+00, 0.00000000e+00, 5.0000000000, 5.0000000000, 0.0327256833
          29, 0.00000000e+00, 0.00000000e+00, 0.00000000e+00, 0.00000000e+00, 0.00000000e+00, 0.00000000e+00, 0.00000000e+00, 0.00000000e+00, 0.00000000e+00, 0.00000000e+00, 0.00000000e+00, 0.00000000e+00, -1.21735203e+00, 1.12138606e+00, 8.62665450e-01, 4.26622040e+00, 0.00000000e+00, 5.0000000000, 5.0000000000, 0.0338447167
          30, 0.00000000e+00, 0.00000000e+00, 0.00000000e+00, 0.00000000e+00, 0.00000000e+00, 0.00000000e+00, 0.00000000e+00, 0.00000000e+00, 0.00000000e+00, 0.00000000e+00, 0.00000000e+00, 0.00000000e+00, -1.23233206e+00, 1.15700033e+00, 8.56739409e-01, 4.25218610e+00, 0.00000000e+00, 5.0000000000, 5.0000000000, 0.0349338500
          31, 0.00000000e+00, 0.00000000e+00, 0.00000000e+00, 0.00000000e+00, 0.00000000e+00, 0.00000000e+00, 0.00000000e+00, 0.00000000e+00, 0.00000000e+00, 0.00000000e+00, 0.00000000e+00, 0.00000000e+00, -1.24958402e+00, 1.18969078e+00, 8.50455677e-01, 4.23587471e+00, 0.00000000e+00, 5.0000000000, 5.0000000000, 0.0360526167
          32, 0.00000000e+00, 0.00000000e+00, 0.00000000e+00, 0.00000000e+00, 0.00000000e+00, 0.00000000e+00, 0.00000000e+00, 0.00000000e+00, 0.00000000e+00, 0.00000000e+00, 0.00000000e+00, 0.00000000e+00, -1.26811267e+00, 1.21771999e+00, 8.43911369e-01, 4.21826254e+00, 0.00000000e+00, 5.0000000000, 5.0000000000, 0.0371372833
          33, 0.00000000e+00, 0.00000000e+00, 0.00000000e+00, 0.00000000e+00, 0.00000000e+00, 0.00000000e+00, 0.00000000e+00, 0.00000000e+00, 0.00000000e+00, 0.00000000e+00, 0.00000000e+00, 0.00000000e+00, -1.28722129e+00, 1.24099655e+00, 8.37204084e-01, 4.20005344e+00, 0.00000000e+00, 5.0000000000, 5.0000000000, 0.0382171167
          34, 0.00000000e+00, 0.00000000e+00, 0.00000000e+00, 0.00000000e+00, 0.00000000e+00, 0.00000000e+00, 0.00000000e+00, 0.00000000e+00, 0.00000000e+00, 0.00000000e+00, 0.00000000e+00, 0.00000000e+00, -1.30661279e+00, 1.26017107e+00, 8.30425754e-01, 4.18157592e+00, 0.00000000e+00, 5.0000000000, 5.0000000000, 0.0392330667
          35, 0.00000000e+00, 0.00000000e+00, 0.00000000e+00, 0.00000000e+00, 0.00000000e+00, 0.00000000e+00, 0.00000000e+00, 0.00000000e+00, 0.00000000e+00, 0.00000000e+00, 0.00000000e+00, 0.00000000e+00, -1.32636990e+00, 1.27610526e+00, 8.23660289e-01, 4.16279669e+00, 0.00000000e+00, 5.0000000000, 5.0000000000, 0.0403869500
          36, 0.00000000e+00, 0.00000000e+00, 0.00000000e+00, 0.00000000e+00, 0.00000000e+00, 0.00000000e+00, 0.00000000e+00, 0.00000000e+00, 0.00000000e+00, 0.00000000e+00, 0.00000000e+00, 0.00000000e+00, -1.34684475e+00, 1.28959483e+00, 8.16981158e-01, 4.14342276e+00, 0.00000000e+00, 5.0000000000, 5.0000000000, 0.0414345667
          37, 0.00000000e+00, 0.00000000e+00, 0.00000000e+00, 0.00000000e+00, 0.00000000e+00, 0.00000000e+00, 0.00000000e+00, 0.00000000e+00, 0.00000000e+00, 0.00000000e+00, 0.00000000e+00, 0.00000000e+00, -1.36852546e+00, 1.30125043e+00, 8.10442200e-01, 4.12302706e+00, 0.00000000e+00, 5.0000000000, 5.0000000000, 0.0425609833
          38, 0.00000000e+00, 0.00000000e+00, 0.00000000e+00, 0.00000000e+00, 0.00000000e+00, 0.00000000e+00, 0.00000000e+00, 0.00000000e+00, 0.00000000e+00, 0.00000000e+00, 0.00000000e+00, 0.00000000e+00, -1.39193760e+00, 1.31147301e+00, 8.04071164e-01, 4.10114068e+00, 0.00000000e+00, 5.0000000000, 5.0000000000, 0.0439635333
          39, 0.00000000e+00, 0.00000000e+00, 0.00000000e+00, 0.00000000e+00, 0.00000000e+00, 0.00000000e+00, 0.00000000e+00, 0.00000000e+00, 0.00000000e+00, 0.00000000e+00, 0.00000000e+00, 0.00000000e+00, -1.41760005e+00, 1.32047662e+00, 7.97872678e-01, 4.07729079e+00, 0.00000000e+00, 5.0000000000, 5.0000000000, 0.0451978333
          40, 0.00000000e+00, 0.00000000e+00, 0.00000000e+00, 0.00000000e+00, 0.00000000e+00, 0.00000000e+00, 0.00000000e+00, 0.00000000e+00, 0.00000000e+00, 0.00000000e+00, 0.00000000e+00, 0.00000000e+00, -1.44601282e+00, 1.32832396e+00, 7.91810572e-01, 4.05100509e+00, 0.00000000e+00, 5.0000000000, 5.0000000000, 0.0463138333
          41, 0.00000000e+00, 0.00000000e+00, 0.00000000e+00, 0.00000000e+00, 0.00000000e+00, 0.00000000e+00, 0.00000000e+00, 0.00000000e+00, 0.00000000e+00, 0.00000000e+00, 0.00000000e+00, 0.00000000e+00, -1.47763174e+00, 1.33495484e+00, 7.85834526e-01, 4.02182322e+00, 0.00000000e+00, 5.0000000000, 5.0000000000, 0.0473179667
          42, 0.00000000e+00, 0.00000000e+00, 0.00000000e+00, 0.00000000e+00, 0.00000000e+00, 0.00000000e+00, 0.00000000e+00, 0.00000000e+00, 0.00000000e+00, 0.00000000e+00, 0.00000000e+00, 0.00000000e+00, -1.51276560e+00, 1.34020382e+00, 7.79877011e-01, 3.98937236e+00, 0.00000000e+00, 5.0000000000, 5.0000000000, 0.0483562167
          43, 0.00000000e+00, 0.00000000e+00, 0.00000000e+00, 0.00000000e+00, 0.00000000e+00, 0.00000000e+00, 0.00000000e+00, 0.00000000e+00, 0.00000000e+00, 0.00000000e+00, 0.00000000e+00, 0.00000000e+00, -1.55132128e+00, 1.34381253e+00, 7.73857156e-01, 3.95356279e+00, 0.00000000e+00, 5.0000000000, 5.0000000000, 0.0494486500
          44, 0.00000000e+00, 0.00000000e+00, 0.00000000e+00, 0.00000000e+00, 0.00000000e+00, 0.00000000e+00, 0.00000000e+00, 0.00000000e+00, 0.00000000e+00, 0.00000000e+00, 0.00000000e+00, 0.00000000e+00, -1.59229566e+00, 1.34544528e+00, 7.67690061e-01, 3.91498008e+00, 0.00000000e+00, 5.0000000000, 5.0000000000, 0.0504525667
          45, 0.00000000e+00, 0.00000000e+00, 0.00000000e+00, 0.00000000e+00, 0.00000000e+00, 0.00000000e+00, 0.00000000e+00, 0.00000000e+00, 0.00000000e+00, 0.00000000e+00, 0.00000000e+00, 0.00000000e+00, -1.63293664e+00, 1.34471241e+00, 7.61292020e-01, 3.87554832e+00, 0.00000000e+00, 5.0000000000, 5.0000000000, 0.0514845000
          46, 0.00000000e+00, 0.00000000e+00, 0.00000000e+00, 0.00000000e+00, 0.00000000e+00, 0.00000000e+00, 0.00000000e+00, 0.00000000e+00, 0.00000000e+00, 0.00000000e+00, 0.00000000e+00, 0.00000000e+00, -1.66780821e+00, 1.34119963e+00, 7.54590250e-01, 3.83937753e+00, 0.00000000e+00, 5.0000000000, 5.0000000000, 0.0525177333
          47, 0.00000000e+00, 0.00000000e+00, 0.00000000e+00, 0.00000000e+00, 0.00000000e+00, 0.00000000e+00, 0.00000000e+00, 0.00000000e+00, 0.00000000e+00, 0.00000000e+00, 0.00000000e+00, 0.00000000e+00, -1.68896984e+00, 1.33449793e+00, 7.47527198e-01, 3.81309460e+00, 0.00000000e+00, 5.0000000000, 5.0000000000, 0.0535694833
          48, 0.00000000e+00, 0.00000000e+00, 0.00000000e+00, 0.00000000e+00, 0.00000000e+00, 0.00000000e+00, 0.00000000e+00, 0.00000000e+00, 0.00000000e+00, 0.00000000e+00, 0.00000000e+00, 0.00000000e+00, -1.68926482e+00, 1.32422710e+00, 7.40077574e-01, 3.80404356e+00, 0.00000000e+00, 5.0000000000, 5.0000000000, 0.0545520667
          49, 0.00000000e+00, 0.00000000e+00, 0.00000000e+00, 0.00000000e+00, 0.00000000e+00, 0.00000000e+00, 0.00000000e+00, 0.00000000e+00, 0.00000000e+00, 0.00000000e+00, 0.00000000e+00, 0.00000000e+00, -1.66759142e+00, 1.31004811e+00, 7.32235265e-01, 3.81586683e+00, 0.00000000e+00, 5.0000000000, 5.0000000000, 0.0556355667
          50, 0.00000000e+00, 0.00000000e+00, 0.00000000e+00, 0.00000000e+00, 0.00000000e+00, 0.00000000e+00, 0.00000000e+00, 0.00000000e+00, 0.00000000e+00, 0.00000000e+00, 0.00000000e+00, 0.00000000e+00, -1.62996245e+00, 1.29166240e+00, 7.24033959e-01, 3.84550881e+00, 0.00000000e+00, 5.0000000000, 5.0000000000, 0.0566306333
          51, 0.00000000e+00, 0.00000000e+00, 0.00000000e+00, 0.00000000e+00, 0.00000000e+00, 0.00000000e+00, 0.00000000e+00, 0.00000000e+00, 0.00000000e+00, 0.00000000e+00, 0.00000000e+00, 0.00000000e+00, -1.58483124e+00, 1.26879782e+00, 7.15541107e-01, 3.88563274e+00, 0.00000000e+00, 5.0000000000, 5.0000000000, 0.0576906833
          52, 0.00000000e+00, 0.00000000e+00, 0.00000000e+00, 0.00000000e+00, 0.00000000e+00, 0.00000000e+00, 0.00000000e+00, 0.00000000e+00, 0.00000000e+00, 0.00000000e+00, 0.00000000e+00, 0.00000000e+00, -1.53878036e+00, 1.24118262e+00, 7.06857953e-01, 3.92916037e+00, 0.00000000e+00, 5.0000000000, 5.0000000000, 0.0586832833
          53, 0.00000000e+00, 0.00000000e+00, 0.00000000e+00, 0.00000000e+00, 0.00000000e+00, 0.00000000e+00, 0.00000000e+00, 0.00000000e+00, 0.00000000e+00, 0.00000000e+00, 0.00000000e+00, 0.00000000e+00, -1.49556337e+00, 1.20850828e+00, 6.98117454e-01, 3.97142376e+00, 0.00000000e+00, 5.0000000000, 5.0000000000, 0.0597210500
          54, 0.00000000e+00, 0.00000000e+00, 0.00000000e+00, 0.00000000e+00, 0.00000000e+00, 0.00000000e+00, 0.00000000e+00, 0.00000000e+00, 0.00000000e+00, 0.00000000e+00, 0.00000000e+00, 0.00000000e+00, -1.45687380e+00, 1.17038128e+00, 6.89475928e-01, 4.01000305e+00, 0.00000000e+00, 5.0000000000, 5.0000000000, 0.0608146500
          55, 0.00000000e+00, 0.00000000e+00, 0.00000000e+00, 0.00000000e+00, 0.00000000e+00, 0.00000000e+00, 0.00000000e+00, 0.00000000e+00, 0.00000000e+00, 0.00000000e+00, 0.00000000e+00, 0.00000000e+00, -1.42324923e+00, 1.12626186e+00, 6.81102635e-01, 4.04390711e+00, 0.00000000e+00, 5.0000000000, 5.0000000000, 0.0619449833
          56, 0.00000000e+00, 0.00000000e+00, 0.00000000e+00, 0.00000000e+00, 0.00000000e+00, 0.00000000e+00, 0.00000000e+00, 0.00000000e+00, 0.00000000e+00, 0.00000000e+00, 0.00000000e+00, 0.00000000e+00, -1.39466669e+00, 1.07538471e+00, 6.73168069e-01, 4.07290326e+00, 0.00000000e+00, 5.0000000000, 5.0000000000, 0.0631040833
          57, 0.00000000e+00, 0.00000000e+00, 0.00000000e+00, 0.00000000e+00, 0.00000000e+00, 0.00000000e+00, 0.00000000e+00, 0.00000000e+00, 0.00000000e+00, 0.00000000e+00, 0.00000000e+00, 0.00000000e+00, -1.37086929e+00, 1.01665337e+00, 6.65830031e-01, 4.09711158e+00, 0.00000000e+00, 5.0000000000, 5.0000000000, 0.0642584333
          58, 0.00000000e+00, 0.00000000e+00, 0.00000000e+00, 0.00000000e+00, 0.00000000e+00, 0.00000000e+00, 0.00000000e+00, 0.00000000e+00, 0.00000000e+00, 0.00000000e+00, 0.00000000e+00, 0.00000000e+00, -1.35152852e+00, 9.48494392e-01, 6.59220561e-01, 4.11679094e+00, 0.00000000e+00, 5.0000000000, 5.0000000000, 0.0654161667
          59, 0.00000000e+00, 0.00000000e+00, 0.00000000e+00, 0.00000000e+00, 0.00000000e+00, 0.00000000e+00, 0.00000000e+00, 0.00000000e+00, 0.00000000e+00, 0.00000000e+00, 0.00000000e+00, 0.00000000e+00, -1.33631971e+00, 8.68664407e-01, 6.53436312e-01, 4.13223340e+00, 0.00000000e+00, 5.0000000000, 5.0000000000, 0.0667880333
          60, 0.00000000e+00, 0.00000000e+00, 0.00000000e+00, 0.00000000e+00, 0.00000000e+00, 0.00000000e+00, 0.00000000e+00, 0.00000000e+00, 0.00000000e+00, 0.00000000e+00, 0.00000000e+00, 0.00000000e+00, -1.32495164e+00, 7.74071185e-01, 6.48532136e-01, 4.14371777e+00, 0.00000000e+00, 5.0000000000, 5.0000000000, 0.0680136833
          61, 0.00000000e+00, 0.00000000e+00, 0.00000000e+00, 0.00000000e+00, 0.00000000e+00, 0.00000000e+00, 0.00000000e+00, 0.00000000e+00, 0.00000000e+00, 0.00000000e+00, 0.00000000e+00, 0.00000000e+00, -1.31717335e+00, 6.61095225e-01, 6.44517956e-01, 4.15149331e+00, 0.00000000e+00, 5.0000000000, 5.0000000000, 0.0691716167
          62, 0.00000000e+00, 0.00000000e+00, 0.00000000e+00, 0.00000000e+00, 0.00000000e+00, 0.00000000e+00, 0.00000000e+00, 0.00000000e+00, 0.00000000e+00, 0.00000000e+00, 0.00000000e+00, 0.00000000e+00, -1.31276911e+00, 5.29264645e-01, 6.41364938e-01, 4.15577940e+00, 0.00000000e+00, 5.0000000000, 5.0000000000, 0.0702617667
          63, 0.00000000e+00, 0.00000000e+00, 0.00000000e+00, 0.00000000e+00, 0.00000000e+00, 0.00000000e+00, 0.00000000e+00, 0.00000000e+00, 0.00000000e+00, 0.00000000e+00, 0.00000000e+00, 0.00000000e+00, -1.31154966e+00, 4.01298147e-01, 6.39009372e-01, 4.15677080e+00, 0.00000000e+00, 5.0000000000, 5.0000000000, 0.0713827333
          64, 0.00000000e+00, 0.00000000e+00, 0.00000000e+00, 0.00000000e+00, 0.00000000e+00, 0.00000000e+00, 0.00000000e+00, 0.00000000e+00, 0.00000000e+00, 0.00000000e+00, 0.00000000e+00, 0.00000000e+00, -1.31334099e+00, 3.61509483e-01, 6.37362002e-01, 4.15464679e+00, 0.00000000e+00, 5.0000000000, 5.0000000000, 0.0724245500
          65, 0.00000000e+00, 0.00000000e+00, 0.00000000e+00, 0.00000000e+00, 0.00000000e+00, 0.00000000e+00, 0.00000000e+00, 0.00000000e+00, 0.00000000e+00, 0.00000000e+00, 0.00000000e+00, 0.00000000e+00, -1.31797392e+00, 4.44233220e-01, 6.36317766e-01, 4.14957997e+00, 0.00000000e+00, 5.0000000000, 5.0000000000, 0.0734368833
          66, 0.00000000e+00, 0.00000000e+00, 0.00000000e+00, 0.00000000e+00, 0.00000000e+00, 0.00000000e+00, 0.00000000e+00, 0.00000000e+00, 0.00000000e+00, 0.00000000e+00, 0.00000000e+00, 0.00000000e+00, -1.32527456e+00, 5.58833716e-01, 6.35766579e-01, 4.14174493e+00, 0.00000000e+00, 5.0000000000, 5.0000000000, 0.0744752000
          67, 0.00000000e+00, 0.00000000e+00, 0.00000000e+00, 0.00000000e+00, 0.00000000e+00, 0.00000000e+00, 0.00000000e+00, 0.00000000e+00, 0.00000000e+00, 0.00000000e+00, 0.00000000e+00, 0.00000000e+00, -1.33505565e+00, 6.58907202e-01, 6.35601649e-01, 4.13132598e+00, 0.00000000e+00, 5.0000000000, 5.0000000000, 0.0755675333
          68, 0.00000000e+00, 0.00000000e+00, 0.00000000e+00, 0.00000000e+00, 0.00000000e+00, 0.00000000e+00, 0.00000000e+00, 0.00000000e+00, 0.00000000e+00, 0.00000000e+00, 0.00000000e+00, 0.00000000e+00, -1.34710865e+00, 7.39458017e-01, 6.35725786e-01, 4.11852481e+00, 0.00000000e+00, 5.0000000000, 5.0000000000, 0.0766668500
          69, 0.00000000e+00, 0.00000000e+00, 0.00000000e+00, 0.00000000e+00, 0.00000000e+00, 0.00000000e+00, 0.00000000e+00, 0.00000000e+00, 0.00000000e+00, 0.00000000e+00, 0.00000000e+00, 0.00000000e+00, -1.36119587e+00, 8.03711936e-01, 6.36054957e-01, 4.10356823e+00, 0.00000000e+00, 5.0000000000, 5.0000000000, 0.0776784000
          70, 0.00000000e+00, 0.00000000e+00, 0.00000000e+00, 0.00000000e+00, 0.00000000e+00, 0.00000000e+00, 0.00000000e+00, 0.00000000e+00, 0.00000000e+00, 0.00000000e+00, 0.00000000e+00, 0.00000000e+00, -1.37704283e+00, 8.55163480e-01, 6.36520418e-01, 4.08671630e+00, 0.00000000e+00, 5.0000000000, 5.0000000000, 0.0787487667
          71, 0.00000000e+00, 0.00000000e+00, 0.00000000e+00, 0.00000000e+00, 0.00000000e+00, 0.00000000e+00, 0.00000000e+00, 0.00000000e+00, 0.00000000e+00, 0.00000000e+00, 0.00000000e+00, 0.00000000e+00, -1.39433108e+00, 8.96503557e-01, 6.37072055e-01, 4.06827071e+00, 0.00000000e+00, 5.0000000000, 5.0000000000, 0.0798062333
          72, 0.00000000e+00, 0.00000000e+00, 0.00000000e+00, 0.00000000e+00, 0.00000000e+00, 0.00000000e+00, 0.00000000e+00, 0.00000000e+00, 0.00000000e+00, 0.00000000e+00, 0.00000000e+00, 0.00000000e+00, -1.41269209e+00, 9.29705008e-01, 6.37677518e-01, 4.04858301e+00, 0.00000000e+00, 5.0000000000, 5.0000000000, 0.0808384833
          73, 0.00000000e+00, 0.00000000e+00, 0.00000000e+00, 0.00000000e+00, 0.00000000e+00, 0.00000000e+00, 0.00000000e+00, 0.00000000e+00, 0.00000000e+00, 0.00000000e+00, 0.00000000e+00, 0.00000000e+00, -1.43170392e+00, 9.56224189e-01, 6.38321628e-01, 4.02806113e+00, 0.00000000e+00, 5.0000000000, 5.0000000000, 0.0820225833
          74, 0.00000000e+00, 0.00000000e+00, 0.00000000e+00, 0.00000000e+00, 0.00000000e+00, 0.00000000e+00, 0.00000000e+00, 0.00000000e+00, 0.00000000e+00, 0.00000000e+00, 0.00000000e+00, 0.00000000e+00, -1.45089308e+00, 9.77159715e-01, 6.39004970e-01, 4.00717213e+00, 0.00000000e+00, 5.0000000000, 5.0000000000, 0.0831146000
          75, 0.00000000e+00, 0.00000000e+00, 0.00000000e+00, 0.00000000e+00, 0.00000000e+00, 0.00000000e+00, 0.00000000e+00, 0.00000000e+00, 0.00000000e+00, 0.00000000e+00, 0.00000000e+00, 0.00000000e+00, -1.46974425e+00, 9.93361340e-01, 6.39741167e-01, 3.98643785e+00, 0.00000000e+00, 5.0000000000, 5.0000000000, 0.0842588500
          76, 0.00000000e+00, 0.00000000e+00, 0.00000000e+00, 0.00000000e+00, 0.00000000e+00, 0.00000000e+00, 0.00000000e+00, 0.00000000e+00, 0.00000000e+00, 0.00000000e+00, 0.00000000e+00, 0.00000000e+00, -1.48772150e+00, 1.00550329e+00, 6.40555324e-01, 3.96641920e+00, 0.00000000e+00, 5.0000000000, 5.0000000000, 0.0853489333
          77, 0.00000000e+00, 0.00000000e+00, 0.00000000e+00, 0.00000000e+00, 0.00000000e+00, 0.00000000e+00, 0.00000000e+00, 0.00000000e+00, 0.00000000e+00, 0.00000000e+00, 0.00000000e+00, 0.00000000e+00, -1.50430167e+00, 1.01413340e+00, 6.41483401e-01, 3.94768639e+00, 0.00000000e+00, 5.0000000000, 5.0000000000, 0.0864117500
          78, 0.00000000e+00, 0.00000000e+00, 0.00000000e+00, 0.00000000e+00, 0.00000000e+00, 0.00000000e+00, 0.00000000e+00, 0.00000000e+00, 0.00000000e+00, 0.00000000e+00, 0.00000000e+00, 0.00000000e+00, -1.51901842e+00, 1.01970690e+00, 6.42568933e-01, 3.93077460e+00, 0.00000000e+00, 5.0000000000, 5.0000000000, 0.0875301500
          79, 0.00000000e+00, 0.00000000e+00, 0.00000000e+00, 0.00000000e+00, 0.00000000e+00, 0.00000000e+00, 0.00000000e+00, 0.00000000e+00, 0.00000000e+00, 0.00000000e+00, 0.00000000e+00, 0.00000000e+00, -1.53151053e+00, 1.02261014e+00, 6.43860436e-01, 3.91612966e+00, 0.00000000e+00, 5.0000000000, 5.0000000000, 0.0886193000
          80, 0.00000000e+00, 0.00000000e+00, 0.00000000e+00, 0.00000000e+00, 0.00000000e+00, 0.00000000e+00, 0.00000000e+00, 0.00000000e+00, 0.00000000e+00, 0.00000000e+00, 0.00000000e+00, 0.00000000e+00, -1.54156401e+00, 1.02317752e+00, 6.45408866e-01, 3.90405417e+00, 0.00000000e+00, 5.0000000000, 5.0000000000, 0.0897335000
          81, 0.00000000e+00, 0.00000000e+00, 0.00000000e+00, 0.00000000e+00, 0.00000000e+00, 0.00000000e+00, 0.00000000e+00, 0.00000000e+00, 0.00000000e+00, 0.00000000e+00, 0.00000000e+00, 0.00000000e+00, -1.54913709e+00, 1.02170380e+00, 6.47264909e-01, 3.89466781e+00, 0.00000000e+00, 5.0000000000, 5.0000000000, 0.0909576833
          82, 0.00000000e+00, 0.00000000e+00, 0.00000000e+00, 0.00000000e+00, 0.00000000e+00, 0.00000000e+00, 0.00000000e+00, 0.00000000e+00, 0.00000000e+00, 0.00000000e+00, 0.00000000e+00, 0.00000000e+00, -1.55435991e+00, 1.01845281e+00, 6.49476386e-01, 3.88789444e+00, 0.00000000e+00, 5.0000000000, 5.0000000000, 0.0921704833
          83, 0.00000000e+00, 0.00000000e+00, 0.00000000e+00, 0.00000000e+00, 0.00000000e+00, 0.00000000e+00, 0.00000000e+00, 0.00000000e+00, 0.00000000e+00, 0.00000000e+00, 0.00000000e+00, 0.00000000e+00, -1.55750937e+00, 1.01366366e+00, 6.52085824e-01, 3.88347994e+00, 0.00000000e+00, 5.0000000000, 5.0000000000, 0.0932949833
          84, 0.00000000e+00, 0.00000000e+00, 0.00000000e+00, 0.00000000e+00, 0.00000000e+00, 0.00000000e+00, 0.00000000e+00, 0.00000000e+00, 0.00000000e+00, 0.00000000e+00, 0.00000000e+00, 0.00000000e+00, -1.55896641e+00, 1.00755497e+00, 6.55128246e-01, 3.88103535e+00, 0.00000000e+00, 5.0000000000, 5.0000000000, 0.0944440167
          85, 0.00000000e+00, 0.00000000e+00, 0.00000000e+00, 0.00000000e+00, 0.00000000e+00, 0.00000000e+00, 0.00000000e+00, 0.00000000e+00, 0.00000000e+00, 0.00000000e+00, 0.00000000e+00, 0.00000000e+00, -1.55916706e+00, 1.00032747e+00, 6.58629247e-01, 3.88009249e+00, 0.00000000e+00, 5.0000000000, 5.0000000000, 0.0955659667
          86, 0.00000000e+00, 0.00000000e+00, 0.00000000e+00, 0.00000000e+00, 0.00000000e+00, 0.00000000e+00, 0.00000000e+00, 0.00000000e+00, 0.00000000e+00, 0.00000000e+00, 0.00000000e+00, 0.00000000e+00, -1.55855782e+00, 9.92165230e-01, 6.62603600e-01, 3.88015827e+00, 0.00000000e+00, 5.0000000000, 5.0000000000, 0.0966836333
          87, 0.00000000e+00, 0.00000000e+00, 0.00000000e+00, 0.00000000e+00, 0.00000000e+00, 0.00000000e+00, 0.00000000e+00, 0.00000000e+00, 0.00000000e+00, 0.00000000e+00, 0.00000000e+00, 0.00000000e+00, -1.55756169e+00, 9.83235889e-01, 6.67054463e-01, 3.88075800e+00, 0.00000000e+00, 5.0000000000, 5.0000000000, 0.0978046167
          88, 0.00000000e+00, 0.00000000e+00, 0.00000000e+00, 0.00000000e+00, 0.00000000e+00, 0.00000000e+00, 0.00000000e+00, 0.00000000e+00, 0.00000000e+00, 0.00000000e+00, 0.00000000e+00, 0.00000000e+00, -1.55655700e+00, 9.73689951e-01, 6.71973323e-01, 3.88146360e+00, 0.00000000e+00, 5.0000000000, 5.0000000000, 0.0989707500
          89, 0.00000000e+00, 0.00000000e+00, 0.00000000e+00, 0.00000000e+00, 0.00000000e+00, 0.00000000e+00, 0.00000000e+00, 0.00000000e+00, 0.00000000e+00, 0.00000000e+00, 0.00000000e+00, 0.00000000e+00, -1.55586736e+00, 9.63659665e-01, 6.77340284e-01, 3.88190787e+00, 0.00000000e+00, 5.0000000000, 5.0000000000, 0.1000673000