/*--------------------------------*- C++ -*----------------------------------*\
  =========                 |
  \\      /  F ield         | OpenFOAM: The Open Source CFD Toolbox
   \\    /   O peration     | Website:  https://openfoam.org
    \\  /    A nd           | Version:  6
     \\/     M anipulation  |
\*---------------------------------------------------------------------------*/
FoamFile
{
    version     2.0;
    format      ascii;
    class       surfaceScalarField;
    location    "170";
    object      phi;
}
// * * * * * * * * * * * * * * * * * * * * * * * * * * * * * * * * * * * * * //

dimensions      [0 3 -1 0 0 0 0];

internalField   nonuniform List<scalar> 
7780
(
2
2.10158e-16
2
3.20581e-16
2
3.31627e-16
2
3.98484e-16
2
2.4577e-16
2
2.31255e-17
2
7.37764e-17
2
6.84259e-18
2
1.32572e-16
2
2.18663e-16
2
2.71116e-16
2
2.7478e-16
2
2.53154e-16
2
9.35651e-17
2
3.0241e-16
2
3.37856e-16
2
1.93581e-16
2
1.99137e-16
2
1.45942e-16
2
1.90707e-16
2
2.06898e-16
2
1.68264e-16
2
2.44084e-16
2
1.21471e-16
2
1.43779e-16
2
9.88367e-17
2
1.04032e-17
2
4.03935e-17
2
2.16058e-16
2
3.2537e-16
2
3.92174e-16
2
2.99108e-16
2
2.32247e-16
2
9.60632e-17
2
1.82299e-16
2
1.6354e-16
2
2.05362e-16
2
1.40252e-16
2
1.68391e-16
2
5.74536e-17
2
5.92854e-17
2
1.14362e-16
2
1.1493e-16
2
6.17421e-17
2
3.23855e-17
2
1.0271e-16
2
2.00272e-16
2
-5.11592e-18
2
-3.7806e-17
2
-1.93306e-17
2
-2.3522e-17
2
-1.28273e-16
2
-1.07969e-16
2
-4.43065e-17
2
2.35199e-17
2
8.0898e-18
2
1.29185e-16
2
7.45828e-17
2
-7.50105e-17
2
4.00917e-17
2
-3.97353e-17
2
-3.11972e-16
2
-3.00247e-16
2
-1.96086e-16
2
-1.90805e-16
2
1.65481e-16
2
-6.21771e-17
2
-9.22834e-17
2
1.82324e-16
2
3.78258e-16
2
2.70503e-16
2
3.07489e-16
2
2.1408e-16
2
1.79235e-16
2
2.85882e-16
2
2.36118e-16
2
1.64292e-16
2
1.25088e-16
2
9.22575e-17
2
1.69257e-16
2
4.49776e-17
2
9.3552e-17
2
2.38266e-16
2
2.61871e-16
2
1.55008e-16
2
5.98981e-17
2
-1.87405e-16
2
-2.52821e-16
2
-2.24614e-16
2
-1.57477e-16
2
-1.03523e-16
2
1.25509e-17
2
-1.11088e-16
2
-7.45685e-17
2
-6.26297e-17
2
-3.64245e-18
2
-1.71234e-16
2
-1.22929e-16
2
-1.3234e-16
2
6.83797e-17
2
-1.41355e-16
2
-6.15293e-17
2
2.75536e-17
2
1.30539e-16
2
1.95868e-17
2
-1.76813e-16
2
-7.88832e-17
2
-3.84791e-17
2
6.85818e-17
2
-1.41346e-18
2
1.58226e-17
2
6.50852e-17
2
-6.95703e-17
2
1.27381e-16
2
1.99309e-16
2
1.83084e-16
2
2.58897e-16
2
1.679e-16
2
2.49197e-16
2
3.85225e-16
2
2.41215e-16
2
3.88607e-16
2
4.7543e-16
2
3.0542e-16
2
2.62333e-16
2
3.99909e-16
2
1.72979e-16
2
1.28956e-16
2
2.06159e-16
2
4.04953e-16
2
3.38714e-16
2
1.84246e-16
2
9.14819e-17
2
1.82842e-16
2
1.70073e-16
2
2.60704e-16
2
1.40495e-16
2
1.86792e-16
2
2.10837e-16
2
8.9475e-17
2
5.78509e-18
2
6.06294e-17
2
2.14401e-16
2
1.78426e-16
2
7.49171e-17
2
-7.46064e-18
2
7.54869e-17
2
-1.2565e-16
2
5.55719e-17
2
1.075e-16
2
1.53175e-16
2
2.9358e-16
2
1.47607e-16
2
1.63965e-16
2
-3.50166e-17
2
-2.13948e-17
2
-9.17985e-17
2
-9.86814e-17
2
-1.59728e-16
2
-2.7491e-16
2
-4.12631e-16
2
-9.69102e-17
2
-7.06474e-17
2
5.71656e-17
2
1.69774e-16
2
5.13581e-17
2
1.67841e-17
2
3.09506e-16
2
3.26888e-16
2
2.25125e-16
2
1.2007e-16
2
3.56335e-16
2
2.0155e-16
2
3.64906e-16
2
1.6607e-16
2
3.18004e-16
2
3.98996e-16
2
3.34186e-16
2
3.63991e-16
2
3.0913e-16
2
1.36187e-16
2
2.05029e-16
2
6.58356e-17
2
-7.95422e-17
2
6.74354e-17
2
2.17184e-16
2
1.94082e-16
2
1.92769e-16
2
1.42538e-16
2
4.59016e-16
2
3.52217e-16
2
1.50577e-16
2
1.76364e-16
2
1.64236e-16
2
5.42638e-17
2
1.08512e-16
2
2.71561e-17
2
6.94496e-17
2
5.27156e-17
-1.59206e-17
2
-2.44576e-17
2
1.18671e-16
2
1.41873e-16
2
2.79406e-16
2
2.03743e-16
2
2.45787e-16
2
2.32995e-16
2
4.1581e-16
2
4.59411e-16
2
2.04218e-16
2
4.2217e-17
2
-2.9685e-17
2
-2.64808e-17
2
1.38736e-16
2
1.89147e-16
2
-8.51159e-17
2
2.89278e-17
2
2.02273e-16
2
1.8368e-16
2
2.4206e-16
2
1.41267e-16
2
9.55019e-17
2
-4.44014e-17
2
2.24887e-16
2
1.81303e-16
2
2.40813e-16
2
1.96607e-16
2
9.97771e-17
2
1.86899e-16
2
8.04882e-17
2
3.96821e-16
2
4.31541e-16
2
3.49551e-16
2
1.80845e-16
2
1.02194e-17
2
1.86736e-16
2
3.85781e-16
2
2.26571e-16
2
9.08327e-17
2
1.08518e-16
2
1.52945e-16
2
2.09295e-16
2
2.20428e-16
2
3.27326e-16
2
2.23829e-16
2
1.13777e-16
2
1.16984e-16
2
6.16737e-17
2
9.47379e-17
2
2.26714e-18
2
1.98062e-16
2
3.1429e-16
2
4.70495e-17
2
8.17249e-17
2
-1.57845e-16
2
-2.08324e-16
2
-1.99716e-16
2
-2.41052e-17
2
1.94356e-16
2
9.79491e-17
2
-1.3379e-16
2
-3.58946e-17
2
-1.6498e-16
2
-1.03256e-16
2
-2.47041e-16
2
-3.96491e-16
2
-2.36824e-16
2
8.77282e-17
2
-1.39621e-16
2
2.36893e-17
2
1.27357e-16
2
1.46329e-16
2
2.43521e-16
2
1.30425e-16
2
1.6558e-16
2
1.05599e-16
2
8.56401e-17
2
3.43115e-17
2
-2.98172e-17
2
-4.92171e-17
2
-1.36032e-17
2
9.42033e-17
2
6.15657e-17
2
1.18936e-16
2
5.06583e-17
2
8.36634e-17
2
-2.85986e-17
2
-4.88899e-17
2
-8.52744e-18
2
-1.95888e-16
2
-2.22705e-16
2
-2.9205e-16
2
-6.28178e-17
2
8.96716e-17
2
1.93729e-17
2
-7.56098e-17
2
6.36906e-17
2
-2.07684e-17
2
-4.22558e-17
2
1.77783e-17
2
1.04009e-16
2
-4.29279e-17
2
4.65302e-18
2
1.96527e-16
2
6.61707e-17
2
-5.87472e-17
2
-5.03162e-18
2
1.08786e-16
2
1.25482e-16
2
1.53349e-16
2
1.08658e-16
2
4.10226e-17
2
1.59922e-16
2
3.59038e-16
2
2.57786e-16
2
-4.11034e-18
2
2.93444e-16
2
2.7325e-16
2
-1.81351e-16
2
3.2098e-17
2
1.01194e-16
2
1.53731e-16
2
1.18173e-16
2
1.4401e-16
2
2.41208e-16
2
7.65843e-17
2
5.86944e-17
2
3.33018e-17
2
1.62318e-16
2
4.80097e-19
2
-1.15362e-16
2
-1.92249e-17
2
9.75219e-17
2
-2.11005e-17
2
1.46595e-16
2
2.18357e-16
2
1.81869e-16
2
3.72537e-17
2
-5.14001e-17
2
-9.33927e-17
2
1.80045e-16
2
4.11138e-17
2
-1.08854e-16
2
2.79179e-17
2
1.038e-16
2
5.77558e-17
2
-2.50966e-17
2
5.21079e-17
2
2.14625e-17
2
5.01238e-17
2
2.47583e-16
2
1.15246e-16
2
2.17504e-18
2
-1.3987e-16
2
-5.37415e-18
2
1.71922e-16
2
-6.79234e-17
2
-1.53088e-16
2
-1.19945e-16
2
-1.18235e-16
2
-8.75405e-20
2
2.57571e-17
2
7.61747e-17
2
9.46504e-18
2
3.52223e-17
2
1.3344e-16
2
9.31792e-17
2
-1.30013e-18
2
2.16642e-16
2
2.2296e-16
2
2.74683e-16
2
2.403e-16
2
2.78969e-16
2
4.60241e-16
2
3.28839e-16
2
2.82954e-16
2
1.96823e-16
2
3.32419e-16
2
7.39174e-17
2
1.70556e-16
2
2.69787e-16
2
2.56123e-16
2
1.35928e-16
2
2.56684e-16
2
3.10445e-16
2
2.32505e-16
2
1.51332e-16
2
3.18591e-16
2
3.67613e-16
2
3.49107e-16
2
3.22614e-16
2
2.88711e-16
2
2.99128e-16
2
1.96189e-16
2
9.90433e-17
2
-3.1751e-17
2
-1.17312e-16
2
-3.74368e-17
2
1.54094e-16
1.3942e-16
2
4.44317e-17
2
2.32008e-17
2
7.02924e-17
2
5.83279e-17
2
1.7645e-16
2
1.95279e-16
2
2.54407e-16
2
1.18856e-16
2
9.99224e-17
2
2.30199e-16
2
7.05456e-17
2
1.43361e-17
2
6.86771e-17
2
4.57565e-17
2
1.58976e-16
2
2.01526e-16
2
5.0952e-17
2
6.94042e-17
2
6.87913e-17
2
-7.28683e-17
2
6.67242e-17
2
4.41417e-17
2
1.77359e-16
2
2.15422e-16
2
2.75206e-16
2
3.10429e-16
2
3.15328e-16
2
3.6758e-16
2
2.4213e-16
2
2.10455e-16
2
1.92964e-16
2
2.16806e-16
2
2.20439e-16
2
3.47041e-16
2
4.17448e-16
2
2.71451e-16
2
6.59765e-17
2
1.83175e-16
2
1.70806e-16
2
1.41471e-16
2
1.51947e-16
2
2.1553e-16
2
1.08112e-16
2
2.04613e-16
2
3.25675e-16
2
3.28918e-16
2
2.50253e-16
2
3.01529e-16
2
1.84476e-16
2
1.32558e-16
2
9.51464e-17
2
2.20662e-16
2
2.73856e-16
2
3.01033e-17
2
-1.21198e-16
2
-2.24562e-17
2
-2.38846e-16
2
-1.69405e-16
2
1.23905e-17
2
1.20718e-17
2
-2.18808e-17
2
-2.0334e-17
2
-4.43017e-17
2
-1.316e-16
2
-9.24836e-17
2
-1.70759e-16
2
4.35395e-17
2
7.30649e-17
2
2.17619e-16
2
2.48171e-16
2
1.30802e-16
2
1.59171e-17
2
7.86934e-17
2
1.60715e-17
2
-2.04894e-16
2
-1.32228e-16
2
-2.18897e-17
2
2.82134e-17
2
-1.82749e-16
2
1.22081e-16
2
1.82706e-16
2
4.53406e-17
2
1.51048e-16
2
1.12191e-17
2
1.54374e-16
2
1.06167e-16
2
-1.02475e-16
2
4.7303e-17
2
3.8364e-17
2
-3.89377e-18
2
-2.81101e-17
2
-2.53757e-17
2
3.64591e-17
2
1.16936e-16
2
1.01465e-16
2
8.55522e-17
2
8.39705e-17
2
-1.2185e-17
2
-7.91883e-17
2
-1.01082e-16
2
-1.74795e-16
2
-6.81774e-17
2
3.23203e-17
2
-1.37486e-16
2
-1.07728e-16
2
1.24073e-17
2
6.21811e-17
2
9.87873e-17
2
7.47253e-17
2
1.79294e-16
2
1.65655e-16
2
1.50002e-16
2
2.10135e-16
2
1.79222e-16
2
2.02393e-16
2
-7.5118e-18
2
-2.96219e-17
2
6.06963e-17
2
2.1209e-16
2
1.35021e-16
2
1.19338e-16
2
2.76978e-16
2
1.47027e-16
2
3.98714e-17
2
-4.0024e-17
2
1.5584e-16
2
1.32489e-16
2
1.18051e-16
2
-7.91425e-18
2
-4.36269e-17
2
-1.35443e-16
2
-2.30962e-16
2
2.53635e-17
2
6.59202e-17
2
9.8525e-17
2
1.38894e-16
2
8.29667e-17
2
8.74355e-17
2
-3.96756e-17
2
2.02907e-16
2
2.08451e-16
2
2.67168e-16
2
1.02537e-16
2
3.30685e-17
2
1.9813e-16
2
2.52303e-16
2
1.37201e-16
2
1.1586e-16
2
5.75804e-17
2
1.2994e-16
2
8.4952e-18
2
1.61787e-16
2
5.52062e-17
2
-3.73797e-17
2
-1.7126e-16
2
-1.23966e-16
2
2.41273e-16
2
1.15271e-16
2
-6.11773e-17
2
-1.33931e-16
2
3.06e-17
2
8.59216e-17
2
1.48578e-16
2
1.01758e-16
2
1.25969e-16
2
1.23597e-17
2
2.3394e-16
2
2.21195e-16
2
2.64719e-16
2
3.64998e-16
2
2.63536e-16
2
3.45672e-16
2
3.88429e-16
2
1.31694e-16
2
2.15979e-16
2
2.73342e-16
2
4.01213e-16
2
2.34157e-16
2
3.899e-16
2
2.41832e-16
2
2.56896e-16
2
3.48421e-17
2
1.12479e-16
2
2.81905e-16
2
3.24519e-16
2
2.53304e-16
2
2.71756e-16
2
3.33377e-16
2
3.81169e-16
2
3.15482e-16
2
2.77991e-16
2
3.79976e-16
2
2.84204e-16
2
1.96129e-16
2
1.54223e-16
2
1.26687e-16
2
7.39386e-17
2
-9.18165e-17
2
-1.47316e-16
-8.57127e-18
2
1.05149e-16
2
1.86986e-16
2
1.43765e-16
2
1.96204e-16
2
1.62093e-16
2
1.66502e-16
2
1.8089e-16
2
2.3347e-16
2
1.40612e-16
2
1.28786e-16
2
5.74082e-17
2
7.54061e-18
2
-1.00373e-16
2
-1.36755e-16
2
-2.45128e-16
2
-1.43352e-16
2
-4.28441e-17
2
7.54412e-17
2
2.75918e-17
2
2.18458e-16
2
7.15653e-17
2
2.36603e-16
2
7.09386e-17
2
1.73364e-16
2
2.79693e-16
2
2.74221e-16
2
2.80351e-16
2
2.65074e-16
2
1.37514e-16
2
3.05642e-16
2
4.82824e-16
2
1.20058e-16
2
1.49644e-16
2
2.4805e-16
2
-2.62691e-17
2
2.74783e-16
2
2.72048e-16
2
2.08007e-16
2
2.91289e-16
2
2.06158e-16
2
1.14053e-16
2
-2.98126e-18
2
1.43084e-16
2
8.98739e-18
2
1.53709e-17
2
1.28702e-16
2
2.35756e-16
2
2.03113e-16
2
2.01314e-16
2
2.8143e-16
2
-1.94754e-17
2
-1.68476e-16
2
1.02641e-17
2
-9.31167e-17
2
-2.52538e-16
2
-3.22888e-16
2
-1.95265e-17
2
1.74474e-16
2
1.76715e-16
2
1.71866e-16
2
6.67909e-17
2
-3.09546e-17
2
3.50845e-17
2
1.20342e-16
2
8.87217e-17
2
2.44493e-16
2
7.09451e-17
2
9.53485e-17
2
3.3889e-16
2
2.54823e-16
2
1.96547e-16
2
2.43401e-16
2
1.25773e-16
2
8.71357e-17
2
-2.33183e-17
2
7.52879e-17
2
8.2939e-18
2
-6.51202e-17
2
2.16984e-16
2
1.26076e-16
2
4.02292e-17
2
1.41777e-16
2
8.56283e-17
2
1.70227e-16
2
-7.48593e-18
2
-1.57334e-16
2
-1.27116e-16
2
-1.51763e-16
2
9.18022e-18
2
1.15297e-17
2
-2.15178e-17
2
-8.42634e-18
2
4.96501e-17
2
8.73684e-17
2
8.77663e-17
2
6.83121e-17
2
-1.00308e-16
2
6.21931e-17
2
6.15609e-17
2
7.5551e-17
2
2.06995e-16
2
1.46787e-16
2
1.84725e-16
2
-5.51995e-17
2
-1.66575e-16
2
-1.36949e-16
2
1.82622e-17
2
9.66148e-17
2
1.30028e-16
2
1.18238e-16
2
7.39997e-17
2
2.87135e-16
2
2.30075e-16
2
1.3511e-16
2
-1.53898e-16
2
1.89975e-16
2
2.69574e-16
2
1.74688e-16
2
3.76674e-16
2
1.79114e-16
2
6.91857e-17
2
-1.76425e-16
2
1.59459e-16
2
2.4317e-16
2
1.11041e-16
2
2.30153e-16
2
1.47218e-16
2
2.41277e-16
2
1.04826e-16
2
-9.79855e-17
2
-1.79015e-16
2
-9.3085e-17
2
-6.73893e-17
2
7.40499e-17
2
-3.33877e-17
2
-1.00615e-16
2
1.10635e-16
2
1.77304e-16
2
2.07793e-16
2
1.82128e-16
2
6.01101e-17
2
9.43104e-17
2
4.14234e-16
2
3.04133e-16
2
6.28039e-16
2
3.0034e-16
2
5.00348e-17
2
1.10259e-16
2
2.17666e-16
2
1.35569e-16
2
-7.83449e-17
2
-1.34041e-16
2
9.70426e-17
2
1.54085e-16
2
1.75187e-16
2
1.57767e-16
2
3.46745e-17
2
-1.96867e-16
2
-4.40982e-17
2
1.01802e-16
2
5.73895e-18
2
5.08141e-17
2
-9.24709e-17
2
8.92974e-18
2
1.83102e-16
2
2.11302e-16
2
2.36472e-16
2
2.49507e-16
2
2.73219e-16
2
2.86614e-16
2
4.61687e-16
2
5.12783e-16
2
3.80088e-16
2
1.52097e-16
2
1.59741e-16
2
3.46496e-16
2
4.3172e-16
2
3.86171e-16
2
4.56967e-16
2
2.91944e-16
2
1.1617e-16
2
-2.03766e-17
2
2.61747e-16
2
3.19074e-16
2
6.50257e-17
2
2.2904e-16
2
2.17851e-16
2
4.159e-17
2
1.11555e-16
2
1.29295e-16
2
1.60877e-16
2
1.17886e-16
2
1.68461e-16
2
2.12095e-16
2
1.31518e-16
2
-1.07736e-17
2
1.4629e-16
2
-6.262e-17
2
-2.06847e-16
-2.7976e-16
2
8.6188e-17
2
1.69425e-16
2
4.51384e-17
2
-4.16325e-17
2
7.46841e-17
2
6.6225e-17
2
6.69935e-17
2
1.50511e-16
2
9.88792e-17
2
9.0971e-17
2
2.89759e-18
2
4.94546e-17
2
1.60866e-17
2
-2.45006e-18
2
-1.66235e-16
2
-1.90971e-16
2
-1.0526e-16
2
-1.68686e-16
2
-6.85158e-17
2
-9.34803e-17
2
1.011e-16
2
-1.80957e-16
2
2.9375e-17
2
2.14628e-16
2
1.73402e-16
2
3.41592e-16
2
3.763e-16
2
3.42018e-16
2
3.53677e-16
2
1.82589e-16
2
1.44295e-16
2
1.85949e-16
2
1.0853e-16
2
2.24745e-17
2
2.16794e-16
2
-6.32466e-20
2
-3.72883e-17
2
5.52097e-17
2
4.68496e-17
2
2.04409e-16
2
9.41203e-17
2
2.20884e-17
2
6.0719e-17
2
1.14867e-16
2
3.59361e-17
2
-5.6379e-17
2
4.15333e-17
2
1.81933e-16
2
1.646e-16
2
2.72092e-17
2
-1.4269e-16
2
-3.23902e-16
2
-2.81942e-16
2
6.70682e-17
2
1.22976e-16
2
7.34162e-17
2
1.07709e-16
2
3.31194e-17
2
2.29484e-17
2
5.33808e-17
2
1.69075e-16
2
1.83756e-16
2
1.05705e-16
2
1.18985e-17
2
1.01035e-16
2
1.95048e-17
2
2.79083e-16
2
2.3843e-16
2
2.32129e-16
2
1.68155e-16
2
4.56428e-17
2
5.33042e-17
2
-9.8559e-17
2
-5.47164e-19
2
2.43595e-16
2
2.04904e-16
2
2.79535e-16
2
1.51075e-16
2
3.03794e-16
2
3.50881e-16
2
4.31424e-17
2
-5.4724e-17
2
-2.79599e-17
2
-2.54877e-16
2
-1.47582e-16
2
-1.03673e-16
2
-3.13191e-17
2
-3.88651e-17
2
4.72587e-17
2
-1.44243e-17
2
-2.96899e-17
2
-2.51529e-17
2
2.82759e-17
2
6.43082e-17
2
9.84394e-18
2
2.2056e-18
2
1.46543e-16
2
1.90073e-16
2
2.82305e-17
2
1.27123e-16
2
-8.60331e-17
2
1.28691e-16
2
4.23951e-17
2
9.8345e-17
2
2.547e-16
2
1.57611e-16
2
-1.19779e-16
2
1.03927e-16
2
1.84225e-16
2
2.30069e-17
2
1.65885e-16
2
6.78452e-17
2
-1.06328e-16
2
-5.74916e-17
2
-1.05777e-16
2
-8.51703e-17
2
-1.35073e-16
2
2.18092e-17
2
1.09078e-16
2
1.87819e-16
2
1.54237e-16
2
1.56329e-16
2
1.631e-16
2
2.35702e-16
2
3.15399e-16
2
6.67501e-17
2
2.45425e-16
2
1.70386e-16
2
1.68035e-16
2
1.3789e-18
2
2.50151e-16
2
2.582e-16
2
1.19736e-16
2
3.09357e-17
2
1.54313e-16
2
6.84771e-17
2
1.27438e-16
2
3.04827e-16
2
3.19915e-16
2
1.74273e-16
2
1.99744e-16
2
1.78445e-16
2
3.19294e-17
2
2.24432e-16
2
9.62842e-17
2
2.1211e-16
2
3.12257e-16
2
2.75172e-16
2
-3.73613e-17
2
-3.06465e-17
2
1.64336e-16
2
1.90553e-16
2
6.66974e-17
2
2.4915e-17
2
5.13407e-17
2
4.10561e-17
2
-6.40701e-17
2
2.17272e-17
2
-1.56315e-16
2
-1.06563e-16
2
7.20309e-17
2
-4.50499e-17
2
-9.76246e-17
2
-7.74944e-17
2
-4.21354e-17
2
8.88376e-19
2
6.30541e-17
2
2.43789e-16
2
3.14816e-16
2
2.0424e-16
2
8.11551e-17
2
-8.79111e-17
2
-3.31161e-17
2
1.19811e-16
2
1.53125e-16
2
-5.93027e-19
2
4.78479e-17
2
7.47464e-17
2
5.36882e-17
2
8.05601e-17
2
1.51284e-16
2
9.91641e-17
2
5.70794e-17
2
-4.41966e-17
2
8.64142e-17
2
-1.35733e-17
2
1.06066e-16
2
1.24783e-16
2
1.03173e-16
2
1.06385e-16
2
5.95996e-17
2
-1.3305e-17
2
6.15628e-17
2
2.11597e-16
2
1.7249e-16
2
3.34808e-16
2
-5.86306e-17
2
1.19053e-16
2
1.33175e-16
1.41013e-16
2
-3.19811e-18
2
-1.51084e-16
2
-1.76649e-16
2
6.66081e-17
2
1.85397e-16
2
-3.53721e-17
2
-8.1804e-17
2
-2.08856e-16
2
6.25863e-17
2
9.51913e-17
2
2.55201e-16
2
1.68766e-16
2
6.86554e-17
2
7.56408e-17
2
2.38286e-17
2
-2.68735e-18
2
-9.99517e-17
2
-1.63195e-16
2
-7.67275e-17
2
-1.14294e-16
2
7.35244e-17
2
1.70092e-16
2
1.70725e-16
2
-4.12767e-17
2
4.60583e-19
2
1.90428e-16
2
1.40816e-16
2
1.65305e-16
2
3.20484e-17
2
4.51328e-17
2
-1.46267e-16
2
4.47781e-18
2
9.86847e-18
2
-1.26237e-17
2
-2.0778e-17
2
-8.9856e-17
2
-1.09846e-16
2
-6.1949e-17
2
-3.58961e-17
2
-1.84063e-16
2
2.64644e-17
2
-8.55104e-17
2
-2.14297e-17
2
-7.26381e-17
2
8.15165e-17
2
8.37268e-17
2
-6.92517e-17
2
-7.1357e-18
2
-1.05885e-16
2
-6.85591e-17
2
-1.53233e-16
2
-2.25894e-16
2
-1.73953e-16
2
-1.00152e-16
2
-2.30562e-17
2
1.15451e-16
2
1.20633e-16
2
9.78616e-18
2
-8.10968e-17
2
-4.48822e-17
2
-4.4416e-17
2
3.61962e-17
2
1.38869e-16
2
2.22136e-16
2
2.40716e-16
2
3.761e-16
2
3.51305e-16
2
2.87432e-16
2
1.3798e-16
2
1.78591e-16
2
1.43681e-16
2
-1.22505e-16
2
1.46199e-16
2
1.6349e-16
2
2.43033e-16
2
2.3769e-16
2
2.23167e-16
2
4.84056e-16
2
4.46826e-16
2
9.93256e-17
2
4.90565e-17
2
-1.36223e-17
2
-7.71358e-17
2
6.99525e-17
2
4.40478e-17
2
7.38762e-17
2
1.93477e-16
2
7.33511e-17
2
-6.45931e-17
2
1.13215e-17
2
9.73163e-17
2
-8.3815e-17
2
7.23942e-17
2
-4.3798e-18
2
1.94923e-16
2
5.73115e-17
2
1.44942e-16
2
1.10854e-16
2
1.48463e-16
2
1.30867e-16
2
8.46494e-17
2
-2.34415e-17
2
6.52928e-17
2
6.05007e-17
2
5.00732e-18
2
2.57083e-17
2
1.83758e-17
2
-2.08732e-16
2
-2.11349e-17
2
9.38312e-17
2
7.73036e-17
2
-1.51516e-16
2
-2.11781e-16
2
-2.62367e-17
2
-1.05803e-17
2
-1.95822e-16
2
-1.20754e-16
2
3.82221e-17
2
-2.39791e-17
2
-5.74169e-17
2
-3.58543e-17
2
-1.10287e-16
2
3.31907e-17
2
1.32382e-16
2
1.08634e-16
2
5.99458e-17
2
2.27409e-16
2
1.07444e-16
2
6.82647e-19
2
1.96909e-16
2
1.15207e-16
2
2.34854e-16
2
2.60915e-16
2
2.55434e-16
2
1.09719e-16
2
2.49565e-16
2
1.9993e-16
2
2.63572e-16
2
1.96492e-16
2
1.50769e-16
2
1.29486e-16
2
1.41237e-16
2
3.66547e-16
2
4.29839e-16
2
2.82406e-16
2
1.89161e-16
2
2.35248e-16
2
3.31029e-17
2
1.70091e-17
2
-1.20525e-16
2
-5.54953e-17
2
9.07796e-17
2
2.55124e-16
2
8.38191e-17
2
-1.62885e-16
2
-6.54863e-18
2
5.84175e-17
2
1.34106e-16
2
4.66454e-17
2
-6.20038e-17
2
-1.52169e-16
2
-1.89536e-16
2
-1.06217e-16
2
-1.46974e-16
2
-1.54209e-16
2
-4.64689e-17
2
4.99524e-17
2
1.49693e-16
2
2.02053e-16
2
2.83442e-16
2
2.47275e-16
2
1.49908e-16
2
4.61453e-18
2
-1.66237e-17
2
8.99659e-17
2
6.37531e-17
2
-6.61028e-17
2
1.38355e-16
2
2.26546e-16
2
3.86002e-17
2
2.68604e-17
2
3.35892e-16
2
-6.40362e-17
2
-1.5937e-16
2
9.85352e-19
2
9.10183e-17
2
1.44387e-16
2
2.14916e-16
2
1.41528e-16
2
2.05607e-16
2
7.94724e-17
2
2.72336e-16
2
2.44728e-16
2
2.68895e-16
2
3.59134e-16
2
1.00846e-16
2
2.38214e-16
2
1.53722e-16
2
9.71663e-17
8.54956e-17
2
-1.95401e-16
2
-3.26692e-16
2
-4.2438e-17
2
-3.91897e-17
2
-2.20275e-16
2
-1.74845e-16
2
2.53215e-17
2
7.61971e-17
2
-7.37192e-17
2
9.40694e-17
2
4.20185e-17
2
1.48508e-18
2
1.072e-16
2
2.03578e-16
2
1.55341e-16
2
1.58116e-16
2
8.3885e-17
2
-8.7938e-17
2
-1.09296e-16
2
-3.46994e-17
2
1.30607e-16
2
1.34408e-16
2
1.36988e-16
2
5.84366e-17
2
1.70638e-17
2
2.49482e-16
2
2.25897e-16
2
1.08997e-16
2
7.73803e-17
2
-2.04628e-16
2
-2.64127e-16
2
-8.54087e-17
2
-1.14396e-16
2
-1.34063e-16
2
-1.63528e-16
2
-2.13272e-16
2
-1.98432e-16
2
-1.43081e-16
2
2.97159e-17
2
3.32727e-17
2
-6.2118e-17
2
1.32746e-16
2
6.70609e-17
2
1.09309e-17
2
-9.32791e-17
2
4.09877e-17
2
1.35813e-16
2
4.99994e-17
2
3.31748e-20
2
-2.84557e-17
2
-1.33272e-16
2
-1.15275e-16
2
-1.74501e-16
2
-5.17014e-17
2
-8.79425e-17
2
-6.06259e-17
2
-2.11115e-16
2
-8.9992e-17
2
1.37479e-16
2
2.3908e-17
2
5.71498e-17
2
1.28012e-16
2
5.67607e-17
2
-3.63158e-17
2
1.60961e-16
2
2.61222e-16
2
3.55491e-16
2
2.53834e-16
2
1.45645e-16
2
1.47936e-16
2
-5.83929e-17
2
1.83799e-17
2
1.69992e-16
2
2.33097e-16
2
3.47099e-16
2
2.81656e-16
2
4.47228e-16
2
2.86217e-16
2
1.2047e-16
2
1.39223e-16
2
2.82594e-16
2
2.04038e-16
2
2.39772e-16
2
1.00081e-16
2
1.89649e-16
2
1.69401e-16
2
1.66607e-16
2
1.81409e-16
2
1.26637e-16
2
1.22018e-16
2
2.7054e-17
2
8.99006e-17
2
-8.80882e-17
2
7.98245e-17
2
-2.03324e-16
2
6.65939e-18
2
4.49494e-17
2
3.96858e-17
2
5.88474e-17
2
-1.36963e-16
2
-1.00862e-17
2
-2.92303e-16
2
-2.26701e-16
2
-7.27598e-17
2
2.27591e-17
2
-9.32252e-17
2
-1.00154e-16
2
-1.26753e-16
2
-4.01371e-17
2
-6.75084e-17
2
-1.40601e-16
2
-1.13482e-16
2
-7.02976e-17
2
-1.12466e-16
2
1.00171e-17
2
7.77065e-17
2
1.75058e-17
2
3.69748e-17
2
7.26535e-18
2
-2.15334e-17
2
-1.81158e-16
2
-7.3341e-18
2
3.09066e-17
2
1.25505e-16
2
1.87947e-16
2
2.55193e-16
2
1.7981e-16
2
1.19177e-16
2
1.43633e-16
2
1.67786e-16
2
2.22151e-16
2
1.01895e-16
2
-7.19054e-17
2
1.29112e-16
2
4.47094e-17
2
5.86841e-17
2
1.10186e-16
2
-4.15423e-17
2
4.73198e-17
2
2.36958e-16
2
3.08057e-16
2
9.88358e-17
2
1.07736e-16
2
3.07038e-16
2
6.08271e-17
2
1.89674e-16
2
3.05488e-16
2
2.70461e-16
2
6.62581e-17
2
2.08296e-16
2
2.06126e-16
2
8.69696e-17
2
4.22806e-17
2
-5.69977e-17
2
-1.13463e-16
2
-1.62307e-16
2
8.17076e-17
2
-1.6078e-16
2
-2.5014e-16
2
-1.63056e-16
2
-1.62272e-16
2
3.74424e-17
2
6.17983e-17
2
-8.12769e-17
2
-2.1979e-16
2
8.67426e-17
2
1.91249e-16
2
2.04049e-16
2
9.85556e-17
2
3.63853e-17
2
8.96597e-17
2
7.42097e-17
2
9.31541e-17
2
-4.08427e-17
2
-3.62333e-17
2
5.22069e-17
2
1.10746e-16
2
5.41138e-17
2
-3.21582e-17
2
-3.83263e-17
2
6.39246e-17
2
-9.41198e-18
2
-6.17269e-19
2
1.6113e-17
2
-1.57842e-17
2
1.05485e-16
2
1.05541e-16
2
4.22169e-18
2
6.9883e-17
2
1.40372e-16
2
3.63065e-16
2
4.07164e-16
2
4.21592e-16
2
3.55225e-16
2
2.2011e-16
2
3.01074e-16
2
1.78974e-16
2
9.13532e-17
2
-1.59413e-17
1.09393e-16
2
-7.09587e-17
2
6.98385e-17
2
4.1103e-17
2
-8.13627e-17
2
-5.74109e-17
2
3.60581e-17
2
-3.49809e-17
2
1.63117e-16
2
3.96179e-17
2
1.77363e-17
2
4.96604e-17
2
-1.84476e-16
2
-1.14657e-16
2
-2.03076e-16
2
-1.25927e-16
2
-4.36124e-17
2
-1.19289e-16
2
-1.98966e-16
2
-1.58246e-16
2
3.22731e-17
2
-1.46304e-17
2
7.97496e-17
2
9.29414e-17
2
3.34902e-17
2
2.3212e-16
2
-1.82015e-16
2
-5.65306e-17
2
1.7433e-18
2
1.07495e-17
2
-7.49878e-17
2
-1.08024e-16
2
-3.20918e-16
2
-2.71725e-16
2
-2.88545e-16
2
-2.93336e-16
2
-3.09485e-16
2
-2.94961e-16
2
-2.88742e-16
2
-1.12003e-16
2
6.30736e-18
2
8.5044e-17
2
1.95051e-16
2
1.11763e-16
2
1.33229e-16
2
-2.12343e-17
2
7.39841e-17
2
7.3657e-17
2
3.44782e-17
2
2.68958e-17
2
4.87451e-17
2
1.32328e-16
2
1.06682e-16
2
-1.26039e-16
2
-2.64002e-16
2
-1.79876e-16
2
-1.4339e-16
2
-7.3504e-17
2
-8.76707e-17
2
2.00987e-17
2
-1.20724e-16
2
2.51215e-18
2
-1.12049e-16
2
-1.13487e-16
2
-1.03325e-16
2
-1.83531e-16
2
1.33572e-16
2
5.65749e-17
2
1.60254e-16
2
3.54094e-18
2
-1.29966e-16
2
-1.75386e-17
2
-1.36854e-16
2
2.17266e-17
2
-3.755e-17
2
-1.8207e-16
2
1.53882e-16
2
1.22421e-16
2
1.18839e-16
2
4.37766e-17
2
9.57088e-17
2
2.65456e-16
2
2.36059e-16
2
1.22329e-16
2
1.80005e-16
2
1.59551e-16
2
1.00277e-16
2
1.16526e-16
2
2.20105e-16
2
1.18419e-16
2
1.8577e-16
2
1.95827e-16
2
5.98251e-17
2
-6.73868e-17
2
-2.01797e-16
2
-1.19246e-16
2
-1.81031e-16
2
1.86842e-17
2
-5.82953e-17
2
-1.49015e-16
2
-1.44041e-16
2
2.50969e-17
2
1.69577e-16
2
-2.51958e-17
2
7.32217e-17
2
-1.16052e-16
2
-2.23617e-16
2
-1.2532e-16
2
-1.73324e-17
2
-2.03211e-16
2
-2.62486e-17
2
8.03723e-17
2
2.91657e-17
2
-1.67554e-16
2
-9.73438e-17
2
-1.40907e-16
2
-2.0555e-16
2
-1.46806e-16
2
-1.6745e-16
2
-1.6053e-16
2
-7.26155e-17
2
3.89e-17
2
-3.85249e-17
2
5.15434e-17
2
9.58533e-17
2
2.34654e-16
2
2.70576e-16
2
3.03062e-17
2
4.43812e-17
2
-2.95903e-17
2
-5.55484e-18
2
1.28266e-16
2
2.48559e-16
2
1.02033e-16
2
-7.67463e-17
2
1.97643e-16
2
1.94791e-16
2
5.04845e-17
2
-5.54535e-17
2
-1.24075e-17
2
7.42409e-17
2
1.67534e-16
2
1.61456e-16
2
-1.01941e-16
2
-2.26773e-16
2
-1.84772e-17
2
-1.49295e-16
2
-2.94216e-16
2
1.63473e-16
2
1.58579e-16
2
5.16989e-17
2
-3.55645e-17
2
-9.24019e-17
2
-1.14821e-16
2
-2.076e-16
2
-1.03631e-16
2
-1.70483e-16
2
-1.27915e-16
2
-2.7065e-17
2
-1.1059e-16
2
-3.3989e-17
2
1.21356e-16
2
5.30328e-18
2
6.8464e-17
2
2.59232e-17
2
2.25564e-16
2
-1.13535e-17
2
-7.25303e-17
2
-9.18707e-17
2
-1.05858e-16
2
5.34046e-17
2
-3.74012e-17
2
1.88839e-17
2
7.47589e-18
2
3.24861e-16
2
2.34973e-16
2
7.04663e-17
2
-7.36153e-19
2
3.43569e-17
2
-2.1637e-16
2
-6.87433e-17
2
-6.38503e-17
2
8.08281e-17
2
2.23931e-16
2
2.75027e-16
2
2.09073e-16
2
1.03326e-16
2
5.15012e-17
2
8.10279e-17
2
3.35439e-17
2
3.59569e-17
2
1.12989e-17
2
1.96067e-16
2
8.06575e-17
2
-7.01186e-17
2
5.34462e-18
2
1.90061e-16
2
-9.77998e-18
2
-3.00791e-17
2
7.58388e-17
3.73726e-17
2
-9.70937e-17
2
-2.93482e-17
2
1.02844e-17
2
-3.62755e-17
2
-3.55973e-17
2
4.68873e-17
2
3.66498e-17
2
-1.07642e-16
2
5.39297e-17
2
4.73385e-17
2
-7.22371e-17
2
1.53225e-16
2
-2.33809e-16
2
-2.10543e-16
2
4.14789e-17
2
-7.93429e-17
2
-5.85484e-17
2
1.27907e-16
2
-8.54241e-17
2
-2.56794e-16
2
-3.03473e-16
2
-1.08579e-16
2
-8.9313e-17
2
2.07394e-17
2
-5.3071e-17
2
-1.18638e-16
2
-1.17049e-17
2
1.09535e-17
2
1.20559e-17
2
2.3592e-17
2
-2.25944e-16
2
-3.34241e-16
2
-2.94437e-16
2
-4.07709e-16
2
-3.71386e-16
2
-3.53723e-16
2
-3.45897e-16
2
-2.757e-16
2
-1.35979e-16
2
-2.59312e-17
2
2.75977e-17
2
-1.16777e-16
2
-7.42515e-17
2
-1.41424e-16
2
1.3992e-16
2
1.56871e-16
2
5.76436e-17
2
2.63737e-18
2
6.73002e-17
2
8.37957e-17
2
1.43563e-16
2
1.6338e-16
2
1.00958e-16
2
-2.39471e-17
2
7.93121e-18
2
-4.96715e-17
2
3.45726e-17
2
8.30007e-17
2
-2.05217e-16
2
-1.89348e-16
2
-1.56932e-16
2
-1.95247e-16
2
-5.03557e-17
2
6.46333e-17
2
1.82826e-16
2
1.04899e-16
2
5.30593e-17
2
-1.07059e-16
2
-7.29314e-17
2
-6.60303e-17
2
-2.63664e-17
2
6.11679e-17
2
-1.14855e-16
2
-1.01519e-16
2
-1.13149e-16
2
-3.39539e-16
2
-1.65439e-16
2
8.21858e-17
2
3.12546e-16
2
3.66741e-16
2
3.22666e-16
2
2.63557e-16
2
1.37895e-16
2
2.25275e-16
2
1.00076e-16
2
-1.14473e-16
2
1.09295e-16
2
1.42726e-17
2
2.35098e-16
2
2.67402e-16
2
-9.91441e-18
2
-3.26131e-17
2
-8.53068e-17
2
-2.43205e-16
2
-2.19106e-16
2
-1.67081e-16
2
-3.49817e-16
2
-1.63264e-16
2
3.34588e-17
2
2.33635e-16
2
6.06019e-17
2
1.1274e-17
2
-3.77591e-17
2
-1.30512e-16
2
7.08179e-17
2
7.5355e-17
2
-2.26011e-16
2
-1.35073e-16
2
2.0417e-16
2
1.4322e-16
2
-9.84748e-17
2
-8.77594e-17
2
8.54128e-17
2
-4.50267e-17
2
1.85202e-17
2
1.00617e-16
2
-1.85266e-17
2
-1.08077e-16
2
-1.20655e-16
2
-2.34908e-16
2
-3.30479e-16
2
-6.58633e-17
2
7.89654e-17
2
8.17091e-17
2
5.62831e-17
2
-3.65914e-17
2
-4.80755e-18
2
7.61804e-17
2
1.9578e-16
2
2.08635e-16
2
7.2097e-17
2
-1.01128e-16
2
-2.27043e-17
2
-9.91842e-17
2
-1.17716e-16
2
-6.13839e-17
2
3.09884e-18
2
-6.19e-18
2
3.02824e-17
2
4.52712e-17
2
-1.06127e-16
2
4.92222e-17
2
1.54823e-16
2
1.01683e-16
2
-5.88447e-17
2
-2.20994e-17
2
-1.72075e-17
2
-1.40212e-16
2
4.79231e-17
2
7.67319e-18
2
2.5736e-17
2
-1.01913e-16
2
-2.88308e-16
2
-1.23454e-16
2
2.86244e-18
2
1.53498e-16
2
-5.98176e-17
2
-6.81221e-17
2
1.76129e-16
2
2.36259e-17
2
1.7217e-17
2
-2.97788e-17
2
1.01202e-17
2
2.47229e-16
2
1.89396e-16
2
1.32305e-16
2
-6.5176e-17
2
-2.01563e-16
2
-1.92924e-16
2
-3.03156e-16
2
-1.87971e-16
2
-2.1378e-16
2
-5.46048e-17
2
1.06553e-16
2
1.35235e-16
2
2.17241e-16
2
6.66017e-17
2
-6.77847e-17
2
4.88992e-17
2
-3.9612e-17
2
7.10022e-17
2
1.81775e-16
2
5.72057e-17
2
6.63298e-17
2
-9.35075e-17
2
1.79572e-17
2
-5.29887e-17
2
-1.32752e-16
2
-6.42523e-17
2
1.16613e-18
2
2.37879e-17
2
-1.49758e-16
2
-9.83973e-17
2
-1.37685e-16
2
-1.22463e-16
2
-1.81578e-16
2
-1.14079e-16
2
-8.1691e-17
2
-3.20556e-17
-3.17897e-17
2
-2.14187e-16
2
1.22778e-17
2
-2.42756e-17
2
-4.75725e-17
2
-3.11357e-17
2
5.93682e-17
2
-9.6679e-17
2
-2.81387e-17
2
7.06188e-18
2
-1.85018e-17
2
-2.12015e-16
2
-1.5192e-16
2
1.15918e-16
2
8.59245e-17
2
-3.88679e-16
2
-4.61472e-16
2
-2.22105e-16
2
-3.27223e-17
2
2.93079e-17
2
-9.31289e-17
2
-3.34413e-16
2
-2.28358e-16
2
-6.30425e-17
2
-1.19936e-17
2
-2.08548e-16
2
-1.79877e-16
2
-1.8214e-16
2
1.86513e-17
2
-1.40052e-16
2
-1.8476e-16
2
-1.60726e-16
2
-8.55118e-17
2
-1.55763e-16
2
-1.21318e-16
2
-2.23755e-16
2
-2.6552e-16
2
-3.92298e-16
2
-2.74576e-16
2
-1.65629e-16
2
-2.40699e-17
2
2.07522e-18
2
4.49778e-17
2
8.89329e-17
2
-1.13359e-16
2
-5.25948e-17
2
-2.06294e-16
2
2.34045e-17
2
8.19992e-18
2
-1.31984e-16
2
-1.53307e-16
2
-3.433e-17
2
5.228e-17
2
-1.24431e-16
2
-1.44123e-16
2
1.24646e-16
2
1.23076e-16
2
1.49057e-16
2
4.30224e-17
2
-6.5518e-17
2
-9.89424e-17
2
-1.93731e-16
2
1.08967e-16
2
1.36327e-16
2
2.96203e-16
2
2.15353e-16
2
2.63988e-17
2
1.04963e-16
2
-1.96858e-16
2
-1.71384e-16
2
-1.29596e-16
2
-8.321e-17
2
1.07398e-17
2
2.88994e-17
2
1.34051e-17
2
-1.61511e-16
2
-2.13132e-16
2
-3.20543e-16
2
-2.27333e-16
2
-4.46027e-17
2
2.47975e-16
2
-1.4983e-16
2
-2.35077e-16
2
-5.15128e-17
2
3.4935e-17
2
1.27926e-16
2
1.61385e-16
2
1.94075e-17
2
6.38877e-17
2
1.24538e-16
2
1.62384e-16
2
-8.85595e-17
2
-1.20232e-16
2
-3.54981e-17
2
-2.20906e-17
2
-2.71392e-16
2
-3.44373e-16
2
-1.76979e-16
2
-9.94204e-17
2
6.77288e-18
2
-2.06573e-16
2
-1.76172e-16
2
-1.65647e-16
2
-1.43241e-16
2
-9.08825e-17
2
-1.37641e-16
2
-2.70806e-16
2
-1.24845e-16
2
-2.34693e-16
2
5.81131e-18
2
-1.25992e-16
2
-1.95314e-18
2
4.42782e-17
2
1.46523e-16
2
2.06275e-16
2
1.69483e-16
2
8.52255e-17
2
4.78093e-17
2
-2.17194e-17
2
-2.37869e-16
2
-2.82422e-16
2
-1.02306e-16
2
-1.00588e-16
2
-1.40673e-16
2
-2.85822e-17
2
7.00872e-17
2
1.01705e-17
2
-8.45617e-17
2
9.06887e-17
2
5.86954e-17
2
4.29271e-17
2
4.0841e-17
2
-9.7598e-17
2
-1.84324e-16
2
-1.28043e-16
2
-2.50887e-17
2
2.23085e-16
2
1.66843e-16
2
1.39815e-16
2
1.47934e-16
2
1.25994e-16
2
4.66808e-18
2
-1.09565e-17
2
5.96006e-17
2
-8.67332e-17
2
-1.37444e-17
2
-1.63367e-17
2
-2.03012e-16
2
-2.74642e-16
2
-1.4491e-16
2
-6.85648e-17
2
3.1656e-17
2
-2.08172e-17
2
-2.6581e-16
2
-1.938e-16
2
-1.53881e-16
2
-2.32794e-16
2
-2.39081e-16
2
-1.01584e-16
2
-4.72334e-17
2
4.92336e-17
2
7.16454e-17
2
-1.46283e-16
2
-3.79542e-17
2
6.08825e-17
2
1.04254e-16
2
-1.76747e-18
2
-2.57862e-16
2
-2.46862e-16
2
-3.08008e-16
2
-4.57377e-16
2
-4.70187e-16
2
-3.93506e-16
2
-2.02523e-16
2
-1.05745e-16
2
6.17759e-17
2
6.19244e-17
2
-6.15424e-17
2
9.40929e-17
2
-7.00961e-17
2
1.52252e-16
2
2.90881e-16
2
7.35791e-17
2
1.54886e-16
2
8.63808e-19
2
-1.49644e-16
2
-8.17932e-17
2
5.50863e-17
2
7.49114e-17
2
-5.88166e-17
2
-2.78291e-16
2
-8.97268e-17
2
-1.41634e-16
2
-1.11641e-16
2
-1.18222e-16
2
-9.9503e-17
2
-1.14564e-16
2
-8.99413e-17
2
-7.71492e-17
2
-8.6981e-17
-1.92246e-16
2
-1.14285e-16
2
-2.42804e-16
2
-1.18076e-17
2
-8.29938e-17
2
-3.85331e-17
2
6.96261e-17
2
1.03395e-16
2
-3.93483e-18
2
-1.53473e-16
2
-1.92689e-16
2
4.53461e-17
2
-6.27122e-18
2
3.49279e-17
2
-1.27403e-16
2
-2.62249e-16
2
-2.60944e-16
2
-1.50687e-16
2
2.51397e-17
2
-7.84609e-17
2
-1.93724e-16
2
-1.16842e-16
2
-2.38924e-16
2
-1.63057e-16
2
-1.61702e-16
2
-1.13939e-16
2
-1.10463e-16
2
2.10994e-17
2
-1.63052e-18
2
-4.96106e-17
2
-1.10659e-16
2
-9.9761e-17
2
-1.27083e-16
2
-5.18108e-17
2
-4.21601e-17
2
-5.8536e-17
2
3.34891e-17
2
-4.48821e-17
2
-4.97125e-17
2
-8.02611e-17
2
-2.95489e-16
2
-1.56265e-17
2
1.8567e-16
2
3.25914e-17
2
4.32636e-17
2
-1.37196e-16
2
-4.79926e-17
2
-7.9962e-17
2
-1.53928e-16
2
-1.2751e-16
2
-2.76801e-16
2
-3.07151e-17
2
-1.35481e-16
2
-1.90362e-17
2
2.88521e-17
2
-3.33821e-16
2
-1.37216e-16
2
-2.14424e-17
2