/*--------------------------------*- C++ -*----------------------------------*\
  =========                 |
  \\      /  F ield         | OpenFOAM: The Open Source CFD Toolbox
   \\    /   O peration     | Website:  https://openfoam.org
    \\  /    A nd           | Version:  6
     \\/     M anipulation  |
\*---------------------------------------------------------------------------*/
FoamFile
{
    version     2.0;
    format      ascii;
    class       volVectorField;
    location    "170";
    object      U;
}
// * * * * * * * * * * * * * * * * * * * * * * * * * * * * * * * * * * * * * //

dimensions      [0 1 -1 0 0 0 0];

internalField   nonuniform List<vector> 
4000
(
(400 5.34064e-14 0)
(400 6.27358e-14 0)
(400 5.94934e-14 0)
(400 6.26727e-14 0)
(400 6.26798e-14 0)
(400 6.15811e-14 0)
(400 6.05079e-14 0)
(400 5.41172e-14 0)
(400 6.06762e-14 0)
(400 6.09131e-14 0)
(400 7.07615e-14 0)
(400 8.33084e-14 0)
(400 6.86436e-14 0)
(400 6.08714e-14 0)
(400 7.18089e-14 0)
(400 6.42831e-14 0)
(400 4.25925e-14 0)
(400 1.51911e-14 0)
(400 7.51602e-15 0)
(400 5.26933e-15 0)
(400 4.15901e-15 0)
(400 1.12026e-14 0)
(400 1.88217e-14 0)
(400 1.39723e-14 0)
(400 1.74952e-14 0)
(400 1.73956e-14 0)
(400 2.02135e-14 0)
(400 3.44976e-14 0)
(400 4.69969e-14 0)
(400 6.05831e-14 0)
(400 5.42434e-14 0)
(400 4.27055e-14 0)
(400 3.77229e-14 0)
(400 1.86744e-14 0)
(400 1.11032e-14 0)
(400 5.96722e-15 0)
(400 -8.72334e-15 0)
(400 -2.39266e-14 0)
(400 -2.89034e-14 0)
(400 -2.7872e-14 0)
(400 -1.42577e-14 0)
(400 -1.37383e-14 0)
(400 -2.18984e-14 0)
(400 -1.236e-14 0)
(400 1.3818e-15 0)
(400 1.33243e-14 0)
(400 2.12072e-14 0)
(400 2.60612e-14 0)
(400 2.77458e-14 0)
(400 3.10165e-14 0)
(400 2.93219e-14 0)
(400 3.00461e-14 0)
(400 2.74025e-14 0)
(400 2.23475e-14 0)
(400 2.6506e-14 0)
(400 2.59591e-14 0)
(400 2.53287e-14 0)
(400 2.27522e-14 0)
(400 8.59309e-15 0)
(400 -7.77999e-15 0)
(400 -3.71953e-14 0)
(400 -6.00874e-14 0)
(400 -6.5302e-14 0)
(400 -5.88011e-14 0)
(400 -4.45447e-14 0)
(400 -1.75489e-14 0)
(400 -1.68015e-14 0)
(400 -7.63079e-15 0)
(400 1.33072e-14 0)
(400 1.26182e-14 0)
(400 1.20208e-14 0)
(400 8.80875e-15 0)
(400 -6.64516e-15 0)
(400 -3.5429e-15 0)
(400 2.0168e-15 0)
(400 -2.39902e-15 0)
(400 -7.844e-15 0)
(400 -9.01777e-15 0)
(400 -6.80319e-15 0)
(400 -1.4262e-14 0)
(400 -1.35149e-14 0)
(400 1.0957e-15 0)
(400 3.45726e-15 0)
(400 -1.17223e-14 0)
(400 -2.86545e-14 0)
(400 -3.08723e-14 0)
(400 -2.28001e-14 0)
(400 -2.52755e-14 0)
(400 -4.32087e-14 0)
(400 -4.94597e-14 0)
(400 -3.84801e-14 0)
(400 -1.22289e-14 0)
(400 8.26626e-15 0)
(400 2.16598e-14 0)
(400 3.26547e-14 0)
(400 4.39296e-14 0)
(400 2.44462e-14 0)
(400 3.43754e-14 0)
(400 4.40185e-14 0)
(400 4.3244e-14 0)
(400 5.219e-14 0)
(400 5.15636e-14 0)
(400 5.73544e-14 0)
(400 5.45846e-14 0)
(400 3.02268e-14 0)
(400 8.36343e-15 0)
(400 7.08509e-15 0)
(400 3.49688e-16 0)
(400 -1.97983e-14 0)
(400 -4.04175e-14 0)
(400 -3.84971e-14 0)
(400 -1.15194e-14 0)
(400 -4.93642e-15 0)
(400 -1.05939e-15 0)
(400 2.387e-14 0)
(400 3.80829e-14 0)
(400 4.64395e-14 0)
(400 5.11571e-14 0)
(400 6.26242e-14 0)
(400 9.46896e-14 0)
(400 1.12706e-13 0)
(400 1.26225e-13 0)
(400 1.23771e-13 0)
(400 1.15879e-13 0)
(400 1.07998e-13 0)
(400 9.47213e-14 0)
(400 7.26398e-14 0)
(400 4.85716e-14 0)
(400 2.89399e-14 0)
(400 3.41985e-14 0)
(400 3.11387e-14 0)
(400 2.35405e-14 0)
(400 1.17256e-14 0)
(400 3.79315e-15 0)
(400 2.48218e-15 0)
(400 7.89132e-15 0)
(400 1.41815e-14 0)
(400 3.27333e-14 0)
(400 2.93147e-14 0)
(400 3.04793e-14 0)
(400 2.25885e-14 0)
(400 2.45441e-14 0)
(400 4.80517e-14 0)
(400 2.80448e-14 0)
(400 7.7154e-15 0)
(400 1.72933e-14 0)
(400 2.46555e-14 0)
(400 1.18635e-14 0)
(400 3.36458e-14 0)
(400 4.43885e-14 0)
(400 4.59581e-14 0)
(400 4.63029e-14 0)
(400 3.78305e-14 0)
(400 3.62435e-14 0)
(400 2.35196e-14 0)
(400 1.0465e-14 0)
(400 -1.52811e-15 0)
(400 -6.23251e-15 0)
(400 -2.22299e-14 0)
(400 -3.49082e-14 0)
(400 -3.44006e-14 0)
(400 -1.59027e-14 0)
(400 5.72848e-16 0)
(400 2.65033e-14 0)
(400 5.82972e-14 0)
(400 9.05701e-14 0)
(400 9.37426e-14 0)
(400 8.20295e-14 0)
(400 6.15162e-14 0)
(400 4.91281e-14 0)
(400 2.86657e-14 0)
(400 2.1728e-14 0)
(400 1.76824e-14 0)
(400 2.38058e-14 0)
(400 2.51365e-14 0)
(400 2.11329e-14 0)
(400 2.19481e-14 0)
(400 4.36439e-14 0)
(400 4.41248e-14 0)
(400 1.99929e-14 0)
(400 -8.98108e-15 0)
(400 -3.38715e-15 0)
(400 -9.43399e-15 0)
(400 -1.22788e-14 0)
(400 -9.94842e-15 0)
(400 -1.16754e-15 0)
(400 7.1198e-15 0)
(400 -3.59579e-15 0)
(400 -1.01722e-14 0)
(400 1.01967e-14 0)
(400 3.16732e-14 0)
(400 1.90244e-14 0)
(400 3.64753e-15 0)
(400 6.58147e-15 0)
(400 2.65286e-14 0)
(400 4.55198e-14 0)
(400 4.4572e-14 0)
(400 4.10929e-14 0)
(400 2.17507e-14 0)
(400 -6.58396e-16 0)
(400 6.64967e-15 0)
(400 1.31464e-14 0)
(400 1.96061e-14 0)
(400 3.4999e-14 0)
(400 3.95701e-14 0)
(400 4.96289e-14 0)
(400 6.47429e-14 0)
(400 8.49504e-14 0)
(400 9.73896e-14 0)
(400 9.46492e-14 0)
(400 8.09631e-14 0)
(400 6.24493e-14 0)
(400 3.70849e-14 0)
(400 2.00684e-14 0)
(400 2.14295e-14 0)
(400 3.9609e-15 0)
(400 6.46084e-15 0)
(400 2.09482e-14 0)
(400 1.61097e-14 0)
(400 2.07492e-14 0)
(400 2.04979e-14 0)
(400 1.8807e-14 0)
(400 1.36163e-14 0)
(400 2.94079e-14 0)
(400 2.76727e-14 0)
(400 2.69047e-14 0)
(400 2.35467e-14 0)
(400 2.93206e-14 0)
(400 4.38726e-14 0)
(400 4.70493e-14 0)
(400 6.06265e-14 0)
(400 5.65374e-14 0)
(400 3.87012e-14 0)
(400 -2.79382e-15 0)
(400 -2.03288e-14 0)
(400 -1.10114e-14 0)
(400 1.05573e-14 0)
(400 9.04032e-15 0)
(400 3.56766e-15 0)
(400 1.00961e-15 0)
(400 6.72639e-15 0)
(400 2.84802e-15 0)
(400 4.23204e-15 0)
(400 1.47563e-14 0)
(400 2.58483e-14 0)
(400 4.99986e-14 0)
(400 6.37326e-14 0)
(400 5.09813e-14 0)
(400 3.91508e-14 0)
(400 3.24993e-14 0)
(400 3.97924e-14 0)
(400 3.7014e-14 0)
(400 2.58853e-14 0)
(400 2.94831e-14 0)
(400 1.76448e-14 0)
(400 1.07509e-14 0)
(400 1.3019e-14 0)
(400 7.76719e-15 0)
(400 -2.42434e-15 0)
(400 -1.64312e-14 0)
(400 -3.81541e-14 0)
(400 -5.09422e-14 0)
(400 -5.18897e-14 0)
(400 -3.71484e-14 0)
(400 -2.81876e-14 0)
(400 -1.42018e-14 0)
(400 -4.24808e-15 0)
(400 1.50928e-14 0)
(400 3.69574e-14 0)
(400 5.36696e-14 0)
(400 4.97845e-14 0)
(400 4.77093e-14 0)
(400 4.59806e-14 0)
(400 3.6458e-14 0)
(400 5.96446e-14 0)
(400 6.49707e-14 0)
(400 6.02591e-14 0)
(400 5.81501e-14 0)
(400 5.98841e-14 0)
(400 6.20727e-14 0)
(400 6.12196e-14 0)
(400 7.8011e-14 0)
(400 7.76866e-14 0)
(400 6.57402e-14 0)
(400 4.2905e-14 0)
(400 2.54886e-14 0)
(400 -2.35194e-15 0)
(400 -2.76784e-14 0)
(400 -3.57608e-14 0)
(400 -4.3205e-14 0)
(400 -5.46524e-14 0)
(400 -4.90131e-14 0)
(400 -4.69614e-14 0)
(400 -3.01163e-14 0)
(400 -3.57489e-14 0)
(400 -4.70815e-14 0)
(400 -5.04792e-14 0)
(400 -4.32401e-14 0)
(400 -2.23517e-14 0)
(400 6.3575e-15 0)
(400 1.83191e-14 0)
(400 2.36984e-14 0)
(400 2.63209e-14 0)
(400 2.97289e-14 0)
(400 1.07789e-14 0)
(400 -1.39286e-14 0)
(400 -1.94005e-14 0)
(400 -2.12318e-14 0)
(400 -1.93099e-14 0)
(400 -1.92992e-14 0)
(400 -2.39315e-14 0)
(400 -2.41127e-14 0)
(400 -1.84466e-14 0)
(400 2.29958e-14 0)
(400 3.26502e-14 0)
(400 2.36961e-14 0)
(400 5.74801e-14 0)
(400 6.50783e-14 0)
(400 6.12138e-14 0)
(400 8.54943e-14 0)
(400 9.58509e-14 0)
(400 1.11102e-13 0)
(400 1.11515e-13 0)
(400 9.97281e-14 0)
(400 1.01035e-13 0)
(400 9.37205e-14 0)
(400 7.69693e-14 0)
(400 5.94181e-14 0)
(400 5.73629e-14 0)
(400 5.7803e-14 0)
(400 4.54062e-14 0)
(400 5.33599e-14 0)
(400 4.69982e-14 0)
(400 4.3779e-14 0)
(400 5.46086e-14 0)
(400 6.98425e-14 0)
(400 6.56794e-14 0)
(400 5.85464e-14 0)
(400 4.57399e-14 0)
(400 3.22668e-14 0)
(400 4.06731e-14 0)
(400 2.40563e-14 0)
(400 1.51358e-14 0)
(400 1.72799e-14 0)
(400 1.91833e-14 0)
(400 6.89852e-15 0)
(400 -7.2096e-16 0)
(400 5.01551e-15 0)
(400 2.84446e-14 0)
(400 4.75325e-14 0)
(400 4.73328e-14 0)
(400 4.03542e-14 0)
(400 3.43416e-14 0)
(400 2.22849e-14 0)
(400 4.51226e-15 0)
(400 -9.03011e-15 0)
(400 -3.70906e-14 0)
(400 -4.27892e-14 0)
(400 -4.97844e-14 0)
(400 -5.82486e-14 0)
(400 -5.09626e-14 0)
(400 -2.39343e-14 0)
(400 3.32807e-15 0)
(400 2.52719e-14 0)
(400 3.85056e-14 0)
(400 6.01382e-14 0)
(400 7.62848e-14 0)
(400 1.00314e-13 0)
(400 1.11326e-13 0)
(400 1.03538e-13 0)
(400 1.02084e-13 0)
(400 1.03249e-13 0)
(400 9.54924e-14 0)
(400 1.06703e-13 0)
(400 9.31151e-14 0)
(400 1.0402e-13 0)
(400 1.09308e-13 0)
(400 1.13769e-13 0)
(400 1.0312e-13 0)
(400 9.93421e-14 0)
(400 9.2338e-14 0)
(400 8.84355e-14 0)
(400 6.96522e-14 0)
(400 6.444e-14 0)
(400 7.79359e-14 0)
(400 8.84819e-14 0)
(400 8.89536e-14 0)
(400 8.63016e-14 0)
(400 8.3848e-14 0)
(400 1.06396e-13 0)
(400 1.10788e-13 0)
(400 9.8739e-14 0)
(400 9.20598e-14 0)
(400 7.07267e-14 0)
(400 4.94501e-14 0)
(400 2.2341e-14 0)
(400 -5.08215e-15 0)
(400 -1.33703e-14 0)
(400 -1.15213e-14 0)
(400 -1.3189e-14 0)
(400 -1.61955e-14 0)
(400 -1.65901e-14 0)
(400 -4.07786e-15 0)
(400 1.77352e-14 0)
(400 2.58454e-14 0)
(400 3.81038e-14 0)
(400 5.59195e-14 0)
(400 7.51421e-14 0)
(400 9.00894e-14 0)
(400 8.86716e-14 0)
(400 6.07233e-14 0)
(400 3.41571e-14 0)
(400 9.28195e-15 0)
(400 5.81337e-16 0)
(400 -2.77781e-15 0)
(400 -1.11193e-14 0)
(400 -9.63752e-15 0)
(400 1.77262e-14 0)
(400 2.42895e-14 0)
(400 1.22449e-14 0)
(400 1.8118e-14 0)
(400 1.4929e-14 0)
(400 1.81012e-14 0)
(400 6.23672e-14 0)
(400 7.30846e-14 0)
(400 7.26034e-14 0)
(400 6.8957e-14 0)
(400 6.80225e-14 0)
(400 6.76993e-14 0)
(400 4.97658e-14 0)
(400 4.50065e-14 0)
(400 2.49651e-14 0)
(400 9.67312e-15 0)
(400 1.97508e-14 0)
(400 1.36594e-14 0)
(400 7.94006e-15 0)
(400 1.36687e-14 0)
(400 1.63794e-14 0)
(400 1.768e-15 0)
(400 9.96202e-15 0)
(400 2.15458e-14 0)
(400 3.7842e-14 0)
(400 4.12693e-14 0)
(400 5.67121e-14 0)
(400 6.78759e-14 0)
(400 8.50076e-14 0)
(400 8.66324e-14 0)
(400 7.68312e-14 0)
(400 6.29986e-14 0)
(400 3.90606e-14 0)
(400 4.26688e-14 0)
(400 5.19286e-14 0)
(400 4.60928e-14 0)
(400 2.8911e-14 0)
(400 8.32016e-15 0)
(400 3.52662e-15 0)
(400 -1.15642e-14 0)
(400 -2.25888e-14 0)
(400 -2.77173e-14 0)
(400 -3.00681e-14 0)
(400 -2.81412e-14 0)
(400 -2.37914e-14 0)
(400 -2.90082e-14 0)
(400 -3.79056e-14 0)
(400 -5.22247e-14 0)
(400 -7.38162e-14 0)
(400 -6.63112e-14 0)
(400 -4.94321e-14 0)
(400 -4.0611e-14 0)
(400 -2.18277e-14 0)
(400 -2.05128e-14 0)
(400 -2.28639e-14 0)
(400 -1.45856e-14 0)
(400 -1.87253e-14 0)
(400 -1.39208e-14 0)
(400 -1.5147e-14 0)
(400 -1.94818e-14 0)
(400 -2.58461e-14 0)
(400 -2.85878e-14 0)
(400 3.37633e-15 0)
(400 2.53255e-14 0)
(400 2.16747e-14 0)
(400 1.74424e-14 0)
(400 1.46745e-14 0)
(400 1.76885e-14 0)
(400 1.71895e-14 0)
(400 -7.49793e-15 0)
(400 -1.60133e-14 0)
(400 -1.51099e-14 0)
(400 -7.12763e-15 0)
(400 -7.22088e-15 0)
(400 -8.80802e-15 0)
(400 1.33177e-15 0)
(400 1.92935e-14 0)
(400 2.14186e-14 0)
(400 2.86517e-14 0)
(400 4.54482e-14 0)
(400 4.335e-14 0)
(400 4.64264e-14 0)
(400 5.17151e-14 0)
(400 5.19564e-14 0)
(400 4.35511e-14 0)
(400 4.23276e-14 0)
(400 3.37555e-14 0)
(400 1.20819e-14 0)
(400 4.43811e-15 0)
(400 1.4142e-14 0)
(400 2.5346e-14 0)
(400 2.95246e-14 0)
(400 3.86479e-14 0)
(400 3.26196e-14 0)
(400 2.8706e-14 0)
(400 5.89696e-14 0)
(400 7.8014e-14 0)
(400 7.07202e-14 0)
(400 5.04927e-14 0)
(400 5.66259e-14 0)
(400 6.26116e-14 0)
(400 5.19169e-14 0)
(400 5.15438e-14 0)
(400 6.28751e-14 0)
(400 8.07719e-14 0)
(400 6.20017e-14 0)
(400 5.04371e-14 0)
(400 3.96599e-14 0)
(400 3.05065e-14 0)
(400 2.28643e-14 0)
(400 2.42111e-14 0)
(400 2.10693e-14 0)
(400 1.58492e-14 0)
(400 4.39777e-15 0)
(400 1.03618e-14 0)
(400 2.83752e-14 0)
(400 2.88001e-14 0)
(400 4.05727e-14 0)
(400 5.23859e-14 0)
(400 5.74429e-14 0)
(400 4.8796e-14 0)
(400 3.95446e-14 0)
(400 4.58091e-14 0)
(400 6.03795e-14 0)
(400 5.10027e-14 0)
(400 2.2376e-14 0)
(400 2.26029e-14 0)
(400 4.00465e-14 0)
(400 3.37596e-14 0)
(400 1.01387e-14 0)
(400 1.84491e-15 0)
(400 8.59118e-15 0)
(400 2.39262e-14 0)
(400 3.87213e-14 0)
(400 4.96219e-14 0)
(400 3.15043e-14 0)
(400 8.74957e-15 0)
(400 3.51624e-15 0)
(400 1.48341e-14 0)
(400 1.78112e-14 0)
(400 6.03228e-15 0)
(400 -3.32131e-15 0)
(400 -6.05091e-15 0)
(400 5.42187e-15 0)
(400 8.47241e-15 0)
(400 1.31633e-14 0)
(400 1.54504e-14 0)
(400 2.78753e-14 0)
(400 2.45085e-14 0)
(400 2.9653e-14 0)
(400 4.46716e-14 0)
(400 6.25206e-14 0)
(400 6.37155e-14 0)
(400 5.87063e-14 0)
(400 4.56959e-14 0)
(400 4.01667e-14 0)
(400 3.08687e-14 0)
(400 2.13857e-14 0)
(400 3.37313e-14 0)
(400 3.31427e-14 0)
(400 2.93138e-14 0)
(400 2.66578e-14 0)
(400 2.83773e-14 0)
(400 4.12878e-14 0)
(400 2.87716e-14 0)
(400 8.54619e-15 0)
(400 9.97496e-15 0)
(400 1.9588e-14 0)
(400 2.00425e-14 0)
(400 1.7101e-14 0)
(400 3.43474e-14 0)
(400 6.26062e-14 0)
(400 8.34151e-14 0)
(400 9.21261e-14 0)
(400 9.87353e-14 0)
(400 9.66382e-14 0)
(400 8.6096e-14 0)
(400 6.5335e-14 0)
(400 3.61878e-14 0)
(400 1.43056e-14 0)
(400 1.13057e-14 0)
(400 2.75837e-14 0)
(400 3.88976e-14 0)
(400 9.2456e-17 0)
(400 5.46943e-16 0)
(400 9.38151e-15 0)
(400 3.23708e-14 0)
(400 3.78915e-14 0)
(400 3.11448e-14 0)
(400 3.60469e-14 0)
(400 4.48838e-14 0)
(400 5.34644e-14 0)
(400 5.50146e-14 0)
(400 4.47407e-14 0)
(400 3.03504e-14 0)
(400 2.31124e-14 0)
(400 1.64098e-14 0)
(400 4.07045e-15 0)
(400 -2.93079e-15 0)
(400 -9.08062e-15 0)
(400 2.04415e-15 0)
(400 1.48471e-14 0)
(400 2.75193e-14 0)
(400 2.72794e-14 0)
(400 3.38219e-14 0)
(400 3.39357e-14 0)
(400 4.55727e-14 0)
(400 6.31527e-14 0)
(400 6.71959e-14 0)
(400 6.99363e-14 0)
(400 6.22199e-14 0)
(400 4.14447e-14 0)
(400 3.07179e-14 0)
(400 3.11103e-14 0)
(400 9.57601e-15 0)
(400 1.40835e-14 0)
(400 4.03185e-14 0)
(400 3.71242e-14 0)
(400 3.40042e-14 0)
(400 1.82088e-14 0)
(400 1.24034e-14 0)
(400 4.79503e-15 0)
(400 1.94597e-15 0)
(400 3.11377e-15 0)
(400 1.86781e-14 0)
(400 3.41457e-14 0)
(400 4.31418e-14 0)
(400 5.34374e-14 0)
(400 5.41277e-14 0)
(400 5.70337e-14 0)
(400 5.61276e-14 0)
(400 4.09284e-14 0)
(400 2.33932e-14 0)
(400 1.01072e-14 0)
(400 7.05162e-15 0)
(400 1.18085e-14 0)
(400 -6.87286e-17 0)
(400 -1.5189e-14 0)
(400 -2.7875e-14 0)
(400 -3.96041e-14 0)
(400 -3.95372e-14 0)
(400 -4.03126e-14 0)
(400 -2.85959e-14 0)
(400 -2.02437e-14 0)
(400 -1.89339e-14 0)
(400 -1.37782e-14 0)
(400 -9.57087e-15 0)
(400 -9.02951e-15 0)
(400 -4.13428e-15 0)
(400 -6.69903e-15 0)
(400 -2.63939e-16 0)
(400 1.92935e-14 0)
(400 2.58668e-14 0)
(400 1.88943e-14 0)
(400 1.95362e-14 0)
(400 2.40101e-14 0)
(400 2.94614e-14 0)
(400 2.25999e-14 0)
(400 2.04752e-14 0)
(400 1.68589e-14 0)
(400 1.52002e-14 0)
(400 3.16501e-14 0)
(400 5.29157e-14 0)
(400 5.47189e-14 0)
(400 4.37593e-14 0)
(400 3.46057e-14 0)
(400 3.64361e-14 0)
(400 2.76892e-14 0)
(400 1.24958e-14 0)
(400 -9.01305e-16 0)
(400 9.79806e-15 0)
(400 1.57782e-14 0)
(400 7.28651e-15 0)
(400 4.98112e-15 0)
(400 4.49263e-15 0)
(400 1.40117e-14 0)
(400 1.8416e-14 0)
(400 2.98218e-14 0)
(400 4.81908e-14 0)
(400 5.32254e-14 0)
(400 5.24553e-14 0)
(400 3.93486e-14 0)
(400 2.20318e-14 0)
(400 4.17002e-15 0)
(400 -1.0538e-14 0)
(400 -2.57766e-14 0)
(400 -4.71439e-14 0)
(400 -5.19888e-14 0)
(400 -3.46017e-14 0)
(400 -8.80309e-15 0)
(400 1.54447e-14 0)
(400 2.57081e-14 0)
(400 2.49078e-14 0)
(400 1.88809e-14 0)
(400 3.20843e-14 0)
(400 4.93411e-14 0)
(400 4.22359e-14 0)
(400 3.48281e-14 0)
(400 5.79182e-14 0)
(400 6.5887e-14 0)
(400 6.39779e-14 0)
(400 7.60834e-14 0)
(400 6.91783e-14 0)
(400 7.33765e-14 0)
(400 7.13458e-14 0)
(400 7.32138e-14 0)
(400 6.4562e-14 0)
(400 4.07723e-14 0)
(400 4.0188e-14 0)
(400 3.18011e-14 0)
(400 5.27037e-14 0)
(400 5.42745e-14 0)
(400 4.02617e-14 0)
(400 3.29151e-14 0)
(400 3.34942e-14 0)
(400 5.14344e-14 0)
(400 6.04825e-14 0)
(400 5.27871e-14 0)
(400 5.16463e-14 0)
(400 6.10896e-14 0)
(400 6.04639e-14 0)
(400 6.64815e-14 0)
(400 7.01582e-14 0)
(400 6.08374e-14 0)
(400 4.9981e-14 0)
(400 3.16512e-14 0)
(400 2.30194e-14 0)
(400 3.93036e-14 0)
(400 1.60066e-14 0)
(400 -1.01972e-14 0)
(400 -2.26613e-14 0)
(400 -2.14804e-14 0)
(400 -2.0274e-14 0)
(400 -1.50837e-14 0)
(400 1.69188e-15 0)
(400 6.05293e-15 0)
(400 2.04182e-15 0)
(400 -2.56407e-15 0)
(400 2.83259e-15 0)
(400 2.49955e-14 0)
(400 1.24796e-14 0)
(400 1.76293e-14 0)
(400 1.17554e-14 0)
(400 7.04017e-15 0)
(400 9.01444e-16 0)
(400 -4.61922e-15 0)
(400 8.63867e-15 0)
(400 3.85567e-14 0)
(400 5.13225e-14 0)
(400 7.50399e-14 0)
(400 8.81827e-14 0)
(400 9.82453e-14 0)
(400 1.05896e-13 0)
(400 1.04734e-13 0)
(400 9.80218e-14 0)
(400 9.11923e-14 0)
(400 7.36253e-14 0)
(400 7.46265e-14 0)
(400 8.19141e-14 0)
(400 8.77439e-14 0)
(400 7.23592e-14 0)
(400 8.07854e-14 0)
(400 6.99344e-14 0)
(400 7.11405e-14 0)
(400 6.22466e-14 0)
(400 7.53007e-14 0)
(400 8.29052e-14 0)
(400 7.88187e-14 0)
(400 7.92045e-14 0)
(400 7.63459e-14 0)
(400 7.95555e-14 0)
(400 1.02297e-13 0)
(400 1.19211e-13 0)
(400 1.19477e-13 0)
(400 1.16324e-13 0)
(400 1.07217e-13 0)
(400 9.02572e-14 0)
(400 6.81449e-14 0)
(400 4.19025e-14 0)
(400 2.88392e-14 0)
(400 9.75098e-16 0)
(400 -1.93679e-14 0)
(400 -3.99595e-14 0)
(400 1.27114e-14 0)
(400 3.01577e-14 0)
(400 2.15001e-14 0)
(400 2.14179e-14 0)
(400 3.30877e-14 0)
(400 4.10667e-14 0)
(400 4.46134e-14 0)
(400 5.90056e-14 0)
(400 6.35135e-14 0)
(400 6.63381e-14 0)
(400 5.7825e-14 0)
(400 5.30766e-14 0)
(400 5.47577e-14 0)
(400 4.56312e-14 0)
(400 2.09017e-14 0)
(400 -5.57879e-15 0)
(400 -1.22744e-14 0)
(400 -1.64184e-14 0)
(400 -7.71886e-15 0)
(400 2.34703e-14 0)
(400 2.9775e-14 0)
(400 3.07284e-14 0)
(400 2.6609e-14 0)
(400 1.73756e-14 0)
(400 2.74774e-14 0)
(400 3.82044e-14 0)
(400 3.65277e-14 0)
(400 2.83782e-14 0)
(400 1.27374e-14 0)
(400 1.02188e-14 0)
(400 1.28313e-14 0)
(400 1.32387e-14 0)
(400 2.32814e-14 0)
(400 2.75672e-14 0)
(400 3.35851e-14 0)
(400 3.67189e-14 0)
(400 3.05906e-14 0)
(400 2.79094e-14 0)
(400 3.62245e-14 0)
(400 3.34471e-14 0)
(400 2.33855e-14 0)
(400 2.10289e-14 0)
(400 3.25726e-14 0)
(400 3.73216e-14 0)
(400 3.81623e-14 0)
(400 3.11185e-14 0)
(400 3.51003e-14 0)
(400 3.9657e-14 0)
(400 2.95641e-14 0)
(400 1.84965e-14 0)
(400 2.07411e-15 0)
(400 -2.06783e-14 0)
(400 -2.52263e-14 0)
(400 -1.87916e-14 0)
(400 -2.97807e-14 0)
(400 -4.94232e-14 0)
(400 -4.97324e-14 0)
(400 -3.89757e-14 0)
(400 -3.04048e-14 0)
(400 -1.7215e-14 0)
(400 -7.12599e-15 0)
(400 -5.12374e-15 0)
(400 -9.74417e-15 0)
(400 -1.30036e-14 0)
(400 -1.45658e-14 0)
(400 -9.95277e-15 0)
(400 -3.31438e-15 0)
(400 9.39073e-16 0)
(400 9.4479e-15 0)
(400 1.63559e-14 0)
(400 2.26089e-14 0)
(400 3.83909e-14 0)
(400 3.50575e-14 0)
(400 3.78832e-14 0)
(400 4.66835e-14 0)
(400 6.04807e-14 0)
(400 6.54486e-14 0)
(400 6.12714e-14 0)
(400 7.1356e-14 0)
(400 5.69296e-14 0)
(400 2.4706e-14 0)
(400 9.66977e-15 0)
(400 1.59796e-15 0)
(400 -9.67476e-15 0)
(400 -1.13237e-14 0)
(400 -1.66113e-14 0)
(400 -1.89681e-14 0)
(400 -1.22068e-14 0)
(400 6.54813e-15 0)
(400 -4.93323e-15 0)
(400 -1.40205e-15 0)
(400 2.97102e-15 0)
(400 1.91418e-14 0)
(400 3.72281e-14 0)
(400 6.227e-14 0)
(400 6.36543e-14 0)
(400 6.43669e-14 0)
(400 7.38339e-14 0)
(400 5.38744e-14 0)
(400 4.27973e-14 0)
(400 2.465e-14 0)
(400 1.9924e-14 0)
(400 -3.88667e-16 0)
(400 -1.9161e-14 0)
(400 -8.15617e-15 0)
(400 -3.77929e-15 0)
(400 1.68465e-15 0)
(400 2.53955e-14 0)
(400 3.48365e-14 0)
(400 2.65453e-14 0)
(400 2.71947e-14 0)
(400 2.09862e-14 0)
(400 3.23565e-15 0)
(400 1.47001e-15 0)
(400 -7.44797e-15 0)
(400 9.53734e-15 0)
(400 1.89989e-14 0)
(400 2.34077e-14 0)
(400 4.24657e-14 0)
(400 4.62772e-14 0)
(400 4.64286e-14 0)
(400 2.57855e-14 0)
(400 3.91743e-14 0)
(400 4.68604e-14 0)
(400 4.04356e-14 0)
(400 3.59363e-14 0)
(400 3.76928e-14 0)
(400 4.85805e-14 0)
(400 5.75923e-14 0)
(400 3.796e-14 0)
(400 4.64241e-14 0)
(400 4.97769e-14 0)
(400 4.19759e-14 0)
(400 4.64489e-14 0)
(400 3.98944e-14 0)
(400 3.27546e-14 0)
(400 4.60084e-14 0)
(400 5.656e-14 0)
(400 6.17239e-14 0)
(400 5.14918e-14 0)
(400 3.95702e-14 0)
(400 3.44759e-14 0)
(400 3.57314e-14 0)
(400 4.41105e-14 0)
(400 5.59981e-14 0)
(400 4.35095e-14 0)
(400 3.56756e-14 0)
(400 5.05538e-14 0)
(400 4.66015e-14 0)
(400 3.42246e-14 0)
(400 3.07334e-14 0)
(400 2.97172e-14 0)
(400 4.60885e-14 0)
(400 4.22508e-14 0)
(400 3.3941e-14 0)
(400 1.97164e-14 0)
(400 -2.70124e-15 0)
(400 -1.69711e-14 0)
(400 -1.43154e-14 0)
(400 -5.46837e-15 0)
(400 2.4097e-15 0)
(400 -2.84913e-15 0)
(400 -6.5633e-15 0)
(400 6.44534e-15 0)
(400 1.43867e-14 0)
(400 2.03037e-14 0)
(400 3.67291e-14 0)
(400 5.64773e-14 0)
(400 6.58526e-14 0)
(400 6.67248e-14 0)
(400 6.06156e-14 0)
(400 5.52967e-14 0)
(400 4.06818e-14 0)
(400 2.83032e-14 0)
(400 2.61609e-14 0)
(400 8.08704e-15 0)
(400 -4.32153e-15 0)
(400 -9.0774e-15 0)
(400 -1.49754e-14 0)
(400 -1.86428e-14 0)
(400 -1.28302e-14 0)
(400 -6.30774e-15 0)
(400 1.58374e-14 0)
(400 1.3261e-14 0)
(400 4.68209e-15 0)
(400 1.52237e-14 0)
(400 3.96573e-14 0)
(400 4.07874e-14 0)
(400 5.3945e-14 0)
(400 6.50155e-14 0)
(400 6.59012e-14 0)
(400 5.92083e-14 0)
(400 5.90684e-14 0)
(400 5.75929e-14 0)
(400 4.12411e-14 0)
(400 2.76546e-14 0)
(400 1.51524e-14 0)
(400 1.16884e-14 0)
(400 4.95129e-15 0)
(400 2.42688e-15 0)
(400 1.04968e-14 0)
(400 1.23269e-14 0)
(400 -3.34889e-15 0)
(400 6.7184e-16 0)
(400 1.57467e-14 0)
(400 1.29363e-14 0)
(400 1.62539e-14 0)
(400 2.16477e-14 0)
(400 3.89636e-14 0)
(400 3.98619e-14 0)
(400 4.3673e-14 0)
(400 5.1057e-14 0)
(400 6.20134e-14 0)
(400 5.86902e-14 0)
(400 3.7123e-14 0)
(400 2.39524e-14 0)
(400 1.28576e-14 0)
(400 2.14196e-15 0)
(400 6.53605e-15 0)
(400 9.20531e-15 0)
(400 3.1837e-14 0)
(400 3.45162e-14 0)
(400 5.07808e-14 0)
(400 3.86037e-14 0)
(400 3.39592e-14 0)
(400 4.62843e-14 0)
(400 3.00613e-14 0)
(400 1.98257e-14 0)
(400 1.54252e-14 0)
(400 9.97379e-15 0)
(400 8.6711e-15 0)
(400 1.94987e-14 0)
(400 1.82263e-14 0)
(400 1.66105e-14 0)
(400 3.13042e-14 0)
(400 2.4253e-14 0)
(400 2.13377e-14 0)
(400 3.01752e-14 0)
(400 3.58735e-14 0)
(400 1.96127e-14 0)
(400 2.02286e-14 0)
(400 1.47365e-14 0)
(400 2.06329e-14 0)
(400 2.20092e-14 0)
(400 1.63049e-14 0)
(400 8.35742e-15 0)
(400 2.06591e-15 0)
(400 5.58027e-15 0)
(400 -5.13333e-15 0)
(400 -2.02152e-14 0)
(400 -3.4593e-14 0)
(400 -6.19242e-14 0)
(400 -7.33887e-14 0)
(400 -6.72896e-14 0)
(400 -6.4257e-14 0)
(400 -6.38704e-14 0)
(400 -6.44685e-14 0)
(400 -6.5205e-14 0)
(400 -6.00443e-14 0)
(400 -4.40336e-14 0)
(400 -1.8346e-14 0)
(400 -2.26036e-15 0)
(400 1.00364e-15 0)
(400 1.02745e-14 0)
(400 1.72726e-14 0)
(400 1.18777e-14 0)
(400 2.48451e-14 0)
(400 2.67333e-14 0)
(400 1.84305e-14 0)
(400 2.65372e-14 0)
(400 3.95082e-14 0)
(400 3.9398e-14 0)
(400 3.89846e-14 0)
(400 4.26482e-14 0)
(400 4.73911e-14 0)
(400 4.34429e-14 0)
(400 4.0947e-14 0)
(400 4.0064e-14 0)
(400 2.93647e-14 0)
(400 -4.73191e-15 0)
(400 -3.76207e-14 0)
(400 -5.25365e-14 0)
(400 -4.4111e-14 0)
(400 -5.50162e-14 0)
(400 -4.86039e-14 0)
(400 -2.67432e-14 0)
(400 -1.69368e-14 0)
(400 -2.9772e-14 0)
(400 -3.29085e-14 0)
(400 -2.43927e-14 0)
(400 -8.57079e-15 0)
(400 -1.06461e-15 0)
(400 2.7917e-14 0)
(400 3.9709e-14 0)
(400 5.63275e-14 0)
(400 3.13024e-14 0)
(400 3.74037e-14 0)
(400 4.09541e-14 0)
(400 2.31136e-14 0)
(400 2.36152e-14 0)
(400 1.03926e-14 0)
(400 1.79376e-14 0)
(400 2.46623e-14 0)
(400 1.57723e-14 0)
(400 1.75498e-14 0)
(400 1.88882e-14 0)
(400 1.52761e-14 0)
(400 1.30597e-14 0)
(400 1.97961e-14 0)
(400 1.51266e-14 0)
(400 3.14965e-14 0)
(400 1.88972e-14 0)
(400 -2.60155e-15 0)
(400 -5.01714e-15 0)
(400 -5.65786e-15 0)
(400 -1.48187e-14 0)
(400 -1.26087e-14 0)
(400 4.9719e-15 0)
(400 6.40083e-15 0)
(400 -9.36429e-16 0)
(400 -1.90488e-14 0)
(400 -3.22118e-14 0)
(400 -3.07353e-14 0)
(400 -1.04593e-14 0)
(400 2.25277e-15 0)
(400 3.00849e-15 0)
(400 2.03977e-14 0)
(400 2.14946e-14 0)
(400 2.08412e-14 0)
(400 2.75263e-14 0)
(400 4.49203e-14 0)
(400 5.14302e-14 0)
(400 4.59789e-14 0)
(400 4.2005e-14 0)
(400 3.02318e-14 0)
(400 1.93107e-14 0)
(400 2.64817e-14 0)
(400 4.60379e-14 0)
(400 2.96042e-14 0)
(400 1.95971e-14 0)
(400 -1.66849e-15 0)
(400 3.28971e-15 0)
(400 1.89808e-14 0)
(400 1.73665e-14 0)
(400 7.67172e-15 0)
(400 2.49356e-14 0)
(400 4.8798e-14 0)
(400 4.76291e-14 0)
(400 3.31325e-14 0)
(400 3.51882e-14 0)
(400 4.4508e-14 0)
(400 5.16138e-14 0)
(400 5.21549e-14 0)
(400 3.58306e-14 0)
(400 1.60761e-14 0)
(400 1.55953e-14 0)
(400 -1.13122e-15 0)
(400 -4.45002e-15 0)
(400 -3.08452e-14 0)
(400 -2.97375e-14 0)
(400 -2.09588e-14 0)
(400 -2.43255e-14 0)
(400 -2.47066e-14 0)
(400 -2.52867e-14 0)
(400 -2.08578e-14 0)
(400 -1.89254e-14 0)
(400 -7.79546e-15 0)
(400 2.32364e-14 0)
(400 3.88217e-14 0)
(400 4.49442e-14 0)
(400 3.33872e-14 0)
(400 2.03146e-14 0)
(400 4.91099e-15 0)
(400 -2.85519e-15 0)
(400 -2.56042e-15 0)
(400 -1.3536e-14 0)
(400 -2.59275e-14 0)
(400 -6.10457e-15 0)
(400 5.85582e-15 0)
(400 1.61644e-14 0)
(400 2.76089e-14 0)
(400 5.03522e-14 0)
(400 3.85927e-14 0)
(400 2.56993e-14 0)
(400 3.41306e-14 0)
(400 3.8776e-14 0)
(400 5.46358e-14 0)
(400 5.91078e-14 0)
(400 5.98946e-14 0)
(400 6.25309e-14 0)
(400 5.5052e-14 0)
(400 5.61576e-14 0)
(400 5.26469e-14 0)
(400 5.79648e-14 0)
(400 6.30783e-14 0)
(400 6.33025e-14 0)
(400 5.29394e-14 0)
(400 5.96521e-14 0)
(400 6.0828e-14 0)
(400 6.20421e-14 0)
(400 -1.43802e-14 0)
(400 -4.42906e-14 0)
(400 -2.88301e-14 0)
(400 -4.11263e-15 0)
(400 -1.03306e-14 0)
(400 -2.2098e-14 0)
(400 -4.88668e-15 0)
(400 -3.14862e-16 0)
(400 8.93786e-15 0)
(400 9.82831e-15 0)
(400 2.45856e-14 0)
(400 3.28961e-14 0)
(400 4.25839e-14 0)
(400 5.72907e-14 0)
(400 5.72779e-14 0)
(400 6.50595e-14 0)
(400 6.13898e-14 0)
(400 4.56031e-14 0)
(400 4.19095e-14 0)
(400 3.71294e-14 0)
(400 5.13432e-14 0)
(400 6.9284e-14 0)
(400 8.63239e-14 0)
(400 6.86385e-14 0)
(400 4.81282e-14 0)
(400 6.29387e-14 0)
(400 5.03621e-14 0)
(400 2.93205e-14 0)
(400 3.55293e-15 0)
(400 -7.61531e-15 0)
(400 -2.17651e-15 0)
(400 2.31423e-14 0)
(400 2.90407e-14 0)
(400 2.11137e-14 0)
(400 1.25019e-14 0)
(400 8.82774e-15 0)
(400 3.61273e-15 0)
(400 5.2428e-15 0)
(400 8.80643e-17 0)
(400 -1.23473e-14 0)
(400 -3.42216e-15 0)
(400 1.56102e-15 0)
(400 6.19623e-15 0)
(400 -8.56007e-16 0)
(400 -1.99334e-15 0)
(400 2.68961e-15 0)
(400 2.48067e-15 0)
(400 1.17332e-16 0)
(400 -8.99492e-15 0)
(400 -1.78787e-14 0)
(400 -4.5729e-14 0)
(400 -6.21076e-14 0)
(400 -7.74203e-14 0)
(400 -7.45828e-14 0)
(400 -6.45478e-14 0)
(400 -5.08701e-14 0)
(400 -4.02069e-14 0)
(400 -3.62518e-14 0)
(400 -1.5688e-14 0)
(400 -7.965e-15 0)
(400 1.32081e-14 0)
(400 3.09763e-14 0)
(400 2.9944e-14 0)
(400 3.20564e-14 0)
(400 5.38948e-14 0)
(400 6.27395e-14 0)
(400 6.60988e-14 0)
(400 6.24521e-14 0)
(400 5.30362e-14 0)
(400 5.46604e-14 0)
(400 3.96836e-14 0)
(400 3.66402e-14 0)
(400 5.37765e-14 0)
(400 6.02422e-14 0)
(400 6.34715e-14 0)
(400 4.8443e-14 0)
(400 4.68729e-14 0)
(400 4.41356e-14 0)
(400 2.26537e-14 0)
(400 -3.07132e-16 0)
(400 -5.32843e-15 0)
(400 -6.76739e-15 0)
(400 -1.2035e-15 0)
(400 8.50703e-15 0)
(400 7.82612e-15 0)
(400 4.16072e-16 0)
(400 4.8344e-15 0)
(400 -6.60991e-15 0)
(400 -1.18736e-14 0)
(400 -2.05693e-15 0)
(400 -6.29809e-15 0)
(400 -4.01397e-15 0)
(400 9.88103e-15 0)
(400 2.59177e-14 0)
(400 1.48957e-14 0)
(400 5.83604e-15 0)
(400 1.60734e-14 0)
(400 4.85203e-15 0)
(400 1.69219e-15 0)
(400 -3.30883e-15 0)
(400 -7.20825e-16 0)
(400 -7.70809e-15 0)
(400 1.20503e-15 0)
(400 1.34116e-14 0)
(400 1.08185e-14 0)
(400 5.78022e-15 0)
(400 4.41556e-15 0)
(400 -1.41932e-14 0)
(400 -6.63444e-15 0)
(400 -3.81918e-15 0)
(400 -8.22354e-15 0)
(400 -1.88948e-14 0)
(400 -3.72153e-14 0)
(400 -4.36999e-14 0)
(400 -4.45077e-14 0)
(400 -5.2537e-14 0)
(400 -5.22341e-14 0)
(400 -5.64364e-14 0)
(400 -7.36501e-14 0)
(400 -9.5901e-14 0)
(400 -1.26877e-13 0)
(400 -1.25855e-13 0)
(400 -1.03605e-13 0)
(400 -6.85265e-14 0)
(400 -4.03466e-14 0)
(400 -2.08808e-14 0)
(400 -2.04053e-15 0)
(400 -5.41011e-15 0)
(400 -8.96971e-16 0)
(400 2.71671e-14 0)
(400 3.86142e-14 0)
(400 4.69062e-14 0)
(400 4.75725e-14 0)
(400 4.48281e-14 0)
(400 2.02763e-14 0)
(400 2.08004e-14 0)
(400 3.0755e-14 0)
(400 3.38384e-14 0)
(400 3.01967e-14 0)
(400 3.08665e-14 0)
(400 3.0878e-14 0)
(400 3.54349e-14 0)
(400 5.8001e-14 0)
(400 5.75566e-14 0)
(400 3.42806e-14 0)
(400 4.97885e-14 0)
(400 8.47284e-14 0)
(400 7.87373e-14 0)
(400 6.01082e-14 0)
(400 5.74702e-14 0)
(400 5.40711e-14 0)
(400 5.18867e-14 0)
(400 4.93649e-14 0)
(400 3.96702e-14 0)
(400 1.56446e-14 0)
(400 2.13936e-14 0)
(400 3.39771e-14 0)
(400 1.6901e-14 0)
(400 -3.04959e-15 0)
(400 -1.16954e-14 0)
(400 -2.07888e-14 0)
(400 -2.60005e-14 0)
(400 -2.87715e-14 0)
(400 -4.1182e-14 0)
(400 -4.2959e-14 0)
(400 -1.64793e-14 0)
(400 9.55571e-15 0)
(400 3.19962e-14 0)
(400 3.92112e-14 0)
(400 3.75243e-14 0)
(400 2.49031e-14 0)
(400 -1.44279e-15 0)
(400 -2.80744e-14 0)
(400 -4.9687e-14 0)
(400 -6.04554e-14 0)
(400 -6.11191e-14 0)
(400 -6.12879e-14 0)
(400 -6.38389e-14 0)
(400 -5.9542e-14 0)
(400 -5.33654e-14 0)
(400 -3.59891e-14 0)
(400 -2.31725e-14 0)
(400 -3.11572e-14 0)
(400 -1.96961e-14 0)
(400 8.34802e-15 0)
(400 2.78968e-14 0)
(400 2.75424e-14 0)
(400 2.69152e-14 0)
(400 2.5098e-14 0)
(400 3.15143e-14 0)
(400 4.48633e-14 0)
(400 6.12132e-14 0)
(400 6.33677e-14 0)
(400 6.34186e-14 0)
(400 6.9517e-14 0)
(400 7.13361e-14 0)
(400 6.43442e-14 0)
(400 4.16534e-14 0)
(400 1.49168e-14 0)
(400 1.26583e-14 0)
(400 -1.7569e-14 0)
(400 -1.58412e-14 0)
(400 1.01566e-14 0)
(400 5.66454e-15 0)
(400 -6.41164e-15 0)
(400 -1.11282e-14 0)
(400 -6.22343e-15 0)
(400 9.39988e-17 0)
(400 -1.69089e-14 0)
(400 -8.27872e-15 0)
(400 -3.18966e-15 0)
(400 -7.37916e-15 0)
(400 5.31788e-15 0)
(400 1.3519e-14 0)
(400 2.76654e-14 0)
(400 3.74029e-14 0)
(400 2.56674e-14 0)
(400 1.25291e-15 0)
(400 -4.00295e-15 0)
(400 1.63493e-14 0)
(400 3.77198e-14 0)
(400 5.63679e-14 0)
(400 5.50001e-14 0)
(400 3.77157e-14 0)
(400 2.9662e-14 0)
(400 1.70666e-14 0)
(400 1.56725e-14 0)
(400 5.23636e-15 0)
(400 -9.90894e-15 0)
(400 -1.51011e-14 0)
(400 -1.566e-14 0)
(400 -5.4823e-15 0)
(400 7.93479e-15 0)
(400 1.15602e-14 0)
(400 1.24274e-15 0)
(400 -6.89307e-15 0)
(400 -3.98531e-15 0)
(400 -1.06536e-14 0)
(400 -5.69212e-15 0)
(400 -9.6842e-16 0)
(400 -4.06225e-15 0)
(400 1.19386e-14 0)
(400 5.4659e-15 0)
(400 2.22751e-15 0)
(400 -7.28296e-15 0)
(400 4.28962e-15 0)
(400 9.65052e-15 0)
(400 8.50459e-15 0)
(400 1.70078e-15 0)
(400 -3.14758e-15 0)
(400 -2.34666e-14 0)
(400 -3.90496e-14 0)
(400 -5.84678e-14 0)
(400 -6.45476e-14 0)