/*--------------------------------*- C++ -*----------------------------------*\
  =========                 |
  \\      /  F ield         | OpenFOAM: The Open Source CFD Toolbox
   \\    /   O peration     | Website:  https://openfoam.org
    \\  /    A nd           | Version:  6
     \\/     M anipulation  |
\*---------------------------------------------------------------------------*/
FoamFile
{
    version     2.0;
    format      ascii;
    class       volScalarField;
    location    "387";
    object      p;
}
// * * * * * * * * * * * * * * * * * * * * * * * * * * * * * * * * * * * * * //

dimensions      [0 2 -2 0 0 0 0];

internalField   nonuniform List<scalar> 
3200
(
82174.5
82174.5
82174.5
82174.5
82174.5
82174.5
82174.5
82174.5
82174.5
82174.5
82174.5
82174.5
82174.5
82174.6
82174.5
82174.9
82172.3
82190.5
82060.3
82993
76315.7
59773.1
47048.2
38623.9
31886.1
26271.3
21734.3
18060.5
15051
12574.2
10529.2
8834.31
7424.8
6249.17
5266
4441.81
3749.4
3166.56
2675.08
2259.97
1908.86
1611.48
1359.31
1145.23
963.316
808.586
676.868
564.653
468.986
387.374
317.711
258.213
207.374
163.909
126.745
94.9171
67.7667
44.2432
24.9374
5.84394
-2.77642
-0.0166253
0.243156
-0.0134441
0.00165552
0.0171405
0.0116718
0.00949554
0.00863713
0.00745473
0.00630565
0.00522736
0.00415663
0.00305047
0.00194179
0.000618173
-0.000369469
-0.00280808
-0.00138728
-0.0117552
82174.5
82174.5
82174.5
82174.5
82174.5
82174.5
82174.5
82174.5
82174.5
82174.5
82174.5
82174.5
82174.5
82174.6
82174.5
82174.9
82172.3
82190.5
82060.3
82993
76315.7
59773.1
47048.2
38623.9
31886.1
26271.3
21734.3
18060.5
15051.1
12574.2
10529.2
8834.33
7424.82
6249.19
5266.02
4441.83
3749.42
3166.58
2675.1
2260
1908.88
1611.51
1359.33
1145.26
963.342
808.612
676.895
564.68
469.014
387.401
317.738
258.24
207.4
163.934
126.769
94.9409
67.7893
44.2645
24.957
5.8618
-2.76081
-0.00284821
0.255462
-0.0024122
0.0115912
0.0261445
0.0198782
0.0170156
0.015564
0.0138655
0.0122622
0.0107786
0.00933724
0.00788589
0.00643286
0.00477114
0.00337912
0.000465532
0.00123563
-0.0106338
82174.5
82174.5
82174.5
82174.5
82174.5
82174.5
82174.5
82174.5
82174.5
82174.5
82174.5
82174.5
82174.5
82174.6
82174.5
82174.9
82172.3
82190.5
82060.3
82993
76315.7
59773.1
47048.3
38624
31886.1
26271.3
21734.4
18060.5
15051.1
12574.2
10529.2
8834.35
7424.84
6249.21
5266.04
4441.85
3749.45
3166.61
2675.13
2260.02
1908.91
1611.53
1359.36
1145.28
963.366
808.636
676.919
564.704
469.038
387.425
317.761
258.263
207.423
163.957
126.792
94.9623
67.8098
44.2839
24.975
5.87826
-2.74638
0.00968467
0.266425
0.00718858
0.0200057
0.033535
0.0263832
0.0227507
0.0206279
0.0183402
0.0162154
0.0142654
0.0124004
0.0105587
0.00873271
0.00671443
0.00493532
0.00166117
0.00185908
-0.0102239
82174.5
82174.5
82174.5
82174.5
82174.5
82174.5
82174.5
82174.5
82174.5
82174.5
82174.5
82174.5
82174.5
82174.6
82174.5
82174.9
82172.3
82190.5
82060.3
82993
76315.7
59773.1
47048.3
38624
31886.1
26271.3
21734.4
18060.5
15051.1
12574.3
10529.2
8834.36
7424.85
6249.22
5266.06
4441.87
3749.46
3166.62
2675.14
2260.04
1908.92
1611.55
1359.37
1145.3
963.384
808.655
676.938
564.723
469.057
387.445
317.781
258.282
207.442
163.975
126.809
94.9794
67.8261
44.2992
24.9893
5.89109
-2.73551
0.0186813
0.273913
0.0133761
0.0250494
0.0375862
0.0295727
0.0251893
0.0224102
0.0195474
0.0169162
0.0145186
0.0122544
0.0100586
0.00790844
0.00562174
0.00357169
0.000220685
0.000226396
-0.0110969
82174.5
82174.5
82174.5
82174.5
82174.5
82174.5
82174.5
82174.5
82174.5
82174.5
82174.5
82174.5
82174.5
82174.6
82174.5
82174.9
82172.3
82190.5
82060.3
82993
76315.7
59773.2
47048.3
38624
31886.1
26271.4
21734.4
18060.5
15051.1
12574.3
10529.3
8834.37
7424.86
6249.23
5266.07
4441.88
3749.47
3166.63
2675.16
2260.05
1908.94
1611.56
1359.39
1145.31
963.4
808.671
676.954
564.739
469.073
387.461
317.797
258.298
207.458
163.991
126.824
94.994
67.84
44.3123
25.0012
5.90187
-2.72635
0.0262961
0.280319
0.0187498
0.0295143
0.0412665
0.0325765
0.027607
0.0243195
0.0210151
0.0179999
0.0152682
0.0127128
0.0102677
0.00790091
0.00545509
0.00324827
-5.25219e-05
-0.000227462
-0.011033
82174.5
82174.5
82174.5
82174.5
82174.5
82174.5
82174.5
82174.5
82174.5
82174.5
82174.5
82174.5
82174.5
82174.6
82174.5
82174.9
82172.3
82190.5
82060.3
82993
76315.7
59773.2
47048.3
38624
31886.1
26271.4
21734.4
18060.5
15051.1
12574.3
10529.3
8834.38
7424.87
6249.24
5266.07
4441.89
3749.48
3166.64
2675.17
2260.06
1908.95
1611.57
1359.4
1145.33
963.412
808.683
676.966
564.752
469.086
387.474
317.81
258.311
207.471
164.004
126.837
95.006
67.8514
44.323
25.0112
5.9109
-2.71855
0.0328603
0.285917
0.0235253
0.0335642
0.0446913
0.035464
0.0300304
0.0263421
0.0226921
0.019379
0.0163918
0.0136178
0.0109911
0.00846787
0.00592258
0.00358604
0.000347806
-0.000115794
-0.0104144
82174.5
82174.5
82174.5
82174.5
82174.5
82174.5
82174.5
82174.5
82174.5
82174.5
82174.5
82174.5
82174.5
82174.6
82174.5
82174.9
82172.3
82190.5
82060.3
82993
76315.7
59773.2
47048.3
38624
31886.1
26271.4
21734.4
18060.5
15051.1
12574.3
10529.3
8834.38
7424.88
6249.24
5266.08
4441.9
3749.49
3166.65
2675.17
2260.07
1908.96
1611.58
1359.41
1145.33
963.42
808.691
676.975
564.761
469.095
387.483
317.819
258.321
207.48
164.013
126.846
95.0148
67.8599
44.3311
25.0187
5.91777
-2.71252
0.037914
0.290216
0.027187
0.0366602
0.0472984
0.0376507
0.0318541
0.0278528
0.023934
0.020391
0.0172089
0.0142708
0.0115124
0.00887837
0.00627121
0.00383858
0.000696526
-7.68057e-05
-0.00959001
82174.5
82174.5
82174.5
82174.5
82174.5
82174.5
82174.5
82174.5
82174.5
82174.5
82174.5
82174.5
82174.5
82174.6
82174.5
82174.9
82172.3
82190.5
82060.3
82993
76315.7
59773.1
47048.3
38624
31886.1
26271.4
21734.4
18060.5
15051.1
12574.3
10529.3
8834.38
7424.88
6249.24
5266.08
4441.9
3749.49
3166.65
2675.17
2260.07
1908.96
1611.58
1359.41
1145.34
963.424
808.696
676.979
564.766
469.1
387.488
317.824
258.326
207.486
164.018
126.851
95.0202
67.8651
44.3361
25.0234
5.92218
-2.70857
0.0411938
0.292983
0.0295327
0.0386273
0.0489368
0.0390072
0.0329677
0.0287582
0.0246625
0.020971
0.0176666
0.0146302
0.0117997
0.00910902
0.00649359
0.00400994
0.00102851
-4.00868e-05
-0.00853716
82174.5
82174.5
82174.5
82174.5
82174.5
82174.5
82174.5
82174.5
82174.5
82174.5
82174.5
82174.5
82174.5
82174.6
82174.5
82174.9
82172.3
82190.5
82060.3
82993
76315.7
59773.1
47048.3
38624
31886.1
26271.4
21734.4
18060.5
15051.1
12574.3
10529.3
8834.38
7424.87
6249.24
5266.08
4441.89
3749.49
3166.65
2675.17
2260.07
1908.96
1611.58
1359.41
1145.34
963.424
808.696
676.979
564.766
469.101
387.489
317.826
258.328
207.487
164.02
126.853
95.022
67.867
44.338
25.0253
5.92405
-2.70675
0.0426547
0.294195
0.0305582
0.0394774
0.049633
0.039573
0.0334226
0.0291201
0.0249486
0.0211977
0.0178505
0.0147867
0.0119487
0.00926094
0.00669113
0.0042081
0.00144285
7.73362e-05
-0.00724081
82174.5
82174.5
82174.5
82174.5
82174.5
82174.5
82174.5
82174.5
82174.5
82174.5
82174.5
82174.5
82174.5
82174.5
82174.5
82174.9
82172.3
82190.5
82060.3
82993
76315.7
59773.1
47048.3
38624
31886.1
26271.3
21734.4
18060.5
15051.1
12574.3
10529.3
8834.37
7424.87
6249.23
5266.07
4441.89
3749.48
3166.64
2675.16
2260.06
1908.95
1611.58
1359.4
1145.33
963.419
808.691
676.975
564.763
469.097
387.486
317.823
258.325
207.485
164.018
126.851
95.0202
67.8655
44.3367
25.0243
5.92337
-2.70709
0.0422923
0.293852
0.0302629
0.0392105
0.0493876
0.0393489
0.0332192
0.0289384
0.0247914
0.0210693
0.0177572
0.0147361
0.0119525
0.00932434
0.00685071
0.00441241
0.00190783
0.000252454
-0.0057457
82174.5
82174.5
82174.5
82174.5
82174.5
82174.5
82174.5
82174.5
82174.5
82174.5
82174.5
82174.5
82174.5
82174.5
82174.5
82174.9
82172.3
82190.5
82060.2
82992.9
76315.7
59773.1
47048.2
38624
31886.1
26271.3
21734.4
18060.5
15051.1
12574.3
10529.2
8834.36
7424.85
6249.22
5266.06
4441.88
3749.47
3166.63
2675.15
2260.05
1908.94
1611.57
1359.4
1145.32
963.41
808.683
676.967
564.755
469.09
387.479
317.816
258.318
207.478
164.012
126.845
95.015
67.8607
44.3324
25.0205
5.92015
-2.70956
0.0401127
0.291955
0.0286441
0.0378201
0.0481906
0.0383216
0.0323416
0.0281943
0.0241694
0.0205615
0.0173598
0.0144475
0.011778
0.00926223
0.00693249
0.00458189
0.00238135
0.000453001
-0.00410007
82174.5
82174.5
82174.5
82174.5
82174.5
82174.5
82174.5
82174.5
82174.5
82174.5
82174.5
82174.5
82174.5
82174.5
82174.5
82174.9
82172.3
82190.5
82060.2
82992.9
76315.7
59773.1
47048.2
38623.9
31886.1
26271.3
21734.3
18060.5
15051.1
12574.2
10529.2
8834.35
7424.84
6249.21
5266.05
4441.86
3749.46
3166.62
2675.14
2260.04
1908.93
1611.55
1359.38
1145.31
963.398
808.67
676.955
564.743
469.078
387.467
317.805
258.308
207.468
164.002
126.836
95.0063
67.8526
44.325
25.014
5.91447
-2.71413
0.0361625
0.288543
0.0257328
0.035331
0.0460613
0.0365057
0.0307997
0.0268939
0.023085
0.0196736
0.0166542
0.0139147
0.0114149
0.00906336
0.00692034
0.00470238
0.00284066
0.000670471
-0.00234541
82174.5
82174.5
82174.5
82174.5
82174.5
82174.5
82174.5
82174.5
82174.5
82174.5
82174.5
82174.5
82174.5
82174.5
82174.5
82174.8
82172.3
82190.5
82060.2
82992.9
76315.7
59773.1
47048.2
38623.9
31886.1
26271.3
21734.3
18060.5
15051.1
12574.2
10529.2
8834.33
7424.82
6249.19
5266.03
4441.85
3749.44
3166.6
2675.12
2260.02
1908.91
1611.54
1359.37
1145.29
963.382
808.654
676.939
564.727
469.063
387.452
317.79
258.293
207.454
163.989
126.824
94.9945
67.8416
44.3148
25.0048
5.90647
-2.72067
0.0305378
0.283698
0.0215987
0.0318016
0.0430489
0.0339423
0.0286275
0.0250649
0.0215603
0.0184222
0.0156526
0.013145
0.0108675
0.00872591
0.00681231
0.00476473
0.00327564
0.000898723
-0.000524745
82174.5
82174.5
82174.5
82174.5
82174.5
82174.5
82174.5
82174.5
82174.5
82174.5
82174.5
82174.5
82174.5
82174.5
82174.5
82174.8
82172.3
82190.5
82060.2
82992.9
76315.7
59773.1
47048.2
38623.9
31886.1
26271.3
21734.3
18060.5
15051
12574.2
10529.2
8834.31
7424.81
6249.17
5266.01
4441.83
3749.42
3166.58
2675.1
2260
1908.89
1611.52
1359.35
1145.27
963.362
808.635
676.92
564.709
469.044
387.434
317.772
258.276
207.438
163.973
126.808
94.9798
67.8278
44.3021
24.9934
5.89634
-2.72902
0.023376
0.277539
0.0163412
0.0273163
0.0392243
0.0306904
0.0258739
0.0227471
0.019627
0.0168323
0.0143732
0.0121511
0.0101419
0.00825416
0.00660231
0.00476662
0.00366836
0.0011287
0.00131636
82174.5
82174.5
82174.5
82174.5
82174.5
82174.5
82174.5
82174.5
82174.5
82174.5
82174.5
82174.5
82174.5
82174.5
82174.5
82174.8
82172.3
82190.5
82060.2
82992.9
76315.6
59773.1
47048.2
38623.9
31886
26271.3
21734.3
18060.5
15051
12574.2
10529.2
8834.29
7424.78
6249.15
5265.99
4441.8
3749.4
3166.56
2675.08
2259.98
1908.87
1611.49
1359.32
1145.25
963.34
808.613
676.899
564.687
469.023
387.413
317.752
258.256
207.418
163.954
126.79
94.9625
67.8116
44.2871
24.9798
5.88434
-2.73899
0.0148511
0.270213
0.0100862
0.021981
0.0346767
0.0268245
0.0226007
0.0199912
0.0173263
0.0149358
0.0128404
0.0109498
0.0092498
0.00765001
0.00629283
0.00469655
0.00400763
0.00135276
0.00313141
82174.5
82174.5
82174.5
82174.5
82174.5
82174.5
82174.5
82174.5
82174.5
82174.5
82174.5
82174.5
82174.5
82174.5
82174.5
82174.8
82172.3
82190.5
82060.2
82992.9
76315.6
59773.1
47048.2
38623.9
31886
26271.3
21734.3
18060.4
15051
12574.2
10529.1
8834.27
7424.76
6249.13
5265.96
4441.78
3749.37
3166.54
2675.06
2259.96
1908.85
1611.47
1359.3
1145.23
963.316
808.589
676.874
564.663
468.999
387.39
317.729
258.234
207.396
163.933
126.77
94.9432
67.7934
44.2702
24.9645
5.87075
-2.75032
0.00516911
0.261897
0.0029835
0.0159228
0.0295132
0.022435
0.018883
0.0168594
0.0147086
0.0127736
0.0110856
0.00956513
0.00820614
0.00692602
0.00588205
0.0045591
0.00427915
0.00156179
0.00487589
82174.5
82174.5
82174.5
82174.5
82174.5
82174.5
82174.5
82174.5
82174.5
82174.5
82174.5
82174.5
82174.5
82174.5
82174.5
82174.8
82172.3
82190.5
82060.2
82992.9
76315.6
59773
47048.2
38623.9
31886
26271.2
21734.3
18060.4
15051
12574.1
10529.1
8834.25
7424.74
6249.11
5265.94
4441.76
3749.35
3166.51
2675.03
2259.93
1908.82
1611.44
1359.27
1145.2
963.29
808.563
676.849
564.637
468.974
387.365
317.704
258.209
207.373
163.91
126.748
94.9222
67.7736
44.2519
24.9478
5.85591
-2.76275
-0.00543493
0.252791
-0.00479599
0.00928642
0.0238566
0.017625
0.0148078
0.0134237
0.0118335
0.0103935
0.0091474
0.00802585
0.00703329
0.00609226
0.00538154
0.00434661
0.00447682
0.00175164
0.00650635
82174.5
82174.5
82174.5
82174.5
82174.5
82174.5
82174.5
82174.5
82174.5
82174.5
82174.5
82174.5
82174.5
82174.5
82174.5
82174.8
82172.3
82190.5
82060.2
82992.9
76315.6
59773
47048.1
38623.8
31886
26271.2
21734.2
18060.4
15051
12574.1
10529.1
8834.22
7424.71
6249.08
5265.92
4441.73
3749.32
3166.49
2675.01
2259.9
1908.79
1611.42
1359.25
1145.18
963.263
808.536
676.822
564.611
468.947
387.339
317.678
258.184
207.348
163.886
126.725
94.9001
67.7528
44.2325
24.9301
5.84018
-2.77597
-0.0167042
0.243118
-0.0130648
0.00223134
0.0178419
0.0125089
0.0104707
0.00976446
0.00876706
0.00784987
0.00706853
0.00636578
0.00575457
0.00516925
0.00479472
0.00407053
0.00459139
0.00191366
0.00798335
82174.5
82174.5
82174.5
82174.5
82174.5
82174.5
82174.5
82174.5
82174.5
82174.5
82174.5
82174.5
82174.5
82174.5
82174.5
82174.8
82172.3
82190.5
82060.2
82992.9
76315.6
59773
47048.1
38623.8
31886
26271.2
21734.2
18060.4
15050.9
12574.1
10529.1
8834.2
7424.69
6249.06
5265.89
4441.71
3749.3
3166.46
2674.98
2259.88
1908.77
1611.39
1359.22
1145.15
963.236
808.509
676.795
564.584
468.921
387.312
317.652
258.158
207.323
163.861
126.701
94.8775
67.7314
44.2126
24.912
5.82394
-2.78966
-0.0283653
0.233109
-0.0216235
-0.00507309
0.011613
0.0072082
0.00597436
0.00596722
0.00558073
0.00520096
0.00489656
0.00462185
0.00439949
0.00417271
0.00413939
0.00372603
0.00462076
0.0020462
0.00927008
82174.5
82174.5
82174.5
82174.5
82174.5
82174.5
82174.5
82174.5
82174.5
82174.5
82174.5
82174.5
82174.5
82174.5
82174.5
82174.8
82172.3
82190.5
82060.2
82992.9
76315.6
59773
47048.1
38623.8
31885.9
26271.2
21734.2
18060.4
15050.9
12574.1
10529.1
8834.18
7424.67
6249.03
5265.87
4441.68
3749.27
3166.43
2674.96
2259.85
1908.74
1611.36
1359.19
1145.12
963.209
808.482
676.768
564.557
468.894
387.286
317.626
258.132
207.297
163.837
126.677
94.8548
67.7099
44.1925
24.8937
5.80758
-2.80349
-0.0401358
0.223007
-0.0302657
-0.012451
0.00531918
0.00184949
0.00142542
0.00212173
0.0023489
0.00250832
0.00268095
0.00283354
0.0029966
0.00312818
0.0034229
0.00332943
0.00456093
0.00214152
0.0103358
82174.5
82174.5
82174.5
82174.5
82174.5
82174.5
82174.5
82174.5
82174.5
82174.5
82174.5
82174.5
82174.5
82174.5
82174.5
82174.8
82172.3
82190.4
82060.2
82992.8
76315.6
59773
47048.1
38623.8
31885.9
26271.2
21734.2
18060.3
15050.9
12574.1
10529
8834.16
7424.65
6249.01
5265.85
4441.66
3749.25
3166.41
2674.93
2259.83
1908.72
1611.34
1359.17
1145.1
963.183
808.456
676.742
564.531
468.868
387.26
317.6
258.107
207.273
163.813
126.654
94.8326
67.6889
44.1729
24.8758
5.7915
-2.81712
-0.0517306
0.213057
-0.0387827
-0.019725
-0.000888548
-0.0034393
-0.00306781
-0.00168121
-0.000852284
-0.000165273
0.000473377
0.00104199
0.00157936
0.00205518
0.00266734
0.002879
0.00441386
0.00220063
0.0111538
82174.5
82174.5
82174.5
82174.5
82174.5
82174.5
82174.5
82174.5
82174.5
82174.5
82174.5
82174.5
82174.5
82174.5
82174.4
82174.8
82172.3
82190.4
82060.2
82992.8
76315.6
59773
47048.1
38623.8
31885.9
26271.1
21734.2
18060.3
15050.9
12574
10529
8834.14
7424.63
6248.99
5265.83
4441.64
3749.23
3166.39
2674.91
2259.8
1908.69
1611.32
1359.15
1145.07
963.159
808.432
676.718
564.507
468.844
387.236
317.576
258.084
207.25
163.79
126.632
94.8115
67.6689
44.1542
24.8586
5.7761
-2.83022
-0.0628688
0.203499
-0.0469691
-0.0267198
-0.00686118
-0.00853142
-0.00739831
-0.00535114
-0.00394736
-0.00275697
-0.00167505
-0.000711588
0.000178586
0.000981618
0.00188309
0.00239423
0.00418107
0.00221734
0.0117049
82174.5
82174.5
82174.5
82174.5
82174.5
82174.5
82174.5
82174.5
82174.5
82174.5
82174.5
82174.5
82174.5
82174.5
82174.4
82174.8
82172.2
82190.4
82060.2
82992.8
76315.6
59773
47048.1
38623.8
31885.9
26271.1
21734.2
18060.3
15050.9
12574
10529
8834.12
7424.61
6248.98
5265.81
4441.62
3749.21
3166.37
2674.89
2259.78
1908.67
1611.3
1359.12
1145.05
963.137
808.41
676.695
564.484
468.821
387.213
317.554
258.062
207.228
163.769
126.612
94.792
67.6504
44.1369
24.8427
5.76174
-2.84248
-0.0732808
0.194564
-0.0546271
-0.033267
-0.0124551
-0.013305
-0.0114626
-0.00880096
-0.00686292
-0.00520579
-0.00371367
-0.00238606
-0.00117174
-7.12788e-05
0.00109417
0.00187641
0.00386819
0.00219504
0.011975
82174.5
82174.5
82174.5
82174.5
82174.5
82174.5
82174.5
82174.5
82174.5
82174.5
82174.5
82174.5
82174.5
82174.5
82174.4
82174.8
82172.2
82190.4
82060.2
82992.8
76315.6
59773
47048.1
38623.8
31885.9
26271.1
21734.1
18060.3
15050.9
12574
10529
8834.11
7424.6
6248.96
5265.79
4441.61
3749.19
3166.35
2674.87
2259.77
1908.65
1611.28
1359.11
1145.03
963.118
808.391
676.676
564.465
468.801
387.194
317.535
258.042
207.209
163.75
126.594
94.7745
67.6338
44.1213
24.8283
5.74877
-2.85359
-0.0827148
0.186469
-0.0615722
-0.039209
-0.0175361
-0.0176456
-0.0151636
-0.0119483
-0.00952991
-0.00745383
-0.00559484
-0.00394266
-0.00244173
-0.00107615
0.000312772
0.0013461
0.00348193
0.00212964
0.0119582
82174.5
82174.5
82174.5
82174.5
82174.5
82174.5
82174.5
82174.5
82174.5
82174.5
82174.5
82174.5
82174.5
82174.5
82174.4
82174.8
82172.2
82190.4
82060.2
82992.8
76315.6
59773
47048.1
38623.8
31885.9
26271.1
21734.1
18060.3
15050.8
12574
10529
8834.1
7424.59
6248.95
5265.78
4441.59
3749.18
3166.34
2674.86
2259.75
1908.64
1611.26
1359.09
1145.02
963.102
808.375
676.659
564.448
468.785
387.177
317.518
258.026
207.193
163.734
126.578
94.7595
67.6195
44.1078
24.8159
5.73752
-2.8633
-0.0909426
0.179407
-0.0676367
-0.0444026
-0.0219819
-0.0214492
-0.0184128
-0.0147184
-0.0118849
-0.0094479
-0.00727395
-0.00534436
-0.00360032
-0.00201228
-0.000437637
0.000807398
0.00303095
0.00202653
0.0116542
82174.5
82174.5
82174.5
82174.5
82174.5
82174.5
82174.5
82174.5
82174.5
82174.5
82174.5
82174.5
82174.5
82174.5
82174.4
82174.8
82172.2
82190.4
82060.2
82992.8
76315.6
59773
47048.1
38623.8
31885.9
26271.1
21734.1
18060.3
15050.8
12574
10529
8834.09
7424.58
6248.94
5265.77
4441.58
3749.17
3166.33
2674.85
2259.74
1908.63
1611.25
1359.08
1145
963.09
808.362
676.647
564.435
468.772
387.164
317.505
258.013
207.18
163.721
126.565
94.7474
67.6078
44.0969
24.8057
5.72824
-2.87136
-0.0977656
0.173551
-0.0726748
-0.0487231
-0.0256861
-0.0246247
-0.0211327
-0.0170451
-0.013872
-0.0111408
-0.00871159
-0.00655874
-0.00462158
-0.00285564
-0.00114435
0.000279822
0.00252639
0.00188399
0.0110708
82174.5
82174.5
82174.5
82174.5
82174.5
82174.5
82174.5
82174.5
82174.5
82174.5
82174.5
82174.5
82174.5
82174.5
82174.4
82174.8
82172.3
82190.4
82060.2
82992.8
76315.6
59773
47048.1
38623.8
31885.9
26271.1
21734.1
18060.3
15050.8
12574
10529
8834.09
7424.57
6248.94
5265.77
4441.58
3749.17
3166.32
2674.84
2259.74
1908.62
1611.24
1359.07
1145
963.082
808.353
676.638
564.426
468.762
387.154
317.495
258.003
207.17
163.712
126.556
94.7383
67.5991
44.0886
24.798
5.72116
-2.87758
-0.103019
0.16904
-0.0765653
-0.0520667
-0.0285596
-0.0270962
-0.0232583
-0.018873
-0.0154439
-0.0124923
-0.0098736
-0.00755659
-0.00548049
-0.00358812
-0.00178683
-0.00023024
0.00197902
0.00170883
0.0102217
82174.5
82174.5
82174.5
82174.5
82174.5
82174.5
82174.5
82174.5
82174.5
82174.5
82174.5
82174.5
82174.5
82174.5
82174.4
82174.8
82172.3
82190.4
82060.2
82992.8
76315.6
59773
47048.1
38623.8
31885.9
26271.1
21734.1
18060.3
15050.8
12574
10529
8834.09
7424.57
6248.93
5265.77
4441.58
3749.16
3166.32
2674.84
2259.73
1908.62
1611.24
1359.07
1144.99
963.077
808.349
676.633
564.421
468.757
387.149
317.489
257.997
207.164
163.706
126.55
94.7326
67.5936
44.0833
24.793
5.71646
-2.88181
-0.106578
0.165983
-0.0792151
-0.0543536
-0.0305342
-0.0288048
-0.024739
-0.0201588
-0.0165634
-0.0134706
-0.0107327
-0.00831502
-0.00615764
-0.00419145
-0.00235316
-0.000706272
0.00140323
0.00150188
0.00912759
82174.5
82174.5
82174.5
82174.5
82174.5
82174.5
82174.5
82174.5
82174.5
82174.5
82174.5
82174.5
82174.5
82174.5
82174.5
82174.8
82172.3
82190.4
82060.2
82992.8
76315.6
59773
47048.1
38623.8
31885.9
26271.1
21734.1
18060.3
15050.8
12574
10529
8834.09
7424.58
6248.94
5265.77
4441.58
3749.17
3166.32
2674.84
2259.73
1908.62
1611.24
1359.07
1144.99
963.077
808.348
676.632
564.42
468.756
387.147
317.488
257.995
207.162
163.704
126.548
94.7304
67.5914
44.081
24.7907
5.71425
-2.88394
-0.108356
0.164453
-0.080561
-0.0555293
-0.0315628
-0.02971
-0.0255399
-0.0208719
-0.017204
-0.0140523
-0.0112684
-0.00881545
-0.0066365
-0.00465193
-0.00282779
-0.00114026
0.000810822
0.00127061
0.00781452
82174.5
82174.5
82174.5
82174.5
82174.5
82174.5
82174.5
82174.5
82174.5
82174.5
82174.5
82174.5
82174.5
82174.5
82174.5
82174.8
82172.3
82190.5
82060.2
82992.9
76315.6
59773
47048.1
38623.8
31885.9
26271.1
21734.1
18060.3
15050.8
12574
10529
8834.1
7424.58
6248.94
5265.77
4441.59
3749.17
3166.33
2674.85
2259.74
1908.63
1611.25
1359.07
1145
963.081
808.352
676.636
564.423
468.759
387.15
317.49
257.998
207.164
163.706
126.55
94.7318
67.5925
44.0819
24.7913
5.71457
-2.88394
-0.108312
0.164486
-0.0805719
-0.0555668
-0.0316216
-0.0297908
-0.0256422
-0.0209958
-0.0173508
-0.014224
-0.0114681
-0.00904669
-0.00690602
-0.00495873
-0.00320072
-0.00152031
0.000218043
0.00101829
0.0063142
82174.5
82174.5
82174.5
82174.5
82174.5
82174.5
82174.5
82174.5
82174.5
82174.5
82174.5
82174.5
82174.5
82174.5
82174.5
82174.8
82172.3
82190.5
82060.2
82992.9
76315.6
59773
47048.1
38623.8
31885.9
26271.1
21734.1
18060.3
15050.9
12574
10529
8834.11
7424.59
6248.95
5265.78
4441.6
3749.18
3166.34
2674.86
2259.75
1908.63
1611.25
1359.08
1145.01
963.09
808.36
676.643
564.431
468.766
387.157
317.497
258.004
207.17
163.712
126.555
94.7366
67.5969
44.0859
24.7947
5.71743
-2.8818
-0.106449
0.166078
-0.0792488
-0.0544661
-0.0307102
-0.029046
-0.025044
-0.0205277
-0.0170002
-0.0139814
-0.0113271
-0.00900251
-0.00695968
-0.00510384
-0.00346288
-0.00183761
-0.000363543
0.000752247
0.00466255
82174.5
82174.5
82174.5
82174.5
82174.5
82174.5
82174.5
82174.5
82174.5
82174.5
82174.5
82174.5
82174.5
82174.5
82174.5
82174.8
82172.3
82190.5
82060.2
82992.9
76315.6
59773
47048.1
38623.8
31885.9
26271.1
21734.2
18060.3
15050.9
12574
10529
8834.12
7424.61
6248.97
5265.8
4441.61
3749.2
3166.35
2674.87
2259.76
1908.65
1611.27
1359.09
1145.02
963.102
808.372
676.655
564.442
468.777
387.168
317.507
258.014
207.18
163.721
126.564
94.7448
67.6045
44.0928
24.8009
5.72274
-2.87757
-0.102813
0.16919
-0.0766254
-0.0522553
-0.0288516
-0.0274944
-0.0237603
-0.0194793
-0.0161609
-0.0133304
-0.0108485
-0.00868433
-0.00679571
-0.00508491
-0.00360719
-0.00208613
-0.000917573
0.0004777
0.00289894
82174.5
82174.5
82174.5
82174.5
82174.5
82174.5
82174.5
82174.5
82174.5
82174.5
82174.5
82174.5
82174.5
82174.5
82174.5
82174.8
82172.3
82190.5
82060.2
82992.9
76315.6
59773
47048.1
38623.8
31885.9
26271.2
21734.2
18060.3
15050.9
12574
10529
8834.14
7424.62
6248.98
5265.81
4441.63
3749.21
3166.37
2674.89
2259.78
1908.66
1611.28
1359.11
1145.03
963.118
808.388
676.67
564.457
468.792
387.182
317.522
258.028
207.193
163.733
126.576
94.7563
67.6152
44.1026
24.8097
5.73038
-2.87136
-0.0974955
0.173745
-0.0727668
-0.0489891
-0.0260919
-0.025174
-0.0218223
-0.0178758
-0.0148528
-0.0122861
-0.0100433
-0.00809873
-0.00641817
-0.00490038
-0.00363204
-0.00225735
-0.00143418
0.000200747
0.00106535
82174.5
82174.5
82174.5
82174.5
82174.5
82174.5
82174.5
82174.5
82174.5
82174.5
82174.5
82174.5
82174.5
82174.5
82174.5
82174.8
82172.3
82190.5
82060.2
82992.9
76315.6
59773
47048.1
38623.8
31885.9
26271.2
21734.2
18060.3
15050.9
12574.1
10529
8834.16
7424.64
6249
5265.83
4441.64
3749.23
3166.39
2674.91
2259.8
1908.68
1611.3
1359.13
1145.05
963.137
808.407
676.689
564.475
468.81
387.2
317.539
258.045
207.21
163.749
126.591
94.7706
67.6286
44.1149
24.8208
5.74015
-2.86333
-0.0906272
0.179629
-0.0677683
-0.0447484
-0.0224989
-0.0221419
-0.0192773
-0.0157561
-0.0131072
-0.0108733
-0.00893015
-0.00725963
-0.00583488
-0.00455681
-0.00353432
-0.00235222
-0.0018991
-7.24744e-05
-0.000795604
82174.5
82174.5
82174.5
82174.5
82174.5
82174.5
82174.5
82174.5
82174.5
82174.5
82174.5
82174.5
82174.5
82174.5
82174.5
82174.8
82172.3
82190.5
82060.2
82992.9
76315.6
59773
47048.1
38623.8
31886
26271.2
21734.2
18060.4
15050.9
12574.1
10529.1
8834.18
7424.66
6249.02
5265.86
4441.67
3749.25
3166.41
2674.93
2259.82
1908.71
1611.32
1359.15
1145.07
963.158
808.428
676.711
564.497
468.831
387.221
317.559
258.064
207.229
163.768
126.609
94.7875
67.6444
44.1296
24.834
5.75183
-2.85366
-0.082378
0.186698
-0.0617539
-0.0396378
-0.0181611
-0.0184722
-0.0161872
-0.0131709
-0.0109656
-0.00912507
-0.00753506
-0.00618582
-0.00506003
-0.00405928
-0.00332027
-0.00236366
-0.00230582
-0.000338436
-0.00264099
82174.5
82174.5
82174.5
82174.5
82174.5
82174.5
82174.5
82174.5
82174.5
82174.5
82174.5
82174.5
82174.5
82174.5
82174.5
82174.8
82172.3
82190.5
82060.2
82992.9
76315.6
59773.1
47048.2
38623.9
31886
26271.2
21734.2
18060.4
15050.9
12574.1
10529.1
8834.2
7424.68
6249.05
5265.88
4441.69
3749.28
3166.43
2674.95
2259.84
1908.73
1611.35
1359.17
1145.1
963.182
808.452
676.734
564.52
468.854
387.244
317.582
258.087
207.25
163.789
126.629
94.8065
67.6623
44.1461
24.849
5.76512
-2.8426
-0.0729515
0.194776
-0.0548723
-0.0337838
-0.0131857
-0.0142552
-0.0126275
-0.0101835
-0.0084799
-0.00708356
-0.0058912
-0.00490345
-0.00411141
-0.00342402
-0.0029925
-0.00230167
-0.00264621
-0.000593267
-0.00443217
82174.5
82174.5
82174.5
82174.5
82174.5
82174.5
82174.5
82174.5
82174.5
82174.5
82174.5
82174.5
82174.5
82174.5
82174.5
82174.8
82172.3
82190.5
82060.2
82992.9
76315.7
59773.1
47048.2
38623.9
31886
26271.2
21734.2
18060.4
15051
12574.1
10529.1
8834.22
7424.71
6249.07
5265.9
4441.71
3749.3
3166.46
2674.98
2259.87
1908.75
1611.37
1359.2
1145.12
963.208
808.478
676.76
564.546
468.88
387.269
317.606
258.111
207.274
163.811
126.651
94.8272
67.6818
44.1642
24.8654
5.77969
-2.83042
-0.0625831
0.203662
-0.0472944
-0.0273303
-0.0076938
-0.00959189
-0.00868213
-0.00686204
-0.00570516
-0.00479188
-0.00403173
-0.00343571
-0.00300577
-0.00265539
-0.00255786
-0.00215467
-0.00291247
-0.000831889
-0.00613032
82174.5
82174.5
82174.5
82174.5
82174.5
82174.5
82174.5
82174.5
82174.5
82174.5
82174.5
82174.5
82174.5
82174.5
82174.5
82174.9
82172.3
82190.5
82060.2
82992.9
76315.7
59773.1
47048.2
38623.9
31886
26271.3
21734.3
18060.4
15051
12574.1
10529.1
8834.24
7424.73
6249.1
5265.93
4441.74
3749.33
3166.48
2675
2259.9
1908.78
1611.4
1359.23
1145.15
963.235
808.505
676.787
564.572
468.906
387.295
317.632
258.136
207.298
163.835
126.674
94.8491
67.7024
44.1834
24.8829
5.79519
-2.81744
-0.0515333
0.213131
-0.0392123
-0.0204431
-0.00182725
-0.00460481
-0.00445575
-0.00329703
-0.00271845
-0.00231623
-0.00201207
-0.00183004
-0.00178066
-0.00178992
-0.00203713
-0.00195543
-0.00312038
-0.00107404
-0.00772969
82174.5
82174.5
82174.5
82174.5
82174.5
82174.5
82174.5
82174.5
82174.5
82174.5
82174.5
82174.5
82174.5
82174.5
82174.5
82174.9
82172.3
82190.5
82060.2
82992.9
76315.7
59773.1
47048.2
38623.9
31886
26271.3
21734.3
18060.5
15051
12574.2
10529.2
8834.27
7424.76
6249.12
5265.95
4441.76
3749.35
3166.51
2675.03
2259.92
1908.81
1611.43
1359.25
1145.18
963.262
808.532
676.814
564.599
468.933
387.321
317.658
258.162
207.324
163.86
126.697
94.8717
67.7237
44.2032
24.9009
5.81126
-2.80394
-0.0400549
0.222978
-0.0307903
-0.0132484
0.00432065
0.000642355
1.30745e-05
0.000496014
0.000484068
0.000365509
0.000204887
-3.41793e-05
-0.000373117
-0.000747676
-0.00135281
-0.00160435
-0.0031855
-0.00124697
-0.00916946
82174.5
82174.5
82174.5
82174.5
82174.5
82174.5
82174.5
82174.5
82174.5
82174.5
82174.5
82174.5
82174.5
82174.5
82174.5
82174.9
82172.3
82190.5
82060.3
82993
76315.7
59773.1
47048.2
38623.9
31886.1
26271.3
21734.3
18060.5
15051
12574.2
10529.2
8834.29
7424.78
6249.14
5265.97
4441.79
3749.38
3166.54
2675.05
2259.95
1908.83
1611.45
1359.28
1145.21
963.289
808.559
676.841
564.626
468.96
387.348
317.685
258.187
207.349
163.884
126.721
94.8942
67.745
44.223
24.9189
5.82734
-2.79043
-0.028602
0.23278
-0.0224319
-0.0061344
0.0103705
0.00577796
0.00435745
0.00415403
0.00354234
0.00289527
0.00226366
0.00159777
0.000866099
0.000115555
-0.000848486
-0.00146736
-0.00345894
-0.00169475
-0.0107609
)
;

boundaryField
{
    cyclic1
    {
        type            cyclic;
    }
    cyclic2
    {
        type            cyclic;
    }
    frontAndBack
    {
        type            empty;
    }
    outlet
    {
        type            fixedValue;
        value           uniform 0;
    }
    inlet
    {
        type            zeroGradient;
    }
}


// ************************************************************************* //
