TITLE = "SU2 Simulation"
VARIABLES = "Iteration","CL","CD","CSF","CMx","CMy","CMz","CFx","CFy","CFz","CL/CD","AoA","Custom_ObjFunc","Res_Flow[0]","Res_Flow[1]","Res_Flow[2]","Res_Flow[3]","Res_Flow[4]","Linear_Solver_Iterations","CFL_Number","Time(min)"
ZONE T= "Convergence history"
           0, 0.00000000e+00, 0.00000000e+00, 0.00000000e+00, 0.00000000e+00, 0.00000000e+00, 0.00000000e+00, 0.00000000e+00, 0.00000000e+00, 0.00000000e+00, 0.00000000e+00, 0.00000000e+00, 0.00000000e+00, -2.78825202e+00, -3.01900442e-01, -1.26119551e+01, 2.65672654e+00, 0.00000000e+00, 5.0000000000, 5.0000000000, 0.0012755500
           1, 0.00000000e+00, 0.00000000e+00, 0.00000000e+00, 0.00000000e+00, 0.00000000e+00, 0.00000000e+00, 0.00000000e+00, 0.00000000e+00, 0.00000000e+00, 0.00000000e+00, 0.00000000e+00, 0.00000000e+00, -2.97098147e+00, -4.90612490e-01, -2.60010936e+00, 2.47460768e+00, 0.00000000e+00, 5.0000000000, 5.0000000000, 0.0025578833
           2, 0.00000000e+00, 0.00000000e+00, 0.00000000e+00, 0.00000000e+00, 0.00000000e+00, 0.00000000e+00, 0.00000000e+00, 0.00000000e+00, 0.00000000e+00, 0.00000000e+00, 0.00000000e+00, 0.00000000e+00, -2.99888554e+00, -4.80906826e-01, -1.28637731e+00, 2.45918173e+00, 0.00000000e+00, 5.0000000000, 5.0000000000, 0.0038000333
           3, 0.00000000e+00, 0.00000000e+00, 0.00000000e+00, 0.00000000e+00, 0.00000000e+00, 0.00000000e+00, 0.00000000e+00, 0.00000000e+00, 0.00000000e+00, 0.00000000e+00, 0.00000000e+00, 0.00000000e+00, -2.92863187e+00, -3.85597604e-01, -1.00463322e+00, 2.53822033e+00, 0.00000000e+00, 5.0000000000, 5.0000000000, 0.0049775500
           4, 0.00000000e+00, 0.00000000e+00, 0.00000000e+00, 0.00000000e+00, 0.00000000e+00, 0.00000000e+00, 0.00000000e+00, 0.00000000e+00, 0.00000000e+00, 0.00000000e+00, 0.00000000e+00, 0.00000000e+00, -2.87924935e+00, -3.28302313e-01, -8.46704794e-01, 2.59110659e+00, 0.00000000e+00, 5.0000000000, 5.0000000000, 0.0061677833
           5, 0.00000000e+00, 0.00000000e+00, 0.00000000e+00, 0.00000000e+00, 0.00000000e+00, 0.00000000e+00, 0.00000000e+00, 0.00000000e+00, 0.00000000e+00, 0.00000000e+00, 0.00000000e+00, 0.00000000e+00, -2.85151763e+00, -2.96135706e-01, -7.39297627e-01, 2.62092089e+00, 0.00000000e+00, 5.0000000000, 5.0000000000, 0.0074258500
           6, 0.00000000e+00, 0.00000000e+00, 0.00000000e+00, 0.00000000e+00, 0.00000000e+00, 0.00000000e+00, 0.00000000e+00, 0.00000000e+00, 0.00000000e+00, 0.00000000e+00, 0.00000000e+00, 0.00000000e+00, -2.83470233e+00, -2.75693378e-01, -6.59429681e-01, 2.63921405e+00, 0.00000000e+00, 5.0000000000, 5.0000000000, 0.0086732667
           7, 0.00000000e+00, 0.00000000e+00, 0.00000000e+00, 0.00000000e+00, 0.00000000e+00, 0.00000000e+00, 0.00000000e+00, 0.00000000e+00, 0.00000000e+00, 0.00000000e+00, 0.00000000e+00, 0.00000000e+00, -2.82243189e+00, -2.60616027e-01, -5.96862683e-01, 2.65252604e+00, 0.00000000e+00, 5.0000000000, 5.0000000000, 0.0099223667
           8, 0.00000000e+00, 0.00000000e+00, 0.00000000e+00, 0.00000000e+00, 0.00000000e+00, 0.00000000e+00, 0.00000000e+00, 0.00000000e+00, 0.00000000e+00, 0.00000000e+00, 0.00000000e+00, 0.00000000e+00, -2.81204717e+00, -2.48343599e-01, -5.46145048e-01, 2.66362790e+00, 0.00000000e+00, 5.0000000000, 5.0000000000, 0.0111240333
           9, 0.00000000e+00, 0.00000000e+00, 0.00000000e+00, 0.00000000e+00, 0.00000000e+00, 0.00000000e+00, 0.00000000e+00, 0.00000000e+00, 0.00000000e+00, 0.00000000e+00, 0.00000000e+00, 0.00000000e+00, -2.80276315e+00, -2.37875300e-01, -5.04037319e-01, 2.67341708e+00, 0.00000000e+00, 5.0000000000, 5.0000000000, 0.0122727500
          10, 0.00000000e+00, 0.00000000e+00, 0.00000000e+00, 0.00000000e+00, 0.00000000e+00, 0.00000000e+00, 0.00000000e+00, 0.00000000e+00, 0.00000000e+00, 0.00000000e+00, 0.00000000e+00, 0.00000000e+00, -2.79446080e+00, -2.28796203e-01, -4.68461423e-01, 2.68209755e+00, 0.00000000e+00, 5.0000000000, 5.0000000000, 0.0134629667
          11, 0.00000000e+00, 0.00000000e+00, 0.00000000e+00, 0.00000000e+00, 0.00000000e+00, 0.00000000e+00, 0.00000000e+00, 0.00000000e+00, 0.00000000e+00, 0.00000000e+00, 0.00000000e+00, 0.00000000e+00, -2.78715842e+00, -2.20932615e-01, -4.38002084e-01, 2.68970041e+00, 0.00000000e+00, 5.0000000000, 5.0000000000, 0.0146763667
          12, 0.00000000e+00, 0.00000000e+00, 0.00000000e+00, 0.00000000e+00, 0.00000000e+00, 0.00000000e+00, 0.00000000e+00, 0.00000000e+00, 0.00000000e+00, 0.00000000e+00, 0.00000000e+00, 0.00000000e+00, -2.78085485e+00, -2.14217898e-01, -4.11653517e-01, 2.69625084e+00, 0.00000000e+00, 5.0000000000, 5.0000000000, 0.0159140333
          13, 0.00000000e+00, 0.00000000e+00, 0.00000000e+00, 0.00000000e+00, 0.00000000e+00, 0.00000000e+00, 0.00000000e+00, 0.00000000e+00, 0.00000000e+00, 0.00000000e+00, 0.00000000e+00, 0.00000000e+00, -2.77550114e+00, -2.08632673e-01, -3.88675389e-01, 2.70180772e+00, 0.00000000e+00, 5.0000000000, 5.0000000000, 0.0171619667
          14, 0.00000000e+00, 0.00000000e+00, 0.00000000e+00, 0.00000000e+00, 0.00000000e+00, 0.00000000e+00, 0.00000000e+00, 0.00000000e+00, 0.00000000e+00, 0.00000000e+00, 0.00000000e+00, 0.00000000e+00, -2.77099494e+00, -2.04193647e-01, -3.68507312e-01, 2.70647515e+00, 0.00000000e+00, 5.0000000000, 5.0000000000, 0.0184147500
          15, 0.00000000e+00, 0.00000000e+00, 0.00000000e+00, 0.00000000e+00, 0.00000000e+00, 0.00000000e+00, 0.00000000e+00, 0.00000000e+00, 0.00000000e+00, 0.00000000e+00, 0.00000000e+00, 0.00000000e+00, -2.76717077e+00, -2.00974268e-01, -3.50715008e-01, 2.71041345e+00, 0.00000000e+00, 5.0000000000, 5.0000000000, 0.0196447000
          16, 0.00000000e+00, 0.00000000e+00, 0.00000000e+00, 0.00000000e+00, 0.00000000e+00, 0.00000000e+00, 0.00000000e+00, 0.00000000e+00, 0.00000000e+00, 0.00000000e+00, 0.00000000e+00, 0.00000000e+00, -2.76378700e+00, -1.99134235e-01, -3.34955228e-01, 2.71385183e+00, 0.00000000e+00, 5.0000000000, 5.0000000000, 0.0208738333
          17, 0.00000000e+00, 0.00000000e+00, 0.00000000e+00, 0.00000000e+00, 0.00000000e+00, 0.00000000e+00, 0.00000000e+00, 0.00000000e+00, 0.00000000e+00, 0.00000000e+00, 0.00000000e+00, 0.00000000e+00, -2.76051946e+00, -1.98937270e-01, -3.20952212e-01, 2.71709512e+00, 0.00000000e+00, 5.0000000000, 5.0000000000, 0.0220158167
          18, 0.00000000e+00, 0.00000000e+00, 0.00000000e+00, 0.00000000e+00, 0.00000000e+00, 0.00000000e+00, 0.00000000e+00, 0.00000000e+00, 0.00000000e+00, 0.00000000e+00, 0.00000000e+00, 0.00000000e+00, -2.75697729e+00, -2.00743150e-01, -3.08481396e-01, 2.72051070e+00, 0.00000000e+00, 5.0000000000, 5.0000000000, 0.0231456167
          19, 0.00000000e+00, 0.00000000e+00, 0.00000000e+00, 0.00000000e+00, 0.00000000e+00, 0.00000000e+00, 0.00000000e+00, 0.00000000e+00, 0.00000000e+00, 0.00000000e+00, 0.00000000e+00, 0.00000000e+00, -2.75275629e+00, -2.04966105e-01, -2.97357665e-01, 2.72448164e+00, 0.00000000e+00, 5.0000000000, 5.0000000000, 0.0242723000
          20, 0.00000000e+00, 0.00000000e+00, 0.00000000e+00, 0.00000000e+00, 0.00000000e+00, 0.00000000e+00, 0.00000000e+00, 0.00000000e+00, 0.00000000e+00, 0.00000000e+00, 0.00000000e+00, 0.00000000e+00, -2.74753227e+00, -2.11996904e-01, -2.87426675e-01, 2.72932271e+00, 0.00000000e+00, 5.0000000000, 5.0000000000, 0.0254728667
          21, 0.00000000e+00, 0.00000000e+00, 0.00000000e+00, 0.00000000e+00, 0.00000000e+00, 0.00000000e+00, 0.00000000e+00, 0.00000000e+00, 0.00000000e+00, 0.00000000e+00, 0.00000000e+00, 0.00000000e+00, -2.74117186e+00, -2.22090188e-01, -2.78558032e-01, 2.73517837e+00, 0.00000000e+00, 5.0000000000, 5.0000000000, 0.0267266333
          22, 0.00000000e+00, 0.00000000e+00, 0.00000000e+00, 0.00000000e+00, 0.00000000e+00, 0.00000000e+00, 0.00000000e+00, 0.00000000e+00, 0.00000000e+00, 0.00000000e+00, 0.00000000e+00, 0.00000000e+00, -2.73381577e+00, -2.35221997e-01, -2.70639172e-01, 2.74194304e+00, 0.00000000e+00, 5.0000000000, 5.0000000000, 0.0279215667
          23, 0.00000000e+00, 0.00000000e+00, 0.00000000e+00, 0.00000000e+00, 0.00000000e+00, 0.00000000e+00, 0.00000000e+00, 0.00000000e+00, 0.00000000e+00, 0.00000000e+00, 0.00000000e+00, 0.00000000e+00, -2.72588965e+00, -2.50928729e-01, -2.63570781e-01, 2.74924520e+00, 0.00000000e+00, 5.0000000000, 5.0000000000, 0.0291424833
          24, 0.00000000e+00, 0.00000000e+00, 0.00000000e+00, 0.00000000e+00, 0.00000000e+00, 0.00000000e+00, 0.00000000e+00, 0.00000000e+00, 0.00000000e+00, 0.00000000e+00, 0.00000000e+00, 0.00000000e+00, -2.71802914e+00, -2.68157073e-01, -2.57262722e-01, 2.75651062e+00, 0.00000000e+00, 5.0000000000, 5.0000000000, 0.0303729667
          25, 0.00000000e+00, 0.00000000e+00, 0.00000000e+00, 0.00000000e+00, 0.00000000e+00, 0.00000000e+00, 0.00000000e+00, 0.00000000e+00, 0.00000000e+00, 0.00000000e+00, 0.00000000e+00, 0.00000000e+00, -2.71094686e+00, -2.85193659e-01, -2.51636503e-01, 2.76308257e+00, 0.00000000e+00, 5.0000000000, 5.0000000000, 0.0315551667
          26, 0.00000000e+00, 0.00000000e+00, 0.00000000e+00, 0.00000000e+00, 0.00000000e+00, 0.00000000e+00, 0.00000000e+00, 0.00000000e+00, 0.00000000e+00, 0.00000000e+00, 0.00000000e+00, 0.00000000e+00, -2.70529229e+00, -2.99795005e-01, -2.46623091e-01, 2.76835331e+00, 0.00000000e+00, 5.0000000000, 5.0000000000, 0.0326966167
          27, 0.00000000e+00, 0.00000000e+00, 0.00000000e+00, 0.00000000e+00, 0.00000000e+00, 0.00000000e+00, 0.00000000e+00, 0.00000000e+00, 0.00000000e+00, 0.00000000e+00, 0.00000000e+00, 0.00000000e+00, -2.70154884e+00, -3.09635731e-01, -2.42157788e-01, 2.77186399e+00, 0.00000000e+00, 5.0000000000, 5.0000000000, 0.0338618167
          28, 0.00000000e+00, 0.00000000e+00, 0.00000000e+00, 0.00000000e+00, 0.00000000e+00, 0.00000000e+00, 0.00000000e+00, 0.00000000e+00, 0.00000000e+00, 0.00000000e+00, 0.00000000e+00, 0.00000000e+00, -2.69998705e+00, -3.13018708e-01, -2.38180222e-01, 2.77335301e+00, 0.00000000e+00, 5.0000000000, 5.0000000000, 0.0349891167
          29, 0.00000000e+00, 0.00000000e+00, 0.00000000e+00, 0.00000000e+00, 0.00000000e+00, 0.00000000e+00, 0.00000000e+00, 0.00000000e+00, 0.00000000e+00, 0.00000000e+00, 0.00000000e+00, 0.00000000e+00, -2.70067157e+00, -3.09491265e-01, -2.34634883e-01, 2.77275256e+00, 0.00000000e+00, 5.0000000000, 5.0000000000, 0.0362229000
          30, 0.00000000e+00, 0.00000000e+00, 0.00000000e+00, 0.00000000e+00, 0.00000000e+00, 0.00000000e+00, 0.00000000e+00, 0.00000000e+00, 0.00000000e+00, 0.00000000e+00, 0.00000000e+00, 0.00000000e+00, -2.70350780e+00, -2.99932295e-01, -2.31471338e-01, 2.77014627e+00, 0.00000000e+00, 5.0000000000, 5.0000000000, 0.0374794333
          31, 0.00000000e+00, 0.00000000e+00, 0.00000000e+00, 0.00000000e+00, 0.00000000e+00, 0.00000000e+00, 0.00000000e+00, 0.00000000e+00, 0.00000000e+00, 0.00000000e+00, 0.00000000e+00, 0.00000000e+00, -2.70830916e+00, -2.86056561e-01, -2.28644267e-01, 2.76570579e+00, 0.00000000e+00, 5.0000000000, 5.0000000000, 0.0386394833
          32, 0.00000000e+00, 0.00000000e+00, 0.00000000e+00, 0.00000000e+00, 0.00000000e+00, 0.00000000e+00, 0.00000000e+00, 0.00000000e+00, 0.00000000e+00, 0.00000000e+00, 0.00000000e+00, 0.00000000e+00, -2.71486559e+00, -2.69728135e-01, -2.26113419e-01, 2.75962592e+00, 0.00000000e+00, 5.0000000000, 5.0000000000, 0.0397814000
          33, 0.00000000e+00, 0.00000000e+00, 0.00000000e+00, 0.00000000e+00, 0.00000000e+00, 0.00000000e+00, 0.00000000e+00, 0.00000000e+00, 0.00000000e+00, 0.00000000e+00, 0.00000000e+00, 0.00000000e+00, -2.72299580e+00, -2.52485477e-01, -2.23843478e-01, 2.75207521e+00, 0.00000000e+00, 5.0000000000, 5.0000000000, 0.0409330167
          34, 0.00000000e+00, 0.00000000e+00, 0.00000000e+00, 0.00000000e+00, 0.00000000e+00, 0.00000000e+00, 0.00000000e+00, 0.00000000e+00, 0.00000000e+00, 0.00000000e+00, 0.00000000e+00, 0.00000000e+00, -2.73257234e+00, -2.35385873e-01, -2.21803788e-01, 2.74317250e+00, 0.00000000e+00, 5.0000000000, 5.0000000000, 0.0421122000
          35, 0.00000000e+00, 0.00000000e+00, 0.00000000e+00, 0.00000000e+00, 0.00000000e+00, 0.00000000e+00, 0.00000000e+00, 0.00000000e+00, 0.00000000e+00, 0.00000000e+00, 0.00000000e+00, 0.00000000e+00, -2.74351836e+00, -2.19061872e-01, -2.19968110e-01, 2.73299021e+00, 0.00000000e+00, 5.0000000000, 5.0000000000, 0.0432912333
          36, 0.00000000e+00, 0.00000000e+00, 0.00000000e+00, 0.00000000e+00, 0.00000000e+00, 0.00000000e+00, 0.00000000e+00, 0.00000000e+00, 0.00000000e+00, 0.00000000e+00, 0.00000000e+00, 0.00000000e+00, -2.75578525e+00, -2.03851255e-01, -2.18314433e-01, 2.72157499e+00, 0.00000000e+00, 5.0000000000, 5.0000000000, 0.0442715000
          37, 0.00000000e+00, 0.00000000e+00, 0.00000000e+00, 0.00000000e+00, 0.00000000e+00, 0.00000000e+00, 0.00000000e+00, 0.00000000e+00, 0.00000000e+00, 0.00000000e+00, 0.00000000e+00, 0.00000000e+00, -2.76932711e+00, -1.89915859e-01, -2.16824366e-01, 2.70897052e+00, 0.00000000e+00, 5.0000000000, 5.0000000000, 0.0454320167
          38, 0.00000000e+00, 0.00000000e+00, 0.00000000e+00, 0.00000000e+00, 0.00000000e+00, 0.00000000e+00, 0.00000000e+00, 0.00000000e+00, 0.00000000e+00, 0.00000000e+00, 0.00000000e+00, 0.00000000e+00, -2.78408732e+00, -1.77319441e-01, -2.15482392e-01, 2.69522805e+00, 0.00000000e+00, 5.0000000000, 5.0000000000, 0.0465648500
          39, 0.00000000e+00, 0.00000000e+00, 0.00000000e+00, 0.00000000e+00, 0.00000000e+00, 0.00000000e+00, 0.00000000e+00, 0.00000000e+00, 0.00000000e+00, 0.00000000e+00, 0.00000000e+00, 0.00000000e+00, -2.80000685e+00, -1.66067060e-01, -2.14276261e-01, 2.68039620e+00, 0.00000000e+00, 5.0000000000, 5.0000000000, 0.0476854000
          40, 0.00000000e+00, 0.00000000e+00, 0.00000000e+00, 0.00000000e+00, 0.00000000e+00, 0.00000000e+00, 0.00000000e+00, 0.00000000e+00, 0.00000000e+00, 0.00000000e+00, 0.00000000e+00, 0.00000000e+00, -2.81705364e+00, -1.56121179e-01, -2.13195521e-01, 2.66449166e+00, 0.00000000e+00, 5.0000000000, 5.0000000000, 0.0493035500
          41, 0.00000000e+00, 0.00000000e+00, 0.00000000e+00, 0.00000000e+00, 0.00000000e+00, 0.00000000e+00, 0.00000000e+00, 0.00000000e+00, 0.00000000e+00, 0.00000000e+00, 0.00000000e+00, 0.00000000e+00, -2.83526243e+00, -1.47410541e-01, -2.12231829e-01, 2.64746130e+00, 0.00000000e+00, 5.0000000000, 5.0000000000, 0.0511590833
          42, 0.00000000e+00, 0.00000000e+00, 0.00000000e+00, 0.00000000e+00, 0.00000000e+00, 0.00000000e+00, 0.00000000e+00, 0.00000000e+00, 0.00000000e+00, 0.00000000e+00, 0.00000000e+00, 0.00000000e+00, -2.85476674e+00, -1.39842607e-01, -2.11378241e-01, 2.62915312e+00, 0.00000000e+00, 5.0000000000, 5.0000000000, 0.0526733667
          43, 0.00000000e+00, 0.00000000e+00, 0.00000000e+00, 0.00000000e+00, 0.00000000e+00, 0.00000000e+00, 0.00000000e+00, 0.00000000e+00, 0.00000000e+00, 0.00000000e+00, 0.00000000e+00, 0.00000000e+00, -2.87580329e+00, -1.33323486e-01, -2.10628734e-01, 2.60931339e+00, 0.00000000e+00, 5.0000000000, 5.0000000000, 0.0539867500
          44, 0.00000000e+00, 0.00000000e+00, 0.00000000e+00, 0.00000000e+00, 0.00000000e+00, 0.00000000e+00, 0.00000000e+00, 0.00000000e+00, 0.00000000e+00, 0.00000000e+00, 0.00000000e+00, 0.00000000e+00, -2.89867186e+00, -1.27783242e-01, -2.09977812e-01, 2.58762407e+00, 0.00000000e+00, 5.0000000000, 5.0000000000, 0.0552244000
          45, 0.00000000e+00, 0.00000000e+00, 0.00000000e+00, 0.00000000e+00, 0.00000000e+00, 0.00000000e+00, 0.00000000e+00, 0.00000000e+00, 0.00000000e+00, 0.00000000e+00, 0.00000000e+00, 0.00000000e+00, -2.92363867e+00, -1.23200866e-01, -2.09420202e-01, 2.56378893e+00, 0.00000000e+00, 5.0000000000, 5.0000000000, 0.0564342833
          46, 0.00000000e+00, 0.00000000e+00, 0.00000000e+00, 0.00000000e+00, 0.00000000e+00, 0.00000000e+00, 0.00000000e+00, 0.00000000e+00, 0.00000000e+00, 0.00000000e+00, 0.00000000e+00, 0.00000000e+00, -2.95077100e+00, -1.19622544e-01, -2.08950704e-01, 2.53767719e+00, 0.00000000e+00, 5.0000000000, 5.0000000000, 0.0576988500
          47, 0.00000000e+00, 0.00000000e+00, 0.00000000e+00, 0.00000000e+00, 0.00000000e+00, 0.00000000e+00, 0.00000000e+00, 0.00000000e+00, 0.00000000e+00, 0.00000000e+00, 0.00000000e+00, 0.00000000e+00, -2.97968505e+00, -1.17168920e-01, -2.08564002e-01, 2.50953888e+00, 0.00000000e+00, 5.0000000000, 5.0000000000, 0.0591792833
          48, 0.00000000e+00, 0.00000000e+00, 0.00000000e+00, 0.00000000e+00, 0.00000000e+00, 0.00000000e+00, 0.00000000e+00, 0.00000000e+00, 0.00000000e+00, 0.00000000e+00, 0.00000000e+00, 0.00000000e+00, -3.00919153e+00, -1.16030708e-01, -2.08254601e-01, 2.48030936e+00, 0.00000000e+00, 5.0000000000, 5.0000000000, 0.0606075167
          49, 0.00000000e+00, 0.00000000e+00, 0.00000000e+00, 0.00000000e+00, 0.00000000e+00, 0.00000000e+00, 0.00000000e+00, 0.00000000e+00, 0.00000000e+00, 0.00000000e+00, 0.00000000e+00, 0.00000000e+00, -3.03688157e+00, -1.16455536e-01, -2.08016835e-01, 2.45198485e+00, 0.00000000e+00, 5.0000000000, 5.0000000000, 0.0618173667
          50, 0.00000000e+00, 0.00000000e+00, 0.00000000e+00, 0.00000000e+00, 0.00000000e+00, 0.00000000e+00, 0.00000000e+00, 0.00000000e+00, 0.00000000e+00, 0.00000000e+00, 0.00000000e+00, 0.00000000e+00, -3.05889392e+00, -1.18730986e-01, -2.07845047e-01, 2.42791049e+00, 0.00000000e+00, 5.0000000000, 5.0000000000, 0.0630316333
          51, 0.00000000e+00, 0.00000000e+00, 0.00000000e+00, 0.00000000e+00, 0.00000000e+00, 0.00000000e+00, 0.00000000e+00, 0.00000000e+00, 0.00000000e+00, 0.00000000e+00, 0.00000000e+00, 0.00000000e+00, -3.07043191e+00, -1.23168932e-01, -2.07733075e-01, 2.41254122e+00, 0.00000000e+00, 5.0000000000, 5.0000000000, 0.0642724000
          52, 0.00000000e+00, 0.00000000e+00, 0.00000000e+00, 0.00000000e+00, 0.00000000e+00, 0.00000000e+00, 0.00000000e+00, 0.00000000e+00, 0.00000000e+00, 0.00000000e+00, 0.00000000e+00, 0.00000000e+00, -3.06753608e+00, -1.30094814e-01, -2.07674820e-01, 2.41012194e+00, 0.00000000e+00, 5.0000000000, 5.0000000000, 0.0655134333
          53, 0.00000000e+00, 0.00000000e+00, 0.00000000e+00, 0.00000000e+00, 0.00000000e+00, 0.00000000e+00, 0.00000000e+00, 0.00000000e+00, 0.00000000e+00, 0.00000000e+00, 0.00000000e+00, 0.00000000e+00, -3.04934091e+00, -1.39843636e-01, -2.07664327e-01, 2.42255366e+00, 0.00000000e+00, 5.0000000000, 5.0000000000, 0.0667009500
          54, 0.00000000e+00, 0.00000000e+00, 0.00000000e+00, 0.00000000e+00, 0.00000000e+00, 0.00000000e+00, 0.00000000e+00, 0.00000000e+00, 0.00000000e+00, 0.00000000e+00, 0.00000000e+00, 0.00000000e+00, -3.01869722e+00, -1.52762800e-01, -2.07695687e-01, 2.44817022e+00, 0.00000000e+00, 5.0000000000, 5.0000000000, 0.0678790667
          55, 0.00000000e+00, 0.00000000e+00, 0.00000000e+00, 0.00000000e+00, 0.00000000e+00, 0.00000000e+00, 0.00000000e+00, 0.00000000e+00, 0.00000000e+00, 0.00000000e+00, 0.00000000e+00, 0.00000000e+00, -2.98046373e+00, -1.69221100e-01, -2.07763289e-01, 2.48273767e+00, 0.00000000e+00, 5.0000000000, 5.0000000000, 0.0690196500
          56, 0.00000000e+00, 0.00000000e+00, 0.00000000e+00, 0.00000000e+00, 0.00000000e+00, 0.00000000e+00, 0.00000000e+00, 0.00000000e+00, 0.00000000e+00, 0.00000000e+00, 0.00000000e+00, 0.00000000e+00, -2.93930601e+00, -1.89623038e-01, -2.07861923e-01, 2.52157252e+00, 0.00000000e+00, 5.0000000000, 5.0000000000, 0.0702529000
          57, 0.00000000e+00, 0.00000000e+00, 0.00000000e+00, 0.00000000e+00, 0.00000000e+00, 0.00000000e+00, 0.00000000e+00, 0.00000000e+00, 0.00000000e+00, 0.00000000e+00, 0.00000000e+00, 0.00000000e+00, -2.89860555e+00, -2.14428290e-01, -2.07986862e-01, 2.56096835e+00, 0.00000000e+00, 5.0000000000, 5.0000000000, 0.0715441667
          58, 0.00000000e+00, 0.00000000e+00, 0.00000000e+00, 0.00000000e+00, 0.00000000e+00, 0.00000000e+00, 0.00000000e+00, 0.00000000e+00, 0.00000000e+00, 0.00000000e+00, 0.00000000e+00, 0.00000000e+00, -2.86041990e+00, -2.44177165e-01, -2.08133958e-01, 2.59851804e+00, 0.00000000e+00, 5.0000000000, 5.0000000000, 0.0730920000
          59, 0.00000000e+00, 0.00000000e+00, 0.00000000e+00, 0.00000000e+00, 0.00000000e+00, 0.00000000e+00, 0.00000000e+00, 0.00000000e+00, 0.00000000e+00, 0.00000000e+00, 0.00000000e+00, 0.00000000e+00, -2.82584379e+00, -2.79524338e-01, -2.08299736e-01, 2.63286037e+00, 0.00000000e+00, 5.0000000000, 5.0000000000, 0.0745550333
          60, 0.00000000e+00, 0.00000000e+00, 0.00000000e+00, 0.00000000e+00, 0.00000000e+00, 0.00000000e+00, 0.00000000e+00, 0.00000000e+00, 0.00000000e+00, 0.00000000e+00, 0.00000000e+00, 0.00000000e+00, -2.79537363e+00, -3.21284718e-01, -2.08481273e-01, 2.66332268e+00, 0.00000000e+00, 5.0000000000, 5.0000000000, 0.0759707333
          61, 0.00000000e+00, 0.00000000e+00, 0.00000000e+00, 0.00000000e+00, 0.00000000e+00, 0.00000000e+00, 0.00000000e+00, 0.00000000e+00, 0.00000000e+00, 0.00000000e+00, 0.00000000e+00, 0.00000000e+00, -2.76916385e+00, -3.70496681e-01, -2.08676272e-01, 2.68964172e+00, 0.00000000e+00, 5.0000000000, 5.0000000000, 0.0773690000
          62, 0.00000000e+00, 0.00000000e+00, 0.00000000e+00, 0.00000000e+00, 0.00000000e+00, 0.00000000e+00, 0.00000000e+00, 0.00000000e+00, 0.00000000e+00, 0.00000000e+00, 0.00000000e+00, 0.00000000e+00, -2.74718279e+00, -4.28507069e-01, -2.08883030e-01, 2.71178410e+00, 0.00000000e+00, 5.0000000000, 5.0000000000, 0.0787624333
          63, 0.00000000e+00, 0.00000000e+00, 0.00000000e+00, 0.00000000e+00, 0.00000000e+00, 0.00000000e+00, 0.00000000e+00, 0.00000000e+00, 0.00000000e+00, 0.00000000e+00, 0.00000000e+00, 0.00000000e+00, -2.72930086e+00, -4.97070166e-01, -2.09100352e-01, 2.72984104e+00, 0.00000000e+00, 5.0000000000, 5.0000000000, 0.0801384000
          64, 0.00000000e+00, 0.00000000e+00, 0.00000000e+00, 0.00000000e+00, 0.00000000e+00, 0.00000000e+00, 0.00000000e+00, 0.00000000e+00, 0.00000000e+00, 0.00000000e+00, 0.00000000e+00, 0.00000000e+00, -2.71533794e+00, -5.78391077e-01, -2.09327447e-01, 2.74396996e+00, 0.00000000e+00, 5.0000000000, 5.0000000000, 0.0816874667
          65, 0.00000000e+00, 0.00000000e+00, 0.00000000e+00, 0.00000000e+00, 0.00000000e+00, 0.00000000e+00, 0.00000000e+00, 0.00000000e+00, 0.00000000e+00, 0.00000000e+00, 0.00000000e+00, 0.00000000e+00, -2.70508772e+00, -6.74764951e-01, -2.09563847e-01, 2.75436330e+00, 0.00000000e+00, 5.0000000000, 5.0000000000, 0.0834308167
          66, 0.00000000e+00, 0.00000000e+00, 0.00000000e+00, 0.00000000e+00, 0.00000000e+00, 0.00000000e+00, 0.00000000e+00, 0.00000000e+00, 0.00000000e+00, 0.00000000e+00, 0.00000000e+00, 0.00000000e+00, -2.69832932e+00, -7.86251295e-01, -2.09809306e-01, 2.76123285e+00, 0.00000000e+00, 5.0000000000, 5.0000000000, 0.0849135667
          67, 0.00000000e+00, 0.00000000e+00, 0.00000000e+00, 0.00000000e+00, 0.00000000e+00, 0.00000000e+00, 0.00000000e+00, 0.00000000e+00, 0.00000000e+00, 0.00000000e+00, 0.00000000e+00, 0.00000000e+00, -2.69483195e+00, -9.00546129e-01, -2.10063713e-01, 2.76480260e+00, 0.00000000e+00, 5.0000000000, 5.0000000000, 0.0863247333
          68, 0.00000000e+00, 0.00000000e+00, 0.00000000e+00, 0.00000000e+00, 0.00000000e+00, 0.00000000e+00, 0.00000000e+00, 0.00000000e+00, 0.00000000e+00, 0.00000000e+00, 0.00000000e+00, 0.00000000e+00, -2.69435595e+00, -9.69595594e-01, -2.10326996e-01, 2.76530625e+00, 0.00000000e+00, 5.0000000000, 5.0000000000, 0.0876113333
          69, 0.00000000e+00, 0.00000000e+00, 0.00000000e+00, 0.00000000e+00, 0.00000000e+00, 0.00000000e+00, 0.00000000e+00, 0.00000000e+00, 0.00000000e+00, 0.00000000e+00, 0.00000000e+00, 0.00000000e+00, -2.69665188e+00, -9.39794508e-01, -2.10599039e-01, 2.76298721e+00, 0.00000000e+00, 5.0000000000, 5.0000000000, 0.0887311333
          70, 0.00000000e+00, 0.00000000e+00, 0.00000000e+00, 0.00000000e+00, 0.00000000e+00, 0.00000000e+00, 0.00000000e+00, 0.00000000e+00, 0.00000000e+00, 0.00000000e+00, 0.00000000e+00, 0.00000000e+00, -2.70145873e+00, -8.49284517e-01, -2.10879652e-01, 2.75809997e+00, 0.00000000e+00, 5.0000000000, 5.0000000000, 0.0897372333
          71, 0.00000000e+00, 0.00000000e+00, 0.00000000e+00, 0.00000000e+00, 0.00000000e+00, 0.00000000e+00, 0.00000000e+00, 0.00000000e+00, 0.00000000e+00, 0.00000000e+00, 0.00000000e+00, 0.00000000e+00, -2.70850209e+00, -7.54571034e-01, -2.11168443e-01, 2.75091178e+00, 0.00000000e+00, 5.0000000000, 5.0000000000, 0.0907047333
          72, 0.00000000e+00, 0.00000000e+00, 0.00000000e+00, 0.00000000e+00, 0.00000000e+00, 0.00000000e+00, 0.00000000e+00, 0.00000000e+00, 0.00000000e+00, 0.00000000e+00, 0.00000000e+00, 0.00000000e+00, -2.71749264e+00, -6.73588127e-01, -2.11464814e-01, 2.74170422e+00, 0.00000000e+00, 5.0000000000, 5.0000000000, 0.0916838000
          73, 0.00000000e+00, 0.00000000e+00, 0.00000000e+00, 0.00000000e+00, 0.00000000e+00, 0.00000000e+00, 0.00000000e+00, 0.00000000e+00, 0.00000000e+00, 0.00000000e+00, 0.00000000e+00, 0.00000000e+00, -2.72812584e+00, -6.07533837e-01, -2.11767942e-01, 2.73077391e+00, 0.00000000e+00, 5.0000000000, 5.0000000000, 0.0926635667
          74, 0.00000000e+00, 0.00000000e+00, 0.00000000e+00, 0.00000000e+00, 0.00000000e+00, 0.00000000e+00, 0.00000000e+00, 0.00000000e+00, 0.00000000e+00, 0.00000000e+00, 0.00000000e+00, 0.00000000e+00, -2.74008333e+00, -5.54149055e-01, -2.12076744e-01, 2.71843159e+00, 0.00000000e+00, 5.0000000000, 5.0000000000, 0.0935965333
          75, 0.00000000e+00, 0.00000000e+00, 0.00000000e+00, 0.00000000e+00, 0.00000000e+00, 0.00000000e+00, 0.00000000e+00, 0.00000000e+00, 0.00000000e+00, 0.00000000e+00, 0.00000000e+00, 0.00000000e+00, -2.75303679e+00, -5.11026447e-01, -2.12389841e-01, 2.70499922e+00, 0.00000000e+00, 5.0000000000, 5.0000000000, 0.0945533500
          76, 0.00000000e+00, 0.00000000e+00, 0.00000000e+00, 0.00000000e+00, 0.00000000e+00, 0.00000000e+00, 0.00000000e+00, 0.00000000e+00, 0.00000000e+00, 0.00000000e+00, 0.00000000e+00, 0.00000000e+00, -2.76665458e+00, -4.76191007e-01, -2.12705576e-01, 2.69080417e+00, 0.00000000e+00, 5.0000000000, 5.0000000000, 0.0955095167
          77, 0.00000000e+00, 0.00000000e+00, 0.00000000e+00, 0.00000000e+00, 0.00000000e+00, 0.00000000e+00, 0.00000000e+00, 0.00000000e+00, 0.00000000e+00, 0.00000000e+00, 0.00000000e+00, 0.00000000e+00, -2.78061138e+00, -4.48097728e-01, -2.13022138e-01, 2.67617070e+00, 0.00000000e+00, 5.0000000000, 5.0000000000, 0.0964337833
          78, 0.00000000e+00, 0.00000000e+00, 0.00000000e+00, 0.00000000e+00, 0.00000000e+00, 0.00000000e+00, 0.00000000e+00, 0.00000000e+00, 0.00000000e+00, 0.00000000e+00, 0.00000000e+00, 0.00000000e+00, -2.79460032e+00, -4.25535916e-01, -2.13337431e-01, 2.66140865e+00, 0.00000000e+00, 5.0000000000, 5.0000000000, 0.0974471333
          79, 0.00000000e+00, 0.00000000e+00, 0.00000000e+00, 0.00000000e+00, 0.00000000e+00, 0.00000000e+00, 0.00000000e+00, 0.00000000e+00, 0.00000000e+00, 0.00000000e+00, 0.00000000e+00, 0.00000000e+00, -2.80834639e+00, -4.07541783e-01, -2.13649145e-01, 2.64680061e+00, 0.00000000e+00, 5.0000000000, 5.0000000000, 0.0983924333
          80, 0.00000000e+00, 0.00000000e+00, 0.00000000e+00, 0.00000000e+00, 0.00000000e+00, 0.00000000e+00, 0.00000000e+00, 0.00000000e+00, 0.00000000e+00, 0.00000000e+00, 0.00000000e+00, 0.00000000e+00, -2.82161933e+00, -3.93334270e-01, -2.13954791e-01, 2.63258899e+00, 0.00000000e+00, 5.0000000000, 5.0000000000, 0.0993270667
          81, 0.00000000e+00, 0.00000000e+00, 0.00000000e+00, 0.00000000e+00, 0.00000000e+00, 0.00000000e+00, 0.00000000e+00, 0.00000000e+00, 0.00000000e+00, 0.00000000e+00, 0.00000000e+00, 0.00000000e+00, -2.83424401e+00, -3.82271048e-01, -2.14251753e-01, 2.61896506e+00, 0.00000000e+00, 5.0000000000, 5.0000000000, 0.1002834333
          82, 0.00000000e+00, 0.00000000e+00, 0.00000000e+00, 0.00000000e+00, 0.00000000e+00, 0.00000000e+00, 0.00000000e+00, 0.00000000e+00, 0.00000000e+00, 0.00000000e+00, 0.00000000e+00, 0.00000000e+00, -2.84610631e+00, -3.73819306e-01, -2.14537337e-01, 2.60606177e+00, 0.00000000e+00, 5.0000000000, 5.0000000000, 0.1012355167
          83, 0.00000000e+00, 0.00000000e+00, 0.00000000e+00, 0.00000000e+00, 0.00000000e+00, 0.00000000e+00, 0.00000000e+00, 0.00000000e+00, 0.00000000e+00, 0.00000000e+00, 0.00000000e+00, 0.00000000e+00, -2.85715361e+00, -3.67536640e-01, -2.14808825e-01, 2.59395172e+00, 0.00000000e+00, 5.0000000000, 5.0000000000, 0.1021584333
          84, 0.00000000e+00, 0.00000000e+00, 0.00000000e+00, 0.00000000e+00, 0.00000000e+00, 0.00000000e+00, 0.00000000e+00, 0.00000000e+00, 0.00000000e+00, 0.00000000e+00, 0.00000000e+00, 0.00000000e+00, -2.86738987e+00, -3.63058511e-01, -2.15063549e-01, 2.58265045e+00, 0.00000000e+00, 5.0000000000, 5.0000000000, 0.1030949333
          85, 0.00000000e+00, 0.00000000e+00, 0.00000000e+00, 0.00000000e+00, 0.00000000e+00, 0.00000000e+00, 0.00000000e+00, 0.00000000e+00, 0.00000000e+00, 0.00000000e+00, 0.00000000e+00, 0.00000000e+00, -2.87686672e+00, -3.60089597e-01, -2.15298957e-01, 2.57212402e+00, 0.00000000e+00, 5.0000000000, 5.0000000000, 0.1040654833
          86, 0.00000000e+00, 0.00000000e+00, 0.00000000e+00, 0.00000000e+00, 0.00000000e+00, 0.00000000e+00, 0.00000000e+00, 0.00000000e+00, 0.00000000e+00, 0.00000000e+00, 0.00000000e+00, 0.00000000e+00, -2.88567212e+00, -3.58397128e-01, -2.15512686e-01, 2.56229939e+00, 0.00000000e+00, 5.0000000000, 5.0000000000, 0.1050941833
          87, 0.00000000e+00, 0.00000000e+00, 0.00000000e+00, 0.00000000e+00, 0.00000000e+00, 0.00000000e+00, 0.00000000e+00, 0.00000000e+00, 0.00000000e+00, 0.00000000e+00, 0.00000000e+00, 0.00000000e+00, -2.89391911e+00, -3.57804834e-01, -2.15702639e-01, 2.55307534e+00, 0.00000000e+00, 5.0000000000, 5.0000000000, 0.1060568667
          88, 0.00000000e+00, 0.00000000e+00, 0.00000000e+00, 0.00000000e+00, 0.00000000e+00, 0.00000000e+00, 0.00000000e+00, 0.00000000e+00, 0.00000000e+00, 0.00000000e+00, 0.00000000e+00, 0.00000000e+00, -2.90173586e+00, -3.58186668e-01, -2.15867032e-01, 2.54433241e+00, 0.00000000e+00, 5.0000000000, 5.0000000000, 0.1069913833
          89, 0.00000000e+00, 0.00000000e+00, 0.00000000e+00, 0.00000000e+00, 0.00000000e+00, 0.00000000e+00, 0.00000000e+00, 0.00000000e+00, 0.00000000e+00, 0.00000000e+00, 0.00000000e+00, 0.00000000e+00, -2.90925833e+00, -3.59459916e-01, -2.16004542e-01, 2.53594058e+00, 0.00000000e+00, 5.0000000000, 5.0000000000, 0.1079756667