/*--------------------------------*- C++ -*----------------------------------*\
  =========                 |
  \\      /  F ield         | OpenFOAM: The Open Source CFD Toolbox
   \\    /   O peration     | Website:  https://openfoam.org
    \\  /    A nd           | Version:  6
     \\/     M anipulation  |
\*---------------------------------------------------------------------------*/
FoamFile
{
    version     2.0;
    format      ascii;
    class       volScalarField;
    location    "190";
    object      p;
}
// * * * * * * * * * * * * * * * * * * * * * * * * * * * * * * * * * * * * * //

dimensions      [0 2 -2 0 0 0 0];

internalField   nonuniform List<scalar> 
4000
(
-8.78361e-09
-8.77126e-09
-8.73255e-09
-8.71321e-09
-8.70977e-09
-8.71289e-09
-8.6961e-09
-8.67437e-09
-8.66342e-09
-8.65751e-09
-8.64637e-09
-8.61966e-09
-8.59213e-09
-8.59648e-09
-8.59481e-09
-8.57669e-09
-8.5368e-09
-8.50907e-09
-8.50316e-09
-8.48499e-09
-8.47071e-09
-8.46578e-09
-8.46207e-09
-8.44731e-09
-8.42146e-09
-8.40164e-09
-8.38813e-09
-8.35553e-09
-8.32594e-09
-8.31721e-09
-8.28336e-09
-8.26717e-09
-8.26352e-09
-8.24645e-09
-8.23101e-09
-8.20662e-09
-8.1741e-09
-8.14413e-09
-8.10623e-09
-8.08048e-09
-8.0415e-09
-7.99798e-09
-7.96122e-09
-7.93146e-09
-7.90739e-09
-7.86741e-09
-7.83879e-09
-7.81344e-09
-7.78536e-09
-7.74617e-09
-7.70794e-09
-7.66706e-09
-7.62974e-09
-7.60489e-09
-7.59306e-09
-7.57902e-09
-7.55688e-09
-7.53719e-09
-7.51726e-09
-7.49117e-09
-7.46109e-09
-7.43363e-09
-7.4104e-09
-7.37934e-09
-7.34702e-09
-7.29768e-09
-7.25576e-09
-7.20331e-09
-7.15032e-09
-7.09819e-09
-7.04089e-09
-6.97966e-09
-6.92591e-09
-6.87567e-09
-6.81503e-09
-6.75525e-09
-6.6959e-09
-6.64504e-09
-6.59631e-09
-6.53211e-09
-6.46022e-09
-6.40365e-09
-6.33912e-09
-6.27852e-09
-6.22058e-09
-6.17332e-09
-6.11785e-09
-6.05217e-09
-5.99444e-09
-5.921e-09
-5.84849e-09
-5.77793e-09
-5.72442e-09
-5.6818e-09
-5.61478e-09
-5.5444e-09
-5.47005e-09
-5.40567e-09
-5.34293e-09
-5.27724e-09
-5.22807e-09
-5.18355e-09
-5.13392e-09
-5.07668e-09
-5.03226e-09
-4.97623e-09
-4.93248e-09
-4.88549e-09
-4.84898e-09
-4.80405e-09
-4.7823e-09
-4.76447e-09
-4.74053e-09
-4.71373e-09
-4.66594e-09
-4.61762e-09
-4.56634e-09
-4.52012e-09
-4.47202e-09
-4.43456e-09
-4.39708e-09
-4.34219e-09
-4.27862e-09
-4.22e-09
-4.17062e-09
-4.12164e-09
-4.08059e-09
-4.04498e-09
-4.01194e-09
-3.98778e-09
-3.96904e-09
-3.94914e-09
-3.90707e-09
-3.86054e-09
-3.80283e-09
-3.76451e-09
-3.72261e-09
-3.69433e-09
-3.65509e-09
-3.60316e-09
-3.54529e-09
-3.49399e-09
-3.4405e-09
-3.39041e-09
-3.32649e-09
-3.27404e-09
-3.2147e-09
-3.14076e-09
-3.06167e-09
-3.01891e-09
-2.96457e-09
-2.89702e-09
-2.82397e-09
-2.76003e-09
-2.69857e-09
-2.62679e-09
-2.58593e-09
-2.54554e-09
-2.4848e-09
-2.42925e-09
-2.38746e-09
-2.33782e-09
-2.28416e-09
-2.23578e-09
-2.17889e-09
-2.13578e-09
-2.08376e-09
-2.02567e-09
-1.97699e-09
-1.91622e-09
-1.86124e-09
-1.80108e-09
-1.73921e-09
-1.66778e-09
-1.5902e-09
-1.51828e-09
-1.45912e-09
-1.39682e-09
-1.33526e-09
-1.26801e-09
-1.20713e-09
-1.17044e-09
-1.12584e-09
-1.07699e-09
-1.0295e-09
-9.76403e-10
-9.24192e-10
-8.56664e-10
-7.80663e-10
-7.25078e-10
-6.33979e-10
-5.58119e-10
-4.90538e-10
-4.0963e-10
-3.26433e-10
-2.59649e-10
-1.91169e-10
-1.41985e-10
-9.83109e-11
-3.6719e-11
-8.7929e-09
-8.76997e-09
-8.72888e-09
-8.71552e-09
-8.71464e-09
-8.71376e-09
-8.70481e-09
-8.68324e-09
-8.66077e-09
-8.64713e-09
-8.63997e-09
-8.62456e-09
-8.59386e-09
-8.58985e-09
-8.59209e-09
-8.58089e-09
-8.53676e-09
-8.51432e-09
-8.51727e-09
-8.49765e-09
-8.4726e-09
-8.46774e-09
-8.45687e-09
-8.44721e-09
-8.41707e-09
-8.40107e-09
-8.39271e-09
-8.35953e-09
-8.32743e-09
-8.31978e-09
-8.28796e-09
-8.27015e-09
-8.25527e-09
-8.2329e-09
-8.22549e-09
-8.20486e-09
-8.17742e-09
-8.14389e-09
-8.10821e-09
-8.08973e-09
-8.05493e-09
-8.01076e-09
-7.97001e-09
-7.93694e-09
-7.9063e-09
-7.87021e-09
-7.84532e-09
-7.81736e-09
-7.78971e-09
-7.76113e-09
-7.72365e-09
-7.67999e-09
-7.644e-09
-7.60903e-09
-7.58858e-09
-7.58644e-09
-7.5704e-09
-7.5447e-09
-7.51962e-09
-7.49942e-09
-7.47425e-09
-7.43652e-09
-7.41736e-09
-7.39326e-09
-7.34804e-09
-7.3024e-09
-7.25312e-09
-7.2012e-09
-7.15117e-09
-7.09665e-09
-7.04062e-09
-6.97838e-09
-6.92009e-09
-6.86662e-09
-6.80377e-09
-6.7484e-09
-6.69174e-09
-6.65198e-09
-6.59013e-09
-6.52878e-09
-6.47363e-09
-6.41787e-09
-6.35384e-09
-6.29196e-09
-6.23159e-09
-6.17591e-09
-6.12748e-09
-6.05299e-09
-5.98521e-09
-5.91994e-09
-5.85182e-09
-5.78985e-09
-5.7393e-09
-5.68339e-09
-5.62855e-09
-5.55006e-09
-5.47713e-09
-5.41537e-09
-5.34715e-09
-5.28675e-09
-5.23292e-09
-5.18306e-09
-5.12988e-09
-5.07858e-09
-5.03054e-09
-4.96958e-09
-4.92805e-09
-4.89267e-09
-4.84899e-09
-4.80854e-09
-4.77757e-09
-4.76519e-09
-4.74202e-09
-4.71866e-09
-4.67654e-09
-4.63127e-09
-4.57732e-09
-4.53033e-09
-4.48576e-09
-4.44731e-09
-4.39541e-09
-4.34099e-09
-4.28728e-09
-4.23123e-09
-4.18197e-09
-4.13623e-09
-4.09157e-09
-4.05076e-09
-4.01861e-09
-3.99805e-09
-3.97587e-09
-3.94878e-09
-3.90942e-09
-3.87494e-09
-3.81739e-09
-3.75543e-09
-3.71466e-09
-3.68791e-09
-3.64629e-09
-3.59025e-09
-3.54191e-09
-3.48768e-09
-3.43538e-09
-3.38819e-09
-3.3215e-09
-3.27323e-09
-3.21723e-09
-3.1531e-09
-3.08205e-09
-3.01889e-09
-2.94822e-09
-2.88212e-09
-2.82564e-09
-2.76247e-09
-2.68386e-09
-2.61053e-09
-2.57562e-09
-2.54368e-09
-2.48066e-09
-2.42045e-09
-2.38504e-09
-2.35203e-09
-2.30482e-09
-2.24545e-09
-2.18479e-09
-2.14672e-09
-2.08982e-09
-2.02473e-09
-1.97199e-09
-1.91814e-09
-1.86476e-09
-1.80532e-09
-1.73667e-09
-1.66127e-09
-1.57888e-09
-1.51776e-09
-1.46998e-09
-1.41317e-09
-1.33584e-09
-1.24836e-09
-1.20368e-09
-1.16722e-09
-1.11897e-09
-1.07069e-09
-1.02966e-09
-9.86552e-10
-9.33017e-10
-8.5603e-10
-7.85564e-10
-7.13813e-10
-6.47369e-10
-5.73902e-10
-4.96445e-10
-4.19777e-10
-3.36711e-10
-2.73407e-10
-2.06278e-10
-1.46027e-10
-9.45555e-11
-3.2306e-11
-8.77987e-09
-8.76852e-09
-8.73236e-09
-8.7199e-09
-8.72192e-09
-8.72064e-09
-8.70941e-09
-8.69218e-09
-8.66668e-09
-8.64999e-09
-8.63506e-09
-8.6187e-09
-8.592e-09
-8.59152e-09
-8.59536e-09
-8.57378e-09
-8.5503e-09
-8.52997e-09
-8.51618e-09
-8.50133e-09
-8.47908e-09
-8.46411e-09
-8.45001e-09
-8.44485e-09
-8.42145e-09
-8.39763e-09
-8.39756e-09
-8.36746e-09
-8.33542e-09
-8.3238e-09
-8.30054e-09
-8.27422e-09
-8.24722e-09
-8.22905e-09
-8.21778e-09
-8.20322e-09
-8.17168e-09
-8.13993e-09
-8.10685e-09
-8.10215e-09
-8.06591e-09
-8.01794e-09
-7.97335e-09
-7.93957e-09
-7.90468e-09
-7.87536e-09
-7.85165e-09
-7.83113e-09
-7.79739e-09
-7.76156e-09
-7.73815e-09
-7.70255e-09
-7.65176e-09
-7.61216e-09
-7.5943e-09
-7.59597e-09
-7.58205e-09
-7.54847e-09
-7.52775e-09
-7.51294e-09
-7.48315e-09
-7.44664e-09
-7.41904e-09
-7.38569e-09
-7.34889e-09
-7.3073e-09
-7.2583e-09
-7.19861e-09
-7.15656e-09
-7.09533e-09
-7.03665e-09
-6.97473e-09
-6.91663e-09
-6.86531e-09
-6.80735e-09
-6.75701e-09
-6.69615e-09
-6.64339e-09
-6.5957e-09
-6.52121e-09
-6.46525e-09
-6.42338e-09
-6.34903e-09
-6.2993e-09
-6.23841e-09
-6.17708e-09
-6.12099e-09
-6.05111e-09
-5.9834e-09
-5.91825e-09
-5.85549e-09
-5.803e-09
-5.74548e-09
-5.68634e-09
-5.63259e-09
-5.55775e-09
-5.49113e-09
-5.41238e-09
-5.35704e-09
-5.29742e-09
-5.241e-09
-5.19032e-09
-5.11914e-09
-5.0628e-09
-5.01639e-09
-4.95376e-09
-4.91196e-09
-4.86756e-09
-4.84005e-09
-4.80806e-09
-4.7607e-09
-4.75349e-09
-4.74198e-09
-4.7116e-09
-4.6676e-09
-4.62421e-09
-4.58705e-09
-4.54704e-09
-4.50174e-09
-4.44798e-09
-4.38673e-09
-4.33912e-09
-4.28608e-09
-4.23565e-09
-4.18762e-09
-4.14186e-09
-4.09981e-09
-4.05051e-09
-4.03282e-09
-4.01704e-09
-3.97823e-09
-3.95295e-09
-3.92099e-09
-3.87555e-09
-3.82183e-09
-3.76689e-09
-3.7244e-09
-3.68546e-09
-3.64091e-09
-3.58581e-09
-3.54551e-09
-3.48377e-09
-3.4213e-09
-3.38203e-09
-3.32843e-09
-3.26907e-09
-3.2106e-09
-3.16069e-09
-3.10775e-09
-3.03445e-09
-2.94639e-09
-2.87932e-09
-2.81759e-09
-2.75304e-09
-2.67304e-09
-2.61117e-09
-2.56199e-09
-2.53604e-09
-2.47928e-09
-2.42462e-09
-2.39151e-09
-2.36598e-09
-2.33163e-09
-2.25209e-09
-2.18677e-09
-2.14698e-09
-2.08573e-09
-2.02249e-09
-1.95714e-09
-1.90053e-09
-1.85249e-09
-1.79145e-09
-1.72338e-09
-1.65502e-09
-1.58662e-09
-1.53054e-09
-1.46969e-09
-1.41813e-09
-1.33378e-09
-1.26391e-09
-1.21159e-09
-1.15896e-09
-1.10116e-09
-1.05987e-09
-1.02097e-09
-9.93847e-10
-9.40539e-10
-8.74318e-10
-7.79092e-10
-7.16985e-10
-6.4983e-10
-5.71171e-10
-4.98723e-10
-4.23256e-10
-3.46403e-10
-2.87033e-10
-2.25718e-10
-1.58958e-10
-9.66117e-11
-2.71413e-11
-8.77086e-09
-8.75972e-09
-8.7383e-09
-8.72846e-09
-8.71741e-09
-8.71554e-09
-8.70443e-09
-8.68569e-09
-8.67154e-09
-8.65467e-09
-8.63642e-09
-8.62253e-09
-8.59449e-09
-8.59902e-09
-8.60648e-09
-8.59564e-09
-8.55646e-09
-8.53574e-09
-8.5231e-09
-8.48998e-09
-8.47547e-09
-8.46495e-09
-8.45359e-09
-8.44599e-09
-8.43488e-09
-8.4152e-09
-8.39783e-09
-8.36912e-09
-8.34916e-09
-8.33068e-09
-8.31587e-09
-8.27116e-09
-8.24663e-09
-8.24268e-09
-8.21703e-09
-8.19871e-09
-8.17264e-09
-8.14517e-09
-8.11689e-09
-8.09376e-09
-8.05517e-09
-8.02326e-09
-7.977e-09
-7.9487e-09
-7.90649e-09
-7.8876e-09
-7.86903e-09
-7.84562e-09
-7.81534e-09
-7.76741e-09
-7.75154e-09
-7.72485e-09
-7.66895e-09
-7.62019e-09
-7.61172e-09
-7.61754e-09
-7.59032e-09
-7.56199e-09
-7.52412e-09
-7.5121e-09
-7.49211e-09
-7.45619e-09
-7.42622e-09
-7.39724e-09
-7.34776e-09
-7.29844e-09
-7.2605e-09
-7.21192e-09
-7.15747e-09
-7.09089e-09
-7.03554e-09
-6.97674e-09
-6.91822e-09
-6.87228e-09
-6.80752e-09
-6.74701e-09
-6.68942e-09
-6.64402e-09
-6.58681e-09
-6.51692e-09
-6.46144e-09
-6.41838e-09
-6.3515e-09
-6.29601e-09
-6.23201e-09
-6.1722e-09
-6.12907e-09
-6.05615e-09
-5.98349e-09
-5.91751e-09
-5.8625e-09
-5.81194e-09
-5.75396e-09
-5.69824e-09
-5.63889e-09
-5.56323e-09
-5.50663e-09
-5.43192e-09
-5.37347e-09
-5.30538e-09
-5.24328e-09
-5.18523e-09
-5.11859e-09
-5.05786e-09
-5.01217e-09
-4.95074e-09
-4.90188e-09
-4.85753e-09
-4.83094e-09
-4.78982e-09
-4.75931e-09
-4.73872e-09
-4.73555e-09
-4.70966e-09
-4.67057e-09
-4.631e-09
-4.58974e-09
-4.54974e-09
-4.50907e-09
-4.44562e-09
-4.38433e-09
-4.32811e-09
-4.29201e-09
-4.2439e-09
-4.19253e-09
-4.14231e-09
-4.09948e-09
-4.05325e-09
-4.03804e-09
-4.01779e-09
-3.98975e-09
-3.95515e-09
-3.91513e-09
-3.8706e-09
-3.8263e-09
-3.7871e-09
-3.74294e-09
-3.69366e-09
-3.6468e-09
-3.59033e-09
-3.52757e-09
-3.47812e-09
-3.43104e-09
-3.38257e-09
-3.3279e-09
-3.26701e-09
-3.21732e-09
-3.177e-09
-3.11146e-09
-3.02979e-09
-2.94806e-09
-2.87315e-09
-2.80515e-09
-2.74593e-09
-2.67335e-09
-2.61113e-09
-2.56716e-09
-2.52559e-09
-2.47448e-09
-2.42294e-09
-2.39747e-09
-2.37078e-09
-2.33354e-09
-2.25009e-09
-2.18786e-09
-2.13924e-09
-2.07207e-09
-2.01707e-09
-1.95011e-09
-1.8956e-09
-1.83895e-09
-1.77077e-09
-1.70016e-09
-1.65374e-09
-1.58905e-09
-1.53326e-09
-1.47208e-09
-1.41128e-09
-1.33956e-09
-1.27189e-09
-1.21372e-09
-1.15605e-09
-1.10235e-09
-1.05835e-09
-1.02356e-09
-9.81549e-10
-9.31107e-10
-8.63966e-10
-7.89908e-10
-7.22704e-10
-6.53067e-10
-5.75701e-10
-5.00284e-10
-4.2901e-10
-3.61901e-10
-2.94118e-10
-2.25463e-10
-1.59546e-10
-8.64625e-11
-1.9318e-11
-8.77218e-09
-8.76781e-09
-8.75317e-09
-8.74183e-09
-8.72523e-09
-8.70913e-09
-8.70144e-09
-8.69154e-09
-8.67644e-09
-8.65782e-09
-8.63496e-09
-8.62239e-09
-8.59429e-09
-8.61164e-09
-8.63326e-09
-8.59756e-09
-8.56932e-09
-8.55405e-09
-8.53023e-09
-8.50349e-09
-8.48693e-09
-8.47207e-09
-8.45386e-09
-8.44508e-09
-8.43439e-09
-8.41553e-09
-8.4014e-09
-8.37687e-09
-8.35003e-09
-8.34228e-09
-8.32752e-09
-8.28367e-09
-8.25395e-09
-8.24408e-09
-8.22211e-09
-8.20843e-09
-8.17029e-09
-8.13186e-09
-8.11074e-09
-8.0846e-09
-8.04818e-09
-8.01948e-09
-7.98681e-09
-7.96146e-09
-7.91464e-09
-7.88697e-09
-7.87768e-09
-7.86085e-09
-7.81758e-09
-7.77493e-09
-7.77425e-09
-7.73635e-09
-7.68543e-09
-7.64229e-09
-7.61612e-09
-7.6118e-09
-7.59636e-09
-7.56561e-09
-7.53514e-09
-7.5117e-09
-7.4854e-09
-7.44233e-09
-7.41815e-09
-7.38986e-09
-7.34366e-09
-7.28956e-09
-7.23389e-09
-7.19741e-09
-7.15754e-09
-7.09425e-09
-7.03869e-09
-6.97736e-09
-6.92635e-09
-6.87066e-09
-6.81169e-09
-6.74727e-09
-6.69163e-09
-6.64544e-09
-6.59671e-09
-6.51732e-09
-6.45848e-09
-6.41668e-09
-6.35231e-09
-6.31284e-09
-6.23581e-09
-6.1734e-09
-6.12644e-09
-6.06182e-09
-5.98708e-09
-5.90748e-09
-5.85902e-09
-5.81239e-09
-5.75892e-09
-5.70775e-09
-5.64268e-09
-5.57711e-09
-5.50803e-09
-5.43975e-09
-5.38139e-09
-5.31449e-09
-5.22952e-09
-5.15688e-09
-5.11218e-09
-5.05848e-09
-5.00512e-09
-4.93856e-09
-4.88927e-09
-4.87037e-09
-4.82878e-09
-4.78537e-09
-4.75504e-09
-4.73937e-09
-4.72461e-09
-4.69715e-09
-4.66702e-09
-4.63966e-09
-4.59266e-09
-4.5427e-09
-4.49207e-09
-4.42669e-09
-4.36873e-09
-4.31377e-09
-4.29314e-09
-4.23423e-09
-4.17932e-09
-4.13966e-09
-4.10509e-09
-4.05986e-09
-4.03623e-09
-4.01145e-09
-3.9844e-09
-3.94739e-09
-3.9155e-09
-3.87599e-09
-3.8406e-09
-3.80106e-09
-3.75769e-09
-3.70972e-09
-3.65936e-09
-3.6043e-09
-3.53803e-09
-3.48298e-09
-3.43315e-09
-3.39618e-09
-3.33786e-09
-3.27436e-09
-3.215e-09
-3.174e-09
-3.11829e-09
-3.04467e-09
-2.94953e-09
-2.87238e-09
-2.81038e-09
-2.75064e-09
-2.68067e-09
-2.62341e-09
-2.57404e-09
-2.52342e-09
-2.48936e-09
-2.43093e-09
-2.39857e-09
-2.363e-09
-2.3119e-09
-2.25015e-09
-2.18957e-09
-2.12795e-09
-2.06707e-09
-2.00097e-09
-1.9392e-09
-1.87622e-09
-1.83443e-09
-1.76213e-09
-1.69873e-09
-1.63758e-09
-1.57434e-09
-1.52697e-09
-1.47375e-09
-1.40722e-09
-1.3479e-09
-1.27613e-09
-1.21805e-09
-1.16049e-09
-1.104e-09
-1.05757e-09
-1.00596e-09
-9.68014e-10
-9.20927e-10
-8.43411e-10
-7.78255e-10
-7.208e-10
-6.58248e-10
-5.7857e-10
-5.0399e-10
-4.32419e-10
-3.55713e-10
-2.93029e-10
-2.19141e-10
-1.47986e-10
-8.59829e-11
-1.48102e-11
-8.77803e-09
-8.77011e-09
-8.75338e-09
-8.74531e-09
-8.73209e-09
-8.7166e-09
-8.70845e-09
-8.71025e-09
-8.68242e-09
-8.65955e-09
-8.62945e-09
-8.61259e-09
-8.60484e-09
-8.61927e-09
-8.63097e-09
-8.606e-09
-8.58713e-09
-8.57056e-09
-8.53886e-09
-8.51266e-09
-8.49599e-09
-8.47819e-09
-8.45705e-09
-8.45348e-09
-8.43103e-09
-8.40957e-09
-8.39093e-09
-8.3683e-09
-8.34597e-09
-8.34162e-09
-8.32173e-09
-8.28699e-09
-8.25944e-09
-8.24198e-09
-8.22834e-09
-8.20899e-09
-8.16633e-09
-8.13559e-09
-8.10789e-09
-8.08341e-09
-8.05571e-09
-8.02072e-09
-7.98801e-09
-7.96242e-09
-7.92202e-09
-7.89531e-09
-7.88413e-09
-7.85493e-09
-7.82524e-09
-7.79001e-09
-7.78651e-09
-7.74504e-09
-7.69591e-09
-7.65817e-09
-7.63412e-09
-7.61871e-09
-7.59525e-09
-7.56291e-09
-7.52719e-09
-7.50413e-09
-7.47352e-09
-7.44005e-09
-7.41235e-09
-7.38212e-09
-7.33524e-09
-7.28569e-09
-7.23664e-09
-7.19443e-09
-7.14756e-09
-7.0933e-09
-7.0356e-09
-6.97178e-09
-6.92266e-09
-6.87407e-09
-6.81385e-09
-6.75689e-09
-6.69837e-09
-6.64633e-09
-6.59276e-09
-6.53015e-09
-6.46178e-09
-6.4214e-09
-6.36781e-09
-6.31019e-09
-6.24257e-09
-6.17998e-09
-6.1082e-09
-6.04541e-09
-5.97351e-09
-5.90298e-09
-5.86233e-09
-5.81047e-09
-5.75383e-09
-5.70426e-09
-5.64505e-09
-5.5739e-09
-5.50088e-09
-5.44045e-09
-5.373e-09
-5.30281e-09
-5.23374e-09
-5.17405e-09
-5.12783e-09
-5.07061e-09
-5.00299e-09
-4.9454e-09
-4.90356e-09
-4.87139e-09
-4.82916e-09
-4.78868e-09
-4.76153e-09
-4.73904e-09
-4.71454e-09
-4.6751e-09
-4.66473e-09
-4.62819e-09
-4.57989e-09
-4.54065e-09
-4.4758e-09
-4.41412e-09
-4.34898e-09
-4.30715e-09
-4.26625e-09
-4.21722e-09
-4.17243e-09
-4.13136e-09
-4.09735e-09
-4.06075e-09
-4.02466e-09
-3.99279e-09
-3.97816e-09
-3.95277e-09
-3.92046e-09
-3.88427e-09
-3.84491e-09
-3.80489e-09
-3.76962e-09
-3.72025e-09
-3.66936e-09
-3.60394e-09
-3.54399e-09
-3.48542e-09
-3.4326e-09
-3.39372e-09
-3.34261e-09
-3.28397e-09
-3.22174e-09
-3.17798e-09
-3.10951e-09
-3.05178e-09
-2.96543e-09
-2.8859e-09
-2.81212e-09
-2.75224e-09
-2.6917e-09
-2.6381e-09
-2.57903e-09
-2.54025e-09
-2.49351e-09
-2.43524e-09
-2.41153e-09
-2.36006e-09
-2.29714e-09
-2.24333e-09
-2.18749e-09
-2.11927e-09
-2.05879e-09
-1.99595e-09
-1.92824e-09
-1.87531e-09
-1.83127e-09
-1.76554e-09
-1.69379e-09
-1.62703e-09
-1.56966e-09
-1.51379e-09
-1.45362e-09
-1.39801e-09
-1.33387e-09
-1.27338e-09
-1.21693e-09
-1.1595e-09
-1.09138e-09
-1.03837e-09
-1.0001e-09
-9.67785e-10
-9.13876e-10
-8.43708e-10
-7.76689e-10
-7.1666e-10
-6.48789e-10
-5.64042e-10
-4.95298e-10
-4.22057e-10
-3.46299e-10
-2.8725e-10
-2.23111e-10
-1.51058e-10
-8.57006e-11
-2.43181e-11
-8.78736e-09
-8.78111e-09
-8.75589e-09
-8.75504e-09
-8.74354e-09
-8.72666e-09
-8.71482e-09
-8.70994e-09
-8.68711e-09
-8.65843e-09
-8.63796e-09
-8.62252e-09
-8.6104e-09
-8.62602e-09
-8.63866e-09
-8.62653e-09
-8.60268e-09
-8.5874e-09
-8.55477e-09
-8.52291e-09
-8.51168e-09
-8.48873e-09
-8.47213e-09
-8.45466e-09
-8.42598e-09
-8.39823e-09
-8.37532e-09
-8.35667e-09
-8.34641e-09
-8.33739e-09
-8.32268e-09
-8.2795e-09
-8.2554e-09
-8.2384e-09
-8.22608e-09
-8.20329e-09
-8.17348e-09
-8.14261e-09
-8.10686e-09
-8.07889e-09
-8.06143e-09
-8.01955e-09
-7.9863e-09
-7.95409e-09
-7.9229e-09
-7.88689e-09
-7.86426e-09
-7.84709e-09
-7.82708e-09
-7.78784e-09
-7.78385e-09
-7.74492e-09
-7.71438e-09
-7.67529e-09
-7.63797e-09
-7.61106e-09
-7.58815e-09
-7.55194e-09
-7.51987e-09
-7.49417e-09
-7.45817e-09
-7.42771e-09
-7.41228e-09
-7.38667e-09
-7.34818e-09
-7.29023e-09
-7.23309e-09
-7.19757e-09
-7.14331e-09
-7.08878e-09
-7.02466e-09
-6.95999e-09
-6.90915e-09
-6.8696e-09
-6.81785e-09
-6.75202e-09
-6.69899e-09
-6.64915e-09
-6.59784e-09
-6.53912e-09
-6.47897e-09
-6.42471e-09
-6.36703e-09
-6.30328e-09
-6.23591e-09
-6.17562e-09
-6.10365e-09
-6.03845e-09
-5.96696e-09
-5.89753e-09
-5.84784e-09
-5.79981e-09
-5.74766e-09
-5.69017e-09
-5.63899e-09
-5.56412e-09
-5.50342e-09
-5.44135e-09
-5.36598e-09
-5.2998e-09
-5.23247e-09
-5.17708e-09
-5.13065e-09
-5.06373e-09
-4.99974e-09
-4.94686e-09
-4.91255e-09
-4.8764e-09
-4.82861e-09
-4.79307e-09
-4.77032e-09
-4.74014e-09
-4.69359e-09
-4.6664e-09
-4.64722e-09
-4.61747e-09
-4.58517e-09
-4.52495e-09
-4.45434e-09
-4.39507e-09
-4.33957e-09
-4.29666e-09
-4.25554e-09
-4.21416e-09
-4.15308e-09
-4.12092e-09
-4.08534e-09
-4.05448e-09
-4.01632e-09
-3.98859e-09
-3.97287e-09
-3.94308e-09
-3.91324e-09
-3.88073e-09
-3.84689e-09
-3.81213e-09
-3.7845e-09
-3.72535e-09
-3.66024e-09
-3.59336e-09
-3.5284e-09
-3.48824e-09
-3.43666e-09
-3.38554e-09
-3.34583e-09
-3.29803e-09
-3.2353e-09
-3.17511e-09
-3.11429e-09
-3.06129e-09
-2.97312e-09
-2.89742e-09
-2.82151e-09
-2.75387e-09
-2.6921e-09
-2.65003e-09
-2.59689e-09
-2.53572e-09
-2.49413e-09
-2.44071e-09
-2.41598e-09
-2.37368e-09
-2.30873e-09
-2.25157e-09
-2.19204e-09
-2.11895e-09
-2.05794e-09
-1.99685e-09
-1.92757e-09
-1.86652e-09
-1.81782e-09
-1.76234e-09
-1.69965e-09
-1.62771e-09
-1.56253e-09
-1.50783e-09
-1.4473e-09
-1.38342e-09
-1.3274e-09
-1.2602e-09
-1.2073e-09
-1.14725e-09
-1.08768e-09
-1.03085e-09
-9.89369e-10
-9.56414e-10
-9.08135e-10
-8.37754e-10
-7.74551e-10
-7.12474e-10
-6.30943e-10
-5.52581e-10
-4.89756e-10
-4.1295e-10
-3.3682e-10
-2.86226e-10
-2.23009e-10
-1.58682e-10
-8.76234e-11
-2.68044e-11
-8.77989e-09
-8.7692e-09
-8.76848e-09
-8.76165e-09
-8.73781e-09
-8.73206e-09
-8.72138e-09
-8.71265e-09
-8.68926e-09
-8.67841e-09
-8.66691e-09
-8.64379e-09
-8.6296e-09
-8.63515e-09
-8.64019e-09
-8.64092e-09
-8.61254e-09
-8.59629e-09
-8.5733e-09
-8.54332e-09
-8.525e-09
-8.4952e-09
-8.47444e-09
-8.44958e-09
-8.4237e-09
-8.40609e-09
-8.37731e-09
-8.35338e-09
-8.34133e-09
-8.33024e-09
-8.30347e-09
-8.26669e-09
-8.25351e-09
-8.23615e-09
-8.22582e-09
-8.21239e-09
-8.19143e-09
-8.15545e-09
-8.11369e-09
-8.0824e-09
-8.05562e-09
-8.01178e-09
-7.97473e-09
-7.93609e-09
-7.90936e-09
-7.8735e-09
-7.84943e-09
-7.83156e-09
-7.80993e-09
-7.78818e-09
-7.76457e-09
-7.74748e-09
-7.71443e-09
-7.67316e-09
-7.64456e-09
-7.60714e-09
-7.57704e-09
-7.53525e-09
-7.51287e-09
-7.48617e-09
-7.4412e-09
-7.42217e-09
-7.4035e-09
-7.36918e-09
-7.34126e-09
-7.28624e-09
-7.25301e-09
-7.20969e-09
-7.15544e-09
-7.08762e-09
-7.01029e-09
-6.97448e-09
-6.91658e-09
-6.87059e-09
-6.81817e-09
-6.74665e-09
-6.70223e-09
-6.64464e-09
-6.5971e-09
-6.54161e-09
-6.49088e-09
-6.43912e-09
-6.36914e-09
-6.30259e-09
-6.22544e-09
-6.15773e-09
-6.09862e-09
-6.03121e-09
-5.95276e-09
-5.88349e-09
-5.82994e-09
-5.79056e-09
-5.7441e-09
-5.69581e-09
-5.62582e-09
-5.5528e-09
-5.49641e-09
-5.42604e-09
-5.36228e-09
-5.2951e-09
-5.23058e-09
-5.1782e-09
-5.12009e-09
-5.06554e-09
-5.00026e-09
-4.96837e-09
-4.93627e-09
-4.88604e-09
-4.84327e-09
-4.79181e-09
-4.7558e-09
-4.74501e-09
-4.68869e-09
-4.6579e-09
-4.62943e-09
-4.60262e-09
-4.57453e-09
-4.5088e-09
-4.44895e-09
-4.37504e-09
-4.32571e-09
-4.28998e-09
-4.2499e-09
-4.20689e-09
-4.15549e-09
-4.12225e-09
-4.08667e-09
-4.05681e-09
-4.01252e-09
-3.97542e-09
-3.96655e-09
-3.949e-09
-3.90684e-09
-3.87309e-09
-3.83768e-09
-3.82145e-09
-3.79468e-09
-3.72401e-09
-3.66142e-09
-3.5936e-09
-3.5384e-09
-3.49909e-09
-3.439e-09
-3.38893e-09
-3.33756e-09
-3.29183e-09
-3.23717e-09
-3.17303e-09
-3.10708e-09
-3.04494e-09
-2.98432e-09
-2.9038e-09
-2.82797e-09
-2.7589e-09
-2.68691e-09
-2.64364e-09
-2.60037e-09
-2.5423e-09
-2.49437e-09
-2.44611e-09
-2.42158e-09
-2.37547e-09
-2.31429e-09
-2.24801e-09
-2.18848e-09
-2.12703e-09
-2.06657e-09
-1.99328e-09
-1.92244e-09
-1.86923e-09
-1.81291e-09
-1.75954e-09
-1.70382e-09
-1.63789e-09
-1.57163e-09
-1.52019e-09
-1.45287e-09
-1.38046e-09
-1.32226e-09
-1.25687e-09
-1.20383e-09
-1.1431e-09
-1.09136e-09
-1.03602e-09
-9.91394e-10
-9.48977e-10
-8.96539e-10
-8.37319e-10
-7.68004e-10
-6.95477e-10
-6.04452e-10
-5.33496e-10
-4.80841e-10
-4.08308e-10
-3.34594e-10
-2.76939e-10
-2.18634e-10
-1.55162e-10
-7.64313e-11
-2.25553e-11
-8.78589e-09
-8.78818e-09
-8.77295e-09
-8.75945e-09
-8.74699e-09
-8.72732e-09
-8.71917e-09
-8.71333e-09
-8.70179e-09
-8.68803e-09
-8.67854e-09
-8.65005e-09
-8.64528e-09
-8.65597e-09
-8.6586e-09
-8.65525e-09
-8.61691e-09
-8.58854e-09
-8.57812e-09
-8.55733e-09
-8.53712e-09
-8.50227e-09
-8.47038e-09
-8.44866e-09
-8.42851e-09
-8.4101e-09
-8.38428e-09
-8.35686e-09
-8.33666e-09
-8.32373e-09
-8.29476e-09
-8.2603e-09
-8.24484e-09
-8.22891e-09
-8.22321e-09
-8.20895e-09
-8.19511e-09
-8.15137e-09
-8.10905e-09
-8.07364e-09
-8.04436e-09
-8.00087e-09
-7.96239e-09
-7.92014e-09
-7.891e-09
-7.85913e-09
-7.83624e-09
-7.81762e-09
-7.78595e-09
-7.77259e-09
-7.75904e-09
-7.73098e-09
-7.70829e-09
-7.66429e-09
-7.6215e-09
-7.60314e-09
-7.56653e-09
-7.53263e-09
-7.50619e-09
-7.4704e-09
-7.4424e-09
-7.43833e-09
-7.40508e-09
-7.37081e-09
-7.32003e-09
-7.28077e-09
-7.24567e-09
-7.20819e-09
-7.16356e-09
-7.09624e-09
-7.02015e-09
-6.9736e-09
-6.91071e-09
-6.85822e-09
-6.80349e-09
-6.73947e-09
-6.69259e-09
-6.64745e-09
-6.59532e-09
-6.54539e-09
-6.49138e-09
-6.43701e-09
-6.36891e-09
-6.28693e-09
-6.22188e-09
-6.14766e-09
-6.09467e-09
-6.02463e-09
-5.93385e-09
-5.86562e-09
-5.82426e-09
-5.77138e-09
-5.72394e-09
-5.68175e-09
-5.62158e-09
-5.54476e-09
-5.48309e-09
-5.41375e-09
-5.34112e-09
-5.29165e-09
-5.23579e-09
-5.17199e-09
-5.12027e-09
-5.06891e-09
-5.00712e-09
-4.97028e-09
-4.93814e-09
-4.89316e-09
-4.85007e-09
-4.79772e-09
-4.76363e-09
-4.73281e-09
-4.68543e-09
-4.65704e-09
-4.62623e-09
-4.59818e-09
-4.56252e-09
-4.50286e-09
-4.44383e-09
-4.36881e-09
-4.32171e-09
-4.28891e-09
-4.25368e-09
-4.2169e-09
-4.18309e-09
-4.13216e-09
-4.08495e-09
-4.05263e-09
-4.01743e-09
-3.98823e-09
-3.96572e-09
-3.9485e-09
-3.91721e-09
-3.87068e-09
-3.83256e-09
-3.81017e-09
-3.77631e-09
-3.72475e-09
-3.6661e-09
-3.59269e-09
-3.54602e-09
-3.49895e-09
-3.44202e-09
-3.39047e-09
-3.3334e-09
-3.27043e-09
-3.21701e-09
-3.15903e-09
-3.10461e-09
-3.0474e-09
-2.97612e-09
-2.90539e-09
-2.83243e-09
-2.76131e-09
-2.695e-09
-2.65233e-09
-2.60596e-09
-2.56016e-09
-2.50017e-09
-2.46328e-09
-2.42116e-09
-2.3576e-09
-2.29079e-09
-2.2381e-09
-2.17811e-09
-2.12578e-09
-2.05191e-09
-1.98263e-09
-1.92195e-09
-1.86183e-09
-1.81157e-09
-1.76545e-09
-1.7135e-09
-1.6632e-09
-1.60575e-09
-1.53303e-09
-1.4637e-09
-1.38796e-09
-1.32065e-09
-1.26413e-09
-1.20054e-09
-1.14366e-09
-1.09525e-09
-1.04431e-09
-9.99648e-10
-9.55616e-10
-8.89239e-10
-8.21913e-10
-7.51313e-10
-6.79489e-10
-6.03849e-10
-5.3135e-10
-4.73628e-10
-4.03455e-10
-3.36398e-10
-2.72484e-10
-1.99765e-10
-1.36716e-10
-7.34047e-11
-2.71155e-11
-8.78937e-09
-8.79446e-09
-8.77019e-09
-8.75451e-09
-8.74617e-09
-8.73129e-09
-8.71767e-09
-8.70961e-09
-8.70486e-09
-8.69347e-09
-8.68806e-09
-8.67289e-09
-8.65953e-09
-8.66576e-09
-8.6715e-09
-8.64869e-09
-8.62062e-09
-8.60564e-09
-8.58091e-09
-8.55385e-09
-8.52756e-09
-8.49768e-09
-8.47354e-09
-8.44447e-09
-8.42739e-09
-8.41139e-09
-8.39644e-09
-8.36575e-09
-8.33229e-09
-8.31666e-09
-8.29292e-09
-8.26415e-09
-8.23832e-09
-8.20652e-09
-8.20331e-09
-8.19976e-09
-8.18975e-09
-8.1401e-09
-8.10535e-09
-8.08558e-09
-8.05076e-09
-7.99156e-09
-7.95156e-09
-7.91182e-09
-7.88835e-09
-7.84758e-09
-7.83202e-09
-7.81339e-09
-7.78022e-09
-7.75717e-09
-7.7382e-09
-7.72087e-09
-7.69164e-09
-7.65071e-09
-7.61016e-09
-7.59037e-09
-7.55918e-09
-7.52991e-09
-7.50432e-09
-7.47313e-09
-7.43605e-09
-7.41654e-09
-7.39596e-09
-7.35268e-09
-7.31766e-09
-7.28743e-09
-7.25099e-09
-7.2023e-09
-7.15387e-09
-7.09874e-09
-7.03394e-09
-6.97918e-09
-6.91428e-09
-6.85372e-09
-6.80103e-09
-6.72753e-09
-6.68102e-09
-6.63792e-09
-6.59201e-09
-6.54761e-09
-6.49849e-09
-6.43524e-09
-6.3676e-09
-6.29381e-09
-6.2102e-09
-6.13381e-09
-6.07345e-09
-6.00967e-09
-5.93732e-09
-5.85786e-09
-5.80573e-09
-5.75548e-09
-5.72008e-09
-5.66928e-09
-5.61505e-09
-5.53794e-09
-5.45215e-09
-5.40457e-09
-5.35591e-09
-5.30071e-09
-5.23834e-09
-5.16469e-09
-5.1146e-09
-5.07462e-09
-5.01806e-09
-4.96877e-09
-4.92754e-09
-4.89718e-09
-4.85828e-09
-4.80655e-09
-4.76193e-09
-4.72502e-09
-4.68811e-09
-4.66615e-09
-4.62571e-09
-4.59377e-09
-4.55696e-09
-4.50756e-09
-4.44952e-09
-4.38261e-09
-4.33976e-09
-4.29653e-09
-4.26048e-09
-4.21924e-09
-4.18227e-09
-4.1425e-09
-4.09318e-09
-4.0471e-09
-4.02393e-09
-4.00169e-09
-3.96751e-09
-3.94114e-09
-3.91461e-09
-3.88136e-09
-3.84408e-09
-3.80646e-09
-3.76993e-09
-3.72191e-09
-3.65862e-09
-3.60113e-09
-3.55027e-09
-3.50257e-09
-3.43812e-09
-3.37954e-09
-3.31917e-09
-3.25194e-09
-3.2005e-09
-3.13894e-09
-3.09653e-09
-3.03761e-09
-2.97328e-09
-2.90867e-09
-2.84508e-09
-2.77172e-09
-2.72269e-09
-2.66037e-09
-2.59944e-09
-2.55615e-09
-2.49876e-09
-2.45299e-09
-2.40831e-09
-2.33856e-09
-2.27181e-09
-2.21443e-09
-2.1459e-09
-2.10274e-09
-2.04622e-09
-1.98429e-09
-1.92399e-09
-1.86731e-09
-1.82562e-09
-1.77908e-09
-1.71734e-09
-1.66883e-09
-1.61761e-09
-1.55791e-09
-1.47019e-09
-1.3923e-09
-1.32854e-09
-1.25726e-09
-1.19771e-09
-1.14553e-09
-1.08686e-09
-1.03849e-09
-9.88362e-10
-9.47734e-10
-8.79411e-10
-8.10931e-10
-7.42581e-10
-6.77762e-10
-6.09613e-10
-5.40073e-10
-4.7307e-10
-3.97211e-10
-3.21496e-10
-2.59465e-10
-1.96329e-10
-1.3176e-10
-7.15481e-11
-1.98056e-11
-8.78717e-09
-8.79704e-09
-8.76501e-09
-8.74498e-09
-8.74592e-09
-8.73865e-09
-8.71914e-09
-8.716e-09
-8.71385e-09
-8.70022e-09
-8.69089e-09
-8.67622e-09
-8.65924e-09
-8.66864e-09
-8.66496e-09
-8.63688e-09
-8.62309e-09
-8.60792e-09
-8.56698e-09
-8.54841e-09
-8.5099e-09
-8.48684e-09
-8.46205e-09
-8.43498e-09
-8.425e-09
-8.4109e-09
-8.39639e-09
-8.37352e-09
-8.32785e-09
-8.30151e-09
-8.28375e-09
-8.26048e-09
-8.24287e-09
-8.20757e-09
-8.18534e-09
-8.18179e-09
-8.16437e-09
-8.12825e-09
-8.10102e-09
-8.07163e-09
-8.0381e-09
-7.99515e-09
-7.95235e-09
-7.91236e-09
-7.87378e-09
-7.85433e-09
-7.84068e-09
-7.8039e-09
-7.76373e-09
-7.74098e-09
-7.72375e-09
-7.70063e-09
-7.67828e-09
-7.64163e-09
-7.61495e-09
-7.58804e-09
-7.55068e-09
-7.51495e-09
-7.49615e-09
-7.47499e-09
-7.43798e-09
-7.41025e-09
-7.37359e-09
-7.33705e-09
-7.30782e-09
-7.27232e-09
-7.23984e-09
-7.20416e-09
-7.15949e-09
-7.10708e-09
-7.03761e-09
-6.97655e-09
-6.91311e-09
-6.86067e-09
-6.80736e-09
-6.73687e-09
-6.68911e-09
-6.64718e-09
-6.60185e-09
-6.54094e-09
-6.48111e-09
-6.41062e-09
-6.34702e-09
-6.27371e-09
-6.19804e-09
-6.12377e-09
-6.05941e-09
-5.99264e-09
-5.92737e-09
-5.85818e-09
-5.80176e-09
-5.74342e-09
-5.70969e-09
-5.66558e-09
-5.60378e-09
-5.52926e-09
-5.45368e-09
-5.40578e-09
-5.36061e-09
-5.30487e-09
-5.23172e-09
-5.16802e-09
-5.12002e-09
-5.09055e-09
-5.04039e-09
-4.97955e-09
-4.93866e-09
-4.89553e-09
-4.86812e-09
-4.81844e-09
-4.76242e-09
-4.72061e-09
-4.68723e-09
-4.67597e-09
-4.6333e-09
-4.59346e-09
-4.55181e-09
-4.50487e-09
-4.44415e-09
-4.39272e-09
-4.34205e-09
-4.29357e-09
-4.2566e-09
-4.22816e-09
-4.18637e-09
-4.14154e-09
-4.09115e-09
-4.05629e-09
-4.02186e-09
-4.00138e-09
-3.97001e-09
-3.93967e-09
-3.91402e-09
-3.88012e-09
-3.84759e-09
-3.80452e-09
-3.76153e-09
-3.71614e-09
-3.6691e-09
-3.60778e-09
-3.54616e-09
-3.49488e-09
-3.43082e-09
-3.36644e-09
-3.30652e-09
-3.2448e-09
-3.18297e-09
-3.13792e-09
-3.08963e-09
-3.03222e-09
-2.96934e-09
-2.91165e-09
-2.85243e-09
-2.78783e-09
-2.72734e-09
-2.66464e-09
-2.60126e-09
-2.54379e-09
-2.49813e-09
-2.44117e-09
-2.39191e-09
-2.32809e-09
-2.2549e-09
-2.20932e-09
-2.13773e-09
-2.08896e-09
-2.03786e-09
-1.98257e-09
-1.92117e-09
-1.86942e-09
-1.82521e-09
-1.77723e-09
-1.72669e-09
-1.67941e-09
-1.63328e-09
-1.56416e-09
-1.48559e-09
-1.41111e-09
-1.33254e-09
-1.26366e-09
-1.20698e-09
-1.14952e-09
-1.09421e-09
-1.03398e-09
-9.75481e-10
-9.41241e-10
-8.74535e-10
-8.13063e-10
-7.53854e-10
-6.99298e-10
-6.2695e-10
-5.4667e-10
-4.70127e-10
-3.89093e-10
-3.11111e-10
-2.44926e-10
-1.83346e-10
-1.22777e-10
-6.30599e-11
-2.08891e-11
-8.78518e-09
-8.79146e-09
-8.77287e-09
-8.75242e-09
-8.751e-09
-8.73268e-09
-8.7263e-09
-8.7169e-09
-8.70306e-09
-8.69665e-09
-8.69279e-09
-8.68478e-09
-8.67413e-09
-8.66239e-09
-8.6427e-09
-8.63462e-09
-8.62916e-09
-8.6018e-09
-8.55257e-09
-8.51613e-09
-8.4917e-09
-8.46327e-09
-8.45115e-09
-8.42166e-09
-8.40448e-09
-8.39313e-09
-8.39776e-09
-8.36633e-09
-8.31201e-09
-8.28756e-09
-8.27805e-09
-8.26475e-09
-8.24055e-09
-8.20807e-09
-8.18678e-09
-8.16368e-09
-8.14937e-09
-8.12636e-09
-8.10109e-09
-8.07048e-09
-8.03111e-09
-7.99144e-09
-7.94633e-09
-7.90913e-09
-7.86559e-09
-7.86538e-09
-7.8444e-09
-7.80521e-09
-7.76197e-09
-7.72485e-09
-7.71904e-09
-7.68265e-09
-7.66734e-09
-7.63623e-09
-7.61001e-09
-7.58576e-09
-7.55993e-09
-7.52348e-09
-7.48988e-09
-7.47529e-09
-7.44053e-09
-7.39474e-09
-7.35177e-09
-7.31923e-09
-7.29645e-09
-7.26538e-09
-7.23402e-09
-7.19852e-09
-7.15736e-09
-7.1031e-09
-7.03638e-09
-6.96971e-09
-6.91855e-09