TITLE = "Visualization of the volumetric solution"
VARIABLES = "x","y","Density","Momentum_x","Momentum_y","Energy","Pressure","Temperature","Mach","C<sub>p</sub>","Roe_Dissipation"
ZONE NODES= 1720, ELEMENTS= 3288, DATAPACKING=POINT, ZONETYPE=FEQUADRILATERAL
-2.000000e+00	-1.190476e+00	1.231255e+00	3.249469e-01	2.195878e-01	2.550954e+05	1.020381e+05	2.886986e+02	9.351298e-04	1.005424e+00	0.000000e+00	
-1.913018e+00	-1.184272e+00	1.231264e+00	3.345218e-01	2.791713e-01	2.550967e+05	1.020386e+05	2.886981e+02	1.038900e-03	1.006143e+00	0.000000e+00	
-1.954560e+00	-1.150209e+00	1.231263e+00	3.309729e-01	2.458405e-01	2.550970e+05	1.020388e+05	2.886987e+02	9.830545e-04	1.006364e+00	0.000000e+00	
-1.849926e+00	-1.205140e+00	1.231270e+00	3.469112e-01	3.232456e-01	2.550976e+05	1.020390e+05	2.886977e+02	1.130598e-03	1.006685e+00	0.000000e+00	
-1.903970e+00	-1.130852e+00	1.231274e+00	3.390475e-01	2.685375e-01	2.550993e+05	1.020397e+05	2.886987e+02	1.031267e-03	1.007662e+00	0.000000e+00	
-2.000000e+00	-1.130952e+00	1.231256e+00	3.214685e-01	2.171767e-01	2.550959e+05	1.020384e+05	2.886991e+02	9.250376e-04	1.005747e+00	0.000000e+00	
-1.851543e+00	-1.159370e+00	1.231278e+00	3.590634e-01	3.039136e-01	2.551000e+05	1.020400e+05	2.886984e+02	1.121641e-03	1.008008e+00	0.000000e+00	
-1.953167e+00	-1.099799e+00	1.231266e+00	3.181642e-01	2.376474e-01	2.550980e+05	1.020392e+05	2.886992e+02	9.468890e-04	1.006904e+00	0.000000e+00	
-1.790653e+00	-1.186382e+00	1.231269e+00	3.796260e-01	3.425643e-01	2.550982e+05	1.020392e+05	2.886986e+02	1.219225e-03	1.006987e+00	0.000000e+00	
-1.847749e+00	-1.098124e+00	1.231281e+00	3.603585e-01	2.761440e-01	2.551013e+05	1.020405e+05	2.886993e+02	1.082492e-03	1.008739e+00	0.000000e+00	
-1.900004e+00	-1.068081e+00	1.231280e+00	3.238389e-01	2.449335e-01	2.551013e+05	1.020405e+05	2.886995e+02	9.681313e-04	1.008775e+00	0.000000e+00	
-2.000000e+00	-1.071429e+00	1.231254e+00	2.923180e-01	2.108386e-01	2.550959e+05	1.020383e+05	2.886996e+02	8.593887e-04	1.005723e+00	0.000000e+00	
-1.792598e+00	-1.131714e+00	1.231280e+00	3.939029e-01	3.076929e-01	2.551015e+05	1.020406e+05	2.886996e+02	1.191783e-03	1.008865e+00	0.000000e+00	
-1.951023e+00	-1.040587e+00	1.231271e+00	2.848849e-01	2.181285e-01	2.550997e+05	1.020398e+05	2.886999e+02	8.555199e-04	1.007855e+00	0.000000e+00	
-1.731144e+00	-1.203552e+00	1.231258e+00	4.092029e-01	3.638637e-01	2.550974e+05	1.020389e+05	2.887001e+02	1.305648e-03	1.006527e+00	0.000000e+00	
-1.734651e+00	-1.158217e+00	1.231271e+00	4.258846e-01	3.322366e-01	2.551007e+05	1.020402e+05	2.887010e+02	1.287910e-03	1.008406e+00	0.000000e+00	
-1.793108e+00	-1.066236e+00	1.231292e+00	3.898381e-01	2.631502e-01	2.551049e+05	1.020419e+05	2.887007e+02	1.121450e-03	1.010769e+00	0.000000e+00	
-1.846185e+00	-1.035678e+00	1.231296e+00	3.410359e-01	2.354441e-01	2.551054e+05	1.020421e+05	2.887004e+02	9.880977e-04	1.011094e+00	0.000000e+00	
-1.899025e+00	-1.006433e+00	1.231288e+00	2.877916e-01	2.098289e-01	2.551038e+05	1.020415e+05	2.887005e+02	8.492132e-04	1.010195e+00	0.000000e+00	
-2.000000e+00	-1.011905e+00	1.231253e+00	2.422224e-01	1.969987e-01	2.550963e+05	1.020385e+05	2.887002e+02	7.444550e-04	1.005954e+00	0.000000e+00	
-1.739212e+00	-1.097073e+00	1.231281e+00	4.342757e-01	2.879658e-01	2.551038e+05	1.020415e+05	2.887019e+02	1.242423e-03	1.010136e+00	0.000000e+00	
-1.943558e+00	-9.801168e-01	1.231278e+00	2.325886e-01	1.877939e-01	2.551021e+05	1.020408e+05	2.887008e+02	7.127746e-04	1.009222e+00	0.000000e+00	
-1.679379e+00	-1.180956e+00	1.231247e+00	4.543538e-01	3.430077e-01	2.550987e+05	1.020394e+05	2.887041e+02	1.357417e-03	1.007249e+00	0.000000e+00	
-1.685839e+00	-1.129056e+00	1.231261e+00	4.724088e-01	3.036052e-01	2.551019e+05	1.020407e+05	2.887046e+02	1.338961e-03	1.009086e+00	0.000000e+00	
-1.740561e+00	-1.034368e+00	1.231302e+00	4.250652e-01	2.335282e-01	2.551091e+05	1.020436e+05	2.887031e+02	1.156363e-03	1.013130e+00	0.000000e+00	
-1.792944e+00	-1.003990e+00	1.231307e+00	3.674242e-01	2.127017e-01	2.551091e+05	1.020436e+05	2.887019e+02	1.012252e-03	1.013141e+00	0.000000e+00	
-1.845444e+00	-9.749924e-01	1.231309e+00	3.043174e-01	1.881741e-01	2.551092e+05	1.020436e+05	2.887017e+02	8.530923e-04	1.013217e+00	0.000000e+00	
-1.898581e+00	-9.488258e-01	1.231301e+00	2.354902e-01	1.637945e-01	2.551076e+05	1.020430e+05	2.887018e+02	6.839442e-04	1.012330e+00	0.000000e+00	
-2.000000e+00	-9.523810e-01	1.231261e+00	1.692563e-01	1.770979e-01	2.550984e+05	1.020394e+05	2.887009e+02	5.841090e-04	1.007170e+00	0.000000e+00	
-1.688318e+00	-1.065673e+00	1.231283e+00	4.777665e-01	2.473890e-01	2.551075e+05	1.020429e+05	2.887057e+02	1.282807e-03	1.012208e+00	0.000000e+00	
-1.950382e+00	-9.223557e-01	1.231288e+00	1.576304e-01	1.438064e-01	2.551050e+05	1.020420e+05	2.887020e+02	5.087497e-04	1.010896e+00	0.000000e+00	
-1.607855e+00	-1.185371e+00	1.231213e+00	5.039172e-01	3.107069e-01	2.550973e+05	1.020389e+05	2.887107e+02	1.411604e-03	1.006466e+00	0.000000e+00	
-1.639307e+00	-1.148507e+00	1.231241e+00	5.050033e-01	3.011173e-01	2.551012e+05	1.020404e+05	2.887084e+02	1.401935e-03	1.008672e+00	0.000000e+00	
-1.636716e+00	-1.097558e+00	1.231255e+00	5.254032e-01	2.511422e-01	2.551054e+05	1.020421e+05	2.887098e+02	1.388512e-03	1.011021e+00	0.000000e+00	
-1.689165e+00	-1.003589e+00	1.231302e+00	4.651456e-01	1.856044e-01	2.551125e+05	1.020450e+05	2.887070e+02	1.194070e-03	1.015076e+00	0.000000e+00	
-1.740723e+00	-9.729752e-01	1.231318e+00	3.995355e-01	1.751664e-01	2.551137e+05	1.020454e+05	2.887045e+02	1.040129e-03	1.015728e+00	0.000000e+00	
-1.792515e+00	-9.434304e-01	1.231323e+00	3.307234e-01	1.561659e-01	2.551137e+05	1.020454e+05	2.887034e+02	8.720183e-04	1.015740e+00	0.000000e+00	
-1.844767e+00	-9.153378e-01	1.231324e+00	2.558153e-01	1.311521e-01	2.551135e+05	1.020454e+05	2.887032e+02	6.854164e-04	1.015683e+00	0.000000e+00	
-1.897525e+00	-8.884422e-01	1.231314e+00	1.729479e-01	1.010734e-01	2.551118e+05	1.020447e+05	2.887034e+02	4.776102e-04	1.014728e+00	0.000000e+00	
-2.000000e+00	-8.928571e-01	1.231257e+00	6.021613e-02	1.371148e-01	2.550983e+05	1.020393e+05	2.887015e+02	3.570738e-04	1.007109e+00	0.000000e+00	
-1.637687e+00	-1.035136e+00	1.231280e+00	5.280193e-01	1.844836e-01	2.551115e+05	1.020446e+05	2.887111e+02	1.333592e-03	1.014511e+00	0.000000e+00	
-1.951486e+00	-8.621834e-01	1.231315e+00	7.205602e-02	7.309285e-02	2.551125e+05	1.020450e+05	2.887041e+02	2.447176e-04	1.015112e+00	0.000000e+00	
-1.550264e+00	-1.185139e+00	1.231165e+00	5.553331e-01	2.549908e-01	2.550947e+05	1.020378e+05	2.887190e+02	1.457113e-03	1.004986e+00	0.000000e+00	
-1.582082e+00	-1.140771e+00	1.231211e+00	5.625445e-01	2.420601e-01	2.551015e+05	1.020405e+05	2.887157e+02	1.460251e-03	1.008806e+00	0.000000e+00	
-1.585659e+00	-1.068349e+00	1.231236e+00	5.853025e-01	1.712262e-01	2.551077e+05	1.020430e+05	2.887170e+02	1.454070e-03	1.012303e+00	0.000000e+00	
-1.638167e+00	-9.734470e-01	1.231301e+00	5.090121e-01	1.148526e-01	2.551173e+05	1.020469e+05	2.887126e+02	1.244129e-03	1.017744e+00	0.000000e+00	
-1.689207e+00	-9.427785e-01	1.231324e+00	4.362971e-01	1.198630e-01	2.551183e+05	1.020473e+05	2.887085e+02	1.078777e-03	1.018359e+00	0.000000e+00	
-1.740389e+00	-9.128364e-01	1.231337e+00	3.624400e-01	1.125428e-01	2.551188e+05	1.020475e+05	2.887061e+02	9.048379e-04	1.018652e+00	0.000000e+00	
-1.791943e+00	-8.838067e-01	1.231341e+00	2.865258e-01	9.362980e-02	2.551187e+05	1.020475e+05	2.887051e+02	7.186884e-04	1.018600e+00	0.000000e+00	
-1.844135e+00	-8.558208e-01	1.231341e+00	2.046378e-01	6.357005e-02	2.551187e+05	1.020475e+05	2.887049e+02	5.109002e-04	1.018633e+00	0.000000e+00	
-1.897320e+00	-8.288068e-01	1.231336e+00	1.164925e-01	2.488859e-02	2.551179e+05	1.020472e+05	2.887053e+02	2.840126e-04	1.018187e+00	0.000000e+00	
-2.000000e+00	-8.333333e-01	1.231281e+00	-2.627322e-02	4.786869e-02	2.551073e+05	1.020429e+05	2.887062e+02	1.301959e-04	1.012191e+00	0.000000e+00	
-1.587044e+00	-1.004740e+00	1.231268e+00	5.806733e-01	9.541631e-02	2.551155e+05	1.020461e+05	2.887184e+02	1.403068e-03	1.016741e+00	0.000000e+00	
-1.951700e+00	-8.025383e-01	1.231341e+00	2.389432e-02	-1.340090e-02	2.551201e+05	1.020480e+05	2.887066e+02	6.531703e-05	1.019410e+00	0.000000e+00	
-1.482426e+00	-1.181198e+00	1.231114e+00	6.175518e-01	1.724837e-01	2.550932e+05	1.020372e+05	2.887291e+02	1.528946e-03	1.004125e+00	0.000000e+00	
-1.524589e+00	-1.149206e+00	1.231176e+00	6.138378e-01	1.945088e-01	2.551013e+05	1.020405e+05	2.887239e+02	1.535396e-03	1.008719e+00	0.000000e+00	
-1.533019e+00	-1.098254e+00	1.231189e+00	6.387671e-01	1.456386e-01	2.551046e+05	1.020418e+05	2.887244e+02	1.562182e-03	1.010589e+00	0.000000e+00	
-1.535784e+00	-1.035922e+00	1.231227e+00	6.504228e-01	6.313053e-02	2.551136e+05	1.020454e+05	2.887258e+02	1.558124e-03	1.015672e+00	0.000000e+00	
-1.638043e+00	-9.131350e-01	1.231324e+00	4.760606e-01	4.338770e-02	2.551234e+05	1.020493e+05	2.887141e+02	1.139733e-03	1.021206e+00	0.000000e+00	
-1.587311e+00	-9.436131e-01	1.231294e+00	5.559788e-01	1.833538e-02	2.551222e+05	1.020488e+05	2.887199e+02	1.326311e-03	1.020533e+00	0.000000e+00	
-1.688831e+00	-8.830544e-01	1.231343e+00	3.977760e-01	5.299486e-02	2.551238e+05	1.020495e+05	2.887101e+02	9.567534e-04	1.021459e+00	0.000000e+00	
-1.739847e+00	-8.535053e-01	1.231355e+00	3.200280e-01	4.754236e-02	2.551241e+05	1.020496e+05	2.887078e+02	7.713774e-04	1.021616e+00	0.000000e+00	
-1.791344e+00	-8.246529e-01	1.231357e+00	2.412648e-01	2.695950e-02	2.551237e+05	1.020495e+05	2.887068e+02	5.787982e-04	1.021437e+00	0.000000e+00	
-1.843662e+00	-7.966422e-01	1.231358e+00	1.588425e-01	-7.946373e-03	2.551239e+05	1.020495e+05	2.887068e+02	3.791820e-04	1.021533e+00	0.000000e+00	
-1.897118e+00	-7.695048e-01	1.231354e+00	7.771750e-02	-5.077866e-02	2.551235e+05	1.020494e+05	2.887075e+02	2.213374e-04	1.021349e+00	0.000000e+00	
-2.000000e+00	-7.738095e-01	1.231344e+00	-3.923800e-02	-4.027677e-02	2.551227e+05	1.020491e+05	2.887088e+02	1.340638e-04	1.020901e+00	0.000000e+00	
-1.536563e+00	-9.743093e-01	1.231253e+00	6.376490e-01	-2.099827e-02	2.551203e+05	1.020481e+05	2.887273e+02	1.521167e-03	1.019441e+00	0.000000e+00	
-1.951774e+00	-7.430524e-01	1.231353e+00	8.572655e-03	-8.144569e-02	2.551245e+05	1.020498e+05	2.887087e+02	1.952537e-04	1.021909e+00	0.000000e+00	
-1.428477e+00	-1.207429e+00	1.231071e+00	6.518774e-01	1.096702e-01	2.550904e+05	1.020361e+05	2.887362e+02	1.576319e-03	1.002582e+00	0.000000e+00	
-1.483039e+00	-1.130346e+00	1.231141e+00	6.845673e-01	1.043981e-01	2.551011e+05	1.020404e+05	2.887318e+02	1.651219e-03	1.008587e+00	0.000000e+00	
-1.485010e+00	-1.067181e+00	1.231172e+00	7.181580e-01	1.905922e-02	2.551092e+05	1.020436e+05	2.887337e+02	1.712997e-03	1.013169e+00	0.000000e+00	
-1.485902e+00	-1.005187e+00	1.231206e+00	7.213009e-01	-7.430963e-02	2.551178e+05	1.020470e+05	2.887355e+02	1.728938e-03	1.018003e+00	0.000000e+00	
-1.587023e+00	-8.838189e-01	1.231320e+00	5.180202e-01	-5.856718e-02	2.551290e+05	1.020515e+05	2.887215e+02	1.242927e-03	1.024342e+00	0.000000e+00	
-1.637592e+00	-8.537695e-01	1.231346e+00	4.348305e-01	-2.765095e-02	2.551294e+05	1.020517e+05	2.887158e+02	1.038800e-03	1.024621e+00	0.000000e+00	
-1.536482e+00	-9.140522e-01	1.231284e+00	6.052569e-01	-1.063580e-01	2.551281e+05	1.020512e+05	2.887289e+02	1.465181e-03	1.023843e+00	0.000000e+00	
-1.688274e+00	-8.239861e-01	1.231363e+00	3.548741e-01	-1.420195e-02	2.551294e+05	1.020517e+05	2.887119e+02	8.467486e-04	1.024635e+00	0.000000e+00	
-1.739242e+00	-7.945913e-01	1.231372e+00	2.765254e-01	-1.843285e-02	2.551293e+05	1.020517e+05	2.887096e+02	6.607375e-04	1.024575e+00	0.000000e+00	
-1.790775e+00	-7.657566e-01	1.231375e+00	1.987139e-01	-4.068382e-02	2.551290e+05	1.020516e+05	2.887086e+02	4.835880e-04	1.024424e+00	0.000000e+00	
-1.843232e+00	-7.376524e-01	1.231375e+00	1.218897e-01	-7.781876e-02	2.551290e+05	1.020516e+05	2.887086e+02	3.447764e-04	1.024405e+00	0.000000e+00	
-1.896909e+00	-7.103342e-01	1.231376e+00	5.174611e-02	-1.166063e-01	2.551297e+05	1.020519e+05	2.887093e+02	3.041490e-04	1.024844e+00	0.000000e+00	
-2.000000e+00	-7.142857e-01	1.231353e+00	-4.370291e-02	-9.671836e-02	2.551259e+05	1.020504e+05	2.887103e+02	2.530411e-04	1.022687e+00	0.000000e+00	
-1.436314e+00	-1.160707e+00	1.231086e+00	7.141917e-01	5.578566e-02	2.550953e+05	1.020380e+05	2.887380e+02	1.708230e-03	1.005296e+00	0.000000e+00	
-1.485963e+00	-9.444475e-01	1.231240e+00	6.972701e-01	-1.688889e-01	2.551264e+05	1.020505e+05	2.887373e+02	1.710559e-03	1.022856e+00	0.000000e+00	
-1.951834e+00	-6.836189e-01	1.231372e+00	-6.189124e-03	-1.385645e-01	2.551299e+05	1.020520e+05	2.887104e+02	3.306856e-04	1.024949e+00	0.000000e+00	
-1.381401e+00	-1.203049e+00	1.231039e+00	7.322906e-01	1.503712e-02	2.550876e+05	1.020350e+05	2.887403e+02	1.746628e-03	1.000981e+00	0.000000e+00	
-1.435164e+00	-1.099511e+00	1.231118e+00	7.766317e-01	-3.486066e-02	2.551042e+05	1.020416e+05	2.887406e+02	1.853744e-03	1.010315e+00	0.000000e+00	
-1.435473e+00	-1.036658e+00	1.231156e+00	8.025086e-01	-1.368754e-01	2.551143e+05	1.020456e+05	2.887430e+02	1.941149e-03	1.015967e+00	0.000000e+00	
-1.435492e+00	-9.751382e-01	1.231192e+00	7.933782e-01	-2.410799e-01	2.551238e+05	1.020494e+05	2.887453e+02	1.977087e-03	1.021328e+00	0.000000e+00	
-1.586498e+00	-8.247520e-01	1.231344e+00	4.733524e-01	-1.336852e-01	2.551354e+05	1.020541e+05	2.887232e+02	1.172681e-03	1.027992e+00	0.000000e+00	
-1.536036e+00	-8.547237e-01	1.231311e+00	5.620372e-01	-1.888438e-01	2.551353e+05	1.020540e+05	2.887306e+02	1.413609e-03	1.027871e+00	0.000000e+00	
-1.637009e+00	-7.948977e-01	1.231367e+00	3.897925e-01	-9.714297e-02	2.551352e+05	1.020541e+05	2.887175e+02	9.577345e-04	1.027899e+00	0.000000e+00	
-1.485590e+00	-8.847930e-01	1.231271e+00	6.569809e-01	-2.605856e-01	2.551345e+05	1.020537e+05	2.887391e+02	1.685097e-03	1.027414e+00	0.000000e+00	
-1.687660e+00	-7.652266e-01	1.231381e+00	3.104030e-01	-8.005617e-02	2.551347e+05	1.020539e+05	2.887136e+02	7.642489e-04	1.027640e+00	0.000000e+00	
-1.738635e+00	-7.358608e-01	1.231389e+00	2.339042e-01	-8.286731e-02	2.551342e+05	1.020537e+05	2.887113e+02	5.916127e-04	1.027361e+00	0.000000e+00	
-1.790233e+00	-7.069758e-01	1.231391e+00	1.599769e-01	-1.049469e-01	2.551338e+05	1.020535e+05	2.887103e+02	4.561450e-04	1.027106e+00	0.000000e+00	
-1.842826e+00	-6.787423e-01	1.231389e+00	9.141245e-02	-1.392433e-01	2.551333e+05	1.020533e+05	2.887102e+02	3.971153e-04	1.026858e+00	0.000000e+00	
-1.896711e+00	-6.512112e-01	1.231389e+00	3.084565e-02	-1.708072e-01	2.551337e+05	1.020535e+05	2.887108e+02	4.138082e-04	1.027097e+00	0.000000e+00	
-2.000000e+00	-6.547619e-01	1.231371e+00	-4.915836e-02	-1.459953e-01	2.551309e+05	1.020524e+05	2.887118e+02	3.672736e-04	1.025501e+00	0.000000e+00	
-1.384569e+00	-1.135692e+00	1.231070e+00	8.215203e-01	-8.446298e-02	2.550974e+05	1.020389e+05	2.887443e+02	1.969307e-03	1.006475e+00	0.000000e+00	
-1.435154e+00	-9.150004e-01	1.231228e+00	7.588409e-01	-3.438426e-01	2.551332e+05	1.020532e+05	2.887475e+02	1.986343e-03	1.026618e+00	0.000000e+00	
-1.951901e+00	-6.242027e-01	1.231387e+00	-1.800931e-02	-1.857294e-01	2.551343e+05	1.020537e+05	2.887118e+02	4.448740e-04	1.027386e+00	0.000000e+00	
-1.333934e+00	-1.179953e+00	1.231018e+00	8.445109e-01	-9.822661e-02	2.550847e+05	1.020338e+05	2.887421e+02	2.027473e-03	9.993004e-01	0.000000e+00	
-1.385051e+00	-1.069594e+00	1.231111e+00	8.784638e-01	-1.966532e-01	2.551093e+05	1.020436e+05	2.887478e+02	2.146528e-03	1.013107e+00	0.000000e+00	
-1.385044e+00	-1.006427e+00	1.231151e+00	8.912019e-01	-3.123647e-01	2.551201e+05	1.020479e+05	2.887509e+02	2.251724e-03	1.019212e+00	0.000000e+00	
-1.384722e+00	-9.454568e-01	1.231189e+00	8.676659e-01	-4.276689e-01	2.551307e+05	1.020521e+05	2.887537e+02	2.306436e-03	1.025152e+00	0.000000e+00	
-1.585892e+00	-7.660163e-01	1.231366e+00	4.247159e-01	-2.061391e-01	2.551416e+05	1.020566e+05	2.887249e+02	1.125523e-03	1.031456e+00	0.000000e+00	
-1.535455e+00	-7.958758e-01	1.231337e+00	5.128531e-01	-2.684735e-01	2.551422e+05	1.020568e+05	2.887323e+02	1.380102e-03	1.031783e+00	0.000000e+00	
-1.485037e+00	-8.257859e-01	1.231301e+00	6.078290e-01	-3.490750e-01	2.551424e+05	1.020569e+05	2.887409e+02	1.671130e-03	1.031887e+00	0.000000e+00	
-1.636386e+00	-7.362313e-01	1.231386e+00	3.424469e-01	-1.640596e-01	2.551407e+05	1.020563e+05	2.887192e+02	9.052733e-04	1.031000e+00	0.000000e+00	
-1.434624e+00	-8.557541e-01	1.231262e+00	7.107364e-01	-4.427947e-01	2.551421e+05	1.020567e+05	2.887496e+02	1.996480e-03	1.031637e+00	0.000000e+00	
-1.687037e+00	-7.065855e-01	1.231398e+00	2.652068e-01	-1.431487e-01	2.551398e+05	1.020559e+05	2.887153e+02	7.184940e-04	1.030484e+00	0.000000e+00	
-1.738039e+00	-6.771988e-01	1.231404e+00	1.923655e-01	-1.436983e-01	2.551388e+05	1.020555e+05	2.887130e+02	5.724413e-04	1.029962e+00	0.000000e+00	
-1.789710e+00	-6.482388e-01	1.231406e+00	1.242040e-01	-1.632762e-01	2.551382e+05	1.020553e+05	2.887119e+02	4.890859e-04	1.029620e+00	0.000000e+00	
-1.842437e+00	-6.198613e-01	1.231403e+00	6.358048e-02	-1.925305e-01	2.551376e+05	1.020550e+05	2.887117e+02	4.833868e-04	1.029241e+00	0.000000e+00	
-1.896524e+00	-5.921043e-01	1.231402e+00	1.212471e-02	-2.165182e-01	2.551377e+05	1.020551e+05	2.887121e+02	5.170029e-04	1.029307e+00	0.000000e+00	
-2.000000e+00	-5.952381e-01	1.231386e+00	-5.383753e-02	-1.870641e-01	2.551351e+05	1.020540e+05	2.887130e+02	4.640819e-04	1.027834e+00	0.000000e+00	
-1.285603e+00	-1.202634e+00	1.231073e+00	8.970622e-01	-7.726966e-02	2.550870e+05	1.020347e+05	2.887316e+02	2.147079e-03	1.000549e+00	0.000000e+00	
-1.334509e+00	-1.104381e+00	1.231079e+00	9.422423e-01	-2.315994e-01	2.551021e+05	1.020407e+05	2.887471e+02	2.313700e-03	1.009025e+00	0.000000e+00	
-1.384211e+00	-8.858197e-01	1.231228e+00	8.231270e-01	-5.400460e-01	2.551411e+05	1.020563e+05	2.887565e+02	2.347204e-03	1.031047e+00	0.000000e+00	
-1.951978e+00	-5.647922e-01	1.231399e+00	-2.850953e-02	-2.243523e-01	2.551378e+05	1.020551e+05	2.887129e+02	5.391730e-04	1.029389e+00	0.000000e+00	
-1.284178e+00	-1.135987e+00	1.231062e+00	1.000088e+00	-2.019066e-01	2.550910e+05	1.020362e+05	2.887385e+02	2.432944e-03	1.002748e+00	0.000000e+00	
-1.334573e+00	-1.038434e+00	1.231120e+00	9.865149e-01	-3.613936e-01	2.551143e+05	1.020455e+05	2.887514e+02	2.505171e-03	1.015883e+00	0.000000e+00	
-1.334286e+00	-9.762514e-01	1.231168e+00	9.834697e-01	-4.949600e-01	2.551277e+05	1.020509e+05	2.887553e+02	2.625160e-03	1.023407e+00	0.000000e+00	
-1.333796e+00	-9.160353e-01	1.231206e+00	9.462706e-01	-6.234522e-01	2.551389e+05	1.020554e+05	2.887590e+02	2.701815e-03	1.029731e+00	0.000000e+00	
-1.585263e+00	-7.074028e-01	1.231386e+00	3.728737e-01	-2.748738e-01	2.551472e+05	1.020588e+05	2.887265e+02	1.104380e-03	1.034637e+00	0.000000e+00	
-1.534833e+00	-7.372253e-01	1.231361e+00	4.593667e-01	-3.443737e-01	2.551486e+05	1.020594e+05	2.887340e+02	1.368730e-03	1.035394e+00	0.000000e+00	
-1.484423e+00	-7.670749e-01	1.231329e+00	5.532343e-01	-4.334501e-01	2.551497e+05	1.020598e+05	2.887427e+02	1.675567e-03	1.035994e+00	0.000000e+00	
-1.434019e+00	-7.969472e-01	1.231294e+00	6.554416e-01	-5.375395e-01	2.551505e+05	1.020601e+05	2.887517e+02	2.020954e-03	1.036400e+00	0.000000e+00	
-1.635756e+00	-6.776342e-01	1.231403e+00	2.931190e-01	-2.269869e-01	2.551457e+05	1.020583e+05	2.887208e+02	8.838349e-04	1.033815e+00	0.000000e+00	
-1.383615e+00	-8.268533e-01	1.231262e+00	7.674506e-01	-6.472524e-01	2.551507e+05	1.020601e+05	2.887592e+02	2.393563e-03	1.036427e+00	0.000000e+00	
-1.686417e+00	-6.479821e-01	1.231413e+00	2.194273e-01	-2.016818e-01	2.551443e+05	1.020577e+05	2.887169e+02	7.105195e-04	1.033014e+00	0.000000e+00	
-1.737454e+00	-6.185590e-01	1.231417e+00	1.517039e-01	-1.986490e-01	2.551429e+05	1.020571e+05	2.887145e+02	5.958907e-04	1.032235e+00	0.000000e+00	
-1.789199e+00	-5.895163e-01	1.231417e+00	9.039166e-02	-2.138064e-01	2.551419e+05	1.020567e+05	2.887133e+02	5.534032e-04	1.031663e+00	0.000000e+00	
-1.842058e+00	-5.609896e-01	1.231414e+00	3.793845e-02	-2.367389e-01	2.551409e+05	1.020564e+05	2.887129e+02	5.715967e-04	1.031143e+00	0.000000e+00	
-1.896346e+00	-5.330022e-01	1.231412e+00	-4.995613e-03	-2.533488e-01	2.551408e+05	1.020563e+05	2.887132e+02	6.041123e-04	1.031043e+00	0.000000e+00	
-2.000000e+00	-5.357143e-01	1.231398e+00	-5.764336e-02	-2.207824e-01	2.551385e+05	1.020554e+05	2.887140e+02	5.440048e-04	1.029754e+00	0.000000e+00	
-1.232677e+00	-1.161484e+00	1.231123e+00	1.080393e+00	-1.185682e-01	2.550865e+05	1.020344e+05	2.887192e+02	2.591752e-03	1.000195e+00	0.000000e+00	
-1.238042e+00	-1.207625e+00	1.231058e+00	9.780697e-01	-2.095912e-02	2.550696e+05	1.020277e+05	2.887152e+02	2.332959e-03	9.906817e-01	0.000000e+00	
-1.284181e+00	-1.070156e+00	1.231130e+00	1.081269e+00	-3.622653e-01	2.551100e+05	1.020438e+05	2.887441e+02	2.719104e-03	1.013411e+00	0.000000e+00	
-1.333210e+00	-8.568167e-01	1.231246e+00	8.918562e-01	-7.475470e-01	2.551504e+05	1.020599e+05	2.887625e+02	2.774488e-03	1.036157e+00	0.000000e+00	
-1.952062e+00	-5.053835e-01	1.231409e+00	-3.774309e-02	-2.551934e-01	2.551407e+05	1.020563e+05	2.887138e+02	6.150113e-04	1.031022e+00	0.000000e+00	
-1.234074e+00	-1.100366e+00	1.231152e+00	1.177034e+00	-2.806645e-01	2.550989e+05	1.020393e+05	2.887262e+02	2.885319e-03	1.007138e+00	0.000000e+00	
-1.283894e+00	-1.007220e+00	1.231165e+00	1.104807e+00	-5.158502e-01	2.551217e+05	1.020485e+05	2.887491e+02	2.907278e-03	1.019990e+00	0.000000e+00	
-1.283398e+00	-9.464113e-01	1.231214e+00	1.083018e+00	-6.697688e-01	2.551363e+05	1.020543e+05	2.887539e+02	3.036088e-03	1.028173e+00	0.000000e+00	
-1.282810e+00	-8.868629e-01	1.231254e+00	1.031724e+00	-8.151751e-01	2.551488e+05	1.020592e+05	2.887586e+02	3.134939e-03	1.035180e+00	0.000000e+00	
-1.534200e+00	-6.786397e-01	1.231382e+00	4.014872e-01	-4.155301e-01	2.551544e+05	1.020617e+05	2.887356e+02	1.377490e-03	1.038659e+00	0.000000e+00	
-1.584629e+00	-6.488259e-01	1.231404e+00	3.178459e-01	-3.386392e-01	2.551522e+05	1.020609e+05	2.887281e+02	1.107219e-03	1.037484e+00	0.000000e+00	
-1.483792e+00	-7.084714e-01	1.231354e+00	4.933387e-01	-5.132326e-01	2.551564e+05	1.020625e+05	2.887445e+02	1.697172e-03	1.039786e+00	0.000000e+00	
-1.433390e+00	-7.383124e-01	1.231323e+00	5.940164e-01	-6.273005e-01	2.551583e+05	1.020632e+05	2.887537e+02	2.059634e-03	1.040758e+00	0.000000e+00	
-1.382989e+00	-7.681640e-01	1.231295e+00	7.047567e-01	-7.492753e-01	2.551598e+05	1.020637e+05	2.887617e+02	2.452345e-03	1.041539e+00	0.000000e+00	
-1.635126e+00	-6.190563e-01	1.231418e+00	2.419499e-01	-2.845735e-01	2.551501e+05	1.020600e+05	2.887224e+02	8.904847e-04	1.036300e+00	0.000000e+00	
-1.332588e+00	-7.980338e-01	1.231281e+00	8.275711e-01	-8.646373e-01	2.551607e+05	1.020640e+05	2.887660e+02	2.853409e-03	1.041962e+00	0.000000e+00	
-1.685802e+00	-5.893892e-01	1.231426e+00	1.732161e-01	-2.542427e-01	2.551482e+05	1.020593e+05	2.887184e+02	7.334158e-04	1.035212e+00	0.000000e+00	
-1.736874e+00	-5.599255e-01	1.231428e+00	1.117227e-01	-2.466008e-01	2.551463e+05	1.020585e+05	2.887158e+02	6.454175e-04	1.034194e+00	0.000000e+00	
-1.788694e+00	-5.307981e-01	1.231427e+00	5.797437e-02	-2.562445e-01	2.551450e+05	1.020580e+05	2.887144e+02	6.263293e-04	1.033406e+00	0.000000e+00	
-1.841686e+00	-5.021205e-01	1.231423e+00	1.383852e-02	-2.722671e-01	2.551437e+05	1.020575e+05	2.887139e+02	6.499281e-04	1.032697e+00	0.000000e+00	
-1.896174e+00	-4.739013e-01	1.231421e+00	-2.062376e-02	-2.818230e-01	2.551432e+05	1.020573e+05	2.887140e+02	6.736697e-04	1.032396e+00	0.000000e+00	
-2.000000e+00	-4.761905e-01	1.231408e+00	-6.059749e-02	-2.476346e-01	2.551411e+05	1.020564e+05	2.887147e+02	6.077916e-04	1.031253e+00	0.000000e+00	
-1.185708e+00	-1.130828e+00	1.231247e+00	1.273176e+00	-1.020014e-01	2.550915e+05	1.020364e+05	2.886954e+02	3.045534e-03	1.002930e+00	0.000000e+00	
-1.184765e+00	-1.185808e+00	1.231210e+00	1.152685e+00	8.775251e-02	2.550724e+05	1.020288e+05	2.886828e+02	2.756602e-03	9.922143e-01	0.000000e+00	
-1.233724e+00	-1.038016e+00	1.231213e+00	1.236778e+00	-4.642396e-01	2.551170e+05	1.020465e+05	2.887323e+02	3.149814e-03	1.017285e+00	0.000000e+00	
-1.282188e+00	-8.279355e-01	1.231292e+00	9.660413e-01	-9.525661e-01	2.551610e+05	1.020641e+05	2.887634e+02	3.234452e-03	1.042042e+00	0.000000e+00	
-1.952152e+00	-4.459755e-01	1.231417e+00	-4.572950e-02	-2.785547e-01	2.551429e+05	1.020571e+05	2.887144e+02	6.729720e-04	1.032232e+00	0.000000e+00	
-1.184242e+00	-1.068796e+00	1.231291e+00	1.368847e+00	-3.000419e-01	2.551068e+05	1.020424e+05	2.887024e+02	3.341261e-03	1.011439e+00	0.000000e+00	
-1.233095e+00	-9.769027e-01	1.231257e+00	1.235027e+00	-6.453064e-01	2.551315e+05	1.020523e+05	2.887382e+02	3.322328e-03	1.025411e+00	0.000000e+00	
-1.232442e+00	-9.170133e-01	1.231303e+00	1.192340e+00	-8.206255e-01	2.551464e+05	1.020582e+05	2.887443e+02	3.450897e-03	1.033768e+00	0.000000e+00	
-1.231797e+00	-8.578882e-01	1.231343e+00	1.125005e+00	-9.846251e-01	2.551603e+05	1.020638e+05	2.887505e+02	3.564195e-03	1.041560e+00	0.000000e+00	
-1.533565e+00	-6.200713e-01	1.231400e+00	3.393737e-01	-4.805760e-01	2.551594e+05	1.020637e+05	2.887371e+02	1.402552e-03	1.041503e+00	0.000000e+00	
-1.483157e+00	-6.498991e-01	1.231375e+00	4.278114e-01	-5.869918e-01	2.551623e+05	1.020649e+05	2.887461e+02	1.731600e-03	1.043113e+00	0.000000e+00	
-1.583995e+00	-5.902579e-01	1.231418e+00	2.600898e-01	-3.960300e-01	2.551565e+05	1.020626e+05	2.887296e+02	1.129523e-03	1.039910e+00	0.000000e+00	
-1.432756e+00	-6.797320e-01	1.231348e+00	5.259428e-01	-7.110723e-01	2.551652e+05	1.020660e+05	2.887556e+02	2.108507e-03	1.044679e+00	0.000000e+00	
-1.382356e+00	-7.095681e-01	1.231324e+00	6.345488e-01	-8.447122e-01	2.551679e+05	1.020670e+05	2.887641e+02	2.518700e-03	1.046107e+00	0.000000e+00	
-1.331956e+00	-7.394092e-01	1.231313e+00	7.552746e-01	-9.744928e-01	2.551703e+05	1.020679e+05	2.887692e+02	2.939273e-03	1.047355e+00	0.000000e+00	
-1.634498e+00	-5.604830e-01	1.231430e+00	1.895172e-01	-3.354705e-01	2.551538e+05	1.020615e+05	2.887237e+02	9.185457e-04	1.038378e+00	0.000000e+00	
-1.281556e+00	-7.692600e-01	1.231326e+00	8.907710e-01	-1.080462e+00	2.551721e+05	1.020685e+05	2.887679e+02	3.338320e-03	1.048283e+00	0.000000e+00	
-1.685188e+00	-5.307987e-01	1.231436e+00	1.270549e-01	-2.995847e-01	2.551513e+05	1.020605e+05	2.887196e+02	7.757766e-04	1.036991e+00	0.000000e+00	
-1.736298e+00	-5.012935e-01	1.231437e+00	7.278960e-02	-2.865782e-01	2.551491e+05	1.020596e+05	2.887169e+02	7.048907e-04	1.035727e+00	0.000000e+00	
-1.788193e+00	-4.720809e-01	1.231435e+00	2.713085e-02	-2.900889e-01	2.551473e+05	1.020589e+05	2.887153e+02	6.945877e-04	1.034716e+00	0.000000e+00	
-1.841317e+00	-4.432518e-01	1.231430e+00	-8.562277e-03	-2.991487e-01	2.551457e+05	1.020583e+05	2.887146e+02	7.134638e-04	1.033838e+00	0.000000e+00	
-1.896007e+00	-4.148005e-01	1.231426e+00	-3.469137e-02	-3.022398e-01	2.551448e+05	1.020579e+05	2.887145e+02	7.252742e-04	1.033334e+00	0.000000e+00	
-2.000000e+00	-4.166667e-01	1.231415e+00	-6.266423e-02	-2.681736e-01	2.551431e+05	1.020572e+05	2.887151e+02	6.565565e-04	1.032342e+00	0.000000e+00	
-1.143479e+00	-1.149926e+00	1.231386e+00	1.370251e+00	1.510558e-01	2.550855e+05	1.020339e+05	2.886559e+02	3.286925e-03	9.994330e-01	0.000000e+00	
-1.136036e+00	-1.099969e+00	1.231433e+00	1.506261e+00	1.331234e-02	2.550970e+05	1.020384e+05	2.886578e+02	3.591417e-03	1.005877e+00	0.000000e+00	
-1.116564e+00	-1.191314e+00	1.231448e+00	1.342532e+00	4.790427e-01	2.550671e+05	1.020265e+05	2.886206e+02	3.398754e-03	9.890518e-01	0.000000e+00	
-1.183052e+00	-1.007558e+00	1.231351e+00	1.404199e+00	-5.145333e-01	2.551256e+05	1.020499e+05	2.887094e+02	3.565538e-03	1.021994e+00	0.000000e+00	
-1.231159e+00	-7.991290e-01	1.231379e+00	1.045453e+00	-1.136206e+00	2.551733e+05	1.020689e+05	2.887568e+02	3.680788e-03	1.048841e+00	0.000000e+00	
-1.952249e+00	-3.865677e-01	1.231422e+00	-5.242057e-02	-2.949125e-01	2.551443e+05	1.020577e+05	2.887148e+02	7.140971e-04	1.033029e+00	0.000000e+00	
-1.133422e+00	-1.038685e+00	1.231504e+00	1.589282e+00	-2.333352e-01	2.551188e+05	1.020471e+05	2.886657e+02	3.829567e-03	1.018099e+00	0.000000e+00	
-1.182166e+00	-9.473104e-01	1.231400e+00	1.377719e+00	-7.261747e-01	2.551423e+05	1.020565e+05	2.887167e+02	3.712883e-03	1.031384e+00	0.000000e+00	
-1.181435e+00	-8.879214e-01	1.231444e+00	1.311513e+00	-9.256722e-01	2.551584e+05	1.020629e+05	2.887245e+02	3.826893e-03	1.040428e+00	0.000000e+00	
-1.180769e+00	-8.290307e-01	1.231482e+00	1.225697e+00	-1.108926e+00	2.551735e+05	1.020689e+05	2.887326e+02	3.940211e-03	1.048888e+00	0.000000e+00	
-1.482521e+00	-5.913341e-01	1.231393e+00	3.571128e-01	-6.533233e-01	2.551674e+05	1.020669e+05	2.887476e+02	1.774972e-03	1.045949e+00	0.000000e+00	
-1.532929e+00	-5.615067e-01	1.231414e+00	2.738207e-01	-5.381115e-01	2.551636e+05	1.020654e+05	2.887385e+02	1.439356e-03	1.043863e+00	0.000000e+00	
-1.432120e+00	-6.211654e-01	1.231370e+00	4.509603e-01	-7.872835e-01	2.551712e+05	1.020684e+05	2.887573e+02	2.162936e-03	1.048060e+00	0.000000e+00	
-1.583362e+00	-5.316917e-01	1.231430e+00	2.005170e-01	-4.458447e-01	2.551600e+05	1.020640e+05	2.887309e+02	1.165413e-03	1.041878e+00	0.000000e+00	
-1.381720e+00	-6.509980e-01	1.231350e+00	5.560531e-01	-9.323314e-01	2.551751e+05	1.020698e+05	2.887662e+02	2.587913e-03	1.050151e+00	0.000000e+00	
-1.331321e+00	-6.808319e-01	1.231342e+00	6.735967e-01	-1.075626e+00	2.551788e+05	1.020713e+05	2.887721e+02	3.025539e-03	1.052133e+00	0.000000e+00	
-1.280921e+00	-7.106681e-01	1.231357e+00	8.057300e-01	-1.198277e+00	2.551822e+05	1.020725e+05	2.887721e+02	3.442307e-03	1.053945e+00	0.000000e+00	
-1.633870e+00	-5.019105e-01	1.231439e+00	1.366300e-01	-3.786495e-01	2.551567e+05	1.020627e+05	2.887249e+02	9.596469e-04	1.040014e+00	0.000000e+00	
-1.230522e+00	-7.405094e-01	1.231411e+00	9.557480e-01	-1.275089e+00	2.551851e+05	1.020736e+05	2.887627e+02	3.798703e-03	1.055491e+00	0.000000e+00	
-1.684576e+00	-4.722088e-01	1.231443e+00	8.152304e-02	-3.369307e-01	2.551537e+05	1.020615e+05	2.887206e+02	8.264049e-04	1.038343e+00	0.000000e+00	
-1.735722e+00	-4.426619e-01	1.231443e+00	3.522219e-02	-3.181533e-01	2.551511e+05	1.020604e+05	2.887177e+02	7.631008e-04	1.036842e+00	0.000000e+00	