TITLE = "Visualization of the volumetric solution"
VARIABLES = "x","y","Density","Momentum_x","Momentum_y","Energy","Pressure","Temperature","Mach","C<sub>p</sub>","Roe_Dissipation"
ZONE NODES= 1775, ELEMENTS= 3328, DATAPACKING=POINT, ZONETYPE=FEQUADRILATERAL
-2.000000e+00	-1.361351e-01	1.225094e+00	4.167157e+01	-5.933312e-08	2.540225e+05	1.013255e+05	2.881242e+02	9.996129e-02	7.026980e-04	0.000000e+00	
-1.984257e+00	-1.328960e-01	1.225094e+00	4.167157e+01	-1.230233e-07	2.540225e+05	1.013255e+05	2.881242e+02	9.996129e-02	7.028092e-04	0.000000e+00	
-1.963049e+00	-1.342209e-01	1.225094e+00	4.167157e+01	-2.168208e-07	2.540225e+05	1.013255e+05	2.881242e+02	9.996129e-02	7.028791e-04	0.000000e+00	
-2.000000e+00	-1.151913e-01	1.225094e+00	4.167157e+01	1.385788e-08	2.540225e+05	1.013255e+05	2.881242e+02	9.996129e-02	7.026938e-04	0.000000e+00	
-1.982099e+00	-1.128500e-01	1.225094e+00	4.167157e+01	-1.159515e-07	2.540225e+05	1.013255e+05	2.881242e+02	9.996129e-02	7.028115e-04	0.000000e+00	
-1.939086e+00	-1.440297e-01	1.225094e+00	4.167157e+01	-1.084812e-07	2.540225e+05	1.013255e+05	2.881242e+02	9.996129e-02	7.030093e-04	0.000000e+00	
-1.978583e+00	-9.772572e-02	1.225094e+00	4.167157e+01	-1.169481e-07	2.540225e+05	1.013255e+05	2.881242e+02	9.996129e-02	7.028293e-04	0.000000e+00	
-2.000000e+00	-9.424740e-02	1.225094e+00	4.167157e+01	3.851818e-09	2.540225e+05	1.013255e+05	2.881242e+02	9.996129e-02	7.027057e-04	0.000000e+00	
-1.941813e+00	-1.229314e-01	1.225094e+00	4.167157e+01	-3.085853e-07	2.540225e+05	1.013255e+05	2.881242e+02	9.996129e-02	7.029915e-04	0.000000e+00	
-1.960823e+00	-1.103779e-01	1.225094e+00	4.167157e+01	-2.428525e-07	2.540225e+05	1.013255e+05	2.881242e+02	9.996129e-02	7.029068e-04	0.000000e+00	
-1.921175e+00	-1.345839e-01	1.225094e+00	4.167157e+01	-2.144148e-07	2.540225e+05	1.013255e+05	2.881242e+02	9.996129e-02	7.030643e-04	0.000000e+00	
-1.982124e+00	-8.150463e-02	1.225094e+00	4.167157e+01	-9.471089e-08	2.540225e+05	1.013255e+05	2.881242e+02	9.996129e-02	7.028173e-04	0.000000e+00	
-1.960559e+00	-9.039522e-02	1.225094e+00	4.167157e+01	-1.707819e-07	2.540225e+05	1.013255e+05	2.881242e+02	9.996129e-02	7.029028e-04	0.000000e+00	
-1.922509e+00	-1.122284e-01	1.225094e+00	4.167157e+01	-3.767853e-07	2.540225e+05	1.013255e+05	2.881242e+02	9.996129e-02	7.030729e-04	0.000000e+00	
-1.941508e+00	-1.011529e-01	1.225094e+00	4.167157e+01	-2.849346e-07	2.540225e+05	1.013255e+05	2.881242e+02	9.996129e-02	7.029918e-04	0.000000e+00	
-2.000000e+00	-7.330353e-02	1.225094e+00	4.167157e+01	-8.576920e-09	2.540225e+05	1.013255e+05	2.881242e+02	9.996129e-02	7.027085e-04	0.000000e+00	
-1.904236e+00	-1.424571e-01	1.225094e+00	4.167158e+01	-1.046332e-07	2.540225e+05	1.013255e+05	2.881242e+02	9.996129e-02	7.031606e-04	0.000000e+00	
-1.903780e+00	-1.234005e-01	1.225094e+00	4.167157e+01	-3.279046e-07	2.540225e+05	1.013255e+05	2.881242e+02	9.996129e-02	7.031604e-04	0.000000e+00	
-1.961352e+00	-7.058559e-02	1.225094e+00	4.167157e+01	-1.356551e-07	2.540225e+05	1.013255e+05	2.881242e+02	9.996129e-02	7.029016e-04	0.000000e+00	
-1.982889e+00	-6.155287e-02	1.225094e+00	4.167157e+01	-8.239008e-08	2.540225e+05	1.013255e+05	2.881242e+02	9.996129e-02	7.028182e-04	0.000000e+00	
-1.941380e+00	-8.031754e-02	1.225094e+00	4.167157e+01	-2.022032e-07	2.540225e+05	1.013255e+05	2.881242e+02	9.996129e-02	7.029960e-04	0.000000e+00	
-1.904034e+00	-1.013345e-01	1.225094e+00	4.167157e+01	-3.820897e-07	2.540225e+05	1.013255e+05	2.881242e+02	9.996128e-02	7.031566e-04	0.000000e+00	
-1.922557e+00	-9.064712e-02	1.225094e+00	4.167157e+01	-3.088974e-07	2.540225e+05	1.013255e+05	2.881242e+02	9.996128e-02	7.030743e-04	0.000000e+00	
-2.000000e+00	-5.235967e-02	1.225094e+00	4.167157e+01	-9.369282e-09	2.540225e+05	1.013255e+05	2.881242e+02	9.996129e-02	7.027125e-04	0.000000e+00	
-1.884899e+00	-1.378075e-01	1.225094e+00	4.167158e+01	-1.676565e-07	2.540225e+05	1.013255e+05	2.881242e+02	9.996129e-02	7.032327e-04	0.000000e+00	
-1.885496e+00	-1.126992e-01	1.225094e+00	4.167157e+01	-3.843877e-07	2.540225e+05	1.013255e+05	2.881242e+02	9.996129e-02	7.032385e-04	0.000000e+00	
-1.961710e+00	-5.007363e-02	1.225094e+00	4.167157e+01	-1.141329e-07	2.540225e+05	1.013255e+05	2.881242e+02	9.996128e-02	7.029008e-04	0.000000e+00	
-1.941525e+00	-5.964896e-02	1.225094e+00	4.167157e+01	-1.460430e-07	2.540225e+05	1.013255e+05	2.881242e+02	9.996128e-02	7.029937e-04	0.000000e+00	
-1.983112e+00	-4.086268e-02	1.225094e+00	4.167157e+01	-6.340814e-08	2.540225e+05	1.013255e+05	2.881242e+02	9.996128e-02	7.028206e-04	0.000000e+00	
-1.922475e+00	-6.959122e-02	1.225094e+00	4.167157e+01	-2.022509e-07	2.540225e+05	1.013255e+05	2.881242e+02	9.996128e-02	7.030748e-04	0.000000e+00	
-1.885683e+00	-9.045967e-02	1.225094e+00	4.167157e+01	-3.701391e-07	2.540225e+05	1.013255e+05	2.881242e+02	9.996128e-02	7.032361e-04	0.000000e+00	
-1.904021e+00	-7.986031e-02	1.225094e+00	4.167157e+01	-2.932071e-07	2.540225e+05	1.013255e+05	2.881242e+02	9.996128e-02	7.031583e-04	0.000000e+00	
-2.000000e+00	-3.141580e-02	1.225094e+00	4.167157e+01	-2.217953e-09	2.540225e+05	1.013255e+05	2.881242e+02	9.996129e-02	7.027152e-04	0.000000e+00	
-1.867005e+00	-1.232930e-01	1.225094e+00	4.167157e+01	-3.169569e-07	2.540225e+05	1.013255e+05	2.881242e+02	9.996129e-02	7.033159e-04	0.000000e+00	
-1.865444e+00	-1.424727e-01	1.225094e+00	4.167158e+01	-1.432533e-07	2.540225e+05	1.013255e+05	2.881242e+02	9.996129e-02	7.033316e-04	0.000000e+00	
-1.867367e+00	-1.011274e-01	1.225094e+00	4.167157e+01	-4.050978e-07	2.540225e+05	1.013255e+05	2.881242e+02	9.996128e-02	7.033177e-04	0.000000e+00	
-1.941627e+00	-3.881048e-02	1.225094e+00	4.167157e+01	-1.214794e-07	2.540225e+05	1.013255e+05	2.881242e+02	9.996128e-02	7.029945e-04	0.000000e+00	
-1.961856e+00	-2.924720e-02	1.225094e+00	4.167157e+01	-8.851919e-08	2.540225e+05	1.013255e+05	2.881242e+02	9.996128e-02	7.029016e-04	0.000000e+00	
-1.922462e+00	-4.866885e-02	1.225094e+00	4.167157e+01	-1.457138e-07	2.540225e+05	1.013255e+05	2.881242e+02	9.996128e-02	7.030758e-04	0.000000e+00	
-1.983186e+00	-1.996810e-02	1.225094e+00	4.167157e+01	-4.035256e-08	2.540225e+05	1.013255e+05	2.881242e+02	9.996128e-02	7.028224e-04	0.000000e+00	
-1.903956e+00	-5.877432e-02	1.225094e+00	4.167157e+01	-1.906401e-07	2.540225e+05	1.013255e+05	2.881242e+02	9.996128e-02	7.031584e-04	0.000000e+00	
-1.867436e+00	-7.957270e-02	1.225094e+00	4.167157e+01	-3.438283e-07	2.540225e+05	1.013255e+05	2.881242e+02	9.996128e-02	7.033164e-04	0.000000e+00	
-1.885680e+00	-6.909815e-02	1.225094e+00	4.167157e+01	-2.678990e-07	2.540225e+05	1.013255e+05	2.881242e+02	9.996128e-02	7.032378e-04	0.000000e+00	
-2.000000e+00	-1.047193e-02	1.225094e+00	4.167157e+01	2.100269e-09	2.540225e+05	1.013255e+05	2.881242e+02	9.996128e-02	7.027174e-04	0.000000e+00	
-1.849581e+00	-1.345328e-01	1.225094e+00	4.167158e+01	-2.446563e-07	2.540225e+05	1.013255e+05	2.881242e+02	9.996129e-02	7.033924e-04	0.000000e+00	
-1.849350e+00	-1.119924e-01	1.225094e+00	4.167157e+01	-3.892454e-07	2.540225e+05	1.013255e+05	2.881242e+02	9.996129e-02	7.033929e-04	0.000000e+00	
-1.849292e+00	-9.020755e-02	1.225094e+00	4.167157e+01	-3.966361e-07	2.540225e+05	1.013255e+05	2.881242e+02	9.996128e-02	7.033951e-04	0.000000e+00	
-1.941664e+00	-1.782421e-02	1.225094e+00	4.167157e+01	-9.171976e-08	2.540225e+05	1.013255e+05	2.881242e+02	9.996128e-02	7.029949e-04	0.000000e+00	
-1.922459e+00	-2.766555e-02	1.225094e+00	4.167157e+01	-1.142338e-07	2.540225e+05	1.013255e+05	2.881242e+02	9.996128e-02	7.030757e-04	0.000000e+00	
-1.961893e+00	-8.272910e-03	1.225094e+00	4.167157e+01	-5.737793e-08	2.540225e+05	1.013255e+05	2.881242e+02	9.996128e-02	7.029025e-04	0.000000e+00	
-1.903909e+00	-3.774698e-02	1.225094e+00	4.167157e+01	-1.344553e-07	2.540225e+05	1.013255e+05	2.881242e+02	9.996128e-02	7.031590e-04	0.000000e+00	
-1.983206e+00	1.001984e-03	1.225094e+00	4.167157e+01	-2.173428e-08	2.540225e+05	1.013255e+05	2.881242e+02	9.996128e-02	7.028237e-04	0.000000e+00	
-1.885622e+00	-4.801176e-02	1.225094e+00	4.167157e+01	-1.731773e-07	2.540225e+05	1.013255e+05	2.881242e+02	9.996128e-02	7.032381e-04	0.000000e+00	
-1.831643e+00	-1.443838e-01	1.225094e+00	4.167158e+01	-9.546815e-08	2.540225e+05	1.013255e+05	2.881242e+02	9.996129e-02	7.034699e-04	0.000000e+00	
-1.849193e+00	-6.892375e-02	1.225094e+00	4.167157e+01	-3.078417e-07	2.540225e+05	1.013255e+05	2.881242e+02	9.996128e-02	7.033952e-04	0.000000e+00	
-1.867385e+00	-5.841111e-02	1.225094e+00	4.167157e+01	-2.377235e-07	2.540225e+05	1.013255e+05	2.881242e+02	9.996128e-02	7.033178e-04	0.000000e+00	
-2.000000e+00	1.047193e-02	1.225094e+00	4.167157e+01	1.053463e-09	2.540225e+05	1.013255e+05	2.881242e+02	9.996128e-02	7.027185e-04	0.000000e+00	
-1.831465e+00	-1.229564e-01	1.225094e+00	4.167157e+01	-3.371611e-07	2.540225e+05	1.013255e+05	2.881242e+02	9.996129e-02	7.034749e-04	0.000000e+00	
-1.831303e+00	-1.010101e-01	1.225094e+00	4.167157e+01	-4.098391e-07	2.540225e+05	1.013255e+05	2.881242e+02	9.996128e-02	7.034715e-04	0.000000e+00	
-1.831120e+00	-7.955444e-02	1.225094e+00	4.167157e+01	-3.666319e-07	2.540225e+05	1.013255e+05	2.881242e+02	9.996128e-02	7.034729e-04	0.000000e+00	
-1.941635e+00	3.255345e-03	1.225094e+00	4.167157e+01	-5.591438e-08	2.540225e+05	1.013255e+05	2.881242e+02	9.996128e-02	7.029954e-04	0.000000e+00	
-1.922424e+00	-6.558690e-03	1.225094e+00	4.167157e+01	-8.162706e-08	2.540225e+05	1.013255e+05	2.881242e+02	9.996128e-02	7.030764e-04	0.000000e+00	
-1.903856e+00	-1.662957e-02	1.225094e+00	4.167157e+01	-1.002948e-07	2.540225e+05	1.013255e+05	2.881242e+02	9.996128e-02	7.031593e-04	0.000000e+00	
-1.961863e+00	1.277348e-02	1.225094e+00	4.167157e+01	-2.900446e-08	2.540225e+05	1.013255e+05	2.881242e+02	9.996128e-02	7.029032e-04	0.000000e+00	
-1.885547e+00	-2.689840e-02	1.225094e+00	4.167157e+01	-1.193312e-07	2.540225e+05	1.013255e+05	2.881242e+02	9.996128e-02	7.032389e-04	0.000000e+00	
-1.983199e+00	2.200456e-02	1.225094e+00	4.167157e+01	-1.056550e-08	2.540225e+05	1.013255e+05	2.881242e+02	9.996128e-02	7.028242e-04	0.000000e+00	
-1.867286e+00	-3.730821e-02	1.225094e+00	4.167157e+01	-1.523547e-07	2.540225e+05	1.013255e+05	2.881242e+02	9.996128e-02	7.033183e-04	0.000000e+00	
-1.813484e+00	-1.344874e-01	1.225094e+00	4.167158e+01	-1.845322e-07	2.540225e+05	1.013255e+05	2.881242e+02	9.996129e-02	7.035343e-04	0.000000e+00	
-1.830910e+00	-5.839805e-02	1.225094e+00	4.167157e+01	-2.652423e-07	2.540225e+05	1.013255e+05	2.881242e+02	9.996128e-02	7.034736e-04	0.000000e+00	
-1.849050e+00	-4.781582e-02	1.225094e+00	4.167157e+01	-2.043929e-07	2.540225e+05	1.013255e+05	2.881242e+02	9.996128e-02	7.033964e-04	0.000000e+00	
-2.000000e+00	3.141580e-02	1.225094e+00	4.167157e+01	-6.560414e-09	2.540225e+05	1.013255e+05	2.881242e+02	9.996128e-02	7.027190e-04	0.000000e+00	
-1.813482e+00	-1.120827e-01	1.225094e+00	4.167157e+01	-3.833889e-07	2.540225e+05	1.013255e+05	2.881242e+02	9.996129e-02	7.035472e-04	0.000000e+00	
-1.813225e+00	-9.034079e-02	1.225094e+00	4.167157e+01	-4.012955e-07	2.540225e+05	1.013255e+05	2.881242e+02	9.996128e-02	7.035479e-04	0.000000e+00	
-1.812935e+00	-6.905444e-02	1.225094e+00	4.167157e+01	-3.224100e-07	2.540225e+05	1.013255e+05	2.881242e+02	9.996128e-02	7.035490e-04	0.000000e+00	
-1.922328e+00	1.460403e-02	1.225094e+00	4.167157e+01	-3.846198e-08	2.540225e+05	1.013255e+05	2.881242e+02	9.996128e-02	7.030766e-04	0.000000e+00	
-1.941540e+00	2.437837e-02	1.225094e+00	4.167157e+01	-1.657401e-08	2.540225e+05	1.013255e+05	2.881242e+02	9.996128e-02	7.029959e-04	0.000000e+00	
-1.903760e+00	4.569333e-03	1.225094e+00	4.167157e+01	-6.035426e-08	2.540225e+05	1.013255e+05	2.881242e+02	9.996128e-02	7.031599e-04	0.000000e+00	
-1.885441e+00	-5.682767e-03	1.225094e+00	4.167157e+01	-7.902691e-08	2.540225e+05	1.013255e+05	2.881242e+02	9.996128e-02	7.032393e-04	0.000000e+00	
-1.961789e+00	3.385900e-02	1.225094e+00	4.167157e+01	-2.524217e-09	2.540225e+05	1.013255e+05	2.881242e+02	9.996128e-02	7.029033e-04	0.000000e+00	
-1.867155e+00	-1.610339e-02	1.225094e+00	4.167157e+01	-9.827876e-08	2.540225e+05	1.013255e+05	2.881242e+02	9.996128e-02	7.033191e-04	0.000000e+00	
-1.983179e+00	4.302844e-02	1.225094e+00	4.167157e+01	-2.636526e-10	2.540225e+05	1.013255e+05	2.881242e+02	9.996128e-02	7.028242e-04	0.000000e+00	
-1.848876e+00	-2.664331e-02	1.225094e+00	4.167157e+01	-1.267890e-07	2.540225e+05	1.013255e+05	2.881242e+02	9.996128e-02	7.033973e-04	0.000000e+00	
-1.797796e+00	-1.424073e-01	1.225094e+00	4.167158e+01	-4.661084e-08	2.540225e+05	1.013255e+05	2.881242e+02	9.996129e-02	7.036233e-04	0.000000e+00	
-1.796137e+00	-1.233794e-01	1.225094e+00	4.167158e+01	-2.742663e-07	2.540225e+05	1.013255e+05	2.881242e+02	9.996129e-02	7.036276e-04	0.000000e+00	
-1.812634e+00	-4.792082e-02	1.225094e+00	4.167157e+01	-2.191513e-07	2.540225e+05	1.013255e+05	2.881242e+02	9.996128e-02	7.035508e-04	0.000000e+00	
-1.830678e+00	-3.725943e-02	1.225094e+00	4.167157e+01	-1.677937e-07	2.540225e+05	1.013255e+05	2.881242e+02	9.996128e-02	7.034746e-04	0.000000e+00	
-2.000000e+00	5.235967e-02	1.225094e+00	4.167157e+01	-1.570753e-08	2.540225e+05	1.013255e+05	2.881242e+02	9.996128e-02	7.027189e-04	0.000000e+00	
-1.795569e+00	-1.013393e-01	1.225094e+00	4.167157e+01	-3.757633e-07	2.540225e+05	1.013255e+05	2.881242e+02	9.996128e-02	7.036209e-04	0.000000e+00	
-1.795153e+00	-7.980930e-02	1.225094e+00	4.167157e+01	-3.636824e-07	2.540225e+05	1.013255e+05	2.881242e+02	9.996128e-02	7.036254e-04	0.000000e+00	
-1.794774e+00	-5.861452e-02	1.225094e+00	4.167157e+01	-2.688940e-07	2.540225e+05	1.013255e+05	2.881242e+02	9.996128e-02	7.036247e-04	0.000000e+00	
-1.903595e+00	2.578100e-02	1.225094e+00	4.167157e+01	-2.014165e-09	2.540225e+05	1.013255e+05	2.881242e+02	9.996128e-02	7.031602e-04	0.000000e+00	
-1.922160e+00	3.577305e-02	1.225094e+00	4.167157e+01	2.066024e-08	2.540225e+05	1.013255e+05	2.881242e+02	9.996128e-02	7.030772e-04	0.000000e+00	
-1.941391e+00	4.553237e-02	1.225094e+00	4.167157e+01	3.461300e-08	2.540225e+05	1.013255e+05	2.881242e+02	9.996128e-02	7.029956e-04	0.000000e+00	
-1.885279e+00	1.557868e-02	1.225094e+00	4.167157e+01	-2.578237e-08	2.540225e+05	1.013255e+05	2.881242e+02	9.996128e-02	7.032400e-04	0.000000e+00	
-1.866981e+00	5.189886e-03	1.225094e+00	4.167157e+01	-4.787397e-08	2.540225e+05	1.013255e+05	2.881242e+02	9.996128e-02	7.033198e-04	0.000000e+00	
-1.961693e+00	5.500934e-02	1.225094e+00	4.167157e+01	4.028310e-08	2.540225e+05	1.013255e+05	2.881242e+02	9.996128e-02	7.029033e-04	0.000000e+00	
-1.848671e+00	-5.350783e-03	1.225094e+00	4.167157e+01	-6.931921e-08	2.540225e+05	1.013255e+05	2.881242e+02	9.996128e-02	7.033982e-04	0.000000e+00	
-1.983144e+00	6.409240e-02	1.225094e+00	4.167157e+01	2.892069e-08	2.540225e+05	1.013255e+05	2.881242e+02	9.996128e-02	7.028233e-04	0.000000e+00	
-1.830425e+00	-1.599991e-02	1.225094e+00	4.167157e+01	-9.532731e-08	2.540225e+05	1.013255e+05	2.881242e+02	9.996128e-02	7.034758e-04	0.000000e+00	
-1.778548e+00	-1.377476e-01	1.225094e+00	4.167158e+01	-1.244503e-07	2.540225e+05	1.013255e+05	2.881242e+02	9.996129e-02	7.036788e-04	0.000000e+00	
-1.777985e+00	-1.128984e-01	1.225094e+00	4.167157e+01	-3.335191e-07	2.540225e+05	1.013255e+05	2.881242e+02	9.996129e-02	7.036978e-04	0.000000e+00	
-1.794405e+00	-3.744861e-02	1.225094e+00	4.167157e+01	-1.708372e-07	2.540225e+05	1.013255e+05	2.881242e+02	9.996128e-02	7.036269e-04	0.000000e+00	
-1.812324e+00	-2.671216e-02	1.225094e+00	4.167157e+01	-1.285747e-07	2.540225e+05	1.013255e+05	2.881242e+02	9.996128e-02	7.035517e-04	0.000000e+00	
-2.000000e+00	7.330353e-02	1.225094e+00	4.167157e+01	-1.508032e-08	2.540225e+05	1.013255e+05	2.881242e+02	9.996128e-02	7.027173e-04	0.000000e+00	
-1.777512e+00	-9.073068e-02	1.225094e+00	4.167157e+01	-3.647238e-07	2.540225e+05	1.013255e+05	2.881242e+02	9.996128e-02	7.036950e-04	0.000000e+00	
-1.777075e+00	-6.934668e-02	1.225094e+00	4.167157e+01	-3.148630e-07	2.540225e+05	1.013255e+05	2.881242e+02	9.996128e-02	7.036989e-04	0.000000e+00	
-1.776653e+00	-4.818336e-02	1.225094e+00	4.167157e+01	-2.162656e-07	2.540225e+05	1.013255e+05	2.881242e+02	9.996128e-02	7.036996e-04	0.000000e+00	
-1.885042e+00	3.680348e-02	1.225094e+00	4.167157e+01	5.750422e-08	2.540225e+05	1.013255e+05	2.881242e+02	9.996128e-02	7.032406e-04	0.000000e+00	
-1.903346e+00	4.696063e-02	1.225094e+00	4.167157e+01	8.812574e-08	2.540225e+05	1.013255e+05	2.881242e+02	9.996128e-02	7.031610e-04	0.000000e+00	
-1.921917e+00	5.696122e-02	1.225094e+00	4.167157e+01	1.103766e-07	2.540225e+05	1.013255e+05	2.881242e+02	9.996128e-02	7.030769e-04	0.000000e+00	
-1.941199e+00	6.680152e-02	1.225094e+00	4.167157e+01	1.261122e-07	2.540225e+05	1.013255e+05	2.881242e+02	9.996128e-02	7.029967e-04	0.000000e+00	
-1.866750e+00	2.647742e-02	1.225094e+00	4.167157e+01	2.609631e-08	2.540225e+05	1.013255e+05	2.881242e+02	9.996128e-02	7.033207e-04	0.000000e+00	
-1.848427e+00	1.598576e-02	1.225094e+00	4.167157e+01	-3.169534e-09	2.540225e+05	1.013255e+05	2.881242e+02	9.996128e-02	7.033992e-04	0.000000e+00	
-1.961602e+00	7.637492e-02	1.225094e+00	4.167157e+01	1.199378e-07	2.540225e+05	1.013255e+05	2.881242e+02	9.996128e-02	7.029011e-04	0.000000e+00	
-1.830151e+00	5.353266e-03	1.225094e+00	4.167157e+01	-2.991748e-08	2.540225e+05	1.013255e+05	2.881242e+02	9.996128e-02	7.034768e-04	0.000000e+00	
-1.983039e+00	8.524761e-02	1.225094e+00	4.167157e+01	9.781995e-08	2.540225e+05	1.013255e+05	2.881242e+02	9.996128e-02	7.028218e-04	0.000000e+00	
-1.812007e+00	-5.380142e-03	1.225094e+00	4.167157e+01	-5.693843e-08	2.540225e+05	1.013255e+05	2.881242e+02	9.996128e-02	7.035532e-04	0.000000e+00	
-1.759544e+00	-1.423585e-01	1.225094e+00	4.167158e+01	-6.605183e-08	2.540225e+05	1.013255e+05	2.881242e+02	9.996129e-02	7.037957e-04	0.000000e+00	
-1.760329e+00	-1.234889e-01	1.225094e+00	4.167158e+01	-1.937627e-07	2.540225e+05	1.013255e+05	2.881242e+02	9.996129e-02	7.037631e-04	0.000000e+00	
-1.759950e+00	-1.015518e-01	1.225094e+00	4.167157e+01	-3.281110e-07	2.540225e+05	1.013255e+05	2.881242e+02	9.996129e-02	7.037716e-04	0.000000e+00	
-1.776241e+00	-2.696417e-02	1.225094e+00	4.167157e+01	-1.229664e-07	2.540225e+05	1.013255e+05	2.881242e+02	9.996128e-02	7.037016e-04	0.000000e+00	
-1.794039e+00	-1.616722e-02	1.225094e+00	4.167157e+01	-8.657244e-08	2.540225e+05	1.013255e+05	2.881242e+02	9.996128e-02	7.036279e-04	0.000000e+00	
-2.000000e+00	9.424740e-02	1.225094e+00	4.167157e+01	5.990471e-09	2.540225e+05	1.013255e+05	2.881242e+02	9.996129e-02	7.027124e-04	0.000000e+00	
-1.759491e+00	-8.007388e-02	1.225094e+00	4.167157e+01	-3.274337e-07	2.540225e+05	1.013255e+05	2.881242e+02	9.996128e-02	7.037695e-04	0.000000e+00	
-1.759031e+00	-5.889712e-02	1.225094e+00	4.167157e+01	-2.595034e-07	2.540225e+05	1.013255e+05	2.881242e+02	9.996128e-02	7.037725e-04	0.000000e+00	
-1.758578e+00	-3.773865e-02	1.225094e+00	4.167157e+01	-1.634133e-07	2.540225e+05	1.013255e+05	2.881242e+02	9.996128e-02	7.037735e-04	0.000000e+00	
-1.866446e+00	4.768806e-02	1.225094e+00	4.167157e+01	1.366237e-07	2.540225e+05	1.013255e+05	2.881242e+02	9.996128e-02	7.033217e-04	0.000000e+00	
-1.884716e+00	5.797651e-02	1.225094e+00	4.167157e+01	1.793176e-07	2.540225e+05	1.013255e+05	2.881242e+02	9.996128e-02	7.032416e-04	0.000000e+00	
-1.902993e+00	6.816480e-02	1.225094e+00	4.167157e+01	2.169289e-07	2.540225e+05	1.013255e+05	2.881242e+02	9.996128e-02	7.031614e-04	0.000000e+00	
-1.921565e+00	7.830749e-02	1.225094e+00	4.167157e+01	2.465454e-07	2.540225e+05	1.013255e+05	2.881242e+02	9.996128e-02	7.030783e-04	0.000000e+00	
-1.940935e+00	8.843082e-02	1.225094e+00	4.167157e+01	2.538607e-07	2.540225e+05	1.013255e+05	2.881242e+02	9.996128e-02	7.029935e-04	0.000000e+00	
-1.848134e+00	3.726090e-02	1.225094e+00	4.167157e+01	9.367404e-08	2.540225e+05	1.013255e+05	2.881242e+02	9.996128e-02	7.034002e-04	0.000000e+00	
-1.829849e+00	2.669091e-02	1.225094e+00	4.167157e+01	5.365480e-08	2.540225e+05	1.013255e+05	2.881242e+02	9.996128e-02	7.034780e-04	0.000000e+00	
-1.961628e+00	9.837298e-02	1.225094e+00	4.167157e+01	2.527310e-07	2.540225e+05	1.013255e+05	2.881242e+02	9.996128e-02	7.029042e-04	0.000000e+00	
-1.811681e+00	1.599299e-02	1.225094e+00	4.167157e+01	1.851584e-08	2.540225e+05	1.013255e+05	2.881242e+02	9.996128e-02	7.035543e-04	0.000000e+00	
-1.982725e+00	1.064412e-01	1.225094e+00	4.167157e+01	1.945272e-07	2.540225e+05	1.013255e+05	2.881242e+02	9.996129e-02	7.028156e-04	0.000000e+00	
-1.793678e+00	5.203889e-03	1.225094e+00	4.167157e+01	-1.268265e-08	2.540225e+05	1.013255e+05	2.881242e+02	9.996128e-02	7.036294e-04	0.000000e+00	
-1.743508e+00	-1.345604e-01	1.225094e+00	4.167158e+01	-1.034266e-07	2.540225e+05	1.013255e+05	2.881242e+02	9.996129e-02	7.038316e-04	0.000000e+00	
-1.742599e+00	-1.123980e-01	1.225094e+00	4.167157e+01	-2.497358e-07	2.540225e+05	1.013255e+05	2.881242e+02	9.996129e-02	7.038388e-04	0.000000e+00	
-1.742011e+00	-9.081879e-02	1.225094e+00	4.167157e+01	-3.082814e-07	2.540225e+05	1.013255e+05	2.881242e+02	9.996128e-02	7.038409e-04	0.000000e+00	
-1.758139e+00	-1.646748e-02	1.225094e+00	4.167157e+01	-7.609291e-08	2.540225e+05	1.013255e+05	2.881242e+02	9.996128e-02	7.037754e-04	0.000000e+00	
-1.775840e+00	-5.630232e-03	1.225094e+00	4.167157e+01	-4.282322e-08	2.540225e+05	1.013255e+05	2.881242e+02	9.996128e-02	7.037029e-04	0.000000e+00	
-2.000000e+00	1.151913e-01	1.225094e+00	4.167157e+01	3.232126e-08	2.540225e+05	1.013255e+05	2.881242e+02	9.996129e-02	7.027085e-04	0.000000e+00	
-1.741498e+00	-6.959910e-02	1.225094e+00	4.167157e+01	-2.813175e-07	2.540225e+05	1.013255e+05	2.881242e+02	9.996128e-02	7.038426e-04	0.000000e+00	
-1.741008e+00	-4.847994e-02	1.225094e+00	4.167157e+01	-2.028097e-07	2.540225e+05	1.013255e+05	2.881242e+02	9.996128e-02	7.038446e-04	0.000000e+00	
-1.726158e+00	-1.442945e-01	1.225094e+00	4.167158e+01	-6.393580e-08	2.540225e+05	1.013255e+05	2.881242e+02	9.996129e-02	7.038900e-04	0.000000e+00	
-1.740535e+00	-2.728049e-02	1.225094e+00	4.167157e+01	-1.123321e-07	2.540225e+05	1.013255e+05	2.881242e+02	9.996128e-02	7.038463e-04	0.000000e+00	
-1.866055e+00	6.887190e-02	1.225094e+00	4.167157e+01	2.753205e-07	2.540225e+05	1.013255e+05	2.881242e+02	9.996128e-02	7.033228e-04	0.000000e+00	
-1.847779e+00	5.844123e-02	1.225094e+00	4.167157e+01	2.228537e-07	2.540225e+05	1.013255e+05	2.881242e+02	9.996128e-02	7.034016e-04	0.000000e+00	
-1.884272e+00	7.922428e-02	1.225094e+00	4.167157e+01	3.249223e-07	2.540225e+05	1.013255e+05	2.881242e+02	9.996128e-02	7.032431e-04	0.000000e+00	
-1.902460e+00	8.958918e-02	1.225094e+00	4.167157e+01	3.636413e-07	2.540225e+05	1.013255e+05	2.881242e+02	9.996128e-02	7.031630e-04	0.000000e+00	
-1.920958e+00	1.000616e-01	1.225094e+00	4.167157e+01	3.827244e-07	2.540225e+05	1.013255e+05	2.881242e+02	9.996128e-02	7.030786e-04	0.000000e+00	
-1.940391e+00	1.108233e-01	1.225094e+00	4.167157e+01	3.937099e-07	2.540225e+05	1.013255e+05	2.881242e+02	9.996128e-02	7.029990e-04	0.000000e+00	
-1.829511e+00	4.792508e-02	1.225094e+00	4.167157e+01	1.673633e-07	2.540225e+05	1.013255e+05	2.881242e+02	9.996128e-02	7.034793e-04	0.000000e+00	
-1.811339e+00	3.729393e-02	1.225094e+00	4.167157e+01	1.162971e-07	2.540225e+05	1.013255e+05	2.881242e+02	9.996128e-02	7.035559e-04	0.000000e+00	
-1.962390e+00	1.223687e-01	1.225094e+00	4.167157e+01	3.375986e-07	2.540225e+05	1.013255e+05	2.881242e+02	9.996129e-02	7.028936e-04	0.000000e+00	
-1.793317e+00	2.655511e-02	1.225094e+00	4.167157e+01	7.240975e-08	2.540225e+05	1.013255e+05	2.881242e+02	9.996128e-02	7.036308e-04	0.000000e+00	
-1.982997e+00	1.240991e-01	1.225094e+00	4.167157e+01	2.119509e-07	2.540225e+05	1.013255e+05	2.881242e+02	9.996129e-02	7.028038e-04	0.000000e+00	
-1.775452e+00	1.574079e-02	1.225094e+00	4.167157e+01	3.558839e-08	2.540225e+05	1.013255e+05	2.881242e+02	9.996128e-02	7.037046e-04	0.000000e+00	
-1.725242e+00	-1.231664e-01	1.225094e+00	4.167158e+01	-2.147094e-07	2.540225e+05	1.013255e+05	2.881242e+02	9.996129e-02	7.039156e-04	0.000000e+00	
-1.724562e+00	-1.015920e-01	1.225094e+00	4.167157e+01	-2.685953e-07	2.540225e+05	1.013255e+05	2.881242e+02	9.996129e-02	7.039088e-04	0.000000e+00	
-1.724007e+00	-8.032697e-02	1.225094e+00	4.167157e+01	-2.822662e-07	2.540225e+05	1.013255e+05	2.881242e+02	9.996128e-02	7.039137e-04	0.000000e+00	
-1.757720e+00	4.890000e-03	1.225094e+00	4.167157e+01	2.692414e-09	2.540225e+05	1.013255e+05	2.881242e+02	9.996128e-02	7.037768e-04	0.000000e+00	
-1.740086e+00	-5.965373e-03	1.225094e+00	4.167157e+01	-2.984831e-08	2.540225e+05	1.013255e+05	2.881242e+02	9.996128e-02	7.038480e-04	0.000000e+00	
-1.973426e+00	1.390611e-01	1.225094e+00	4.167157e+01	2.032092e-07	2.540225e+05	1.013255e+05	2.881242e+02	9.996129e-02	7.028495e-04	0.000000e+00	
-2.000000e+00	1.361351e-01	1.225094e+00	4.167157e+01	3.577932e-08	2.540225e+05	1.013255e+05	2.881242e+02	9.996129e-02	7.027010e-04	0.000000e+00	
-1.723488e+00	-5.920528e-02	1.225094e+00	4.167157e+01	-2.289542e-07	2.540225e+05	1.013255e+05	2.881242e+02	9.996128e-02	7.039141e-04	0.000000e+00	
-1.722988e+00	-3.806224e-02	1.225094e+00	4.167157e+01	-1.475562e-07	2.540225e+05	1.013255e+05	2.881242e+02	9.996128e-02	7.039163e-04	0.000000e+00	
-1.707684e+00	-1.341712e-01	1.225094e+00	4.167158e+01	-1.128970e-07	2.540225e+05	1.013255e+05	2.881242e+02	9.996129e-02	7.039696e-04	0.000000e+00	
-1.722514e+00	-1.680614e-02	1.225094e+00	4.167157e+01	-6.292166e-08	2.540225e+05	1.013255e+05	2.881242e+02	9.996128e-02	7.039179e-04	0.000000e+00	
-1.865553e+00	9.027908e-02	1.225094e+00	4.167157e+01	4.031992e-07	2.540225e+05	1.013255e+05	2.881242e+02	9.996128e-02	7.033255e-04	0.000000e+00	
-1.847350e+00	7.964799e-02	1.225094e+00	4.167157e+01	3.556550e-07	2.540225e+05	1.013255e+05	2.881242e+02	9.996128e-02	7.034028e-04	0.000000e+00	
-1.829130e+00	6.908528e-02	1.225094e+00	4.167157e+01	2.954040e-07	2.540225e+05	1.013255e+05	2.881242e+02	9.996128e-02	7.034810e-04	0.000000e+00	
-1.883664e+00	1.008026e-01	1.225094e+00	4.167157e+01	4.342467e-07	2.540225e+05	1.013255e+05	2.881242e+02	9.996128e-02	7.032443e-04	0.000000e+00	
-1.901548e+00	1.114572e-01	1.225094e+00	4.167157e+01	4.430446e-07	2.540225e+05	1.013255e+05	2.881242e+02	9.996128e-02	7.031668e-04	0.000000e+00	
-1.919629e+00	1.222673e-01	1.225094e+00	4.167157e+01	4.162573e-07	2.540225e+05	1.013255e+05	2.881242e+02	9.996129e-02	7.030830e-04	0.000000e+00	
-1.938119e+00	1.337880e-01	1.225094e+00	4.167157e+01	3.773842e-07	2.540225e+05	1.013255e+05	2.881242e+02	9.996129e-02	7.030004e-04	0.000000e+00	
-1.810969e+00	5.847977e-02	1.225094e+00	4.167157e+01	2.319998e-07	2.540225e+05	1.013255e+05	2.881242e+02	9.996128e-02	7.035569e-04	0.000000e+00	
-1.792943e+00	4.779600e-02	1.225094e+00	4.167157e+01	1.759277e-07	2.540225e+05	1.013255e+05	2.881242e+02	9.996128e-02	7.036322e-04	0.000000e+00	
-1.953609e+00	1.416819e-01	1.225094e+00	4.167157e+01	3.115709e-07	2.540225e+05	1.013255e+05	2.881242e+02	9.996129e-02	7.029317e-04	0.000000e+00	
-1.775068e+00	3.703736e-02	1.225094e+00	4.167157e+01	1.275508e-07	2.540225e+05	1.013255e+05	2.881242e+02	9.996128e-02	7.037059e-04	0.000000e+00	
-1.757319e+00	2.622722e-02	1.225094e+00	4.167157e+01	8.625420e-08	2.540225e+05	1.013255e+05	2.881242e+02	9.996128e-02	7.037784e-04	0.000000e+00	
-1.707037e+00	-1.124520e-01	1.225094e+00	4.167158e+01	-2.337713e-07	2.540225e+05	1.013255e+05	2.881242e+02	9.996129e-02	7.039766e-04	0.000000e+00	
-1.706504e+00	-9.116028e-02	1.225094e+00	4.167157e+01	-2.702772e-07	2.540225e+05	1.013255e+05	2.881242e+02	9.996128e-02	7.039815e-04	0.000000e+00	
-1.705975e+00	-6.996023e-02	1.225094e+00	4.167157e+01	-2.420539e-07	2.540225e+05	1.013255e+05	2.881242e+02	9.996128e-02	7.039826e-04	0.000000e+00	
-1.739663e+00	1.538836e-02	1.225094e+00	4.167157e+01	4.956633e-08	2.540225e+05	1.013255e+05	2.881242e+02	9.996128e-02	7.038496e-04	0.000000e+00	
-1.722070e+00	4.536229e-03	1.225094e+00	4.167157e+01	1.582093e-08	2.540225e+05	1.013255e+05	2.881242e+02	9.996128e-02	7.039196e-04	0.000000e+00	
-1.957895e+00	1.570790e-01	1.225094e+00	4.167157e+01	4.595910e-08	2.540225e+05	1.013255e+05	2.881242e+02	9.996129e-02	7.028930e-04	0.000000e+00	
-1.978947e+00	1.570790e-01	1.225094e+00	4.167157e+01	-5.236049e-08	2.540225e+05	1.013255e+05	2.881242e+02	9.996129e-02	7.028133e-04	0.000000e+00	
-1.705460e+00	-4.882680e-02	1.225094e+00	4.167157e+01	-1.765660e-07	2.540225e+05	1.013255e+05	2.881242e+02	9.996128e-02	7.039851e-04	0.000000e+00	
-1.704970e+00	-2.762615e-02	1.225094e+00	4.167157e+01	-9.446260e-08	2.540225e+05	1.013255e+05	2.881242e+02	9.996128e-02	7.039865e-04	0.000000e+00	
-1.691739e+00	-1.415074e-01	1.225094e+00	4.167158e+01	1.521553e-08	2.540225e+05	1.013255e+05	2.881242e+02	9.996129e-02	7.040422e-04	0.000000e+00	
-1.689223e+00	-1.233526e-01	1.225094e+00	4.167158e+01	-1.663480e-07	2.540225e+05	1.013255e+05	2.881242e+02	9.996129e-02	7.040552e-04	0.000000e+00	
-1.704511e+00	-6.318978e-03	1.225094e+00	4.167157e+01	-1.622837e-08	2.540225e+05	1.013255e+05	2.881242e+02	9.996128e-02	7.039883e-04	0.000000e+00	
-1.846829e+00	1.011551e-01	1.225094e+00	4.167157e+01	4.411218e-07	2.540225e+05	1.013255e+05	2.881242e+02	9.996128e-02	7.034053e-04	0.000000e+00	
-1.864902e+00	1.124423e-01	1.225094e+00	4.167157e+01	4.399617e-07	2.540225e+05	1.013255e+05	2.881242e+02	9.996128e-02	7.033273e-04	0.000000e+00	
-1.828713e+00	9.037075e-02	1.225094e+00	4.167157e+01	3.968654e-07	2.540225e+05	1.013255e+05	2.881242e+02	9.996128e-02	7.034827e-04	0.000000e+00	
-1.810560e+00	7.966112e-02	1.225094e+00	4.167157e+01	3.406650e-07	2.540225e+05	1.013255e+05	2.881242e+02	9.996128e-02	7.035596e-04	0.000000e+00	
-1.882913e+00	1.228265e-01	1.225094e+00	4.167157e+01	4.275302e-07	2.540225e+05	1.013255e+05	2.881242e+02	9.996129e-02	7.032499e-04	0.000000e+00	
-1.899863e+00	1.338969e-01	1.225094e+00	4.167157e+01	3.387300e-07	2.540225e+05	1.013255e+05	2.881242e+02	9.996129e-02	7.031691e-04	0.000000e+00	
-1.917356e+00	1.438750e-01	1.225094e+00	4.167158e+01	2.558259e-07	2.540225e+05	1.013255e+05	2.881242e+02	9.996129e-02	7.030999e-04	0.000000e+00	
-1.936842e+00	1.570790e-01	1.225094e+00	4.167158e+01	1.748752e-07	2.540225e+05	1.013255e+05	2.881242e+02	9.996129e-02	7.030121e-04	0.000000e+00	
-1.792530e+00	6.895331e-02	1.225094e+00	4.167157e+01	2.838203e-07	2.540225e+05	1.013255e+05	2.881242e+02	9.996128e-02	7.036341e-04	0.000000e+00	