TITLE = "SU2 Simulation"
VARIABLES = "Iteration","CL","CD","CSF","CMx","CMy","CMz","CFx","CFy","CFz","CL/CD","AoA","Custom_ObjFunc","Res_Flow[0]","Res_Flow[1]","Res_Flow[2]","Res_Flow[3]","Res_Flow[4]","Linear_Solver_Iterations","CFL_Number","Time(min)"
ZONE T= "Convergence history"
           0, 0.00000000e+00, 0.00000000e+00, 0.00000000e+00, 0.00000000e+00, 0.00000000e+00, 0.00000000e+00, 0.00000000e+00, 0.00000000e+00, 0.00000000e+00, 0.00000000e+00, 0.00000000e+00, 0.00000000e+00, -4.11004901e+00, -1.50028530e+00, -1.27787506e+01, 1.40941601e+00, 0.00000000e+00, 5.0000000000, 5.0000000000, 0.0007602500
           1, 0.00000000e+00, 0.00000000e+00, 0.00000000e+00, 0.00000000e+00, 0.00000000e+00, 0.00000000e+00, 0.00000000e+00, 0.00000000e+00, 0.00000000e+00, 0.00000000e+00, 0.00000000e+00, 0.00000000e+00, -4.46792509e+00, -1.84197045e+00, -3.81074000e+00, 1.07354917e+00, 0.00000000e+00, 5.0000000000, 5.0000000000, 0.0014113500
           2, 0.00000000e+00, 0.00000000e+00, 0.00000000e+00, 0.00000000e+00, 0.00000000e+00, 0.00000000e+00, 0.00000000e+00, 0.00000000e+00, 0.00000000e+00, 0.00000000e+00, 0.00000000e+00, 0.00000000e+00, -4.53118105e+00, -1.95853900e+00, -3.57691929e+00, 9.50963739e-01, 0.00000000e+00, 5.0000000000, 5.0000000000, 0.0020806833
           3, 0.00000000e+00, 0.00000000e+00, 0.00000000e+00, 0.00000000e+00, 0.00000000e+00, 0.00000000e+00, 0.00000000e+00, 0.00000000e+00, 0.00000000e+00, 0.00000000e+00, 0.00000000e+00, 0.00000000e+00, -4.50540717e+00, -1.96816615e+00, -3.46923838e+00, 9.39919867e-01, 0.00000000e+00, 5.0000000000, 5.0000000000, 0.0027707333
           4, 0.00000000e+00, 0.00000000e+00, 0.00000000e+00, 0.00000000e+00, 0.00000000e+00, 0.00000000e+00, 0.00000000e+00, 0.00000000e+00, 0.00000000e+00, 0.00000000e+00, 0.00000000e+00, 0.00000000e+00, -4.52074021e+00, -1.99816737e+00, -3.34093449e+00, 9.09459852e-01, 0.00000000e+00, 5.0000000000, 5.0000000000, 0.0034734333
           5, 0.00000000e+00, 0.00000000e+00, 0.00000000e+00, 0.00000000e+00, 0.00000000e+00, 0.00000000e+00, 0.00000000e+00, 0.00000000e+00, 0.00000000e+00, 0.00000000e+00, 0.00000000e+00, 0.00000000e+00, -4.55496024e+00, -2.03763237e+00, -3.18766033e+00, 8.66894533e-01, 0.00000000e+00, 5.0000000000, 5.0000000000, 0.0041737333
           6, 0.00000000e+00, 0.00000000e+00, 0.00000000e+00, 0.00000000e+00, 0.00000000e+00, 0.00000000e+00, 0.00000000e+00, 0.00000000e+00, 0.00000000e+00, 0.00000000e+00, 0.00000000e+00, 0.00000000e+00, -4.59042969e+00, -2.07340715e+00, -3.08011888e+00, 8.27682931e-01, 0.00000000e+00, 5.0000000000, 5.0000000000, 0.0049958333
           7, 0.00000000e+00, 0.00000000e+00, 0.00000000e+00, 0.00000000e+00, 0.00000000e+00, 0.00000000e+00, 0.00000000e+00, 0.00000000e+00, 0.00000000e+00, 0.00000000e+00, 0.00000000e+00, 0.00000000e+00, -4.62137873e+00, -2.10298258e+00, -3.02420743e+00, 7.96435365e-01, 0.00000000e+00, 5.0000000000, 5.0000000000, 0.0058029500
           8, 0.00000000e+00, 0.00000000e+00, 0.00000000e+00, 0.00000000e+00, 0.00000000e+00, 0.00000000e+00, 0.00000000e+00, 0.00000000e+00, 0.00000000e+00, 0.00000000e+00, 0.00000000e+00, 0.00000000e+00, -4.64743561e+00, -2.12736033e+00, -3.00430688e+00, 7.72062512e-01, 0.00000000e+00, 5.0000000000, 5.0000000000, 0.0065949000
           9, 0.00000000e+00, 0.00000000e+00, 0.00000000e+00, 0.00000000e+00, 0.00000000e+00, 0.00000000e+00, 0.00000000e+00, 0.00000000e+00, 0.00000000e+00, 0.00000000e+00, 0.00000000e+00, 0.00000000e+00, -4.66951027e+00, -2.14772188e+00, -3.00643119e+00, 7.52524349e-01, 0.00000000e+00, 5.0000000000, 5.0000000000, 0.0073676167
          10, 0.00000000e+00, 0.00000000e+00, 0.00000000e+00, 0.00000000e+00, 0.00000000e+00, 0.00000000e+00, 0.00000000e+00, 0.00000000e+00, 0.00000000e+00, 0.00000000e+00, 0.00000000e+00, 0.00000000e+00, -4.68850174e+00, -2.16515266e+00, -3.02502100e+00, 7.36263668e-01, 0.00000000e+00, 5.0000000000, 5.0000000000, 0.0081512000
          11, 0.00000000e+00, 0.00000000e+00, 0.00000000e+00, 0.00000000e+00, 0.00000000e+00, 0.00000000e+00, 0.00000000e+00, 0.00000000e+00, 0.00000000e+00, 0.00000000e+00, 0.00000000e+00, 0.00000000e+00, -4.70507708e+00, -2.18056633e+00, -3.06299818e+00, 7.22297546e-01, 0.00000000e+00, 5.0000000000, 5.0000000000, 0.0089309000
          12, 0.00000000e+00, 0.00000000e+00, 0.00000000e+00, 0.00000000e+00, 0.00000000e+00, 0.00000000e+00, 0.00000000e+00, 0.00000000e+00, 0.00000000e+00, 0.00000000e+00, 0.00000000e+00, 0.00000000e+00, -4.71981164e+00, -2.19456505e+00, -3.12736325e+00, 7.09937525e-01, 0.00000000e+00, 5.0000000000, 5.0000000000, 0.0097190333
          13, 0.00000000e+00, 0.00000000e+00, 0.00000000e+00, 0.00000000e+00, 0.00000000e+00, 0.00000000e+00, 0.00000000e+00, 0.00000000e+00, 0.00000000e+00, 0.00000000e+00, 0.00000000e+00, 0.00000000e+00, -4.73333289e+00, -2.20747867e+00, -3.22496573e+00, 6.98545163e-01, 0.00000000e+00, 5.0000000000, 5.0000000000, 0.0105165167
          14, 0.00000000e+00, 0.00000000e+00, 0.00000000e+00, 0.00000000e+00, 0.00000000e+00, 0.00000000e+00, 0.00000000e+00, 0.00000000e+00, 0.00000000e+00, 0.00000000e+00, 0.00000000e+00, 0.00000000e+00, -4.74624271e+00, -2.21950907e+00, -3.35751905e+00, 6.87554479e-01, 0.00000000e+00, 5.0000000000, 5.0000000000, 0.0113105000
          15, 0.00000000e+00, 0.00000000e+00, 0.00000000e+00, 0.00000000e+00, 0.00000000e+00, 0.00000000e+00, 0.00000000e+00, 0.00000000e+00, 0.00000000e+00, 0.00000000e+00, 0.00000000e+00, 0.00000000e+00, -4.75890242e+00, -2.23082066e+00, -3.50251007e+00, 6.76661700e-01, 0.00000000e+00, 5.0000000000, 5.0000000000, 0.0120798167
          16, 0.00000000e+00, 0.00000000e+00, 0.00000000e+00, 0.00000000e+00, 0.00000000e+00, 0.00000000e+00, 0.00000000e+00, 0.00000000e+00, 0.00000000e+00, 0.00000000e+00, 0.00000000e+00, 0.00000000e+00, -4.77132302e+00, -2.24154494e+00, -3.58096379e+00, 6.65917215e-01, 0.00000000e+00, 5.0000000000, 5.0000000000, 0.0128705500
          17, 0.00000000e+00, 0.00000000e+00, 0.00000000e+00, 0.00000000e+00, 0.00000000e+00, 0.00000000e+00, 0.00000000e+00, 0.00000000e+00, 0.00000000e+00, 0.00000000e+00, 0.00000000e+00, 0.00000000e+00, -4.78326704e+00, -2.25175737e+00, -3.56288847e+00, 6.55605562e-01, 0.00000000e+00, 5.0000000000, 5.0000000000, 0.0136566167
          18, 0.00000000e+00, 0.00000000e+00, 0.00000000e+00, 0.00000000e+00, 0.00000000e+00, 0.00000000e+00, 0.00000000e+00, 0.00000000e+00, 0.00000000e+00, 0.00000000e+00, 0.00000000e+00, 0.00000000e+00, -4.79446957e+00, -2.26147854e+00, -3.53258995e+00, 6.46012074e-01, 0.00000000e+00, 5.0000000000, 5.0000000000, 0.0144486667
          19, 0.00000000e+00, 0.00000000e+00, 0.00000000e+00, 0.00000000e+00, 0.00000000e+00, 0.00000000e+00, 0.00000000e+00, 0.00000000e+00, 0.00000000e+00, 0.00000000e+00, 0.00000000e+00, 0.00000000e+00, -4.80481162e+00, -2.27069955e+00, -3.53544798e+00, 6.37250108e-01, 0.00000000e+00, 5.0000000000, 5.0000000000, 0.0152131833
          20, 0.00000000e+00, 0.00000000e+00, 0.00000000e+00, 0.00000000e+00, 0.00000000e+00, 0.00000000e+00, 0.00000000e+00, 0.00000000e+00, 0.00000000e+00, 0.00000000e+00, 0.00000000e+00, 0.00000000e+00, -4.81435389e+00, -2.27940876e+00, -3.57555489e+00, 6.29239381e-01, 0.00000000e+00, 5.0000000000, 5.0000000000, 0.0160205833
          21, 0.00000000e+00, 0.00000000e+00, 0.00000000e+00, 0.00000000e+00, 0.00000000e+00, 0.00000000e+00, 0.00000000e+00, 0.00000000e+00, 0.00000000e+00, 0.00000000e+00, 0.00000000e+00, 0.00000000e+00, -4.82325505e+00, -2.28760646e+00, -3.64001061e+00, 6.21802195e-01, 0.00000000e+00, 5.0000000000, 5.0000000000, 0.0167824500
          22, 0.00000000e+00, 0.00000000e+00, 0.00000000e+00, 0.00000000e+00, 0.00000000e+00, 0.00000000e+00, 0.00000000e+00, 0.00000000e+00, 0.00000000e+00, 0.00000000e+00, 0.00000000e+00, 0.00000000e+00, -4.83165606e+00, -2.29530481e+00, -3.69547007e+00, 6.14787781e-01, 0.00000000e+00, 5.0000000000, 5.0000000000, 0.0175581000
          23, 0.00000000e+00, 0.00000000e+00, 0.00000000e+00, 0.00000000e+00, 0.00000000e+00, 0.00000000e+00, 0.00000000e+00, 0.00000000e+00, 0.00000000e+00, 0.00000000e+00, 0.00000000e+00, 0.00000000e+00, -4.83960455e+00, -2.30252093e+00, -3.70250862e+00, 6.08148127e-01, 0.00000000e+00, 5.0000000000, 5.0000000000, 0.0184691833
          24, 0.00000000e+00, 0.00000000e+00, 0.00000000e+00, 0.00000000e+00, 0.00000000e+00, 0.00000000e+00, 0.00000000e+00, 0.00000000e+00, 0.00000000e+00, 0.00000000e+00, 0.00000000e+00, 0.00000000e+00, -4.84704989e+00, -2.30927165e+00, -3.67016949e+00, 6.01937761e-01, 0.00000000e+00, 5.0000000000, 5.0000000000, 0.0192519000
          25, 0.00000000e+00, 0.00000000e+00, 0.00000000e+00, 0.00000000e+00, 0.00000000e+00, 0.00000000e+00, 0.00000000e+00, 0.00000000e+00, 0.00000000e+00, 0.00000000e+00, 0.00000000e+00, 0.00000000e+00, -4.85389602e+00, -2.31557246e+00, -3.63885077e+00, 5.96254989e-01, 0.00000000e+00, 5.0000000000, 5.0000000000, 0.0201073167
          26, 0.00000000e+00, 0.00000000e+00, 0.00000000e+00, 0.00000000e+00, 0.00000000e+00, 0.00000000e+00, 0.00000000e+00, 0.00000000e+00, 0.00000000e+00, 0.00000000e+00, 0.00000000e+00, 0.00000000e+00, -4.86007362e+00, -2.32143881e+00, -3.63138423e+00, 5.91166783e-01, 0.00000000e+00, 5.0000000000, 5.0000000000, 0.0209744000
          27, 0.00000000e+00, 0.00000000e+00, 0.00000000e+00, 0.00000000e+00, 0.00000000e+00, 0.00000000e+00, 0.00000000e+00, 0.00000000e+00, 0.00000000e+00, 0.00000000e+00, 0.00000000e+00, 0.00000000e+00, -4.86558903e+00, -2.32688704e+00, -3.65306810e+00, 5.86660800e-01, 0.00000000e+00, 5.0000000000, 5.0000000000, 0.0219290333
          28, 0.00000000e+00, 0.00000000e+00, 0.00000000e+00, 0.00000000e+00, 0.00000000e+00, 0.00000000e+00, 0.00000000e+00, 0.00000000e+00, 0.00000000e+00, 0.00000000e+00, 0.00000000e+00, 0.00000000e+00, -4.87052604e+00, -2.33193338e+00, -3.69904280e+00, 5.82647171e-01, 0.00000000e+00, 5.0000000000, 5.0000000000, 0.0227964833
          29, 0.00000000e+00, 0.00000000e+00, 0.00000000e+00, 0.00000000e+00, 0.00000000e+00, 0.00000000e+00, 0.00000000e+00, 0.00000000e+00, 0.00000000e+00, 0.00000000e+00, 0.00000000e+00, 0.00000000e+00, -4.87500625e+00, -2.33659137e+00, -3.75120934e+00, 5.79001413e-01, 0.00000000e+00, 5.0000000000, 5.0000000000, 0.0236317167
          30, 0.00000000e+00, 0.00000000e+00, 0.00000000e+00, 0.00000000e+00, 0.00000000e+00, 0.00000000e+00, 0.00000000e+00, 0.00000000e+00, 0.00000000e+00, 0.00000000e+00, 0.00000000e+00, 0.00000000e+00, -4.87913703e+00, -2.34086863e+00, -3.77564753e+00, 5.75617695e-01, 0.00000000e+00, 5.0000000000, 5.0000000000, 0.0244711500
          31, 0.00000000e+00, 0.00000000e+00, 0.00000000e+00, 0.00000000e+00, 0.00000000e+00, 0.00000000e+00, 0.00000000e+00, 0.00000000e+00, 0.00000000e+00, 0.00000000e+00, 0.00000000e+00, 0.00000000e+00, -4.88297810e+00, -2.34476367e+00, -3.75264301e+00, 5.72441036e-01, 0.00000000e+00, 5.0000000000, 5.0000000000, 0.0253096500
          32, 0.00000000e+00, 0.00000000e+00, 0.00000000e+00, 0.00000000e+00, 0.00000000e+00, 0.00000000e+00, 0.00000000e+00, 0.00000000e+00, 0.00000000e+00, 0.00000000e+00, 0.00000000e+00, 0.00000000e+00, -4.88654234e+00, -2.34826329e+00, -3.70487175e+00, 5.69464174e-01, 0.00000000e+00, 5.0000000000, 5.0000000000, 0.0260940333
          33, 0.00000000e+00, 0.00000000e+00, 0.00000000e+00, 0.00000000e+00, 0.00000000e+00, 0.00000000e+00, 0.00000000e+00, 0.00000000e+00, 0.00000000e+00, 0.00000000e+00, 0.00000000e+00, 0.00000000e+00, -4.88982531e+00, -2.35134039e+00, -3.66195169e+00, 5.66695911e-01, 0.00000000e+00, 5.0000000000, 5.0000000000, 0.0269394333
          34, 0.00000000e+00, 0.00000000e+00, 0.00000000e+00, 0.00000000e+00, 0.00000000e+00, 0.00000000e+00, 0.00000000e+00, 0.00000000e+00, 0.00000000e+00, 0.00000000e+00, 0.00000000e+00, 0.00000000e+00, -4.89284489e+00, -2.35395230e+00, -3.63670723e+00, 5.64120462e-01, 0.00000000e+00, 5.0000000000, 5.0000000000, 0.0276827833
          35, 0.00000000e+00, 0.00000000e+00, 0.00000000e+00, 0.00000000e+00, 0.00000000e+00, 0.00000000e+00, 0.00000000e+00, 0.00000000e+00, 0.00000000e+00, 0.00000000e+00, 0.00000000e+00, 0.00000000e+00, -4.89567143e+00, -2.35603968e+00, -3.63093661e+00, 5.61667361e-01, 0.00000000e+00, 5.0000000000, 5.0000000000, 0.0284608000
          36, 0.00000000e+00, 0.00000000e+00, 0.00000000e+00, 0.00000000e+00, 0.00000000e+00, 0.00000000e+00, 0.00000000e+00, 0.00000000e+00, 0.00000000e+00, 0.00000000e+00, 0.00000000e+00, 0.00000000e+00, -4.89843784e+00, -2.35752689e+00, -3.64178240e+00, 5.59202034e-01, 0.00000000e+00, 5.0000000000, 5.0000000000, 0.0292657667
          37, 0.00000000e+00, 0.00000000e+00, 0.00000000e+00, 0.00000000e+00, 0.00000000e+00, 0.00000000e+00, 0.00000000e+00, 0.00000000e+00, 0.00000000e+00, 0.00000000e+00, 0.00000000e+00, 0.00000000e+00, -4.90133039e+00, -2.35832536e+00, -3.66397130e+00, 5.56535669e-01, 0.00000000e+00, 5.0000000000, 5.0000000000, 0.0300856500
          38, 0.00000000e+00, 0.00000000e+00, 0.00000000e+00, 0.00000000e+00, 0.00000000e+00, 0.00000000e+00, 0.00000000e+00, 0.00000000e+00, 0.00000000e+00, 0.00000000e+00, 0.00000000e+00, 0.00000000e+00, -4.90456814e+00, -2.35834156e+00, -3.69060025e+00, 5.53446189e-01, 0.00000000e+00, 5.0000000000, 5.0000000000, 0.0308863167
          39, 0.00000000e+00, 0.00000000e+00, 0.00000000e+00, 0.00000000e+00, 0.00000000e+00, 0.00000000e+00, 0.00000000e+00, 0.00000000e+00, 0.00000000e+00, 0.00000000e+00, 0.00000000e+00, 0.00000000e+00, -4.90837916e+00, -2.35749094e+00, -3.71452582e+00, 5.49702129e-01, 0.00000000e+00, 5.0000000000, 5.0000000000, 0.0317057667
          40, 0.00000000e+00, 0.00000000e+00, 0.00000000e+00, 0.00000000e+00, 0.00000000e+00, 0.00000000e+00, 0.00000000e+00, 0.00000000e+00, 0.00000000e+00, 0.00000000e+00, 0.00000000e+00, 0.00000000e+00, -4.91297755e+00, -2.35571755e+00, -3.73086555e+00, 5.45085671e-01, 0.00000000e+00, 5.0000000000, 5.0000000000, 0.0325450000
          41, 0.00000000e+00, 0.00000000e+00, 0.00000000e+00, 0.00000000e+00, 0.00000000e+00, 0.00000000e+00, 0.00000000e+00, 0.00000000e+00, 0.00000000e+00, 0.00000000e+00, 0.00000000e+00, 0.00000000e+00, -4.91854044e+00, -2.35301679e+00, -3.73873906e+00, 5.39415743e-01, 0.00000000e+00, 5.0000000000, 5.0000000000, 0.0332637333
          42, 0.00000000e+00, 0.00000000e+00, 0.00000000e+00, 0.00000000e+00, 0.00000000e+00, 0.00000000e+00, 0.00000000e+00, 0.00000000e+00, 0.00000000e+00, 0.00000000e+00, 0.00000000e+00, 0.00000000e+00, -4.92518222e+00, -2.34945657e+00, -3.74019773e+00, 5.32574131e-01, 0.00000000e+00, 5.0000000000, 5.0000000000, 0.0340056333
          43, 0.00000000e+00, 0.00000000e+00, 0.00000000e+00, 0.00000000e+00, 0.00000000e+00, 0.00000000e+00, 0.00000000e+00, 0.00000000e+00, 0.00000000e+00, 0.00000000e+00, 0.00000000e+00, 0.00000000e+00, -4.93292420e+00, -2.34519074e+00, -3.73760968e+00, 5.24536566e-01, 0.00000000e+00, 5.0000000000, 5.0000000000, 0.0346973833
          44, 0.00000000e+00, 0.00000000e+00, 0.00000000e+00, 0.00000000e+00, 0.00000000e+00, 0.00000000e+00, 0.00000000e+00, 0.00000000e+00, 0.00000000e+00, 0.00000000e+00, 0.00000000e+00, 0.00000000e+00, -4.94166092e+00, -2.34045995e+00, -3.73219697e+00, 5.15407610e-01, 0.00000000e+00, 5.0000000000, 5.0000000000, 0.0354195000
          45, 0.00000000e+00, 0.00000000e+00, 0.00000000e+00, 0.00000000e+00, 0.00000000e+00, 0.00000000e+00, 0.00000000e+00, 0.00000000e+00, 0.00000000e+00, 0.00000000e+00, 0.00000000e+00, 0.00000000e+00, -4.95112863e+00, -2.33557807e+00, -3.72436570e+00, 5.05454214e-01, 0.00000000e+00, 5.0000000000, 5.0000000000, 0.0361451000
          46, 0.00000000e+00, 0.00000000e+00, 0.00000000e+00, 0.00000000e+00, 0.00000000e+00, 0.00000000e+00, 0.00000000e+00, 0.00000000e+00, 0.00000000e+00, 0.00000000e+00, 0.00000000e+00, 0.00000000e+00, -4.96088532e+00, -2.33090651e+00, -3.71473609e+00, 4.95128370e-01, 0.00000000e+00, 5.0000000000, 5.0000000000, 0.0368873167
          47, 0.00000000e+00, 0.00000000e+00, 0.00000000e+00, 0.00000000e+00, 0.00000000e+00, 0.00000000e+00, 0.00000000e+00, 0.00000000e+00, 0.00000000e+00, 0.00000000e+00, 0.00000000e+00, 0.00000000e+00, -4.97031575e+00, -2.32682183e+00, -3.70471304e+00, 4.85065284e-01, 0.00000000e+00, 5.0000000000, 5.0000000000, 0.0376462667
          48, 0.00000000e+00, 0.00000000e+00, 0.00000000e+00, 0.00000000e+00, 0.00000000e+00, 0.00000000e+00, 0.00000000e+00, 0.00000000e+00, 0.00000000e+00, 0.00000000e+00, 0.00000000e+00, 0.00000000e+00, -4.97867520e+00, -2.32368323e+00, -3.69624157e+00, 4.76041793e-01, 0.00000000e+00, 5.0000000000, 5.0000000000, 0.0384230167
          49, 0.00000000e+00, 0.00000000e+00, 0.00000000e+00, 0.00000000e+00, 0.00000000e+00, 0.00000000e+00, 0.00000000e+00, 0.00000000e+00, 0.00000000e+00, 0.00000000e+00, 0.00000000e+00, 0.00000000e+00, -4.98518025e+00, -2.32180525e+00, -3.69115617e+00, 4.68884920e-01, 0.00000000e+00, 5.0000000000, 5.0000000000, 0.0392368333
          50, 0.00000000e+00, 0.00000000e+00, 0.00000000e+00, 0.00000000e+00, 0.00000000e+00, 0.00000000e+00, 0.00000000e+00, 0.00000000e+00, 0.00000000e+00, 0.00000000e+00, 0.00000000e+00, 0.00000000e+00, -4.98913830e+00, -2.32143894e+00, -3.69065311e+00, 4.64336820e-01, 0.00000000e+00, 5.0000000000, 5.0000000000, 0.0399814000
          51, 0.00000000e+00, 0.00000000e+00, 0.00000000e+00, 0.00000000e+00, 0.00000000e+00, 0.00000000e+00, 0.00000000e+00, 0.00000000e+00, 0.00000000e+00, 0.00000000e+00, 0.00000000e+00, 0.00000000e+00, -4.99008452e+00, -2.32276224e+00, -3.69508501e+00, 4.62907726e-01, 0.00000000e+00, 5.0000000000, 5.0000000000, 0.0407299000
          52, 0.00000000e+00, 0.00000000e+00, 0.00000000e+00, 0.00000000e+00, 0.00000000e+00, 0.00000000e+00, 0.00000000e+00, 0.00000000e+00, 0.00000000e+00, 0.00000000e+00, 0.00000000e+00, 0.00000000e+00, -4.98787857e+00, -2.32587874e+00, -3.70401238e+00, 4.64767985e-01, 0.00000000e+00, 5.0000000000, 5.0000000000, 0.0414651833
          53, 0.00000000e+00, 0.00000000e+00, 0.00000000e+00, 0.00000000e+00, 0.00000000e+00, 0.00000000e+00, 0.00000000e+00, 0.00000000e+00, 0.00000000e+00, 0.00000000e+00, 0.00000000e+00, 0.00000000e+00, -4.98272177e+00, -2.33082341e+00, -3.71639977e+00, 4.69723900e-01, 0.00000000e+00, 5.0000000000, 5.0000000000, 0.0422141000
          54, 0.00000000e+00, 0.00000000e+00, 0.00000000e+00, 0.00000000e+00, 0.00000000e+00, 0.00000000e+00, 0.00000000e+00, 0.00000000e+00, 0.00000000e+00, 0.00000000e+00, 0.00000000e+00, 0.00000000e+00, -4.97508948e+00, -2.33757330e+00, -3.73088522e+00, 4.77286046e-01, 0.00000000e+00, 5.0000000000, 5.0000000000, 0.0429528500
          55, 0.00000000e+00, 0.00000000e+00, 0.00000000e+00, 0.00000000e+00, 0.00000000e+00, 0.00000000e+00, 0.00000000e+00, 0.00000000e+00, 0.00000000e+00, 0.00000000e+00, 0.00000000e+00, 0.00000000e+00, -4.96561084e+00, -2.34606173e+00, -3.74607127e+00, 4.86796689e-01, 0.00000000e+00, 5.0000000000, 5.0000000000, 0.0437109500
          56, 0.00000000e+00, 0.00000000e+00, 0.00000000e+00, 0.00000000e+00, 0.00000000e+00, 0.00000000e+00, 0.00000000e+00, 0.00000000e+00, 0.00000000e+00, 0.00000000e+00, 0.00000000e+00, 0.00000000e+00, -4.95494364e+00, -2.35619407e+00, -3.76077128e+00, 4.97564314e-01, 0.00000000e+00, 5.0000000000, 5.0000000000, 0.0444498833
          57, 0.00000000e+00, 0.00000000e+00, 0.00000000e+00, 0.00000000e+00, 0.00000000e+00, 0.00000000e+00, 0.00000000e+00, 0.00000000e+00, 0.00000000e+00, 0.00000000e+00, 0.00000000e+00, 0.00000000e+00, -4.94368033e+00, -2.36786376e+00, -3.77414508e+00, 5.08965071e-01, 0.00000000e+00, 5.0000000000, 5.0000000000, 0.0451242500
          58, 0.00000000e+00, 0.00000000e+00, 0.00000000e+00, 0.00000000e+00, 0.00000000e+00, 0.00000000e+00, 0.00000000e+00, 0.00000000e+00, 0.00000000e+00, 0.00000000e+00, 0.00000000e+00, 0.00000000e+00, -4.93229841e+00, -2.38096646e+00, -3.78570845e+00, 5.20496461e-01, 0.00000000e+00, 5.0000000000, 5.0000000000, 0.0458360667
          59, 0.00000000e+00, 0.00000000e+00, 0.00000000e+00, 0.00000000e+00, 0.00000000e+00, 0.00000000e+00, 0.00000000e+00, 0.00000000e+00, 0.00000000e+00, 0.00000000e+00, 0.00000000e+00, 0.00000000e+00, -4.92114967e+00, -2.39541053e+00, -3.79527373e+00, 5.31788966e-01, 0.00000000e+00, 5.0000000000, 5.0000000000, 0.0467471333
          60, 0.00000000e+00, 0.00000000e+00, 0.00000000e+00, 0.00000000e+00, 0.00000000e+00, 0.00000000e+00, 0.00000000e+00, 0.00000000e+00, 0.00000000e+00, 0.00000000e+00, 0.00000000e+00, 0.00000000e+00, -4.91047532e+00, -2.41112177e+00, -3.80290297e+00, 5.42589950e-01, 0.00000000e+00, 5.0000000000, 5.0000000000, 0.0476785167
          61, 0.00000000e+00, 0.00000000e+00, 0.00000000e+00, 0.00000000e+00, 0.00000000e+00, 0.00000000e+00, 0.00000000e+00, 0.00000000e+00, 0.00000000e+00, 0.00000000e+00, 0.00000000e+00, 0.00000000e+00, -4.90043388e+00, -2.42804030e+00, -3.80890509e+00, 5.52733917e-01, 0.00000000e+00, 5.0000000000, 5.0000000000, 0.0484997667
          62, 0.00000000e+00, 0.00000000e+00, 0.00000000e+00, 0.00000000e+00, 0.00000000e+00, 0.00000000e+00, 0.00000000e+00, 0.00000000e+00, 0.00000000e+00, 0.00000000e+00, 0.00000000e+00, 0.00000000e+00, -4.89113233e+00, -2.44610822e+00, -3.81383810e+00, 5.62109592e-01, 0.00000000e+00, 5.0000000000, 5.0000000000, 0.0493307833
          63, 0.00000000e+00, 0.00000000e+00, 0.00000000e+00, 0.00000000e+00, 0.00000000e+00, 0.00000000e+00, 0.00000000e+00, 0.00000000e+00, 0.00000000e+00, 0.00000000e+00, 0.00000000e+00, 0.00000000e+00, -4.88265380e+00, -2.46524633e+00, -3.81845622e+00, 5.70630573e-01, 0.00000000e+00, 5.0000000000, 5.0000000000, 0.0500085333
          64, 0.00000000e+00, 0.00000000e+00, 0.00000000e+00, 0.00000000e+00, 0.00000000e+00, 0.00000000e+00, 0.00000000e+00, 0.00000000e+00, 0.00000000e+00, 0.00000000e+00, 0.00000000e+00, 0.00000000e+00, -4.87507869e+00, -2.48531873e+00, -3.82358267e+00, 5.78213063e-01, 0.00000000e+00, 5.0000000000, 5.0000000000, 0.0507645833
          65, 0.00000000e+00, 0.00000000e+00, 0.00000000e+00, 0.00000000e+00, 0.00000000e+00, 0.00000000e+00, 0.00000000e+00, 0.00000000e+00, 0.00000000e+00, 0.00000000e+00, 0.00000000e+00, 0.00000000e+00, -4.86849796e+00, -2.50608565e+00, -3.82994272e+00, 5.84761730e-01, 0.00000000e+00, 5.0000000000, 5.0000000000, 0.0515409667
          66, 0.00000000e+00, 0.00000000e+00, 0.00000000e+00, 0.00000000e+00, 0.00000000e+00, 0.00000000e+00, 0.00000000e+00, 0.00000000e+00, 0.00000000e+00, 0.00000000e+00, 0.00000000e+00, 0.00000000e+00, -4.86301910e+00, -2.52714661e+00, -3.83801272e+00, 5.90163347e-01, 0.00000000e+00, 5.0000000000, 5.0000000000, 0.0522827500
          67, 0.00000000e+00, 0.00000000e+00, 0.00000000e+00, 0.00000000e+00, 0.00000000e+00, 0.00000000e+00, 0.00000000e+00, 0.00000000e+00, 0.00000000e+00, 0.00000000e+00, 0.00000000e+00, 0.00000000e+00, -4.85876566e+00, -2.54788174e+00, -3.84792643e+00, 5.94287030e-01, 0.00000000e+00, 5.0000000000, 5.0000000000, 0.0530472833
          68, 0.00000000e+00, 0.00000000e+00, 0.00000000e+00, 0.00000000e+00, 0.00000000e+00, 0.00000000e+00, 0.00000000e+00, 0.00000000e+00, 0.00000000e+00, 0.00000000e+00, 0.00000000e+00, 0.00000000e+00, -4.85587210e+00, -2.56740808e+00, -3.85945480e+00, 5.96989356e-01, 0.00000000e+00, 5.0000000000, 5.0000000000, 0.0538568333
          69, 0.00000000e+00, 0.00000000e+00, 0.00000000e+00, 0.00000000e+00, 0.00000000e+00, 0.00000000e+00, 0.00000000e+00, 0.00000000e+00, 0.00000000e+00, 0.00000000e+00, 0.00000000e+00, 0.00000000e+00, -4.85447564e+00, -2.58458203e+00, -3.87205802e+00, 5.98122479e-01, 0.00000000e+00, 5.0000000000, 5.0000000000, 0.0545680333
          70, 0.00000000e+00, 0.00000000e+00, 0.00000000e+00, 0.00000000e+00, 0.00000000e+00, 0.00000000e+00, 0.00000000e+00, 0.00000000e+00, 0.00000000e+00, 0.00000000e+00, 0.00000000e+00, 0.00000000e+00, -4.85470689e+00, -2.59808918e+00, -3.88499955e+00, 5.97543537e-01, 0.00000000e+00, 5.0000000000, 5.0000000000, 0.0553109833
          71, 0.00000000e+00, 0.00000000e+00, 0.00000000e+00, 0.00000000e+00, 0.00000000e+00, 0.00000000e+00, 0.00000000e+00, 0.00000000e+00, 0.00000000e+00, 0.00000000e+00, 0.00000000e+00, 0.00000000e+00, -4.85668030e+00, -2.60665050e+00, -3.89750132e+00, 5.95124112e-01, 0.00000000e+00, 5.0000000000, 5.0000000000, 0.0560509833
          72, 0.00000000e+00, 0.00000000e+00, 0.00000000e+00, 0.00000000e+00, 0.00000000e+00, 0.00000000e+00, 0.00000000e+00, 0.00000000e+00, 0.00000000e+00, 0.00000000e+00, 0.00000000e+00, 0.00000000e+00, -4.86048519e+00, -2.60931951e+00, -3.90890382e+00, 5.90759032e-01, 0.00000000e+00, 5.0000000000, 5.0000000000, 0.0567992833
          73, 0.00000000e+00, 0.00000000e+00, 0.00000000e+00, 0.00000000e+00, 0.00000000e+00, 0.00000000e+00, 0.00000000e+00, 0.00000000e+00, 0.00000000e+00, 0.00000000e+00, 0.00000000e+00, 0.00000000e+00, -4.86617763e+00, -2.60576283e+00, -3.91878458e+00, 5.84374282e-01, 0.00000000e+00, 5.0000000000, 5.0000000000, 0.0574997500
          74, 0.00000000e+00, 0.00000000e+00, 0.00000000e+00, 0.00000000e+00, 0.00000000e+00, 0.00000000e+00, 0.00000000e+00, 0.00000000e+00, 0.00000000e+00, 0.00000000e+00, 0.00000000e+00, 0.00000000e+00, -4.87377318e+00, -2.59638024e+00, -3.92699947e+00, 5.75934130e-01, 0.00000000e+00, 5.0000000000, 5.0000000000, 0.0582396167
          75, 0.00000000e+00, 0.00000000e+00, 0.00000000e+00, 0.00000000e+00, 0.00000000e+00, 0.00000000e+00, 0.00000000e+00, 0.00000000e+00, 0.00000000e+00, 0.00000000e+00, 0.00000000e+00, 0.00000000e+00, -4.88324009e+00, -2.58219365e+00, -3.93364336e+00, 5.65447718e-01, 0.00000000e+00, 5.0000000000, 5.0000000000, 0.0589646000
          76, 0.00000000e+00, 0.00000000e+00, 0.00000000e+00, 0.00000000e+00, 0.00000000e+00, 0.00000000e+00, 0.00000000e+00, 0.00000000e+00, 0.00000000e+00, 0.00000000e+00, 0.00000000e+00, 0.00000000e+00, -4.89449302e+00, -2.56457220e+00, -3.93896135e+00, 5.52975402e-01, 0.00000000e+00, 5.0000000000, 5.0000000000, 0.0597077167
          77, 0.00000000e+00, 0.00000000e+00, 0.00000000e+00, 0.00000000e+00, 0.00000000e+00, 0.00000000e+00, 0.00000000e+00, 0.00000000e+00, 0.00000000e+00, 0.00000000e+00, 0.00000000e+00, 0.00000000e+00, -4.90738728e+00, -2.54493648e+00, -3.94325443e+00, 5.38634929e-01, 0.00000000e+00, 5.0000000000, 5.0000000000, 0.0604468000
          78, 0.00000000e+00, 0.00000000e+00, 0.00000000e+00, 0.00000000e+00, 0.00000000e+00, 0.00000000e+00, 0.00000000e+00, 0.00000000e+00, 0.00000000e+00, 0.00000000e+00, 0.00000000e+00, 0.00000000e+00, -4.92171386e+00, -2.52455008e+00, -3.94681173e+00, 5.22607277e-01, 0.00000000e+00, 5.0000000000, 5.0000000000, 0.0611362833
          79, 0.00000000e+00, 0.00000000e+00, 0.00000000e+00, 0.00000000e+00, 0.00000000e+00, 0.00000000e+00, 0.00000000e+00, 0.00000000e+00, 0.00000000e+00, 0.00000000e+00, 0.00000000e+00, 0.00000000e+00, -4.93719628e+00, -2.50442516e+00, -3.94987834e+00, 5.05141509e-01, 0.00000000e+00, 5.0000000000, 5.0000000000, 0.0618170333
          80, 0.00000000e+00, 0.00000000e+00, 0.00000000e+00, 0.00000000e+00, 0.00000000e+00, 0.00000000e+00, 0.00000000e+00, 0.00000000e+00, 0.00000000e+00, 0.00000000e+00, 0.00000000e+00, 0.00000000e+00, -4.95349058e+00, -2.48531341e+00, -3.95265087e+00, 4.86557513e-01, 0.00000000e+00, 5.0000000000, 5.0000000000, 0.0625105500
          81, 0.00000000e+00, 0.00000000e+00, 0.00000000e+00, 0.00000000e+00, 0.00000000e+00, 0.00000000e+00, 0.00000000e+00, 0.00000000e+00, 0.00000000e+00, 0.00000000e+00, 0.00000000e+00, 0.00000000e+00, -4.97019029e+00, -2.46774115e+00, -3.95528642e+00, 4.67244890e-01, 0.00000000e+00, 5.0000000000, 5.0000000000, 0.0632313333
          82, 0.00000000e+00, 0.00000000e+00, 0.00000000e+00, 0.00000000e+00, 0.00000000e+00, 0.00000000e+00, 0.00000000e+00, 0.00000000e+00, 0.00000000e+00, 0.00000000e+00, 0.00000000e+00, 0.00000000e+00, -4.98683841e+00, -2.45205790e+00, -3.95791344e+00, 4.47655899e-01, 0.00000000e+00, 5.0000000000, 5.0000000000, 0.0639530333
          83, 0.00000000e+00, 0.00000000e+00, 0.00000000e+00, 0.00000000e+00, 0.00000000e+00, 0.00000000e+00, 0.00000000e+00, 0.00000000e+00, 0.00000000e+00, 0.00000000e+00, 0.00000000e+00, 0.00000000e+00, -5.00294785e+00, -2.43848208e+00, -3.96063800e+00, 4.28290427e-01, 0.00000000e+00, 5.0000000000, 5.0000000000, 0.0646787333
          84, 0.00000000e+00, 0.00000000e+00, 0.00000000e+00, 0.00000000e+00, 0.00000000e+00, 0.00000000e+00, 0.00000000e+00, 0.00000000e+00, 0.00000000e+00, 0.00000000e+00, 0.00000000e+00, 0.00000000e+00, -5.01803047e+00, -2.42713762e+00, -3.96354442e+00, 4.09671794e-01, 0.00000000e+00, 5.0000000000, 5.0000000000, 0.0654424333
          85, 0.00000000e+00, 0.00000000e+00, 0.00000000e+00, 0.00000000e+00, 0.00000000e+00, 0.00000000e+00, 0.00000000e+00, 0.00000000e+00, 0.00000000e+00, 0.00000000e+00, 0.00000000e+00, 0.00000000e+00, -5.03163237e+00, -2.41808075e+00, -3.96669172e+00, 3.92314094e-01, 0.00000000e+00, 5.0000000000, 5.0000000000, 0.0661579500
          86, 0.00000000e+00, 0.00000000e+00, 0.00000000e+00, 0.00000000e+00, 0.00000000e+00, 0.00000000e+00, 0.00000000e+00, 0.00000000e+00, 0.00000000e+00, 0.00000000e+00, 0.00000000e+00, 0.00000000e+00, -5.04337060e+00, -2.41131831e+00, -3.97010898e+00, 3.76684456e-01, 0.00000000e+00, 5.0000000000, 5.0000000000, 0.0668506333
          87, 0.00000000e+00, 0.00000000e+00, 0.00000000e+00, 0.00000000e+00, 0.00000000e+00, 0.00000000e+00, 0.00000000e+00, 0.00000000e+00, 0.00000000e+00, 0.00000000e+00, 0.00000000e+00, 0.00000000e+00, -5.05296453e+00, -2.40681970e+00, -3.97379236e+00, 3.63166164e-01, 0.00000000e+00, 5.0000000000, 5.0000000000, 0.0675786500
          88, 0.00000000e+00, 0.00000000e+00, 0.00000000e+00, 0.00000000e+00, 0.00000000e+00, 0.00000000e+00, 0.00000000e+00, 0.00000000e+00, 0.00000000e+00, 0.00000000e+00, 0.00000000e+00, 0.00000000e+00, -5.06025532e+00, -2.40452415e+00, -3.97770610e+00, 3.52029753e-01, 0.00000000e+00, 5.0000000000, 5.0000000000, 0.0683008500
          89, 0.00000000e+00, 0.00000000e+00, 0.00000000e+00, 0.00000000e+00, 0.00000000e+00, 0.00000000e+00, 0.00000000e+00, 0.00000000e+00, 0.00000000e+00, 0.00000000e+00, 0.00000000e+00, 0.00000000e+00, -5.06520974e+00, -2.40434479e+00, -3.98178840e+00, 3.43417840e-01, 0.00000000e+00, 5.0000000000, 5.0000000000, 0.0690673500