TITLE = "SU2 Simulation"
VARIABLES = "Iteration","CL","CD","CSF","CMx","CMy","CMz","CFx","CFy","CFz","CL/CD","AoA","Custom_ObjFunc","Res_Flow[0]","Res_Flow[1]","Res_Flow[2]","Res_Flow[3]","Res_Flow[4]","Linear_Solver_Iterations","CFL_Number","Time(min)"
ZONE T= "Convergence history"
           0, 0.00000000e+00, 0.00000000e+00, 0.00000000e+00, 0.00000000e+00, 0.00000000e+00, 0.00000000e+00, 0.00000000e+00, 0.00000000e+00, 0.00000000e+00, 0.00000000e+00, 0.00000000e+00, 0.00000000e+00, -1.61537237e+01, -1.27131162e+01, -1.27747334e+01, -1.06183222e+01, 0.00000000e+00, 5.0000000000, 5.0000000000, 0.0007602500
           1, 0.00000000e+00, 0.00000000e+00, 0.00000000e+00, 0.00000000e+00, 0.00000000e+00, 0.00000000e+00, 0.00000000e+00, 0.00000000e+00, 0.00000000e+00, 0.00000000e+00, 0.00000000e+00, 0.00000000e+00, -1.55947950e+01, -1.24029103e+01, -3.31168508e-01, -1.01367845e+01, 0.00000000e+00, 5.0000000000, 5.0000000000, 0.0014113500
           2, 0.00000000e+00, 0.00000000e+00, 0.00000000e+00, 0.00000000e+00, 0.00000000e+00, 0.00000000e+00, 0.00000000e+00, 0.00000000e+00, 0.00000000e+00, 0.00000000e+00, 0.00000000e+00, 0.00000000e+00, -4.43743346e+00, -2.64976542e+00, -3.41946397e-01, 1.01214121e+00, 0.00000000e+00, 5.0000000000, 5.0000000000, 0.0020806833
           3, 0.00000000e+00, 0.00000000e+00, 0.00000000e+00, 0.00000000e+00, 0.00000000e+00, 0.00000000e+00, 0.00000000e+00, 0.00000000e+00, 0.00000000e+00, 0.00000000e+00, 0.00000000e+00, 0.00000000e+00, -4.37255708e+00, -2.41108450e+00, -3.52467621e-01, 1.07182440e+00, 0.00000000e+00, 5.0000000000, 5.0000000000, 0.0027707333
           4, 0.00000000e+00, 0.00000000e+00, 0.00000000e+00, 0.00000000e+00, 0.00000000e+00, 0.00000000e+00, 0.00000000e+00, 0.00000000e+00, 0.00000000e+00, 0.00000000e+00, 0.00000000e+00, 0.00000000e+00, -4.47619973e+00, -2.31346095e+00, -3.62821704e-01, 9.63777855e-01, 0.00000000e+00, 5.0000000000, 5.0000000000, 0.0034734333
           5, 0.00000000e+00, 0.00000000e+00, 0.00000000e+00, 0.00000000e+00, 0.00000000e+00, 0.00000000e+00, 0.00000000e+00, 0.00000000e+00, 0.00000000e+00, 0.00000000e+00, 0.00000000e+00, 0.00000000e+00, -4.64554255e+00, -2.27005443e+00, -3.73248777e-01, 7.96683529e-01, 0.00000000e+00, 5.0000000000, 5.0000000000, 0.0041737333
           6, 0.00000000e+00, 0.00000000e+00, 0.00000000e+00, 0.00000000e+00, 0.00000000e+00, 0.00000000e+00, 0.00000000e+00, 0.00000000e+00, 0.00000000e+00, 0.00000000e+00, 0.00000000e+00, 0.00000000e+00, -4.79924029e+00, -2.24815196e+00, -3.83792389e-01, 6.58602660e-01, 0.00000000e+00, 5.0000000000, 5.0000000000, 0.0049958333
           7, 0.00000000e+00, 0.00000000e+00, 0.00000000e+00, 0.00000000e+00, 0.00000000e+00, 0.00000000e+00, 0.00000000e+00, 0.00000000e+00, 0.00000000e+00, 0.00000000e+00, 0.00000000e+00, 0.00000000e+00, -4.91574109e+00, -2.23365141e+00, -3.94396174e-01, 5.58054749e-01, 0.00000000e+00, 5.0000000000, 5.0000000000, 0.0058029500
           8, 0.00000000e+00, 0.00000000e+00, 0.00000000e+00, 0.00000000e+00, 0.00000000e+00, 0.00000000e+00, 0.00000000e+00, 0.00000000e+00, 0.00000000e+00, 0.00000000e+00, 0.00000000e+00, 0.00000000e+00, -5.02214133e+00, -2.22117227e+00, -4.05011533e-01, 4.58977857e-01, 0.00000000e+00, 5.0000000000, 5.0000000000, 0.0065949000
           9, 0.00000000e+00, 0.00000000e+00, 0.00000000e+00, 0.00000000e+00, 0.00000000e+00, 0.00000000e+00, 0.00000000e+00, 0.00000000e+00, 0.00000000e+00, 0.00000000e+00, 0.00000000e+00, 0.00000000e+00, -5.05218758e+00, -2.20887929e+00, -4.15619652e-01, 4.23965789e-01, 0.00000000e+00, 5.0000000000, 5.0000000000, 0.0073676167
          10, 0.00000000e+00, 0.00000000e+00, 0.00000000e+00, 0.00000000e+00, 0.00000000e+00, 0.00000000e+00, 0.00000000e+00, 0.00000000e+00, 0.00000000e+00, 0.00000000e+00, 0.00000000e+00, 0.00000000e+00, -4.98476580e+00, -2.19647586e+00, -4.26214285e-01, 4.82867209e-01, 0.00000000e+00, 5.0000000000, 5.0000000000, 0.0081512000
          11, 0.00000000e+00, 0.00000000e+00, 0.00000000e+00, 0.00000000e+00, 0.00000000e+00, 0.00000000e+00, 0.00000000e+00, 0.00000000e+00, 0.00000000e+00, 0.00000000e+00, 0.00000000e+00, 0.00000000e+00, -4.92312197e+00, -2.18447477e+00, -4.36812437e-01, 5.41083383e-01, 0.00000000e+00, 5.0000000000, 5.0000000000, 0.0089309000
          12, 0.00000000e+00, 0.00000000e+00, 0.00000000e+00, 0.00000000e+00, 0.00000000e+00, 0.00000000e+00, 0.00000000e+00, 0.00000000e+00, 0.00000000e+00, 0.00000000e+00, 0.00000000e+00, 0.00000000e+00, -4.90739711e+00, -2.17353930e+00, -4.47421366e-01, 5.55842206e-01, 0.00000000e+00, 5.0000000000, 5.0000000000, 0.0097190333
          13, 0.00000000e+00, 0.00000000e+00, 0.00000000e+00, 0.00000000e+00, 0.00000000e+00, 0.00000000e+00, 0.00000000e+00, 0.00000000e+00, 0.00000000e+00, 0.00000000e+00, 0.00000000e+00, 0.00000000e+00, -4.93686903e+00, -2.16404858e+00, -4.58039396e-01, 5.26223290e-01, 0.00000000e+00, 5.0000000000, 5.0000000000, 0.0105165167
          14, 0.00000000e+00, 0.00000000e+00, 0.00000000e+00, 0.00000000e+00, 0.00000000e+00, 0.00000000e+00, 0.00000000e+00, 0.00000000e+00, 0.00000000e+00, 0.00000000e+00, 0.00000000e+00, 0.00000000e+00, -5.00102954e+00, -2.15606054e+00, -4.68665958e-01, 4.62211901e-01, 0.00000000e+00, 5.0000000000, 5.0000000000, 0.0113105000
          15, 0.00000000e+00, 0.00000000e+00, 0.00000000e+00, 0.00000000e+00, 0.00000000e+00, 0.00000000e+00, 0.00000000e+00, 0.00000000e+00, 0.00000000e+00, 0.00000000e+00, 0.00000000e+00, 0.00000000e+00, -5.07848928e+00, -2.14951860e+00, -4.79302406e-01, 3.84863171e-01, 0.00000000e+00, 5.0000000000, 5.0000000000, 0.0120798167
          16, 0.00000000e+00, 0.00000000e+00, 0.00000000e+00, 0.00000000e+00, 0.00000000e+00, 0.00000000e+00, 0.00000000e+00, 0.00000000e+00, 0.00000000e+00, 0.00000000e+00, 0.00000000e+00, 0.00000000e+00, -5.13112936e+00, -2.14443317e+00, -4.89953173e-01, 3.31821243e-01, 0.00000000e+00, 5.0000000000, 5.0000000000, 0.0128705500
          17, 0.00000000e+00, 0.00000000e+00, 0.00000000e+00, 0.00000000e+00, 0.00000000e+00, 0.00000000e+00, 0.00000000e+00, 0.00000000e+00, 0.00000000e+00, 0.00000000e+00, 0.00000000e+00, 0.00000000e+00, -5.13226942e+00, -2.14092237e+00, -5.00624999e-01, 3.29769264e-01, 0.00000000e+00, 5.0000000000, 5.0000000000, 0.0136566167
          18, 0.00000000e+00, 0.00000000e+00, 0.00000000e+00, 0.00000000e+00, 0.00000000e+00, 0.00000000e+00, 0.00000000e+00, 0.00000000e+00, 0.00000000e+00, 0.00000000e+00, 0.00000000e+00, 0.00000000e+00, -5.10215116e+00, -2.13915520e+00, -5.11317116e-01, 3.59114274e-01, 0.00000000e+00, 5.0000000000, 5.0000000000, 0.0144486667
          19, 0.00000000e+00, 0.00000000e+00, 0.00000000e+00, 0.00000000e+00, 0.00000000e+00, 0.00000000e+00, 0.00000000e+00, 0.00000000e+00, 0.00000000e+00, 0.00000000e+00, 0.00000000e+00, 0.00000000e+00, -5.07103122e+00, -2.13926995e+00, -5.22020883e-01, 3.89818323e-01, 0.00000000e+00, 5.0000000000, 5.0000000000, 0.0152131833
          20, 0.00000000e+00, 0.00000000e+00, 0.00000000e+00, 0.00000000e+00, 0.00000000e+00, 0.00000000e+00, 0.00000000e+00, 0.00000000e+00, 0.00000000e+00, 0.00000000e+00, 0.00000000e+00, 0.00000000e+00, -5.04974711e+00, -2.14132171e+00, -5.32729809e-01, 4.10950100e-01, 0.00000000e+00, 5.0000000000, 5.0000000000, 0.0160205833
          21, 0.00000000e+00, 0.00000000e+00, 0.00000000e+00, 0.00000000e+00, 0.00000000e+00, 0.00000000e+00, 0.00000000e+00, 0.00000000e+00, 0.00000000e+00, 0.00000000e+00, 0.00000000e+00, 0.00000000e+00, -5.03604933e+00, -2.14527643e+00, -5.43441605e-01, 4.24686364e-01, 0.00000000e+00, 5.0000000000, 5.0000000000, 0.0167824500
          22, 0.00000000e+00, 0.00000000e+00, 0.00000000e+00, 0.00000000e+00, 0.00000000e+00, 0.00000000e+00, 0.00000000e+00, 0.00000000e+00, 0.00000000e+00, 0.00000000e+00, 0.00000000e+00, 0.00000000e+00, -5.02367882e+00, -2.15103417e+00, -5.54156049e-01, 4.37241808e-01, 0.00000000e+00, 5.0000000000, 5.0000000000, 0.0175581000
          23, 0.00000000e+00, 0.00000000e+00, 0.00000000e+00, 0.00000000e+00, 0.00000000e+00, 0.00000000e+00, 0.00000000e+00, 0.00000000e+00, 0.00000000e+00, 0.00000000e+00, 0.00000000e+00, 0.00000000e+00, -5.00805410e+00, -2.15846231e+00, -5.64873354e-01, 4.53129834e-01, 0.00000000e+00, 5.0000000000, 5.0000000000, 0.0184691833
          24, 0.00000000e+00, 0.00000000e+00, 0.00000000e+00, 0.00000000e+00, 0.00000000e+00, 0.00000000e+00, 0.00000000e+00, 0.00000000e+00, 0.00000000e+00, 0.00000000e+00, 0.00000000e+00, 0.00000000e+00, -4.98888212e+00, -2.16742528e+00, -5.75593588e-01, 4.72557035e-01, 0.00000000e+00, 5.0000000000, 5.0000000000, 0.0192519000
          25, 0.00000000e+00, 0.00000000e+00, 0.00000000e+00, 0.00000000e+00, 0.00000000e+00, 0.00000000e+00, 0.00000000e+00, 0.00000000e+00, 0.00000000e+00, 0.00000000e+00, 0.00000000e+00, 0.00000000e+00, -4.96906108e+00, -2.17780216e+00, -5.86316547e-01, 4.92566478e-01, 0.00000000e+00, 5.0000000000, 5.0000000000, 0.0201073167
          26, 0.00000000e+00, 0.00000000e+00, 0.00000000e+00, 0.00000000e+00, 0.00000000e+00, 0.00000000e+00, 0.00000000e+00, 0.00000000e+00, 0.00000000e+00, 0.00000000e+00, 0.00000000e+00, 0.00000000e+00, -4.95187532e+00, -2.18949103e+00, -5.97041680e-01, 5.09860467e-01, 0.00000000e+00, 5.0000000000, 5.0000000000, 0.0209744000
          27, 0.00000000e+00, 0.00000000e+00, 0.00000000e+00, 0.00000000e+00, 0.00000000e+00, 0.00000000e+00, 0.00000000e+00, 0.00000000e+00, 0.00000000e+00, 0.00000000e+00, 0.00000000e+00, 0.00000000e+00, -4.93922576e+00, -2.20240476e+00, -6.07768110e-01, 5.22551981e-01, 0.00000000e+00, 5.0000000000, 5.0000000000, 0.0219290333
          28, 0.00000000e+00, 0.00000000e+00, 0.00000000e+00, 0.00000000e+00, 0.00000000e+00, 0.00000000e+00, 0.00000000e+00, 0.00000000e+00, 0.00000000e+00, 0.00000000e+00, 0.00000000e+00, 0.00000000e+00, -4.93140874e+00, -2.21646564e+00, -6.18494816e-01, 5.30365506e-01, 0.00000000e+00, 5.0000000000, 5.0000000000, 0.0227964833
          29, 0.00000000e+00, 0.00000000e+00, 0.00000000e+00, 0.00000000e+00, 0.00000000e+00, 0.00000000e+00, 0.00000000e+00, 0.00000000e+00, 0.00000000e+00, 0.00000000e+00, 0.00000000e+00, 0.00000000e+00, -4.92766014e+00, -2.23160339e+00, -6.29220830e-01, 5.34083818e-01, 0.00000000e+00, 5.0000000000, 5.0000000000, 0.0236317167
          30, 0.00000000e+00, 0.00000000e+00, 0.00000000e+00, 0.00000000e+00, 0.00000000e+00, 0.00000000e+00, 0.00000000e+00, 0.00000000e+00, 0.00000000e+00, 0.00000000e+00, 0.00000000e+00, 0.00000000e+00, -4.92683589e+00, -2.24775737e+00, -6.39945334e-01, 5.34865686e-01, 0.00000000e+00, 5.0000000000, 5.0000000000, 0.0244711500
          31, 0.00000000e+00, 0.00000000e+00, 0.00000000e+00, 0.00000000e+00, 0.00000000e+00, 0.00000000e+00, 0.00000000e+00, 0.00000000e+00, 0.00000000e+00, 0.00000000e+00, 0.00000000e+00, 0.00000000e+00, -4.92795197e+00, -2.26488012e+00, -6.50667660e-01, 5.33706334e-01, 0.00000000e+00, 5.0000000000, 5.0000000000, 0.0253096500
          32, 0.00000000e+00, 0.00000000e+00, 0.00000000e+00, 0.00000000e+00, 0.00000000e+00, 0.00000000e+00, 0.00000000e+00, 0.00000000e+00, 0.00000000e+00, 0.00000000e+00, 0.00000000e+00, 0.00000000e+00, -4.93046725e+00, -2.28293959e+00, -6.61387266e-01, 5.31155181e-01, 0.00000000e+00, 5.0000000000, 5.0000000000, 0.0260940333
          33, 0.00000000e+00, 0.00000000e+00, 0.00000000e+00, 0.00000000e+00, 0.00000000e+00, 0.00000000e+00, 0.00000000e+00, 0.00000000e+00, 0.00000000e+00, 0.00000000e+00, 0.00000000e+00, 0.00000000e+00, -4.93429222e+00, -2.30191809e+00, -6.72103747e-01, 5.27307600e-01, 0.00000000e+00, 5.0000000000, 5.0000000000, 0.0269394333
          34, 0.00000000e+00, 0.00000000e+00, 0.00000000e+00, 0.00000000e+00, 0.00000000e+00, 0.00000000e+00, 0.00000000e+00, 0.00000000e+00, 0.00000000e+00, 0.00000000e+00, 0.00000000e+00, 0.00000000e+00, -4.93961368e+00, -2.32180817e+00, -6.82816862e-01, 5.21980667e-01, 0.00000000e+00, 5.0000000000, 5.0000000000, 0.0276827833
          35, 0.00000000e+00, 0.00000000e+00, 0.00000000e+00, 0.00000000e+00, 0.00000000e+00, 0.00000000e+00, 0.00000000e+00, 0.00000000e+00, 0.00000000e+00, 0.00000000e+00, 0.00000000e+00, 0.00000000e+00, -4.94668154e+00, -2.34260658e+00, -6.93526557e-01, 5.14926785e-01, 0.00000000e+00, 5.0000000000, 5.0000000000, 0.0284608000
          36, 0.00000000e+00, 0.00000000e+00, 0.00000000e+00, 0.00000000e+00, 0.00000000e+00, 0.00000000e+00, 0.00000000e+00, 0.00000000e+00, 0.00000000e+00, 0.00000000e+00, 0.00000000e+00, 0.00000000e+00, -4.95566960e+00, -2.36430742e+00, -7.04232932e-01, 5.05973331e-01, 0.00000000e+00, 5.0000000000, 5.0000000000, 0.0292657667
          37, 0.00000000e+00, 0.00000000e+00, 0.00000000e+00, 0.00000000e+00, 0.00000000e+00, 0.00000000e+00, 0.00000000e+00, 0.00000000e+00, 0.00000000e+00, 0.00000000e+00, 0.00000000e+00, 0.00000000e+00, -4.96664216e+00, -2.38689517e+00, -7.14936166e-01, 4.95056373e-01, 0.00000000e+00, 5.0000000000, 5.0000000000, 0.0300856500
          38, 0.00000000e+00, 0.00000000e+00, 0.00000000e+00, 0.00000000e+00, 0.00000000e+00, 0.00000000e+00, 0.00000000e+00, 0.00000000e+00, 0.00000000e+00, 0.00000000e+00, 0.00000000e+00, 0.00000000e+00, -4.97959620e+00, -2.41033708e+00, -7.25636417e-01, 4.82179023e-01, 0.00000000e+00, 5.0000000000, 5.0000000000, 0.0308863167
          39, 0.00000000e+00, 0.00000000e+00, 0.00000000e+00, 0.00000000e+00, 0.00000000e+00, 0.00000000e+00, 0.00000000e+00, 0.00000000e+00, 0.00000000e+00, 0.00000000e+00, 0.00000000e+00, 0.00000000e+00, -4.99452697e+00, -2.43457457e+00, -7.36333733e-01, 4.67346615e-01, 0.00000000e+00, 5.0000000000, 5.0000000000, 0.0317057667
          40, 0.00000000e+00, 0.00000000e+00, 0.00000000e+00, 0.00000000e+00, 0.00000000e+00, 0.00000000e+00, 0.00000000e+00, 0.00000000e+00, 0.00000000e+00, 0.00000000e+00, 0.00000000e+00, 0.00000000e+00, -5.01147520e+00, -2.45951311e+00, -7.47028023e-01, 4.50520641e-01, 0.00000000e+00, 5.0000000000, 5.0000000000, 0.0325450000
          41, 0.00000000e+00, 0.00000000e+00, 0.00000000e+00, 0.00000000e+00, 0.00000000e+00, 0.00000000e+00, 0.00000000e+00, 0.00000000e+00, 0.00000000e+00, 0.00000000e+00, 0.00000000e+00, 0.00000000e+00, -5.03053794e+00, -2.48501090e+00, -7.57719061e-01, 4.31608991e-01, 0.00000000e+00, 5.0000000000, 5.0000000000, 0.0332637333
          42, 0.00000000e+00, 0.00000000e+00, 0.00000000e+00, 0.00000000e+00, 0.00000000e+00, 0.00000000e+00, 0.00000000e+00, 0.00000000e+00, 0.00000000e+00, 0.00000000e+00, 0.00000000e+00, 0.00000000e+00, -5.05184895e+00, -2.51086754e+00, -7.68406540e-01, 4.10486588e-01, 0.00000000e+00, 5.0000000000, 5.0000000000, 0.0340056333
          43, 0.00000000e+00, 0.00000000e+00, 0.00000000e+00, 0.00000000e+00, 0.00000000e+00, 0.00000000e+00, 0.00000000e+00, 0.00000000e+00, 0.00000000e+00, 0.00000000e+00, 0.00000000e+00, 0.00000000e+00, -5.07554686e+00, -2.53681455e+00, -7.79090137e-01, 3.87028031e-01, 0.00000000e+00, 5.0000000000, 5.0000000000, 0.0346973833
          44, 0.00000000e+00, 0.00000000e+00, 0.00000000e+00, 0.00000000e+00, 0.00000000e+00, 0.00000000e+00, 0.00000000e+00, 0.00000000e+00, 0.00000000e+00, 0.00000000e+00, 0.00000000e+00, 0.00000000e+00, -5.10174947e+00, -2.56251000e+00, -7.89769581e-01, 3.61134019e-01, 0.00000000e+00, 5.0000000000, 5.0000000000, 0.0354195000
          45, 0.00000000e+00, 0.00000000e+00, 0.00000000e+00, 0.00000000e+00, 0.00000000e+00, 0.00000000e+00, 0.00000000e+00, 0.00000000e+00, 0.00000000e+00, 0.00000000e+00, 0.00000000e+00, 0.00000000e+00, -5.13054445e+00, -2.58753995e+00, -8.00444697e-01, 3.32741575e-01, 0.00000000e+00, 5.0000000000, 5.0000000000, 0.0361451000
          46, 0.00000000e+00, 0.00000000e+00, 0.00000000e+00, 0.00000000e+00, 0.00000000e+00, 0.00000000e+00, 0.00000000e+00, 0.00000000e+00, 0.00000000e+00, 0.00000000e+00, 0.00000000e+00, 0.00000000e+00, -5.16199740e+00, -2.61142892e+00, -8.11115436e-01, 3.01817564e-01, 0.00000000e+00, 5.0000000000, 5.0000000000, 0.0368873167
          47, 0.00000000e+00, 0.00000000e+00, 0.00000000e+00, 0.00000000e+00, 0.00000000e+00, 0.00000000e+00, 0.00000000e+00, 0.00000000e+00, 0.00000000e+00, 0.00000000e+00, 0.00000000e+00, 0.00000000e+00, -5.19617141e+00, -2.63366174e+00, -8.21781881e-01, 2.68341436e-01, 0.00000000e+00, 5.0000000000, 5.0000000000, 0.0376462667
          48, 0.00000000e+00, 0.00000000e+00, 0.00000000e+00, 0.00000000e+00, 0.00000000e+00, 0.00000000e+00, 0.00000000e+00, 0.00000000e+00, 0.00000000e+00, 0.00000000e+00, 0.00000000e+00, 0.00000000e+00, -5.23315058e+00, -2.65371719e+00, -8.32444228e-01, 2.32285329e-01, 0.00000000e+00, 5.0000000000, 5.0000000000, 0.0384230167
          49, 0.00000000e+00, 0.00000000e+00, 0.00000000e+00, 0.00000000e+00, 0.00000000e+00, 0.00000000e+00, 0.00000000e+00, 0.00000000e+00, 0.00000000e+00, 0.00000000e+00, 0.00000000e+00, 0.00000000e+00, -5.27306096e+00, -2.67111264e+00, -8.43102763e-01, 1.93598414e-01, 0.00000000e+00, 5.0000000000, 5.0000000000, 0.0392368333
          50, 0.00000000e+00, 0.00000000e+00, 0.00000000e+00, 0.00000000e+00, 0.00000000e+00, 0.00000000e+00, 0.00000000e+00, 0.00000000e+00, 0.00000000e+00, 0.00000000e+00, 0.00000000e+00, 0.00000000e+00, -5.31608472e+00, -2.68545423e+00, -8.53757817e-01, 1.52200324e-01, 0.00000000e+00, 5.0000000000, 5.0000000000, 0.0399814000
          51, 0.00000000e+00, 0.00000000e+00, 0.00000000e+00, 0.00000000e+00, 0.00000000e+00, 0.00000000e+00, 0.00000000e+00, 0.00000000e+00, 0.00000000e+00, 0.00000000e+00, 0.00000000e+00, 0.00000000e+00, -5.36246506e+00, -2.69648420e+00, -8.64409724e-01, 1.07987328e-01, 0.00000000e+00, 5.0000000000, 5.0000000000, 0.0407299000
          52, 0.00000000e+00, 0.00000000e+00, 0.00000000e+00, 0.00000000e+00, 0.00000000e+00, 0.00000000e+00, 0.00000000e+00, 0.00000000e+00, 0.00000000e+00, 0.00000000e+00, 0.00000000e+00, 0.00000000e+00, -5.41249728e+00, -2.70411419e+00, -8.75058767e-01, 6.08568304e-02, 0.00000000e+00, 5.0000000000, 5.0000000000, 0.0414651833
          53, 0.00000000e+00, 0.00000000e+00, 0.00000000e+00, 0.00000000e+00, 0.00000000e+00, 0.00000000e+00, 0.00000000e+00, 0.00000000e+00, 0.00000000e+00, 0.00000000e+00, 0.00000000e+00, 0.00000000e+00, -5.46649336e+00, -2.70843540e+00, -8.85705130e-01, 1.07632836e-02, 0.00000000e+00, 5.0000000000, 5.0000000000, 0.0422141000
          54, 0.00000000e+00, 0.00000000e+00, 0.00000000e+00, 0.00000000e+00, 0.00000000e+00, 0.00000000e+00, 0.00000000e+00, 0.00000000e+00, 0.00000000e+00, 0.00000000e+00, 0.00000000e+00, 0.00000000e+00, -5.52468552e+00, -2.70970206e+00, -8.96348853e-01, -4.21648588e-02, 0.00000000e+00, 5.0000000000, 5.0000000000, 0.0429528500
          55, 0.00000000e+00, 0.00000000e+00, 0.00000000e+00, 0.00000000e+00, 0.00000000e+00, 0.00000000e+00, 0.00000000e+00, 0.00000000e+00, 0.00000000e+00, 0.00000000e+00, 0.00000000e+00, 0.00000000e+00, -5.58699180e+00, -2.70829616e+00, -9.06989776e-01, -9.73930793e-02, 0.00000000e+00, 5.0000000000, 5.0000000000, 0.0437109500
          56, 0.00000000e+00, 0.00000000e+00, 0.00000000e+00, 0.00000000e+00, 0.00000000e+00, 0.00000000e+00, 0.00000000e+00, 0.00000000e+00, 0.00000000e+00, 0.00000000e+00, 0.00000000e+00, 0.00000000e+00, -5.65245987e+00, -2.70467844e+00, -9.17627473e-01, -1.53532198e-01, 0.00000000e+00, 5.0000000000, 5.0000000000, 0.0444498833
          57, 0.00000000e+00, 0.00000000e+00, 0.00000000e+00, 0.00000000e+00, 0.00000000e+00, 0.00000000e+00, 0.00000000e+00, 0.00000000e+00, 0.00000000e+00, 0.00000000e+00, 0.00000000e+00, 0.00000000e+00, -5.71806789e+00, -2.69933881e+00, -9.28261163e-01, -2.07572104e-01, 0.00000000e+00, 5.0000000000, 5.0000000000, 0.0451242500
          58, 0.00000000e+00, 0.00000000e+00, 0.00000000e+00, 0.00000000e+00, 0.00000000e+00, 0.00000000e+00, 0.00000000e+00, 0.00000000e+00, 0.00000000e+00, 0.00000000e+00, 0.00000000e+00, 0.00000000e+00, -5.77667797e+00, -2.69275506e+00, -9.38889649e-01, -2.53936939e-01, 0.00000000e+00, 5.0000000000, 5.0000000000, 0.0458360667
          59, 0.00000000e+00, 0.00000000e+00, 0.00000000e+00, 0.00000000e+00, 0.00000000e+00, 0.00000000e+00, 0.00000000e+00, 0.00000000e+00, 0.00000000e+00, 0.00000000e+00, 0.00000000e+00, 0.00000000e+00, -5.81562943e+00, -2.68536309e+00, -9.49511439e-01, -2.84396993e-01, 0.00000000e+00, 5.0000000000, 5.0000000000, 0.0467471333
          60, 0.00000000e+00, 0.00000000e+00, 0.00000000e+00, 0.00000000e+00, 0.00000000e+00, 0.00000000e+00, 0.00000000e+00, 0.00000000e+00, 0.00000000e+00, 0.00000000e+00, 0.00000000e+00, 0.00000000e+00, -5.82136141e+00, -2.67753859e+00, -9.60125387e-01, -2.90917070e-01, 0.00000000e+00, 5.0000000000, 5.0000000000, 0.0476785167
          61, 0.00000000e+00, 0.00000000e+00, 0.00000000e+00, 0.00000000e+00, 0.00000000e+00, 0.00000000e+00, 0.00000000e+00, 0.00000000e+00, 0.00000000e+00, 0.00000000e+00, 0.00000000e+00, 0.00000000e+00, -5.79118701e+00, -2.66958794e+00, -9.70731787e-01, -2.71112489e-01, 0.00000000e+00, 5.0000000000, 5.0000000000, 0.0484997667
          62, 0.00000000e+00, 0.00000000e+00, 0.00000000e+00, 0.00000000e+00, 0.00000000e+00, 0.00000000e+00, 0.00000000e+00, 0.00000000e+00, 0.00000000e+00, 0.00000000e+00, 0.00000000e+00, 0.00000000e+00, -5.73624984e+00, -2.66174681e+00, -9.81332697e-01, -2.30298485e-01, 0.00000000e+00, 5.0000000000, 5.0000000000, 0.0493307833
          63, 0.00000000e+00, 0.00000000e+00, 0.00000000e+00, 0.00000000e+00, 0.00000000e+00, 0.00000000e+00, 0.00000000e+00, 0.00000000e+00, 0.00000000e+00, 0.00000000e+00, 0.00000000e+00, 0.00000000e+00, -5.67052552e+00, -2.65418465e+00, -9.91930724e-01, -1.77214510e-01, 0.00000000e+00, 5.0000000000, 5.0000000000, 0.0500085333
          64, 0.00000000e+00, 0.00000000e+00, 0.00000000e+00, 0.00000000e+00, 0.00000000e+00, 0.00000000e+00, 0.00000000e+00, 0.00000000e+00, 0.00000000e+00, 0.00000000e+00, 0.00000000e+00, 0.00000000e+00, -5.60308181e+00, -2.64701310e+00, -1.00252774e+00, -1.19212538e-01, 0.00000000e+00, 5.0000000000, 5.0000000000, 0.0507645833
          65, 0.00000000e+00, 0.00000000e+00, 0.00000000e+00, 0.00000000e+00, 0.00000000e+00, 0.00000000e+00, 0.00000000e+00, 0.00000000e+00, 0.00000000e+00, 0.00000000e+00, 0.00000000e+00, 0.00000000e+00, -5.53818121e+00, -2.64029804e+00, -1.01312470e+00, -6.08412935e-02, 0.00000000e+00, 5.0000000000, 5.0000000000, 0.0515409667
          66, 0.00000000e+00, 0.00000000e+00, 0.00000000e+00, 0.00000000e+00, 0.00000000e+00, 0.00000000e+00, 0.00000000e+00, 0.00000000e+00, 0.00000000e+00, 0.00000000e+00, 0.00000000e+00, 0.00000000e+00, -5.47743721e+00, -2.63407508e+00, -1.02372197e+00, -4.48671261e-03, 0.00000000e+00, 5.0000000000, 5.0000000000, 0.0522827500
          67, 0.00000000e+00, 0.00000000e+00, 0.00000000e+00, 0.00000000e+00, 0.00000000e+00, 0.00000000e+00, 0.00000000e+00, 0.00000000e+00, 0.00000000e+00, 0.00000000e+00, 0.00000000e+00, 0.00000000e+00, -5.42130054e+00, -2.62836825e+00, -1.03431969e+00, 4.87126535e-02, 0.00000000e+00, 5.0000000000, 5.0000000000, 0.0530472833
          68, 0.00000000e+00, 0.00000000e+00, 0.00000000e+00, 0.00000000e+00, 0.00000000e+00, 0.00000000e+00, 0.00000000e+00, 0.00000000e+00, 0.00000000e+00, 0.00000000e+00, 0.00000000e+00, 0.00000000e+00, -5.36978228e+00, -2.62321024e+00, -1.04491794e+00, 9.82463603e-02, 0.00000000e+00, 5.0000000000, 5.0000000000, 0.0538568333
          69, 0.00000000e+00, 0.00000000e+00, 0.00000000e+00, 0.00000000e+00, 0.00000000e+00, 0.00000000e+00, 0.00000000e+00, 0.00000000e+00, 0.00000000e+00, 0.00000000e+00, 0.00000000e+00, 0.00000000e+00, -5.32276028e+00, -2.61866206e+00, -1.05551677e+00, 1.43896177e-01, 0.00000000e+00, 5.0000000000, 5.0000000000, 0.0545680333
          70, 0.00000000e+00, 0.00000000e+00, 0.00000000e+00, 0.00000000e+00, 0.00000000e+00, 0.00000000e+00, 0.00000000e+00, 0.00000000e+00, 0.00000000e+00, 0.00000000e+00, 0.00000000e+00, 0.00000000e+00, -5.28009602e+00, -2.61482886e+00, -1.06611628e+00, 1.85572046e-01, 0.00000000e+00, 5.0000000000, 5.0000000000, 0.0553109833
          71, 0.00000000e+00, 0.00000000e+00, 0.00000000e+00, 0.00000000e+00, 0.00000000e+00, 0.00000000e+00, 0.00000000e+00, 0.00000000e+00, 0.00000000e+00, 0.00000000e+00, 0.00000000e+00, 0.00000000e+00, -5.24167168e+00, -2.61186899e+00, -1.07671656e+00, 2.23237627e-01, 0.00000000e+00, 5.0000000000, 5.0000000000, 0.0560509833
          72, 0.00000000e+00, 0.00000000e+00, 0.00000000e+00, 0.00000000e+00, 0.00000000e+00, 0.00000000e+00, 0.00000000e+00, 0.00000000e+00, 0.00000000e+00, 0.00000000e+00, 0.00000000e+00, 0.00000000e+00, -5.20739515e+00, -2.60999399e+00, -1.08731771e+00, 2.56879532e-01, 0.00000000e+00, 5.0000000000, 5.0000000000, 0.0567992833
          73, 0.00000000e+00, 0.00000000e+00, 0.00000000e+00, 0.00000000e+00, 0.00000000e+00, 0.00000000e+00, 0.00000000e+00, 0.00000000e+00, 0.00000000e+00, 0.00000000e+00, 0.00000000e+00, 0.00000000e+00, -5.17719347e+00, -2.60945822e+00, -1.09791984e+00, 2.86497078e-01, 0.00000000e+00, 5.0000000000, 5.0000000000, 0.0574997500
          74, 0.00000000e+00, 0.00000000e+00, 0.00000000e+00, 0.00000000e+00, 0.00000000e+00, 0.00000000e+00, 0.00000000e+00, 0.00000000e+00, 0.00000000e+00, 0.00000000e+00, 0.00000000e+00, 0.00000000e+00, -5.15100286e+00, -2.61053797e+00, -1.10852309e+00, 3.12101312e-01, 0.00000000e+00, 5.0000000000, 5.0000000000, 0.0582396167
          75, 0.00000000e+00, 0.00000000e+00, 0.00000000e+00, 0.00000000e+00, 0.00000000e+00, 0.00000000e+00, 0.00000000e+00, 0.00000000e+00, 0.00000000e+00, 0.00000000e+00, 0.00000000e+00, 0.00000000e+00, -5.12875855e+00, -2.61350067e+00, -1.11912759e+00, 3.33718069e-01, 0.00000000e+00, 5.0000000000, 5.0000000000, 0.0589646000
          76, 0.00000000e+00, 0.00000000e+00, 0.00000000e+00, 0.00000000e+00, 0.00000000e+00, 0.00000000e+00, 0.00000000e+00, 0.00000000e+00, 0.00000000e+00, 0.00000000e+00, 0.00000000e+00, 0.00000000e+00, -5.11038545e+00, -2.61856409e+00, -1.12973346e+00, 3.51392774e-01, 0.00000000e+00, 5.0000000000, 5.0000000000, 0.0597077167
          77, 0.00000000e+00, 0.00000000e+00, 0.00000000e+00, 0.00000000e+00, 0.00000000e+00, 0.00000000e+00, 0.00000000e+00, 0.00000000e+00, 0.00000000e+00, 0.00000000e+00, 0.00000000e+00, 0.00000000e+00, -5.09578953e+00, -2.62584418e+00, -1.14034084e+00, 3.65196149e-01, 0.00000000e+00, 5.0000000000, 5.0000000000, 0.0604468000
          78, 0.00000000e+00, 0.00000000e+00, 0.00000000e+00, 0.00000000e+00, 0.00000000e+00, 0.00000000e+00, 0.00000000e+00, 0.00000000e+00, 0.00000000e+00, 0.00000000e+00, 0.00000000e+00, 0.00000000e+00, -5.08484982e+00, -2.63528869e+00, -1.15094987e+00, 3.75230635e-01, 0.00000000e+00, 5.0000000000, 5.0000000000, 0.0611362833
          79, 0.00000000e+00, 0.00000000e+00, 0.00000000e+00, 0.00000000e+00, 0.00000000e+00, 0.00000000e+00, 0.00000000e+00, 0.00000000e+00, 0.00000000e+00, 0.00000000e+00, 0.00000000e+00, 0.00000000e+00, -5.07741063e+00, -2.64659356e+00, -1.16156066e+00, 3.81637557e-01, 0.00000000e+00, 5.0000000000, 5.0000000000, 0.0618170333
          80, 0.00000000e+00, 0.00000000e+00, 0.00000000e+00, 0.00000000e+00, 0.00000000e+00, 0.00000000e+00, 0.00000000e+00, 0.00000000e+00, 0.00000000e+00, 0.00000000e+00, 0.00000000e+00, 0.00000000e+00, -5.07327379e+00, -2.65910424e+00, -1.17217334e+00, 3.84605063e-01, 0.00000000e+00, 5.0000000000, 5.0000000000, 0.0625105500
          81, 0.00000000e+00, 0.00000000e+00, 0.00000000e+00, 0.00000000e+00, 0.00000000e+00, 0.00000000e+00, 0.00000000e+00, 0.00000000e+00, 0.00000000e+00, 0.00000000e+00, 0.00000000e+00, 0.00000000e+00, -5.07219128e+00, -2.67171964e+00, -1.18278797e+00, 3.84376619e-01, 0.00000000e+00, 5.0000000000, 5.0000000000, 0.0632313333
          82, 0.00000000e+00, 0.00000000e+00, 0.00000000e+00, 0.00000000e+00, 0.00000000e+00, 0.00000000e+00, 0.00000000e+00, 0.00000000e+00, 0.00000000e+00, 0.00000000e+00, 0.00000000e+00, 0.00000000e+00, -5.07385845e+00, -2.68284860e+00, -1.19340462e+00, 3.81259468e-01, 0.00000000e+00, 5.0000000000, 5.0000000000, 0.0639530333
          83, 0.00000000e+00, 0.00000000e+00, 0.00000000e+00, 0.00000000e+00, 0.00000000e+00, 0.00000000e+00, 0.00000000e+00, 0.00000000e+00, 0.00000000e+00, 0.00000000e+00, 0.00000000e+00, 0.00000000e+00, -5.07790930e+00, -2.69050928e+00, -1.20402328e+00, 3.75631862e-01, 0.00000000e+00, 5.0000000000, 5.0000000000, 0.0646787333
          84, 0.00000000e+00, 0.00000000e+00, 0.00000000e+00, 0.00000000e+00, 0.00000000e+00, 0.00000000e+00, 0.00000000e+00, 0.00000000e+00, 0.00000000e+00, 0.00000000e+00, 0.00000000e+00, 0.00000000e+00, -5.08391497e+00, -2.69266685e+00, -1.21464393e+00, 3.67947195e-01, 0.00000000e+00, 5.0000000000, 5.0000000000, 0.0654424333
          85, 0.00000000e+00, 0.00000000e+00, 0.00000000e+00, 0.00000000e+00, 0.00000000e+00, 0.00000000e+00, 0.00000000e+00, 0.00000000e+00, 0.00000000e+00, 0.00000000e+00, 0.00000000e+00, 0.00000000e+00, -5.09138763e+00, -2.68779649e+00, -1.22526648e+00, 3.58732424e-01, 0.00000000e+00, 5.0000000000, 5.0000000000, 0.0661579500
          86, 0.00000000e+00, 0.00000000e+00, 0.00000000e+00, 0.00000000e+00, 0.00000000e+00, 0.00000000e+00, 0.00000000e+00, 0.00000000e+00, 0.00000000e+00, 0.00000000e+00, 0.00000000e+00, 0.00000000e+00, -5.09979166e+00, -2.67543756e+00, -1.23589080e+00, 3.48577834e-01, 0.00000000e+00, 5.0000000000, 5.0000000000, 0.0668506333
          87, 0.00000000e+00, 0.00000000e+00, 0.00000000e+00, 0.00000000e+00, 0.00000000e+00, 0.00000000e+00, 0.00000000e+00, 0.00000000e+00, 0.00000000e+00, 0.00000000e+00, 0.00000000e+00, 0.00000000e+00, -5.10856330e+00, -2.65638517e+00, -1.24651674e+00, 3.38115711e-01, 0.00000000e+00, 5.0000000000, 5.0000000000, 0.0675786500
          88, 0.00000000e+00, 0.00000000e+00, 0.00000000e+00, 0.00000000e+00, 0.00000000e+00, 0.00000000e+00, 0.00000000e+00, 0.00000000e+00, 0.00000000e+00, 0.00000000e+00, 0.00000000e+00, 0.00000000e+00, -5.11713843e+00, -2.63237838e+00, -1.25714407e+00, 3.27987342e-01, 0.00000000e+00, 5.0000000000, 5.0000000000, 0.0683008500
          89, 0.00000000e+00, 0.00000000e+00, 0.00000000e+00, 0.00000000e+00, 0.00000000e+00, 0.00000000e+00, 0.00000000e+00, 0.00000000e+00, 0.00000000e+00, 0.00000000e+00, 0.00000000e+00, 0.00000000e+00, -5.12498577e+00, -2.60551461e+00, -1.26777258e+00, 3.18801005e-01, 0.00000000e+00, 5.0000000000, 5.0000000000, 0.0690673500