TITLE = "Visualization of the volumetric solution"
VARIABLES = "x","y","Density","Momentum_x","Momentum_y","Energy","Pressure","Temperature","Mach","C<sub>p</sub>","Roe_Dissipation"
ZONE NODES= 3200, ELEMENTS= 3081, DATAPACKING=POINT, ZONETYPE=FEQUADRILATERAL
-2.000000e+00	1.250000e+00	1.225091e+00	4.168072e+01	7.278250e-12	2.540220e+05	1.013252e+05	2.881239e+02	9.998349e-02	2.595996e-04	0.000000e+00	
-2.000000e+00	1.218354e+00	1.225091e+00	4.168072e+01	6.430858e-10	2.540220e+05	1.013252e+05	2.881239e+02	9.998349e-02	2.595997e-04	0.000000e+00	
-1.948718e+00	1.218354e+00	1.225091e+00	4.168072e+01	8.859922e-10	2.540220e+05	1.013252e+05	2.881239e+02	9.998349e-02	2.596007e-04	0.000000e+00	
-1.948718e+00	1.250000e+00	1.225091e+00	4.168072e+01	-3.708592e-11	2.540220e+05	1.013252e+05	2.881239e+02	9.998349e-02	2.596007e-04	0.000000e+00	
-2.000000e+00	1.186709e+00	1.225091e+00	4.168072e+01	6.252416e-10	2.540220e+05	1.013252e+05	2.881239e+02	9.998349e-02	2.595997e-04	0.000000e+00	
-1.948718e+00	1.186709e+00	1.225091e+00	4.168072e+01	1.067785e-09	2.540220e+05	1.013252e+05	2.881239e+02	9.998349e-02	2.596007e-04	0.000000e+00	
-2.000000e+00	1.155063e+00	1.225091e+00	4.168072e+01	3.846695e-10	2.540220e+05	1.013252e+05	2.881239e+02	9.998349e-02	2.595998e-04	0.000000e+00	
-1.948718e+00	1.155063e+00	1.225091e+00	4.168072e+01	9.386458e-10	2.540220e+05	1.013252e+05	2.881239e+02	9.998349e-02	2.596007e-04	0.000000e+00	
-2.000000e+00	1.123418e+00	1.225091e+00	4.168072e+01	1.537366e-10	2.540220e+05	1.013252e+05	2.881239e+02	9.998349e-02	2.595998e-04	0.000000e+00	
-1.948718e+00	1.123418e+00	1.225091e+00	4.168072e+01	6.748430e-10	2.540220e+05	1.013252e+05	2.881239e+02	9.998349e-02	2.596007e-04	0.000000e+00	
-2.000000e+00	1.091772e+00	1.225091e+00	4.168072e+01	3.460962e-11	2.540220e+05	1.013252e+05	2.881239e+02	9.998349e-02	2.595998e-04	0.000000e+00	
-1.948718e+00	1.091772e+00	1.225091e+00	4.168072e+01	4.912047e-10	2.540220e+05	1.013252e+05	2.881239e+02	9.998349e-02	2.596007e-04	0.000000e+00	
-2.000000e+00	1.060127e+00	1.225091e+00	4.168072e+01	-8.491338e-13	2.540220e+05	1.013252e+05	2.881239e+02	9.998349e-02	2.595998e-04	0.000000e+00	
-1.948718e+00	1.060127e+00	1.225091e+00	4.168072e+01	3.890868e-10	2.540220e+05	1.013252e+05	2.881239e+02	9.998349e-02	2.596008e-04	0.000000e+00	
-2.000000e+00	1.028481e+00	1.225091e+00	4.168072e+01	8.089077e-13	2.540220e+05	1.013252e+05	2.881239e+02	9.998349e-02	2.595998e-04	0.000000e+00	
-1.948718e+00	1.028481e+00	1.225091e+00	4.168072e+01	3.465266e-10	2.540220e+05	1.013252e+05	2.881239e+02	9.998349e-02	2.596008e-04	0.000000e+00	
-2.000000e+00	9.968354e-01	1.225091e+00	4.168072e+01	6.117264e-12	2.540220e+05	1.013252e+05	2.881239e+02	9.998349e-02	2.595998e-04	0.000000e+00	
-1.948718e+00	9.968354e-01	1.225091e+00	4.168072e+01	3.198086e-10	2.540220e+05	1.013252e+05	2.881239e+02	9.998349e-02	2.596008e-04	0.000000e+00	
-2.000000e+00	9.651899e-01	1.225091e+00	4.168072e+01	6.689712e-12	2.540220e+05	1.013252e+05	2.881239e+02	9.998349e-02	2.595999e-04	0.000000e+00	
-1.948718e+00	9.651899e-01	1.225091e+00	4.168072e+01	2.952104e-10	2.540220e+05	1.013252e+05	2.881239e+02	9.998349e-02	2.596008e-04	0.000000e+00	
-2.000000e+00	9.335443e-01	1.225091e+00	4.168072e+01	3.816258e-12	2.540220e+05	1.013252e+05	2.881239e+02	9.998349e-02	2.595999e-04	0.000000e+00	
-1.948718e+00	9.335443e-01	1.225091e+00	4.168072e+01	2.682601e-10	2.540220e+05	1.013252e+05	2.881239e+02	9.998349e-02	2.596008e-04	0.000000e+00	
-2.000000e+00	9.018987e-01	1.225091e+00	4.168072e+01	9.457075e-13	2.540220e+05	1.013252e+05	2.881239e+02	9.998349e-02	2.595999e-04	0.000000e+00	
-1.948718e+00	9.018987e-01	1.225091e+00	4.168072e+01	2.428108e-10	2.540220e+05	1.013252e+05	2.881239e+02	9.998349e-02	2.596008e-04	0.000000e+00	
-2.000000e+00	8.702532e-01	1.225091e+00	4.168072e+01	-1.873146e-13	2.540220e+05	1.013252e+05	2.881239e+02	9.998349e-02	2.595999e-04	0.000000e+00	
-1.948718e+00	8.702532e-01	1.225091e+00	4.168072e+01	2.208287e-10	2.540220e+05	1.013252e+05	2.881239e+02	9.998349e-02	2.596008e-04	0.000000e+00	
-2.000000e+00	8.386076e-01	1.225091e+00	4.168072e+01	7.063728e-16	2.540220e+05	1.013252e+05	2.881239e+02	9.998349e-02	2.595999e-04	0.000000e+00	
-1.948718e+00	8.386076e-01	1.225091e+00	4.168072e+01	2.026592e-10	2.540220e+05	1.013252e+05	2.881239e+02	9.998349e-02	2.596008e-04	0.000000e+00	
-2.000000e+00	8.069620e-01	1.225091e+00	4.168072e+01	8.452294e-13	2.540220e+05	1.013252e+05	2.881239e+02	9.998349e-02	2.595999e-04	0.000000e+00	
-1.948718e+00	8.069620e-01	1.225091e+00	4.168072e+01	1.875841e-10	2.540220e+05	1.013252e+05	2.881239e+02	9.998349e-02	2.596008e-04	0.000000e+00	
-2.000000e+00	7.753165e-01	1.225091e+00	4.168072e+01	1.596717e-12	2.540220e+05	1.013252e+05	2.881239e+02	9.998349e-02	2.595999e-04	0.000000e+00	
-1.948718e+00	7.753165e-01	1.225091e+00	4.168072e+01	1.744883e-10	2.540220e+05	1.013252e+05	2.881239e+02	9.998349e-02	2.596008e-04	0.000000e+00	
-2.000000e+00	7.436709e-01	1.225091e+00	4.168072e+01	2.043123e-12	2.540220e+05	1.013252e+05	2.881239e+02	9.998349e-02	2.595999e-04	0.000000e+00	
-1.948718e+00	7.436709e-01	1.225091e+00	4.168072e+01	1.628275e-10	2.540220e+05	1.013252e+05	2.881239e+02	9.998349e-02	2.596008e-04	0.000000e+00	
-2.000000e+00	7.120253e-01	1.225091e+00	4.168072e+01	2.688861e-12	2.540220e+05	1.013252e+05	2.881239e+02	9.998349e-02	2.595999e-04	0.000000e+00	
-1.948718e+00	7.120253e-01	1.225091e+00	4.168072e+01	1.526687e-10	2.540220e+05	1.013252e+05	2.881239e+02	9.998349e-02	2.596008e-04	0.000000e+00	
-2.000000e+00	6.803797e-01	1.225091e+00	4.168072e+01	3.070090e-12	2.540220e+05	1.013252e+05	2.881239e+02	9.998349e-02	2.595999e-04	0.000000e+00	
-1.948718e+00	6.803797e-01	1.225091e+00	4.168072e+01	1.433600e-10	2.540220e+05	1.013252e+05	2.881239e+02	9.998349e-02	2.596008e-04	0.000000e+00	
-2.000000e+00	6.487342e-01	1.225091e+00	4.168072e+01	3.450225e-12	2.540220e+05	1.013252e+05	2.881239e+02	9.998349e-02	2.595999e-04	0.000000e+00	
-1.948718e+00	6.487342e-01	1.225091e+00	4.168072e+01	1.350039e-10	2.540220e+05	1.013252e+05	2.881239e+02	9.998349e-02	2.596008e-04	0.000000e+00	
-2.000000e+00	6.170886e-01	1.225091e+00	4.168072e+01	3.647381e-12	2.540220e+05	1.013252e+05	2.881239e+02	9.998349e-02	2.595999e-04	0.000000e+00	
-1.948718e+00	6.170886e-01	1.225091e+00	4.168072e+01	1.273108e-10	2.540220e+05	1.013252e+05	2.881239e+02	9.998349e-02	2.596008e-04	0.000000e+00	
-2.000000e+00	5.854430e-01	1.225091e+00	4.168072e+01	3.785338e-12	2.540220e+05	1.013252e+05	2.881239e+02	9.998349e-02	2.595999e-04	0.000000e+00	
-1.948718e+00	5.854430e-01	1.225091e+00	4.168072e+01	1.203149e-10	2.540220e+05	1.013252e+05	2.881239e+02	9.998349e-02	2.596009e-04	0.000000e+00	
-2.000000e+00	5.537975e-01	1.225091e+00	4.168072e+01	4.097749e-12	2.540220e+05	1.013252e+05	2.881239e+02	9.998349e-02	2.595999e-04	0.000000e+00	
-1.948718e+00	5.537975e-01	1.225091e+00	4.168072e+01	1.140071e-10	2.540220e+05	1.013252e+05	2.881239e+02	9.998349e-02	2.596009e-04	0.000000e+00	
-2.000000e+00	5.221519e-01	1.225091e+00	4.168072e+01	4.300004e-12	2.540220e+05	1.013252e+05	2.881239e+02	9.998349e-02	2.595999e-04	0.000000e+00	
-1.948718e+00	5.221519e-01	1.225091e+00	4.168072e+01	1.080863e-10	2.540220e+05	1.013252e+05	2.881239e+02	9.998349e-02	2.596009e-04	0.000000e+00	
-2.000000e+00	4.905063e-01	1.225091e+00	4.168072e+01	4.452760e-12	2.540220e+05	1.013252e+05	2.881239e+02	9.998349e-02	2.595999e-04	0.000000e+00	
-1.948718e+00	4.905063e-01	1.225091e+00	4.168072e+01	1.026386e-10	2.540220e+05	1.013252e+05	2.881239e+02	9.998349e-02	2.596009e-04	0.000000e+00	
-2.000000e+00	4.588608e-01	1.225091e+00	4.168072e+01	4.813570e-12	2.540220e+05	1.013252e+05	2.881239e+02	9.998349e-02	2.595999e-04	0.000000e+00	
-1.948718e+00	4.588608e-01	1.225091e+00	4.168072e+01	9.754006e-11	2.540220e+05	1.013252e+05	2.881239e+02	9.998349e-02	2.596009e-04	0.000000e+00	
-2.000000e+00	4.272152e-01	1.225091e+00	4.168072e+01	4.978232e-12	2.540220e+05	1.013252e+05	2.881239e+02	9.998349e-02	2.595999e-04	0.000000e+00	
-1.948718e+00	4.272152e-01	1.225091e+00	4.168072e+01	9.247867e-11	2.540220e+05	1.013252e+05	2.881239e+02	9.998349e-02	2.596009e-04	0.000000e+00	
-2.000000e+00	3.955696e-01	1.225091e+00	4.168072e+01	4.839073e-12	2.540220e+05	1.013252e+05	2.881239e+02	9.998349e-02	2.595999e-04	0.000000e+00	
-1.948718e+00	3.955696e-01	1.225091e+00	4.168072e+01	8.754698e-11	2.540220e+05	1.013252e+05	2.881239e+02	9.998349e-02	2.596009e-04	0.000000e+00	
-2.000000e+00	3.639241e-01	1.225091e+00	4.168072e+01	4.981191e-12	2.540220e+05	1.013252e+05	2.881239e+02	9.998349e-02	2.595999e-04	0.000000e+00	
-1.948718e+00	3.639241e-01	1.225091e+00	4.168072e+01	8.298498e-11	2.540220e+05	1.013252e+05	2.881239e+02	9.998349e-02	2.596009e-04	0.000000e+00	
-2.000000e+00	3.322785e-01	1.225091e+00	4.168072e+01	5.125198e-12	2.540220e+05	1.013252e+05	2.881239e+02	9.998349e-02	2.595999e-04	0.000000e+00	
-1.948718e+00	3.322785e-01	1.225091e+00	4.168072e+01	7.827794e-11	2.540220e+05	1.013252e+05	2.881239e+02	9.998349e-02	2.596009e-04	0.000000e+00	
-2.000000e+00	3.006329e-01	1.225091e+00	4.168072e+01	5.243030e-12	2.540220e+05	1.013252e+05	2.881239e+02	9.998349e-02	2.595999e-04	0.000000e+00	
-1.948718e+00	3.006329e-01	1.225091e+00	4.168072e+01	7.383773e-11	2.540220e+05	1.013252e+05	2.881239e+02	9.998349e-02	2.596009e-04	0.000000e+00	
-2.000000e+00	2.689873e-01	1.225091e+00	4.168072e+01	5.081738e-12	2.540220e+05	1.013252e+05	2.881239e+02	9.998349e-02	2.595999e-04	0.000000e+00	
-1.948718e+00	2.689873e-01	1.225091e+00	4.168072e+01	6.922933e-11	2.540220e+05	1.013252e+05	2.881239e+02	9.998349e-02	2.596009e-04	0.000000e+00	
-2.000000e+00	2.373418e-01	1.225091e+00	4.168072e+01	5.033013e-12	2.540220e+05	1.013252e+05	2.881239e+02	9.998349e-02	2.595999e-04	0.000000e+00	
-1.948718e+00	2.373418e-01	1.225091e+00	4.168072e+01	6.472824e-11	2.540220e+05	1.013252e+05	2.881239e+02	9.998349e-02	2.596009e-04	0.000000e+00	
-2.000000e+00	2.056962e-01	1.225091e+00	4.168072e+01	5.153246e-12	2.540220e+05	1.013252e+05	2.881239e+02	9.998349e-02	2.596000e-04	0.000000e+00	
-1.948718e+00	2.056962e-01	1.225091e+00	4.168072e+01	6.020601e-11	2.540220e+05	1.013252e+05	2.881239e+02	9.998349e-02	2.596009e-04	0.000000e+00	
-2.000000e+00	1.740506e-01	1.225091e+00	4.168072e+01	5.402006e-12	2.540220e+05	1.013252e+05	2.881239e+02	9.998349e-02	2.596000e-04	0.000000e+00	
-1.948718e+00	1.740506e-01	1.225091e+00	4.168072e+01	5.579607e-11	2.540220e+05	1.013252e+05	2.881239e+02	9.998349e-02	2.596009e-04	0.000000e+00	
-2.000000e+00	1.424051e-01	1.225091e+00	4.168072e+01	5.447140e-12	2.540220e+05	1.013252e+05	2.881239e+02	9.998349e-02	2.596000e-04	0.000000e+00	
-1.948718e+00	1.424051e-01	1.225091e+00	4.168072e+01	5.122709e-11	2.540220e+05	1.013252e+05	2.881239e+02	9.998349e-02	2.596009e-04	0.000000e+00	
-2.000000e+00	1.107595e-01	1.225091e+00	4.168072e+01	5.607287e-12	2.540220e+05	1.013252e+05	2.881239e+02	9.998349e-02	2.596000e-04	0.000000e+00	
-1.948718e+00	1.107595e-01	1.225091e+00	4.168072e+01	4.663131e-11	2.540220e+05	1.013252e+05	2.881239e+02	9.998349e-02	2.596009e-04	0.000000e+00	
-2.000000e+00	7.911392e-02	1.225091e+00	4.168072e+01	5.662935e-12	2.540220e+05	1.013252e+05	2.881239e+02	9.998349e-02	2.596000e-04	0.000000e+00	
-1.948718e+00	7.911392e-02	1.225091e+00	4.168072e+01	4.183508e-11	2.540220e+05	1.013252e+05	2.881239e+02	9.998349e-02	2.596009e-04	0.000000e+00	
-2.000000e+00	4.746835e-02	1.225091e+00	4.168072e+01	5.512985e-12	2.540220e+05	1.013252e+05	2.881239e+02	9.998349e-02	2.596000e-04	0.000000e+00	
-1.948718e+00	4.746835e-02	1.225091e+00	4.168072e+01	3.679148e-11	2.540220e+05	1.013252e+05	2.881239e+02	9.998349e-02	2.596009e-04	0.000000e+00	
-2.000000e+00	1.582278e-02	1.225091e+00	4.168072e+01	5.432394e-12	2.540220e+05	1.013252e+05	2.881239e+02	9.998349e-02	2.596000e-04	0.000000e+00	
-1.948718e+00	1.582278e-02	1.225091e+00	4.168072e+01	3.172893e-11	2.540220e+05	1.013252e+05	2.881239e+02	9.998349e-02	2.596009e-04	0.000000e+00	
-2.000000e+00	-1.582278e-02	1.225091e+00	4.168072e+01	5.499555e-12	2.540220e+05	1.013252e+05	2.881239e+02	9.998349e-02	2.596000e-04	0.000000e+00	
-1.948718e+00	-1.582278e-02	1.225091e+00	4.168072e+01	2.631884e-11	2.540220e+05	1.013252e+05	2.881239e+02	9.998349e-02	2.596009e-04	0.000000e+00	
-2.000000e+00	-4.746835e-02	1.225091e+00	4.168072e+01	5.670013e-12	2.540220e+05	1.013252e+05	2.881239e+02	9.998349e-02	2.596000e-04	0.000000e+00	
-1.948718e+00	-4.746835e-02	1.225091e+00	4.168072e+01	2.103588e-11	2.540220e+05	1.013252e+05	2.881239e+02	9.998349e-02	2.596009e-04	0.000000e+00	
-2.000000e+00	-7.911392e-02	1.225091e+00	4.168072e+01	5.648796e-12	2.540220e+05	1.013252e+05	2.881239e+02	9.998349e-02	2.596000e-04	0.000000e+00	
-1.948718e+00	-7.911392e-02	1.225091e+00	4.168072e+01	1.542662e-11	2.540220e+05	1.013252e+05	2.881239e+02	9.998349e-02	2.596009e-04	0.000000e+00	
-2.000000e+00	-1.107595e-01	1.225091e+00	4.168072e+01	5.706322e-12	2.540220e+05	1.013252e+05	2.881239e+02	9.998349e-02	2.596000e-04	0.000000e+00	
-1.948718e+00	-1.107595e-01	1.225091e+00	4.168072e+01	9.561513e-12	2.540220e+05	1.013252e+05	2.881239e+02	9.998349e-02	2.596009e-04	0.000000e+00	
-2.000000e+00	-1.424051e-01	1.225091e+00	4.168072e+01	5.633684e-12	2.540220e+05	1.013252e+05	2.881239e+02	9.998349e-02	2.596000e-04	0.000000e+00	
-1.948718e+00	-1.424051e-01	1.225091e+00	4.168072e+01	3.577025e-12	2.540220e+05	1.013252e+05	2.881239e+02	9.998349e-02	2.596009e-04	0.000000e+00	
-2.000000e+00	-1.740506e-01	1.225091e+00	4.168072e+01	5.703654e-12	2.540220e+05	1.013252e+05	2.881239e+02	9.998349e-02	2.596000e-04	0.000000e+00	
-1.948718e+00	-1.740506e-01	1.225091e+00	4.168072e+01	-2.741888e-12	2.540220e+05	1.013252e+05	2.881239e+02	9.998349e-02	2.596009e-04	0.000000e+00	
-2.000000e+00	-2.056962e-01	1.225091e+00	4.168072e+01	5.955674e-12	2.540220e+05	1.013252e+05	2.881239e+02	9.998349e-02	2.596000e-04	0.000000e+00	
-1.948718e+00	-2.056962e-01	1.225091e+00	4.168072e+01	-9.024953e-12	2.540220e+05	1.013252e+05	2.881239e+02	9.998349e-02	2.596009e-04	0.000000e+00	
-2.000000e+00	-2.373418e-01	1.225091e+00	4.168072e+01	5.867525e-12	2.540220e+05	1.013252e+05	2.881239e+02	9.998349e-02	2.596000e-04	0.000000e+00	
-1.948718e+00	-2.373418e-01	1.225091e+00	4.168072e+01	-1.588399e-11	2.540220e+05	1.013252e+05	2.881239e+02	9.998349e-02	2.596009e-04	0.000000e+00	
-2.000000e+00	-2.689873e-01	1.225091e+00	4.168072e+01	5.807002e-12	2.540220e+05	1.013252e+05	2.881239e+02	9.998349e-02	2.596000e-04	0.000000e+00	
-1.948718e+00	-2.689873e-01	1.225091e+00	4.168072e+01	-2.301119e-11	2.540220e+05	1.013252e+05	2.881239e+02	9.998349e-02	2.596009e-04	0.000000e+00	
-2.000000e+00	-3.006329e-01	1.225091e+00	4.168072e+01	5.745597e-12	2.540220e+05	1.013252e+05	2.881239e+02	9.998349e-02	2.596000e-04	0.000000e+00	
-1.948718e+00	-3.006329e-01	1.225091e+00	4.168072e+01	-3.042449e-11	2.540220e+05	1.013252e+05	2.881239e+02	9.998349e-02	2.596009e-04	0.000000e+00	
-2.000000e+00	-3.322785e-01	1.225091e+00	4.168072e+01	5.865579e-12	2.540220e+05	1.013252e+05	2.881239e+02	9.998349e-02	2.596000e-04	0.000000e+00	
-1.948718e+00	-3.322785e-01	1.225091e+00	4.168072e+01	-3.811971e-11	2.540220e+05	1.013252e+05	2.881239e+02	9.998349e-02	2.596009e-04	0.000000e+00	
-2.000000e+00	-3.639241e-01	1.225091e+00	4.168072e+01	5.853089e-12	2.540220e+05	1.013252e+05	2.881239e+02	9.998349e-02	2.596000e-04	0.000000e+00	
-1.948718e+00	-3.639241e-01	1.225091e+00	4.168072e+01	-4.608474e-11	2.540220e+05	1.013252e+05	2.881239e+02	9.998349e-02	2.596009e-04	0.000000e+00	
-2.000000e+00	-3.955696e-01	1.225091e+00	4.168072e+01	5.993521e-12	2.540220e+05	1.013252e+05	2.881239e+02	9.998349e-02	2.596000e-04	0.000000e+00	
-1.948718e+00	-3.955696e-01	1.225091e+00	4.168072e+01	-5.449928e-11	2.540220e+05	1.013252e+05	2.881239e+02	9.998349e-02	2.596009e-04	0.000000e+00	
-2.000000e+00	-4.272152e-01	1.225091e+00	4.168072e+01	6.082757e-12	2.540220e+05	1.013252e+05	2.881239e+02	9.998349e-02	2.596000e-04	0.000000e+00	
-1.948718e+00	-4.272152e-01	1.225091e+00	4.168072e+01	-6.314025e-11	2.540220e+05	1.013252e+05	2.881239e+02	9.998349e-02	2.596009e-04	0.000000e+00	
-2.000000e+00	-4.588608e-01	1.225091e+00	4.168072e+01	6.157105e-12	2.540220e+05	1.013252e+05	2.881239e+02	9.998349e-02	2.596000e-04	0.000000e+00	
-1.948718e+00	-4.588608e-01	1.225091e+00	4.168072e+01	-7.233884e-11	2.540220e+05	1.013252e+05	2.881239e+02	9.998349e-02	2.596009e-04	0.000000e+00	
-2.000000e+00	-4.905063e-01	1.225091e+00	4.168072e+01	6.530646e-12	2.540220e+05	1.013252e+05	2.881239e+02	9.998349e-02	2.596000e-04	0.000000e+00	
-1.948718e+00	-4.905063e-01	1.225091e+00	4.168072e+01	-8.169224e-11	2.540220e+05	1.013252e+05	2.881239e+02	9.998349e-02	2.596009e-04	0.000000e+00	
-2.000000e+00	-5.221519e-01	1.225091e+00	4.168072e+01	6.610037e-12	2.540220e+05	1.013252e+05	2.881239e+02	9.998349e-02	2.596000e-04	0.000000e+00	
-1.948718e+00	-5.221519e-01	1.225091e+00	4.168072e+01	-9.200500e-11	2.540220e+05	1.013252e+05	2.881239e+02	9.998349e-02	2.596009e-04	0.000000e+00	
-2.000000e+00	-5.537975e-01	1.225091e+00	4.168072e+01	6.866516e-12	2.540220e+05	1.013252e+05	2.881239e+02	9.998349e-02	2.595999e-04	0.000000e+00	
-1.948718e+00	-5.537975e-01	1.225091e+00	4.168072e+01	-1.026306e-10	2.540220e+05	1.013252e+05	2.881239e+02	9.998349e-02	2.596009e-04	0.000000e+00	
-2.000000e+00	-5.854430e-01	1.225091e+00	4.168072e+01	6.961124e-12	2.540220e+05	1.013252e+05	2.881239e+02	9.998349e-02	2.595999e-04	0.000000e+00	
-1.948718e+00	-5.854430e-01	1.225091e+00	4.168072e+01	-1.141819e-10	2.540220e+05	1.013252e+05	2.881239e+02	9.998349e-02	2.596009e-04	0.000000e+00	
-2.000000e+00	-6.170886e-01	1.225091e+00	4.168072e+01	7.214613e-12	2.540220e+05	1.013252e+05	2.881239e+02	9.998349e-02	2.595999e-04	0.000000e+00	
-1.948718e+00	-6.170886e-01	1.225091e+00	4.168072e+01	-1.261848e-10	2.540220e+05	1.013252e+05	2.881239e+02	9.998349e-02	2.596009e-04	0.000000e+00	
-2.000000e+00	-6.487342e-01	1.225091e+00	4.168072e+01	7.273382e-12	2.540220e+05	1.013252e+05	2.881239e+02	9.998349e-02	2.595999e-04	0.000000e+00	
-1.948718e+00	-6.487342e-01	1.225091e+00	4.168072e+01	-1.391788e-10	2.540220e+05	1.013252e+05	2.881239e+02	9.998349e-02	2.596009e-04	0.000000e+00	
-2.000000e+00	-6.803797e-01	1.225091e+00	4.168072e+01	7.466392e-12	2.540220e+05	1.013252e+05	2.881239e+02	9.998349e-02	2.595999e-04	0.000000e+00	
-1.948718e+00	-6.803797e-01	1.225091e+00	4.168072e+01	-1.528326e-10	2.540220e+05	1.013252e+05	2.881239e+02	9.998349e-02	2.596009e-04	0.000000e+00	
-2.000000e+00	-7.120253e-01	1.225091e+00	4.168072e+01	7.772532e-12	2.540220e+05	1.013252e+05	2.881239e+02	9.998349e-02	2.595999e-04	0.000000e+00	
-1.948718e+00	-7.120253e-01	1.225091e+00	4.168072e+01	-1.675848e-10	2.540220e+05	1.013252e+05	2.881239e+02	9.998349e-02	2.596009e-04	0.000000e+00	
-2.000000e+00	-7.436709e-01	1.225091e+00	4.168072e+01	8.317782e-12	2.540220e+05	1.013252e+05	2.881239e+02	9.998349e-02	2.595999e-04	0.000000e+00	
-1.948718e+00	-7.436709e-01	1.225091e+00	4.168072e+01	-1.832419e-10	2.540220e+05	1.013252e+05	2.881239e+02	9.998349e-02	2.596009e-04	0.000000e+00	
-2.000000e+00	-7.753165e-01	1.225091e+00	4.168072e+01	8.752551e-12	2.540220e+05	1.013252e+05	2.881239e+02	9.998349e-02	2.595999e-04	0.000000e+00	
-1.948718e+00	-7.753165e-01	1.225091e+00	4.168072e+01	-2.001651e-10	2.540220e+05	1.013252e+05	2.881239e+02	9.998349e-02	2.596008e-04	0.000000e+00	
-2.000000e+00	-8.069620e-01	1.225091e+00	4.168072e+01	9.514934e-12	2.540220e+05	1.013252e+05	2.881239e+02	9.998349e-02	2.595999e-04	0.000000e+00	
-1.948718e+00	-8.069620e-01	1.225091e+00	4.168072e+01	-2.186052e-10	2.540220e+05	1.013252e+05	2.881239e+02	9.998349e-02	2.596008e-04	0.000000e+00	
-2.000000e+00	-8.386076e-01	1.225091e+00	4.168072e+01	1.030446e-11	2.540220e+05	1.013252e+05	2.881239e+02	9.998349e-02	2.595999e-04	0.000000e+00	
-1.948718e+00	-8.386076e-01	1.225091e+00	4.168072e+01	-2.388193e-10	2.540220e+05	1.013252e+05	2.881239e+02	9.998349e-02	2.596008e-04	0.000000e+00	
-2.000000e+00	-8.702532e-01	1.225091e+00	4.168072e+01	1.039627e-11	2.540220e+05	1.013252e+05	2.881239e+02	9.998349e-02	2.595999e-04	0.000000e+00	
-1.948718e+00	-8.702532e-01	1.225091e+00	4.168072e+01	-2.620320e-10	2.540220e+05	1.013252e+05	2.881239e+02	9.998349e-02	2.596008e-04	0.000000e+00	
-2.000000e+00	-9.018987e-01	1.225091e+00	4.168072e+01	9.290176e-12	2.540220e+05	1.013252e+05	2.881239e+02	9.998349e-02	2.595999e-04	0.000000e+00	
-1.948718e+00	-9.018987e-01	1.225091e+00	4.168072e+01	-2.888625e-10	2.540220e+05	1.013252e+05	2.881239e+02	9.998349e-02	2.596008e-04	0.000000e+00	
-2.000000e+00	-9.335443e-01	1.225091e+00	4.168072e+01	6.579435e-12	2.540220e+05	1.013252e+05	2.881239e+02	9.998349e-02	2.595999e-04	0.000000e+00	
-1.948718e+00	-9.335443e-01	1.225091e+00	4.168072e+01	-3.188738e-10	2.540220e+05	1.013252e+05	2.881239e+02	9.998349e-02	2.596008e-04	0.000000e+00	
-2.000000e+00	-9.651899e-01	1.225091e+00	4.168072e+01	3.374756e-12	2.540220e+05	1.013252e+05	2.881239e+02	9.998349e-02	2.595999e-04	0.000000e+00	
-1.948718e+00	-9.651899e-01	1.225091e+00	4.168072e+01	-3.504808e-10	2.540220e+05	1.013252e+05	2.881239e+02	9.998349e-02	2.596008e-04	0.000000e+00	
-2.000000e+00	-9.968354e-01	1.225091e+00	4.168072e+01	3.799328e-12	2.540220e+05	1.013252e+05	2.881239e+02	9.998349e-02	2.595999e-04	0.000000e+00	
-1.948718e+00	-9.968354e-01	1.225091e+00	4.168072e+01	-3.792521e-10	2.540220e+05	1.013252e+05	2.881239e+02	9.998349e-02	2.596008e-04	0.000000e+00	
-2.000000e+00	-1.028481e+00	1.225091e+00	4.168072e+01	8.934633e-12	2.540220e+05	1.013252e+05	2.881239e+02	9.998349e-02	2.595998e-04	0.000000e+00	
-1.948718e+00	-1.028481e+00	1.225091e+00	4.168072e+01	-4.099336e-10	2.540220e+05	1.013252e+05	2.881239e+02	9.998349e-02	2.596008e-04	0.000000e+00	
-2.000000e+00	-1.060127e+00	1.225091e+00	4.168072e+01	1.044074e-11	2.540220e+05	1.013252e+05	2.881239e+02	9.998349e-02	2.595998e-04	0.000000e+00	
-1.948718e+00	-1.060127e+00	1.225091e+00	4.168072e+01	-4.560343e-10	2.540220e+05	1.013252e+05	2.881239e+02	9.998349e-02	2.596008e-04	0.000000e+00	
-2.000000e+00	-1.091772e+00	1.225091e+00	4.168072e+01	-2.539223e-11	2.540220e+05	1.013252e+05	2.881239e+02	9.998349e-02	2.595998e-04	0.000000e+00	
-1.948718e+00	-1.091772e+00	1.225091e+00	4.168072e+01	-5.612321e-10	2.540220e+05	1.013252e+05	2.881239e+02	9.998349e-02	2.596008e-04	0.000000e+00	
-2.000000e+00	-1.123418e+00	1.225091e+00	4.168072e+01	-1.446274e-10	2.540220e+05	1.013252e+05	2.881239e+02	9.998349e-02	2.595998e-04	0.000000e+00	
-1.948718e+00	-1.123418e+00	1.225091e+00	4.168072e+01	-7.473517e-10	2.540220e+05	1.013252e+05	2.881239e+02	9.998349e-02	2.596007e-04	0.000000e+00	
-2.000000e+00	-1.155063e+00	1.225091e+00	4.168072e+01	-3.750396e-10	2.540220e+05	1.013252e+05	2.881239e+02	9.998349e-02	2.595998e-04	0.000000e+00	
-1.948718e+00	-1.155063e+00	1.225091e+00	4.168072e+01	-1.012029e-09	2.540220e+05	1.013252e+05	2.881239e+02	9.998349e-02	2.596007e-04	0.000000e+00	
-2.000000e+00	-1.186709e+00	1.225091e+00	4.168072e+01	-6.140892e-10	2.540220e+05	1.013252e+05	2.881239e+02	9.998349e-02	2.595997e-04	0.000000e+00	
-1.948718e+00	-1.186709e+00	1.225091e+00	4.168072e+01	-1.141646e-09	2.540220e+05	1.013252e+05	2.881239e+02	9.998349e-02	2.596007e-04	0.000000e+00	
-2.000000e+00	-1.218354e+00	1.225091e+00	4.168072e+01	-6.302442e-10	2.540220e+05	1.013252e+05	2.881239e+02	9.998349e-02	2.595997e-04	0.000000e+00	
-1.948718e+00	-1.218354e+00	1.225091e+00	4.168072e+01	-9.580312e-10	2.540220e+05	1.013252e+05	2.881239e+02	9.998349e-02	2.596007e-04	0.000000e+00	
-1.897436e+00	1.218354e+00	1.225091e+00	4.168072e+01	1.035159e-09	2.540220e+05	1.013252e+05	2.881239e+02	9.998349e-02	2.596015e-04	0.000000e+00	
-1.897436e+00	1.250000e+00	1.225091e+00	4.168072e+01	-8.204593e-11	2.540220e+05	1.013252e+05	2.881239e+02	9.998349e-02	2.596014e-04	0.000000e+00	
-1.897436e+00	1.186709e+00	1.225091e+00	4.168072e+01	1.470819e-09	2.540220e+05	1.013252e+05	2.881239e+02	9.998349e-02	2.596014e-04	0.000000e+00	
-1.897436e+00	1.155063e+00	1.225091e+00	4.168072e+01	1.460240e-09	2.540220e+05	1.013252e+05	2.881239e+02	9.998349e-02	2.596015e-04	0.000000e+00	
-1.897436e+00	1.123418e+00	1.225091e+00	4.168072e+01	1.186699e-09	2.540220e+05	1.013252e+05	2.881239e+02	9.998349e-02	2.596015e-04	0.000000e+00	
-1.897436e+00	1.091772e+00	1.225091e+00	4.168072e+01	9.364452e-10	2.540220e+05	1.013252e+05	2.881239e+02	9.998349e-02	2.596015e-04	0.000000e+00	
-1.897436e+00	1.060127e+00	1.225091e+00	4.168072e+01	7.615611e-10	2.540220e+05	1.013252e+05	2.881239e+02	9.998349e-02	2.596015e-04	0.000000e+00	
-1.897436e+00	1.028481e+00	1.225091e+00	4.168072e+01	6.693645e-10	2.540220e+05	1.013252e+05	2.881239e+02	9.998349e-02	2.596015e-04	0.000000e+00	
-1.897436e+00	9.968354e-01	1.225091e+00	4.168072e+01	6.106577e-10	2.540220e+05	1.013252e+05	2.881239e+02	9.998349e-02	2.596015e-04	0.000000e+00	
-1.897436e+00	9.651899e-01	1.225091e+00	4.168072e+01	5.640232e-10	2.540220e+05	1.013252e+05	2.881239e+02	9.998349e-02	2.596015e-04	0.000000e+00	
-1.897436e+00	9.335443e-01	1.225091e+00	4.168072e+01	5.168684e-10	2.540220e+05	1.013252e+05	2.881239e+02	9.998349e-02	2.596015e-04	0.000000e+00	
-1.897436e+00	9.018987e-01	1.225091e+00	4.168072e+01	4.718597e-10	2.540220e+05	1.013252e+05	2.881239e+02	9.998349e-02	2.596015e-04	0.000000e+00	
-1.897436e+00	8.702532e-01	1.225091e+00	4.168072e+01	4.309379e-10	2.540220e+05	1.013252e+05	2.881239e+02	9.998349e-02	2.596015e-04	0.000000e+00	
-1.897436e+00	8.386076e-01	1.225091e+00	4.168072e+01	3.958982e-10	2.540220e+05	1.013252e+05	2.881239e+02	9.998349e-02	2.596015e-04	0.000000e+00	
-1.897436e+00	8.069620e-01	1.225091e+00	4.168072e+01	3.659269e-10	2.540220e+05	1.013252e+05	2.881239e+02	9.998349e-02	2.596015e-04	0.000000e+00	
-1.897436e+00	7.753165e-01	1.225091e+00	4.168072e+01	3.401210e-10	2.540220e+05	1.013252e+05	2.881239e+02	9.998349e-02	2.596015e-04	0.000000e+00	
-1.897436e+00	7.436709e-01	1.225091e+00	4.168072e+01	3.171943e-10	2.540220e+05	1.013252e+05	2.881239e+02	9.998349e-02	2.596015e-04	0.000000e+00	
-1.897436e+00	7.120253e-01	1.225091e+00	4.168072e+01	2.970089e-10	2.540220e+05	1.013252e+05	2.881239e+02	9.998349e-02	2.596016e-04	0.000000e+00	
-1.897436e+00	6.803797e-01	1.225091e+00	4.168072e+01	2.787394e-10	2.540220e+05	1.013252e+05	2.881239e+02	9.998349e-02	2.596016e-04	0.000000e+00	
-1.897436e+00	6.487342e-01	1.225091e+00	4.168072e+01	2.623548e-10	2.540220e+05	1.013252e+05	2.881239e+02	9.998349e-02	2.596016e-04	0.000000e+00	
-1.897436e+00	6.170886e-01	1.225091e+00	4.168072e+01	2.473276e-10	2.540220e+05	1.013252e+05	2.881239e+02	9.998349e-02	2.596016e-04	0.000000e+00	
-1.897436e+00	5.854430e-01	1.225091e+00	4.168072e+01	2.336480e-10	2.540220e+05	1.013252e+05	2.881239e+02	9.998349e-02	2.596016e-04	0.000000e+00	
-1.897436e+00	5.537975e-01	1.225091e+00	4.168072e+01	2.211477e-10	2.540220e+05	1.013252e+05	2.881239e+02	9.998349e-02	2.596016e-04	0.000000e+00	
-1.897436e+00	5.221519e-01	1.225091e+00	4.168072e+01	2.093415e-10	2.540220e+05	1.013252e+05	2.881239e+02	9.998349e-02	2.596016e-04	0.000000e+00	
-1.897436e+00	4.905063e-01	1.225091e+00	4.168072e+01	1.986134e-10	2.540220e+05	1.013252e+05	2.881239e+02	9.998349e-02	2.596016e-04	0.000000e+00	
-1.897436e+00	4.588608e-01	1.225091e+00	4.168072e+01	1.881876e-10	2.540220e+05	1.013252e+05	2.881239e+02	9.998349e-02	2.596016e-04	0.000000e+00	
-1.897436e+00	4.272152e-01	1.225091e+00	4.168072e+01	1.783256e-10	2.540220e+05	1.013252e+05	2.881239e+02	9.998349e-02	2.596016e-04	0.000000e+00	
-1.897436e+00	3.955696e-01	1.225091e+00	4.168072e+01	1.687659e-10	2.540220e+05	1.013252e+05	2.881239e+02	9.998349e-02	2.596016e-04	0.000000e+00	
-1.897436e+00	3.639241e-01	1.225091e+00	4.168072e+01	1.595371e-10	2.540220e+05	1.013252e+05	2.881239e+02	9.998349e-02	2.596016e-04	0.000000e+00	
-1.897436e+00	3.322785e-01	1.225091e+00	4.168072e+01	1.503651e-10	2.540220e+05	1.013252e+05	2.881239e+02	9.998349e-02	2.596016e-04	0.000000e+00	
-1.897436e+00	3.006329e-01	1.225091e+00	4.168072e+01	1.415441e-10	2.540220e+05	1.013252e+05	2.881239e+02	9.998349e-02	2.596016e-04	0.000000e+00	
-1.897436e+00	2.689873e-01	1.225091e+00	4.168072e+01	1.324660e-10	2.540220e+05	1.013252e+05	2.881239e+02	9.998349e-02	2.596016e-04	0.000000e+00	
-1.897436e+00	2.373418e-01	1.225091e+00	4.168072e+01	1.236408e-10	2.540220e+05	1.013252e+05	2.881239e+02	9.998349e-02	2.596016e-04	0.000000e+00	
-1.897436e+00	2.056962e-01	1.225091e+00	4.168072e+01	1.146227e-10	2.540220e+05	1.013252e+05	2.881239e+02	9.998349e-02	2.596016e-04	0.000000e+00	
-1.897436e+00	1.740506e-01	1.225091e+00	4.168072e+01	1.056334e-10	2.540220e+05	1.013252e+05	2.881239e+02	9.998349e-02	2.596016e-04	0.000000e+00	
-1.897436e+00	1.424051e-01	1.225091e+00	4.168072e+01	9.650162e-11	2.540220e+05	1.013252e+05	2.881239e+02	9.998349e-02	2.596016e-04	0.000000e+00	
-1.897436e+00	1.107595e-01	1.225091e+00	4.168072e+01	8.718895e-11	2.540220e+05	1.013252e+05	2.881239e+02	9.998349e-02	2.596016e-04	0.000000e+00	
-1.897436e+00	7.911392e-02	1.225091e+00	4.168072e+01	7.767344e-11	2.540220e+05	1.013252e+05	2.881239e+02	9.998349e-02	2.596016e-04	0.000000e+00	
-1.897436e+00	4.746835e-02	1.225091e+00	4.168072e+01	6.778409e-11	2.540220e+05	1.013252e+05	2.881239e+02	9.998349e-02	2.596016e-04	0.000000e+00	
-1.897436e+00	1.582278e-02	1.225091e+00	4.168072e+01	5.755752e-11	2.540220e+05	1.013252e+05	2.881239e+02	9.998349e-02	2.596016e-04	0.000000e+00	
-1.897436e+00	-1.582278e-02	1.225091e+00	4.168072e+01	4.709178e-11	2.540220e+05	1.013252e+05	2.881239e+02	9.998349e-02	2.596016e-04	0.000000e+00	
-1.897436e+00	-4.746835e-02	1.225091e+00	4.168072e+01	3.630998e-11	2.540220e+05	1.013252e+05	2.881239e+02	9.998349e-02	2.596016e-04	0.000000e+00	
-1.897436e+00	-7.911392e-02	1.225091e+00	4.168072e+01	2.521909e-11	2.540220e+05	1.013252e+05	2.881239e+02	9.998349e-02	2.596016e-04	0.000000e+00	
-1.897436e+00	-1.107595e-01	1.225091e+00	4.168072e+01	1.357566e-11	2.540220e+05	1.013252e+05	2.881239e+02	9.998349e-02	2.596016e-04	0.000000e+00	
-1.897436e+00	-1.424051e-01	1.225091e+00	4.168072e+01	1.628958e-12	2.540220e+05	1.013252e+05	2.881239e+02	9.998349e-02	2.596016e-04	0.000000e+00	
-1.897436e+00	-1.740506e-01	1.225091e+00	4.168072e+01	-1.086839e-11	2.540220e+05	1.013252e+05	2.881239e+02	9.998349e-02	2.596016e-04	0.000000e+00	