TITLE = "Visualization of the volumetric solution"
VARIABLES = "x","y","Density","Momentum_x","Momentum_y","Energy","Pressure","Temperature","Mach","C<sub>p</sub>","Roe_Dissipation"
ZONE NODES= 3200, ELEMENTS= 3081, DATAPACKING=POINT, ZONETYPE=FEQUADRILATERAL
1.000000e+00	1.250000e+00	1.225090e+00	4.168072e+01	6.684068e-01	2.540217e+05	1.013250e+05	2.881238e+02	9.999650e-02	-7.250792e-08	0.000000e+00	
1.000000e+00	1.218354e+00	1.225090e+00	4.168072e+01	6.684067e-01	2.540217e+05	1.013250e+05	2.881238e+02	9.999650e-02	-1.115024e-07	0.000000e+00	
1.051282e+00	1.218354e+00	1.225090e+00	4.168072e+01	6.684066e-01	2.540217e+05	1.013250e+05	2.881238e+02	9.999650e-02	-7.990752e-08	0.000000e+00	
1.051282e+00	1.250000e+00	1.225090e+00	4.168072e+01	6.684066e-01	2.540217e+05	1.013250e+05	2.881238e+02	9.999650e-02	-7.071499e-08	0.000000e+00	
1.000000e+00	1.186709e+00	1.225090e+00	4.168072e+01	6.684066e-01	2.540217e+05	1.013250e+05	2.881238e+02	9.999650e-02	-8.781279e-08	0.000000e+00	
1.051282e+00	1.186709e+00	1.225090e+00	4.168072e+01	6.684065e-01	2.540217e+05	1.013250e+05	2.881238e+02	9.999650e-02	-7.290024e-08	0.000000e+00	
1.000000e+00	1.155063e+00	1.225090e+00	4.168072e+01	6.684064e-01	2.540217e+05	1.013250e+05	2.881238e+02	9.999650e-02	-8.371618e-08	0.000000e+00	
1.051282e+00	1.155063e+00	1.225090e+00	4.168072e+01	6.684065e-01	2.540217e+05	1.013250e+05	2.881238e+02	9.999650e-02	-7.680685e-08	0.000000e+00	
1.000000e+00	1.123418e+00	1.225090e+00	4.168072e+01	6.684064e-01	2.540217e+05	1.013250e+05	2.881238e+02	9.999650e-02	-7.824916e-08	0.000000e+00	
1.051282e+00	1.123418e+00	1.225090e+00	4.168072e+01	6.684064e-01	2.540217e+05	1.013250e+05	2.881238e+02	9.999650e-02	-7.405309e-08	0.000000e+00	
1.000000e+00	1.091772e+00	1.225090e+00	4.168072e+01	6.684064e-01	2.540217e+05	1.013250e+05	2.881238e+02	9.999650e-02	-7.592703e-08	0.000000e+00	
1.051282e+00	1.091772e+00	1.225090e+00	4.168072e+01	6.684064e-01	2.540217e+05	1.013250e+05	2.881238e+02	9.999650e-02	-7.431867e-08	0.000000e+00	
1.000000e+00	1.060127e+00	1.225090e+00	4.168072e+01	6.684064e-01	2.540217e+05	1.013250e+05	2.881238e+02	9.999650e-02	-7.523560e-08	0.000000e+00	
1.051282e+00	1.060127e+00	1.225090e+00	4.168072e+01	6.684064e-01	2.540217e+05	1.013250e+05	2.881238e+02	9.999650e-02	-7.350351e-08	0.000000e+00	
1.000000e+00	1.028481e+00	1.225090e+00	4.168072e+01	6.684064e-01	2.540217e+05	1.013250e+05	2.881238e+02	9.999650e-02	-7.471924e-08	0.000000e+00	
1.051282e+00	1.028481e+00	1.225090e+00	4.168072e+01	6.684064e-01	2.540217e+05	1.013250e+05	2.881238e+02	9.999650e-02	-7.322319e-08	0.000000e+00	
1.000000e+00	9.968354e-01	1.225090e+00	4.168072e+01	6.684064e-01	2.540217e+05	1.013250e+05	2.881238e+02	9.999650e-02	-7.438759e-08	0.000000e+00	
1.051282e+00	9.968354e-01	1.225090e+00	4.168072e+01	6.684064e-01	2.540217e+05	1.013250e+05	2.881238e+02	9.999650e-02	-7.282677e-08	0.000000e+00	
1.000000e+00	9.651899e-01	1.225090e+00	4.168072e+01	6.684064e-01	2.540217e+05	1.013250e+05	2.881238e+02	9.999650e-02	-7.411224e-08	0.000000e+00	
1.051282e+00	9.651899e-01	1.225090e+00	4.168072e+01	6.684064e-01	2.540217e+05	1.013250e+05	2.881238e+02	9.999650e-02	-7.258172e-08	0.000000e+00	
1.000000e+00	9.335443e-01	1.225090e+00	4.168072e+01	6.684064e-01	2.540217e+05	1.013250e+05	2.881238e+02	9.999650e-02	-7.393231e-08	0.000000e+00	
1.051282e+00	9.335443e-01	1.225090e+00	4.168072e+01	6.684064e-01	2.540217e+05	1.013250e+05	2.881238e+02	9.999650e-02	-7.234143e-08	0.000000e+00	
1.000000e+00	9.018987e-01	1.225090e+00	4.168072e+01	6.684064e-01	2.540217e+05	1.013250e+05	2.881238e+02	9.999650e-02	-7.379277e-08	0.000000e+00	
1.051282e+00	9.018987e-01	1.225090e+00	4.168072e+01	6.684064e-01	2.540217e+05	1.013250e+05	2.881238e+02	9.999650e-02	-7.216031e-08	0.000000e+00	
1.000000e+00	8.702532e-01	1.225090e+00	4.168072e+01	6.684064e-01	2.540217e+05	1.013250e+05	2.881238e+02	9.999650e-02	-7.367523e-08	0.000000e+00	
1.051282e+00	8.702532e-01	1.225090e+00	4.168072e+01	6.684064e-01	2.540217e+05	1.013250e+05	2.881238e+02	9.999650e-02	-7.199248e-08	0.000000e+00	
1.000000e+00	8.386076e-01	1.225090e+00	4.168072e+01	6.684064e-01	2.540217e+05	1.013250e+05	2.881238e+02	9.999650e-02	-7.356612e-08	0.000000e+00	
1.051282e+00	8.386076e-01	1.225090e+00	4.168072e+01	6.684064e-01	2.540217e+05	1.013250e+05	2.881238e+02	9.999650e-02	-7.185342e-08	0.000000e+00	
1.000000e+00	8.069620e-01	1.225090e+00	4.168072e+01	6.684064e-01	2.540217e+05	1.013250e+05	2.881238e+02	9.999650e-02	-7.346701e-08	0.000000e+00	
1.051282e+00	8.069620e-01	1.225090e+00	4.168072e+01	6.684064e-01	2.540217e+05	1.013250e+05	2.881238e+02	9.999650e-02	-7.172833e-08	0.000000e+00	
1.000000e+00	7.753165e-01	1.225090e+00	4.168072e+01	6.684064e-01	2.540217e+05	1.013250e+05	2.881238e+02	9.999650e-02	-7.338098e-08	0.000000e+00	
1.051282e+00	7.753165e-01	1.225090e+00	4.168072e+01	6.684064e-01	2.540217e+05	1.013250e+05	2.881238e+02	9.999650e-02	-7.162250e-08	0.000000e+00	
1.000000e+00	7.436709e-01	1.225090e+00	4.168072e+01	6.684064e-01	2.540217e+05	1.013250e+05	2.881238e+02	9.999650e-02	-7.330638e-08	0.000000e+00	
1.051282e+00	7.436709e-01	1.225090e+00	4.168072e+01	6.684064e-01	2.540217e+05	1.013250e+05	2.881238e+02	9.999650e-02	-7.152883e-08	0.000000e+00	
1.000000e+00	7.120253e-01	1.225090e+00	4.168072e+01	6.684064e-01	2.540217e+05	1.013250e+05	2.881238e+02	9.999650e-02	-7.324057e-08	0.000000e+00	
1.051282e+00	7.120253e-01	1.225090e+00	4.168072e+01	6.684064e-01	2.540217e+05	1.013250e+05	2.881238e+02	9.999650e-02	-7.144733e-08	0.000000e+00	
1.000000e+00	6.803797e-01	1.225090e+00	4.168072e+01	6.684064e-01	2.540217e+05	1.013250e+05	2.881238e+02	9.999650e-02	-7.317912e-08	0.000000e+00	
1.051282e+00	6.803797e-01	1.225090e+00	4.168072e+01	6.684064e-01	2.540217e+05	1.013250e+05	2.881238e+02	9.999650e-02	-7.137360e-08	0.000000e+00	
1.000000e+00	6.487342e-01	1.225090e+00	4.168072e+01	6.684064e-01	2.540217e+05	1.013250e+05	2.881238e+02	9.999650e-02	-7.312038e-08	0.000000e+00	
1.051282e+00	6.487342e-01	1.225090e+00	4.168072e+01	6.684064e-01	2.540217e+05	1.013250e+05	2.881238e+02	9.999650e-02	-7.130665e-08	0.000000e+00	
1.000000e+00	6.170886e-01	1.225090e+00	4.168072e+01	6.684064e-01	2.540217e+05	1.013250e+05	2.881238e+02	9.999650e-02	-7.306339e-08	0.000000e+00	
1.051282e+00	6.170886e-01	1.225090e+00	4.168072e+01	6.684064e-01	2.540217e+05	1.013250e+05	2.881238e+02	9.999650e-02	-7.124438e-08	0.000000e+00	
1.000000e+00	5.854430e-01	1.225090e+00	4.168072e+01	6.684064e-01	2.540217e+05	1.013250e+05	2.881238e+02	9.999650e-02	-7.300871e-08	0.000000e+00	
1.051282e+00	5.854430e-01	1.225090e+00	4.168072e+01	6.684064e-01	2.540217e+05	1.013250e+05	2.881238e+02	9.999650e-02	-7.118642e-08	0.000000e+00	
1.000000e+00	5.537975e-01	1.225090e+00	4.168072e+01	6.684064e-01	2.540217e+05	1.013250e+05	2.881238e+02	9.999650e-02	-7.295682e-08	0.000000e+00	
1.051282e+00	5.537975e-01	1.225090e+00	4.168072e+01	6.684064e-01	2.540217e+05	1.013250e+05	2.881238e+02	9.999650e-02	-7.113214e-08	0.000000e+00	
1.000000e+00	5.221519e-01	1.225090e+00	4.168072e+01	6.684064e-01	2.540217e+05	1.013250e+05	2.881238e+02	9.999650e-02	-7.290799e-08	0.000000e+00	
1.051282e+00	5.221519e-01	1.225090e+00	4.168072e+01	6.684064e-01	2.540217e+05	1.013250e+05	2.881238e+02	9.999650e-02	-7.108132e-08	0.000000e+00	
1.000000e+00	4.905063e-01	1.225090e+00	4.168072e+01	6.684064e-01	2.540217e+05	1.013250e+05	2.881238e+02	9.999650e-02	-7.286206e-08	0.000000e+00	
1.051282e+00	4.905063e-01	1.225090e+00	4.168072e+01	6.684064e-01	2.540217e+05	1.013250e+05	2.881238e+02	9.999650e-02	-7.103347e-08	0.000000e+00	
1.000000e+00	4.588608e-01	1.225090e+00	4.168072e+01	6.684064e-01	2.540217e+05	1.013250e+05	2.881238e+02	9.999650e-02	-7.281866e-08	0.000000e+00	
1.051282e+00	4.588608e-01	1.225090e+00	4.168072e+01	6.684064e-01	2.540217e+05	1.013250e+05	2.881238e+02	9.999650e-02	-7.098844e-08	0.000000e+00	
1.000000e+00	4.272152e-01	1.225090e+00	4.168072e+01	6.684064e-01	2.540217e+05	1.013250e+05	2.881238e+02	9.999650e-02	-7.277741e-08	0.000000e+00	
1.051282e+00	4.272152e-01	1.225090e+00	4.168072e+01	6.684064e-01	2.540217e+05	1.013250e+05	2.881238e+02	9.999650e-02	-7.094572e-08	0.000000e+00	
1.000000e+00	3.955696e-01	1.225090e+00	4.168072e+01	6.684064e-01	2.540217e+05	1.013250e+05	2.881238e+02	9.999650e-02	-7.273801e-08	0.000000e+00	
1.051282e+00	3.955696e-01	1.225090e+00	4.168072e+01	6.684064e-01	2.540217e+05	1.013250e+05	2.881238e+02	9.999650e-02	-7.090512e-08	0.000000e+00	
1.000000e+00	3.639241e-01	1.225090e+00	4.168072e+01	6.684064e-01	2.540217e+05	1.013250e+05	2.881238e+02	9.999650e-02	-7.270024e-08	0.000000e+00	
1.051282e+00	3.639241e-01	1.225090e+00	4.168072e+01	6.684064e-01	2.540217e+05	1.013250e+05	2.881238e+02	9.999650e-02	-7.086630e-08	0.000000e+00	
1.000000e+00	3.322785e-01	1.225090e+00	4.168072e+01	6.684064e-01	2.540217e+05	1.013250e+05	2.881238e+02	9.999650e-02	-7.266401e-08	0.000000e+00	
1.051282e+00	3.322785e-01	1.225090e+00	4.168072e+01	6.684064e-01	2.540217e+05	1.013250e+05	2.881238e+02	9.999650e-02	-7.082921e-08	0.000000e+00	
1.000000e+00	3.006329e-01	1.225090e+00	4.168072e+01	6.684064e-01	2.540217e+05	1.013250e+05	2.881238e+02	9.999650e-02	-7.262913e-08	0.000000e+00	
1.051282e+00	3.006329e-01	1.225090e+00	4.168072e+01	6.684064e-01	2.540217e+05	1.013250e+05	2.881238e+02	9.999650e-02	-7.079351e-08	0.000000e+00	
1.000000e+00	2.689873e-01	1.225090e+00	4.168072e+01	6.684064e-01	2.540217e+05	1.013250e+05	2.881238e+02	9.999650e-02	-7.259546e-08	0.000000e+00	
1.051282e+00	2.689873e-01	1.225090e+00	4.168072e+01	6.684064e-01	2.540217e+05	1.013250e+05	2.881238e+02	9.999650e-02	-7.075908e-08	0.000000e+00	
1.000000e+00	2.373418e-01	1.225090e+00	4.168072e+01	6.684064e-01	2.540217e+05	1.013250e+05	2.881238e+02	9.999650e-02	-7.256290e-08	0.000000e+00	
1.051282e+00	2.373418e-01	1.225090e+00	4.168072e+01	6.684064e-01	2.540217e+05	1.013250e+05	2.881238e+02	9.999650e-02	-7.072585e-08	0.000000e+00	
1.000000e+00	2.056962e-01	1.225090e+00	4.168072e+01	6.684064e-01	2.540217e+05	1.013250e+05	2.881238e+02	9.999650e-02	-7.253135e-08	0.000000e+00	
1.051282e+00	2.056962e-01	1.225090e+00	4.168072e+01	6.684064e-01	2.540217e+05	1.013250e+05	2.881238e+02	9.999650e-02	-7.069364e-08	0.000000e+00	
1.000000e+00	1.740506e-01	1.225090e+00	4.168072e+01	6.684064e-01	2.540217e+05	1.013250e+05	2.881238e+02	9.999650e-02	-7.250064e-08	0.000000e+00	
1.051282e+00	1.740506e-01	1.225090e+00	4.168072e+01	6.684064e-01	2.540217e+05	1.013250e+05	2.881238e+02	9.999650e-02	-7.066225e-08	0.000000e+00	
1.000000e+00	1.424051e-01	1.225090e+00	4.168072e+01	6.684064e-01	2.540217e+05	1.013250e+05	2.881238e+02	9.999650e-02	-7.247064e-08	0.000000e+00	
1.051282e+00	1.424051e-01	1.225090e+00	4.168072e+01	6.684064e-01	2.540217e+05	1.013250e+05	2.881238e+02	9.999650e-02	-7.063168e-08	0.000000e+00	
1.000000e+00	1.107595e-01	1.225090e+00	4.168072e+01	6.684064e-01	2.540217e+05	1.013250e+05	2.881238e+02	9.999650e-02	-7.244138e-08	0.000000e+00	
1.051282e+00	1.107595e-01	1.225090e+00	4.168072e+01	6.684064e-01	2.540217e+05	1.013250e+05	2.881238e+02	9.999650e-02	-7.060174e-08	0.000000e+00	
1.000000e+00	7.911392e-02	1.225090e+00	4.168072e+01	6.684064e-01	2.540217e+05	1.013250e+05	2.881238e+02	9.999650e-02	-7.241260e-08	0.000000e+00	
1.051282e+00	7.911392e-02	1.225090e+00	4.168072e+01	6.684064e-01	2.540217e+05	1.013250e+05	2.881238e+02	9.999650e-02	-7.057236e-08	0.000000e+00	
1.000000e+00	4.746835e-02	1.225090e+00	4.168072e+01	6.684064e-01	2.540217e+05	1.013250e+05	2.881238e+02	9.999650e-02	-7.238425e-08	0.000000e+00	
1.051282e+00	4.746835e-02	1.225090e+00	4.168072e+01	6.684064e-01	2.540217e+05	1.013250e+05	2.881238e+02	9.999650e-02	-7.054345e-08	0.000000e+00	
1.000000e+00	1.582278e-02	1.225090e+00	4.168072e+01	6.684064e-01	2.540217e+05	1.013250e+05	2.881238e+02	9.999650e-02	-7.235626e-08	0.000000e+00	
1.051282e+00	1.582278e-02	1.225090e+00	4.168072e+01	6.684064e-01	2.540217e+05	1.013250e+05	2.881238e+02	9.999650e-02	-7.051483e-08	0.000000e+00	
1.000000e+00	-1.582278e-02	1.225090e+00	4.168072e+01	6.684064e-01	2.540217e+05	1.013250e+05	2.881238e+02	9.999650e-02	-7.232850e-08	0.000000e+00	
1.051282e+00	-1.582278e-02	1.225090e+00	4.168072e+01	6.684064e-01	2.540217e+05	1.013250e+05	2.881238e+02	9.999650e-02	-7.048652e-08	0.000000e+00	
1.000000e+00	-4.746835e-02	1.225090e+00	4.168072e+01	6.684064e-01	2.540217e+05	1.013250e+05	2.881238e+02	9.999650e-02	-7.230097e-08	0.000000e+00	
1.051282e+00	-4.746835e-02	1.225090e+00	4.168072e+01	6.684064e-01	2.540217e+05	1.013250e+05	2.881238e+02	9.999650e-02	-7.045831e-08	0.000000e+00	
1.000000e+00	-7.911392e-02	1.225090e+00	4.168072e+01	6.684064e-01	2.540217e+05	1.013250e+05	2.881238e+02	9.999650e-02	-7.227350e-08	0.000000e+00	
1.051282e+00	-7.911392e-02	1.225090e+00	4.168072e+01	6.684064e-01	2.540217e+05	1.013250e+05	2.881238e+02	9.999650e-02	-7.043014e-08	0.000000e+00	
1.000000e+00	-1.107595e-01	1.225090e+00	4.168072e+01	6.684064e-01	2.540217e+05	1.013250e+05	2.881238e+02	9.999650e-02	-7.224592e-08	0.000000e+00	
1.051282e+00	-1.107595e-01	1.225090e+00	4.168072e+01	6.684064e-01	2.540217e+05	1.013250e+05	2.881238e+02	9.999650e-02	-7.040195e-08	0.000000e+00	
1.000000e+00	-1.424051e-01	1.225090e+00	4.168072e+01	6.684064e-01	2.540217e+05	1.013250e+05	2.881238e+02	9.999650e-02	-7.221831e-08	0.000000e+00	
1.051282e+00	-1.424051e-01	1.225090e+00	4.168072e+01	6.684064e-01	2.540217e+05	1.013250e+05	2.881238e+02	9.999650e-02	-7.037364e-08	0.000000e+00	
1.000000e+00	-1.740506e-01	1.225090e+00	4.168072e+01	6.684064e-01	2.540217e+05	1.013250e+05	2.881238e+02	9.999650e-02	-7.219047e-08	0.000000e+00	
1.051282e+00	-1.740506e-01	1.225090e+00	4.168072e+01	6.684064e-01	2.540217e+05	1.013250e+05	2.881238e+02	9.999650e-02	-7.034506e-08	0.000000e+00	
1.000000e+00	-2.056962e-01	1.225090e+00	4.168072e+01	6.684064e-01	2.540217e+05	1.013250e+05	2.881238e+02	9.999650e-02	-7.216234e-08	0.000000e+00	
1.051282e+00	-2.056962e-01	1.225090e+00	4.168072e+01	6.684064e-01	2.540217e+05	1.013250e+05	2.881238e+02	9.999650e-02	-7.031615e-08	0.000000e+00	
1.000000e+00	-2.373418e-01	1.225090e+00	4.168072e+01	6.684064e-01	2.540217e+05	1.013250e+05	2.881238e+02	9.999650e-02	-7.213368e-08	0.000000e+00	
1.051282e+00	-2.373418e-01	1.225090e+00	4.168072e+01	6.684064e-01	2.540217e+05	1.013250e+05	2.881238e+02	9.999650e-02	-7.028673e-08	0.000000e+00	
1.000000e+00	-2.689873e-01	1.225090e+00	4.168072e+01	6.684064e-01	2.540217e+05	1.013250e+05	2.881238e+02	9.999650e-02	-7.210450e-08	0.000000e+00	
1.051282e+00	-2.689873e-01	1.225090e+00	4.168072e+01	6.684064e-01	2.540217e+05	1.013250e+05	2.881238e+02	9.999650e-02	-7.025669e-08	0.000000e+00	
1.000000e+00	-3.006329e-01	1.225090e+00	4.168072e+01	6.684064e-01	2.540217e+05	1.013250e+05	2.881238e+02	9.999650e-02	-7.207465e-08	0.000000e+00	
1.051282e+00	-3.006329e-01	1.225090e+00	4.168072e+01	6.684064e-01	2.540217e+05	1.013250e+05	2.881238e+02	9.999650e-02	-7.022590e-08	0.000000e+00	
1.000000e+00	-3.322785e-01	1.225090e+00	4.168072e+01	6.684064e-01	2.540217e+05	1.013250e+05	2.881238e+02	9.999650e-02	-7.204400e-08	0.000000e+00	
1.051282e+00	-3.322785e-01	1.225090e+00	4.168072e+01	6.684064e-01	2.540217e+05	1.013250e+05	2.881238e+02	9.999650e-02	-7.019426e-08	0.000000e+00	
1.000000e+00	-3.639241e-01	1.225090e+00	4.168072e+01	6.684064e-01	2.540217e+05	1.013250e+05	2.881238e+02	9.999650e-02	-7.201246e-08	0.000000e+00	
1.051282e+00	-3.639241e-01	1.225090e+00	4.168072e+01	6.684064e-01	2.540217e+05	1.013250e+05	2.881238e+02	9.999650e-02	-7.016160e-08	0.000000e+00	
1.000000e+00	-3.955696e-01	1.225090e+00	4.168072e+01	6.684064e-01	2.540217e+05	1.013250e+05	2.881238e+02	9.999650e-02	-7.197990e-08	0.000000e+00	
1.051282e+00	-3.955696e-01	1.225090e+00	4.168072e+01	6.684064e-01	2.540217e+05	1.013250e+05	2.881238e+02	9.999650e-02	-7.012771e-08	0.000000e+00	
1.000000e+00	-4.272152e-01	1.225090e+00	4.168072e+01	6.684064e-01	2.540217e+05	1.013250e+05	2.881238e+02	9.999650e-02	-7.194620e-08	0.000000e+00	
1.051282e+00	-4.272152e-01	1.225090e+00	4.168072e+01	6.684064e-01	2.540217e+05	1.013250e+05	2.881238e+02	9.999650e-02	-7.009240e-08	0.000000e+00	
1.000000e+00	-4.588608e-01	1.225090e+00	4.168072e+01	6.684064e-01	2.540217e+05	1.013250e+05	2.881238e+02	9.999650e-02	-7.191101e-08	0.000000e+00	
1.051282e+00	-4.588608e-01	1.225090e+00	4.168072e+01	6.684064e-01	2.540217e+05	1.013250e+05	2.881238e+02	9.999650e-02	-7.005532e-08	0.000000e+00	
1.000000e+00	-4.905063e-01	1.225090e+00	4.168072e+01	6.684064e-01	2.540217e+05	1.013250e+05	2.881238e+02	9.999650e-02	-7.187406e-08	0.000000e+00	
1.051282e+00	-4.905063e-01	1.225090e+00	4.168072e+01	6.684064e-01	2.540217e+05	1.013250e+05	2.881238e+02	9.999650e-02	-7.001632e-08	0.000000e+00	
1.000000e+00	-5.221519e-01	1.225090e+00	4.168072e+01	6.684064e-01	2.540217e+05	1.013250e+05	2.881238e+02	9.999650e-02	-7.183500e-08	0.000000e+00	
1.051282e+00	-5.221519e-01	1.225090e+00	4.168072e+01	6.684064e-01	2.540217e+05	1.013250e+05	2.881238e+02	9.999650e-02	-6.997500e-08	0.000000e+00	
1.000000e+00	-5.537975e-01	1.225090e+00	4.168072e+01	6.684064e-01	2.540217e+05	1.013250e+05	2.881238e+02	9.999650e-02	-7.179343e-08	0.000000e+00	
1.051282e+00	-5.537975e-01	1.225090e+00	4.168072e+01	6.684064e-01	2.540217e+05	1.013250e+05	2.881238e+02	9.999650e-02	-6.993110e-08	0.000000e+00	
1.000000e+00	-5.854430e-01	1.225090e+00	4.168072e+01	6.684064e-01	2.540217e+05	1.013250e+05	2.881238e+02	9.999650e-02	-7.174934e-08	0.000000e+00	
1.051282e+00	-5.854430e-01	1.225090e+00	4.168072e+01	6.684064e-01	2.540217e+05	1.013250e+05	2.881238e+02	9.999650e-02	-6.988419e-08	0.000000e+00	
1.000000e+00	-6.170886e-01	1.225090e+00	4.168072e+01	6.684064e-01	2.540217e+05	1.013250e+05	2.881238e+02	9.999650e-02	-7.170322e-08	0.000000e+00	
1.051282e+00	-6.170886e-01	1.225090e+00	4.168072e+01	6.684064e-01	2.540217e+05	1.013250e+05	2.881238e+02	9.999650e-02	-6.983424e-08	0.000000e+00	
1.000000e+00	-6.487342e-01	1.225090e+00	4.168072e+01	6.684064e-01	2.540217e+05	1.013250e+05	2.881238e+02	9.999650e-02	-7.165552e-08	0.000000e+00	
1.051282e+00	-6.487342e-01	1.225090e+00	4.168072e+01	6.684064e-01	2.540217e+05	1.013250e+05	2.881238e+02	9.999650e-02	-6.978038e-08	0.000000e+00	
1.000000e+00	-6.803797e-01	1.225090e+00	4.168072e+01	6.684064e-01	2.540217e+05	1.013250e+05	2.881238e+02	9.999650e-02	-7.160658e-08	0.000000e+00	
1.051282e+00	-6.803797e-01	1.225090e+00	4.168072e+01	6.684064e-01	2.540217e+05	1.013250e+05	2.881238e+02	9.999650e-02	-6.972211e-08	0.000000e+00	
1.000000e+00	-7.120253e-01	1.225090e+00	4.168072e+01	6.684064e-01	2.540217e+05	1.013250e+05	2.881238e+02	9.999650e-02	-7.155505e-08	0.000000e+00	
1.051282e+00	-7.120253e-01	1.225090e+00	4.168072e+01	6.684064e-01	2.540217e+05	1.013250e+05	2.881238e+02	9.999650e-02	-6.965720e-08	0.000000e+00	
1.000000e+00	-7.436709e-01	1.225090e+00	4.168072e+01	6.684064e-01	2.540217e+05	1.013250e+05	2.881238e+02	9.999650e-02	-7.149832e-08	0.000000e+00	
1.051282e+00	-7.436709e-01	1.225090e+00	4.168072e+01	6.684064e-01	2.540217e+05	1.013250e+05	2.881238e+02	9.999650e-02	-6.958445e-08	0.000000e+00	
1.000000e+00	-7.753165e-01	1.225090e+00	4.168072e+01	6.684064e-01	2.540217e+05	1.013250e+05	2.881238e+02	9.999650e-02	-7.143209e-08	0.000000e+00	
1.051282e+00	-7.753165e-01	1.225090e+00	4.168072e+01	6.684064e-01	2.540217e+05	1.013250e+05	2.881238e+02	9.999650e-02	-6.949986e-08	0.000000e+00	
1.000000e+00	-8.069620e-01	1.225090e+00	4.168072e+01	6.684064e-01	2.540217e+05	1.013250e+05	2.881238e+02	9.999650e-02	-7.135454e-08	0.000000e+00	
1.051282e+00	-8.069620e-01	1.225090e+00	4.168072e+01	6.684064e-01	2.540217e+05	1.013250e+05	2.881238e+02	9.999650e-02	-6.940390e-08	0.000000e+00	
1.000000e+00	-8.386076e-01	1.225090e+00	4.168072e+01	6.684064e-01	2.540217e+05	1.013250e+05	2.881238e+02	9.999650e-02	-7.126666e-08	0.000000e+00	
1.051282e+00	-8.386076e-01	1.225090e+00	4.168072e+01	6.684064e-01	2.540217e+05	1.013250e+05	2.881238e+02	9.999650e-02	-6.929067e-08	0.000000e+00	
1.000000e+00	-8.702532e-01	1.225090e+00	4.168072e+01	6.684064e-01	2.540217e+05	1.013250e+05	2.881238e+02	9.999650e-02	-7.117389e-08	0.000000e+00	
1.051282e+00	-8.702532e-01	1.225090e+00	4.168072e+01	6.684064e-01	2.540217e+05	1.013250e+05	2.881238e+02	9.999650e-02	-6.916540e-08	0.000000e+00	
1.000000e+00	-9.018987e-01	1.225090e+00	4.168072e+01	6.684064e-01	2.540217e+05	1.013250e+05	2.881238e+02	9.999650e-02	-7.107847e-08	0.000000e+00	
1.051282e+00	-9.018987e-01	1.225090e+00	4.168072e+01	6.684064e-01	2.540217e+05	1.013250e+05	2.881238e+02	9.999650e-02	-6.901341e-08	0.000000e+00	
1.000000e+00	-9.335443e-01	1.225090e+00	4.168072e+01	6.684064e-01	2.540217e+05	1.013250e+05	2.881238e+02	9.999650e-02	-7.096290e-08	0.000000e+00	
1.051282e+00	-9.335443e-01	1.225090e+00	4.168072e+01	6.684064e-01	2.540217e+05	1.013250e+05	2.881238e+02	9.999650e-02	-6.884731e-08	0.000000e+00	
1.000000e+00	-9.651899e-01	1.225090e+00	4.168072e+01	6.684064e-01	2.540217e+05	1.013250e+05	2.881238e+02	9.999650e-02	-7.080373e-08	0.000000e+00	
1.051282e+00	-9.651899e-01	1.225090e+00	4.168072e+01	6.684064e-01	2.540217e+05	1.013250e+05	2.881238e+02	9.999650e-02	-6.861990e-08	0.000000e+00	
1.000000e+00	-9.968354e-01	1.225090e+00	4.168072e+01	6.684064e-01	2.540217e+05	1.013250e+05	2.881238e+02	9.999650e-02	-7.054306e-08	0.000000e+00	
1.051282e+00	-9.968354e-01	1.225090e+00	4.168072e+01	6.684064e-01	2.540217e+05	1.013250e+05	2.881238e+02	9.999650e-02	-6.838158e-08	0.000000e+00	
1.000000e+00	-1.028481e+00	1.225090e+00	4.168072e+01	6.684064e-01	2.540217e+05	1.013250e+05	2.881238e+02	9.999650e-02	-7.022742e-08	0.000000e+00	
1.051282e+00	-1.028481e+00	1.225090e+00	4.168072e+01	6.684064e-01	2.540217e+05	1.013250e+05	2.881238e+02	9.999650e-02	-6.798797e-08	0.000000e+00	
1.000000e+00	-1.060127e+00	1.225090e+00	4.168072e+01	6.684064e-01	2.540217e+05	1.013250e+05	2.881238e+02	9.999650e-02	-6.973691e-08	0.000000e+00	
1.051282e+00	-1.060127e+00	1.225090e+00	4.168072e+01	6.684064e-01	2.540217e+05	1.013250e+05	2.881238e+02	9.999650e-02	-6.770314e-08	0.000000e+00	
1.000000e+00	-1.091772e+00	1.225090e+00	4.168072e+01	6.684064e-01	2.540217e+05	1.013250e+05	2.881238e+02	9.999650e-02	-6.908241e-08	0.000000e+00	
1.051282e+00	-1.091772e+00	1.225090e+00	4.168072e+01	6.684064e-01	2.540217e+05	1.013250e+05	2.881238e+02	9.999650e-02	-6.688772e-08	0.000000e+00	
1.000000e+00	-1.123418e+00	1.225090e+00	4.168072e+01	6.684064e-01	2.540217e+05	1.013250e+05	2.881238e+02	9.999650e-02	-6.677049e-08	0.000000e+00	
1.051282e+00	-1.123418e+00	1.225090e+00	4.168072e+01	6.684064e-01	2.540217e+05	1.013250e+05	2.881238e+02	9.999650e-02	-6.715296e-08	0.000000e+00	
1.000000e+00	-1.155063e+00	1.225090e+00	4.168072e+01	6.684064e-01	2.540217e+05	1.013250e+05	2.881238e+02	9.999650e-02	-6.129254e-08	0.000000e+00	
1.051282e+00	-1.155063e+00	1.225090e+00	4.168072e+01	6.684065e-01	2.540217e+05	1.013250e+05	2.881238e+02	9.999650e-02	-6.441215e-08	0.000000e+00	
1.000000e+00	-1.186709e+00	1.225090e+00	4.168072e+01	6.684065e-01	2.540217e+05	1.013250e+05	2.881238e+02	9.999650e-02	-5.714486e-08	0.000000e+00	
1.051282e+00	-1.186709e+00	1.225090e+00	4.168072e+01	6.684065e-01	2.540217e+05	1.013250e+05	2.881238e+02	9.999650e-02	-6.839225e-08	0.000000e+00	
1.000000e+00	-1.218354e+00	1.225090e+00	4.168072e+01	6.684067e-01	2.540217e+05	1.013250e+05	2.881238e+02	9.999650e-02	-3.334156e-08	0.000000e+00	
1.051282e+00	-1.218354e+00	1.225090e+00	4.168072e+01	6.684066e-01	2.540217e+05	1.013250e+05	2.881238e+02	9.999650e-02	-6.135696e-08	0.000000e+00	
1.102564e+00	1.218354e+00	1.225090e+00	4.168072e+01	6.684065e-01	2.540217e+05	1.013250e+05	2.881238e+02	9.999650e-02	-7.316345e-08	0.000000e+00	
1.102564e+00	1.250000e+00	1.225090e+00	4.168072e+01	6.684065e-01	2.540217e+05	1.013250e+05	2.881238e+02	9.999650e-02	-6.915583e-08	0.000000e+00	
1.102564e+00	1.186709e+00	1.225090e+00	4.168072e+01	6.684065e-01	2.540217e+05	1.013250e+05	2.881238e+02	9.999650e-02	-7.161768e-08	0.000000e+00	
1.102564e+00	1.155063e+00	1.225090e+00	4.168072e+01	6.684065e-01	2.540217e+05	1.013250e+05	2.881238e+02	9.999650e-02	-7.358888e-08	0.000000e+00	
1.102564e+00	1.123418e+00	1.225090e+00	4.168072e+01	6.684065e-01	2.540217e+05	1.013250e+05	2.881238e+02	9.999650e-02	-7.194010e-08	0.000000e+00	
1.102564e+00	1.091772e+00	1.225090e+00	4.168072e+01	6.684064e-01	2.540217e+05	1.013250e+05	2.881238e+02	9.999650e-02	-7.230556e-08	0.000000e+00	
1.102564e+00	1.060127e+00	1.225090e+00	4.168072e+01	6.684064e-01	2.540217e+05	1.013250e+05	2.881238e+02	9.999650e-02	-7.150654e-08	0.000000e+00	
1.102564e+00	1.028481e+00	1.225090e+00	4.168072e+01	6.684064e-01	2.540217e+05	1.013250e+05	2.881238e+02	9.999650e-02	-7.140696e-08	0.000000e+00	
1.102564e+00	9.968354e-01	1.225090e+00	4.168072e+01	6.684064e-01	2.540217e+05	1.013250e+05	2.881238e+02	9.999650e-02	-7.103200e-08	0.000000e+00	
1.102564e+00	9.651899e-01	1.225090e+00	4.168072e+01	6.684064e-01	2.540217e+05	1.013250e+05	2.881238e+02	9.999650e-02	-7.087199e-08	0.000000e+00	
1.102564e+00	9.335443e-01	1.225090e+00	4.168072e+01	6.684064e-01	2.540217e+05	1.013250e+05	2.881238e+02	9.999650e-02	-7.065703e-08	0.000000e+00	
1.102564e+00	9.018987e-01	1.225090e+00	4.168072e+01	6.684064e-01	2.540217e+05	1.013250e+05	2.881238e+02	9.999650e-02	-7.051908e-08	0.000000e+00	
1.102564e+00	8.702532e-01	1.225090e+00	4.168072e+01	6.684064e-01	2.540217e+05	1.013250e+05	2.881238e+02	9.999650e-02	-7.037641e-08	0.000000e+00	
1.102564e+00	8.386076e-01	1.225090e+00	4.168072e+01	6.684064e-01	2.540217e+05	1.013250e+05	2.881238e+02	9.999650e-02	-7.026654e-08	0.000000e+00	
1.102564e+00	8.069620e-01	1.225090e+00	4.168072e+01	6.684064e-01	2.540217e+05	1.013250e+05	2.881238e+02	9.999650e-02	-7.016170e-08	0.000000e+00	
1.102564e+00	7.753165e-01	1.225090e+00	4.168072e+01	6.684064e-01	2.540217e+05	1.013250e+05	2.881238e+02	9.999650e-02	-7.007328e-08	0.000000e+00	
1.102564e+00	7.436709e-01	1.225090e+00	4.168072e+01	6.684064e-01	2.540217e+05	1.013250e+05	2.881238e+02	9.999650e-02	-6.999098e-08	0.000000e+00	
1.102564e+00	7.120253e-01	1.225090e+00	4.168072e+01	6.684064e-01	2.540217e+05	1.013250e+05	2.881238e+02	9.999650e-02	-6.991821e-08	0.000000e+00	
1.102564e+00	6.803797e-01	1.225090e+00	4.168072e+01	6.684064e-01	2.540217e+05	1.013250e+05	2.881238e+02	9.999650e-02	-6.985059e-08	0.000000e+00	
1.102564e+00	6.487342e-01	1.225090e+00	4.168072e+01	6.684064e-01	2.540217e+05	1.013250e+05	2.881238e+02	9.999650e-02	-6.978889e-08	0.000000e+00	
1.102564e+00	6.170886e-01	1.225090e+00	4.168072e+01	6.684064e-01	2.540217e+05	1.013250e+05	2.881238e+02	9.999650e-02	-6.973114e-08	0.000000e+00	
1.102564e+00	5.854430e-01	1.225090e+00	4.168072e+01	6.684064e-01	2.540217e+05	1.013250e+05	2.881238e+02	9.999650e-02	-6.967737e-08	0.000000e+00	
1.102564e+00	5.537975e-01	1.225090e+00	4.168072e+01	6.684064e-01	2.540217e+05	1.013250e+05	2.881238e+02	9.999650e-02	-6.962671e-08	0.000000e+00	
1.102564e+00	5.221519e-01	1.225090e+00	4.168072e+01	6.684064e-01	2.540217e+05	1.013250e+05	2.881238e+02	9.999650e-02	-6.957893e-08	0.000000e+00	
1.102564e+00	4.905063e-01	1.225090e+00	4.168072e+01	6.684064e-01	2.540217e+05	1.013250e+05	2.881238e+02	9.999650e-02	-6.953371e-08	0.000000e+00	
1.102564e+00	4.588608e-01	1.225090e+00	4.168072e+01	6.684064e-01	2.540217e+05	1.013250e+05	2.881238e+02	9.999650e-02	-6.949085e-08	0.000000e+00	
1.102564e+00	4.272152e-01	1.225090e+00	4.168072e+01	6.684064e-01	2.540217e+05	1.013250e+05	2.881238e+02	9.999650e-02	-6.945000e-08	0.000000e+00	
1.102564e+00	3.955696e-01	1.225090e+00	4.168072e+01	6.684064e-01	2.540217e+05	1.013250e+05	2.881238e+02	9.999650e-02	-6.941094e-08	0.000000e+00	
1.102564e+00	3.639241e-01	1.225090e+00	4.168072e+01	6.684064e-01	2.540217e+05	1.013250e+05	2.881238e+02	9.999650e-02	-6.937356e-08	0.000000e+00	
1.102564e+00	3.322785e-01	1.225090e+00	4.168072e+01	6.684064e-01	2.540217e+05	1.013250e+05	2.881238e+02	9.999650e-02	-6.933763e-08	0.000000e+00	
1.102564e+00	3.006329e-01	1.225090e+00	4.168072e+01	6.684064e-01	2.540217e+05	1.013250e+05	2.881238e+02	9.999650e-02	-6.930306e-08	0.000000e+00	
1.102564e+00	2.689873e-01	1.225090e+00	4.168072e+01	6.684064e-01	2.540217e+05	1.013250e+05	2.881238e+02	9.999650e-02	-6.926960e-08	0.000000e+00	
1.102564e+00	2.373418e-01	1.225090e+00	4.168072e+01	6.684064e-01	2.540217e+05	1.013250e+05	2.881238e+02	9.999650e-02	-6.923729e-08	0.000000e+00	
1.102564e+00	2.056962e-01	1.225090e+00	4.168072e+01	6.684064e-01	2.540217e+05	1.013250e+05	2.881238e+02	9.999650e-02	-6.920581e-08	0.000000e+00	
1.102564e+00	1.740506e-01	1.225090e+00	4.168072e+01	6.684064e-01	2.540217e+05	1.013250e+05	2.881238e+02	9.999650e-02	-6.917516e-08	0.000000e+00	
1.102564e+00	1.424051e-01	1.225090e+00	4.168072e+01	6.684064e-01	2.540217e+05	1.013250e+05	2.881238e+02	9.999650e-02	-6.914525e-08	0.000000e+00	
1.102564e+00	1.107595e-01	1.225090e+00	4.168072e+01	6.684064e-01	2.540217e+05	1.013250e+05	2.881238e+02	9.999650e-02	-6.911587e-08	0.000000e+00	
1.102564e+00	7.911392e-02	1.225090e+00	4.168072e+01	6.684064e-01	2.540217e+05	1.013250e+05	2.881238e+02	9.999650e-02	-6.908704e-08	0.000000e+00	
1.102564e+00	4.746835e-02	1.225090e+00	4.168072e+01	6.684064e-01	2.540217e+05	1.013250e+05	2.881238e+02	9.999650e-02	-6.905861e-08	0.000000e+00	
1.102564e+00	1.582278e-02	1.225090e+00	4.168072e+01	6.684064e-01	2.540217e+05	1.013250e+05	2.881238e+02	9.999650e-02	-6.903052e-08	0.000000e+00	
1.102564e+00	-1.582278e-02	1.225090e+00	4.168072e+01	6.684064e-01	2.540217e+05	1.013250e+05	2.881238e+02	9.999650e-02	-6.900270e-08	0.000000e+00	
1.102564e+00	-4.746835e-02	1.225090e+00	4.168072e+01	6.684064e-01	2.540217e+05	1.013250e+05	2.881238e+02	9.999650e-02	-6.897496e-08	0.000000e+00	
1.102564e+00	-7.911392e-02	1.225090e+00	4.168072e+01	6.684064e-01	2.540217e+05	1.013250e+05	2.881238e+02	9.999650e-02	-6.894730e-08	0.000000e+00	
1.102564e+00	-1.107595e-01	1.225090e+00	4.168072e+01	6.684064e-01	2.540217e+05	1.013250e+05	2.881238e+02	9.999650e-02	-6.891961e-08	0.000000e+00	
1.102564e+00	-1.424051e-01	1.225090e+00	4.168072e+01	6.684064e-01	2.540217e+05	1.013250e+05	2.881238e+02	9.999650e-02	-6.889181e-08	0.000000e+00	
1.102564e+00	-1.740506e-01	1.225090e+00	4.168072e+01	6.684064e-01	2.540217e+05	1.013250e+05	2.881238e+02	9.999650e-02	-6.886374e-08	0.000000e+00	