VARIABLES = "x"
 "y"
 "Density"
 "Momentum_x"
 "Momentum_y"
 "Energy"
 "Pressure"
 "Temperature"
 "Mach"
 "C<sub>p</sub>"
 "Roe_Dissipation"
ZONE
DT=(DOUBLE,DOUBLE,DOUBLE,DOUBLE,DOUBLE,DOUBLE,DOUBLE,DOUBLE,DOUBLE,DOUBLE,DOUBLE)
                     -2                    -0.6        1.22509098052979         41.680721282959    7.07772897152147E-12                  254022           101325.203125        288.123901367188      0.0999834910035133    0.000259599910350516                       0 
      -1.99749874937469                    -0.6        1.22509098052979         41.680721282959    8.70152942521922E-13                  254022           101325.203125        288.123901367188      0.0999834910035133     0.00025959995861425                       0 
      -1.99499749874937                    -0.6        1.22509098052979         41.680721282959   -5.33742308647817E-12                  254022           101325.203125        288.123901367188      0.0999834910035133    0.000259600006877984                       0 
      -1.99249624812406                    -0.6        1.22509098052979         41.680721282959   -1.15449991154777E-11                  254022           101325.203125        288.123901367188      0.0999834910035133    0.000259600055141718                       0 
      -1.98999499749875                    -0.6        1.22509098052979         41.680721282959   -1.77525751444773E-11                  254022           101325.203125        288.123901367188      0.0999834910035133    0.000259600103405451                       0 
      -1.98749374687344                    -0.6        1.22509098052979         41.680721282959   -2.39601511734768E-11                  254022           101325.203125        288.123901367188      0.0999834910035133    0.000259600151669185                       0 
      -1.98499249624812                    -0.6        1.22509098052979         41.680721282959   -3.01677272024769E-11                  254022           101325.203125        288.123901367188      0.0999834910035133    0.000259600199932919                       0 
      -1.98249124562281                    -0.6        1.22509098052979         41.680721282959   -3.63753032314765E-11                  254022           101325.203125        288.123901367188      0.0999834910035133    0.000259600248196653                       0 
       -1.9799899949975                    -0.6        1.22509098052979         41.680721282959    -4.2582879260476E-11                  254022           101325.203125        288.123901367188      0.0999834910035133    0.000259600296460386                       0 
      -1.97748874437219                    -0.6        1.22509098052979         41.680721282959   -4.87904552894761E-11                  254022           101325.203125        288.123901367188      0.0999834910035133     0.00025960034472412                       0 
      -1.97498749374687                    -0.6        1.22509098052979         41.680721282959   -5.48280124685692E-11                  254022           101325.203125        288.123901367188      0.0999834910035133    0.000259600392987854                       0 
      -1.97248624312156                    -0.6        1.22509098052979         41.680721282959   -6.07366895790185E-11                  254022           101325.203125        288.123901367188      0.0999834910035133    0.000259600441251587                       0 
      -1.96998499249625                    -0.6        1.22509098052979         41.680721282959   -6.69229301751726E-11                  254022           101325.203125        288.123901367188      0.0999834910035133    0.000259600489515321                       0 
      -1.96748374187094                    -0.6        1.22509098052979         41.680721282959   -7.31305062041722E-11                  254022           101325.203125        288.123901367188      0.0999834910035133    0.000259600537779055                       0 
      -1.96498249124562                    -0.6        1.22509098052979         41.680721282959   -7.93380822331717E-11                  254022           101325.203125        288.123901367188      0.0999834910035133    0.000259600586042789                       0 
      -1.96248124062031                    -0.6        1.22509098052979         41.680721282959   -8.55456582621713E-11                  254022           101325.203125        288.123901367188      0.0999834910035133    0.000259600634306522                       0 
        -1.959979989995                    -0.6        1.22509098052979         41.680721282959   -9.17532342911714E-11                  254022           101325.203125        288.123901367188      0.0999834910035133    0.000259600682570256                       0 
      -1.95747873936968                    -0.6        1.22509098052979         41.680721282959   -9.79608103201709E-11                  254022           101325.203125        288.123901367188      0.0999834910035133     0.00025960073083399                       0 
      -1.95497748874437                    -0.6        1.22509098052979         41.680721282959    -1.0416838634917E-10                  254022           101325.203125        288.123901367188      0.0999834910035133    0.000259600779097723                       0 
      -1.95247623811906                    -0.6        1.22509098052979         41.680721282959   -1.10375962378171E-10                  254022           101325.203125        288.123901367188      0.0999834910035133    0.000259600827361457                       0 
      -1.94997498749375                    -0.6        1.22509098052979         41.680721282959    -1.1658353840717E-10                  254022           101325.203125        288.123901367188      0.0999834910035133    0.000259600875625191                       0 
      -1.94747373686843                    -0.6        1.22509098052979         41.680721282959    -1.2273404054655E-10                  254022           101325.203125        288.123901367188      0.0999834910035133    0.000259600916827737                       0 
      -1.94497248624312                    -0.6        1.22509098052979         41.680721282959   -1.28826880687566E-10                  254022           101325.203125        288.123901367188      0.0999834910035133    0.000259600950896334                       0 
      -1.94247123561781                    -0.6        1.22509098052979         41.680721282959   -1.34919720828581E-10                  254022           101325.203125        288.123901367188      0.0999834910035133    0.000259600984964931                       0 
       -1.9399699849925                    -0.6        1.22509098052979         41.680721282959   -1.41012560969597E-10                  254022           101325.203125        288.123901367188      0.0999834910035133    0.000259601019033528                       0 
      -1.93746873436718                    -0.6        1.22509098052979         41.680721282959   -1.47105401110612E-10                  254022           101325.203125        288.123901367188      0.0999834910035133    0.000259601053102125                       0 
      -1.93496748374187                    -0.6        1.22509098052979         41.680721282959   -1.53198241251629E-10                  254022           101325.203125        288.123901367188      0.0999834910035133    0.000259601087170722                       0 
      -1.93246623311656                    -0.6        1.22509098052979         41.680721282959   -1.59291081392644E-10                  254022           101325.203125        288.123901367188      0.0999834910035133     0.00025960112123932                       0 
      -1.92996498249125                    -0.6        1.22509098052979         41.680721282959    -1.6538392153366E-10                  254022           101325.203125        288.123901367188      0.0999834910035133    0.000259601155307917                       0 
      -1.92746373186593                    -0.6        1.22509098052979         41.680721282959   -1.71476761674676E-10                  254022           101325.203125        288.123901367188      0.0999834910035133    0.000259601189376514                       0 
      -1.92496248124062                    -0.6        1.22509098052979         41.680721282959   -1.77550275916645E-10                  254022           101325.203125        288.123901367188      0.0999834910035133    0.000259601223445111                       0 
      -1.92246123061531                    -0.6        1.22509098052979         41.680721282959   -1.83351519939879E-10                  254022           101325.203125        288.123901367188      0.0999834910035133    0.000259601257513708                       0 
      -1.91995997998999                    -0.6        1.22509098052979         41.680721282959   -1.89277008042366E-10                  254022           101325.203125        288.123901367188      0.0999834910035133    0.000259601291582305                       0 
      -1.91745872936468                    -0.6        1.22509098052979         41.680721282959   -1.95369848183381E-10                  254022           101325.203125        288.123901367188      0.0999834910035133    0.000259601325650902                       0 
      -1.91495747873937                    -0.6        1.22509098052979         41.680721282959   -2.01462688324397E-10                  254022           101325.203125        288.123901367188      0.0999834910035133    0.000259601359719499                       0 
      -1.91245622811406                    -0.6        1.22509098052979         41.680721282959   -2.07555528465412E-10                  254022           101325.203125        288.123901367188      0.0999834910035133    0.000259601393788096                       0 
      -1.90995497748874                    -0.6        1.22509098052979         41.680721282959   -2.13648368606428E-10                  254022           101325.203125        288.123901367188      0.0999834910035133    0.000259601427856694                       0 
      -1.90745372686343                    -0.6        1.22509098052979         41.680721282959   -2.19741208747444E-10                  254022           101325.203125        288.123901367188      0.0999834910035133    0.000259601461925291                       0 
      -1.90495247623812                    -0.6        1.22509098052979         41.680721282959    -2.2583404888846E-10                  254022           101325.203125        288.123901367188      0.0999834910035133    0.000259601495993888                       0 
      -1.90245122561281                    -0.6        1.22509098052979         41.680721282959   -2.31926889029476E-10                  254022           101325.203125        288.123901367188      0.0999834910035133    0.000259601530062485                       0 
      -1.89994997498749                    -0.6        1.22509098052979         41.680721282959   -2.38019729170491E-10                  254022           101325.203125        288.123901367188      0.0999834910035133    0.000259601564131082                       0 
      -1.89744872436218                    -0.6        1.22509098052979         41.680721282959   -2.44112569311507E-10                  254022           101325.203125        288.123901367188      0.0999834910035133    0.000259601598199679                       0 
      -1.89494747373687                    -0.6        1.22509098052979         41.680721282959   -2.50072616572949E-10                  254022           101325.203125        288.123901367188      0.0999834910035133     0.00025960163791745                       0 
      -1.89244622311156                    -0.6        1.22509098052979         41.680721282959   -2.56031986056892E-10                  254022           101325.203125        288.123901367188      0.0999834910035133    0.000259601677664054                       0 
      -1.88994497248624                    -0.6        1.22509098052979         41.680721282959   -2.61991355540835E-10                  254022           101325.203125        288.123901367188      0.0999834910035133    0.000259601717410658                       0 
      -1.88744372186093                    -0.6        1.22509098052979         41.680721282959   -2.67950725024778E-10                  254022           101325.203125        288.123901367188      0.0999834910035133    0.000259601757157263                       0 
      -1.88494247123562                    -0.6        1.22509098052979         41.680721282959   -2.73910094508722E-10                  254022           101325.203125        288.123901367188      0.0999834910035133    0.000259601796903867                       0 
      -1.88244122061031                    -0.6        1.22509098052979         41.680721282959   -2.79869463992665E-10                  254022           101325.203125        288.123901367188      0.0999834910035133    0.000259601836650471                       0 
      -1.87993996998499                    -0.6        1.22509098052979         41.680721282959   -2.85828833476608E-10                  254022           101325.203125        288.123901367188      0.0999834910035133    0.000259601876397075                       0 
      -1.87743871935968                    -0.6        1.22509098052979         41.680721282959   -2.91788202960551E-10                  254022           101325.203125        288.123901367188      0.0999834910035133     0.00025960191614368                       0 
      -1.87493746873437                    -0.6        1.22509098052979         41.680721282959   -2.97747572444494E-10                  254022           101325.203125        288.123901367188      0.0999834910035133    0.000259601955890284                       0 
      -1.87243621810905                    -0.6        1.22509098052979         41.680721282959   -3.03548679164392E-10                  254022           101325.203125        288.123901367188      0.0999834910035133    0.000259601995636888                       0 
      -1.86993496748374                    -0.6        1.22509098052979         41.680721282959   -3.09227311050679E-10                  254022           101325.203125        288.123901367188      0.0999834910035133    0.000259602035383492                       0 
      -1.86743371685843                    -0.6        1.22509098052979         41.680721282959   -3.15165215844646E-10                  254022           101325.203125        288.123901367188      0.0999834910035133    0.000259602075130097                       0 
      -1.86493246623312                    -0.6        1.22509098052979         41.680721282959   -3.21124585328589E-10                  254022           101325.203125        288.123901367188      0.0999834910035133    0.000259602114876701                       0 
       -1.8624312156078                    -0.6        1.22509098052979         41.680721282959   -3.27083954812532E-10                  254022           101325.203125        288.123901367188      0.0999834910035133    0.000259602154623305                       0 
      -1.85992996498249                    -0.6        1.22509098052979         41.680721282959   -3.33043324296476E-10                  254022           101325.203125        288.123901367188      0.0999834910035133    0.000259602194369909                       0 
      -1.85742871435718                    -0.6        1.22509098052979         41.680721282959   -3.39002693780419E-10                  254022           101325.203125        288.123901367188      0.0999834910035133    0.000259602234116514                       0 
      -1.85492746373187                    -0.6        1.22509098052979         41.680721282959   -3.44962063264362E-10                  254022           101325.203125        288.123901367188      0.0999834910035133    0.000259602273863118                       0 
      -1.85242621310655                    -0.6        1.22509098052979         41.680721282959   -3.50921432748305E-10                  254022           101325.203125        288.123901367188      0.0999834910035133    0.000259602313609722                       0 
      -1.84992496248124                    -0.6        1.22509098052979         41.680721282959   -3.56880802232248E-10                  254022           101325.203125        288.123901367188      0.0999834910035133    0.000259602353356326                       0 
      -1.84742371185593                    -0.6        1.22509098052979         41.680721282959   -3.62840171716191E-10                  254022           101325.203125        288.123901367188      0.0999834910035133     0.00025960239310293                       0 
      -1.84492246123062                    -0.6        1.22509098052979         41.680721282959   -3.68697762650764E-10                  254022           101325.203125        288.123901367188      0.0999834910035133    0.000259602432150664                       0 
       -1.8424212106053                    -0.6        1.22509098052979         41.680721282959    -3.7445041600769E-10                  254022           101325.203125        288.123901367188      0.0999834910035133    0.000259602470477836                       0 
      -1.83991995997999                    -0.6        1.22509098052979         41.680721282959   -3.80203069364616E-10                  254022           101325.203125        288.123901367188      0.0999834910035133    0.000259602508805008                       0 
      -1.83741870935468                    -0.6        1.22509098052979         41.680721282959   -3.85955722721542E-10                  254022           101325.203125        288.123901367188      0.0999834910035133     0.00025960254713218                       0 
      -1.83491745872936                    -0.6        1.22509098052979         41.680721282959   -3.91708376078468E-10                  254022           101325.203125        288.123901367188      0.0999834910035133    0.000259602585459351                       0 
      -1.83241620810405                    -0.6        1.22509098052979         41.680721282959   -3.97461029435394E-10                  254022           101325.203125        288.123901367188      0.0999834910035133    0.000259602623786523                       0 
      -1.82991495747874                    -0.6        1.22509098052979         41.680721282959    -4.0321368279232E-10                  254022           101325.203125        288.123901367188      0.0999834910035133    0.000259602662113695                       0 
      -1.82741370685343                    -0.6        1.22509098052979         41.680721282959   -4.08966336149246E-10                  254022           101325.203125        288.123901367188      0.0999834910035133    0.000259602700440867                       0 
      -1.82491245622811                    -0.6        1.22509098052979         41.680721282959   -4.14718989506172E-10                  254022           101325.203125        288.123901367188      0.0999834910035133    0.000259602738768038                       0 
       -1.8224112056028                    -0.6        1.22509098052979         41.680721282959   -4.20455111934634E-10                  254022           101325.203125        288.123901367188      0.0999834910035133     0.00025960277709521                       0 
      -1.81990995497749                    -0.6        1.22509098052979         41.680721282959   -4.25937643938765E-10                  254022           101325.203125        288.123901367188      0.0999834910035133    0.000259602815422382                       0 
      -1.81740870435218                    -0.6        1.22509098052979         41.680721282959   -4.31533898291415E-10                  254022           101325.203125        288.123901367188      0.0999834910035133    0.000259602853749554                       0 
      -1.81490745372686                    -0.6        1.22509098052979         41.680721282959    -4.3728655164834E-10                  254022           101325.203125        288.123901367188      0.0999834910035133    0.000259602892076725                       0 
      -1.81240620310155                    -0.6        1.22509098052979         41.680721282959   -4.43039205005266E-10                  254022           101325.203125        288.123901367188      0.0999834910035133    0.000259602930403897                       0 
      -1.80990495247624                    -0.6        1.22509098052979         41.680721282959   -4.48791858362192E-10                  254022           101325.203125        288.123901367188      0.0999834910035133    0.000259602968731069                       0 
      -1.80740370185093                    -0.6        1.22509098052979         41.680721282959   -4.54544511719118E-10                  254022           101325.203125        288.123901367188      0.0999834910035133    0.000259603007058241                       0 
      -1.80490245122561                    -0.6        1.22509098052979         41.680721282959   -4.60297165076044E-10                  254022           101325.203125        288.123901367188      0.0999834910035133    0.000259603045385413                       0 
       -1.8024012006003                    -0.6        1.22509098052979         41.680721282959    -4.6604981843297E-10                  254022           101325.203125        288.123901367188      0.0999834910035133    0.000259603083712584                       0 
      -1.79989994997499                    -0.6        1.22509098052979         41.680721282959   -4.71802471789896E-10                  254022           101325.203125        288.123901367188      0.0999834910035133    0.000259603122039756                       0 
      -1.79739869934967                    -0.6        1.22509098052979         41.680721282959   -4.77555125146822E-10                  254022           101325.203125        288.123901367188      0.0999834910035133    0.000259603160366928                       0 
      -1.79489744872436                    -0.6        1.22509098052979         41.680721282959   -4.83307778503747E-10                  254022           101325.203125        288.123901367188      0.0999834910035133      0.0002596031986941                       0 
      -1.79239619809905                    -0.6        1.22509098052979         41.680721282959   -4.88814363573946E-10                  254022           101325.203125        288.123901367188      0.0999834910035133    0.000259603238426288                       0 
      -1.78989494747374                    -0.6        1.22509098052979         41.680721282959   -4.94318423882854E-10                  254022           101325.203125        288.123901367188      0.0999834910035133    0.000259603278172892                       0 
      -1.78739369684842                    -0.6        1.22509098052979         41.680721282959   -4.99822484191763E-10                  254022           101325.203125        288.123901367188      0.0999834910035133    0.000259603317919496                       0 
      -1.78489244622311                    -0.6        1.22509098052979         41.680721282959   -5.05326544500671E-10                  254022           101325.203125        288.123901367188      0.0999834910035133      0.0002596033576661                       0 
       -1.7823911955978                    -0.6        1.22509098052979         41.680721282959   -5.10830604809579E-10                  254022           101325.203125        288.123901367188      0.0999834910035133    0.000259603397412705                       0 
      -1.77988994497249                    -0.6        1.22509098052979         41.680721282959   -5.16334665118488E-10                  254022           101325.203125        288.123901367188      0.0999834910035133    0.000259603437159309                       0 
      -1.77738869434717                    -0.6        1.22509098052979         41.680721282959   -5.21838725427396E-10                  254022           101325.203125        288.123901367188      0.0999834910035133    0.000259603476905913                       0 
      -1.77488744372186                    -0.6        1.22509098052979         41.680721282959   -5.27342785736304E-10                  254022           101325.203125        288.123901367188      0.0999834910035133    0.000259603516652517                       0 
      -1.77238619309655                    -0.6        1.22509098052979         41.680721282959   -5.32846846045212E-10                  254022           101325.203125        288.123901367188      0.0999834910035133    0.000259603556399122                       0 
      -1.76988494247124                    -0.6        1.22509098052979         41.680721282959   -5.38210069352267E-10                  254022           101325.203125        288.123901367188      0.0999834910035133    0.000259603596145726                       0 
      -1.76738369184592                    -0.6        1.22509098052979         41.680721282959   -5.43462032237002E-10                  254022           101325.203125        288.123901367188      0.0999834910035133     0.00025960363589233                       0 
      -1.76488244122061                    -0.6        1.22509098052979         41.680721282959    -5.4894553745568E-10                  254022           101325.203125        288.123901367188      0.0999834910035133    0.000259603675638934                       0 
       -1.7623811905953                    -0.6        1.22509098052979         41.680721282959   -5.54449597764588E-10                  254022           101325.203125        288.123901367188      0.0999834910035133    0.000259603715385539                       0 
      -1.75987993996998                    -0.6        1.22509098052979         41.680721282959   -5.59953658073496E-10                  254022           101325.203125        288.123901367188      0.0999834910035133    0.000259603755132143                       0 
      -1.75737868934467                    -0.6        1.22509098052979         41.680721282959   -5.65457718382404E-10                  254022           101325.203125        288.123901367188      0.0999834910035133    0.000259603794878747                       0 
      -1.75487743871936                    -0.6        1.22509098052979         41.680721282959   -5.70961778691313E-10                  254022           101325.203125        288.123901367188      0.0999834910035133    0.000259603834625351                       0 
      -1.75237618809405                    -0.6        1.22509098052979         41.680721282959   -5.76465839000221E-10                  254022           101325.203125        288.123901367188      0.0999834910035133    0.000259603874371956                       0 
      -1.74987493746873                    -0.6        1.22509098052979         41.680721282959    -5.8196989930913E-10                  254022           101325.203125        288.123901367188      0.0999834910035133     0.00025960391411856                       0 
      -1.74737368684342                    -0.6        1.22509098052979         41.680721282959   -5.87473959618038E-10                  254022           101325.203125        288.123901367188      0.0999834910035133    0.000259603953865164                       0 
      -1.74487243621811                    -0.6        1.22509098052979         41.680721282959   -5.92978019926946E-10                  254022           101325.203125        288.123901367188      0.0999834910035133    0.000259603993611768                       0 
       -1.7423711855928                    -0.6        1.22509098052979         41.680721282959   -5.98300991133464E-10                  254022           101325.203125        288.123901367188      0.0999834910035133    0.000259604030591549                       0 
      -1.73986993496748                    -0.6        1.22509098052979         41.680721282959   -6.03433419605355E-10                  254022           101325.203125        288.123901367188      0.0999834910035133    0.000259604064660067                       0 
      -1.73736868434217                    -0.6        1.22509098052979         41.680721282959   -6.08565848077246E-10                  254022           101325.203125        288.123901367188      0.0999834910035133    0.000259604098728585                       0 
      -1.73486743371686                    -0.6        1.22509098052979         41.680721282959   -6.13698276549137E-10                  254022           101325.203125        288.123901367188      0.0999834910035133    0.000259604132797103                       0 
      -1.73236618309155                    -0.6        1.22509098052979         41.680721282959   -6.18830705021028E-10                  254022           101325.203125        288.123901367188      0.0999834910035133    0.000259604166865621                       0 
      -1.72986493246623                    -0.6        1.22509098052979         41.680721282959   -6.23963133492918E-10                  254022           101325.203125        288.123901367188      0.0999834910035133    0.000259604200934139                       0 
      -1.72736368184092                    -0.6        1.22509098052979         41.680721282959   -6.29095561964809E-10                  254022           101325.203125        288.123901367188      0.0999834910035133    0.000259604235002657                       0 
      -1.72486243121561                    -0.6        1.22509098052979         41.680721282959   -6.34227990436701E-10                  254022           101325.203125        288.123901367188      0.0999834910035133    0.000259604269071175                       0 
       -1.7223611805903                    -0.6        1.22509098052979         41.680721282959   -6.39360418908591E-10                  254022           101325.203125        288.123901367188      0.0999834910035133    0.000259604303139693                       0 