VARIABLES = "x"
 "y"
 "Density"
 "Momentum_x"
 "Momentum_y"
 "Energy"
 "Pressure"
 "Temperature"
 "Mach"
 "C<sub>p</sub>"
 "Roe_Dissipation"
ZONE
DT=(DOUBLE,DOUBLE,DOUBLE,DOUBLE,DOUBLE,DOUBLE,DOUBLE,DOUBLE,DOUBLE,DOUBLE,DOUBLE)
                      2                    1.25        1.22509002685547         41.680721282959       0.668406426906586           254021.703125                  101325        288.123809814453      0.0999964997172356   -3.86892899939539E-08                       0 
                      2         1.2474974974975        1.22509002685547         41.680721282959       0.668406426906586           254021.703125                  101325        288.123809814453      0.0999964997172356   -3.86902852288189E-08                       0 
                      2        1.24499499499499        1.22509002685547         41.680721282959       0.668406426906586           254021.703125                  101325        288.123809814453      0.0999964997172356   -3.86912804636839E-08                       0 
                      2        1.24249249249249        1.22509002685547         41.680721282959       0.668406426906586           254021.703125                  101325        288.123809814453      0.0999964997172356   -3.86922756985489E-08                       0 
                      2        1.23998998998999        1.22509002685547         41.680721282959       0.668406426906586           254021.703125                  101325        288.123809814453      0.0999964997172356   -3.86932709334138E-08                       0 
                      2        1.23748748748749        1.22509002685547         41.680721282959       0.668406426906586           254021.703125                  101325        288.123809814453      0.0999964997172356   -3.86942661682788E-08                       0 
                      2        1.23498498498498        1.22509002685547         41.680721282959       0.668406426906586           254021.703125                  101325        288.123809814453      0.0999964997172356   -3.86952614031438E-08                       0 
                      2        1.23248248248248        1.22509002685547         41.680721282959       0.668406426906586           254021.703125                  101325        288.123809814453      0.0999964997172356   -3.86962566380087E-08                       0 
                      2        1.22997997997998        1.22509002685547         41.680721282959       0.668406426906586           254021.703125                  101325        288.123809814453      0.0999964997172356   -3.86972518728737E-08                       0 
                      2        1.22747747747748        1.22509002685547         41.680721282959       0.668406426906586           254021.703125                  101325        288.123809814453      0.0999964997172356   -3.86982471077387E-08                       0 
                      2        1.22497497497497        1.22509002685547         41.680721282959       0.668406426906586           254021.703125                  101325        288.123809814453      0.0999964997172356   -3.86992423426037E-08                       0 
                      2        1.22247247247247        1.22509002685547         41.680721282959       0.668406426906586           254021.703125                  101325        288.123809814453      0.0999964997172356   -3.87002375774686E-08                       0 
                      2        1.21996996996997        1.22509002685547         41.680721282959       0.668406426906586           254021.703125                  101325        288.123809814453      0.0999964997172356   -3.87012328123336E-08                       0 
                      2        1.21746746746747        1.22509002685547         41.680721282959       0.668406426906586           254021.703125                  101325        288.123809814453      0.0999964997172356    -3.8702080559053E-08                       0 
                      2        1.21496496496496        1.22509002685547         41.680721282959       0.668406426906586           254021.703125                  101325        288.123809814453      0.0999964997172356    -3.8702659458408E-08                       0 
                      2        1.21246246246246        1.22509002685547         41.680721282959       0.668406426906586           254021.703125                  101325        288.123809814453      0.0999964997172356    -3.8703238357763E-08                       0 
                      2        1.20995995995996        1.22509002685547         41.680721282959       0.668406426906586           254021.703125                  101325        288.123809814453      0.0999964997172356    -3.8703817257118E-08                       0 
                      2        1.20745745745746        1.22509002685547         41.680721282959       0.668406426906586           254021.703125                  101325        288.123809814453      0.0999964997172356   -3.87043961564731E-08                       0 
                      2        1.20495495495495        1.22509002685547         41.680721282959       0.668406426906586           254021.703125                  101325        288.123809814453      0.0999964997172356   -3.87049750558281E-08                       0 
                      2        1.20245245245245        1.22509002685547         41.680721282959       0.668406426906586           254021.703125                  101325        288.123809814453      0.0999964997172356   -3.87055539551831E-08                       0 
                      2        1.19994994994995        1.22509002685547         41.680721282959       0.668406426906586           254021.703125                  101325        288.123809814453      0.0999964997172356   -3.87061328545381E-08                       0 
                      2        1.19744744744745        1.22509002685547         41.680721282959       0.668406426906586           254021.703125                  101325        288.123809814453      0.0999964997172356   -3.87067117538931E-08                       0 
                      2        1.19494494494494        1.22509002685547         41.680721282959       0.668406426906586           254021.703125                  101325        288.123809814453      0.0999964997172356   -3.87072906532482E-08                       0 
                      2        1.19244244244244        1.22509002685547         41.680721282959       0.668406426906586           254021.703125                  101325        288.123809814453      0.0999964997172356   -3.87078695526032E-08                       0 
                      2        1.18993993993994        1.22509002685547         41.680721282959       0.668406426906586           254021.703125                  101325        288.123809814453      0.0999964997172356   -3.87084484519582E-08                       0 
                      2        1.18743743743744        1.22509002685547         41.680721282959       0.668406426906586           254021.703125                  101325        288.123809814453      0.0999964997172356   -3.87090273513132E-08                       0 
                      2        1.18493493493493        1.22509002685547         41.680721282959       0.668406426906586           254021.703125                  101325        288.123809814453      0.0999964997172356   -3.87098744180311E-08                       0 
                      2        1.18243243243243        1.22509002685547         41.680721282959       0.668406426906586           254021.703125                  101325        288.123809814453      0.0999964997172356   -3.87108315853381E-08                       0 
                      2        1.17992992992993        1.22509002685547         41.680721282959       0.668406426906586           254021.703125                  101325        288.123809814453      0.0999964997172356   -3.87117887526451E-08                       0 
                      2        1.17742742742743        1.22509002685547         41.680721282959       0.668406426906586           254021.703125                  101325        288.123809814453      0.0999964997172356   -3.87127459199521E-08                       0 
                      2        1.17492492492492        1.22509002685547         41.680721282959       0.668406426906586           254021.703125                  101325        288.123809814453      0.0999964997172356    -3.8713703087259E-08                       0 
                      2        1.17242242242242        1.22509002685547         41.680721282959       0.668406426906586           254021.703125                  101325        288.123809814453      0.0999964997172356    -3.8714660254566E-08                       0 
                      2        1.16991991991992        1.22509002685547         41.680721282959       0.668406426906586           254021.703125                  101325        288.123809814453      0.0999964997172356    -3.8715617421873E-08                       0 
                      2        1.16741741741742        1.22509002685547         41.680721282959       0.668406426906586           254021.703125                  101325        288.123809814453      0.0999964997172356     -3.871657458918E-08                       0 
                      2        1.16491491491491        1.22509002685547         41.680721282959       0.668406426906586           254021.703125                  101325        288.123809814453      0.0999964997172356   -3.87175317564869E-08                       0 
                      2        1.16241241241241        1.22509002685547         41.680721282959       0.668406426906586           254021.703125                  101325        288.123809814453      0.0999964997172356   -3.87184889237939E-08                       0 
                      2        1.15990990990991        1.22509002685547         41.680721282959       0.668406426906586           254021.703125                  101325        288.123809814453      0.0999964997172356   -3.87194460911009E-08                       0 
                      2        1.15740740740741        1.22509002685547         41.680721282959       0.668406426906586           254021.703125                  101325        288.123809814453      0.0999964997172356   -3.87204032584079E-08                       0 
                      2         1.1549049049049        1.22509002685547         41.680721282959       0.668406426906586           254021.703125                  101325        288.123809814453      0.0999964997172356   -3.87213382633324E-08                       0 
                      2         1.1524024024024        1.22509002685547         41.680721282959       0.668406426906586           254021.703125                  101325        288.123809814453      0.0999964997172356   -3.87219446935923E-08                       0 
                      2         1.1498998998999        1.22509002685547         41.680721282959       0.668406426906586           254021.703125                  101325        288.123809814453      0.0999964997172356   -3.87225511238523E-08                       0 
                      2         1.1473973973974        1.22509002685547         41.680721282959       0.668406426906586           254021.703125                  101325        288.123809814453      0.0999964997172356   -3.87231575541123E-08                       0 
                      2        1.14489489489489        1.22509002685547         41.680721282959       0.668406426906586           254021.703125                  101325        288.123809814453      0.0999964997172356   -3.87237639843722E-08                       0 
                      2        1.14239239239239        1.22509002685547         41.680721282959       0.668406426906586           254021.703125                  101325        288.123809814453      0.0999964997172356   -3.87243704146322E-08                       0 
                      2        1.13988988988989        1.22509002685547         41.680721282959       0.668406426906586           254021.703125                  101325        288.123809814453      0.0999964997172356   -3.87249768448921E-08                       0 
                      2        1.13738738738739        1.22509002685547         41.680721282959       0.668406426906586           254021.703125                  101325        288.123809814453      0.0999964997172356   -3.87255832751521E-08                       0 
                      2        1.13488488488488        1.22509002685547         41.680721282959       0.668406426906586           254021.703125                  101325        288.123809814453      0.0999964997172356   -3.87261897054121E-08                       0 
                      2        1.13238238238238        1.22509002685547         41.680721282959       0.668406426906586           254021.703125                  101325        288.123809814453      0.0999964997172356    -3.8726796135672E-08                       0 
                      2        1.12987987987988        1.22509002685547         41.680721282959       0.668406426906586           254021.703125                  101325        288.123809814453      0.0999964997172356    -3.8727402565932E-08                       0 
                      2        1.12737737737738        1.22509002685547         41.680721282959       0.668406426906586           254021.703125                  101325        288.123809814453      0.0999964997172356   -3.87280089961919E-08                       0 
                      2        1.12487487487487        1.22509002685547         41.680721282959       0.668406426906586           254021.703125                  101325        288.123809814453      0.0999964997172356   -3.87286154264519E-08                       0 
                      2        1.12237237237237        1.22509002685547         41.680721282959       0.668406426906586           254021.703125                  101325        288.123809814453      0.0999964997172356    -3.8729313643015E-08                       0 
                      2        1.11986986986987        1.22509002685547         41.680721282959       0.668406426906586           254021.703125                  101325        288.123809814453      0.0999964997172356   -3.87301397511647E-08                       0 
                      2        1.11736736736737        1.22509002685547         41.680721282959       0.668406426906586           254021.703125                  101325        288.123809814453      0.0999964997172356   -3.87309658593145E-08                       0 
                      2        1.11486486486486        1.22509002685547         41.680721282959       0.668406426906586           254021.703125                  101325        288.123809814453      0.0999964997172356   -3.87317919674642E-08                       0 
                      2        1.11236236236236        1.22509002685547         41.680721282959       0.668406426906586           254021.703125                  101325        288.123809814453      0.0999964997172356    -3.8732618075614E-08                       0 
                      2        1.10985985985986        1.22509002685547         41.680721282959       0.668406426906586           254021.703125                  101325        288.123809814453      0.0999964997172356   -3.87334441837637E-08                       0 
                      2        1.10735735735736        1.22509002685547         41.680721282959       0.668406426906586           254021.703125                  101325        288.123809814453      0.0999964997172356   -3.87342702919134E-08                       0 
                      2        1.10485485485485        1.22509002685547         41.680721282959       0.668406426906586           254021.703125                  101325        288.123809814453      0.0999964997172356   -3.87350964000632E-08                       0 
                      2        1.10235235235235        1.22509002685547         41.680721282959       0.668406426906586           254021.703125                  101325        288.123809814453      0.0999964997172356   -3.87359225082129E-08                       0 
                      2        1.09984984984985        1.22509002685547         41.680721282959       0.668406426906586           254021.703125                  101325        288.123809814453      0.0999964997172356   -3.87367486163627E-08                       0 
                      2        1.09734734734735        1.22509002685547         41.680721282959       0.668406426906586           254021.703125                  101325        288.123809814453      0.0999964997172356   -3.87375747245124E-08                       0 
                      2        1.09484484484484        1.22509002685547         41.680721282959       0.668406426906586           254021.703125                  101325        288.123809814453      0.0999964997172356   -3.87384008326621E-08                       0 
                      2        1.09234234234234        1.22509002685547         41.680721282959       0.668406426906586           254021.703125                  101325        288.123809814453      0.0999964997172356   -3.87392269408119E-08                       0 
                      2        1.08983983983984        1.22509002685547         41.680721282959       0.668406426906586           254021.703125                  101325        288.123809814453      0.0999964997172356   -3.87398712955936E-08                       0 
                      2        1.08733733733734        1.22509002685547         41.680721282959       0.668406426906586           254021.703125                  101325        288.123809814453      0.0999964997172356    -3.8740461994887E-08                       0 
                      2        1.08483483483483        1.22509002685547         41.680721282959       0.668406426906586           254021.703125                  101325        288.123809814453      0.0999964997172356   -3.87410526941803E-08                       0 
                      2        1.08233233233233        1.22509002685547         41.680721282959       0.668406426906586           254021.703125                  101325        288.123809814453      0.0999964997172356   -3.87416433934737E-08                       0 
                      2        1.07982982982983        1.22509002685547         41.680721282959       0.668406426906586           254021.703125                  101325        288.123809814453      0.0999964997172356    -3.8742234092767E-08                       0 
                      2        1.07732732732733        1.22509002685547         41.680721282959       0.668406426906586           254021.703125                  101325        288.123809814453      0.0999964997172356   -3.87428247920604E-08                       0 
                      2        1.07482482482482        1.22509002685547         41.680721282959       0.668406426906586           254021.703125                  101325        288.123809814453      0.0999964997172356   -3.87434154913537E-08                       0 
                      2        1.07232232232232        1.22509002685547         41.680721282959       0.668406426906586           254021.703125                  101325        288.123809814453      0.0999964997172356    -3.8744006190647E-08                       0 
                      2        1.06981981981982        1.22509002685547         41.680721282959       0.668406426906586           254021.703125                  101325        288.123809814453      0.0999964997172356   -3.87445968899404E-08                       0 
                      2        1.06731731731732        1.22509002685547         41.680721282959       0.668406426906586           254021.703125                  101325        288.123809814453      0.0999964997172356   -3.87451875892337E-08                       0 
                      2        1.06481481481481        1.22509002685547         41.680721282959       0.668406426906586           254021.703125                  101325        288.123809814453      0.0999964997172356   -3.87457782885271E-08                       0 
                      2        1.06231231231231        1.22509002685547         41.680721282959       0.668406426906586           254021.703125                  101325        288.123809814453      0.0999964997172356   -3.87463689878204E-08                       0 
                      2        1.05980980980981        1.22509002685547         41.680721282959       0.668406426906586           254021.703125                  101325        288.123809814453      0.0999964997172356   -3.87469716677872E-08                       0 
                      2        1.05730730730731        1.22509002685547         41.680721282959       0.668406426906586           254021.703125                  101325        288.123809814453      0.0999964997172356   -3.87476568838311E-08                       0 
                      2         1.0548048048048        1.22509002685547         41.680721282959       0.668406426906586           254021.703125                  101325        288.123809814453      0.0999964997172356   -3.87483420998751E-08                       0 
                      2         1.0523023023023        1.22509002685547         41.680721282959       0.668406426906586           254021.703125                  101325        288.123809814453      0.0999964997172356    -3.8749027315919E-08                       0 
                      2         1.0497997997998        1.22509002685547         41.680721282959       0.668406426906586           254021.703125                  101325        288.123809814453      0.0999964997172356    -3.8749712531963E-08                       0 
                      2         1.0472972972973        1.22509002685547         41.680721282959       0.668406426906586           254021.703125                  101325        288.123809814453      0.0999964997172356   -3.87503977480069E-08                       0 
                      2        1.04479479479479        1.22509002685547         41.680721282959       0.668406426906586           254021.703125                  101325        288.123809814453      0.0999964997172356   -3.87510829640509E-08                       0 
                      2        1.04229229229229        1.22509002685547         41.680721282959       0.668406426906586           254021.703125                  101325        288.123809814453      0.0999964997172356   -3.87517681800948E-08                       0 
                      2        1.03978978978979        1.22509002685547         41.680721282959       0.668406426906586           254021.703125                  101325        288.123809814453      0.0999964997172356   -3.87524533961387E-08                       0 
                      2        1.03728728728729        1.22509002685547         41.680721282959       0.668406426906586           254021.703125                  101325        288.123809814453      0.0999964997172356   -3.87531386121827E-08                       0 
                      2        1.03478478478478        1.22509002685547         41.680721282959       0.668406426906586           254021.703125                  101325        288.123809814453      0.0999964997172356   -3.87538238282266E-08                       0 
                      2        1.03228228228228        1.22509002685547         41.680721282959       0.668406426906586           254021.703125                  101325        288.123809814453      0.0999964997172356   -3.87545090442706E-08                       0 
                      2        1.02977977977978        1.22509002685547         41.680721282959       0.668406426906586           254021.703125                  101325        288.123809814453      0.0999964997172356   -3.87551942603145E-08                       0 
                      2        1.02727727727728        1.22509002685547         41.680721282959       0.668406426906586           254021.703125                  101325        288.123809814453      0.0999964997172356   -3.87558003577167E-08                       0 
                      2        1.02477477477477        1.22509002685547         41.680721282959       0.668406426906586           254021.703125                  101325        288.123809814453      0.0999964997172356   -3.87563210894438E-08                       0 
                      2        1.02227227227227        1.22509002685547         41.680721282959       0.668406426906586           254021.703125                  101325        288.123809814453      0.0999964997172356   -3.87568418211709E-08                       0 
                      2        1.01976976976977        1.22509002685547         41.680721282959       0.668406426906586           254021.703125                  101325        288.123809814453      0.0999964997172356   -3.87573625528981E-08                       0 
                      2        1.01726726726727        1.22509002685547         41.680721282959       0.668406426906586           254021.703125                  101325        288.123809814453      0.0999964997172356   -3.87578832846252E-08                       0 
                      2        1.01476476476476        1.22509002685547         41.680721282959       0.668406426906586           254021.703125                  101325        288.123809814453      0.0999964997172356   -3.87584040163523E-08                       0 
                      2        1.01226226226226        1.22509002685547         41.680721282959       0.668406426906586           254021.703125                  101325        288.123809814453      0.0999964997172356   -3.87589247480794E-08                       0 
                      2        1.00975975975976        1.22509002685547         41.680721282959       0.668406426906586           254021.703125                  101325        288.123809814453      0.0999964997172356   -3.87594454798065E-08                       0 
                      2        1.00725725725726        1.22509002685547         41.680721282959       0.668406426906586           254021.703125                  101325        288.123809814453      0.0999964997172356   -3.87599662115337E-08                       0 
                      2        1.00475475475475        1.22509002685547         41.680721282959       0.668406426906586           254021.703125                  101325        288.123809814453      0.0999964997172356   -3.87604869432608E-08                       0 
                      2        1.00225225225225        1.22509002685547         41.680721282959       0.668406426906586           254021.703125                  101325        288.123809814453      0.0999964997172356   -3.87610076749879E-08                       0 
                      2        0.99974974974975        1.22509002685547         41.680721282959       0.668406426906586           254021.703125                  101325        288.123809814453      0.0999964997172356    -3.8761528406715E-08                       0 
                      2       0.997247247247247        1.22509002685547         41.680721282959       0.668406426906586           254021.703125                  101325        288.123809814453      0.0999964997172356   -3.87620491384421E-08                       0 
                      2       0.994744744744745        1.22509002685547         41.680721282959       0.668406426906586           254021.703125                  101325        288.123809814453      0.0999964997172356   -3.87625846577451E-08                       0 
                      2       0.992242242242242        1.22509002685547         41.680721282959       0.668406426906586           254021.703125                  101325        288.123809814453      0.0999964997172356   -3.87631230900272E-08                       0 
                      2        0.98973973973974        1.22509002685547         41.680721282959       0.668406426906586           254021.703125                  101325        288.123809814453      0.0999964997172356   -3.87636615223092E-08                       0 
                      2       0.987237237237237        1.22509002685547         41.680721282959       0.668406426906586           254021.703125                  101325        288.123809814453      0.0999964997172356   -3.87641999545912E-08                       0 
                      2       0.984734734734735        1.22509002685547         41.680721282959       0.668406426906586           254021.703125                  101325        288.123809814453      0.0999964997172356   -3.87647383868732E-08                       0 
                      2       0.982232232232232        1.22509002685547         41.680721282959       0.668406426906586           254021.703125                  101325        288.123809814453      0.0999964997172356   -3.87652768191553E-08                       0 
                      2        0.97972972972973        1.22509002685547         41.680721282959       0.668406426906586           254021.703125                  101325        288.123809814453      0.0999964997172356   -3.87658152514373E-08                       0 
                      2       0.977227227227227        1.22509002685547         41.680721282959       0.668406426906586           254021.703125                  101325        288.123809814453      0.0999964997172356   -3.87663536837193E-08                       0 
                      2       0.974724724724725        1.22509002685547         41.680721282959       0.668406426906586           254021.703125                  101325        288.123809814453      0.0999964997172356   -3.87668921160013E-08                       0 
                      2       0.972222222222222        1.22509002685547         41.680721282959       0.668406426906586           254021.703125                  101325        288.123809814453      0.0999964997172356   -3.87674305482833E-08                       0 