VARIABLES = "x"
 "y"
 "Density"
 "Momentum_x"
 "Momentum_y"
 "Energy"
 "Pressure"
 "Temperature"
 "Mach"
 "C<sub>p</sub>"
 "Roe_Dissipation"
ZONE
DT=(DOUBLE,DOUBLE,DOUBLE,DOUBLE,DOUBLE,DOUBLE,DOUBLE,DOUBLE,DOUBLE,DOUBLE,DOUBLE)
                     -1                    1.25        1.22509098052979         41.680721282959   -2.09477835888165E-09                  254022           101325.203125        288.123901367188      0.0999834910035133    0.000259615699178083                       0 
                     -1         1.2474974974975        1.22509098052979         41.680721282959   -2.02641675060752E-09                  254022           101325.203125        288.123901367188      0.0999834910035133    0.000259615699178083                       0 
                     -1        1.24499499499499        1.22509098052979         41.680721282959   -1.95805514233339E-09                  254022           101325.203125        288.123901367188      0.0999834910035133    0.000259615699178083                       0 
                     -1        1.24249249249249        1.22509098052979         41.680721282959   -1.88969353405927E-09                  254022           101325.203125        288.123901367188      0.0999834910035133    0.000259615699178083                       0 
                     -1        1.23998998998999        1.22509098052979         41.680721282959   -1.82133192578514E-09                  254022           101325.203125        288.123901367188      0.0999834910035133    0.000259615699178083                       0 
                     -1        1.23748748748749        1.22509098052979         41.680721282959   -1.75297031751101E-09                  254022           101325.203125        288.123901367188      0.0999834910035133    0.000259615699178083                       0 
                     -1        1.23498498498498        1.22509098052979         41.680721282959   -1.68460870923688E-09                  254022           101325.203125        288.123901367188      0.0999834910035133    0.000259615699178083                       0 
                     -1        1.23248248248248        1.22509098052979         41.680721282959   -1.61624712054681E-09                  254022           101325.203125        288.123901367188      0.0999834910035133    0.000259615699178083                       0 
                     -1        1.22997997997998        1.22509098052979         41.680721282959   -1.54788551227269E-09                  254022           101325.203125        288.123901367188      0.0999834910035133    0.000259615699178083                       0 
                     -1        1.22747747747748        1.22509098052979         41.680721282959   -1.47952390399856E-09                  254022           101325.203125        288.123901367188      0.0999834910035133    0.000259615699178083                       0 
                     -1        1.22497497497497        1.22509098052979         41.680721282959   -1.41116229572443E-09                  254022           101325.203125        288.123901367188      0.0999834910035133    0.000259615699178083                       0 
                     -1        1.22247247247247        1.22509098052979         41.680721282959    -1.3428006874503E-09                  254022           101325.203125        288.123901367188      0.0999834910035133    0.000259615699178083                       0 
                     -1        1.21996996996997        1.22509098052979         41.680721282959   -1.27443907917617E-09                  254022           101325.203125        288.123901367188      0.0999834910035133    0.000259615699178083                       0 
                     -1        1.21746746746747        1.22509098052979         41.680721282959   -1.20874895739655E-09                  254022           101325.203125        288.123901367188      0.0999834910035133    0.000259615699178083                       0 
                     -1        1.21496496496496        1.22509098052979         41.680721282959    -1.1479285293812E-09                  254022           101325.203125        288.123901367188      0.0999834910035133    0.000259615699178083                       0 
                     -1        1.21246246246246        1.22509098052979         41.680721282959   -1.08710810136585E-09                  254022           101325.203125        288.123901367188      0.0999834910035133    0.000259615699178083                       0 
                     -1        1.20995995995996        1.22509098052979         41.680721282959    -1.0262876733505E-09                  254022           101325.203125        288.123901367188      0.0999834910035133    0.000259615699178083                       0 
                     -1        1.20745745745746        1.22509098052979         41.680721282959   -9.65467245335146E-10                  254022           101325.203125        288.123901367188      0.0999834910035133    0.000259615699178083                       0 
                     -1        1.20495495495495        1.22509098052979         41.680721282959   -9.04646817319796E-10                  254022           101325.203125        288.123901367188      0.0999834910035133    0.000259615699178083                       0 
                     -1        1.20245245245245        1.22509098052979         41.680721282959   -8.43826409859361E-10                  254022           101325.203125        288.123901367188      0.0999834910035133    0.000259615699178083                       0 
                     -1        1.19994994994995        1.22509098052979         41.680721282959   -7.83005981844011E-10                  254022           101325.203125        288.123901367188      0.0999834910035133    0.000259615699178083                       0 
                     -1        1.19744744744745        1.22509098052979         41.680721282959   -7.22185553828661E-10                  254022           101325.203125        288.123901367188      0.0999834910035133    0.000259615699178083                       0 
                     -1        1.19494494494494        1.22509098052979         41.680721282959   -6.61365125813311E-10                  254022           101325.203125        288.123901367188      0.0999834910035133    0.000259615699178083                       0 
                     -1        1.19244244244244        1.22509098052979         41.680721282959   -6.00544697797961E-10                  254022           101325.203125        288.123901367188      0.0999834910035133    0.000259615699178083                       0 
                     -1        1.18993993993994        1.22509098052979         41.680721282959   -5.39724269782611E-10                  254022           101325.203125        288.123901367188      0.0999834910035133    0.000259615699178083                       0 
                     -1        1.18743743743744        1.22509098052979         41.680721282959   -4.78903841767261E-10                  254022           101325.203125        288.123901367188      0.0999834910035133    0.000259615699178083                       0 
                     -1        1.18493493493493        1.22509098052979         41.680721282959   -4.28766641898978E-10                  254022           101325.203125        288.123901367188      0.0999834910035133    0.000259615695914895                       0 
                     -1        1.18243243243243        1.22509098052979         41.680721282959   -3.83015619749236E-10                  254022           101325.203125        288.123901367188      0.0999834910035133    0.000259615691311951                       0 
                     -1        1.17992992992993        1.22509098052979         41.680721282959   -3.37264597599495E-10                  254022           101325.203125        288.123901367188      0.0999834910035133    0.000259615686709008                       0 
                     -1        1.17742742742743        1.22509098052979         41.680721282959   -2.91513575449753E-10                  254022           101325.203125        288.123901367188      0.0999834910035133    0.000259615682106064                       0 
                     -1        1.17492492492492        1.22509098052979         41.680721282959   -2.45762553300011E-10                  254022           101325.203125        288.123901367188      0.0999834910035133     0.00025961567750312                       0 
                     -1        1.17242242242242        1.22509098052979         41.680721282959   -2.00011531150269E-10                  254022           101325.203125        288.123901367188      0.0999834910035133    0.000259615672900177                       0 
                     -1        1.16991991991992        1.22509098052979         41.680721282959   -1.54260529369614E-10                  254022           101325.203125        288.123901367188      0.0999834910035133    0.000259615668297165                       0 
                     -1        1.16741741741742        1.22509098052979         41.680721282959   -1.08509507219872E-10                  254022           101325.203125        288.123901367188      0.0999834910035133    0.000259615663694221                       0 
                     -1        1.16491491491491        1.22509098052979         41.680721282959   -6.27584850701303E-11                  254022           101325.203125        288.123901367188      0.0999834910035133    0.000259615659091278                       0 
                     -1        1.16241241241241        1.22509098052979         41.680721282959   -1.70074629203885E-11                  254022           101325.203125        288.123901367188      0.0999834910035133    0.000259615654488334                       0 
                     -1        1.15990990990991        1.22509098052979         41.680721282959    2.87435592293532E-11                  254022           101325.203125        288.123901367188      0.0999834910035133     0.00025961564988539                       0 
                     -1        1.15740740740741        1.22509098052979         41.680721282959    7.44945813790949E-11                  254022           101325.203125        288.123901367188      0.0999834910035133    0.000259615645282447                       0 
                     -1         1.1549049049049        1.22509098052979         41.680721282959    1.19282627405678E-10                  254022           101325.203125        288.123901367188      0.0999834910035133    0.000259615640970354                       0 
                     -1         1.1524024024024        1.22509098052979         41.680721282959    1.49793798771586E-10                  254022           101325.203125        288.123901367188      0.0999834910035133    0.000259615640970354                       0 
                     -1         1.1498998998999        1.22509098052979         41.680721282959    1.80304970137494E-10                  254022           101325.203125        288.123901367188      0.0999834910035133    0.000259615640970354                       0 
                     -1         1.1473973973974        1.22509098052979         41.680721282959    2.10816141503401E-10                  254022           101325.203125        288.123901367188      0.0999834910035133    0.000259615640970354                       0 
                     -1        1.14489489489489        1.22509098052979         41.680721282959    2.41327312869309E-10                  254022           101325.203125        288.123901367188      0.0999834910035133    0.000259615640970354                       0 
                     -1        1.14239239239239        1.22509098052979         41.680721282959    2.71838484235217E-10                  254022           101325.203125        288.123901367188      0.0999834910035133    0.000259615640970354                       0 
                     -1        1.13988988988989        1.22509098052979         41.680721282959    3.02349655601124E-10                  254022           101325.203125        288.123901367188      0.0999834910035133    0.000259615640970354                       0 
                     -1        1.13738738738739        1.22509098052979         41.680721282959     3.3286080662028E-10                  254022           101325.203125        288.123901367188      0.0999834910035133    0.000259615640970354                       0 
                     -1        1.13488488488488        1.22509098052979         41.680721282959    3.63371977986188E-10                  254022           101325.203125        288.123901367188      0.0999834910035133    0.000259615640970354                       0 
                     -1        1.13238238238238        1.22509098052979         41.680721282959    3.93883149352095E-10                  254022           101325.203125        288.123901367188      0.0999834910035133    0.000259615640970354                       0 
                     -1        1.12987987987988        1.22509098052979         41.680721282959    4.24394320718003E-10                  254022           101325.203125        288.123901367188      0.0999834910035133    0.000259615640970354                       0 
                     -1        1.12737737737738        1.22509098052979         41.680721282959    4.54905492083911E-10                  254022           101325.203125        288.123901367188      0.0999834910035133    0.000259615640970354                       0 
                     -1        1.12487487487487        1.22509098052979         41.680721282959    4.85416663449819E-10                  254022           101325.203125        288.123901367188      0.0999834910035133    0.000259615640970354                       0 
                     -1        1.12237237237237        1.22509098052979         41.680721282959    5.09944185916531E-10                  254022           101325.203125        288.123901367188      0.0999834910035133    0.000259615640970354                       0 
                     -1        1.11986986986987        1.22509098052979         41.680721282959    5.26134316796179E-10                  254022           101325.203125        288.123901367188      0.0999834910035133    0.000259615640970354                       0 
                     -1        1.11736736736737        1.22509098052979         41.680721282959    5.42324447675826E-10                  254022           101325.203125        288.123901367188      0.0999834910035133    0.000259615640970354                       0 
                     -1        1.11486486486486        1.22509098052979         41.680721282959    5.58514578555474E-10                  254022           101325.203125        288.123901367188      0.0999834910035133    0.000259615640970354                       0 
                     -1        1.11236236236236        1.22509098052979         41.680721282959    5.74704709435122E-10                  254022           101325.203125        288.123901367188      0.0999834910035133    0.000259615640970354                       0 
                     -1        1.10985985985986        1.22509098052979         41.680721282959     5.9089484031477E-10                  254022           101325.203125        288.123901367188      0.0999834910035133    0.000259615640970354                       0 
                     -1        1.10735735735736        1.22509098052979         41.680721282959    6.07084952440132E-10                  254022           101325.203125        288.123901367188      0.0999834910035133    0.000259615640970354                       0 
                     -1        1.10485485485485        1.22509098052979         41.680721282959     6.2327508331978E-10                  254022           101325.203125        288.123901367188      0.0999834910035133    0.000259615640970354                       0 
                     -1        1.10235235235235        1.22509098052979         41.680721282959    6.39465214199428E-10                  254022           101325.203125        288.123901367188      0.0999834910035133    0.000259615640970354                       0 
                     -1        1.09984984984985        1.22509098052979         41.680721282959    6.55655345079076E-10                  254022           101325.203125        288.123901367188      0.0999834910035133    0.000259615640970354                       0 
                     -1        1.09734734734735        1.22509098052979         41.680721282959    6.71845475958724E-10                  254022           101325.203125        288.123901367188      0.0999834910035133    0.000259615640970354                       0 
                     -1        1.09484484484484        1.22509098052979         41.680721282959    6.88035606838372E-10                  254022           101325.203125        288.123901367188      0.0999834910035133    0.000259615640970354                       0 
                     -1        1.09234234234234        1.22509098052979         41.680721282959     7.0422573771802E-10                  254022           101325.203125        288.123901367188      0.0999834910035133    0.000259615640970354                       0 
                     -1        1.08983983983984        1.22509098052979         41.680721282959     7.1372278299005E-10                  254022           101325.203125        288.123901367188      0.0999834910035133    0.000259615640970354                       0 
                     -1        1.08733733733734        1.22509098052979         41.680721282959    7.21243959636358E-10                  254022           101325.203125        288.123901367188      0.0999834910035133    0.000259615640970354                       0 
                     -1        1.08483483483483        1.22509098052979         41.680721282959    7.28765136282666E-10                  254022           101325.203125        288.123901367188      0.0999834910035133    0.000259615640970354                       0 
                     -1        1.08233233233233        1.22509098052979         41.680721282959    7.36286312928974E-10                  254022           101325.203125        288.123901367188      0.0999834910035133    0.000259615640970354                       0 
                     -1        1.07982982982983        1.22509098052979         41.680721282959    7.43807489575282E-10                  254022           101325.203125        288.123901367188      0.0999834910035133    0.000259615640970354                       0 
                     -1        1.07732732732733        1.22509098052979         41.680721282959    7.51328666221591E-10                  254022           101325.203125        288.123901367188      0.0999834910035133    0.000259615640970354                       0 
                     -1        1.07482482482482        1.22509098052979         41.680721282959    7.58849825936033E-10                  254022           101325.203125        288.123901367188      0.0999834910035133    0.000259615640970354                       0 
                     -1        1.07232232232232        1.22509098052979         41.680721282959    7.66371002582341E-10                  254022           101325.203125        288.123901367188      0.0999834910035133    0.000259615640970354                       0 
                     -1        1.06981981981982        1.22509098052979         41.680721282959    7.73892179228649E-10                  254022           101325.203125        288.123901367188      0.0999834910035133    0.000259615640970354                       0 
                     -1        1.06731731731732        1.22509098052979         41.680721282959    7.81413355874957E-10                  254022           101325.203125        288.123901367188      0.0999834910035133    0.000259615640970354                       0 
                     -1        1.06481481481481        1.22509098052979         41.680721282959    7.88934532521265E-10                  254022           101325.203125        288.123901367188      0.0999834910035133    0.000259615640970354                       0 
                     -1        1.06231231231231        1.22509098052979         41.680721282959    7.96455709167573E-10                  254022           101325.203125        288.123901367188      0.0999834910035133    0.000259615640970354                       0 
                     -1        1.05980980980981        1.22509098052979         41.680721282959    8.03461377291492E-10                  254022           101325.203125        288.123901367188      0.0999834910035133    0.000259615640970354                       0 
                     -1        1.05730730730731        1.22509098052979         41.680721282959    8.06915654808114E-10                  254022           101325.203125        288.123901367188      0.0999834910035133    0.000259615640970354                       0 
                     -1         1.0548048048048        1.22509098052979         41.680721282959    8.10369932324737E-10                  254022           101325.203125        288.123901367188      0.0999834910035133    0.000259615640970354                       0 
                     -1         1.0523023023023        1.22509098052979         41.680721282959    8.13824209841359E-10                  254022           101325.203125        288.123901367188      0.0999834910035133    0.000259615640970354                       0 
                     -1         1.0497997997998        1.22509098052979         41.680721282959    8.17278487357981E-10                  254022           101325.203125        288.123901367188      0.0999834910035133    0.000259615640970354                       0 
                     -1         1.0472972972973        1.22509098052979         41.680721282959    8.20732764874604E-10                  254022           101325.203125        288.123901367188      0.0999834910035133    0.000259615640970354                       0 
                     -1        1.04479479479479        1.22509098052979         41.680721282959    8.24187042391226E-10                  254022           101325.203125        288.123901367188      0.0999834910035133    0.000259615640970354                       0 
                     -1        1.04229229229229        1.22509098052979         41.680721282959    8.27641304858293E-10                  254022           101325.203125        288.123901367188      0.0999834910035133    0.000259615640970354                       0 
                     -1        1.03978978978979        1.22509098052979         41.680721282959    8.31095582374916E-10                  254022           101325.203125        288.123901367188      0.0999834910035133    0.000259615640970354                       0 
                     -1        1.03728728728729        1.22509098052979         41.680721282959    8.34549859891538E-10                  254022           101325.203125        288.123901367188      0.0999834910035133    0.000259615640970354                       0 
                     -1        1.03478478478478        1.22509098052979         41.680721282959     8.3800413740816E-10                  254022           101325.203125        288.123901367188      0.0999834910035133    0.000259615640970354                       0 
                     -1        1.03228228228228        1.22509098052979         41.680721282959    8.41458414924782E-10                  254022           101325.203125        288.123901367188      0.0999834910035133    0.000259615640970354                       0 
                     -1        1.02977977977978        1.22509098052979         41.680721282959    8.44912692441405E-10                  254022           101325.203125        288.123901367188      0.0999834910035133    0.000259615640970354                       0 
                     -1        1.02727727727728        1.22509098052979         41.680721282959    8.48651564977552E-10                  254022           101325.203125        288.123901367188      0.0999834910035133    0.000259615640970354                       0 
                     -1        1.02477477477477        1.22509098052979         41.680721282959    8.52697503527859E-10                  254022           101325.203125        288.123901367188      0.0999834910035133    0.000259615640970354                       0 
                     -1        1.02227227227227        1.22509098052979         41.680721282959    8.56743442078165E-10                  254022           101325.203125        288.123901367188      0.0999834910035133    0.000259615640970354                       0 
                     -1        1.01976976976977        1.22509098052979         41.680721282959    8.60789380628472E-10                  254022           101325.203125        288.123901367188      0.0999834910035133    0.000259615640970354                       0 
                     -1        1.01726726726727        1.22509098052979         41.680721282959    8.64835319178779E-10                  254022           101325.203125        288.123901367188      0.0999834910035133    0.000259615640970354                       0 
                     -1        1.01476476476476        1.22509098052979         41.680721282959    8.68881257729086E-10                  254022           101325.203125        288.123901367188      0.0999834910035133    0.000259615640970354                       0 
                     -1        1.01226226226226        1.22509098052979         41.680721282959    8.72927181707706E-10                  254022           101325.203125        288.123901367188      0.0999834910035133    0.000259615640970354                       0 
                     -1        1.00975975975976        1.22509098052979         41.680721282959    8.76973120258013E-10                  254022           101325.203125        288.123901367188      0.0999834910035133    0.000259615640970354                       0 
                     -1        1.00725725725726        1.22509098052979         41.680721282959     8.8101905880832E-10                  254022           101325.203125        288.123901367188      0.0999834910035133    0.000259615640970354                       0 
                     -1        1.00475475475475        1.22509098052979         41.680721282959    8.85064997358627E-10                  254022           101325.203125        288.123901367188      0.0999834910035133    0.000259615640970354                       0 
                     -1        1.00225225225225        1.22509098052979         41.680721282959    8.89110935908934E-10                  254022           101325.203125        288.123901367188      0.0999834910035133    0.000259615640970354                       0 
                     -1        0.99974974974975        1.22509098052979         41.680721282959     8.9315687445924E-10                  254022           101325.203125        288.123901367188      0.0999834910035133    0.000259615640970354                       0 
                     -1       0.997247247247247        1.22509098052979         41.680721282959    8.97202813009547E-10                  254022           101325.203125        288.123901367188      0.0999834910035133    0.000259615640970354                       0 
                     -1       0.994744744744745        1.22509098052979         41.680721282959    9.03175578284361E-10                  254022           101325.203125        288.123901367188      0.0999834910035133    0.000259615640970354                       0 
                     -1       0.992242242242242        1.22509098052979         41.680721282959    9.09527905825293E-10                  254022           101325.203125        288.123901367188      0.0999834910035133    0.000259615640970354                       0 
                     -1        0.98973973973974        1.22509098052979         41.680721282959    9.15880233366225E-10                  254022           101325.203125        288.123901367188      0.0999834910035133    0.000259615640970354                       0 
                     -1       0.987237237237237        1.22509098052979         41.680721282959    9.22232560907158E-10                  254022           101325.203125        288.123901367188      0.0999834910035133    0.000259615640970354                       0 
                     -1       0.984734734734735        1.22509098052979         41.680721282959     9.2858488844809E-10                  254022           101325.203125        288.123901367188      0.0999834910035133    0.000259615640970354                       0 
                     -1       0.982232232232232        1.22509098052979         41.680721282959    9.34937215989022E-10                  254022           101325.203125        288.123901367188      0.0999834910035133    0.000259615640970354                       0 
                     -1        0.97972972972973        1.22509098052979         41.680721282959    9.41289528162832E-10                  254022           101325.203125        288.123901367188      0.0999834910035133    0.000259615640970354                       0 
                     -1       0.977227227227227        1.22509098052979         41.680721282959    9.47641855703764E-10                  254022           101325.203125        288.123901367188      0.0999834910035133    0.000259615640970354                       0 
                     -1       0.974724724724725        1.22509098052979         41.680721282959    9.53994183244696E-10                  254022           101325.203125        288.123901367188      0.0999834910035133    0.000259615640970354                       0 
                     -1       0.972222222222222        1.22509098052979         41.680721282959    9.60346510785628E-10                  254022           101325.203125        288.123901367188      0.0999834910035133    0.000259615640970354                       0 