 VARIABLES = "X",  "Y"
 ZONE N=         268 , E=         450 , F=FEPOINT, ET=TRIANGLE
        3.0000000000       -0.1570790000
        1.0000000000       -0.1570790000
        3.0000000000        0.1570790000
        1.0000000000        0.1570790000
        2.9444444444       -0.1570790000
        2.8888888889       -0.1570790000
        2.8333333333       -0.1570790000
        2.7777777778       -0.1570790000
        2.7222222222       -0.1570790000
        2.6666666667       -0.1570790000
        2.6111111111       -0.1570790000
        2.5555555556       -0.1570790000
        2.5000000000       -0.1570790000
        2.4444444444       -0.1570790000
        2.3888888889       -0.1570790000
        2.3333333333       -0.1570790000
        2.2777777778       -0.1570790000
        2.2222222222       -0.1570790000
        2.1666666667       -0.1570790000
        2.1111111111       -0.1570790000
        2.0555555556       -0.1570790000
        2.0000000000       -0.1570790000
        1.9444444444       -0.1570790000
        1.8888888889       -0.1570790000
        1.8333333333       -0.1570790000
        1.7777777778       -0.1570790000
        1.7222222222       -0.1570790000
        1.6666666667       -0.1570790000
        1.6111111111       -0.1570790000
        1.5555555556       -0.1570790000
        1.5000000000       -0.1570790000
        1.4444444444       -0.1570790000
        1.3888888889       -0.1570790000
        1.3333333333       -0.1570790000
        1.2777777778       -0.1570790000
        1.2222222222       -0.1570790000
        1.1666666667       -0.1570790000
        1.1111111111       -0.1570790000
        1.0555555556       -0.1570790000
        3.0000000000        0.1047193333
        3.0000000000        0.0523596667
        3.0000000000        0.0000000000
        3.0000000000       -0.0523596667
        3.0000000000       -0.1047193333
        1.0555555556        0.1570790000
        1.1111111111        0.1570790000
        1.1666666667        0.1570790000
        1.2222222222        0.1570790000
        1.2777777778        0.1570790000
        1.3333333333        0.1570790000
        1.3888888889        0.1570790000
        1.4444444444        0.1570790000
        1.5000000000        0.1570790000
        1.5555555556        0.1570790000
        1.6111111111        0.1570790000
        1.6666666667        0.1570790000
        1.7222222222        0.1570790000
        1.7777777778        0.1570790000
        1.8333333333        0.1570790000
        1.8888888889        0.1570790000
        1.9444444444        0.1570790000
        2.0000000000        0.1570790000
        2.0555555556        0.1570790000
        2.1111111111        0.1570790000
        2.1666666667        0.1570790000
        2.2222222222        0.1570790000
        2.2777777778        0.1570790000
        2.3333333333        0.1570790000
        2.3888888889        0.1570790000
        2.4444444444        0.1570790000
        2.5000000000        0.1570790000
        2.5555555556        0.1570790000
        2.6111111111        0.1570790000
        2.6666666667        0.1570790000
        2.7222222222        0.1570790000
        2.7777777778        0.1570790000
        2.8333333333        0.1570790000
        2.8888888889        0.1570790000
        2.9444444444        0.1570790000
        1.0000000000       -0.1047193333
        1.0000000000       -0.0523596667
        1.0000000000        0.0000000000
        1.0000000000        0.0523596667
        1.0000000000        0.1047193333
        2.3030225854        0.1271338463
        2.5857701088        0.1241560941
        2.1597218714       -0.1290812045
        1.0905952223        0.1151134678
        1.1806258543       -0.0586148193
        2.9116061275        0.1173044952
        1.1424557980       -0.1076685949
        1.0893028239       -0.1167682987
        1.1353327849        0.0985864826
        1.1792111198        0.0603069388
        1.1950720142        0.1092908630
        1.2238731460        0.0532499301
        1.2497763455        0.1100133695
        1.1935940647       -0.1164910151
        1.2240985662       -0.0547325191
        1.2487147487        0.0009393247
        1.2793820304        0.0557018586
        1.3055626834        0.1103094201
        1.2496581661       -0.1163284180
        1.2793562208       -0.0565321361
        1.3082029751        0.0007876693
        1.3359763123        0.0562898544
        1.3615368670        0.1101535301
        1.3055700791       -0.1166643847
        1.3359207371       -0.0567721987
        1.3649074489        0.0010240213
        1.3919738867        0.0564799120
        1.4173195416        0.1098281901
        1.3614936612       -0.1168135979
        1.3918956377       -0.0566695197
        1.4206415866        0.0012594485
        1.4474837862        0.0565284338
        1.4729280026        0.1094430643
        1.4172153644       -0.1169054703
        1.4473867358       -0.0565359181
        1.4758959126        0.0014384946
        1.5027190042        0.0565135290
        1.5284435130        0.1090417943
        1.4727780900       -0.1170077681
        1.5026090953       -0.0564324522
        1.5309239450        0.0015749326
        1.5578347831        0.0564716267
        1.5839298907        0.1086408962
        1.5282578220       -0.1171332512
        1.5577137440       -0.0563580237
        1.5858710342        0.0016846139
        1.6129282598        0.0564105901
        1.6394357834        0.1082337457
        2.0992205589       -0.1118513293
        2.0800348817       -0.0655391745
        2.0398120276       -0.1118088571
        1.9920524527       -0.1158330394
        2.0223744000       -0.0654212704
        1.9912364934       -0.0182312678
        1.9649290186       -0.0901019955
        1.9378619461       -0.0313951874
        1.9087723012        0.0033755264
        1.8969607834        0.0487934650
        1.9144175771       -0.1103380095
        1.8859316648       -0.0504644511
        1.8611389812        0.0014585090
        1.8359300347        0.0537195107
        1.8603598457       -0.1162425592
        1.8054107354       -0.1176212437
        1.5837058878       -0.1172796132
        1.6391502996       -0.1174457803
        1.6946042811       -0.1176200860
        1.7500573515       -0.1177600356
        1.8329007823       -0.0551871001
        1.7781654344       -0.0561593417
        1.6127873198       -0.0563074163
        1.6678826465       -0.0562868353
        1.7230266012       -0.0562822670
        1.8063818077        0.0014411853
        1.6408244132        0.0017624348
        1.6958589934        0.0017720941
        1.7510483615        0.0016645216
        1.6680792002        0.0562999267
        1.7791352060        0.0554007850
        1.7234044918        0.0560407662
        2.8615265068        0.1081870645
        2.4452787925        0.1252577253
        1.6950268428        0.1077741897
        1.7508413293        0.1071238168
        1.8071497330        0.1058783339
        1.8648049659        0.1029159697
        1.9245215718        0.0950707011
        1.9787868323        0.1038040557
        2.0235674666        0.1206819390
        1.9532468194        0.0370715952
        2.0140914629        0.0802009761
        2.0658890486        0.1158945497
        2.0143763129        0.0262309192
        2.0612130616        0.0580581298
        2.0509422615       -0.0160021821
        2.1075510986        0.0307626128
        2.1120234773        0.0981370383
        2.1660996249        0.1273510737
        2.1601988655        0.0631980709
        2.1061128083       -0.0266773554
        2.1540243016       -0.0002853065
        2.2073662500        0.0283108147
        2.2135433927        0.0970147941
        2.1368209804       -0.0714662064
        2.2028451962       -0.0353906928
        2.2067458181       -0.1021819071
        2.2573538419       -0.0679347561
        2.2621081751        0.1147662623
        2.2577474798        0.0549997726
        2.2556864643       -0.0072432897
        2.3052525983       -0.0423451885
        2.3043115547        0.0784987090
        2.3040124298        0.0211668805
        2.3493874871        0.1138306791
        2.3500858205        0.0539736689
        2.3570691736       -0.0683006809
        2.3520518290       -0.0082728665
        2.3949515582        0.0949062500
        2.3970158219        0.0262097981
        2.4002391325       -0.0378705409
        2.4432428144       -0.0538303825
        2.4428196863       -0.0032339766
        2.4858174829       -0.0380079814
        2.5293193237       -0.0682284434
        2.2538500282       -0.1175420231
        2.3059941282       -0.0978041749
        2.3587354993       -0.1139025926
        2.4071220087       -0.0898927526
        2.4817222702       -0.0888226110
        2.5303711092       -0.1108304208
        2.5809574949       -0.0935135725
        2.6319997547       -0.1149932326
        2.4433762878        0.0603200923
        2.4926859404        0.0946825055
        2.5397529041        0.1124349188
        2.4886907098        0.0262287040
        2.5358255302        0.0538520339
        2.6718632872        0.0947737688
        2.6255947694        0.1128885959
        2.5819329002        0.0781694686
        2.5328805609       -0.0081616046
        2.5799992421        0.0212857850
        2.6261199974        0.0545238352
        2.5787371259       -0.0425555996
        2.6253968918       -0.0070018025
        2.7225441862        0.1250853850
        2.8105419208        0.1178076102
        2.7693646764        0.0975641244
        2.8139684201        0.0645827265
        2.7673734805        0.0314237664
        2.7205400486        0.0623570554
        2.6725971264        0.0278281216
        2.7199763546       -0.0020201705
        2.6233492237       -0.0673813163
        2.6722535412       -0.0352723620
        2.6723197400       -0.0979858420
        2.7217570835       -0.1253875851
        2.7203647219       -0.0652529116
        2.7672442902       -0.0332523391
        2.7689950390       -0.0981848751
        2.8099004230       -0.1183519304
        2.8134660859       -0.0654848551
        2.9119397196       -0.1174721270
        2.8608522689       -0.1091378740
        1.1981575421        0.0027895806
        1.1423930143       -0.0310509111
        2.8137552000       -0.0004494553
        2.8603514834        0.0344475086
        2.9071582026        0.0644065847
        2.8604351062       -0.0343158748
        2.9075913273       -0.0641000163
        2.9521233851        0.0928814276
        1.0944479547       -0.0625556237
        1.0484531529       -0.0923452717
        2.9522468067       -0.0928494902
        1.1412212889        0.0379058634
        1.0968136918        0.0659625878
        1.0491037556        0.0929320244
        1.0953798037        0.0021137026
        2.9069457307        0.0000933147
        2.9533087195       -0.0298386577
        1.0482814327        0.0307386700
        2.9532267713        0.0299467549
        1.0478399175       -0.0289891541
 
         2        39        80
        80        39       258
        39        92       258
        80       258        81
        92       257       258
        39        38        92
       258       268        81
       258       257       268
        91       257        92
        38        91        92
        81       268        82
       257       263       268
       250       257        91
        38        37        91
        82       268       266
       263       266       268
       250       263       257
        89       250        91
        98        91        37
        82       266        83
       263       261       266
       260       263       250
        98        89        91
       250        89       249
        36        98        37
        83       266       262
       261       262       266
       260       261       263
       260       250       249
        98        99        89
        89        99       249
        36       103        98
        83       262        84
       261        88       262
       260        93       261
       260       249        94
        98       103        99
       249        99       100
       103        36        35
       262        45        84
        88        45       262
        93        88       261
       260        94        93
        94       249        96
        99       103       104
       100        99       104
        96       249       100
       108       103        35
        84        45         4
        46        45        88
        93        46        88
        95        93        94
        96        95        94
       108       104       103
       105       100       104
       101        96       100
        34       108        35
        47        46        93
        95        47        93
        95        96        97
       109       104       108
       109       105       104
       105       101       100
       101        97        96
        34       113       108
        48        47        95
        48        95        97
       108       113       109
       110       105       109
       105       106       101
       102        97       101
        33       113        34
        97        49        48
       114       109       113
       114       110       109
       110       106       105
       101       106       102
       102        49        97
        33       118       113
       113       118       114
       115       110       114
       111       106       110
       107       102       106
       102        50        49
        32       118        33
       118       119       114
       114       119       115
       115       111       110
       111       107       106
       107        50       102
        32       123       118
       118       123       119
       120       115       119
       116       111       115
       112       107       111
       107        51        50
        31       123        32
       124       119       123
       124       120       119
       120       116       115
       116       112       111
       112        51       107
        31       128       123
       123       128       124
       125       120       124
       121       116       120
       117       112       116
       112        52        51
        30       128        31
       129       124       128
       129       125       124
       125       121       120
       121       117       116
       117        52       112
        30       149       128
       128       149       129
       130       125       129
       126       121       125
       122       117       121
       117        53        52
        29       149        30
       155       129       149
       155       130       129
       130       126       125
       126       122       121
       122        53       117
        29       150       149
       150       155       149
       159       130       155
       131       126       130
       127       122       126
       122        54        53
        28       150        29
       150       156       155
       156       159       155
       159       131       130
       131       127       126
       127        54       122
        28       151       150
       151       156       150
       156       160       159
       162       131       159
       132       127       131
       127        55        54
        27       151        28
       151       157       156
       160       162       159
       157       160       156
       162       132       131
       132        55       127
        27       152       151
       152       157       151
       160       164       162
       157       161       160
       167       132       162
       132        56        55
        26       152        27
       154       157       152
       167       162       164
       161       164       160
       154       161       157
       167        56       132
       148       152        26
       148       154       152
       164       168       167
       163       164       161
       158       161       154
       167        57        56
        25       148        26
       153       154       148
       168        57       167
       164       163       168
       161       158       163
       153       158       154
       147       148        25
       147       153       148
       168        58        57
       163       169       168
       163       158       146
       145       158       153
        24       147        25
       144       153       147
       169        58       168
       163       146       169
       146       158       145
       145       153       144
       147        24       143
       144       147       143
       169        59        58
       146       170       169
       142       146       145
       141       145       144
       143        24        23
       143       140       144
       170        59       169
       170       146       142
       142       145       141
       140       141       144
       143        23       139
       140       143       139
       170        60        59
       170       142       171
       174       142       141
       140       174       141
       139        23       136
       139       138       140
       171        60       170
       142       174       171
       138       174       140
       136        23        22
       139       136       137
       138       139       137
        61        60       171
       172       171       174
       177       174       138
       136        22       135
       137       136       135
       179       138       137
        61       171       172
       172       174       175
       179       177       138
       175       174       177
       135        22        21
       134       137       135
       134       179       137
        62        61       172
       173       172       175
       178       177       179
       175       177       178
       135        21       133
       134       135       133
       184       179       134
        62       172       173
       173       175       176
       178       179       180
       176       175       178
       133        21        20
       188       134       133
       188       184       134
       180       179       184
        63        62       173
        63       173       176
       181       178       180
       176       178       181
       133        20        87
       188       133        87
       185       184       188
       180       184       185
        64        63       176
       183       181       180
        64       176       181
        87        20        19
       190       188        87
       188       189       185
       183       180       185
       182       181       183
        64       181       182
        87        19        18
       190        87        18
       190       189       188
       185       189       186
       185       186       183
       182       183       187
        65        64       182
       209       190        18
       189       190       191
       186       189       194
       183       186       187
        66       182       187
        66        65       182
       209        18        17
       209       191       190
       194       189       191
       193       186       194
       187       186       193
        66       187       192
       210       209        17
       191       209       210
       194       191       195
       193       194       197
       192       187       193
        67        66       192
       210        17        16
       195       191       210
       197       194       195
       196       193       197
       192       193       196
        67       192        85
       211       210        16
       200       195       210
       201       197       195
       196       197       199
        85       192       196
        68        67        85
       211        16        15
       210       211       200
       201       195       200
       201       199       197
       198       196       199
       198        85       196
        68        85       198
       212       211        15
       200       211       212
       201       200       204
       199       201       203
       198       199       202
        69        68       198
       212        15        14
       204       200       212
       204       203       201
       202       199       203
        69       198       202
       213       212        14
       205       204       212
       204       206       203
       202       203       217
       202       166        69
        13       213        14
       205       212       213
       206       204       205
       203       206       217
       166       202       217
       166        70        69
        13       214       213
       207       205       213
       207       206       205
       220       217       206
       218       166       217
       166        71        70
       208       213       214
        12       214        13
       208       207       213
       220       206       207
       220       218       217
       218        71       166
       215       208       214
        12       215       214
       225       207       208
       225       220       207
       221       218       220
       219        71       218
       215       228       208
        11       215        12
       208       228       225
       225       221       220
       221       219       218
       219        72        71
       215       238       228
        11       216       215
       225       228       226
       226       221       225
       224       219       221
        86        72       219
       238       229       228
       216       238       215
        10       216        11
       229       226       228
       226       224       221
       224        86       219
        86        73        72
       239       229       238
       216       240       238
        10       240       216
       229       227       226
       227       224       226
       224       223        86
       223        73        86
       238       240       239
       239       236       229
       241       240        10
       236       227       229
       227       223       224
       223        74        73
       242       239       240
       239       237       236
         9       241        10
       241       242       240
       236       222       227
       227       222       223
       223       222        74
       237       239       242
       237       235       236
         8       241         9
       241       244       242
       236       235       222
       222       230        74
       243       237       242
       234       235       237
         8       244       241
       242       244       243
       222       235       230
       230        75        74
       234       237       243
       234       232       235
         8       245       244
       246       243       244
       235       232       230
       230        76        75
       251       234       243
       234       233       232
       245       246       244
         7       245         8
       246       251       243
       232        76       230
       233       234       251
       233       231       232
       245       248       246
         7       248       245
       246       254       251
       232       231        76
       252       233       251
       231       233       165
       248       254       246
       248         7         6
       251       254       252
       231        77        76
       165       233       252
       231       165        77
       248       255       254
       247       248         6
       264       252       254
       253       165       252
       165        78        77
       255       264       254
       247       255       248
         6         5       247
       264       253       252
       253        90       165
        90        78       165
       265       264       255
       259       255       247
       247         5       259
       267       253       264
       256        90       253
        90        79        78
       265       255       259
       267       264       265
       259         5        44
       267       256       253
       256        79        90
        43       265       259
        42       267       265
        44         5         1
        43       259        44
       256       267        41
        40        79       256
        42       265        43
        41       267        42
        40       256        41
        40         3        79
