/*--------------------------------*- C++ -*----------------------------------*\
  =========                 |
  \\      /  F ield         | OpenFOAM: The Open Source CFD Toolbox
   \\    /   O peration     | Website:  https://openfoam.org
    \\  /    A nd           | Version:  6
     \\/     M anipulation  |
\*---------------------------------------------------------------------------*/
FoamFile
{
    version     2.0;
    format      ascii;
    class       volVectorField;
    location    "40";
    object      U;
}
// * * * * * * * * * * * * * * * * * * * * * * * * * * * * * * * * * * * * * //

dimensions      [0 1 -1 0 0 0 0];

internalField   nonuniform List<vector> 
4000
(
(400 3.98369e-14 0)
(400 4.24135e-14 0)
(400 4.81275e-14 0)
(400 3.26533e-14 0)
(400 3.40578e-14 0)
(400 3.96356e-14 0)
(400 3.21907e-14 0)
(400 2.37577e-14 0)
(400 1.66705e-14 0)
(400 -1.68585e-14 0)
(400 -4.765e-14 0)
(400 -4.69027e-14 0)
(400 -5.83279e-14 0)
(400 -5.80889e-14 0)
(400 -3.93469e-14 0)
(400 -2.95806e-14 0)
(400 -3.76502e-14 0)
(400 -4.9784e-14 0)
(400 -3.79558e-14 0)
(400 -2.25268e-14 0)
(400 -1.3375e-14 0)
(400 -4.2167e-15 0)
(400 1.38076e-14 0)
(400 1.71944e-14 0)
(400 2.28935e-14 0)
(400 3.42127e-14 0)
(400 5.82411e-14 0)
(400 6.98267e-14 0)
(400 7.3804e-14 0)
(400 7.55324e-14 0)
(400 7.1793e-14 0)
(400 5.5683e-14 0)
(400 7.66863e-14 0)
(400 7.91122e-14 0)
(400 7.53092e-14 0)
(400 7.00471e-14 0)
(400 6.61156e-14 0)
(400 5.32382e-14 0)
(400 2.00649e-14 0)
(400 1.6008e-14 0)
(400 2.15995e-14 0)
(400 6.29388e-15 0)
(400 -3.91863e-15 0)
(400 -2.65476e-14 0)
(400 -3.93535e-14 0)
(400 -4.24152e-14 0)
(400 -4.73436e-14 0)
(400 -5.53811e-14 0)
(400 -6.24162e-14 0)
(400 -7.30974e-14 0)
(400 -7.07182e-14 0)
(400 -5.50105e-14 0)
(400 -5.16419e-14 0)
(400 -4.79808e-14 0)
(400 -4.90833e-14 0)
(400 -4.04571e-14 0)
(400 -1.89035e-14 0)
(400 -2.12624e-14 0)
(400 -3.53617e-14 0)
(400 -4.73941e-14 0)
(400 -6.08648e-14 0)
(400 -5.18949e-14 0)
(400 -5.08313e-14 0)
(400 -4.43146e-14 0)
(400 -3.49849e-14 0)
(400 -2.35144e-14 0)
(400 -1.45619e-14 0)
(400 1.51524e-15 0)
(400 2.09916e-14 0)
(400 2.70394e-14 0)
(400 3.05698e-14 0)
(400 3.31314e-14 0)
(400 3.01702e-14 0)
(400 3.45677e-14 0)
(400 3.28265e-14 0)
(400 2.3688e-14 0)
(400 1.06707e-14 0)
(400 -1.56834e-16 0)
(400 3.39669e-15 0)
(400 -5.30503e-16 0)
(400 1.15237e-14 0)
(400 3.94623e-14 0)
(400 5.47613e-14 0)
(400 5.75995e-14 0)
(400 5.3462e-14 0)
(400 6.23766e-14 0)
(400 6.77576e-14 0)
(400 6.54555e-14 0)
(400 4.75225e-14 0)
(400 2.92692e-14 0)
(400 3.81017e-14 0)
(400 4.77904e-14 0)
(400 4.26409e-14 0)
(400 1.75858e-14 0)
(400 -1.11164e-14 0)
(400 -2.3831e-14 0)
(400 -4.14789e-14 0)
(400 -4.48283e-14 0)
(400 -4.05386e-14 0)
(400 -4.25409e-14 0)
(400 -5.5085e-14 0)
(400 -7.37618e-14 0)
(400 -6.82814e-14 0)
(400 -5.42497e-14 0)
(400 -4.23249e-14 0)
(400 -3.20522e-14 0)
(400 9.53181e-16 0)
(400 3.07952e-14 0)
(400 5.12841e-14 0)
(400 6.33056e-14 0)
(400 6.98663e-14 0)
(400 8.47234e-14 0)
(400 7.01937e-14 0)
(400 5.73792e-14 0)
(400 6.52088e-14 0)
(400 6.88659e-14 0)
(400 6.54899e-14 0)
(400 4.98756e-14 0)
(400 5.1433e-14 0)
(400 6.21716e-14 0)
(400 5.72373e-14 0)
(400 4.21968e-14 0)
(400 4.10161e-14 0)
(400 4.32148e-14 0)
(400 3.31945e-14 0)
(400 2.95477e-14 0)
(400 1.44458e-14 0)
(400 -1.80349e-15 0)
(400 -1.70615e-14 0)
(400 -3.39334e-14 0)
(400 -4.16161e-14 0)
(400 -5.28404e-14 0)
(400 -7.0153e-14 0)
(400 -4.92975e-14 0)
(400 -3.6298e-14 0)
(400 -2.60688e-14 0)
(400 -1.51039e-14 0)
(400 -6.31564e-15 0)
(400 9.27031e-15 0)
(400 6.91491e-15 0)
(400 -6.20283e-15 0)
(400 -1.32355e-14 0)
(400 -6.43186e-15 0)
(400 3.43579e-15 0)
(400 7.70241e-15 0)
(400 1.29985e-14 0)
(400 1.05216e-14 0)
(400 3.51543e-15 0)
(400 -1.62382e-14 0)
(400 -2.77141e-14 0)
(400 -3.69386e-14 0)
(400 -3.7296e-14 0)
(400 -4.15276e-14 0)
(400 -2.65168e-14 0)
(400 -2.97796e-14 0)
(400 -3.98711e-14 0)
(400 -4.31069e-14 0)
(400 -3.54858e-14 0)
(400 -2.73644e-14 0)
(400 -2.7707e-14 0)
(400 -2.37573e-14 0)
(400 -1.76542e-14 0)
(400 -1.96502e-14 0)
(400 -2.76305e-14 0)
(400 -3.2842e-14 0)
(400 -2.82128e-14 0)
(400 -2.23805e-14 0)
(400 -1.88366e-14 0)
(400 -2.77558e-14 0)
(400 -1.17261e-14 0)
(400 1.78939e-14 0)
(400 4.15141e-14 0)
(400 4.06988e-14 0)
(400 3.95467e-14 0)
(400 3.66198e-14 0)
(400 -2.06268e-15 0)
(400 -2.18231e-14 0)
(400 -1.76083e-14 0)
(400 -1.81823e-14 0)
(400 -2.69286e-14 0)
(400 -1.42704e-14 0)
(400 2.11976e-15 0)
(400 8.22102e-15 0)
(400 6.32213e-15 0)
(400 9.43702e-15 0)
(400 8.15204e-16 0)
(400 -4.60906e-15 0)
(400 -1.43796e-14 0)
(400 -4.33657e-14 0)
(400 -6.38216e-14 0)
(400 -7.09777e-14 0)
(400 -6.25288e-14 0)
(400 -5.59018e-14 0)
(400 -3.7736e-14 0)
(400 -1.8428e-14 0)
(400 -6.41179e-15 0)
(400 3.62283e-15 0)
(400 4.77814e-15 0)
(400 4.10302e-15 0)
(400 1.30159e-14 0)
(400 -1.79467e-15 0)
(400 -4.66723e-15 0)
(400 1.27031e-15 0)
(400 -2.07992e-15 0)
(400 -2.0566e-15 0)
(400 2.15331e-14 0)
(400 1.83176e-14 0)
(400 1.19423e-15 0)
(400 -4.71859e-15 0)
(400 -1.24197e-14 0)
(400 -6.12933e-15 0)
(400 7.19919e-16 0)
(400 1.88774e-15 0)
(400 4.77048e-15 0)
(400 1.01802e-14 0)
(400 1.3713e-14 0)
(400 6.50259e-15 0)
(400 9.44937e-15 0)
(400 2.80423e-14 0)
(400 4.39301e-14 0)
(400 4.85335e-14 0)
(400 5.23786e-14 0)
(400 5.71752e-14 0)
(400 5.46286e-14 0)
(400 4.851e-14 0)
(400 4.21354e-14 0)
(400 4.62486e-14 0)
(400 5.17697e-14 0)
(400 6.69258e-14 0)
(400 6.84625e-14 0)
(400 6.57917e-14 0)
(400 7.31265e-14 0)
(400 7.52557e-14 0)
(400 4.89766e-14 0)
(400 2.82256e-14 0)
(400 2.72231e-14 0)
(400 4.32685e-14 0)
(400 5.38869e-14 0)
(400 4.35798e-14 0)
(400 3.8988e-14 0)
(400 4.47826e-14 0)
(400 5.59511e-14 0)
(400 4.20653e-14 0)
(400 3.04778e-14 0)
(400 1.09773e-14 0)
(400 -6.87714e-16 0)
(400 -5.01764e-15 0)
(400 -1.4559e-14 0)
(400 -1.57257e-14 0)
(400 -2.13162e-14 0)
(400 -2.65937e-14 0)
(400 -3.17965e-14 0)
(400 -3.62551e-14 0)
(400 -3.69046e-14 0)
(400 -4.02461e-14 0)
(400 -3.29194e-14 0)
(400 -1.19236e-14 0)
(400 5.69931e-16 0)
(400 3.1795e-15 0)
(400 -1.30219e-14 0)
(400 -2.40649e-14 0)
(400 -4.18153e-14 0)
(400 -4.91438e-14 0)
(400 -4.15472e-14 0)
(400 -2.81998e-14 0)
(400 -2.61031e-14 0)
(400 -2.95803e-14 0)
(400 -2.85021e-14 0)
(400 -1.89342e-14 0)
(400 -9.98616e-15 0)
(400 -4.39649e-16 0)
(400 3.08525e-15 0)
(400 -1.39152e-14 0)
(400 -2.16398e-14 0)
(400 -4.17927e-14 0)
(400 -6.34254e-14 0)
(400 -6.93569e-14 0)
(400 -4.2357e-14 0)
(400 -3.09872e-14 0)
(400 -3.05107e-14 0)
(400 -1.38317e-14 0)
(400 1.51658e-14 0)
(400 3.62604e-14 0)
(400 6.4169e-14 0)
(400 7.43106e-14 0)
(400 7.51115e-14 0)
(400 7.94581e-14 0)
(400 8.97268e-14 0)
(400 1.00477e-13 0)
(400 9.50674e-14 0)
(400 9.62911e-14 0)
(400 1.06565e-13 0)
(400 8.48221e-14 0)
(400 7.89142e-14 0)
(400 6.82272e-14 0)
(400 5.59047e-14 0)
(400 5.02942e-14 0)
(400 3.63761e-14 0)
(400 4.73962e-14 0)
(400 4.38381e-14 0)
(400 2.74898e-14 0)
(400 2.21281e-14 0)
(400 1.57909e-14 0)
(400 1.73937e-14 0)
(400 3.46642e-15 0)
(400 -1.47881e-14 0)
(400 -2.69821e-14 0)
(400 -4.1746e-14 0)
(400 -3.60817e-14 0)
(400 -1.87534e-14 0)
(400 -9.5623e-15 0)
(400 -2.5428e-15 0)
(400 -1.62394e-14 0)
(400 -3.12244e-14 0)
(400 -3.42067e-14 0)
(400 -2.57056e-14 0)
(400 -9.94945e-15 0)
(400 -1.65627e-14 0)
(400 -1.92109e-14 0)
(400 -1.5069e-14 0)
(400 -6.30968e-15 0)
(400 1.05089e-14 0)
(400 2.86701e-14 0)
(400 4.11685e-14 0)
(400 4.60858e-14 0)
(400 5.13284e-14 0)
(400 4.5924e-14 0)
(400 2.75808e-14 0)
(400 2.57981e-14 0)
(400 1.68611e-14 0)
(400 1.18794e-14 0)
(400 4.03735e-15 0)
(400 -7.93454e-15 0)
(400 8.27874e-16 0)
(400 1.7536e-14 0)
(400 4.04905e-14 0)
(400 5.62362e-14 0)
(400 6.50937e-14 0)
(400 6.83541e-14 0)
(400 6.16132e-14 0)
(400 5.37056e-14 0)
(400 4.27647e-14 0)
(400 2.59553e-14 0)
(400 4.11023e-14 0)
(400 4.40686e-14 0)
(400 3.06697e-14 0)
(400 8.29973e-15 0)
(400 5.84514e-15 0)
(400 8.07009e-15 0)
(400 6.47276e-15 0)
(400 -1.90338e-14 0)
(400 -3.66384e-14 0)
(400 -5.44207e-14 0)
(400 -6.92782e-14 0)
(400 -7.68365e-14 0)
(400 -7.56609e-14 0)
(400 -6.39946e-14 0)
(400 -7.14314e-14 0)
(400 -8.09734e-14 0)
(400 -7.84926e-14 0)
(400 -6.63515e-14 0)
(400 -6.27471e-14 0)
(400 -7.36174e-14 0)
(400 -6.83307e-14 0)
(400 -6.87743e-14 0)
(400 -6.05576e-14 0)
(400 -5.99403e-14 0)
(400 -7.43737e-14 0)
(400 -7.50728e-14 0)
(400 -6.1843e-14 0)
(400 -4.5047e-14 0)
(400 -3.67877e-14 0)
(400 -4.82187e-14 0)
(400 -4.59903e-14 0)
(400 -5.41892e-14 0)
(400 -6.35269e-14 0)
(400 -6.25685e-14 0)
(400 -6.46514e-14 0)
(400 -4.84755e-14 0)
(400 -4.09569e-14 0)
(400 -3.13211e-14 0)
(400 -1.24153e-14 0)
(400 -1.19472e-14 0)
(400 -1.34847e-14 0)
(400 -1.17829e-14 0)
(400 -9.57628e-15 0)
(400 -8.95929e-15 0)
(400 -1.65663e-14 0)
(400 -1.22476e-14 0)
(400 -1.06983e-14 0)
(400 -2.86101e-15 0)
(400 8.67797e-15 0)
(400 1.96466e-14 0)
(400 2.70849e-14 0)
(400 3.43095e-14 0)
(400 4.15015e-14 0)
(400 4.78192e-14 0)
(400 5.18563e-14 0)
(400 4.79117e-14 0)
(400 4.20348e-14 0)
(400 -3.16378e-14 0)
(400 -4.10023e-14 0)
(400 -3.42317e-14 0)
(400 -2.08426e-14 0)
(400 -1.99135e-14 0)
(400 -1.19734e-14 0)
(400 -1.23022e-14 0)
(400 -1.78923e-14 0)
(400 -1.96763e-14 0)
(400 -2.23048e-14 0)
(400 -1.84584e-14 0)
(400 -1.31037e-14 0)
(400 -3.08661e-15 0)
(400 9.26652e-15 0)
(400 7.25864e-15 0)
(400 1.76495e-15 0)
(400 -1.39536e-15 0)
(400 1.3435e-14 0)
(400 2.37634e-14 0)
(400 2.00849e-14 0)
(400 2.84179e-14 0)
(400 3.47684e-14 0)
(400 4.24276e-14 0)
(400 5.54276e-14 0)
(400 5.60383e-14 0)
(400 5.76259e-14 0)
(400 4.78257e-14 0)
(400 4.6363e-14 0)
(400 5.72682e-14 0)
(400 6.46565e-14 0)
(400 6.0804e-14 0)
(400 5.77309e-14 0)
(400 4.23302e-14 0)
(400 4.80707e-14 0)
(400 3.43306e-14 0)
(400 2.5823e-14 0)
(400 2.1778e-14 0)
(400 2.51874e-14 0)
(400 2.98837e-14 0)
(400 1.36808e-14 0)
(400 -3.04567e-15 0)
(400 3.16878e-15 0)
(400 -1.2694e-14 0)
(400 -1.18726e-14 0)
(400 -3.11953e-14 0)
(400 -4.39108e-14 0)
(400 -4.03354e-14 0)
(400 -4.71982e-14 0)
(400 -5.55917e-14 0)
(400 -5.9338e-14 0)
(400 -5.82883e-14 0)
(400 -4.30437e-14 0)
(400 -3.6443e-14 0)
(400 -6.15405e-14 0)
(400 -7.43852e-14 0)
(400 -6.18588e-14 0)
(400 -6.25028e-14 0)
(400 -4.1857e-14 0)
(400 -3.88585e-14 0)
(400 -2.96788e-14 0)
(400 -1.43244e-14 0)
(400 -1.64078e-14 0)
(400 -1.7683e-15 0)
(400 1.73487e-14 0)
(400 2.5932e-14 0)
(400 2.55364e-14 0)
(400 1.51594e-14 0)
(400 1.94437e-14 0)
(400 2.66265e-14 0)
(400 3.42534e-14 0)
(400 5.12552e-14 0)
(400 6.68716e-14 0)
(400 6.95562e-14 0)
(400 7.31616e-14 0)
(400 6.45875e-14 0)
(400 5.22149e-14 0)
(400 4.11137e-14 0)
(400 5.29954e-14 0)
(400 6.01151e-14 0)
(400 4.75171e-14 0)
(400 2.75684e-14 0)
(400 2.8777e-14 0)
(400 2.9272e-14 0)
(400 2.90721e-14 0)
(400 2.79373e-14 0)
(400 2.25597e-14 0)
(400 2.07008e-14 0)
(400 3.1602e-14 0)
(400 4.94948e-14 0)
(400 6.08156e-14 0)
(400 6.42549e-14 0)
(400 5.64507e-14 0)
(400 5.12625e-14 0)
(400 5.33513e-14 0)
(400 4.90462e-14 0)
(400 3.54625e-14 0)
(400 4.53921e-14 0)
(400 3.52306e-14 0)
(400 2.5372e-14 0)
(400 4.05497e-15 0)
(400 -5.32879e-15 0)
(400 1.0332e-14 0)
(400 1.42497e-14 0)
(400 8.42323e-15 0)
(400 -1.01289e-14 0)
(400 -1.73483e-14 0)
(400 -2.16436e-14 0)
(400 -2.57753e-14 0)
(400 -1.82995e-14 0)
(400 -1.39992e-14 0)
(400 -3.25548e-15 0)
(400 8.37839e-16 0)
(400 1.0377e-14 0)
(400 -7.51162e-15 0)
(400 -3.66101e-14 0)
(400 -5.47227e-14 0)
(400 -5.7312e-14 0)
(400 -5.4651e-14 0)
(400 -7.98814e-14 0)
(400 -9.2758e-14 0)
(400 -7.24962e-14 0)
(400 -4.88519e-14 0)
(400 -3.52799e-14 0)
(400 -2.52258e-14 0)
(400 -1.20219e-14 0)
(400 -1.13653e-14 0)
(400 -1.29949e-14 0)
(400 -1.87861e-14 0)
(400 -2.56175e-14 0)
(400 -2.89329e-14 0)
(400 -2.22925e-14 0)
(400 -1.61032e-14 0)
(400 -5.66768e-15 0)
(400 -8.19053e-15 0)
(400 -4.57753e-15 0)
(400 2.71973e-15 0)
(400 1.58566e-14 0)
(400 2.6305e-14 0)
(400 4.30661e-14 0)
(400 4.67617e-14 0)
(400 4.8698e-14 0)
(400 4.00254e-14 0)
(400 3.26792e-14 0)
(400 4.15406e-14 0)
(400 5.67746e-14 0)
(400 4.80097e-14 0)
(400 3.29775e-14 0)
(400 3.64243e-14 0)
(400 4.21825e-14 0)
(400 4.8697e-14 0)
(400 5.01011e-14 0)
(400 3.51067e-14 0)
(400 4.62637e-15 0)
(400 -1.99443e-14 0)
(400 -2.51109e-14 0)
(400 -1.04486e-14 0)
(400 4.77474e-15 0)
(400 -3.05441e-15 0)
(400 -5.3848e-15 0)
(400 -8.00849e-15 0)
(400 -6.92913e-15 0)
(400 -7.5747e-15 0)
(400 -9.59441e-15 0)
(400 -1.23412e-14 0)
(400 -1.83852e-14 0)
(400 -2.52439e-14 0)
(400 -3.16473e-14 0)
(400 -5.20294e-14 0)
(400 -4.98898e-14 0)
(400 -4.47565e-14 0)
(400 -6.10441e-14 0)
(400 -7.35668e-14 0)
(400 -7.85105e-14 0)
(400 -7.41909e-14 0)
(400 -7.88037e-14 0)
(400 -6.9665e-14 0)
(400 -7.1855e-14 0)
(400 -7.60762e-14 0)
(400 -6.98055e-14 0)
(400 -4.86637e-14 0)
(400 -2.71856e-14 0)
(400 -1.68832e-14 0)
(400 -3.35886e-14 0)
(400 -3.71162e-14 0)
(400 -4.08109e-14 0)
(400 -2.78811e-14 0)
(400 -2.31805e-14 0)
(400 -2.83136e-14 0)
(400 -1.1983e-14 0)
(400 -8.94496e-15 0)
(400 -1.32103e-14 0)
(400 -1.28052e-14 0)
(400 -9.46961e-15 0)
(400 6.778e-15 0)
(400 2.26822e-14 0)
(400 1.75778e-14 0)
(400 1.42371e-14 0)
(400 2.05787e-14 0)
(400 2.51732e-14 0)
(400 2.65523e-14 0)
(400 -1.81837e-14 0)
(400 -3.13291e-14 0)
(400 -2.58902e-14 0)
(400 -1.41652e-15 0)
(400 -3.46172e-15 0)
(400 -3.49962e-14 0)
(400 -4.11097e-14 0)
(400 -3.59562e-14 0)
(400 -3.34037e-14 0)
(400 -3.57783e-14 0)
(400 -3.52382e-14 0)
(400 -3.5921e-14 0)
(400 -1.93393e-14 0)
(400 7.49895e-15 0)
(400 1.21331e-14 0)
(400 7.7896e-15 0)
(400 1.79269e-14 0)
(400 3.64716e-14 0)
(400 3.55441e-14 0)
(400 3.33584e-14 0)
(400 3.07563e-14 0)
(400 4.06224e-14 0)
(400 5.01514e-14 0)
(400 5.3933e-14 0)
(400 4.28574e-14 0)
(400 4.48021e-14 0)
(400 4.03085e-14 0)
(400 4.01575e-14 0)
(400 3.10778e-14 0)
(400 4.55806e-14 0)
(400 5.87694e-14 0)
(400 4.17931e-14 0)
(400 2.54131e-14 0)
(400 2.44418e-14 0)
(400 2.51408e-14 0)
(400 2.25137e-14 0)
(400 2.16675e-14 0)
(400 2.88511e-14 0)
(400 4.18576e-14 0)
(400 3.49365e-14 0)
(400 1.50073e-14 0)
(400 3.77885e-15 0)
(400 -6.20869e-15 0)
(400 -1.75809e-14 0)
(400 -2.94913e-14 0)
(400 -3.56269e-14 0)
(400 -2.49687e-14 0)
(400 -1.52208e-14 0)
(400 -1.8523e-14 0)
(400 -1.38094e-14 0)
(400 -7.41131e-15 0)
(400 -8.0313e-15 0)
(400 -9.28733e-15 0)
(400 -2.38249e-14 0)
(400 -4.51573e-14 0)
(400 -4.7402e-14 0)
(400 -4.84367e-14 0)
(400 -3.61123e-14 0)
(400 -2.46275e-14 0)
(400 -7.84248e-15 0)
(400 9.72017e-15 0)
(400 7.27921e-15 0)
(400 1.6389e-14 0)
(400 3.66574e-14 0)
(400 3.7471e-14 0)
(400 2.09136e-14 0)
(400 1.38913e-14 0)
(400 2.60867e-14 0)
(400 3.99476e-14 0)
(400 4.61752e-14 0)
(400 4.53559e-14 0)
(400 4.6989e-14 0)
(400 4.54607e-14 0)
(400 3.02233e-14 0)
(400 2.46699e-14 0)
(400 1.59278e-14 0)
(400 1.47224e-14 0)
(400 1.51774e-14 0)
(400 2.53986e-14 0)
(400 2.26374e-14 0)
(400 1.57547e-14 0)
(400 1.99541e-14 0)
(400 2.93301e-14 0)
(400 2.83691e-14 0)
(400 2.14783e-14 0)
(400 1.92703e-14 0)
(400 2.69473e-14 0)
(400 4.21647e-14 0)
(400 4.76424e-14 0)
(400 5.44217e-14 0)
(400 5.14438e-14 0)
(400 2.8319e-14 0)
(400 3.29148e-14 0)
(400 3.0316e-14 0)
(400 2.8945e-14 0)
(400 2.90301e-14 0)
(400 2.99238e-14 0)
(400 2.97597e-14 0)
(400 2.83152e-14 0)
(400 1.33835e-14 0)
(400 4.8306e-15 0)
(400 1.46584e-14 0)
(400 3.19581e-14 0)
(400 2.37776e-14 0)
(400 5.17365e-15 0)
(400 -6.75469e-15 0)
(400 -4.34154e-15 0)
(400 1.07245e-14 0)
(400 2.3306e-14 0)
(400 1.18785e-14 0)
(400 1.30768e-14 0)
(400 1.86252e-14 0)
(400 3.47239e-14 0)
(400 9.76555e-15 0)
(400 -1.63266e-14 0)
(400 -3.63284e-14 0)
(400 -4.2878e-14 0)
(400 -5.48457e-14 0)
(400 -6.13449e-14 0)
(400 -6.67493e-14 0)
(400 -5.33349e-14 0)
(400 -5.47422e-14 0)
(400 -4.59852e-14 0)
(400 -4.92917e-14 0)
(400 -4.12462e-14 0)
(400 -3.7135e-14 0)
(400 -3.95241e-14 0)
(400 -4.14682e-14 0)
(400 -4.07832e-14 0)
(400 -3.09401e-14 0)
(400 -1.79514e-14 0)
(400 1.96052e-15 0)
(400 2.10057e-14 0)
(400 2.91613e-14 0)
(400 2.94225e-14 0)
(400 1.75556e-14 0)
(400 9.98193e-15 0)
(400 5.69701e-15 0)
(400 2.41933e-14 0)
(400 2.46301e-14 0)
(400 2.80493e-14 0)
(400 7.92739e-15 0)
(400 1.18339e-14 0)
(400 1.61349e-14 0)
(400 3.77445e-14 0)
(400 4.54633e-14 0)
(400 3.12513e-14 0)
(400 2.93176e-14 0)
(400 3.42279e-14 0)
(400 4.37698e-14 0)
(400 4.15296e-14 0)
(400 2.90002e-14 0)
(400 1.34944e-14 0)
(400 7.65836e-15 0)
(400 -1.15386e-15 0)
(400 7.20602e-15 0)
(400 9.93686e-15 0)
(400 2.4843e-15 0)
(400 6.61004e-15 0)
(400 -5.67831e-15 0)
(400 -2.66362e-14 0)
(400 -4.18644e-14 0)
(400 -5.19759e-14 0)
(400 -5.75821e-14 0)
(400 -7.45097e-14 0)
(400 -8.6532e-14 0)
(400 -8.81635e-14 0)
(400 -8.48248e-14 0)
(400 -7.74285e-14 0)
(400 -6.07774e-14 0)
(400 -5.83425e-14 0)
(400 -5.49895e-14 0)
(400 -3.95516e-14 0)
(400 -4.58287e-14 0)
(400 -5.12625e-14 0)
(400 -4.70325e-14 0)
(400 -5.79739e-14 0)
(400 -5.67242e-14 0)
(400 -5.5955e-14 0)
(400 -4.22041e-14 0)
(400 -4.15608e-14 0)
(400 -5.14979e-14 0)
(400 -5.63679e-14 0)
(400 -5.56968e-14 0)
(400 -5.58275e-14 0)
(400 -4.80752e-14 0)
(400 -4.09396e-14 0)
(400 -3.50002e-14 0)
(400 -3.27166e-14 0)
(400 -2.11095e-14 0)
(400 -2.0066e-14 0)
(400 -2.38767e-14 0)
(400 -1.65776e-14 0)
(400 -5.63011e-15 0)
(400 2.12886e-15 0)
(400 5.88515e-15 0)
(400 1.29068e-14 0)
(400 1.49865e-14 0)
(400 2.28552e-14 0)
(400 2.5288e-14 0)
(400 -1.19112e-15 0)
(400 -1.01614e-15 0)
(400 -8.27322e-16 0)
(400 1.02681e-14 0)
(400 4.12743e-15 0)
(400 -2.40571e-14 0)
(400 -4.59894e-14 0)
(400 -5.38377e-14 0)
(400 -5.40577e-14 0)
(400 -3.52035e-14 0)
(400 -2.11207e-14 0)
(400 -1.99398e-14 0)
(400 -1.12008e-14 0)
(400 1.83795e-15 0)
(400 1.60903e-14 0)
(400 1.80785e-14 0)
(400 4.63985e-14 0)
(400 5.01939e-14 0)
(400 4.1513e-14 0)
(400 5.1336e-14 0)
(400 6.03516e-14 0)
(400 7.06292e-14 0)
(400 6.9828e-14 0)
(400 6.12297e-14 0)
(400 4.90462e-14 0)
(400 3.39198e-14 0)
(400 2.82694e-14 0)
(400 3.62306e-14 0)
(400 3.66001e-14 0)
(400 3.32547e-14 0)
(400 3.06264e-14 0)
(400 2.21123e-14 0)
(400 4.01039e-15 0)
(400 -2.33831e-14 0)
(400 -2.5482e-14 0)
(400 -2.65005e-14 0)
(400 -2.05281e-14 0)
(400 -2.33286e-14 0)
(400 -1.21387e-14 0)
(400 -6.19503e-15 0)
(400 -1.03509e-14 0)
(400 -2.8136e-14 0)
(400 -3.07662e-14 0)
(400 -3.28323e-14 0)
(400 -2.62395e-14 0)
(400 -1.12171e-14 0)
(400 1.09423e-14 0)
(400 2.46342e-14 0)
(400 3.26626e-14 0)
(400 3.70687e-14 0)
(400 4.14963e-14 0)
(400 1.25533e-14 0)
(400 -8.7321e-15 0)
(400 -1.4547e-14 0)
(400 -2.9422e-14 0)
(400 -4.45118e-14 0)
(400 -4.63768e-14 0)
(400 -4.50381e-14 0)
(400 -2.78845e-14 0)
(400 -8.06046e-15 0)
(400 1.23416e-14 0)
(400 2.35837e-14 0)
(400 2.37694e-14 0)
(400 2.50564e-14 0)
(400 2.28747e-14 0)
(400 1.52617e-14 0)
(400 2.53801e-14 0)
(400 3.34311e-14 0)
(400 4.01844e-14 0)
(400 4.36e-14 0)
(400 2.2149e-14 0)
(400 2.93305e-15 0)
(400 -7.51229e-15 0)
(400 -3.06818e-14 0)
(400 -4.29825e-14 0)
(400 -4.26316e-14 0)
(400 -3.89466e-14 0)
(400 -4.06573e-14 0)
(400 -5.85378e-14 0)
(400 -5.4545e-14 0)
(400 -4.59189e-14 0)
(400 -4.42876e-14 0)
(400 -3.32816e-14 0)
(400 -2.30193e-14 0)
(400 -8.41781e-15 0)
(400 2.73968e-15 0)
(400 4.4155e-16 0)
(400 4.25973e-15 0)
(400 1.32627e-14 0)
(400 1.31e-14 0)
(400 1.37489e-14 0)
(400 4.8405e-15 0)
(400 8.16502e-15 0)
(400 1.41937e-14 0)
(400 2.82446e-14 0)
(400 3.96434e-14 0)
(400 3.75413e-14 0)
(400 6.15797e-14 0)
(400 7.92582e-14 0)
(400 9.79297e-14 0)
(400 1.05447e-13 0)
(400 1.10644e-13 0)
(400 1.17159e-13 0)
(400 1.07081e-13 0)
(400 9.51195e-14 0)
(400 8.28095e-14 0)
(400 7.27743e-14 0)
(400 7.97778e-14 0)
(400 8.50418e-14 0)
(400 8.43581e-14 0)
(400 8.23579e-14 0)
(400 7.2317e-14 0)
(400 4.71036e-14 0)
(400 2.59363e-14 0)
(400 9.72936e-15 0)
(400 -6.91101e-15 0)
(400 -3.89918e-14 0)
(400 -6.56761e-14 0)
(400 -6.27265e-14 0)
(400 -7.10577e-14 0)
(400 -7.88371e-14 0)
(400 -9.45523e-14 0)
(400 -1.01103e-13 0)
(400 -9.3881e-14 0)
(400 -8.07544e-14 0)
(400 -7.54873e-14 0)
(400 -7.14795e-14 0)
(400 -6.0236e-14 0)
(400 -4.66469e-14 0)
(400 -2.44765e-14 0)
(400 -1.78026e-14 0)
(400 -7.74062e-16 0)
(400 5.43979e-15 0)
(400 1.77681e-14 0)
(400 1.7788e-14 0)
(400 4.97902e-15 0)
(400 -2.44651e-14 0)
(400 -3.58949e-14 0)
(400 -3.10104e-14 0)
(400 -3.21476e-14 0)
(400 -2.52826e-14 0)
(400 -2.02275e-14 0)
(400 -6.57378e-15 0)
(400 -6.95912e-16 0)
(400 2.97264e-15 0)
(400 1.32894e-14 0)
(400 1.65174e-14 0)
(400 6.87306e-15 0)
(400 2.12733e-15 0)
(400 1.98228e-14 0)
(400 2.20806e-14 0)
(400 2.03027e-14 0)
(400 2.94408e-14 0)
(400 3.20287e-14 0)
(400 2.81894e-14 0)
(400 3.42384e-14 0)
(400 2.7012e-14 0)
(400 2.48783e-14 0)
(400 1.7333e-14 0)
(400 3.03392e-15 0)
(400 -1.14364e-14 0)
(400 -2.04672e-14 0)
(400 -2.57393e-14 0)
(400 -3.38815e-14 0)
(400 -4.43713e-14 0)
(400 -5.77711e-14 0)
(400 -6.5747e-14 0)
(400 -5.34514e-14 0)
(400 -4.47864e-14 0)
(400 -3.26154e-14 0)
(400 -3.54241e-14 0)
(400 -3.49857e-14 0)
(400 -3.21407e-14 0)
(400 -3.22627e-14 0)
(400 -3.33234e-14 0)
(400 -5.02307e-14 0)
(400 -5.4486e-14 0)
(400 -5.88893e-14 0)
(400 -6.24006e-14 0)
(400 -6.18203e-14 0)
(400 -7.15073e-14 0)
(400 -8.18631e-14 0)
(400 -6.70769e-14 0)
(400 -5.80381e-14 0)
(400 -5.12591e-14 0)
(400 -4.26709e-14 0)
(400 -3.31647e-14 0)
(400 -1.06274e-14 0)
(400 -3.02961e-15 0)
(400 8.92039e-15 0)
(400 1.14889e-14 0)
(400 7.56447e-15 0)
(400 9.36564e-15 0)
(400 5.90882e-15 0)
(400 -3.99138e-15 0)
(400 3.0733e-15 0)
(400 2.09912e-14 0)
(400 3.26385e-14 0)
(400 4.0337e-14 0)
(400 3.38581e-14 0)
(400 8.8055e-15 0)
(400 7.26532e-15 0)
(400 -7.85836e-15 0)
(400 -1.46054e-14 0)
(400 -1.65568e-14 0)
(400 -2.58527e-14 0)
(400 -4.25233e-14 0)
(400 -6.20571e-14 0)
(400 -6.59657e-14 0)
(400 -5.62734e-14 0)
(400 -3.9919e-14 0)
(400 -2.71095e-14 0)
(400 -1.96433e-14 0)
(400 -2.24959e-14 0)
(400 -9.47935e-15 0)
(400 1.42177e-14 0)
(400 3.72048e-14 0)
(400 4.8043e-14 0)
(400 5.18154e-14 0)
(400 5.43422e-14 0)
(400 6.59062e-14 0)
(400 6.23953e-14 0)
(400 5.67998e-14 0)
(400 5.44938e-14 0)
(400 4.22738e-14 0)
(400 2.41871e-14 0)
(400 3.04483e-15 0)
(400 8.52479e-15 0)
(400 2.74477e-14 0)
(400 2.09222e-14 0)
(400 2.42184e-14 0)
(400 1.51914e-14 0)
(400 6.16075e-16 0)
(400 -8.3799e-15 0)
(400 -1.24562e-14 0)
(400 -1.76334e-14 0)
(400 -2.60859e-14 0)
(400 -2.65824e-14 0)
(400 -2.6231e-14 0)
(400 -2.84539e-14 0)
(400 -1.72463e-14 0)
(400 -2.73772e-14 0)
(400 -3.49374e-14 0)
(400 -3.78694e-14 0)
(400 -2.29159e-14 0)
(400 -1.06864e-15 0)
(400 1.17455e-14 0)
(400 1.88295e-14 0)
(400 2.3073e-14 0)
(400 3.03094e-14 0)
(400 3.27087e-14 0)
(400 1.80104e-14 0)
(400 6.56911e-15 0)
(400 2.85562e-15 0)
(400 8.84786e-15 0)
(400 8.79876e-16 0)
(400 -9.54213e-15 0)
(400 -1.35855e-14 0)
(400 -1.7788e-14 0)
(400 -8.33562e-17 0)
(400 1.14799e-14 0)
(400 2.44954e-14 0)
(400 3.00472e-14 0)
(400 3.33338e-14 0)
(400 2.83267e-14 0)
(400 3.29451e-14 0)
(400 3.56358e-14 0)
(400 4.55812e-14 0)
(400 4.943e-14 0)
(400 5.48851e-14 0)
(400 4.1495e-14 0)
(400 2.38829e-14 0)
(400 1.54487e-14 0)
(400 1.37009e-14 0)
(400 9.76801e-15 0)
(400 1.11407e-14 0)
(400 -5.13223e-17 0)
(400 -1.8602e-15 0)
(400 -1.27808e-14 0)
(400 -1.45057e-14 0)
(400 -3.94679e-15 0)
(400 -5.69766e-15 0)
(400 -1.4314e-14 0)
(400 -2.52458e-14 0)
(400 -4.81091e-15 0)
(400 9.03544e-15 0)
(400 1.8835e-14 0)
(400 1.869e-14 0)
(400 6.81698e-15 0)
(400 -2.9892e-15 0)
(400 1.17003e-15 0)
(400 8.21241e-15 0)
(400 2.23687e-14 0)
(400 3.04039e-14 0)
(400 5.15224e-14 0)
(400 5.5465e-14 0)
(400 6.30848e-14 0)
(400 7.43269e-14 0)
(400 5.55053e-14 0)
(400 6.16736e-14 0)
(400 7.95156e-14 0)
(400 7.31485e-14 0)
(400 6.39718e-14 0)
(400 4.37622e-14 0)
(400 2.79948e-14 0)
(400 3.02867e-14 0)
(400 2.5074e-14 0)
(400 1.04367e-14 0)
(400 1.74843e-15 0)
(400 7.51299e-15 0)
(400 1.81319e-14 0)
(400 -1.52871e-15 0)
(400 -3.66427e-14 0)
(400 -4.59686e-14 0)
(400 -5.19599e-14 0)
(400 -4.95828e-14 0)
(400 -7.65976e-14 0)
(400 -9.06594e-14 0)
(400 -9.73186e-14 0)
(400 -1.07937e-13 0)
(400 -1.16422e-13 0)
(400 -1.04778e-13 0)
(400 -1.07041e-13 0)
(400 -1.01505e-13 0)
(400 -1.06713e-13 0)
(400 -1.01157e-13 0)
(400 -8.77404e-14 0)
(400 -8.06678e-14 0)
(400 -5.95837e-14 0)
(400 -3.2055e-14 0)
(400 -3.42489e-15 0)
(400 1.18614e-14 0)
(400 1.59365e-14 0)
(400 2.72834e-14 0)
(400 2.74981e-14 0)
(400 1.39045e-14 0)
(400 3.86138e-15 0)
(400 6.57207e-15 0)
(400 -6.27598e-15 0)
(400 -5.32133e-15 0)
(400 -4.42155e-15 0)
(400 1.92147e-14 0)
(400 3.29245e-14 0)
(400 3.26657e-14 0)
(400 2.95743e-14 0)
(400 4.11043e-14 0)
(400 4.50586e-14 0)
(400 1.95597e-14 0)
(400 4.53659e-15 0)
(400 4.72152e-15 0)
(400 8.8409e-15 0)
(400 2.02015e-14 0)
(400 3.27121e-14 0)
(400 4.01802e-14 0)
(400 4.14696e-14 0)
(400 4.21525e-14 0)
(400 4.72132e-14 0)
(400 5.38538e-14 0)
(400 4.41933e-14 0)
(400 2.72829e-14 0)
(400 6.45845e-15 0)
(400 -8.19351e-15 0)
(400 -1.32207e-14 0)
(400 -2.04537e-14 0)
(400 -3.56604e-14 0)
(400 -3.58219e-14 0)
(400 -3.40607e-14 0)
(400 -2.5055e-14 0)
(400 -2.53783e-14 0)
(400 -2.75295e-14 0)
(400 -3.10216e-14 0)
(400 -3.62836e-14 0)
(400 -3.86957e-14 0)
(400 -2.86427e-14 0)
(400 -1.74822e-14 0)
(400 -3.74732e-14 0)
(400 -3.98026e-14 0)
(400 -3.26074e-14 0)
(400 -5.00417e-14 0)
(400 -5.72481e-14 0)
(400 -5.90493e-14 0)
(400 -6.07844e-14 0)
(400 -4.19042e-14 0)
(400 -3.02658e-14 0)
(400 -2.33453e-14 0)
(400 -2.05952e-14 0)
(400 -1.59814e-14 0)
(400 8.75041e-15 0)
(400 2.17717e-14 0)
(400 3.11353e-14 0)
(400 2.47148e-14 0)
(400 1.39647e-14 0)
(400 1.16272e-15 0)
(400 -1.71373e-14 0)
(400 -1.14422e-14 0)
(400 -5.81835e-15 0)
(400 3.76221e-17 0)
(400 7.52134e-15 0)
(400 6.83145e-15 0)
(400 6.7471e-15 0)
(400 -5.14134e-15 0)
(400 -2.7807e-14 0)
(400 -4.32946e-14 0)
(400 -5.82698e-14 0)
(400 -7.05879e-14 0)
(400 -6.84221e-14 0)
(400 -6.13387e-14 0)
(400 -5.59881e-14 0)
(400 -5.61186e-14 0)
(400 -5.11461e-14 0)
(400 -2.84493e-14 0)
(400 -6.63146e-15 0)
(400 1.11318e-14 0)
(400 2.30492e-14 0)
(400 2.97358e-14 0)
(400 4.6381e-14 0)
(400 5.05637e-14 0)
(400 4.66803e-14 0)
(400 4.51801e-14 0)
(400 4.55491e-14 0)
(400 3.40884e-14 0)
(400 2.84398e-14 0)
(400 3.21078e-14 0)
(400 2.8621e-14 0)
(400 2.54104e-14 0)
(400 1.21864e-14 0)
(400 1.54643e-15 0)
(400 3.73175e-15 0)
(400 1.00227e-14 0)
(400 4.3656e-15 0)
(400 1.60354e-14 0)
(400 2.9787e-14 0)
(400 3.17431e-14 0)
(400 2.31522e-14 0)
(400 2.25338e-14 0)
(400 1.39458e-14 0)
(400 -7.56449e-15 0)
(400 -7.8559e-15 0)
(400 -5.4432e-15 0)
(400 -1.2043e-14 0)
(400 3.38266e-15 0)
(400 2.20201e-15 0)
(400 -1.94505e-15 0)
(400 -1.11477e-14 0)
(400 5.29272e-15 0)
(400 1.96255e-14 0)
(400 1.71454e-14 0)
(400 3.13037e-14 0)
(400 4.03816e-14 0)
(400 4.86994e-14 0)
(400 5.24079e-14 0)
(400 5.25563e-14 0)
(400 4.30632e-14 0)
(400 4.49772e-14 0)
(400 5.69736e-14 0)
(400 5.36974e-14 0)
(400 5.09195e-14 0)
(400 4.37977e-14 0)
(400 4.29247e-14 0)
(400 4.09604e-14 0)
(400 4.32483e-14 0)
(400 4.06182e-14 0)
(400 4.01269e-14 0)
(400 4.43541e-14 0)
(400 3.80733e-14 0)
(400 3.0695e-14 0)
(400 1.80182e-14 0)
(400 9.12652e-15 0)
(400 8.66175e-15 0)
(400 4.04971e-15 0)
(400 -1.2756e-14 0)
(400 -3.31545e-14 0)
(400 -3.87141e-14 0)
(400 -4.21306e-14 0)
(400 -4.38622e-14 0)
(400 -5.94715e-14 0)
(400 -5.5951e-14 0)
(400 -5.14777e-14 0)
(400 -5.24047e-14 0)
(400 -4.71663e-14 0)
(400 -3.40106e-14 0)
(400 -2.77017e-14 0)
(400 -2.93384e-14 0)
(400 -3.45697e-14 0)
(400 -2.33635e-14 0)
(400 -4.19225e-15 0)
(400 1.60935e-14 0)
(400 2.20643e-14 0)
(400 1.08761e-14 0)
(400 -3.52271e-16 0)
(400 -4.51614e-15 0)
(400 1.09835e-15 0)
(400 2.50737e-14 0)
(400 6.24071e-14 0)
(400 8.12882e-14 0)
(400 8.45825e-14 0)
(400 9.31459e-14 0)
(400 8.81776e-14 0)
(400 8.99304e-14 0)
(400 8.60953e-14 0)
(400 9.01979e-14 0)
(400 8.62627e-14 0)
(400 7.36664e-14 0)
(400 6.32224e-14 0)
(400 5.41859e-14 0)
(400 5.65868e-14 0)
(400 7.28235e-14 0)
(400 6.27422e-14 0)
(400 4.6604e-14 0)
(400 3.60078e-14 0)
(400 2.01986e-14 0)
(400 1.03284e-14 0)
(400 8.20263e-15 0)
(400 1.50762e-15 0)
(400 -8.75542e-15 0)
(400 -7.29987e-15 0)
(400 1.87806e-15 0)
(400 -1.3497e-14 0)
(400 -3.51945e-14 0)
(400 -4.49083e-14 0)
(400 -5.28991e-14 0)
(400 -4.86173e-14 0)
(400 -6.4524e-14 0)
(400 -8.34067e-14 0)
(400 -1.06869e-13 0)
(400 -1.15084e-13 0)
(400 -1.06147e-13 0)
(400 -9.42595e-14 0)
(400 -7.24901e-14 0)
(400 -5.88951e-14 0)
(400 -3.46275e-14 0)
(400 -2.26858e-14 0)
(400 -1.46982e-14 0)
(400 -9.82018e-15 0)
(400 -1.1756e-14 0)
(400 -5.54717e-15 0)
(400 4.20662e-15 0)
(400 7.66987e-16 0)
(400 -2.03136e-14 0)
(400 -2.96718e-14 0)
(400 -2.25097e-14 0)
(400 4.53519e-15 0)
(400 2.04024e-14 0)
(400 2.17093e-14 0)
(400 1.63841e-14 0)
(400 2.04538e-14 0)
(400 1.82053e-14 0)
(400 1.19375e-14 0)
(400 5.62245e-15 0)
(400 -1.87218e-14 0)
(400 -2.16882e-14 0)
(400 -1.41385e-15 0)
(400 1.32719e-14 0)
(400 2.80655e-14 0)
(400 2.81113e-14 0)
(400 3.66658e-14 0)
(400 4.74128e-14 0)
(400 5.87288e-14 0)
(400 5.68266e-14 0)
(400 4.63216e-14 0)
(400 3.52918e-14 0)
(400 2.48953e-14 0)
(400 2.19501e-14 0)
(400 2.95246e-14 0)
(400 2.09548e-14 0)
(400 2.04092e-14 0)
(400 1.78843e-14 0)
(400 -9.06904e-15 0)
(400 -1.87769e-14 0)
(400 -2.99567e-14 0)
(400 -3.51195e-14 0)
(400 -4.09315e-14 0)
(400 -4.25762e-14 0)
(400 -3.33023e-14 0)
(400 -2.88275e-14 0)
(400 -3.0526e-14 0)
(400 -4.50774e-14 0)
(400 -4.3527e-14 0)
(400 -4.15394e-14 0)
(400 -4.48781e-14 0)
(400 -5.6663e-14 0)
(400 -6.11764e-14 0)
(400 -5.13813e-14 0)
(400 -3.95768e-14 0)
(400 -2.10366e-14 0)
(400 -1.83837e-14 0)
(400 -1.54507e-14 0)
(400 3.5131e-15 0)
(400 1.93653e-14 0)
(400 4.46449e-14 0)
(400 4.20068e-14 0)
(400 3.10966e-14 0)
(400 2.04739e-14 0)
(400 -9.35242e-15 0)
(400 -1.68889e-14 0)
(400 -1.77122e-14 0)
(400 -1.97595e-14 0)
(400 -2.08434e-14 0)
(400 -2.60801e-14 0)
(400 -3.37665e-14 0)
(400 -1.15761e-14 0)
(400 -2.09069e-14 0)
(400 -2.35285e-14 0)
(400 -3.7954e-14 0)
(400 -4.38839e-14 0)
(400 -3.07757e-14 0)
(400 -2.25643e-14 0)
(400 -8.83362e-15 0)
(400 1.00523e-15 0)
(400 1.73566e-14 0)
(400 2.83088e-14 0)
(400 2.09753e-14 0)
(400 3.75798e-14 0)
(400 4.71729e-14 0)
(400 4.40826e-14 0)
(400 4.47227e-14 0)
(400 3.84793e-14 0)
(400 1.58299e-14 0)
(400 7.44328e-15 0)
(400 1.39169e-14 0)
(400 1.47721e-14 0)
(400 1.38371e-14 0)
(400 3.67553e-15 0)
(400 -2.74842e-14 0)
(400 -2.45792e-14 0)
(400 -2.42195e-14 0)
(400 -2.11122e-14 0)
(400 -1.94062e-14 0)
(400 -1.86646e-14 0)
(400 -2.18959e-14 0)
(400 -2.69928e-14 0)
(400 -3.96992e-15 0)
(400 6.24674e-15 0)
(400 1.35032e-15 0)
(400 -1.93398e-15 0)
(400 -1.25748e-14 0)
(400 -2.02753e-14 0)
(400 -2.26198e-14 0)