TITLE = "Visualization of the volumetric solution"
VARIABLES = "x","y","Density","Momentum_x","Momentum_y","Energy","Pressure","Temperature","Mach","C<sub>p</sub>","Roe_Dissipation"
ZONE NODES= 3200, ELEMENTS= 3081, DATAPACKING=POINT, ZONETYPE=FEQUADRILATERAL
-2.000000e+00	1.250000e+00	1.223860e+00	4.563053e+01	6.974534e-07	2.538074e+05	1.011827e+05	2.880081e+02	1.095904e-01	-2.006417e-01	0.000000e+00	
-2.000000e+00	1.218354e+00	1.223860e+00	4.563092e+01	-2.021698e-04	2.538073e+05	1.011827e+05	2.880081e+02	1.095913e-01	-2.006732e-01	0.000000e+00	
-1.948718e+00	1.218354e+00	1.223857e+00	4.563096e+01	-2.290250e-04	2.538065e+05	1.011823e+05	2.880079e+02	1.095917e-01	-2.011214e-01	0.000000e+00	
-1.948718e+00	1.250000e+00	1.223857e+00	4.563036e+01	8.238136e-07	2.538066e+05	1.011824e+05	2.880079e+02	1.095903e-01	-2.011015e-01	0.000000e+00	
-2.000000e+00	1.186709e+00	1.223860e+00	4.563116e+01	-1.814896e-04	2.538073e+05	1.011827e+05	2.880081e+02	1.095919e-01	-2.006850e-01	0.000000e+00	
-1.948718e+00	1.186709e+00	1.223857e+00	4.563141e+01	-2.296054e-04	2.538066e+05	1.011824e+05	2.880078e+02	1.095928e-01	-2.011165e-01	0.000000e+00	
-2.000000e+00	1.155063e+00	1.223860e+00	4.563127e+01	-1.099663e-04	2.538073e+05	1.011827e+05	2.880081e+02	1.095922e-01	-2.006949e-01	0.000000e+00	
-1.948718e+00	1.155063e+00	1.223857e+00	4.563156e+01	-1.809579e-04	2.538066e+05	1.011823e+05	2.880078e+02	1.095932e-01	-2.011234e-01	0.000000e+00	
-2.000000e+00	1.123418e+00	1.223860e+00	4.563131e+01	-4.798221e-05	2.538073e+05	1.011826e+05	2.880081e+02	1.095923e-01	-2.006994e-01	0.000000e+00	
-1.948718e+00	1.123418e+00	1.223857e+00	4.563158e+01	-1.090042e-04	2.538066e+05	1.011823e+05	2.880078e+02	1.095932e-01	-2.011242e-01	0.000000e+00	
-2.000000e+00	1.091772e+00	1.223860e+00	4.563134e+01	-1.560246e-05	2.538073e+05	1.011826e+05	2.880081e+02	1.095924e-01	-2.007020e-01	0.000000e+00	
-1.948718e+00	1.091772e+00	1.223857e+00	4.563157e+01	-6.353431e-05	2.538066e+05	1.011823e+05	2.880078e+02	1.095932e-01	-2.011271e-01	0.000000e+00	
-2.000000e+00	1.060127e+00	1.223860e+00	4.563136e+01	-1.737368e-06	2.538073e+05	1.011826e+05	2.880081e+02	1.095924e-01	-2.007030e-01	0.000000e+00	
-1.948718e+00	1.060127e+00	1.223857e+00	4.563157e+01	-3.343614e-05	2.538065e+05	1.011823e+05	2.880078e+02	1.095932e-01	-2.011281e-01	0.000000e+00	
-2.000000e+00	1.028481e+00	1.223860e+00	4.563137e+01	2.452730e-06	2.538073e+05	1.011826e+05	2.880081e+02	1.095924e-01	-2.007034e-01	0.000000e+00	
-1.948718e+00	1.028481e+00	1.223857e+00	4.563157e+01	-1.728991e-05	2.538065e+05	1.011823e+05	2.880078e+02	1.095932e-01	-2.011295e-01	0.000000e+00	
-2.000000e+00	9.968354e-01	1.223860e+00	4.563138e+01	3.297259e-06	2.538073e+05	1.011826e+05	2.880081e+02	1.095925e-01	-2.007033e-01	0.000000e+00	
-1.948718e+00	9.968354e-01	1.223857e+00	4.563157e+01	-6.809058e-06	2.538065e+05	1.011823e+05	2.880078e+02	1.095932e-01	-2.011301e-01	0.000000e+00	
-2.000000e+00	9.651899e-01	1.223860e+00	4.563138e+01	2.760942e-06	2.538073e+05	1.011826e+05	2.880081e+02	1.095925e-01	-2.007032e-01	0.000000e+00	
-1.948718e+00	9.651899e-01	1.223857e+00	4.563157e+01	-9.130158e-07	2.538065e+05	1.011823e+05	2.880078e+02	1.095932e-01	-2.011307e-01	0.000000e+00	
-2.000000e+00	9.335443e-01	1.223860e+00	4.563137e+01	2.036715e-06	2.538073e+05	1.011826e+05	2.880081e+02	1.095925e-01	-2.007028e-01	0.000000e+00	
-1.948718e+00	9.335443e-01	1.223857e+00	4.563156e+01	2.952593e-06	2.538065e+05	1.011823e+05	2.880078e+02	1.095932e-01	-2.011309e-01	0.000000e+00	
-2.000000e+00	9.018987e-01	1.223860e+00	4.563137e+01	1.392143e-06	2.538073e+05	1.011826e+05	2.880081e+02	1.095924e-01	-2.007025e-01	0.000000e+00	
-1.948718e+00	9.018987e-01	1.223857e+00	4.563156e+01	5.215800e-06	2.538065e+05	1.011823e+05	2.880078e+02	1.095932e-01	-2.011310e-01	0.000000e+00	
-2.000000e+00	8.702532e-01	1.223860e+00	4.563136e+01	9.985769e-07	2.538073e+05	1.011826e+05	2.880081e+02	1.095924e-01	-2.007021e-01	0.000000e+00	
-1.948718e+00	8.702532e-01	1.223857e+00	4.563155e+01	6.802703e-06	2.538065e+05	1.011823e+05	2.880078e+02	1.095932e-01	-2.011310e-01	0.000000e+00	
-2.000000e+00	8.386076e-01	1.223860e+00	4.563136e+01	7.521212e-07	2.538073e+05	1.011826e+05	2.880081e+02	1.095924e-01	-2.007018e-01	0.000000e+00	
-1.948718e+00	8.386076e-01	1.223857e+00	4.563155e+01	7.788890e-06	2.538065e+05	1.011823e+05	2.880078e+02	1.095932e-01	-2.011310e-01	0.000000e+00	
-2.000000e+00	8.069620e-01	1.223860e+00	4.563135e+01	5.950314e-07	2.538073e+05	1.011826e+05	2.880081e+02	1.095924e-01	-2.007014e-01	0.000000e+00	
-1.948718e+00	8.069620e-01	1.223857e+00	4.563154e+01	8.410640e-06	2.538065e+05	1.011823e+05	2.880078e+02	1.095931e-01	-2.011308e-01	0.000000e+00	
-2.000000e+00	7.753165e-01	1.223860e+00	4.563134e+01	4.606813e-07	2.538073e+05	1.011826e+05	2.880081e+02	1.095924e-01	-2.007010e-01	0.000000e+00	
-1.948718e+00	7.753165e-01	1.223857e+00	4.563153e+01	8.662772e-06	2.538065e+05	1.011823e+05	2.880078e+02	1.095931e-01	-2.011307e-01	0.000000e+00	
-2.000000e+00	7.436709e-01	1.223860e+00	4.563134e+01	3.481786e-07	2.538073e+05	1.011826e+05	2.880081e+02	1.095924e-01	-2.007007e-01	0.000000e+00	
-1.948718e+00	7.436709e-01	1.223857e+00	4.563153e+01	8.666013e-06	2.538065e+05	1.011823e+05	2.880078e+02	1.095931e-01	-2.011305e-01	0.000000e+00	
-2.000000e+00	7.120253e-01	1.223860e+00	4.563133e+01	2.560684e-07	2.538073e+05	1.011826e+05	2.880081e+02	1.095923e-01	-2.007004e-01	0.000000e+00	
-1.948718e+00	7.120253e-01	1.223857e+00	4.563152e+01	8.470082e-06	2.538065e+05	1.011823e+05	2.880078e+02	1.095931e-01	-2.011303e-01	0.000000e+00	
-2.000000e+00	6.803797e-01	1.223860e+00	4.563133e+01	1.921533e-07	2.538073e+05	1.011826e+05	2.880081e+02	1.095923e-01	-2.007001e-01	0.000000e+00	
-1.948718e+00	6.803797e-01	1.223857e+00	4.563152e+01	8.159453e-06	2.538065e+05	1.011823e+05	2.880078e+02	1.095931e-01	-2.011301e-01	0.000000e+00	
-2.000000e+00	6.487342e-01	1.223860e+00	4.563132e+01	1.516383e-07	2.538073e+05	1.011826e+05	2.880081e+02	1.095923e-01	-2.006998e-01	0.000000e+00	
-1.948718e+00	6.487342e-01	1.223857e+00	4.563151e+01	7.770883e-06	2.538065e+05	1.011823e+05	2.880078e+02	1.095931e-01	-2.011299e-01	0.000000e+00	
-2.000000e+00	6.170886e-01	1.223860e+00	4.563131e+01	1.301628e-07	2.538073e+05	1.011826e+05	2.880081e+02	1.095923e-01	-2.006995e-01	0.000000e+00	
-1.948718e+00	6.170886e-01	1.223857e+00	4.563150e+01	7.342300e-06	2.538065e+05	1.011823e+05	2.880078e+02	1.095931e-01	-2.011297e-01	0.000000e+00	
-2.000000e+00	5.854430e-01	1.223860e+00	4.563131e+01	1.206243e-07	2.538073e+05	1.011826e+05	2.880081e+02	1.095923e-01	-2.006993e-01	0.000000e+00	
-1.948718e+00	5.854430e-01	1.223857e+00	4.563150e+01	6.888959e-06	2.538065e+05	1.011823e+05	2.880078e+02	1.095930e-01	-2.011295e-01	0.000000e+00	
-2.000000e+00	5.537975e-01	1.223860e+00	4.563131e+01	1.190754e-07	2.538073e+05	1.011826e+05	2.880081e+02	1.095923e-01	-2.006991e-01	0.000000e+00	
-1.948718e+00	5.537975e-01	1.223857e+00	4.563150e+01	6.426780e-06	2.538065e+05	1.011823e+05	2.880078e+02	1.095930e-01	-2.011293e-01	0.000000e+00	
-2.000000e+00	5.221519e-01	1.223860e+00	4.563130e+01	1.221967e-07	2.538073e+05	1.011826e+05	2.880081e+02	1.095923e-01	-2.006989e-01	0.000000e+00	
-1.948718e+00	5.221519e-01	1.223857e+00	4.563149e+01	5.963306e-06	2.538065e+05	1.011823e+05	2.880078e+02	1.095930e-01	-2.011292e-01	0.000000e+00	
-2.000000e+00	4.905063e-01	1.223860e+00	4.563130e+01	1.284537e-07	2.538073e+05	1.011826e+05	2.880081e+02	1.095923e-01	-2.006987e-01	0.000000e+00	
-1.948718e+00	4.905063e-01	1.223857e+00	4.563149e+01	5.506357e-06	2.538065e+05	1.011823e+05	2.880078e+02	1.095930e-01	-2.011290e-01	0.000000e+00	
-2.000000e+00	4.588608e-01	1.223860e+00	4.563130e+01	1.365382e-07	2.538073e+05	1.011826e+05	2.880081e+02	1.095923e-01	-2.006985e-01	0.000000e+00	
-1.948718e+00	4.588608e-01	1.223857e+00	4.563148e+01	5.059871e-06	2.538065e+05	1.011823e+05	2.880078e+02	1.095930e-01	-2.011289e-01	0.000000e+00	
-2.000000e+00	4.272152e-01	1.223860e+00	4.563129e+01	1.457595e-07	2.538073e+05	1.011826e+05	2.880081e+02	1.095923e-01	-2.006984e-01	0.000000e+00	
-1.948718e+00	4.272152e-01	1.223857e+00	4.563148e+01	4.627313e-06	2.538065e+05	1.011823e+05	2.880078e+02	1.095930e-01	-2.011287e-01	0.000000e+00	
-2.000000e+00	3.955696e-01	1.223860e+00	4.563129e+01	1.554805e-07	2.538073e+05	1.011826e+05	2.880081e+02	1.095922e-01	-2.006982e-01	0.000000e+00	
-1.948718e+00	3.955696e-01	1.223857e+00	4.563148e+01	4.210111e-06	2.538065e+05	1.011823e+05	2.880078e+02	1.095930e-01	-2.011286e-01	0.000000e+00	
-2.000000e+00	3.639241e-01	1.223860e+00	4.563129e+01	1.653371e-07	2.538073e+05	1.011826e+05	2.880081e+02	1.095922e-01	-2.006981e-01	0.000000e+00	
-1.948718e+00	3.639241e-01	1.223857e+00	4.563148e+01	3.809205e-06	2.538065e+05	1.011823e+05	2.880078e+02	1.095930e-01	-2.011285e-01	0.000000e+00	
-2.000000e+00	3.322785e-01	1.223860e+00	4.563128e+01	1.750254e-07	2.538073e+05	1.011826e+05	2.880081e+02	1.095922e-01	-2.006980e-01	0.000000e+00	
-1.948718e+00	3.322785e-01	1.223857e+00	4.563147e+01	3.424518e-06	2.538065e+05	1.011823e+05	2.880078e+02	1.095930e-01	-2.011284e-01	0.000000e+00	
-2.000000e+00	3.006329e-01	1.223860e+00	4.563128e+01	1.843874e-07	2.538073e+05	1.011826e+05	2.880081e+02	1.095922e-01	-2.006979e-01	0.000000e+00	
-1.948718e+00	3.006329e-01	1.223857e+00	4.563147e+01	3.055656e-06	2.538065e+05	1.011823e+05	2.880078e+02	1.095930e-01	-2.011283e-01	0.000000e+00	
-2.000000e+00	2.689873e-01	1.223860e+00	4.563128e+01	1.933137e-07	2.538073e+05	1.011827e+05	2.880081e+02	1.095922e-01	-2.006978e-01	0.000000e+00	
-1.948718e+00	2.689873e-01	1.223857e+00	4.563147e+01	2.701731e-06	2.538065e+05	1.011823e+05	2.880078e+02	1.095930e-01	-2.011282e-01	0.000000e+00	
-2.000000e+00	2.373418e-01	1.223860e+00	4.563128e+01	2.017703e-07	2.538073e+05	1.011827e+05	2.880081e+02	1.095922e-01	-2.006977e-01	0.000000e+00	
-1.948718e+00	2.373418e-01	1.223857e+00	4.563147e+01	2.361673e-06	2.538065e+05	1.011823e+05	2.880078e+02	1.095930e-01	-2.011281e-01	0.000000e+00	
-2.000000e+00	2.056962e-01	1.223860e+00	4.563128e+01	2.097527e-07	2.538073e+05	1.011827e+05	2.880081e+02	1.095922e-01	-2.006977e-01	0.000000e+00	
-1.948718e+00	2.056962e-01	1.223857e+00	4.563147e+01	2.034177e-06	2.538065e+05	1.011823e+05	2.880078e+02	1.095930e-01	-2.011281e-01	0.000000e+00	
-2.000000e+00	1.740506e-01	1.223860e+00	4.563128e+01	2.172919e-07	2.538073e+05	1.011827e+05	2.880081e+02	1.095922e-01	-2.006976e-01	0.000000e+00	
-1.948718e+00	1.740506e-01	1.223857e+00	4.563147e+01	1.717839e-06	2.538065e+05	1.011823e+05	2.880078e+02	1.095930e-01	-2.011280e-01	0.000000e+00	
-2.000000e+00	1.424051e-01	1.223860e+00	4.563128e+01	2.244345e-07	2.538073e+05	1.011827e+05	2.880081e+02	1.095922e-01	-2.006976e-01	0.000000e+00	
-1.948718e+00	1.424051e-01	1.223857e+00	4.563147e+01	1.411145e-06	2.538065e+05	1.011823e+05	2.880078e+02	1.095930e-01	-2.011280e-01	0.000000e+00	
-2.000000e+00	1.107595e-01	1.223860e+00	4.563128e+01	2.312430e-07	2.538073e+05	1.011827e+05	2.880081e+02	1.095922e-01	-2.006976e-01	0.000000e+00	
-1.948718e+00	1.107595e-01	1.223857e+00	4.563147e+01	1.112533e-06	2.538065e+05	1.011823e+05	2.880078e+02	1.095930e-01	-2.011279e-01	0.000000e+00	
-2.000000e+00	7.911392e-02	1.223860e+00	4.563128e+01	2.377864e-07	2.538073e+05	1.011827e+05	2.880081e+02	1.095922e-01	-2.006975e-01	0.000000e+00	
-1.948718e+00	7.911392e-02	1.223857e+00	4.563147e+01	8.203846e-07	2.538065e+05	1.011823e+05	2.880078e+02	1.095930e-01	-2.011279e-01	0.000000e+00	
-2.000000e+00	4.746835e-02	1.223860e+00	4.563128e+01	2.441414e-07	2.538073e+05	1.011827e+05	2.880081e+02	1.095922e-01	-2.006975e-01	0.000000e+00	
-1.948718e+00	4.746835e-02	1.223857e+00	4.563147e+01	5.330613e-07	2.538065e+05	1.011823e+05	2.880078e+02	1.095930e-01	-2.011279e-01	0.000000e+00	
-2.000000e+00	1.582278e-02	1.223860e+00	4.563128e+01	2.503873e-07	2.538073e+05	1.011827e+05	2.880081e+02	1.095922e-01	-2.006975e-01	0.000000e+00	
-1.948718e+00	1.582278e-02	1.223857e+00	4.563147e+01	2.488990e-07	2.538065e+05	1.011823e+05	2.880078e+02	1.095930e-01	-2.011279e-01	0.000000e+00	
-2.000000e+00	-1.582278e-02	1.223860e+00	4.563128e+01	2.566063e-07	2.538073e+05	1.011827e+05	2.880081e+02	1.095922e-01	-2.006975e-01	0.000000e+00	
-1.948718e+00	-1.582278e-02	1.223857e+00	4.563147e+01	-3.377583e-08	2.538065e+05	1.011823e+05	2.880078e+02	1.095930e-01	-2.011279e-01	0.000000e+00	
-2.000000e+00	-4.746835e-02	1.223860e+00	4.563128e+01	2.628819e-07	2.538073e+05	1.011827e+05	2.880081e+02	1.095922e-01	-2.006975e-01	0.000000e+00	
-1.948718e+00	-4.746835e-02	1.223857e+00	4.563147e+01	-3.166480e-07	2.538065e+05	1.011823e+05	2.880078e+02	1.095930e-01	-2.011279e-01	0.000000e+00	
-2.000000e+00	-7.911392e-02	1.223860e+00	4.563128e+01	2.692972e-07	2.538073e+05	1.011827e+05	2.880081e+02	1.095922e-01	-2.006976e-01	0.000000e+00	
-1.948718e+00	-7.911392e-02	1.223857e+00	4.563147e+01	-6.014044e-07	2.538065e+05	1.011823e+05	2.880078e+02	1.095930e-01	-2.011279e-01	0.000000e+00	
-2.000000e+00	-1.107595e-01	1.223860e+00	4.563128e+01	2.759340e-07	2.538073e+05	1.011827e+05	2.880081e+02	1.095922e-01	-2.006976e-01	0.000000e+00	
-1.948718e+00	-1.107595e-01	1.223857e+00	4.563147e+01	-8.897354e-07	2.538065e+05	1.011823e+05	2.880078e+02	1.095930e-01	-2.011280e-01	0.000000e+00	
-2.000000e+00	-1.424051e-01	1.223860e+00	4.563128e+01	2.828718e-07	2.538073e+05	1.011827e+05	2.880081e+02	1.095922e-01	-2.006976e-01	0.000000e+00	
-1.948718e+00	-1.424051e-01	1.223857e+00	4.563147e+01	-1.183321e-06	2.538065e+05	1.011823e+05	2.880078e+02	1.095930e-01	-2.011280e-01	0.000000e+00	
-2.000000e+00	-1.740506e-01	1.223860e+00	4.563128e+01	2.901834e-07	2.538073e+05	1.011827e+05	2.880081e+02	1.095922e-01	-2.006977e-01	0.000000e+00	
-1.948718e+00	-1.740506e-01	1.223857e+00	4.563147e+01	-1.483833e-06	2.538065e+05	1.011823e+05	2.880078e+02	1.095930e-01	-2.011281e-01	0.000000e+00	
-2.000000e+00	-2.056962e-01	1.223860e+00	4.563128e+01	2.979362e-07	2.538073e+05	1.011827e+05	2.880081e+02	1.095922e-01	-2.006977e-01	0.000000e+00	
-1.948718e+00	-2.056962e-01	1.223857e+00	4.563147e+01	-1.792906e-06	2.538065e+05	1.011823e+05	2.880078e+02	1.095930e-01	-2.011281e-01	0.000000e+00	
-2.000000e+00	-2.373418e-01	1.223860e+00	4.563128e+01	3.061813e-07	2.538073e+05	1.011827e+05	2.880081e+02	1.095922e-01	-2.006978e-01	0.000000e+00	
-1.948718e+00	-2.373418e-01	1.223857e+00	4.563147e+01	-2.112143e-06	2.538065e+05	1.011823e+05	2.880078e+02	1.095930e-01	-2.011282e-01	0.000000e+00	
-2.000000e+00	-2.689873e-01	1.223860e+00	4.563128e+01	3.149569e-07	2.538073e+05	1.011827e+05	2.880081e+02	1.095922e-01	-2.006979e-01	0.000000e+00	
-1.948718e+00	-2.689873e-01	1.223857e+00	4.563147e+01	-2.443050e-06	2.538065e+05	1.011823e+05	2.880078e+02	1.095930e-01	-2.011283e-01	0.000000e+00	
-2.000000e+00	-3.006329e-01	1.223860e+00	4.563128e+01	3.242657e-07	2.538073e+05	1.011826e+05	2.880081e+02	1.095922e-01	-2.006980e-01	0.000000e+00	
-1.948718e+00	-3.006329e-01	1.223857e+00	4.563147e+01	-2.787059e-06	2.538065e+05	1.011823e+05	2.880078e+02	1.095930e-01	-2.011284e-01	0.000000e+00	
-2.000000e+00	-3.322785e-01	1.223860e+00	4.563129e+01	3.340832e-07	2.538073e+05	1.011826e+05	2.880081e+02	1.095922e-01	-2.006981e-01	0.000000e+00	
-1.948718e+00	-3.322785e-01	1.223857e+00	4.563148e+01	-3.145378e-06	2.538065e+05	1.011823e+05	2.880078e+02	1.095930e-01	-2.011285e-01	0.000000e+00	
-2.000000e+00	-3.639241e-01	1.223860e+00	4.563129e+01	3.443092e-07	2.538073e+05	1.011826e+05	2.880081e+02	1.095922e-01	-2.006982e-01	0.000000e+00	
-1.948718e+00	-3.639241e-01	1.223857e+00	4.563148e+01	-3.519064e-06	2.538065e+05	1.011823e+05	2.880078e+02	1.095930e-01	-2.011286e-01	0.000000e+00	
-2.000000e+00	-3.955696e-01	1.223860e+00	4.563129e+01	3.547991e-07	2.538073e+05	1.011826e+05	2.880081e+02	1.095922e-01	-2.006983e-01	0.000000e+00	
-1.948718e+00	-3.955696e-01	1.223857e+00	4.563148e+01	-3.908693e-06	2.538065e+05	1.011823e+05	2.880078e+02	1.095930e-01	-2.011287e-01	0.000000e+00	
-2.000000e+00	-4.272152e-01	1.223860e+00	4.563129e+01	3.652590e-07	2.538073e+05	1.011826e+05	2.880081e+02	1.095923e-01	-2.006985e-01	0.000000e+00	
-1.948718e+00	-4.272152e-01	1.223857e+00	4.563148e+01	-4.314566e-06	2.538065e+05	1.011823e+05	2.880078e+02	1.095930e-01	-2.011288e-01	0.000000e+00	
-2.000000e+00	-4.588608e-01	1.223860e+00	4.563130e+01	3.753435e-07	2.538073e+05	1.011826e+05	2.880081e+02	1.095923e-01	-2.006986e-01	0.000000e+00	
-1.948718e+00	-4.588608e-01	1.223857e+00	4.563149e+01	-4.735967e-06	2.538065e+05	1.011823e+05	2.880078e+02	1.095930e-01	-2.011290e-01	0.000000e+00	
-2.000000e+00	-4.905063e-01	1.223860e+00	4.563130e+01	3.844247e-07	2.538073e+05	1.011826e+05	2.880081e+02	1.095923e-01	-2.006988e-01	0.000000e+00	
-1.948718e+00	-4.905063e-01	1.223857e+00	4.563149e+01	-5.171769e-06	2.538065e+05	1.011823e+05	2.880078e+02	1.095930e-01	-2.011292e-01	0.000000e+00	
-2.000000e+00	-5.221519e-01	1.223860e+00	4.563130e+01	3.918401e-07	2.538073e+05	1.011826e+05	2.880081e+02	1.095923e-01	-2.006990e-01	0.000000e+00	
-1.948718e+00	-5.221519e-01	1.223857e+00	4.563149e+01	-5.618767e-06	2.538065e+05	1.011823e+05	2.880078e+02	1.095930e-01	-2.011293e-01	0.000000e+00	
-2.000000e+00	-5.537975e-01	1.223860e+00	4.563131e+01	3.962844e-07	2.538073e+05	1.011826e+05	2.880081e+02	1.095923e-01	-2.006992e-01	0.000000e+00	
-1.948718e+00	-5.537975e-01	1.223857e+00	4.563150e+01	-6.073441e-06	2.538065e+05	1.011823e+05	2.880078e+02	1.095930e-01	-2.011295e-01	0.000000e+00	
-2.000000e+00	-5.854430e-01	1.223860e+00	4.563131e+01	3.962725e-07	2.538073e+05	1.011826e+05	2.880081e+02	1.095923e-01	-2.006994e-01	0.000000e+00	
-1.948718e+00	-5.854430e-01	1.223857e+00	4.563150e+01	-6.528239e-06	2.538065e+05	1.011823e+05	2.880078e+02	1.095930e-01	-2.011297e-01	0.000000e+00	
-2.000000e+00	-6.170886e-01	1.223860e+00	4.563132e+01	3.884725e-07	2.538073e+05	1.011826e+05	2.880081e+02	1.095923e-01	-2.006997e-01	0.000000e+00	
-1.948718e+00	-6.170886e-01	1.223857e+00	4.563151e+01	-6.976224e-06	2.538065e+05	1.011823e+05	2.880078e+02	1.095931e-01	-2.011299e-01	0.000000e+00	
-2.000000e+00	-6.487342e-01	1.223860e+00	4.563132e+01	3.690378e-07	2.538073e+05	1.011826e+05	2.880081e+02	1.095923e-01	-2.006999e-01	0.000000e+00	
-1.948718e+00	-6.487342e-01	1.223857e+00	4.563151e+01	-7.401663e-06	2.538065e+05	1.011823e+05	2.880078e+02	1.095931e-01	-2.011301e-01	0.000000e+00	
-2.000000e+00	-6.803797e-01	1.223860e+00	4.563133e+01	3.308095e-07	2.538073e+05	1.011826e+05	2.880081e+02	1.095923e-01	-2.007002e-01	0.000000e+00	
-1.948718e+00	-6.803797e-01	1.223857e+00	4.563152e+01	-7.790269e-06	2.538065e+05	1.011823e+05	2.880078e+02	1.095931e-01	-2.011303e-01	0.000000e+00	
-2.000000e+00	-7.120253e-01	1.223860e+00	4.563133e+01	2.696281e-07	2.538073e+05	1.011826e+05	2.880081e+02	1.095924e-01	-2.007005e-01	0.000000e+00	
-1.948718e+00	-7.120253e-01	1.223857e+00	4.563152e+01	-8.104008e-06	2.538065e+05	1.011823e+05	2.880078e+02	1.095931e-01	-2.011305e-01	0.000000e+00	
-2.000000e+00	-7.436709e-01	1.223860e+00	4.563134e+01	1.804763e-07	2.538073e+05	1.011826e+05	2.880081e+02	1.095924e-01	-2.007008e-01	0.000000e+00	
-1.948718e+00	-7.436709e-01	1.223857e+00	4.563153e+01	-8.307890e-06	2.538065e+05	1.011823e+05	2.880078e+02	1.095931e-01	-2.011307e-01	0.000000e+00	
-2.000000e+00	-7.753165e-01	1.223860e+00	4.563135e+01	7.153120e-08	2.538073e+05	1.011826e+05	2.880081e+02	1.095924e-01	-2.007012e-01	0.000000e+00	
-1.948718e+00	-7.753165e-01	1.223857e+00	4.563154e+01	-8.316484e-06	2.538065e+05	1.011823e+05	2.880078e+02	1.095931e-01	-2.011309e-01	0.000000e+00	
-2.000000e+00	-8.069620e-01	1.223860e+00	4.563135e+01	-5.927283e-08	2.538073e+05	1.011826e+05	2.880081e+02	1.095924e-01	-2.007015e-01	0.000000e+00	
-1.948718e+00	-8.069620e-01	1.223857e+00	4.563154e+01	-8.083472e-06	2.538065e+05	1.011823e+05	2.880078e+02	1.095931e-01	-2.011311e-01	0.000000e+00	
-2.000000e+00	-8.386076e-01	1.223860e+00	4.563136e+01	-2.117826e-07	2.538073e+05	1.011826e+05	2.880081e+02	1.095924e-01	-2.007019e-01	0.000000e+00	
-1.948718e+00	-8.386076e-01	1.223857e+00	4.563155e+01	-7.484515e-06	2.538065e+05	1.011823e+05	2.880078e+02	1.095932e-01	-2.011312e-01	0.000000e+00	
-2.000000e+00	-8.702532e-01	1.223860e+00	4.563137e+01	-4.536375e-07	2.538073e+05	1.011826e+05	2.880081e+02	1.095924e-01	-2.007023e-01	0.000000e+00	
-1.948718e+00	-8.702532e-01	1.223857e+00	4.563156e+01	-6.531328e-06	2.538065e+05	1.011823e+05	2.880078e+02	1.095932e-01	-2.011312e-01	0.000000e+00	
-2.000000e+00	-9.018987e-01	1.223860e+00	4.563137e+01	-8.394398e-07	2.538073e+05	1.011826e+05	2.880081e+02	1.095924e-01	-2.007027e-01	0.000000e+00	
-1.948718e+00	-9.018987e-01	1.223857e+00	4.563156e+01	-4.977136e-06	2.538065e+05	1.011823e+05	2.880078e+02	1.095932e-01	-2.011313e-01	0.000000e+00	
-2.000000e+00	-9.335443e-01	1.223860e+00	4.563138e+01	-1.475429e-06	2.538073e+05	1.011826e+05	2.880081e+02	1.095925e-01	-2.007030e-01	0.000000e+00	
-1.948718e+00	-9.335443e-01	1.223857e+00	4.563157e+01	-2.760966e-06	2.538065e+05	1.011823e+05	2.880078e+02	1.095932e-01	-2.011311e-01	0.000000e+00	
-2.000000e+00	-9.651899e-01	1.223860e+00	4.563138e+01	-2.184199e-06	2.538073e+05	1.011826e+05	2.880081e+02	1.095925e-01	-2.007034e-01	0.000000e+00	
-1.948718e+00	-9.651899e-01	1.223857e+00	4.563157e+01	1.067806e-06	2.538065e+05	1.011823e+05	2.880078e+02	1.095932e-01	-2.011309e-01	0.000000e+00	
-2.000000e+00	-9.968354e-01	1.223860e+00	4.563138e+01	-2.706208e-06	2.538073e+05	1.011826e+05	2.880081e+02	1.095925e-01	-2.007036e-01	0.000000e+00	
-1.948718e+00	-9.968354e-01	1.223857e+00	4.563157e+01	6.902490e-06	2.538065e+05	1.011823e+05	2.880078e+02	1.095932e-01	-2.011303e-01	0.000000e+00	
-2.000000e+00	-1.028481e+00	1.223860e+00	4.563137e+01	-1.836136e-06	2.538073e+05	1.011826e+05	2.880081e+02	1.095925e-01	-2.007036e-01	0.000000e+00	
-1.948718e+00	-1.028481e+00	1.223857e+00	4.563157e+01	1.735682e-05	2.538065e+05	1.011823e+05	2.880078e+02	1.095932e-01	-2.011298e-01	0.000000e+00	
-2.000000e+00	-1.060127e+00	1.223860e+00	4.563136e+01	2.378425e-06	2.538073e+05	1.011826e+05	2.880081e+02	1.095924e-01	-2.007032e-01	0.000000e+00	
-1.948718e+00	-1.060127e+00	1.223857e+00	4.563157e+01	3.344462e-05	2.538065e+05	1.011823e+05	2.880078e+02	1.095932e-01	-2.011284e-01	0.000000e+00	
-2.000000e+00	-1.091772e+00	1.223860e+00	4.563134e+01	1.630733e-05	2.538073e+05	1.011826e+05	2.880081e+02	1.095924e-01	-2.007023e-01	0.000000e+00	
-1.948718e+00	-1.091772e+00	1.223857e+00	4.563158e+01	6.360358e-05	2.538066e+05	1.011823e+05	2.880078e+02	1.095932e-01	-2.011274e-01	0.000000e+00	
-2.000000e+00	-1.123418e+00	1.223860e+00	4.563131e+01	4.878966e-05	2.538073e+05	1.011826e+05	2.880081e+02	1.095923e-01	-2.006997e-01	0.000000e+00	
-1.948718e+00	-1.123418e+00	1.223857e+00	4.563158e+01	1.091264e-04	2.538066e+05	1.011823e+05	2.880078e+02	1.095932e-01	-2.011245e-01	0.000000e+00	
-2.000000e+00	-1.155063e+00	1.223860e+00	4.563127e+01	1.109934e-04	2.538073e+05	1.011827e+05	2.880081e+02	1.095922e-01	-2.006952e-01	0.000000e+00	
-1.948718e+00	-1.155063e+00	1.223857e+00	4.563157e+01	1.814255e-04	2.538066e+05	1.011823e+05	2.880078e+02	1.095932e-01	-2.011237e-01	0.000000e+00	
-2.000000e+00	-1.186709e+00	1.223860e+00	4.563117e+01	1.827267e-04	2.538073e+05	1.011827e+05	2.880081e+02	1.095919e-01	-2.006853e-01	0.000000e+00	
-1.948718e+00	-1.186709e+00	1.223857e+00	4.563141e+01	2.303550e-04	2.538066e+05	1.011824e+05	2.880078e+02	1.095928e-01	-2.011168e-01	0.000000e+00	
-2.000000e+00	-1.218354e+00	1.223860e+00	4.563092e+01	2.039232e-04	2.538073e+05	1.011827e+05	2.880081e+02	1.095913e-01	-2.006736e-01	0.000000e+00	
-1.948718e+00	-1.218354e+00	1.223857e+00	4.563097e+01	2.302636e-04	2.538065e+05	1.011823e+05	2.880079e+02	1.095918e-01	-2.011217e-01	0.000000e+00	
-1.897436e+00	1.218354e+00	1.223855e+00	4.563078e+01	-1.980014e-04	2.538059e+05	1.011821e+05	2.880076e+02	1.095915e-01	-2.014555e-01	0.000000e+00	
-1.897436e+00	1.250000e+00	1.223855e+00	4.563002e+01	-8.342634e-07	2.538059e+05	1.011821e+05	2.880076e+02	1.095897e-01	-2.014457e-01	0.000000e+00	
-1.897436e+00	1.186709e+00	1.223855e+00	4.563143e+01	-2.270811e-04	2.538060e+05	1.011821e+05	2.880076e+02	1.095931e-01	-2.014516e-01	0.000000e+00	
-1.897436e+00	1.155063e+00	1.223855e+00	4.563168e+01	-1.993526e-04	2.538060e+05	1.011821e+05	2.880076e+02	1.095937e-01	-2.014575e-01	0.000000e+00	
-1.897436e+00	1.123418e+00	1.223855e+00	4.563170e+01	-1.326304e-04	2.538060e+05	1.011821e+05	2.880076e+02	1.095937e-01	-2.014571e-01	0.000000e+00	
-1.897436e+00	1.091772e+00	1.223855e+00	4.563167e+01	-8.468239e-05	2.538060e+05	1.011821e+05	2.880076e+02	1.095937e-01	-2.014598e-01	0.000000e+00	
-1.897436e+00	1.060127e+00	1.223855e+00	4.563164e+01	-4.688139e-05	2.538060e+05	1.011821e+05	2.880076e+02	1.095936e-01	-2.014601e-01	0.000000e+00	
-1.897436e+00	1.028481e+00	1.223855e+00	4.563162e+01	-2.385487e-05	2.538060e+05	1.011821e+05	2.880076e+02	1.095935e-01	-2.014613e-01	0.000000e+00	
-1.897436e+00	9.968354e-01	1.223855e+00	4.563161e+01	-7.117879e-06	2.538060e+05	1.011821e+05	2.880076e+02	1.095935e-01	-2.014616e-01	0.000000e+00	
-1.897436e+00	9.651899e-01	1.223855e+00	4.563160e+01	2.954702e-06	2.538060e+05	1.011821e+05	2.880076e+02	1.095935e-01	-2.014622e-01	0.000000e+00	
-1.897436e+00	9.335443e-01	1.223855e+00	4.563159e+01	9.630895e-06	2.538060e+05	1.011821e+05	2.880076e+02	1.095935e-01	-2.014623e-01	0.000000e+00	
-1.897436e+00	9.018987e-01	1.223855e+00	4.563158e+01	1.334593e-05	2.538060e+05	1.011821e+05	2.880076e+02	1.095935e-01	-2.014624e-01	0.000000e+00	
-1.897436e+00	8.702532e-01	1.223855e+00	4.563158e+01	1.570734e-05	2.538060e+05	1.011821e+05	2.880076e+02	1.095934e-01	-2.014624e-01	0.000000e+00	
-1.897436e+00	8.386076e-01	1.223855e+00	4.563157e+01	1.697883e-05	2.538060e+05	1.011821e+05	2.880076e+02	1.095934e-01	-2.014624e-01	0.000000e+00	
-1.897436e+00	8.069620e-01	1.223855e+00	4.563156e+01	1.766676e-05	2.538060e+05	1.011821e+05	2.880076e+02	1.095934e-01	-2.014622e-01	0.000000e+00	
-1.897436e+00	7.753165e-01	1.223855e+00	4.563155e+01	1.778559e-05	2.538060e+05	1.011821e+05	2.880076e+02	1.095934e-01	-2.014621e-01	0.000000e+00	
-1.897436e+00	7.436709e-01	1.223855e+00	4.563154e+01	1.752636e-05	2.538060e+05	1.011821e+05	2.880076e+02	1.095934e-01	-2.014620e-01	0.000000e+00	
-1.897436e+00	7.120253e-01	1.223855e+00	4.563154e+01	1.694721e-05	2.538060e+05	1.011821e+05	2.880076e+02	1.095933e-01	-2.014618e-01	0.000000e+00	
-1.897436e+00	6.803797e-01	1.223855e+00	4.563153e+01	1.617990e-05	2.538060e+05	1.011821e+05	2.880076e+02	1.095933e-01	-2.014616e-01	0.000000e+00	
-1.897436e+00	6.487342e-01	1.223855e+00	4.563153e+01	1.528394e-05	2.538060e+05	1.011821e+05	2.880076e+02	1.095933e-01	-2.014615e-01	0.000000e+00	
-1.897436e+00	6.170886e-01	1.223855e+00	4.563152e+01	1.432765e-05	2.538060e+05	1.011821e+05	2.880076e+02	1.095933e-01	-2.014613e-01	0.000000e+00	
-1.897436e+00	5.854430e-01	1.223855e+00	4.563152e+01	1.333988e-05	2.538060e+05	1.011821e+05	2.880076e+02	1.095933e-01	-2.014611e-01	0.000000e+00	
-1.897436e+00	5.537975e-01	1.223855e+00	4.563151e+01	1.234972e-05	2.538060e+05	1.011821e+05	2.880076e+02	1.095933e-01	-2.014609e-01	0.000000e+00	
-1.897436e+00	5.221519e-01	1.223855e+00	4.563151e+01	1.137008e-05	2.538060e+05	1.011821e+05	2.880076e+02	1.095933e-01	-2.014608e-01	0.000000e+00	
-1.897436e+00	4.905063e-01	1.223855e+00	4.563151e+01	1.041386e-05	2.538060e+05	1.011821e+05	2.880076e+02	1.095933e-01	-2.014606e-01	0.000000e+00	
-1.897436e+00	4.588608e-01	1.223855e+00	4.563150e+01	9.486925e-06	2.538060e+05	1.011821e+05	2.880076e+02	1.095933e-01	-2.014605e-01	0.000000e+00	
-1.897436e+00	4.272152e-01	1.223855e+00	4.563150e+01	8.594398e-06	2.538060e+05	1.011821e+05	2.880076e+02	1.095933e-01	-2.014604e-01	0.000000e+00	
-1.897436e+00	3.955696e-01	1.223855e+00	4.563150e+01	7.737885e-06	2.538060e+05	1.011821e+05	2.880076e+02	1.095932e-01	-2.014603e-01	0.000000e+00	
-1.897436e+00	3.639241e-01	1.223855e+00	4.563149e+01	6.918226e-06	2.538060e+05	1.011821e+05	2.880076e+02	1.095932e-01	-2.014601e-01	0.000000e+00	
-1.897436e+00	3.322785e-01	1.223855e+00	4.563149e+01	6.134500e-06	2.538060e+05	1.011821e+05	2.880076e+02	1.095932e-01	-2.014601e-01	0.000000e+00	
-1.897436e+00	3.006329e-01	1.223855e+00	4.563149e+01	5.385272e-06	2.538060e+05	1.011821e+05	2.880076e+02	1.095932e-01	-2.014600e-01	0.000000e+00	
-1.897436e+00	2.689873e-01	1.223855e+00	4.563149e+01	4.668258e-06	2.538060e+05	1.011821e+05	2.880076e+02	1.095932e-01	-2.014599e-01	0.000000e+00	
-1.897436e+00	2.373418e-01	1.223855e+00	4.563149e+01	3.980888e-06	2.538060e+05	1.011821e+05	2.880076e+02	1.095932e-01	-2.014598e-01	0.000000e+00	
-1.897436e+00	2.056962e-01	1.223855e+00	4.563149e+01	3.320196e-06	2.538060e+05	1.011821e+05	2.880076e+02	1.095932e-01	-2.014598e-01	0.000000e+00	
-1.897436e+00	1.740506e-01	1.223855e+00	4.563148e+01	2.683074e-06	2.538060e+05	1.011821e+05	2.880076e+02	1.095932e-01	-2.014597e-01	0.000000e+00	
-1.897436e+00	1.424051e-01	1.223855e+00	4.563148e+01	2.066238e-06	2.538060e+05	1.011821e+05	2.880076e+02	1.095932e-01	-2.014597e-01	0.000000e+00	
-1.897436e+00	1.107595e-01	1.223855e+00	4.563148e+01	1.466338e-06	2.538060e+05	1.011821e+05	2.880076e+02	1.095932e-01	-2.014596e-01	0.000000e+00	
-1.897436e+00	7.911392e-02	1.223855e+00	4.563148e+01	8.799465e-07	2.538060e+05	1.011821e+05	2.880076e+02	1.095932e-01	-2.014596e-01	0.000000e+00	
-1.897436e+00	4.746835e-02	1.223855e+00	4.563148e+01	3.036076e-07	2.538060e+05	1.011821e+05	2.880076e+02	1.095932e-01	-2.014596e-01	0.000000e+00	
-1.897436e+00	1.582278e-02	1.223855e+00	4.563148e+01	-2.661677e-07	2.538060e+05	1.011821e+05	2.880076e+02	1.095932e-01	-2.014596e-01	0.000000e+00	
-1.897436e+00	-1.582278e-02	1.223855e+00	4.563148e+01	-8.328826e-07	2.538060e+05	1.011821e+05	2.880076e+02	1.095932e-01	-2.014596e-01	0.000000e+00	
-1.897436e+00	-4.746835e-02	1.223855e+00	4.563148e+01	-1.400059e-06	2.538060e+05	1.011821e+05	2.880076e+02	1.095932e-01	-2.014596e-01	0.000000e+00	
-1.897436e+00	-7.911392e-02	1.223855e+00	4.563148e+01	-1.971228e-06	2.538060e+05	1.011821e+05	2.880076e+02	1.095932e-01	-2.014596e-01	0.000000e+00	
-1.897436e+00	-1.107595e-01	1.223855e+00	4.563148e+01	-2.549933e-06	2.538060e+05	1.011821e+05	2.880076e+02	1.095932e-01	-2.014597e-01	0.000000e+00	