TITLE = "Visualization of the volumetric solution"
VARIABLES = "x","y","Density","Momentum_x","Momentum_y","Energy","Pressure","Temperature","Mach","C<sub>p</sub>","Roe_Dissipation"
ZONE NODES= 2400, ELEMENTS= 2291, DATAPACKING=POINT, ZONETYPE=FEQUADRILATERAL
0.000000e+00	1.250000e+00	1.224141e+00	4.588679e+01	-3.921679e+00	2.540117e+05	1.012582e+05	2.881568e+02	1.105537e-01	-9.423738e-02	0.000000e+00	
0.000000e+00	1.218354e+00	1.224150e+00	4.588813e+01	-3.909665e+00	2.540129e+05	1.012586e+05	2.881560e+02	1.105538e-01	-9.358757e-02	0.000000e+00	
3.448276e-02	1.218354e+00	1.231653e+00	4.549356e+01	-1.863160e+01	2.561507e+05	1.020678e+05	2.886894e+02	1.171839e-01	1.047289e+00	0.000000e+00	
3.448276e-02	1.250000e+00	1.231649e+00	4.549173e+01	-1.863069e+01	2.561496e+05	1.020674e+05	2.886893e+02	1.171794e-01	1.046743e+00	0.000000e+00	
0.000000e+00	1.186709e+00	1.224147e+00	4.588959e+01	-3.904572e+00	2.540118e+05	1.012582e+05	2.881554e+02	1.105566e-01	-9.423921e-02	0.000000e+00	
3.448276e-02	1.186709e+00	1.231656e+00	4.549280e+01	-1.863217e+01	2.561512e+05	1.020681e+05	2.886893e+02	1.171824e-01	1.047631e+00	0.000000e+00	
0.000000e+00	1.155063e+00	1.224146e+00	4.589053e+01	-3.901944e+00	2.540114e+05	1.012580e+05	2.881552e+02	1.105585e-01	-9.446610e-02	0.000000e+00	
3.448276e-02	1.155063e+00	1.231658e+00	4.549226e+01	-1.863256e+01	2.561516e+05	1.020682e+05	2.886892e+02	1.171814e-01	1.047858e+00	0.000000e+00	
0.000000e+00	1.123418e+00	1.224145e+00	4.589041e+01	-3.900530e+00	2.540112e+05	1.012579e+05	2.881552e+02	1.105580e-01	-9.455638e-02	0.000000e+00	
3.448276e-02	1.123418e+00	1.231660e+00	4.549154e+01	-1.863280e+01	2.561519e+05	1.020683e+05	2.886892e+02	1.171799e-01	1.048004e+00	0.000000e+00	
0.000000e+00	1.091772e+00	1.224145e+00	4.588983e+01	-3.899654e+00	2.540111e+05	1.012579e+05	2.881552e+02	1.105564e-01	-9.461203e-02	0.000000e+00	
3.448276e-02	1.091772e+00	1.231661e+00	4.549076e+01	-1.863288e+01	2.561520e+05	1.020684e+05	2.886892e+02	1.171782e-01	1.048082e+00	0.000000e+00	
0.000000e+00	1.060127e+00	1.224145e+00	4.588929e+01	-3.899030e+00	2.540110e+05	1.012579e+05	2.881552e+02	1.105550e-01	-9.463803e-02	0.000000e+00	
3.448276e-02	1.060127e+00	1.231661e+00	4.549012e+01	-1.863281e+01	2.561521e+05	1.020684e+05	2.886892e+02	1.171766e-01	1.048144e+00	0.000000e+00	
0.000000e+00	1.028481e+00	1.224144e+00	4.588901e+01	-3.898608e+00	2.540110e+05	1.012579e+05	2.881552e+02	1.105543e-01	-9.465244e-02	0.000000e+00	
3.448276e-02	1.028481e+00	1.231661e+00	4.548974e+01	-1.863273e+01	2.561521e+05	1.020685e+05	2.886892e+02	1.171757e-01	1.048184e+00	0.000000e+00	
0.000000e+00	9.968354e-01	1.224144e+00	4.588893e+01	-3.898342e+00	2.540110e+05	1.012579e+05	2.881552e+02	1.105541e-01	-9.465727e-02	0.000000e+00	
3.448276e-02	9.968354e-01	1.231662e+00	4.548958e+01	-1.863266e+01	2.561522e+05	1.020685e+05	2.886892e+02	1.171753e-01	1.048216e+00	0.000000e+00	
0.000000e+00	9.651899e-01	1.224144e+00	4.588895e+01	-3.898188e+00	2.540110e+05	1.012579e+05	2.881552e+02	1.105541e-01	-9.465830e-02	0.000000e+00	
3.448276e-02	9.651899e-01	1.231662e+00	4.548954e+01	-1.863264e+01	2.561522e+05	1.020685e+05	2.886892e+02	1.171751e-01	1.048238e+00	0.000000e+00	
0.000000e+00	9.335443e-01	1.224144e+00	4.588899e+01	-3.898101e+00	2.540110e+05	1.012579e+05	2.881552e+02	1.105542e-01	-9.465667e-02	0.000000e+00	
3.448276e-02	9.335443e-01	1.231662e+00	4.548955e+01	-1.863264e+01	2.561522e+05	1.020685e+05	2.886893e+02	1.171751e-01	1.048255e+00	0.000000e+00	
0.000000e+00	9.018987e-01	1.224144e+00	4.588904e+01	-3.898055e+00	2.540110e+05	1.012579e+05	2.881552e+02	1.105543e-01	-9.465418e-02	0.000000e+00	
3.448276e-02	9.018987e-01	1.231662e+00	4.548958e+01	-1.863265e+01	2.561523e+05	1.020685e+05	2.886893e+02	1.171752e-01	1.048267e+00	0.000000e+00	
0.000000e+00	8.702532e-01	1.224144e+00	4.588907e+01	-3.898031e+00	2.540110e+05	1.012579e+05	2.881552e+02	1.105543e-01	-9.465109e-02	0.000000e+00	
3.448276e-02	8.702532e-01	1.231662e+00	4.548960e+01	-1.863267e+01	2.561523e+05	1.020685e+05	2.886893e+02	1.171753e-01	1.048276e+00	0.000000e+00	
0.000000e+00	8.386076e-01	1.224144e+00	4.588910e+01	-3.898022e+00	2.540110e+05	1.012579e+05	2.881552e+02	1.105544e-01	-9.464794e-02	0.000000e+00	
3.448276e-02	8.386076e-01	1.231662e+00	4.548962e+01	-1.863268e+01	2.561523e+05	1.020685e+05	2.886893e+02	1.171753e-01	1.048283e+00	0.000000e+00	
0.000000e+00	8.069620e-01	1.224144e+00	4.588912e+01	-3.898021e+00	2.540110e+05	1.012579e+05	2.881552e+02	1.105544e-01	-9.464480e-02	0.000000e+00	
3.448276e-02	8.069620e-01	1.231662e+00	4.548964e+01	-1.863270e+01	2.561523e+05	1.020685e+05	2.886893e+02	1.171754e-01	1.048289e+00	0.000000e+00	
0.000000e+00	7.753165e-01	1.224144e+00	4.588913e+01	-3.898025e+00	2.540110e+05	1.012579e+05	2.881552e+02	1.105545e-01	-9.464183e-02	0.000000e+00	
3.448276e-02	7.753165e-01	1.231662e+00	4.548964e+01	-1.863271e+01	2.561523e+05	1.020685e+05	2.886893e+02	1.171754e-01	1.048293e+00	0.000000e+00	
0.000000e+00	7.436709e-01	1.224144e+00	4.588913e+01	-3.898031e+00	2.540110e+05	1.012579e+05	2.881552e+02	1.105545e-01	-9.463899e-02	0.000000e+00	
3.448276e-02	7.436709e-01	1.231662e+00	4.548965e+01	-1.863272e+01	2.561523e+05	1.020685e+05	2.886893e+02	1.171754e-01	1.048297e+00	0.000000e+00	
0.000000e+00	7.120253e-01	1.224144e+00	4.588913e+01	-3.898038e+00	2.540110e+05	1.012579e+05	2.881552e+02	1.105545e-01	-9.463631e-02	0.000000e+00	
3.448276e-02	7.120253e-01	1.231662e+00	4.548965e+01	-1.863273e+01	2.561523e+05	1.020685e+05	2.886893e+02	1.171754e-01	1.048300e+00	0.000000e+00	
0.000000e+00	6.803797e-01	1.224144e+00	4.588914e+01	-3.898044e+00	2.540110e+05	1.012579e+05	2.881552e+02	1.105545e-01	-9.463379e-02	0.000000e+00	
3.448276e-02	6.803797e-01	1.231662e+00	4.548966e+01	-1.863274e+01	2.561523e+05	1.020685e+05	2.886893e+02	1.171754e-01	1.048303e+00	0.000000e+00	
0.000000e+00	6.487342e-01	1.224144e+00	4.588915e+01	-3.898050e+00	2.540110e+05	1.012579e+05	2.881552e+02	1.105545e-01	-9.463147e-02	0.000000e+00	
3.448276e-02	6.487342e-01	1.231662e+00	4.548967e+01	-1.863275e+01	2.561523e+05	1.020685e+05	2.886893e+02	1.171755e-01	1.048306e+00	0.000000e+00	
0.000000e+00	6.170886e-01	1.224144e+00	4.588916e+01	-3.898054e+00	2.540110e+05	1.012579e+05	2.881552e+02	1.105545e-01	-9.462938e-02	0.000000e+00	
3.448276e-02	6.170886e-01	1.231662e+00	4.548969e+01	-1.863275e+01	2.561523e+05	1.020685e+05	2.886893e+02	1.171755e-01	1.048308e+00	0.000000e+00	
0.000000e+00	5.854430e-01	1.224144e+00	4.588918e+01	-3.898057e+00	2.540110e+05	1.012579e+05	2.881552e+02	1.105546e-01	-9.462755e-02	0.000000e+00	
3.448276e-02	5.854430e-01	1.231662e+00	4.548970e+01	-1.863276e+01	2.561523e+05	1.020685e+05	2.886893e+02	1.171755e-01	1.048310e+00	0.000000e+00	
0.000000e+00	5.537975e-01	1.224144e+00	4.588920e+01	-3.898059e+00	2.540110e+05	1.012579e+05	2.881552e+02	1.105546e-01	-9.462601e-02	0.000000e+00	
3.448276e-02	5.537975e-01	1.231662e+00	4.548972e+01	-1.863276e+01	2.561523e+05	1.020685e+05	2.886893e+02	1.171756e-01	1.048312e+00	0.000000e+00	
0.000000e+00	5.221519e-01	1.224144e+00	4.588921e+01	-3.898059e+00	2.540110e+05	1.012579e+05	2.881552e+02	1.105547e-01	-9.462474e-02	0.000000e+00	
3.448276e-02	5.221519e-01	1.231662e+00	4.548974e+01	-1.863276e+01	2.561523e+05	1.020685e+05	2.886893e+02	1.171756e-01	1.048313e+00	0.000000e+00	
0.000000e+00	4.905063e-01	1.224144e+00	4.588923e+01	-3.898057e+00	2.540110e+05	1.012579e+05	2.881553e+02	1.105547e-01	-9.462375e-02	0.000000e+00	
3.448276e-02	4.905063e-01	1.231662e+00	4.548977e+01	-1.863276e+01	2.561523e+05	1.020685e+05	2.886893e+02	1.171757e-01	1.048314e+00	0.000000e+00	
0.000000e+00	4.588608e-01	1.224144e+00	4.588925e+01	-3.898053e+00	2.540110e+05	1.012579e+05	2.881553e+02	1.105548e-01	-9.462303e-02	0.000000e+00	
3.448276e-02	4.588608e-01	1.231662e+00	4.548979e+01	-1.863276e+01	2.561524e+05	1.020685e+05	2.886893e+02	1.171757e-01	1.048315e+00	0.000000e+00	
0.000000e+00	4.272152e-01	1.224144e+00	4.588927e+01	-3.898047e+00	2.540110e+05	1.012579e+05	2.881553e+02	1.105548e-01	-9.462255e-02	0.000000e+00	
3.448276e-02	4.272152e-01	1.231662e+00	4.548981e+01	-1.863275e+01	2.561524e+05	1.020685e+05	2.886893e+02	1.171758e-01	1.048315e+00	0.000000e+00	
0.000000e+00	3.955696e-01	1.224144e+00	4.588929e+01	-3.898039e+00	2.540110e+05	1.012579e+05	2.881553e+02	1.105549e-01	-9.462230e-02	0.000000e+00	
3.448276e-02	3.955696e-01	1.231662e+00	4.548983e+01	-1.863274e+01	2.561524e+05	1.020685e+05	2.886893e+02	1.171758e-01	1.048316e+00	0.000000e+00	
0.000000e+00	3.639241e-01	1.224144e+00	4.588931e+01	-3.898029e+00	2.540110e+05	1.012579e+05	2.881553e+02	1.105549e-01	-9.462227e-02	0.000000e+00	
3.448276e-02	3.639241e-01	1.231662e+00	4.548985e+01	-1.863274e+01	2.561524e+05	1.020685e+05	2.886893e+02	1.171759e-01	1.048316e+00	0.000000e+00	
0.000000e+00	3.322785e-01	1.224144e+00	4.588933e+01	-3.898017e+00	2.540110e+05	1.012579e+05	2.881553e+02	1.105549e-01	-9.462243e-02	0.000000e+00	
3.448276e-02	3.322785e-01	1.231662e+00	4.548987e+01	-1.863273e+01	2.561524e+05	1.020685e+05	2.886893e+02	1.171759e-01	1.048316e+00	0.000000e+00	
0.000000e+00	3.006329e-01	1.224144e+00	4.588935e+01	-3.898003e+00	2.540110e+05	1.012579e+05	2.881553e+02	1.105550e-01	-9.462276e-02	0.000000e+00	
3.448276e-02	3.006329e-01	1.231662e+00	4.548989e+01	-1.863272e+01	2.561524e+05	1.020685e+05	2.886893e+02	1.171759e-01	1.048316e+00	0.000000e+00	
0.000000e+00	2.689873e-01	1.224144e+00	4.588936e+01	-3.897988e+00	2.540110e+05	1.012579e+05	2.881553e+02	1.105550e-01	-9.462323e-02	0.000000e+00	
3.448276e-02	2.689873e-01	1.231662e+00	4.548991e+01	-1.863270e+01	2.561524e+05	1.020685e+05	2.886893e+02	1.171759e-01	1.048316e+00	0.000000e+00	
0.000000e+00	2.373418e-01	1.224144e+00	4.588938e+01	-3.897972e+00	2.540110e+05	1.012579e+05	2.881553e+02	1.105550e-01	-9.462382e-02	0.000000e+00	
3.448276e-02	2.373418e-01	1.231662e+00	4.548992e+01	-1.863269e+01	2.561524e+05	1.020685e+05	2.886893e+02	1.171760e-01	1.048316e+00	0.000000e+00	
0.000000e+00	2.056962e-01	1.224144e+00	4.588939e+01	-3.897956e+00	2.540110e+05	1.012579e+05	2.881553e+02	1.105551e-01	-9.462450e-02	0.000000e+00	
3.448276e-02	2.056962e-01	1.231662e+00	4.548993e+01	-1.863268e+01	2.561524e+05	1.020685e+05	2.886893e+02	1.171760e-01	1.048316e+00	0.000000e+00	
0.000000e+00	1.740506e-01	1.224144e+00	4.588940e+01	-3.897938e+00	2.540110e+05	1.012579e+05	2.881552e+02	1.105551e-01	-9.462524e-02	0.000000e+00	
3.448276e-02	1.740506e-01	1.231662e+00	4.548994e+01	-1.863266e+01	2.561524e+05	1.020685e+05	2.886893e+02	1.171760e-01	1.048316e+00	0.000000e+00	
0.000000e+00	1.424051e-01	1.224144e+00	4.588941e+01	-3.897920e+00	2.540110e+05	1.012579e+05	2.881552e+02	1.105551e-01	-9.462601e-02	0.000000e+00	
3.448276e-02	1.424051e-01	1.231662e+00	4.548995e+01	-1.863265e+01	2.561524e+05	1.020685e+05	2.886893e+02	1.171760e-01	1.048316e+00	0.000000e+00	
0.000000e+00	1.107595e-01	1.224144e+00	4.588941e+01	-3.897902e+00	2.540110e+05	1.012579e+05	2.881552e+02	1.105551e-01	-9.462681e-02	0.000000e+00	
3.448276e-02	1.107595e-01	1.231662e+00	4.548996e+01	-1.863264e+01	2.561524e+05	1.020685e+05	2.886893e+02	1.171760e-01	1.048316e+00	0.000000e+00	
0.000000e+00	7.911392e-02	1.224144e+00	4.588942e+01	-3.897885e+00	2.540110e+05	1.012579e+05	2.881552e+02	1.105551e-01	-9.462759e-02	0.000000e+00	
3.448276e-02	7.911392e-02	1.231662e+00	4.548996e+01	-1.863262e+01	2.561524e+05	1.020685e+05	2.886893e+02	1.171760e-01	1.048316e+00	0.000000e+00	
0.000000e+00	4.746835e-02	1.224144e+00	4.588942e+01	-3.897868e+00	2.540110e+05	1.012579e+05	2.881552e+02	1.105551e-01	-9.462835e-02	0.000000e+00	
3.448276e-02	4.746835e-02	1.231662e+00	4.548996e+01	-1.863261e+01	2.561524e+05	1.020685e+05	2.886893e+02	1.171760e-01	1.048316e+00	0.000000e+00	
0.000000e+00	1.582278e-02	1.224144e+00	4.588942e+01	-3.897851e+00	2.540110e+05	1.012579e+05	2.881552e+02	1.105551e-01	-9.462907e-02	0.000000e+00	
3.448276e-02	1.582278e-02	1.231662e+00	4.548996e+01	-1.863260e+01	2.561524e+05	1.020685e+05	2.886893e+02	1.171760e-01	1.048315e+00	0.000000e+00	
0.000000e+00	-1.582278e-02	1.224144e+00	4.588942e+01	-3.897835e+00	2.540110e+05	1.012579e+05	2.881552e+02	1.105551e-01	-9.462973e-02	0.000000e+00	
3.448276e-02	-1.582278e-02	1.231662e+00	4.548996e+01	-1.863258e+01	2.561524e+05	1.020685e+05	2.886893e+02	1.171759e-01	1.048315e+00	0.000000e+00	
0.000000e+00	-4.746835e-02	1.224144e+00	4.588941e+01	-3.897820e+00	2.540110e+05	1.012579e+05	2.881552e+02	1.105551e-01	-9.463034e-02	0.000000e+00	
3.448276e-02	-4.746835e-02	1.231662e+00	4.548995e+01	-1.863257e+01	2.561524e+05	1.020685e+05	2.886893e+02	1.171759e-01	1.048315e+00	0.000000e+00	
0.000000e+00	-7.911392e-02	1.224144e+00	4.588941e+01	-3.897807e+00	2.540110e+05	1.012579e+05	2.881552e+02	1.105551e-01	-9.463087e-02	0.000000e+00	
3.448276e-02	-7.911392e-02	1.231662e+00	4.548994e+01	-1.863256e+01	2.561524e+05	1.020685e+05	2.886893e+02	1.171759e-01	1.048315e+00	0.000000e+00	
0.000000e+00	-1.107595e-01	1.224144e+00	4.588940e+01	-3.897794e+00	2.540110e+05	1.012579e+05	2.881552e+02	1.105551e-01	-9.463132e-02	0.000000e+00	
3.448276e-02	-1.107595e-01	1.231662e+00	4.548994e+01	-1.863255e+01	2.561524e+05	1.020685e+05	2.886893e+02	1.171759e-01	1.048316e+00	0.000000e+00	
0.000000e+00	-1.424051e-01	1.224144e+00	4.588939e+01	-3.897783e+00	2.540110e+05	1.012579e+05	2.881552e+02	1.105550e-01	-9.463170e-02	0.000000e+00	
3.448276e-02	-1.424051e-01	1.231662e+00	4.548993e+01	-1.863255e+01	2.561524e+05	1.020685e+05	2.886893e+02	1.171758e-01	1.048316e+00	0.000000e+00	
0.000000e+00	-1.740506e-01	1.224144e+00	4.588938e+01	-3.897773e+00	2.540110e+05	1.012579e+05	2.881552e+02	1.105550e-01	-9.463201e-02	0.000000e+00	
3.448276e-02	-1.740506e-01	1.231662e+00	4.548992e+01	-1.863254e+01	2.561524e+05	1.020685e+05	2.886893e+02	1.171758e-01	1.048316e+00	0.000000e+00	
0.000000e+00	-2.056962e-01	1.224144e+00	4.588937e+01	-3.897765e+00	2.540110e+05	1.012579e+05	2.881552e+02	1.105550e-01	-9.463224e-02	0.000000e+00	
3.448276e-02	-2.056962e-01	1.231662e+00	4.548990e+01	-1.863253e+01	2.561524e+05	1.020685e+05	2.886893e+02	1.171758e-01	1.048316e+00	0.000000e+00	
0.000000e+00	-2.373418e-01	1.224144e+00	4.588936e+01	-3.897758e+00	2.540110e+05	1.012579e+05	2.881552e+02	1.105550e-01	-9.463241e-02	0.000000e+00	
3.448276e-02	-2.373418e-01	1.231662e+00	4.548989e+01	-1.863253e+01	2.561524e+05	1.020685e+05	2.886893e+02	1.171758e-01	1.048316e+00	0.000000e+00	
0.000000e+00	-2.689873e-01	1.224144e+00	4.588935e+01	-3.897753e+00	2.540110e+05	1.012579e+05	2.881552e+02	1.105549e-01	-9.463251e-02	0.000000e+00	
3.448276e-02	-2.689873e-01	1.231662e+00	4.548988e+01	-1.863253e+01	2.561524e+05	1.020685e+05	2.886893e+02	1.171757e-01	1.048317e+00	0.000000e+00	
0.000000e+00	-3.006329e-01	1.224144e+00	4.588934e+01	-3.897748e+00	2.540110e+05	1.012579e+05	2.881552e+02	1.105549e-01	-9.463257e-02	0.000000e+00	
3.448276e-02	-3.006329e-01	1.231662e+00	4.548987e+01	-1.863252e+01	2.561524e+05	1.020685e+05	2.886893e+02	1.171757e-01	1.048317e+00	0.000000e+00	
0.000000e+00	-3.322785e-01	1.224144e+00	4.588933e+01	-3.897746e+00	2.540110e+05	1.012579e+05	2.881552e+02	1.105549e-01	-9.463260e-02	0.000000e+00	
3.448276e-02	-3.322785e-01	1.231662e+00	4.548986e+01	-1.863252e+01	2.561524e+05	1.020685e+05	2.886893e+02	1.171757e-01	1.048317e+00	0.000000e+00	
0.000000e+00	-3.639241e-01	1.224144e+00	4.588932e+01	-3.897744e+00	2.540110e+05	1.012579e+05	2.881552e+02	1.105549e-01	-9.463259e-02	0.000000e+00	
3.448276e-02	-3.639241e-01	1.231662e+00	4.548984e+01	-1.863252e+01	2.561524e+05	1.020685e+05	2.886893e+02	1.171756e-01	1.048317e+00	0.000000e+00	
0.000000e+00	-3.955696e-01	1.224144e+00	4.588931e+01	-3.897743e+00	2.540110e+05	1.012579e+05	2.881552e+02	1.105548e-01	-9.463258e-02	0.000000e+00	
3.448276e-02	-3.955696e-01	1.231662e+00	4.548983e+01	-1.863252e+01	2.561524e+05	1.020685e+05	2.886893e+02	1.171756e-01	1.048317e+00	0.000000e+00	
0.000000e+00	-4.272152e-01	1.224144e+00	4.588930e+01	-3.897743e+00	2.540110e+05	1.012579e+05	2.881552e+02	1.105548e-01	-9.463257e-02	0.000000e+00	
3.448276e-02	-4.272152e-01	1.231662e+00	4.548982e+01	-1.863252e+01	2.561524e+05	1.020685e+05	2.886893e+02	1.171756e-01	1.048317e+00	0.000000e+00	
0.000000e+00	-4.588608e-01	1.224144e+00	4.588929e+01	-3.897744e+00	2.540110e+05	1.012579e+05	2.881552e+02	1.105548e-01	-9.463257e-02	0.000000e+00	
3.448276e-02	-4.588608e-01	1.231662e+00	4.548981e+01	-1.863253e+01	2.561524e+05	1.020685e+05	2.886893e+02	1.171756e-01	1.048318e+00	0.000000e+00	
0.000000e+00	-4.905063e-01	1.224144e+00	4.588928e+01	-3.897745e+00	2.540110e+05	1.012579e+05	2.881552e+02	1.105548e-01	-9.463261e-02	0.000000e+00	
3.448276e-02	-4.905063e-01	1.231662e+00	4.548980e+01	-1.863253e+01	2.561524e+05	1.020685e+05	2.886893e+02	1.171756e-01	1.048318e+00	0.000000e+00	
0.000000e+00	-5.221519e-01	1.224144e+00	4.588927e+01	-3.897747e+00	2.540110e+05	1.012579e+05	2.881552e+02	1.105547e-01	-9.463270e-02	0.000000e+00	
3.448276e-02	-5.221519e-01	1.231662e+00	4.548979e+01	-1.863253e+01	2.561524e+05	1.020685e+05	2.886893e+02	1.171755e-01	1.048317e+00	0.000000e+00	
0.000000e+00	-5.537975e-01	1.224144e+00	4.588927e+01	-3.897749e+00	2.540110e+05	1.012579e+05	2.881552e+02	1.105547e-01	-9.463285e-02	0.000000e+00	
3.448276e-02	-5.537975e-01	1.231662e+00	4.548979e+01	-1.863253e+01	2.561524e+05	1.020685e+05	2.886893e+02	1.171755e-01	1.048317e+00	0.000000e+00	
0.000000e+00	-5.854430e-01	1.224144e+00	4.588926e+01	-3.897750e+00	2.540110e+05	1.012579e+05	2.881552e+02	1.105547e-01	-9.463308e-02	0.000000e+00	
3.448276e-02	-5.854430e-01	1.231662e+00	4.548978e+01	-1.863253e+01	2.561524e+05	1.020685e+05	2.886893e+02	1.171755e-01	1.048317e+00	0.000000e+00	
0.000000e+00	-6.170886e-01	1.224144e+00	4.588925e+01	-3.897751e+00	2.540110e+05	1.012579e+05	2.881552e+02	1.105547e-01	-9.463338e-02	0.000000e+00	
3.448276e-02	-6.170886e-01	1.231662e+00	4.548978e+01	-1.863254e+01	2.561523e+05	1.020685e+05	2.886893e+02	1.171755e-01	1.048317e+00	0.000000e+00	
0.000000e+00	-6.487342e-01	1.224144e+00	4.588925e+01	-3.897751e+00	2.540110e+05	1.012579e+05	2.881552e+02	1.105547e-01	-9.463379e-02	0.000000e+00	
3.448276e-02	-6.487342e-01	1.231662e+00	4.548977e+01	-1.863254e+01	2.561523e+05	1.020685e+05	2.886893e+02	1.171755e-01	1.048316e+00	0.000000e+00	
0.000000e+00	-6.803797e-01	1.224144e+00	4.588925e+01	-3.897750e+00	2.540110e+05	1.012579e+05	2.881552e+02	1.105547e-01	-9.463430e-02	0.000000e+00	
3.448276e-02	-6.803797e-01	1.231662e+00	4.548977e+01	-1.863254e+01	2.561523e+05	1.020685e+05	2.886893e+02	1.171755e-01	1.048316e+00	0.000000e+00	
0.000000e+00	-7.120253e-01	1.224144e+00	4.588925e+01	-3.897749e+00	2.540110e+05	1.012579e+05	2.881552e+02	1.105547e-01	-9.463496e-02	0.000000e+00	
3.448276e-02	-7.120253e-01	1.231662e+00	4.548978e+01	-1.863254e+01	2.561523e+05	1.020685e+05	2.886893e+02	1.171755e-01	1.048315e+00	0.000000e+00	
0.000000e+00	-7.436709e-01	1.224144e+00	4.588925e+01	-3.897748e+00	2.540110e+05	1.012579e+05	2.881552e+02	1.105547e-01	-9.463581e-02	0.000000e+00	
3.448276e-02	-7.436709e-01	1.231662e+00	4.548978e+01	-1.863254e+01	2.561523e+05	1.020685e+05	2.886893e+02	1.171755e-01	1.048314e+00	0.000000e+00	
0.000000e+00	-7.753165e-01	1.224144e+00	4.588925e+01	-3.897747e+00	2.540110e+05	1.012579e+05	2.881552e+02	1.105547e-01	-9.463691e-02	0.000000e+00	
3.448276e-02	-7.753165e-01	1.231662e+00	4.548978e+01	-1.863254e+01	2.561523e+05	1.020685e+05	2.886893e+02	1.171755e-01	1.048313e+00	0.000000e+00	
0.000000e+00	-8.069620e-01	1.224144e+00	4.588925e+01	-3.897745e+00	2.540110e+05	1.012579e+05	2.881552e+02	1.105547e-01	-9.463827e-02	0.000000e+00	
3.448276e-02	-8.069620e-01	1.231662e+00	4.548977e+01	-1.863254e+01	2.561523e+05	1.020685e+05	2.886893e+02	1.171755e-01	1.048311e+00	0.000000e+00	
0.000000e+00	-8.386076e-01	1.224144e+00	4.588923e+01	-3.897740e+00	2.540110e+05	1.012579e+05	2.881552e+02	1.105546e-01	-9.463985e-02	0.000000e+00	
3.448276e-02	-8.386076e-01	1.231662e+00	4.548976e+01	-1.863254e+01	2.561523e+05	1.020685e+05	2.886893e+02	1.171755e-01	1.048310e+00	0.000000e+00	
0.000000e+00	-8.702532e-01	1.224144e+00	4.588919e+01	-3.897730e+00	2.540110e+05	1.012579e+05	2.881552e+02	1.105546e-01	-9.464160e-02	0.000000e+00	
3.448276e-02	-8.702532e-01	1.231662e+00	4.548973e+01	-1.863253e+01	2.561523e+05	1.020685e+05	2.886893e+02	1.171754e-01	1.048308e+00	0.000000e+00	
0.000000e+00	-9.018987e-01	1.224144e+00	4.588915e+01	-3.897712e+00	2.540110e+05	1.012579e+05	2.881552e+02	1.105544e-01	-9.464332e-02	0.000000e+00	
3.448276e-02	-9.018987e-01	1.231662e+00	4.548969e+01	-1.863251e+01	2.561523e+05	1.020685e+05	2.886893e+02	1.171753e-01	1.048306e+00	0.000000e+00	
0.000000e+00	-9.335443e-01	1.224144e+00	4.588908e+01	-3.897684e+00	2.540110e+05	1.012579e+05	2.881552e+02	1.105543e-01	-9.464517e-02	0.000000e+00	
3.448276e-02	-9.335443e-01	1.231662e+00	4.548964e+01	-1.863249e+01	2.561523e+05	1.020685e+05	2.886893e+02	1.171752e-01	1.048305e+00	0.000000e+00	
0.000000e+00	-9.651899e-01	1.224144e+00	4.588900e+01	-3.897641e+00	2.540110e+05	1.012579e+05	2.881552e+02	1.105541e-01	-9.464639e-02	0.000000e+00	
3.448276e-02	-9.651899e-01	1.231662e+00	4.548957e+01	-1.863244e+01	2.561523e+05	1.020685e+05	2.886893e+02	1.171750e-01	1.048304e+00	0.000000e+00	
0.000000e+00	-9.968354e-01	1.224144e+00	4.588889e+01	-3.897578e+00	2.540110e+05	1.012579e+05	2.881552e+02	1.105538e-01	-9.464713e-02	0.000000e+00	
3.448276e-02	-9.968354e-01	1.231662e+00	4.548948e+01	-1.863237e+01	2.561523e+05	1.020685e+05	2.886893e+02	1.171747e-01	1.048303e+00	0.000000e+00	
0.000000e+00	-1.028481e+00	1.224144e+00	4.588881e+01	-3.897494e+00	2.540110e+05	1.012579e+05	2.881552e+02	1.105536e-01	-9.464324e-02	0.000000e+00	
3.448276e-02	-1.028481e+00	1.231662e+00	4.548941e+01	-1.863227e+01	2.561523e+05	1.020685e+05	2.886893e+02	1.171745e-01	1.048308e+00	0.000000e+00	
0.000000e+00	-1.060127e+00	1.224144e+00	4.588891e+01	-3.897387e+00	2.540110e+05	1.012579e+05	2.881552e+02	1.105538e-01	-9.463769e-02	0.000000e+00	
3.448276e-02	-1.060127e+00	1.231662e+00	4.548947e+01	-1.863213e+01	2.561523e+05	1.020685e+05	2.886893e+02	1.171745e-01	1.048309e+00	0.000000e+00	
0.000000e+00	-1.091772e+00	1.224144e+00	4.588943e+01	-3.897326e+00	2.540110e+05	1.012579e+05	2.881552e+02	1.105550e-01	-9.462424e-02	0.000000e+00	
3.448276e-02	-1.091772e+00	1.231662e+00	4.548982e+01	-1.863204e+01	2.561524e+05	1.020686e+05	2.886893e+02	1.171751e-01	1.048324e+00	0.000000e+00	
0.000000e+00	-1.123418e+00	1.224144e+00	4.589062e+01	-3.897445e+00	2.540111e+05	1.012579e+05	2.881552e+02	1.105579e-01	-9.464652e-02	0.000000e+00	
3.448276e-02	-1.123418e+00	1.231662e+00	4.549042e+01	-1.863199e+01	2.561523e+05	1.020685e+05	2.886893e+02	1.171764e-01	1.048303e+00	0.000000e+00	
0.000000e+00	-1.155063e+00	1.224144e+00	4.589203e+01	-3.898496e+00	2.540110e+05	1.012578e+05	2.881552e+02	1.105615e-01	-9.468409e-02	0.000000e+00	
3.448276e-02	-1.155063e+00	1.231662e+00	4.549053e+01	-1.863246e+01	2.561524e+05	1.020686e+05	2.886893e+02	1.171771e-01	1.048330e+00	0.000000e+00	
0.000000e+00	-1.186709e+00	1.224141e+00	4.589261e+01	-3.901307e+00	2.540106e+05	1.012576e+05	2.881554e+02	1.105637e-01	-9.496331e-02	0.000000e+00	
3.448276e-02	-1.186709e+00	1.231661e+00	4.548904e+01	-1.863313e+01	2.561521e+05	1.020685e+05	2.886894e+02	1.171745e-01	1.048208e+00	0.000000e+00	
0.000000e+00	-1.218354e+00	1.224130e+00	4.588940e+01	-3.906887e+00	2.540088e+05	1.012570e+05	2.881559e+02	1.105581e-01	-9.592006e-02	0.000000e+00	
3.448276e-02	-1.218354e+00	1.231664e+00	4.548644e+01	-1.863590e+01	2.561529e+05	1.020688e+05	2.886895e+02	1.171709e-01	1.048695e+00	0.000000e+00	
6.896552e-02	1.218354e+00	1.233973e+00	4.569029e+01	-2.979148e+01	2.571125e+05	1.023628e+05	2.889794e+02	1.297076e-01	1.463180e+00	0.000000e+00	
6.896552e-02	1.250000e+00	1.233983e+00	4.568727e+01	-2.978783e+01	2.571143e+05	1.023636e+05	2.889794e+02	1.296958e-01	1.464334e+00	0.000000e+00	
6.896552e-02	1.186709e+00	1.233974e+00	4.569232e+01	-2.979206e+01	2.571129e+05	1.023629e+05	2.889795e+02	1.297122e-01	1.463369e+00	0.000000e+00	
6.896552e-02	1.155063e+00	1.233973e+00	4.569324e+01	-2.979308e+01	2.571127e+05	1.023628e+05	2.889794e+02	1.297155e-01	1.463229e+00	0.000000e+00	
6.896552e-02	1.123418e+00	1.233973e+00	4.569333e+01	-2.979354e+01	2.571127e+05	1.023628e+05	2.889794e+02	1.297163e-01	1.463192e+00	0.000000e+00	
6.896552e-02	1.091772e+00	1.233973e+00	4.569301e+01	-2.979375e+01	2.571126e+05	1.023628e+05	2.889793e+02	1.297160e-01	1.463150e+00	0.000000e+00	
6.896552e-02	1.060127e+00	1.233973e+00	4.569259e+01	-2.979373e+01	2.571126e+05	1.023628e+05	2.889793e+02	1.297151e-01	1.463137e+00	0.000000e+00	
6.896552e-02	1.028481e+00	1.233973e+00	4.569227e+01	-2.979365e+01	2.571125e+05	1.023628e+05	2.889793e+02	1.297144e-01	1.463130e+00	0.000000e+00	
6.896552e-02	9.968354e-01	1.233973e+00	4.569210e+01	-2.979357e+01	2.571125e+05	1.023628e+05	2.889794e+02	1.297140e-01	1.463132e+00	0.000000e+00	
6.896552e-02	9.651899e-01	1.233973e+00	4.569203e+01	-2.979354e+01	2.571125e+05	1.023628e+05	2.889794e+02	1.297138e-01	1.463135e+00	0.000000e+00	
6.896552e-02	9.335443e-01	1.233973e+00	4.569203e+01	-2.979353e+01	2.571125e+05	1.023628e+05	2.889794e+02	1.297138e-01	1.463140e+00	0.000000e+00	
6.896552e-02	9.018987e-01	1.233973e+00	4.569205e+01	-2.979354e+01	2.571126e+05	1.023628e+05	2.889794e+02	1.297138e-01	1.463144e+00	0.000000e+00	
6.896552e-02	8.702532e-01	1.233973e+00	4.569208e+01	-2.979356e+01	2.571126e+05	1.023628e+05	2.889794e+02	1.297139e-01	1.463148e+00	0.000000e+00	
6.896552e-02	8.386076e-01	1.233973e+00	4.569210e+01	-2.979358e+01	2.571126e+05	1.023628e+05	2.889794e+02	1.297140e-01	1.463152e+00	0.000000e+00	
6.896552e-02	8.069620e-01	1.233973e+00	4.569212e+01	-2.979360e+01	2.571126e+05	1.023628e+05	2.889794e+02	1.297140e-01	1.463155e+00	0.000000e+00	
6.896552e-02	7.753165e-01	1.233973e+00	4.569213e+01	-2.979362e+01	2.571126e+05	1.023628e+05	2.889794e+02	1.297141e-01	1.463159e+00	0.000000e+00	
6.896552e-02	7.436709e-01	1.233973e+00	4.569213e+01	-2.979363e+01	2.571126e+05	1.023628e+05	2.889794e+02	1.297141e-01	1.463161e+00	0.000000e+00	
6.896552e-02	7.120253e-01	1.233973e+00	4.569214e+01	-2.979364e+01	2.571126e+05	1.023628e+05	2.889794e+02	1.297141e-01	1.463164e+00	0.000000e+00	
6.896552e-02	6.803797e-01	1.233973e+00	4.569215e+01	-2.979365e+01	2.571126e+05	1.023628e+05	2.889794e+02	1.297141e-01	1.463166e+00	0.000000e+00	
6.896552e-02	6.487342e-01	1.233973e+00	4.569216e+01	-2.979366e+01	2.571126e+05	1.023628e+05	2.889794e+02	1.297142e-01	1.463168e+00	0.000000e+00	
6.896552e-02	6.170886e-01	1.233973e+00	4.569218e+01	-2.979366e+01	2.571126e+05	1.023628e+05	2.889794e+02	1.297142e-01	1.463170e+00	0.000000e+00	
6.896552e-02	5.854430e-01	1.233973e+00	4.569220e+01	-2.979367e+01	2.571126e+05	1.023628e+05	2.889794e+02	1.297143e-01	1.463172e+00	0.000000e+00	
6.896552e-02	5.537975e-01	1.233973e+00	4.569222e+01	-2.979367e+01	2.571126e+05	1.023628e+05	2.889794e+02	1.297143e-01	1.463173e+00	0.000000e+00	
6.896552e-02	5.221519e-01	1.233973e+00	4.569224e+01	-2.979367e+01	2.571126e+05	1.023628e+05	2.889794e+02	1.297143e-01	1.463175e+00	0.000000e+00	
6.896552e-02	4.905063e-01	1.233973e+00	4.569227e+01	-2.979367e+01	2.571126e+05	1.023628e+05	2.889794e+02	1.297144e-01	1.463176e+00	0.000000e+00	
6.896552e-02	4.588608e-01	1.233973e+00	4.569229e+01	-2.979367e+01	2.571126e+05	1.023628e+05	2.889794e+02	1.297144e-01	1.463177e+00	0.000000e+00	
6.896552e-02	4.272152e-01	1.233973e+00	4.569231e+01	-2.979366e+01	2.571126e+05	1.023628e+05	2.889794e+02	1.297145e-01	1.463177e+00	0.000000e+00	
6.896552e-02	3.955696e-01	1.233973e+00	4.569234e+01	-2.979366e+01	2.571126e+05	1.023628e+05	2.889794e+02	1.297145e-01	1.463178e+00	0.000000e+00	
6.896552e-02	3.639241e-01	1.233973e+00	4.569236e+01	-2.979365e+01	2.571126e+05	1.023628e+05	2.889794e+02	1.297145e-01	1.463178e+00	0.000000e+00	
6.896552e-02	3.322785e-01	1.233973e+00	4.569238e+01	-2.979364e+01	2.571126e+05	1.023628e+05	2.889794e+02	1.297146e-01	1.463179e+00	0.000000e+00	
6.896552e-02	3.006329e-01	1.233973e+00	4.569240e+01	-2.979363e+01	2.571126e+05	1.023628e+05	2.889794e+02	1.297146e-01	1.463179e+00	0.000000e+00	
6.896552e-02	2.689873e-01	1.233973e+00	4.569242e+01	-2.979362e+01	2.571126e+05	1.023628e+05	2.889794e+02	1.297146e-01	1.463179e+00	0.000000e+00	
6.896552e-02	2.373418e-01	1.233973e+00	4.569243e+01	-2.979361e+01	2.571126e+05	1.023628e+05	2.889794e+02	1.297146e-01	1.463179e+00	0.000000e+00	
6.896552e-02	2.056962e-01	1.233973e+00	4.569244e+01	-2.979360e+01	2.571126e+05	1.023628e+05	2.889794e+02	1.297147e-01	1.463179e+00	0.000000e+00	
6.896552e-02	1.740506e-01	1.233973e+00	4.569246e+01	-2.979359e+01	2.571126e+05	1.023628e+05	2.889794e+02	1.297147e-01	1.463179e+00	0.000000e+00	
6.896552e-02	1.424051e-01	1.233973e+00	4.569246e+01	-2.979358e+01	2.571126e+05	1.023628e+05	2.889794e+02	1.297147e-01	1.463179e+00	0.000000e+00	
6.896552e-02	1.107595e-01	1.233973e+00	4.569247e+01	-2.979357e+01	2.571126e+05	1.023628e+05	2.889794e+02	1.297147e-01	1.463179e+00	0.000000e+00	
6.896552e-02	7.911392e-02	1.233973e+00	4.569247e+01	-2.979356e+01	2.571126e+05	1.023628e+05	2.889794e+02	1.297146e-01	1.463180e+00	0.000000e+00	
6.896552e-02	4.746835e-02	1.233973e+00	4.569247e+01	-2.979355e+01	2.571126e+05	1.023628e+05	2.889794e+02	1.297146e-01	1.463180e+00	0.000000e+00	
6.896552e-02	1.582278e-02	1.233973e+00	4.569247e+01	-2.979354e+01	2.571126e+05	1.023628e+05	2.889794e+02	1.297146e-01	1.463180e+00	0.000000e+00	
6.896552e-02	-1.582278e-02	1.233973e+00	4.569247e+01	-2.979353e+01	2.571126e+05	1.023628e+05	2.889794e+02	1.297146e-01	1.463180e+00	0.000000e+00	
6.896552e-02	-4.746835e-02	1.233973e+00	4.569246e+01	-2.979352e+01	2.571126e+05	1.023628e+05	2.889794e+02	1.297146e-01	1.463180e+00	0.000000e+00	
6.896552e-02	-7.911392e-02	1.233973e+00	4.569245e+01	-2.979351e+01	2.571126e+05	1.023628e+05	2.889794e+02	1.297146e-01	1.463180e+00	0.000000e+00	
6.896552e-02	-1.107595e-01	1.233973e+00	4.569244e+01	-2.979351e+01	2.571126e+05	1.023628e+05	2.889794e+02	1.297145e-01	1.463181e+00	0.000000e+00	
6.896552e-02	-1.424051e-01	1.233973e+00	4.569243e+01	-2.979350e+01	2.571126e+05	1.023628e+05	2.889794e+02	1.297145e-01	1.463181e+00	0.000000e+00	