TITLE = "SU2 Simulation"
VARIABLES = "Iteration","CL","CD","CSF","CMx","CMy","CMz","CFx","CFy","CFz","CL/CD","AoA","Custom_ObjFunc","Res_Flow[0]","Res_Flow[1]","Res_Flow[2]","Res_Flow[3]","Res_Flow[4]","Linear_Solver_Iterations","CFL_Number","Time(min)"
ZONE T= "Convergence history"
           0, 0.00000000e+00, 0.00000000e+00, 0.00000000e+00, 0.00000000e+00, 0.00000000e+00, 0.00000000e+00, 0.00000000e+00, 0.00000000e+00, 0.00000000e+00, 0.00000000e+00, 0.00000000e+00, 0.00000000e+00, -1.69290458e+00, 7.96287628e-01, -1.26119551e+01, 3.75374817e+00, 0.00000000e+00, 5.0000000000, 5.0000000000, 0.0012575000
           1, 0.00000000e+00, 0.00000000e+00, 0.00000000e+00, 0.00000000e+00, 0.00000000e+00, 0.00000000e+00, 0.00000000e+00, 0.00000000e+00, 0.00000000e+00, 0.00000000e+00, 0.00000000e+00, 0.00000000e+00, -1.87570444e+00, 6.07687169e-01, -1.50316971e+00, 3.57181995e+00, 0.00000000e+00, 5.0000000000, 5.0000000000, 0.0024613500
           2, 0.00000000e+00, 0.00000000e+00, 0.00000000e+00, 0.00000000e+00, 0.00000000e+00, 0.00000000e+00, 0.00000000e+00, 0.00000000e+00, 0.00000000e+00, 0.00000000e+00, 0.00000000e+00, 0.00000000e+00, -1.86963016e+00, 6.59210780e-01, -4.79916915e-01, 3.59285524e+00, 0.00000000e+00, 5.0000000000, 5.0000000000, 0.0036427167
           3, 0.00000000e+00, 0.00000000e+00, 0.00000000e+00, 0.00000000e+00, 0.00000000e+00, 0.00000000e+00, 0.00000000e+00, 0.00000000e+00, 0.00000000e+00, 0.00000000e+00, 0.00000000e+00, 0.00000000e+00, -1.78109375e+00, 7.70516665e-01, -1.76438020e-01, 3.68991735e+00, 0.00000000e+00, 5.0000000000, 5.0000000000, 0.0047997000
           4, 0.00000000e+00, 0.00000000e+00, 0.00000000e+00, 0.00000000e+00, 0.00000000e+00, 0.00000000e+00, 0.00000000e+00, 0.00000000e+00, 0.00000000e+00, 0.00000000e+00, 0.00000000e+00, 0.00000000e+00, -1.73232974e+00, 8.26024598e-01, 1.04056385e-03, 3.74217174e+00, 0.00000000e+00, 5.0000000000, 5.0000000000, 0.0059387333
           5, 0.00000000e+00, 0.00000000e+00, 0.00000000e+00, 0.00000000e+00, 0.00000000e+00, 0.00000000e+00, 0.00000000e+00, 0.00000000e+00, 0.00000000e+00, 0.00000000e+00, 0.00000000e+00, 0.00000000e+00, -1.71077921e+00, 8.51721144e-01, 1.24691405e-01, 3.76600895e+00, 0.00000000e+00, 5.0000000000, 5.0000000000, 0.0070683333
           6, 0.00000000e+00, 0.00000000e+00, 0.00000000e+00, 0.00000000e+00, 0.00000000e+00, 0.00000000e+00, 0.00000000e+00, 0.00000000e+00, 0.00000000e+00, 0.00000000e+00, 0.00000000e+00, 0.00000000e+00, -1.70170580e+00, 8.64332100e-01, 2.17803844e-01, 3.77678722e+00, 0.00000000e+00, 5.0000000000, 5.0000000000, 0.0081782000
           7, 0.00000000e+00, 0.00000000e+00, 0.00000000e+00, 0.00000000e+00, 0.00000000e+00, 0.00000000e+00, 0.00000000e+00, 0.00000000e+00, 0.00000000e+00, 0.00000000e+00, 0.00000000e+00, 0.00000000e+00, -1.69736526e+00, 8.71384484e-01, 2.91068835e-01, 3.78236731e+00, 0.00000000e+00, 5.0000000000, 5.0000000000, 0.0093115000
           8, 0.00000000e+00, 0.00000000e+00, 0.00000000e+00, 0.00000000e+00, 0.00000000e+00, 0.00000000e+00, 0.00000000e+00, 0.00000000e+00, 0.00000000e+00, 0.00000000e+00, 0.00000000e+00, 0.00000000e+00, -1.69464718e+00, 8.75865911e-01, 3.50337409e-01, 3.78596657e+00, 0.00000000e+00, 5.0000000000, 5.0000000000, 0.0104310000
           9, 0.00000000e+00, 0.00000000e+00, 0.00000000e+00, 0.00000000e+00, 0.00000000e+00, 0.00000000e+00, 0.00000000e+00, 0.00000000e+00, 0.00000000e+00, 0.00000000e+00, 0.00000000e+00, 0.00000000e+00, -1.69266726e+00, 8.78909449e-01, 3.99166386e-01, 3.78858911e+00, 0.00000000e+00, 5.0000000000, 5.0000000000, 0.0115903000
          10, 0.00000000e+00, 0.00000000e+00, 0.00000000e+00, 0.00000000e+00, 0.00000000e+00, 0.00000000e+00, 0.00000000e+00, 0.00000000e+00, 0.00000000e+00, 0.00000000e+00, 0.00000000e+00, 0.00000000e+00, -1.69130141e+00, 8.80960814e-01, 4.39932018e-01, 3.79045198e+00, 0.00000000e+00, 5.0000000000, 5.0000000000, 0.0127097833
          11, 0.00000000e+00, 0.00000000e+00, 0.00000000e+00, 0.00000000e+00, 0.00000000e+00, 0.00000000e+00, 0.00000000e+00, 0.00000000e+00, 0.00000000e+00, 0.00000000e+00, 0.00000000e+00, 0.00000000e+00, -1.69057211e+00, 8.82189963e-01, 4.74313311e-01, 3.79158573e+00, 0.00000000e+00, 5.0000000000, 5.0000000000, 0.0138199667
          12, 0.00000000e+00, 0.00000000e+00, 0.00000000e+00, 0.00000000e+00, 0.00000000e+00, 0.00000000e+00, 0.00000000e+00, 0.00000000e+00, 0.00000000e+00, 0.00000000e+00, 0.00000000e+00, 0.00000000e+00, -1.69047224e+00, 8.82650264e-01, 5.03513322e-01, 3.79202104e+00, 0.00000000e+00, 5.0000000000, 5.0000000000, 0.0149404667
          13, 0.00000000e+00, 0.00000000e+00, 0.00000000e+00, 0.00000000e+00, 0.00000000e+00, 0.00000000e+00, 0.00000000e+00, 0.00000000e+00, 0.00000000e+00, 0.00000000e+00, 0.00000000e+00, 0.00000000e+00, -1.69093371e+00, 8.82347272e-01, 5.28429588e-01, 3.79183236e+00, 0.00000000e+00, 5.0000000000, 5.0000000000, 0.0160360333
          14, 0.00000000e+00, 0.00000000e+00, 0.00000000e+00, 0.00000000e+00, 0.00000000e+00, 0.00000000e+00, 0.00000000e+00, 0.00000000e+00, 0.00000000e+00, 0.00000000e+00, 0.00000000e+00, 0.00000000e+00, -1.69181624e+00, 8.81247688e-01, 5.49746486e-01, 3.79115515e+00, 0.00000000e+00, 5.0000000000, 5.0000000000, 0.0171165000
          15, 0.00000000e+00, 0.00000000e+00, 0.00000000e+00, 0.00000000e+00, 0.00000000e+00, 0.00000000e+00, 0.00000000e+00, 0.00000000e+00, 0.00000000e+00, 0.00000000e+00, 0.00000000e+00, 0.00000000e+00, -1.69288599e+00, 8.79249699e-01, 5.68002292e-01, 3.79020800e+00, 0.00000000e+00, 5.0000000000, 5.0000000000, 0.0182378833
          16, 0.00000000e+00, 0.00000000e+00, 0.00000000e+00, 0.00000000e+00, 0.00000000e+00, 0.00000000e+00, 0.00000000e+00, 0.00000000e+00, 0.00000000e+00, 0.00000000e+00, 0.00000000e+00, 0.00000000e+00, -1.69378879e+00, 8.76143581e-01, 5.83614187e-01, 3.78931822e+00, 0.00000000e+00, 5.0000000000, 5.0000000000, 0.0193518833
          17, 0.00000000e+00, 0.00000000e+00, 0.00000000e+00, 0.00000000e+00, 0.00000000e+00, 0.00000000e+00, 0.00000000e+00, 0.00000000e+00, 0.00000000e+00, 0.00000000e+00, 0.00000000e+00, 0.00000000e+00, -1.69403762e+00, 8.71588586e-01, 5.96903950e-01, 3.78893571e+00, 0.00000000e+00, 5.0000000000, 5.0000000000, 0.0204882167
          18, 0.00000000e+00, 0.00000000e+00, 0.00000000e+00, 0.00000000e+00, 0.00000000e+00, 0.00000000e+00, 0.00000000e+00, 0.00000000e+00, 0.00000000e+00, 0.00000000e+00, 0.00000000e+00, 0.00000000e+00, -1.69304509e+00, 8.65125312e-01, 6.08121690e-01, 3.78960851e+00, 0.00000000e+00, 5.0000000000, 5.0000000000, 0.0216790000
          19, 0.00000000e+00, 0.00000000e+00, 0.00000000e+00, 0.00000000e+00, 0.00000000e+00, 0.00000000e+00, 0.00000000e+00, 0.00000000e+00, 0.00000000e+00, 0.00000000e+00, 0.00000000e+00, 0.00000000e+00, -1.69022861e+00, 8.56237289e-01, 6.17463708e-01, 3.79189361e+00, 0.00000000e+00, 5.0000000000, 5.0000000000, 0.0228645333
          20, 0.00000000e+00, 0.00000000e+00, 0.00000000e+00, 0.00000000e+00, 0.00000000e+00, 0.00000000e+00, 0.00000000e+00, 0.00000000e+00, 0.00000000e+00, 0.00000000e+00, 0.00000000e+00, 0.00000000e+00, -1.68518620e+00, 8.44470827e-01, 6.25083064e-01, 3.79620160e+00, 0.00000000e+00, 5.0000000000, 5.0000000000, 0.0240281833
          21, 0.00000000e+00, 0.00000000e+00, 0.00000000e+00, 0.00000000e+00, 0.00000000e+00, 0.00000000e+00, 0.00000000e+00, 0.00000000e+00, 0.00000000e+00, 0.00000000e+00, 0.00000000e+00, 0.00000000e+00, -1.67788573e+00, 8.29618161e-01, 6.31104821e-01, 3.80262053e+00, 0.00000000e+00, 5.0000000000, 5.0000000000, 0.0251465000
          22, 0.00000000e+00, 0.00000000e+00, 0.00000000e+00, 0.00000000e+00, 0.00000000e+00, 0.00000000e+00, 0.00000000e+00, 0.00000000e+00, 0.00000000e+00, 0.00000000e+00, 0.00000000e+00, 0.00000000e+00, -1.66877173e+00, 8.11963247e-01, 6.35636144e-01, 3.81080371e+00, 0.00000000e+00, 5.0000000000, 5.0000000000, 0.0262615000
          23, 0.00000000e+00, 0.00000000e+00, 0.00000000e+00, 0.00000000e+00, 0.00000000e+00, 0.00000000e+00, 0.00000000e+00, 0.00000000e+00, 0.00000000e+00, 0.00000000e+00, 0.00000000e+00, 0.00000000e+00, -1.65871777e+00, 7.92567931e-01, 6.38771357e-01, 3.81999243e+00, 0.00000000e+00, 5.0000000000, 5.0000000000, 0.0273761333
          24, 0.00000000e+00, 0.00000000e+00, 0.00000000e+00, 0.00000000e+00, 0.00000000e+00, 0.00000000e+00, 0.00000000e+00, 0.00000000e+00, 0.00000000e+00, 0.00000000e+00, 0.00000000e+00, 0.00000000e+00, -1.64883707e+00, 7.73507018e-01, 6.40611221e-01, 3.82917453e+00, 0.00000000e+00, 5.0000000000, 5.0000000000, 0.0286042000
          25, 0.00000000e+00, 0.00000000e+00, 0.00000000e+00, 0.00000000e+00, 0.00000000e+00, 0.00000000e+00, 0.00000000e+00, 0.00000000e+00, 0.00000000e+00, 0.00000000e+00, 0.00000000e+00, 0.00000000e+00, -1.64023768e+00, 7.57824228e-01, 6.41261392e-01, 3.83730837e+00, 0.00000000e+00, 5.0000000000, 5.0000000000, 0.0299403333
          26, 0.00000000e+00, 0.00000000e+00, 0.00000000e+00, 0.00000000e+00, 0.00000000e+00, 0.00000000e+00, 0.00000000e+00, 0.00000000e+00, 0.00000000e+00, 0.00000000e+00, 0.00000000e+00, 0.00000000e+00, -1.63381688e+00, 7.48885413e-01, 6.40834147e-01, 3.84352344e+00, 0.00000000e+00, 5.0000000000, 5.0000000000, 0.0310824333
          27, 0.00000000e+00, 0.00000000e+00, 0.00000000e+00, 0.00000000e+00, 0.00000000e+00, 0.00000000e+00, 0.00000000e+00, 0.00000000e+00, 0.00000000e+00, 0.00000000e+00, 0.00000000e+00, 0.00000000e+00, -1.63014473e+00, 7.49088449e-01, 6.39448844e-01, 3.84724348e+00, 0.00000000e+00, 5.0000000000, 5.0000000000, 0.0322188667
          28, 0.00000000e+00, 0.00000000e+00, 0.00000000e+00, 0.00000000e+00, 0.00000000e+00, 0.00000000e+00, 0.00000000e+00, 0.00000000e+00, 0.00000000e+00, 0.00000000e+00, 0.00000000e+00, 0.00000000e+00, -1.62943977e+00, 7.58661979e-01, 6.37230587e-01, 3.84822170e+00, 0.00000000e+00, 5.0000000000, 5.0000000000, 0.0333214167
          29, 0.00000000e+00, 0.00000000e+00, 0.00000000e+00, 0.00000000e+00, 0.00000000e+00, 0.00000000e+00, 0.00000000e+00, 0.00000000e+00, 0.00000000e+00, 0.00000000e+00, 0.00000000e+00, 0.00000000e+00, -1.63161614e+00, 7.75605699e-01, 6.34307840e-01, 3.84650398e+00, 0.00000000e+00, 5.0000000000, 5.0000000000, 0.0344513833
          30, 0.00000000e+00, 0.00000000e+00, 0.00000000e+00, 0.00000000e+00, 0.00000000e+00, 0.00000000e+00, 0.00000000e+00, 0.00000000e+00, 0.00000000e+00, 0.00000000e+00, 0.00000000e+00, 0.00000000e+00, -1.63637547e+00, 7.96819203e-01, 6.30809594e-01, 3.84234562e+00, 0.00000000e+00, 5.0000000000, 5.0000000000, 0.0356034000
          31, 0.00000000e+00, 0.00000000e+00, 0.00000000e+00, 0.00000000e+00, 0.00000000e+00, 0.00000000e+00, 0.00000000e+00, 0.00000000e+00, 0.00000000e+00, 0.00000000e+00, 0.00000000e+00, 0.00000000e+00, -1.64332009e+00, 8.19395431e-01, 6.26862165e-01, 3.83610517e+00, 0.00000000e+00, 5.0000000000, 5.0000000000, 0.0367526667
          32, 0.00000000e+00, 0.00000000e+00, 0.00000000e+00, 0.00000000e+00, 0.00000000e+00, 0.00000000e+00, 0.00000000e+00, 0.00000000e+00, 0.00000000e+00, 0.00000000e+00, 0.00000000e+00, 0.00000000e+00, -1.65206210e+00, 8.41294143e-01, 6.22586575e-01, 3.82814118e+00, 0.00000000e+00, 5.0000000000, 5.0000000000, 0.0378799333
          33, 0.00000000e+00, 0.00000000e+00, 0.00000000e+00, 0.00000000e+00, 0.00000000e+00, 0.00000000e+00, 0.00000000e+00, 0.00000000e+00, 0.00000000e+00, 0.00000000e+00, 0.00000000e+00, 0.00000000e+00, -1.66230415e+00, 8.61396777e-01, 6.18096082e-01, 3.81873559e+00, 0.00000000e+00, 5.0000000000, 5.0000000000, 0.0390289167
          34, 0.00000000e+00, 0.00000000e+00, 0.00000000e+00, 0.00000000e+00, 0.00000000e+00, 0.00000000e+00, 0.00000000e+00, 0.00000000e+00, 0.00000000e+00, 0.00000000e+00, 0.00000000e+00, 0.00000000e+00, -1.67387480e+00, 8.79272063e-01, 6.13492827e-01, 3.80805952e+00, 0.00000000e+00, 5.0000000000, 5.0000000000, 0.0401561000
          35, 0.00000000e+00, 0.00000000e+00, 0.00000000e+00, 0.00000000e+00, 0.00000000e+00, 0.00000000e+00, 0.00000000e+00, 0.00000000e+00, 0.00000000e+00, 0.00000000e+00, 0.00000000e+00, 0.00000000e+00, -1.68671720e+00, 8.94899051e-01, 6.08863476e-01, 3.79618251e+00, 0.00000000e+00, 5.0000000000, 5.0000000000, 0.0413240167
          36, 0.00000000e+00, 0.00000000e+00, 0.00000000e+00, 0.00000000e+00, 0.00000000e+00, 0.00000000e+00, 0.00000000e+00, 0.00000000e+00, 0.00000000e+00, 0.00000000e+00, 0.00000000e+00, 0.00000000e+00, -1.70084625e+00, 9.08449827e-01, 6.04285056e-01, 3.78311031e+00, 0.00000000e+00, 5.0000000000, 5.0000000000, 0.0424168500
          37, 0.00000000e+00, 0.00000000e+00, 0.00000000e+00, 0.00000000e+00, 0.00000000e+00, 0.00000000e+00, 0.00000000e+00, 0.00000000e+00, 0.00000000e+00, 0.00000000e+00, 0.00000000e+00, 0.00000000e+00, -1.71629959e+00, 9.20151783e-01, 5.99810780e-01, 3.76882720e+00, 0.00000000e+00, 5.0000000000, 5.0000000000, 0.0435039500
          38, 0.00000000e+00, 0.00000000e+00, 0.00000000e+00, 0.00000000e+00, 0.00000000e+00, 0.00000000e+00, 0.00000000e+00, 0.00000000e+00, 0.00000000e+00, 0.00000000e+00, 0.00000000e+00, 0.00000000e+00, -1.73310433e+00, 9.30217278e-01, 5.95475514e-01, 3.75332254e+00, 0.00000000e+00, 5.0000000000, 5.0000000000, 0.0446454000
          39, 0.00000000e+00, 0.00000000e+00, 0.00000000e+00, 0.00000000e+00, 0.00000000e+00, 0.00000000e+00, 0.00000000e+00, 0.00000000e+00, 0.00000000e+00, 0.00000000e+00, 0.00000000e+00, 0.00000000e+00, -1.75126949e+00, 9.38818432e-01, 5.91302030e-01, 3.73659254e+00, 0.00000000e+00, 5.0000000000, 5.0000000000, 0.0457884667
          40, 0.00000000e+00, 0.00000000e+00, 0.00000000e+00, 0.00000000e+00, 0.00000000e+00, 0.00000000e+00, 0.00000000e+00, 0.00000000e+00, 0.00000000e+00, 0.00000000e+00, 0.00000000e+00, 0.00000000e+00, -1.77079882e+00, 9.46084668e-01, 5.87292997e-01, 3.71862299e+00, 0.00000000e+00, 5.0000000000, 5.0000000000, 0.0469448167
          41, 0.00000000e+00, 0.00000000e+00, 0.00000000e+00, 0.00000000e+00, 0.00000000e+00, 0.00000000e+00, 0.00000000e+00, 0.00000000e+00, 0.00000000e+00, 0.00000000e+00, 0.00000000e+00, 0.00000000e+00, -1.79170488e+00, 9.52105371e-01, 5.83435983e-01, 3.69937154e+00, 0.00000000e+00, 5.0000000000, 5.0000000000, 0.0481299500
          42, 0.00000000e+00, 0.00000000e+00, 0.00000000e+00, 0.00000000e+00, 0.00000000e+00, 0.00000000e+00, 0.00000000e+00, 0.00000000e+00, 0.00000000e+00, 0.00000000e+00, 0.00000000e+00, 0.00000000e+00, -1.81399821e+00, 9.56927739e-01, 5.79707651e-01, 3.67877389e+00, 0.00000000e+00, 5.0000000000, 5.0000000000, 0.0492766833
          43, 0.00000000e+00, 0.00000000e+00, 0.00000000e+00, 0.00000000e+00, 0.00000000e+00, 0.00000000e+00, 0.00000000e+00, 0.00000000e+00, 0.00000000e+00, 0.00000000e+00, 0.00000000e+00, 0.00000000e+00, -1.83762266e+00, 9.60547944e-01, 5.76077978e-01, 3.65679918e+00, 0.00000000e+00, 5.0000000000, 5.0000000000, 0.0503961333
          44, 0.00000000e+00, 0.00000000e+00, 0.00000000e+00, 0.00000000e+00, 0.00000000e+00, 0.00000000e+00, 0.00000000e+00, 0.00000000e+00, 0.00000000e+00, 0.00000000e+00, 0.00000000e+00, 0.00000000e+00, -1.86231627e+00, 9.62899418e-01, 5.72513769e-01, 3.63357041e+00, 0.00000000e+00, 5.0000000000, 5.0000000000, 0.0515152500
          45, 0.00000000e+00, 0.00000000e+00, 0.00000000e+00, 0.00000000e+00, 0.00000000e+00, 0.00000000e+00, 0.00000000e+00, 0.00000000e+00, 0.00000000e+00, 0.00000000e+00, 0.00000000e+00, 0.00000000e+00, -1.88738690e+00, 9.63844399e-01, 5.68982703e-01, 3.60955955e+00, 0.00000000e+00, 5.0000000000, 5.0000000000, 0.0526181000
          46, 0.00000000e+00, 0.00000000e+00, 0.00000000e+00, 0.00000000e+00, 0.00000000e+00, 0.00000000e+00, 0.00000000e+00, 0.00000000e+00, 0.00000000e+00, 0.00000000e+00, 0.00000000e+00, 0.00000000e+00, -1.91142770e+00, 9.63173335e-01, 5.65456922e-01, 3.58584215e+00, 0.00000000e+00, 5.0000000000, 5.0000000000, 0.0537482167
          47, 0.00000000e+00, 0.00000000e+00, 0.00000000e+00, 0.00000000e+00, 0.00000000e+00, 0.00000000e+00, 0.00000000e+00, 0.00000000e+00, 0.00000000e+00, 0.00000000e+00, 0.00000000e+00, 0.00000000e+00, -1.93208282e+00, 9.60613277e-01, 5.61914701e-01, 3.56434054e+00, 0.00000000e+00, 5.0000000000, 5.0000000000, 0.0548901500
          48, 0.00000000e+00, 0.00000000e+00, 0.00000000e+00, 0.00000000e+00, 0.00000000e+00, 0.00000000e+00, 0.00000000e+00, 0.00000000e+00, 0.00000000e+00, 0.00000000e+00, 0.00000000e+00, 0.00000000e+00, -1.94612677e+00, 9.55842700e-01, 5.58342715e-01, 3.54786833e+00, 0.00000000e+00, 5.0000000000, 5.0000000000, 0.0560299500
          49, 0.00000000e+00, 0.00000000e+00, 0.00000000e+00, 0.00000000e+00, 0.00000000e+00, 0.00000000e+00, 0.00000000e+00, 0.00000000e+00, 0.00000000e+00, 0.00000000e+00, 0.00000000e+00, 0.00000000e+00, -1.95020619e+00, 9.48507794e-01, 5.54737127e-01, 3.53967278e+00, 0.00000000e+00, 5.0000000000, 5.0000000000, 0.0571736667
          50, 0.00000000e+00, 0.00000000e+00, 0.00000000e+00, 0.00000000e+00, 0.00000000e+00, 0.00000000e+00, 0.00000000e+00, 0.00000000e+00, 0.00000000e+00, 0.00000000e+00, 0.00000000e+00, 0.00000000e+00, -1.94223098e+00, 9.38235023e-01, 5.51103493e-01, 3.54232297e+00, 0.00000000e+00, 5.0000000000, 5.0000000000, 0.0583258667
          51, 0.00000000e+00, 0.00000000e+00, 0.00000000e+00, 0.00000000e+00, 0.00000000e+00, 0.00000000e+00, 0.00000000e+00, 0.00000000e+00, 0.00000000e+00, 0.00000000e+00, 0.00000000e+00, 0.00000000e+00, -1.92255116e+00, 9.24635990e-01, 5.47455740e-01, 3.55643939e+00, 0.00000000e+00, 5.0000000000, 5.0000000000, 0.0594665167
          52, 0.00000000e+00, 0.00000000e+00, 0.00000000e+00, 0.00000000e+00, 0.00000000e+00, 0.00000000e+00, 0.00000000e+00, 0.00000000e+00, 0.00000000e+00, 0.00000000e+00, 0.00000000e+00, 0.00000000e+00, -1.89384508e+00, 9.07302355e-01, 5.43820557e-01, 3.58028779e+00, 0.00000000e+00, 5.0000000000, 5.0000000000, 0.0606565833
          53, 0.00000000e+00, 0.00000000e+00, 0.00000000e+00, 0.00000000e+00, 0.00000000e+00, 0.00000000e+00, 0.00000000e+00, 0.00000000e+00, 0.00000000e+00, 0.00000000e+00, 0.00000000e+00, 0.00000000e+00, -1.85983703e+00, 8.85790009e-01, 5.40228715e-01, 3.61062099e+00, 0.00000000e+00, 5.0000000000, 5.0000000000, 0.0618328000
          54, 0.00000000e+00, 0.00000000e+00, 0.00000000e+00, 0.00000000e+00, 0.00000000e+00, 0.00000000e+00, 0.00000000e+00, 0.00000000e+00, 0.00000000e+00, 0.00000000e+00, 0.00000000e+00, 0.00000000e+00, -1.82398310e+00, 8.59592007e-01, 5.36717853e-01, 3.64398088e+00, 0.00000000e+00, 5.0000000000, 5.0000000000, 0.0629744167
          55, 0.00000000e+00, 0.00000000e+00, 0.00000000e+00, 0.00000000e+00, 0.00000000e+00, 0.00000000e+00, 0.00000000e+00, 0.00000000e+00, 0.00000000e+00, 0.00000000e+00, 0.00000000e+00, 0.00000000e+00, -1.78884650e+00, 8.28098884e-01, 5.33325868e-01, 3.67755730e+00, 0.00000000e+00, 5.0000000000, 5.0000000000, 0.0641620333
          56, 0.00000000e+00, 0.00000000e+00, 0.00000000e+00, 0.00000000e+00, 0.00000000e+00, 0.00000000e+00, 0.00000000e+00, 0.00000000e+00, 0.00000000e+00, 0.00000000e+00, 0.00000000e+00, 0.00000000e+00, -1.75607011e+00, 7.90542664e-01, 5.30089805e-01, 3.70941901e+00, 0.00000000e+00, 5.0000000000, 5.0000000000, 0.0653317333
          57, 0.00000000e+00, 0.00000000e+00, 0.00000000e+00, 0.00000000e+00, 0.00000000e+00, 0.00000000e+00, 0.00000000e+00, 0.00000000e+00, 0.00000000e+00, 0.00000000e+00, 0.00000000e+00, 0.00000000e+00, -1.72659651e+00, 7.45916662e-01, 5.27043177e-01, 3.73838573e+00, 0.00000000e+00, 5.0000000000, 5.0000000000, 0.0665005667
          58, 0.00000000e+00, 0.00000000e+00, 0.00000000e+00, 0.00000000e+00, 0.00000000e+00, 0.00000000e+00, 0.00000000e+00, 0.00000000e+00, 0.00000000e+00, 0.00000000e+00, 0.00000000e+00, 0.00000000e+00, -1.70090885e+00, 6.92855948e-01, 5.24213537e-01, 3.76380529e+00, 0.00000000e+00, 5.0000000000, 5.0000000000, 0.0676537333
          59, 0.00000000e+00, 0.00000000e+00, 0.00000000e+00, 0.00000000e+00, 0.00000000e+00, 0.00000000e+00, 0.00000000e+00, 0.00000000e+00, 0.00000000e+00, 0.00000000e+00, 0.00000000e+00, 0.00000000e+00, -1.67921382e+00, 6.29451503e-01, 5.21620612e-01, 3.78535966e+00, 0.00000000e+00, 5.0000000000, 5.0000000000, 0.0687856833
          60, 0.00000000e+00, 0.00000000e+00, 0.00000000e+00, 0.00000000e+00, 0.00000000e+00, 0.00000000e+00, 0.00000000e+00, 0.00000000e+00, 0.00000000e+00, 0.00000000e+00, 0.00000000e+00, 0.00000000e+00, -1.66156078e+00, 5.52955670e-01, 5.19275229e-01, 3.80292924e+00, 0.00000000e+00, 5.0000000000, 5.0000000000, 0.0699117833
          61, 0.00000000e+00, 0.00000000e+00, 0.00000000e+00, 0.00000000e+00, 0.00000000e+00, 0.00000000e+00, 0.00000000e+00, 0.00000000e+00, 0.00000000e+00, 0.00000000e+00, 0.00000000e+00, 0.00000000e+00, -1.64791332e+00, 4.59345193e-01, 5.17179374e-01, 3.81650729e+00, 0.00000000e+00, 5.0000000000, 5.0000000000, 0.0710554667
          62, 0.00000000e+00, 0.00000000e+00, 0.00000000e+00, 0.00000000e+00, 0.00000000e+00, 0.00000000e+00, 0.00000000e+00, 0.00000000e+00, 0.00000000e+00, 0.00000000e+00, 0.00000000e+00, 0.00000000e+00, -1.63818913e+00, 3.42966916e-01, 5.15327165e-01, 3.82614989e+00, 0.00000000e+00, 5.0000000000, 5.0000000000, 0.0722307000
          63, 0.00000000e+00, 0.00000000e+00, 0.00000000e+00, 0.00000000e+00, 0.00000000e+00, 0.00000000e+00, 0.00000000e+00, 0.00000000e+00, 0.00000000e+00, 0.00000000e+00, 0.00000000e+00, 0.00000000e+00, -1.63228074e+00, 1.98744902e-01, 5.13704872e-01, 3.83194831e+00, 0.00000000e+00, 5.0000000000, 5.0000000000, 0.0733667500
          64, 0.00000000e+00, 0.00000000e+00, 0.00000000e+00, 0.00000000e+00, 0.00000000e+00, 0.00000000e+00, 0.00000000e+00, 0.00000000e+00, 0.00000000e+00, 0.00000000e+00, 0.00000000e+00, 0.00000000e+00, -1.63006447e+00, 4.51799306e-02, 5.12292764e-01, 3.83401542e+00, 0.00000000e+00, 5.0000000000, 5.0000000000, 0.0745352500
          65, 0.00000000e+00, 0.00000000e+00, 0.00000000e+00, 0.00000000e+00, 0.00000000e+00, 0.00000000e+00, 0.00000000e+00, 0.00000000e+00, 0.00000000e+00, 0.00000000e+00, 0.00000000e+00, 0.00000000e+00, -1.63140286e+00, 8.40523769e-04, 5.11067293e-01, 3.83248007e+00, 0.00000000e+00, 5.0000000000, 5.0000000000, 0.0756888500
          66, 0.00000000e+00, 0.00000000e+00, 0.00000000e+00, 0.00000000e+00, 0.00000000e+00, 0.00000000e+00, 0.00000000e+00, 0.00000000e+00, 0.00000000e+00, 0.00000000e+00, 0.00000000e+00, 0.00000000e+00, -1.63614282e+00, 1.17441484e-01, 5.10002638e-01, 3.82748665e+00, 0.00000000e+00, 5.0000000000, 5.0000000000, 0.0768396833
          67, 0.00000000e+00, 0.00000000e+00, 0.00000000e+00, 0.00000000e+00, 0.00000000e+00, 0.00000000e+00, 0.00000000e+00, 0.00000000e+00, 0.00000000e+00, 0.00000000e+00, 0.00000000e+00, 0.00000000e+00, -1.64411079e+00, 2.54923447e-01, 5.09073149e-01, 3.81919827e+00, 0.00000000e+00, 5.0000000000, 5.0000000000, 0.0779999000
          68, 0.00000000e+00, 0.00000000e+00, 0.00000000e+00, 0.00000000e+00, 0.00000000e+00, 0.00000000e+00, 0.00000000e+00, 0.00000000e+00, 0.00000000e+00, 0.00000000e+00, 0.00000000e+00, 0.00000000e+00, -1.65510564e+00, 3.65803468e-01, 5.08254868e-01, 3.80780257e+00, 0.00000000e+00, 5.0000000000, 5.0000000000, 0.0791690333
          69, 0.00000000e+00, 0.00000000e+00, 0.00000000e+00, 0.00000000e+00, 0.00000000e+00, 0.00000000e+00, 0.00000000e+00, 0.00000000e+00, 0.00000000e+00, 0.00000000e+00, 0.00000000e+00, 0.00000000e+00, -1.66888965e+00, 4.51598427e-01, 5.07526484e-01, 3.79351973e+00, 0.00000000e+00, 5.0000000000, 5.0000000000, 0.0803066167
          70, 0.00000000e+00, 0.00000000e+00, 0.00000000e+00, 0.00000000e+00, 0.00000000e+00, 0.00000000e+00, 0.00000000e+00, 0.00000000e+00, 0.00000000e+00, 0.00000000e+00, 0.00000000e+00, 0.00000000e+00, -1.68517747e+00, 5.18412258e-01, 5.06870745e-01, 3.77661288e+00, 0.00000000e+00, 5.0000000000, 5.0000000000, 0.0814722000
          71, 0.00000000e+00, 0.00000000e+00, 0.00000000e+00, 0.00000000e+00, 0.00000000e+00, 0.00000000e+00, 0.00000000e+00, 0.00000000e+00, 0.00000000e+00, 0.00000000e+00, 0.00000000e+00, 0.00000000e+00, -1.70362365e+00, 5.70917908e-01, 5.06275422e-01, 3.75740057e+00, 0.00000000e+00, 5.0000000000, 5.0000000000, 0.0826365833
          72, 0.00000000e+00, 0.00000000e+00, 0.00000000e+00, 0.00000000e+00, 0.00000000e+00, 0.00000000e+00, 0.00000000e+00, 0.00000000e+00, 0.00000000e+00, 0.00000000e+00, 0.00000000e+00, 0.00000000e+00, -1.72380984e+00, 6.12341866e-01, 5.05733103e-01, 3.73627057e+00, 0.00000000e+00, 5.0000000000, 5.0000000000, 0.0837700833
          73, 0.00000000e+00, 0.00000000e+00, 0.00000000e+00, 0.00000000e+00, 0.00000000e+00, 0.00000000e+00, 0.00000000e+00, 0.00000000e+00, 0.00000000e+00, 0.00000000e+00, 0.00000000e+00, 0.00000000e+00, -1.74523419e+00, 6.44935961e-01, 5.05241755e-01, 3.71369299e+00, 0.00000000e+00, 5.0000000000, 5.0000000000, 0.0849169167
          74, 0.00000000e+00, 0.00000000e+00, 0.00000000e+00, 0.00000000e+00, 0.00000000e+00, 0.00000000e+00, 0.00000000e+00, 0.00000000e+00, 0.00000000e+00, 0.00000000e+00, 0.00000000e+00, 0.00000000e+00, -1.76730704e+00, 6.70325676e-01, 5.04804141e-01, 3.69022932e+00, 0.00000000e+00, 5.0000000000, 5.0000000000, 0.0860795833
          75, 0.00000000e+00, 0.00000000e+00, 0.00000000e+00, 0.00000000e+00, 0.00000000e+00, 0.00000000e+00, 0.00000000e+00, 0.00000000e+00, 0.00000000e+00, 0.00000000e+00, 0.00000000e+00, 0.00000000e+00, -1.78935874e+00, 6.89730034e-01, 5.04428509e-01, 3.66653192e+00, 0.00000000e+00, 5.0000000000, 5.0000000000, 0.0872824500
          76, 0.00000000e+00, 0.00000000e+00, 0.00000000e+00, 0.00000000e+00, 0.00000000e+00, 0.00000000e+00, 0.00000000e+00, 0.00000000e+00, 0.00000000e+00, 0.00000000e+00, 0.00000000e+00, 0.00000000e+00, -1.81066586e+00, 7.04098367e-01, 5.04125848e-01, 3.64332689e+00, 0.00000000e+00, 5.0000000000, 5.0000000000, 0.0884668333
          77, 0.00000000e+00, 0.00000000e+00, 0.00000000e+00, 0.00000000e+00, 0.00000000e+00, 0.00000000e+00, 0.00000000e+00, 0.00000000e+00, 0.00000000e+00, 0.00000000e+00, 0.00000000e+00, 0.00000000e+00, -1.83050095e+00, 7.14197068e-01, 5.03911767e-01, 3.62137354e+00, 0.00000000e+00, 5.0000000000, 5.0000000000, 0.0896265500
          78, 0.00000000e+00, 0.00000000e+00, 0.00000000e+00, 0.00000000e+00, 0.00000000e+00, 0.00000000e+00, 0.00000000e+00, 0.00000000e+00, 0.00000000e+00, 0.00000000e+00, 0.00000000e+00, 0.00000000e+00, -1.84820345e+00, 7.20665365e-01, 5.03805162e-01, 3.60139845e+00, 0.00000000e+00, 5.0000000000, 5.0000000000, 0.0908026833
          79, 0.00000000e+00, 0.00000000e+00, 0.00000000e+00, 0.00000000e+00, 0.00000000e+00, 0.00000000e+00, 0.00000000e+00, 0.00000000e+00, 0.00000000e+00, 0.00000000e+00, 0.00000000e+00, 0.00000000e+00, -1.86326049e+00, 7.24051781e-01, 5.03827367e-01, 3.58401137e+00, 0.00000000e+00, 5.0000000000, 5.0000000000, 0.0919929000
          80, 0.00000000e+00, 0.00000000e+00, 0.00000000e+00, 0.00000000e+00, 0.00000000e+00, 0.00000000e+00, 0.00000000e+00, 0.00000000e+00, 0.00000000e+00, 0.00000000e+00, 0.00000000e+00, 0.00000000e+00, -1.87537665e+00, 7.24837861e-01, 5.04001440e-01, 3.56962176e+00, 0.00000000e+00, 5.0000000000, 5.0000000000, 0.0931508833
          81, 0.00000000e+00, 0.00000000e+00, 0.00000000e+00, 0.00000000e+00, 0.00000000e+00, 0.00000000e+00, 0.00000000e+00, 0.00000000e+00, 0.00000000e+00, 0.00000000e+00, 0.00000000e+00, 0.00000000e+00, -1.88451007e+00, 7.23453160e-01, 5.04351255e-01, 3.55838132e+00, 0.00000000e+00, 5.0000000000, 5.0000000000, 0.0943154833
          82, 0.00000000e+00, 0.00000000e+00, 0.00000000e+00, 0.00000000e+00, 0.00000000e+00, 0.00000000e+00, 0.00000000e+00, 0.00000000e+00, 0.00000000e+00, 0.00000000e+00, 0.00000000e+00, 0.00000000e+00, -1.89086188e+00, 7.20283942e-01, 5.04900548e-01, 3.55017341e+00, 0.00000000e+00, 5.0000000000, 5.0000000000, 0.0955225167
          83, 0.00000000e+00, 0.00000000e+00, 0.00000000e+00, 0.00000000e+00, 0.00000000e+00, 0.00000000e+00, 0.00000000e+00, 0.00000000e+00, 0.00000000e+00, 0.00000000e+00, 0.00000000e+00, 0.00000000e+00, -1.89482302e+00, 7.15677235e-01, 5.05671943e-01, 3.54465313e+00, 0.00000000e+00, 5.0000000000, 5.0000000000, 0.0966782667
          84, 0.00000000e+00, 0.00000000e+00, 0.00000000e+00, 0.00000000e+00, 0.00000000e+00, 0.00000000e+00, 0.00000000e+00, 0.00000000e+00, 0.00000000e+00, 0.00000000e+00, 0.00000000e+00, 0.00000000e+00, -1.89689774e+00, 7.09941753e-01, 5.06686004e-01, 3.54132256e+00, 0.00000000e+00, 5.0000000000, 5.0000000000, 0.0978366500
          85, 0.00000000e+00, 0.00000000e+00, 0.00000000e+00, 0.00000000e+00, 0.00000000e+00, 0.00000000e+00, 0.00000000e+00, 0.00000000e+00, 0.00000000e+00, 0.00000000e+00, 0.00000000e+00, 0.00000000e+00, -1.89762692e+00, 7.03346854e-01, 5.07960159e-01, 3.53961589e+00, 0.00000000e+00, 5.0000000000, 5.0000000000, 0.0990086667
          86, 0.00000000e+00, 0.00000000e+00, 0.00000000e+00, 0.00000000e+00, 0.00000000e+00, 0.00000000e+00, 0.00000000e+00, 0.00000000e+00, 0.00000000e+00, 0.00000000e+00, 0.00000000e+00, 0.00000000e+00, -1.89752805e+00, 6.96120653e-01, 5.09507817e-01, 3.53897213e+00, 0.00000000e+00, 5.0000000000, 5.0000000000, 0.1001973333
          87, 0.00000000e+00, 0.00000000e+00, 0.00000000e+00, 0.00000000e+00, 0.00000000e+00, 0.00000000e+00, 0.00000000e+00, 0.00000000e+00, 0.00000000e+00, 0.00000000e+00, 0.00000000e+00, 0.00000000e+00, -1.89705841e+00, 6.88448345e-01, 5.11337539e-01, 3.53888381e+00, 0.00000000e+00, 5.0000000000, 5.0000000000, 0.1013330500
          88, 0.00000000e+00, 0.00000000e+00, 0.00000000e+00, 0.00000000e+00, 0.00000000e+00, 0.00000000e+00, 0.00000000e+00, 0.00000000e+00, 0.00000000e+00, 0.00000000e+00, 0.00000000e+00, 0.00000000e+00, -1.89659950e+00, 6.80471596e-01, 5.13452418e-01, 3.53892116e+00, 0.00000000e+00, 5.0000000000, 5.0000000000, 0.1024976833
          89, 0.00000000e+00, 0.00000000e+00, 0.00000000e+00, 0.00000000e+00, 0.00000000e+00, 0.00000000e+00, 0.00000000e+00, 0.00000000e+00, 0.00000000e+00, 0.00000000e+00, 0.00000000e+00, 0.00000000e+00, -1.89645671e+00, 6.72289601e-01, 5.15849589e-01, 3.53873719e+00, 0.00000000e+00, 5.0000000000, 5.0000000000, 0.1036762333