TITLE = "SU2 Simulation"
VARIABLES = "Iteration","CL","CD","CSF","CMx","CMy","CMz","CFx","CFy","CFz","CL/CD","AoA","Custom_ObjFunc","Res_Flow[0]","Res_Flow[1]","Res_Flow[2]","Res_Flow[3]","Res_Flow[4]","Linear_Solver_Iterations","CFL_Number","Time(min)"
ZONE T= "Convergence history"
           0, 0.00000000e+00, 0.00000000e+00, 0.00000000e+00, 0.00000000e+00, 0.00000000e+00, 0.00000000e+00, 0.00000000e+00, 0.00000000e+00, 0.00000000e+00, 0.00000000e+00, 0.00000000e+00, 0.00000000e+00, -1.62443716e+01, -1.32514527e+01, -1.32295822e+01, -1.09138774e+01, 0.00000000e+00, 5.0000000000, 5.0000000000, 0.0012575000
           1, 0.00000000e+00, 0.00000000e+00, 0.00000000e+00, 0.00000000e+00, 0.00000000e+00, 0.00000000e+00, 0.00000000e+00, 0.00000000e+00, 0.00000000e+00, 0.00000000e+00, 0.00000000e+00, 0.00000000e+00, -1.59567078e+01, 1.55728390e+00, 1.37014343e+00, 3.08914205e+00, 0.00000000e+00, 5.0000000000, 5.0000000000, 0.0024613500
           2, 0.00000000e+00, 0.00000000e+00, 0.00000000e+00, 0.00000000e+00, 0.00000000e+00, 0.00000000e+00, 0.00000000e+00, 0.00000000e+00, 0.00000000e+00, 0.00000000e+00, 0.00000000e+00, 0.00000000e+00, -2.02068898e+00, 1.49767774e+00, 1.37475923e+00, 3.47538721e+00, 0.00000000e+00, 5.0000000000, 5.0000000000, 0.0036427167
           3, 0.00000000e+00, 0.00000000e+00, 0.00000000e+00, 0.00000000e+00, 0.00000000e+00, 0.00000000e+00, 0.00000000e+00, 0.00000000e+00, 0.00000000e+00, 0.00000000e+00, 0.00000000e+00, 0.00000000e+00, -1.82299291e+00, 1.43313198e+00, 1.37243335e+00, 3.65062245e+00, 0.00000000e+00, 5.0000000000, 5.0000000000, 0.0047997000
           4, 0.00000000e+00, 0.00000000e+00, 0.00000000e+00, 0.00000000e+00, 0.00000000e+00, 0.00000000e+00, 0.00000000e+00, 0.00000000e+00, 0.00000000e+00, 0.00000000e+00, 0.00000000e+00, 0.00000000e+00, -1.73778807e+00, 1.36452418e+00, 1.36473045e+00, 3.73022245e+00, 0.00000000e+00, 5.0000000000, 5.0000000000, 0.0059387333
           5, 0.00000000e+00, 0.00000000e+00, 0.00000000e+00, 0.00000000e+00, 0.00000000e+00, 0.00000000e+00, 0.00000000e+00, 0.00000000e+00, 0.00000000e+00, 0.00000000e+00, 0.00000000e+00, 0.00000000e+00, -1.69172276e+00, 1.29195444e+00, 1.35279936e+00, 3.77380393e+00, 0.00000000e+00, 5.0000000000, 5.0000000000, 0.0070683333
           6, 0.00000000e+00, 0.00000000e+00, 0.00000000e+00, 0.00000000e+00, 0.00000000e+00, 0.00000000e+00, 0.00000000e+00, 0.00000000e+00, 0.00000000e+00, 0.00000000e+00, 0.00000000e+00, 0.00000000e+00, -1.66340723e+00, 1.21465957e+00, 1.33751913e+00, 3.80071766e+00, 0.00000000e+00, 5.0000000000, 5.0000000000, 0.0081782000
           7, 0.00000000e+00, 0.00000000e+00, 0.00000000e+00, 0.00000000e+00, 0.00000000e+00, 0.00000000e+00, 0.00000000e+00, 0.00000000e+00, 0.00000000e+00, 0.00000000e+00, 0.00000000e+00, 0.00000000e+00, -1.64492812e+00, 1.13122000e+00, 1.31957564e+00, 3.81830339e+00, 0.00000000e+00, 5.0000000000, 5.0000000000, 0.0093115000
           8, 0.00000000e+00, 0.00000000e+00, 0.00000000e+00, 0.00000000e+00, 0.00000000e+00, 0.00000000e+00, 0.00000000e+00, 0.00000000e+00, 0.00000000e+00, 0.00000000e+00, 0.00000000e+00, 0.00000000e+00, -1.63300964e+00, 1.03945283e+00, 1.29950873e+00, 3.82961435e+00, 0.00000000e+00, 5.0000000000, 5.0000000000, 0.0104310000
           9, 0.00000000e+00, 0.00000000e+00, 0.00000000e+00, 0.00000000e+00, 0.00000000e+00, 0.00000000e+00, 0.00000000e+00, 0.00000000e+00, 0.00000000e+00, 0.00000000e+00, 0.00000000e+00, 0.00000000e+00, -1.62621631e+00, 9.35945491e-01, 1.27774742e+00, 3.83597735e+00, 0.00000000e+00, 5.0000000000, 5.0000000000, 0.0115903000
          10, 0.00000000e+00, 0.00000000e+00, 0.00000000e+00, 0.00000000e+00, 0.00000000e+00, 0.00000000e+00, 0.00000000e+00, 0.00000000e+00, 0.00000000e+00, 0.00000000e+00, 0.00000000e+00, 0.00000000e+00, -1.62416284e+00, 8.15345133e-01, 1.25463716e+00, 3.83771103e+00, 0.00000000e+00, 5.0000000000, 5.0000000000, 0.0127097833
          11, 0.00000000e+00, 0.00000000e+00, 0.00000000e+00, 0.00000000e+00, 0.00000000e+00, 0.00000000e+00, 0.00000000e+00, 0.00000000e+00, 0.00000000e+00, 0.00000000e+00, 0.00000000e+00, 0.00000000e+00, -1.62732493e+00, 6.70079282e-01, 1.23045709e+00, 3.83428890e+00, 0.00000000e+00, 5.0000000000, 5.0000000000, 0.0138199667
          12, 0.00000000e+00, 0.00000000e+00, 0.00000000e+00, 0.00000000e+00, 0.00000000e+00, 0.00000000e+00, 0.00000000e+00, 0.00000000e+00, 0.00000000e+00, 0.00000000e+00, 0.00000000e+00, 0.00000000e+00, -1.63692075e+00, 4.96938116e-01, 1.20543961e+00, 3.82444550e+00, 0.00000000e+00, 5.0000000000, 5.0000000000, 0.0149404667
          13, 0.00000000e+00, 0.00000000e+00, 0.00000000e+00, 0.00000000e+00, 0.00000000e+00, 0.00000000e+00, 0.00000000e+00, 0.00000000e+00, 0.00000000e+00, 0.00000000e+00, 0.00000000e+00, 0.00000000e+00, -1.65475015e+00, 3.52504634e-01, 1.17977730e+00, 3.80633018e+00, 0.00000000e+00, 5.0000000000, 5.0000000000, 0.0160360333
          14, 0.00000000e+00, 0.00000000e+00, 0.00000000e+00, 0.00000000e+00, 0.00000000e+00, 0.00000000e+00, 0.00000000e+00, 0.00000000e+00, 0.00000000e+00, 0.00000000e+00, 0.00000000e+00, 0.00000000e+00, -1.68305242e+00, 3.94122041e-01, 1.15362703e+00, 3.77764139e+00, 0.00000000e+00, 5.0000000000, 5.0000000000, 0.0171165000
          15, 0.00000000e+00, 0.00000000e+00, 0.00000000e+00, 0.00000000e+00, 0.00000000e+00, 0.00000000e+00, 0.00000000e+00, 0.00000000e+00, 0.00000000e+00, 0.00000000e+00, 0.00000000e+00, 0.00000000e+00, -1.72447575e+00, 5.33667811e-01, 1.12711777e+00, 3.73564337e+00, 0.00000000e+00, 5.0000000000, 5.0000000000, 0.0182378833
          16, 0.00000000e+00, 0.00000000e+00, 0.00000000e+00, 0.00000000e+00, 0.00000000e+00, 0.00000000e+00, 0.00000000e+00, 0.00000000e+00, 0.00000000e+00, 0.00000000e+00, 0.00000000e+00, 0.00000000e+00, -1.78224271e+00, 6.52307495e-01, 1.10035770e+00, 3.67696857e+00, 0.00000000e+00, 5.0000000000, 5.0000000000, 0.0193518833
          17, 0.00000000e+00, 0.00000000e+00, 0.00000000e+00, 0.00000000e+00, 0.00000000e+00, 0.00000000e+00, 0.00000000e+00, 0.00000000e+00, 0.00000000e+00, 0.00000000e+00, 0.00000000e+00, 0.00000000e+00, -1.86060624e+00, 7.38815846e-01, 1.07344166e+00, 3.59708102e+00, 0.00000000e+00, 5.0000000000, 5.0000000000, 0.0204882167
          18, 0.00000000e+00, 0.00000000e+00, 0.00000000e+00, 0.00000000e+00, 0.00000000e+00, 0.00000000e+00, 0.00000000e+00, 0.00000000e+00, 0.00000000e+00, 0.00000000e+00, 0.00000000e+00, 0.00000000e+00, -1.96571481e+00, 8.00068679e-01, 1.04645936e+00, 3.48918309e+00, 0.00000000e+00, 5.0000000000, 5.0000000000, 0.0216790000
          19, 0.00000000e+00, 0.00000000e+00, 0.00000000e+00, 0.00000000e+00, 0.00000000e+00, 0.00000000e+00, 0.00000000e+00, 0.00000000e+00, 0.00000000e+00, 0.00000000e+00, 0.00000000e+00, 0.00000000e+00, -2.10657250e+00, 8.42297866e-01, 1.01950062e+00, 3.34253119e+00, 0.00000000e+00, 5.0000000000, 5.0000000000, 0.0228645333
          20, 0.00000000e+00, 0.00000000e+00, 0.00000000e+00, 0.00000000e+00, 0.00000000e+00, 0.00000000e+00, 0.00000000e+00, 0.00000000e+00, 0.00000000e+00, 0.00000000e+00, 0.00000000e+00, 0.00000000e+00, -2.28950394e+00, 8.70030839e-01, 9.92658096e-01, 3.14601821e+00, 0.00000000e+00, 5.0000000000, 5.0000000000, 0.0240281833
          21, 0.00000000e+00, 0.00000000e+00, 0.00000000e+00, 0.00000000e+00, 0.00000000e+00, 0.00000000e+00, 0.00000000e+00, 0.00000000e+00, 0.00000000e+00, 0.00000000e+00, 0.00000000e+00, 0.00000000e+00, -2.44664646e+00, 8.86639324e-01, 9.66025708e-01, 2.97202813e+00, 0.00000000e+00, 5.0000000000, 5.0000000000, 0.0251465000
          22, 0.00000000e+00, 0.00000000e+00, 0.00000000e+00, 0.00000000e+00, 0.00000000e+00, 0.00000000e+00, 0.00000000e+00, 0.00000000e+00, 0.00000000e+00, 0.00000000e+00, 0.00000000e+00, 0.00000000e+00, -2.37771067e+00, 8.94744711e-01, 9.39697986e-01, 3.06513828e+00, 0.00000000e+00, 5.0000000000, 5.0000000000, 0.0262615000
          23, 0.00000000e+00, 0.00000000e+00, 0.00000000e+00, 0.00000000e+00, 0.00000000e+00, 0.00000000e+00, 0.00000000e+00, 0.00000000e+00, 0.00000000e+00, 0.00000000e+00, 0.00000000e+00, 0.00000000e+00, -2.22270137e+00, 8.96419107e-01, 9.13772570e-01, 3.23530026e+00, 0.00000000e+00, 5.0000000000, 5.0000000000, 0.0273761333
          24, 0.00000000e+00, 0.00000000e+00, 0.00000000e+00, 0.00000000e+00, 0.00000000e+00, 0.00000000e+00, 0.00000000e+00, 0.00000000e+00, 0.00000000e+00, 0.00000000e+00, 0.00000000e+00, 0.00000000e+00, -2.10278949e+00, 8.93271534e-01, 8.88327314e-01, 3.35938076e+00, 0.00000000e+00, 5.0000000000, 5.0000000000, 0.0286042000
          25, 0.00000000e+00, 0.00000000e+00, 0.00000000e+00, 0.00000000e+00, 0.00000000e+00, 0.00000000e+00, 0.00000000e+00, 0.00000000e+00, 0.00000000e+00, 0.00000000e+00, 0.00000000e+00, 0.00000000e+00, -2.01817233e+00, 8.86482667e-01, 8.63423221e-01, 3.44503971e+00, 0.00000000e+00, 5.0000000000, 5.0000000000, 0.0299403333
          26, 0.00000000e+00, 0.00000000e+00, 0.00000000e+00, 0.00000000e+00, 0.00000000e+00, 0.00000000e+00, 0.00000000e+00, 0.00000000e+00, 0.00000000e+00, 0.00000000e+00, 0.00000000e+00, 0.00000000e+00, -1.95845196e+00, 8.76855437e-01, 8.39100362e-01, 3.50472714e+00, 0.00000000e+00, 5.0000000000, 5.0000000000, 0.0310824333
          27, 0.00000000e+00, 0.00000000e+00, 0.00000000e+00, 0.00000000e+00, 0.00000000e+00, 0.00000000e+00, 0.00000000e+00, 0.00000000e+00, 0.00000000e+00, 0.00000000e+00, 0.00000000e+00, 0.00000000e+00, -1.91629830e+00, 8.64892933e-01, 8.15374586e-01, 3.54634738e+00, 0.00000000e+00, 5.0000000000, 5.0000000000, 0.0322188667
          28, 0.00000000e+00, 0.00000000e+00, 0.00000000e+00, 0.00000000e+00, 0.00000000e+00, 0.00000000e+00, 0.00000000e+00, 0.00000000e+00, 0.00000000e+00, 0.00000000e+00, 0.00000000e+00, 0.00000000e+00, -1.88698083e+00, 8.50894770e-01, 7.92237055e-01, 3.57482864e+00, 0.00000000e+00, 5.0000000000, 5.0000000000, 0.0333214167
          29, 0.00000000e+00, 0.00000000e+00, 0.00000000e+00, 0.00000000e+00, 0.00000000e+00, 0.00000000e+00, 0.00000000e+00, 0.00000000e+00, 0.00000000e+00, 0.00000000e+00, 0.00000000e+00, 0.00000000e+00, -1.86737972e+00, 8.35050044e-01, 7.69656900e-01, 3.59337975e+00, 0.00000000e+00, 5.0000000000, 5.0000000000, 0.0344513833
          30, 0.00000000e+00, 0.00000000e+00, 0.00000000e+00, 0.00000000e+00, 0.00000000e+00, 0.00000000e+00, 0.00000000e+00, 0.00000000e+00, 0.00000000e+00, 0.00000000e+00, 0.00000000e+00, 0.00000000e+00, -1.85536904e+00, 8.17507624e-01, 7.47586655e-01, 3.60418402e+00, 0.00000000e+00, 5.0000000000, 5.0000000000, 0.0356034000
          31, 0.00000000e+00, 0.00000000e+00, 0.00000000e+00, 0.00000000e+00, 0.00000000e+00, 0.00000000e+00, 0.00000000e+00, 0.00000000e+00, 0.00000000e+00, 0.00000000e+00, 0.00000000e+00, 0.00000000e+00, -1.84946185e+00, 7.98415435e-01, 7.25969271e-01, 3.60877920e+00, 0.00000000e+00, 5.0000000000, 5.0000000000, 0.0367526667
          32, 0.00000000e+00, 0.00000000e+00, 0.00000000e+00, 0.00000000e+00, 0.00000000e+00, 0.00000000e+00, 0.00000000e+00, 0.00000000e+00, 0.00000000e+00, 0.00000000e+00, 0.00000000e+00, 0.00000000e+00, -1.84860635e+00, 7.77930772e-01, 7.04745078e-01, 3.60826892e+00, 0.00000000e+00, 5.0000000000, 5.0000000000, 0.0378799333
          33, 0.00000000e+00, 0.00000000e+00, 0.00000000e+00, 0.00000000e+00, 0.00000000e+00, 0.00000000e+00, 0.00000000e+00, 0.00000000e+00, 0.00000000e+00, 0.00000000e+00, 0.00000000e+00, 0.00000000e+00, -1.85206664e+00, 7.56209853e-01, 6.83858067e-01, 3.60344238e+00, 0.00000000e+00, 5.0000000000, 5.0000000000, 0.0390289167
          34, 0.00000000e+00, 0.00000000e+00, 0.00000000e+00, 0.00000000e+00, 0.00000000e+00, 0.00000000e+00, 0.00000000e+00, 0.00000000e+00, 0.00000000e+00, 0.00000000e+00, 0.00000000e+00, 0.00000000e+00, -1.85934845e+00, 7.33387651e-01, 6.63262146e-01, 3.59484605e+00, 0.00000000e+00, 5.0000000000, 5.0000000000, 0.0401561000
          35, 0.00000000e+00, 0.00000000e+00, 0.00000000e+00, 0.00000000e+00, 0.00000000e+00, 0.00000000e+00, 0.00000000e+00, 0.00000000e+00, 0.00000000e+00, 0.00000000e+00, 0.00000000e+00, 0.00000000e+00, -1.87014676e+00, 7.09558331e-01, 6.42923192e-01, 3.58283217e+00, 0.00000000e+00, 5.0000000000, 5.0000000000, 0.0413240167
          36, 0.00000000e+00, 0.00000000e+00, 0.00000000e+00, 0.00000000e+00, 0.00000000e+00, 0.00000000e+00, 0.00000000e+00, 0.00000000e+00, 0.00000000e+00, 0.00000000e+00, 0.00000000e+00, 0.00000000e+00, -1.88430135e+00, 6.84765153e-01, 6.22821092e-01, 3.56759981e+00, 0.00000000e+00, 5.0000000000, 5.0000000000, 0.0424168500
          37, 0.00000000e+00, 0.00000000e+00, 0.00000000e+00, 0.00000000e+00, 0.00000000e+00, 0.00000000e+00, 0.00000000e+00, 0.00000000e+00, 0.00000000e+00, 0.00000000e+00, 0.00000000e+00, 0.00000000e+00, -1.90175376e+00, 6.59005111e-01, 6.02949936e-01, 3.54923596e+00, 0.00000000e+00, 5.0000000000, 5.0000000000, 0.0435039500
          38, 0.00000000e+00, 0.00000000e+00, 0.00000000e+00, 0.00000000e+00, 0.00000000e+00, 0.00000000e+00, 0.00000000e+00, 0.00000000e+00, 0.00000000e+00, 0.00000000e+00, 0.00000000e+00, 0.00000000e+00, -1.92250430e+00, 6.32249532e-01, 5.83314537e-01, 3.52775844e+00, 0.00000000e+00, 5.0000000000, 5.0000000000, 0.0446454000
          39, 0.00000000e+00, 0.00000000e+00, 0.00000000e+00, 0.00000000e+00, 0.00000000e+00, 0.00000000e+00, 0.00000000e+00, 0.00000000e+00, 0.00000000e+00, 0.00000000e+00, 0.00000000e+00, 0.00000000e+00, -1.94656942e+00, 6.04477941e-01, 5.63928230e-01, 3.50316011e+00, 0.00000000e+00, 5.0000000000, 5.0000000000, 0.0457884667
          40, 0.00000000e+00, 0.00000000e+00, 0.00000000e+00, 0.00000000e+00, 0.00000000e+00, 0.00000000e+00, 0.00000000e+00, 0.00000000e+00, 0.00000000e+00, 0.00000000e+00, 0.00000000e+00, 0.00000000e+00, -1.97394061e+00, 5.75719492e-01, 5.44810045e-01, 3.47545294e+00, 0.00000000e+00, 5.0000000000, 5.0000000000, 0.0469448167
          41, 0.00000000e+00, 0.00000000e+00, 0.00000000e+00, 0.00000000e+00, 0.00000000e+00, 0.00000000e+00, 0.00000000e+00, 0.00000000e+00, 0.00000000e+00, 0.00000000e+00, 0.00000000e+00, 0.00000000e+00, -2.00454431e+00, 5.46095222e-01, 5.25982097e-01, 3.44471150e+00, 0.00000000e+00, 5.0000000000, 5.0000000000, 0.0481299500
          42, 0.00000000e+00, 0.00000000e+00, 0.00000000e+00, 0.00000000e+00, 0.00000000e+00, 0.00000000e+00, 0.00000000e+00, 0.00000000e+00, 0.00000000e+00, 0.00000000e+00, 0.00000000e+00, 0.00000000e+00, -2.03820050e+00, 5.15854343e-01, 5.07467497e-01, 3.41111773e+00, 0.00000000e+00, 5.0000000000, 5.0000000000, 0.0492766833
          43, 0.00000000e+00, 0.00000000e+00, 0.00000000e+00, 0.00000000e+00, 0.00000000e+00, 0.00000000e+00, 0.00000000e+00, 0.00000000e+00, 0.00000000e+00, 0.00000000e+00, 0.00000000e+00, 0.00000000e+00, -2.07457602e+00, 4.85397999e-01, 4.89288889e-01, 3.37501042e+00, 0.00000000e+00, 5.0000000000, 5.0000000000, 0.0503961333
          44, 0.00000000e+00, 0.00000000e+00, 0.00000000e+00, 0.00000000e+00, 0.00000000e+00, 0.00000000e+00, 0.00000000e+00, 0.00000000e+00, 0.00000000e+00, 0.00000000e+00, 0.00000000e+00, 0.00000000e+00, -2.11312863e+00, 4.55283325e-01, 4.71467430e-01, 3.33694252e+00, 0.00000000e+00, 5.0000000000, 5.0000000000, 0.0515152500
          45, 0.00000000e+00, 0.00000000e+00, 0.00000000e+00, 0.00000000e+00, 0.00000000e+00, 0.00000000e+00, 0.00000000e+00, 0.00000000e+00, 0.00000000e+00, 0.00000000e+00, 0.00000000e+00, 0.00000000e+00, -2.15304155e+00, 4.26199985e-01, 4.54022172e-01, 3.29774557e+00, 0.00000000e+00, 5.0000000000, 5.0000000000, 0.0526181000
          46, 0.00000000e+00, 0.00000000e+00, 0.00000000e+00, 0.00000000e+00, 0.00000000e+00, 0.00000000e+00, 0.00000000e+00, 0.00000000e+00, 0.00000000e+00, 0.00000000e+00, 0.00000000e+00, 0.00000000e+00, -2.19315884e+00, 3.98912438e-01, 4.36969534e-01, 3.25858897e+00, 0.00000000e+00, 5.0000000000, 5.0000000000, 0.0537482167
          47, 0.00000000e+00, 0.00000000e+00, 0.00000000e+00, 0.00000000e+00, 0.00000000e+00, 0.00000000e+00, 0.00000000e+00, 0.00000000e+00, 0.00000000e+00, 0.00000000e+00, 0.00000000e+00, 0.00000000e+00, -2.23195331e+00, 3.74167275e-01, 4.20322680e-01, 3.22100023e+00, 0.00000000e+00, 5.0000000000, 5.0000000000, 0.0548901500
          48, 0.00000000e+00, 0.00000000e+00, 0.00000000e+00, 0.00000000e+00, 0.00000000e+00, 0.00000000e+00, 0.00000000e+00, 0.00000000e+00, 0.00000000e+00, 0.00000000e+00, 0.00000000e+00, 0.00000000e+00, -2.26758688e+00, 3.52577734e-01, 4.04090691e-01, 3.18678695e+00, 0.00000000e+00, 5.0000000000, 5.0000000000, 0.0560299500
          49, 0.00000000e+00, 0.00000000e+00, 0.00000000e+00, 0.00000000e+00, 0.00000000e+00, 0.00000000e+00, 0.00000000e+00, 0.00000000e+00, 0.00000000e+00, 0.00000000e+00, 0.00000000e+00, 0.00000000e+00, -2.29813435e+00, 3.34513543e-01, 3.88277542e-01, 3.15779650e+00, 0.00000000e+00, 5.0000000000, 5.0000000000, 0.0571736667
          50, 0.00000000e+00, 0.00000000e+00, 0.00000000e+00, 0.00000000e+00, 0.00000000e+00, 0.00000000e+00, 0.00000000e+00, 0.00000000e+00, 0.00000000e+00, 0.00000000e+00, 0.00000000e+00, 0.00000000e+00, -2.32198636e+00, 3.20031762e-01, 3.72880974e-01, 3.13551356e+00, 0.00000000e+00, 5.0000000000, 5.0000000000, 0.0583258667
          51, 0.00000000e+00, 0.00000000e+00, 0.00000000e+00, 0.00000000e+00, 0.00000000e+00, 0.00000000e+00, 0.00000000e+00, 0.00000000e+00, 0.00000000e+00, 0.00000000e+00, 0.00000000e+00, 0.00000000e+00, -2.33830687e+00, 3.08874447e-01, 3.57891466e-01, 3.12063246e+00, 0.00000000e+00, 5.0000000000, 5.0000000000, 0.0594665167
          52, 0.00000000e+00, 0.00000000e+00, 0.00000000e+00, 0.00000000e+00, 0.00000000e+00, 0.00000000e+00, 0.00000000e+00, 0.00000000e+00, 0.00000000e+00, 0.00000000e+00, 0.00000000e+00, 0.00000000e+00, -2.34729785e+00, 3.00533531e-01, 3.43291526e-01, 3.11284103e+00, 0.00000000e+00, 5.0000000000, 5.0000000000, 0.0606565833
          53, 0.00000000e+00, 0.00000000e+00, 0.00000000e+00, 0.00000000e+00, 0.00000000e+00, 0.00000000e+00, 0.00000000e+00, 0.00000000e+00, 0.00000000e+00, 0.00000000e+00, 0.00000000e+00, 0.00000000e+00, -2.35009145e+00, 2.94357086e-01, 3.29055491e-01, 3.11096227e+00, 0.00000000e+00, 5.0000000000, 5.0000000000, 0.0618328000
          54, 0.00000000e+00, 0.00000000e+00, 0.00000000e+00, 0.00000000e+00, 0.00000000e+00, 0.00000000e+00, 0.00000000e+00, 0.00000000e+00, 0.00000000e+00, 0.00000000e+00, 0.00000000e+00, 0.00000000e+00, -2.34834005e+00, 2.89661233e-01, 3.15149965e-01, 3.11336230e+00, 0.00000000e+00, 5.0000000000, 5.0000000000, 0.0629744167
          55, 0.00000000e+00, 0.00000000e+00, 0.00000000e+00, 0.00000000e+00, 0.00000000e+00, 0.00000000e+00, 0.00000000e+00, 0.00000000e+00, 0.00000000e+00, 0.00000000e+00, 0.00000000e+00, 0.00000000e+00, -2.34375188e+00, 2.85819831e-01, 3.01534876e-01, 3.11838665e+00, 0.00000000e+00, 5.0000000000, 5.0000000000, 0.0641620333
          56, 0.00000000e+00, 0.00000000e+00, 0.00000000e+00, 0.00000000e+00, 0.00000000e+00, 0.00000000e+00, 0.00000000e+00, 0.00000000e+00, 0.00000000e+00, 0.00000000e+00, 0.00000000e+00, 0.00000000e+00, -2.33777275e+00, 2.82319966e-01, 2.88165047e-01, 3.12464897e+00, 0.00000000e+00, 5.0000000000, 5.0000000000, 0.0653317333
          57, 0.00000000e+00, 0.00000000e+00, 0.00000000e+00, 0.00000000e+00, 0.00000000e+00, 0.00000000e+00, 0.00000000e+00, 0.00000000e+00, 0.00000000e+00, 0.00000000e+00, 0.00000000e+00, 0.00000000e+00, -2.33145886e+00, 2.78784869e-01, 2.74992075e-01, 3.13114099e+00, 0.00000000e+00, 5.0000000000, 5.0000000000, 0.0665005667
          58, 0.00000000e+00, 0.00000000e+00, 0.00000000e+00, 0.00000000e+00, 0.00000000e+00, 0.00000000e+00, 0.00000000e+00, 0.00000000e+00, 0.00000000e+00, 0.00000000e+00, 0.00000000e+00, 0.00000000e+00, -2.32548491e+00, 2.74972285e-01, 2.61966262e-01, 3.13721921e+00, 0.00000000e+00, 5.0000000000, 5.0000000000, 0.0676537333
          59, 0.00000000e+00, 0.00000000e+00, 0.00000000e+00, 0.00000000e+00, 0.00000000e+00, 0.00000000e+00, 0.00000000e+00, 0.00000000e+00, 0.00000000e+00, 0.00000000e+00, 0.00000000e+00, 0.00000000e+00, -2.32021583e+00, 2.70757376e-01, 2.49038414e-01, 3.14253502e+00, 0.00000000e+00, 5.0000000000, 5.0000000000, 0.0687856833
          60, 0.00000000e+00, 0.00000000e+00, 0.00000000e+00, 0.00000000e+00, 0.00000000e+00, 0.00000000e+00, 0.00000000e+00, 0.00000000e+00, 0.00000000e+00, 0.00000000e+00, 0.00000000e+00, 0.00000000e+00, -2.31579387e+00, 2.66107504e-01, 2.36161284e-01, 3.14695182e+00, 0.00000000e+00, 5.0000000000, 5.0000000000, 0.0699117833
          61, 0.00000000e+00, 0.00000000e+00, 0.00000000e+00, 0.00000000e+00, 0.00000000e+00, 0.00000000e+00, 0.00000000e+00, 0.00000000e+00, 0.00000000e+00, 0.00000000e+00, 0.00000000e+00, 0.00000000e+00, -2.31221809e+00, 2.61054135e-01, 2.23290599e-01, 3.15046994e+00, 0.00000000e+00, 5.0000000000, 5.0000000000, 0.0710554667
          62, 0.00000000e+00, 0.00000000e+00, 0.00000000e+00, 0.00000000e+00, 0.00000000e+00, 0.00000000e+00, 0.00000000e+00, 0.00000000e+00, 0.00000000e+00, 0.00000000e+00, 0.00000000e+00, 0.00000000e+00, -2.30940827e+00, 2.55665448e-01, 2.10385645e-01, 3.15316625e+00, 0.00000000e+00, 5.0000000000, 5.0000000000, 0.0722307000
          63, 0.00000000e+00, 0.00000000e+00, 0.00000000e+00, 0.00000000e+00, 0.00000000e+00, 0.00000000e+00, 0.00000000e+00, 0.00000000e+00, 0.00000000e+00, 0.00000000e+00, 0.00000000e+00, 0.00000000e+00, -2.30725231e+00, 2.50022072e-01, 1.97409452e-01, 3.15514952e+00, 0.00000000e+00, 5.0000000000, 5.0000000000, 0.0733667500
          64, 0.00000000e+00, 0.00000000e+00, 0.00000000e+00, 0.00000000e+00, 0.00000000e+00, 0.00000000e+00, 0.00000000e+00, 0.00000000e+00, 0.00000000e+00, 0.00000000e+00, 0.00000000e+00, 0.00000000e+00, -2.30563828e+00, 2.44197511e-01, 1.84328666e-01, 3.15653005e+00, 0.00000000e+00, 5.0000000000, 5.0000000000, 0.0745352500
          65, 0.00000000e+00, 0.00000000e+00, 0.00000000e+00, 0.00000000e+00, 0.00000000e+00, 0.00000000e+00, 0.00000000e+00, 0.00000000e+00, 0.00000000e+00, 0.00000000e+00, 0.00000000e+00, 0.00000000e+00, -2.30447302e+00, 2.38243904e-01, 1.71113202e-01, 3.15740197e+00, 0.00000000e+00, 5.0000000000, 5.0000000000, 0.0756888500
          66, 0.00000000e+00, 0.00000000e+00, 0.00000000e+00, 0.00000000e+00, 0.00000000e+00, 0.00000000e+00, 0.00000000e+00, 0.00000000e+00, 0.00000000e+00, 0.00000000e+00, 0.00000000e+00, 0.00000000e+00, -2.30368978e+00, 2.32182987e-01, 1.57735796e-01, 3.15783588e+00, 0.00000000e+00, 5.0000000000, 5.0000000000, 0.0768396833
          67, 0.00000000e+00, 0.00000000e+00, 0.00000000e+00, 0.00000000e+00, 0.00000000e+00, 0.00000000e+00, 0.00000000e+00, 0.00000000e+00, 0.00000000e+00, 0.00000000e+00, 0.00000000e+00, 0.00000000e+00, -2.30324758e+00, 2.26001227e-01, 1.44171470e-01, 3.15787920e+00, 0.00000000e+00, 5.0000000000, 5.0000000000, 0.0779999000
          68, 0.00000000e+00, 0.00000000e+00, 0.00000000e+00, 0.00000000e+00, 0.00000000e+00, 0.00000000e+00, 0.00000000e+00, 0.00000000e+00, 0.00000000e+00, 0.00000000e+00, 0.00000000e+00, 0.00000000e+00, -2.30312499e+00, 2.19647789e-01, 1.30396955e-01, 3.15756181e+00, 0.00000000e+00, 5.0000000000, 5.0000000000, 0.0791690333
          69, 0.00000000e+00, 0.00000000e+00, 0.00000000e+00, 0.00000000e+00, 0.00000000e+00, 0.00000000e+00, 0.00000000e+00, 0.00000000e+00, 0.00000000e+00, 0.00000000e+00, 0.00000000e+00, 0.00000000e+00, -2.30331097e+00, 2.13033744e-01, 1.16390215e-01, 3.15690469e+00, 0.00000000e+00, 5.0000000000, 5.0000000000, 0.0803066167
          70, 0.00000000e+00, 0.00000000e+00, 0.00000000e+00, 0.00000000e+00, 0.00000000e+00, 0.00000000e+00, 0.00000000e+00, 0.00000000e+00, 0.00000000e+00, 0.00000000e+00, 0.00000000e+00, 0.00000000e+00, -2.30379474e+00, 2.06031290e-01, 1.02130072e-01, 3.15592965e+00, 0.00000000e+00, 5.0000000000, 5.0000000000, 0.0814722000
          71, 0.00000000e+00, 0.00000000e+00, 0.00000000e+00, 0.00000000e+00, 0.00000000e+00, 0.00000000e+00, 0.00000000e+00, 0.00000000e+00, 0.00000000e+00, 0.00000000e+00, 0.00000000e+00, 0.00000000e+00, -2.30455598e+00, 1.98472296e-01, 8.75959546e-02, 3.15466893e+00, 0.00000000e+00, 5.0000000000, 5.0000000000, 0.0826365833
          72, 0.00000000e+00, 0.00000000e+00, 0.00000000e+00, 0.00000000e+00, 0.00000000e+00, 0.00000000e+00, 0.00000000e+00, 0.00000000e+00, 0.00000000e+00, 0.00000000e+00, 0.00000000e+00, 0.00000000e+00, -2.30555610e+00, 1.90146095e-01, 7.27677334e-02, 3.15317403e+00, 0.00000000e+00, 5.0000000000, 5.0000000000, 0.0837700833
          73, 0.00000000e+00, 0.00000000e+00, 0.00000000e+00, 0.00000000e+00, 0.00000000e+00, 0.00000000e+00, 0.00000000e+00, 0.00000000e+00, 0.00000000e+00, 0.00000000e+00, 0.00000000e+00, 0.00000000e+00, -2.30673062e+00, 1.80796945e-01, 5.76256367e-02, 3.15152361e+00, 0.00000000e+00, 5.0000000000, 5.0000000000, 0.0849169167
          74, 0.00000000e+00, 0.00000000e+00, 0.00000000e+00, 0.00000000e+00, 0.00000000e+00, 0.00000000e+00, 0.00000000e+00, 0.00000000e+00, 0.00000000e+00, 0.00000000e+00, 0.00000000e+00, 0.00000000e+00, -2.30798271e+00, 1.70121917e-01, 4.21501139e-02, 3.14983030e+00, 0.00000000e+00, 5.0000000000, 5.0000000000, 0.0860795833
          75, 0.00000000e+00, 0.00000000e+00, 0.00000000e+00, 0.00000000e+00, 0.00000000e+00, 0.00000000e+00, 0.00000000e+00, 0.00000000e+00, 0.00000000e+00, 0.00000000e+00, 0.00000000e+00, 0.00000000e+00, -2.30917766e+00, 1.57770352e-01, 2.63217322e-02, 3.14824654e+00, 0.00000000e+00, 5.0000000000, 5.0000000000, 0.0872824500
          76, 0.00000000e+00, 0.00000000e+00, 0.00000000e+00, 0.00000000e+00, 0.00000000e+00, 0.00000000e+00, 0.00000000e+00, 0.00000000e+00, 0.00000000e+00, 0.00000000e+00, 0.00000000e+00, 0.00000000e+00, -2.31013873e+00, 1.43346669e-01, 1.01210282e-02, 3.14696871e+00, 0.00000000e+00, 5.0000000000, 5.0000000000, 0.0884668333
          77, 0.00000000e+00, 0.00000000e+00, 0.00000000e+00, 0.00000000e+00, 0.00000000e+00, 0.00000000e+00, 0.00000000e+00, 0.00000000e+00, 0.00000000e+00, 0.00000000e+00, 0.00000000e+00, 0.00000000e+00, -2.31064513e+00, 1.26419784e-01, -6.47152990e-03, 3.14623873e+00, 0.00000000e+00, 5.0000000000, 5.0000000000, 0.0896265500
          78, 0.00000000e+00, 0.00000000e+00, 0.00000000e+00, 0.00000000e+00, 0.00000000e+00, 0.00000000e+00, 0.00000000e+00, 0.00000000e+00, 0.00000000e+00, 0.00000000e+00, 0.00000000e+00, 0.00000000e+00, -2.31043356e+00, 1.06545831e-01, -2.34755968e-02, 3.14634130e+00, 0.00000000e+00, 5.0000000000, 5.0000000000, 0.0908026833
          79, 0.00000000e+00, 0.00000000e+00, 0.00000000e+00, 0.00000000e+00, 0.00000000e+00, 0.00000000e+00, 0.00000000e+00, 0.00000000e+00, 0.00000000e+00, 0.00000000e+00, 0.00000000e+00, 0.00000000e+00, -2.30920515e+00, 8.33181324e-02, -4.09110597e-02, 3.14759495e+00, 0.00000000e+00, 5.0000000000, 5.0000000000, 0.0919929000
          80, 0.00000000e+00, 0.00000000e+00, 0.00000000e+00, 0.00000000e+00, 0.00000000e+00, 0.00000000e+00, 0.00000000e+00, 0.00000000e+00, 0.00000000e+00, 0.00000000e+00, 0.00000000e+00, 0.00000000e+00, -2.30663946e+00, 5.64733495e-02, -5.87978363e-02, 3.15033514e+00, 0.00000000e+00, 5.0000000000, 5.0000000000, 0.0931508833
          81, 0.00000000e+00, 0.00000000e+00, 0.00000000e+00, 0.00000000e+00, 0.00000000e+00, 0.00000000e+00, 0.00000000e+00, 0.00000000e+00, 0.00000000e+00, 0.00000000e+00, 0.00000000e+00, 0.00000000e+00, -2.30241623e+00, 2.61112762e-02, -7.71554109e-02, 3.15488925e+00, 0.00000000e+00, 5.0000000000, 5.0000000000, 0.0943154833
          82, 0.00000000e+00, 0.00000000e+00, 0.00000000e+00, 0.00000000e+00, 0.00000000e+00, 0.00000000e+00, 0.00000000e+00, 0.00000000e+00, 0.00000000e+00, 0.00000000e+00, 0.00000000e+00, 0.00000000e+00, -2.29624402e+00, -6.86996966e-03, -9.60019611e-02, 3.16154494e+00, 0.00000000e+00, 5.0000000000, 5.0000000000, 0.0955225167
          83, 0.00000000e+00, 0.00000000e+00, 0.00000000e+00, 0.00000000e+00, 0.00000000e+00, 0.00000000e+00, 0.00000000e+00, 0.00000000e+00, 0.00000000e+00, 0.00000000e+00, 0.00000000e+00, 0.00000000e+00, -2.28789265e+00, -3.99960813e-02, -1.15352880e-01, 3.17051602e+00, 0.00000000e+00, 5.0000000000, 5.0000000000, 0.0966782667
          84, 0.00000000e+00, 0.00000000e+00, 0.00000000e+00, 0.00000000e+00, 0.00000000e+00, 0.00000000e+00, 0.00000000e+00, 0.00000000e+00, 0.00000000e+00, 0.00000000e+00, 0.00000000e+00, 0.00000000e+00, -2.27722374e+00, -6.81528712e-02, -1.35218518e-01, 3.18191248e+00, 0.00000000e+00, 5.0000000000, 5.0000000000, 0.0978366500
          85, 0.00000000e+00, 0.00000000e+00, 0.00000000e+00, 0.00000000e+00, 0.00000000e+00, 0.00000000e+00, 0.00000000e+00, 0.00000000e+00, 0.00000000e+00, 0.00000000e+00, 0.00000000e+00, 0.00000000e+00, -2.26421293e+00, -8.31630395e-02, -1.55600965e-01, 3.19572134e+00, 0.00000000e+00, 5.0000000000, 5.0000000000, 0.0990086667
          86, 0.00000000e+00, 0.00000000e+00, 0.00000000e+00, 0.00000000e+00, 0.00000000e+00, 0.00000000e+00, 0.00000000e+00, 0.00000000e+00, 0.00000000e+00, 0.00000000e+00, 0.00000000e+00, 0.00000000e+00, -2.24895848e+00, -7.62962767e-02, -1.76489731e-01, 3.21180319e+00, 0.00000000e+00, 5.0000000000, 5.0000000000, 0.1001973333
          87, 0.00000000e+00, 0.00000000e+00, 0.00000000e+00, 0.00000000e+00, 0.00000000e+00, 0.00000000e+00, 0.00000000e+00, 0.00000000e+00, 0.00000000e+00, 0.00000000e+00, 0.00000000e+00, 0.00000000e+00, -2.23167447e+00, -4.41569494e-02, -1.97856282e-01, 3.22990467e+00, 0.00000000e+00, 5.0000000000, 5.0000000000, 0.1013330500
          88, 0.00000000e+00, 0.00000000e+00, 0.00000000e+00, 0.00000000e+00, 0.00000000e+00, 0.00000000e+00, 0.00000000e+00, 0.00000000e+00, 0.00000000e+00, 0.00000000e+00, 0.00000000e+00, 0.00000000e+00, -2.21267068e+00, 8.26642260e-03, -2.19647470e-01, 3.24968330e+00, 0.00000000e+00, 5.0000000000, 5.0000000000, 0.1024976833
          89, 0.00000000e+00, 0.00000000e+00, 0.00000000e+00, 0.00000000e+00, 0.00000000e+00, 0.00000000e+00, 0.00000000e+00, 0.00000000e+00, 0.00000000e+00, 0.00000000e+00, 0.00000000e+00, 0.00000000e+00, -2.19232470e+00, 7.18276286e-02, -2.41778246e-01, 3.27073833e+00, 0.00000000e+00, 5.0000000000, 5.0000000000, 0.1036762333