 VARIABLES = "X",  "Y"
 ZONE N=        6834 , E=       13361 , F=FEPOINT, ET=QUADRILATERAL
       -1.9611245512       -1.1894683633
       -2.0000000000       -1.1902072343
       -1.9043526702       -1.1971438355
       -2.0000000000       -1.1304144685
       -1.9330681465       -1.1381723694
       -1.8411894317       -1.2002360351
       -1.8660230993       -1.1422973902
       -1.9534707931       -1.0807916604
       -1.8906478626       -1.0854878434
       -2.0000000000       -1.0706217028
       -1.8001567150       -1.1451429224
       -1.7747759636       -1.2016476609
       -1.8273573187       -1.0892293516
       -1.9138430370       -1.0270017825
       -1.9686647691       -1.0167583072
       -1.8527813952       -1.0336248827
       -2.0000000000       -1.0108289371
       -1.7282382993       -1.1468232061
       -1.7632163595       -1.0918227787
       -1.6958094878       -1.2055616835
       -1.7919769884       -1.0379718469
       -1.9395913719       -0.9690260525
       -1.8789186350       -0.9774671911
       -2.0000000000       -0.9510361714
       -1.8176223380       -0.9838783494
       -1.6591494002       -1.1451393987
       -1.7009416135       -1.0916244740
       -1.7330826141       -1.0410579838
       -1.7579701655       -0.9888720813
       -1.9592415912       -0.9201960296
       -1.9062439669       -0.9229642833
       -1.8443369161       -0.9290459210
       -1.6364944935       -1.2043855175
       -1.7828917950       -0.9352312286
       -2.0000000000       -0.8912434056
       -1.5918113177       -1.1754237489
       -1.6445055929       -1.0715830227
       -1.6846522862       -1.0408458800
       -1.6990953252       -0.9943782814
       -1.7226320049       -0.9413410921
       -1.9449512607       -0.8665956135
       -1.8727705926       -0.8741566912
       -1.8093834750       -0.8803617071
       -1.5961880766       -1.1063162008
       -1.7481202334       -0.8867487020
       -2.0000000000       -0.8314506399
       -1.5441570215       -1.1348431854
       -1.5357307765       -1.1978898628
       -1.6459597111       -1.0060936446
       -1.5499185993       -1.0825839167
       -1.5857950048       -1.0380054431
       -1.6604348674       -0.9499428855
       -1.6877234357       -0.8933846351
       -1.9571981916       -0.8104684014
       -1.8997412347       -0.8196305933
       -1.8349474507       -0.8257163843
       -1.7737830581       -0.8316796035
       -1.7142222043       -0.8378644597
       -2.0000000000       -0.7716578742
       -1.4892207847       -1.1508506769
       -1.5001129265       -1.0943985712
       -1.4792907614       -1.2060902359
       -1.5993245527       -0.9562953070
       -1.5175878269       -1.0428297199
       -1.6277452942       -0.9018223862
       -1.6569080279       -0.8432652308
       -1.9299476144       -0.7683510894
       -1.8605618592       -0.7720378972
       -1.7972548164       -0.7765169463
       -1.7391370916       -0.7832582603
       -1.5363985875       -0.9870292344
       -1.6840945756       -0.7888792542
       -1.9517200504       -0.7185625811
       -1.4307046616       -1.1645030460
       -1.4437001838       -1.1073765010
       -1.4595368119       -1.0531899949
       -1.4236196576       -1.2140459666
       -1.5446230928       -0.9351309640
       -1.4768295960       -0.9995199617
       -1.5726665829       -0.8995763710
       -1.5978161042       -0.8459476866
       -1.6260516533       -0.7906784751
       -1.8856341173       -0.7191222825
       -2.0000000000       -0.7118651084
       -1.8196160126       -0.7225085298
       -1.7568871810       -0.7245451499
       -1.7107582282       -0.7404512591
       -1.4941760446       -0.9449552838
       -1.6576056595       -0.7357055144
       -1.9096031533       -0.6642190651
       -1.9674774310       -0.6562154801
       -1.3708123428       -1.1919370851
       -1.3851629940       -1.1233228182
       -1.4015682318       -1.0649740784
       -1.4187431369       -1.0096851578
       -1.5148883500       -0.8964931416
       -1.4373552128       -0.9545029886
       -1.5397384815       -0.8468497827
       -1.5658533685       -0.7937877668
       -1.5939120696       -0.7389178950
       -1.8450103978       -0.6691049773
       -2.0000000000       -0.6520723427
       -1.7764882640       -0.6729549188
       -1.7085466859       -0.6722415699
       -1.4584223386       -0.9019416805
       -1.6243462189       -0.6805842166
       -1.8728865170       -0.6148483344
       -1.9372511128       -0.6076710438
       -2.0000000000       -0.5922795770
       -1.3073339391       -1.1990205890
       -1.3273342286       -1.1364723776
       -1.3435903106       -1.0764120815
       -1.3608359890       -1.0194220461
       -1.3797333564       -0.9637766711
       -1.4813243703       -0.8499224194
       -1.4007356288       -0.9095586864
       -1.5061364828       -0.7974405115
       -1.5319487358       -0.7436192662
       -1.5581396481       -0.6877370858
       -1.8084046403       -0.6213503032
       -1.7525302295       -0.6288000250
       -1.6466283149       -0.6195985539
       -1.4232286908       -0.8557066557
       -1.5821748719       -0.6318624495
       -1.9022677294       -0.5604083513
       -1.8364987388       -0.5660386576
       -1.9580544845       -0.5594477667
       -1.7085388153       -0.5866897877
       -1.2469256022       -1.2026417948
       -1.2673807014       -1.1430772117
       -1.2849085920       -1.0854179236
       -1.3015287018       -1.0277744719
       -1.3198093617       -0.9715499764
       -1.3417720535       -0.9177756381
       -1.4469252401       -0.8023991655
       -1.3648253287       -0.8625952804
       -1.4714880765       -0.7488635194
       -1.4962083029       -0.6940441060
       -1.5202251703       -0.6398330565
       -1.7707588852       -0.5740377107
       -2.0000000000       -0.5324868113
       -1.6018526999       -0.5787363672
       -1.6526410063       -0.5684192509
       -1.3882094388       -0.8084842237
       -1.5428021348       -0.5867201479
       -1.9430554468       -0.5047087867
       -1.8674100500       -0.5089863631
       -1.8005132301       -0.5169937752
       -1.7361508713       -0.5286933944
       -1.6804748510       -0.5297148216
       -1.1883097603       -1.2036444304
       -1.2086335009       -1.1489266097
       -1.2271517149       -1.0930530854
       -1.2410201713       -1.0351045898
       -1.2594961434       -0.9792443683
       -1.2829604857       -0.9261505027
       -1.3065594622       -0.8697649243
       -1.4119419315       -0.7546676588
       -1.3298724912       -0.8151058549
       -1.4357749644       -0.7002499575
       -1.4598187751       -0.6465499578
       -1.4828506411       -0.5932630379
       -2.0000000000       -0.4726940455
       -1.6215989077       -0.5283374652
       -1.5640720896       -0.5335959629
       -1.3531469412       -0.7609151109
       -1.5050083979       -0.5395781121
       -1.8944354647       -0.4516888606
       -1.8298079367       -0.4551880774
       -1.7652541097       -0.4666419261
       -1.9564497056       -0.4493697240
       -1.7041699885       -0.4739164416
       -1.6452076960       -0.4769489799
       -1.1299652591       -1.2027757756
       -1.1514399785       -1.1539039897
       -1.1714258112       -1.1013954368
       -1.1884210869       -1.0471264133
       -1.1967590266       -0.9892869259
       -1.2249053057       -0.9322329687
       -1.2488647985       -0.8761860375
       -1.2723632883       -0.8216564298
       -1.3762594684       -0.7064364554
       -1.2952298340       -0.7674192469
       -1.3995329568       -0.6531213202
       -1.4228755766       -0.5986272183
       -1.4448532623       -0.5449250384
       -2.0000000000       -0.4129012798
       -1.5860642637       -0.4806430715
       -1.5268178128       -0.4855487544
       -1.3176502895       -0.7127806204
       -1.4668755103       -0.4901151186
       -1.8555749917       -0.3945837263
       -1.9295666774       -0.4049318745
       -1.7918274162       -0.4092080397
       -1.7293241484       -0.4168415642
       -1.6690460110       -0.4223012653
       -1.6093010892       -0.4270044146
       -1.0743595513       -1.2030472308
       -1.0965398123       -1.1582747631
       -1.1177634116       -1.1076099677
       -1.1362318862       -1.0588536512
       -1.1522908812       -1.0176952668
       -1.1654332084       -0.9311210908
       -1.1916430646       -0.8796172857
       -1.2155882162       -0.8272141689
       -1.2382714279       -0.7737611889
       -1.3400843164       -0.6592786619
       -1.2599667054       -0.7192465290
       -1.3629411633       -0.6045886232
       -1.3855409877       -0.5505767075
       -1.4078305637       -0.4955147801
       -1.9572302918       -0.3690442497
       -1.5494966253       -0.4320523174
       -1.4893579978       -0.4374390323
       -1.1324604321       -0.9762361456
       -1.2813192924       -0.6653118725
       -1.4302468586       -0.4422449791
       -1.9066269178       -0.3492505045
       -1.8046766921       -0.3579730068
       -1.7529051760       -0.3613409226
       -1.6932413660       -0.3661093607
       -2.0000000000       -0.3531085141
       -1.6328699302       -0.3715037571
       -1.5724961664       -0.3771784451
       -1.0182947863       -1.2046309445
       -1.0429274602       -1.1596295420
       -1.0637920994       -1.1124107171
       -1.0852360739       -1.0633658219
       -1.1040530657       -1.0168644807
       -1.1078305109       -0.9261853005
       -1.1357318395       -0.8801459320
       -1.1601396976       -0.8313078931
       -1.1826135934       -0.7798795353
       -1.2035952013       -0.7259243616
       -1.3036466850       -0.6111452461
       -1.2233887323       -0.6714229694
       -1.3261447142       -0.5567636569
       -1.3485785863       -0.5012835976
       -1.3708867871       -0.4465054269
       -1.8428537320       -0.3148454340
       -1.9535656288       -0.3196651719
       -1.5122693411       -0.3826486147
       -1.4520347236       -0.3873944177
       -1.0722988785       -0.9732043683
       -1.2447302866       -0.6183475318
       -1.3917853065       -0.3889263020
       -1.9034635289       -0.2907128387
       -1.7799069826       -0.3078189762
       -1.7180017085       -0.3096241897
       -1.6573178675       -0.3135758454
       -2.0000000000       -0.2933157484
       -1.5954109938       -0.3205281195
       -1.5344232014       -0.3269522657
       -0.9618244820       -1.2054419467
       -0.9871154958       -1.1607107917
       -1.0111645227       -1.1148217235
       -1.0325494984       -1.0687678854
       -1.0543911228       -1.0197467254
       -1.0571739196       -0.9194822329
       -1.0833238841       -0.8783134390
       -1.1068445802       -0.8338665642
       -1.1284968031       -0.7855450286
       -1.1486057703       -0.7333276618
       -1.1673761840       -0.6784956006
       -1.2669075678       -0.5635151891
       -1.1861755474       -0.6258907551
       -1.2892908635       -0.5077436675
       -1.3118380390       -0.4520277393
       -1.3344140665       -0.3935623439
       -1.8603311064       -0.2615006826
       -1.8070983329       -0.2517732876
       -1.9527439003       -0.2629858528
       -1.4755998771       -0.3338731183
       -1.4135421106       -0.3379423380
       -1.0239970821       -0.9855715838
       -1.0316796068       -0.9499277714
       -1.2075371253       -0.5710545312
       -1.3598830954       -0.3427590338
       -1.9045909384       -0.2356094844
       -1.7425484752       -0.2552135803
       -1.6817431562       -0.2539621750
       -1.6199392013       -0.2588263475
       -2.0000000000       -0.2335229826
       -1.5563747785       -0.2717337185
       -1.4994096016       -0.2827314313
       -0.9064370273       -1.2065236939
       -0.9325959520       -1.1617106150
       -0.9571312283       -1.1172230906
       -0.9813534276       -1.0722724830
       -1.0031001502       -1.0281248307
       -1.0349238308       -0.8765862351
       -1.0120750991       -0.9145528533
       -1.0568175017       -0.8353088617
       -1.0770343336       -0.7907341955
       -1.0955650347       -0.7417285219
       -1.1132443520       -0.6883296663
       -1.1277845365       -0.6325275594
       -1.2299427012       -0.5147914210
       -1.1462759153       -0.5797091727
       -1.2522232719       -0.4582355492
       -1.2744429395       -0.3996252721
       -1.2985998749       -0.3488021632
       -1.8533573016       -0.2132182426
       -1.7609280259       -0.2101825491
       -1.9526405200       -0.2051371526
       -1.4395251513       -0.2901899366
       -1.3826734475       -0.2903166640
       -0.9930615250       -0.9511898988
       -0.9744302481       -0.9905173855
       -1.1702187549       -0.5223331196
       -1.3232883255       -0.2848626283
       -1.8033240934       -0.1893060872
       -1.9028878623       -0.1791390294
       -1.7126418664       -0.2062514501
       -1.6440860744       -0.2005833165
       -1.5798305879       -0.2174062629
       -2.0000000000       -0.1737302169
       -1.5188129559       -0.2304873231
       -1.4606803707       -0.2396692367
       -0.8519747811       -1.2094804302
       -0.8789426811       -1.1629556803
       -0.9033481529       -1.1184449917
       -0.9284168927       -1.0745602848
       -0.9531550704       -1.0315294873
       -0.9892227859       -0.8764695514
       -1.0101549371       -0.8367797386
       -0.9687227263       -0.9147030305
       -1.0292875886       -0.7955186153
       -1.0466007432       -0.7505360640
       -1.0608248772       -0.7010246195
       -1.0760645268       -0.6455557644
       -1.0848964054       -0.5888191580
       -1.1926188105       -0.4650773457
       -1.1108506298       -0.5301743840
       -1.2144470654       -0.4067126917
       -1.2381683224       -0.3562306813
       -1.2601425190       -0.2956385180
       -1.8513402899       -0.1548751220
       -1.7503237286       -0.1580950803
       -1.9517009499       -0.1462588329
       -1.4106036079       -0.2497965448
       -1.3525884768       -0.2275139667
       -0.9480896679       -0.9531627764
       -0.9269683557       -0.9922156112
       -1.1339772713       -0.4723028231
       -1.2778350404       -0.2275941022
       -1.8052175085       -0.1373030506
       -1.9002060679       -0.1194922025
       -1.6867326078       -0.1471026525
       -1.5885722857       -0.1567339770
       -1.5344490742       -0.1737468773
       -2.0000000000       -0.1139374512
       -1.4768339198       -0.1857266959
       -1.4183925931       -0.2000735778
       -0.8060661617       -1.2121744587
       -0.8259119132       -1.1678758242
       -0.8486080267       -1.1191481235
       -0.8737889387       -1.0744530386
       -0.9020727101       -1.0327961913
       -0.9455556310       -0.8776239759
       -0.9654249294       -0.8389094369
       -0.9843178107       -0.7992023517
       -0.9245196053       -0.9160052397
       -1.0011108969       -0.7582605219
       -1.0155358427       -0.7143061794
       -1.0210821716       -0.6622683447
       -1.0423329305       -0.6184781131
       -1.0537353040       -0.5304668412
       -1.1546880574       -0.4143633115
       -1.0779621396       -0.4791173191
       -1.1778893216       -0.3638537004
       -1.2011863519       -0.3054548934
       -1.2213803900       -0.2534717027
       -1.8417802600       -0.0907880287
       -1.7807291538       -0.0929361905
       -1.6336485498       -0.1383018549
       -1.9506649933       -0.0869609513
       -1.3113399575       -0.1725452016
       -0.9024732636       -0.9541809089
       -0.8793269126       -0.9924941041
       -1.0264211297       -0.5759690838
       -1.0973499481       -0.4226899951
       -1.2040211899       -0.1999078488
       -1.8992485676       -0.0606845211
       -1.7174773015       -0.0964580797
       -1.5486339383       -0.1234634413
       -1.5899228148       -0.0943221562
       -1.4959446736       -0.1301848841
       -2.0000000000       -0.0541446854
       -1.4360454492       -0.1422109827
       -1.3746940484       -0.1581320209
       -1.2591803657       -0.1731256658
       -0.7784795227       -1.1844886067
       -0.8007340030       -1.1279785911
       -0.8213135832       -1.0724843341
       -0.8534586402       -1.0309938774
       -0.9027418231       -0.8792242723
       -0.9229170016       -0.8410107514
       -0.9413207393       -0.8023804944
       -0.9582759434       -0.7632161739
       -0.8804422725       -0.9172733134
       -0.9734437006       -0.7244227846
       -0.9871227604       -0.6883663333
       -0.9994171195       -0.6186163255
       -0.9973842154       -0.5255143397
       -1.0210220521       -0.4794632988
       -1.1161316359       -0.3712655019
       -1.0482204062       -0.4356261068
       -1.1412570677       -0.3123411073
       -1.1691562224       -0.2518162931
       -1.8095773332       -0.0421297889
       -1.8566550404       -0.0369024669
       -1.6597397702       -0.0936278202
       -1.7498180121       -0.0425139090
       -1.9486206106       -0.0277185321
       -1.3354842217       -0.1096687557
       -1.2773545899       -0.1205363499
       -0.7285099546       -1.1991102644
       -0.8536410036       -0.9554401243
       -0.8375933902       -0.9888246753
       -0.9753165910       -0.6555570055
       -0.9756291543       -0.5727848729
       -1.0523578729       -0.3801921287
       -1.1363603801       -0.2010294037
       -1.2192747818       -0.1328629325
       -1.8941582023       -0.0025760641
       -1.6904391413       -0.0422159283
       -1.5253260535       -0.0737024804
       -1.6301494157       -0.0396954015
       -1.4564544505       -0.0843142665
       -2.0000000000        0.0056480677
       -1.3954450431       -0.0963052831
       -0.7491047972       -1.1405175708
       -0.7697883842       -1.0878477665
       -0.8098218296       -1.0135075455
       -0.8617616901       -0.8804988270
       -0.8820523140       -0.8430659160
       -0.9005435674       -0.8051365984
       -0.9171449861       -0.7664793155
       -0.9328837489       -0.7276736295
       -0.8368667276       -0.9199636967
       -0.9508675278       -0.6919317116
       -0.9535544316       -0.6161972160
       -0.9476287084       -0.5272364218
       -0.9687207822       -0.4814628579
       -0.9951652368       -0.4243409233
       -1.0791178004       -0.3215171713
       -1.1062643849       -0.2590771325
       -1.1564078587       -0.1455337925
       -1.8420532232        0.0106437810
       -1.7831704520        0.0095753498
       -1.7222608297        0.0095292114
       -1.5680192373       -0.0348211327
       -1.9442691010        0.0321018632
       -1.2979357905       -0.0629965014
       -1.3566455775       -0.0488092712
       -1.2404753540       -0.0722182075
       -0.6739665715       -1.2018267589
       -0.6970657464       -1.1478612803
       -0.7817375087       -1.0445930010
       -0.8025731268       -0.9600731393
       -0.9312906138       -0.6558993024
       -0.9300863976       -0.5751105091
       -1.0216672709       -0.3253660681
       -0.9970986161       -0.3674060267
       -1.0684494586       -0.2071686660
       -1.0960017372       -0.1474064196
       -1.1804086502       -0.0859023719
       -1.8795082516        0.0588084033
       -1.6632025579        0.0113918475
       -1.5221269736       -0.0195432041
       -1.4735056611       -0.0281526479
       -1.6048646960        0.0154169642
       -1.4130723047       -0.0359286020
       -2.0000000000        0.0654396748
       -0.7190239929       -1.0956715171
       -0.7408499145       -1.0474448511
       -0.7678084676       -1.0018850293
       -0.8237459677       -0.8802741429
       -0.8434283773       -0.8443492612
       -0.8615621220       -0.8079134619
       -0.8782607903       -0.7700618634
       -0.8923179383       -0.7303740581
       -0.9096783547       -0.6955840583
       -0.8049470383       -0.9129493937
       -0.9102817344       -0.6176561034
       -0.9126855021       -0.4899482097
       -0.9052387438       -0.5375172731
       -0.9349573016       -0.4344482870
       -1.0439396551       -0.2676639706
       -0.9481205956       -0.3795876284
       -1.1203338183       -0.0959165070
       -1.8191457162        0.0592879737
       -1.7550221179        0.0600470731
       -1.6946690915        0.0613599698
       -1.5473653484        0.0206107274
       -1.9421490912        0.0921778947
       -1.2612278731       -0.0128575699
       -1.3215551405       -0.0166192272
       -1.3707239903        0.0103421316
       -1.2037304486       -0.0293723264
       -0.6184606824       -1.2005038062
       -0.6434194341       -1.1513692363
       -0.6680517338       -1.1000898478
       -0.7430748140       -0.9549605630
       -0.7706192607       -0.9193702417
       -0.8891892291       -0.6573721626
       -0.8887503085       -0.5804249993
       -0.9646351703       -0.3311149437
       -0.9845466959       -0.2767085953
       -1.0035535959       -0.2183331534
       -1.0225509621       -0.1478951085
       -1.0602185645       -0.0971880931
       -1.1449503412       -0.0383358806
       -1.8457960685        0.1063788915
       -1.6363172410        0.0641819974
       -1.4938143088        0.0216434267
       -1.4365368981        0.0161918941
       -1.5785187694        0.0681319307
       -1.8949900972        0.1147674866
       -2.0000000000        0.1252155357
       -0.6911837960       -1.0517788555
       -0.7156654712       -1.0047929602
       -0.7880636419       -0.8807004483
       -0.8065920984       -0.8453405556
       -0.8244606564       -0.8101317762
       -0.8412024929       -0.7744719266
       -0.8565678275       -0.7368614878
       -0.8659709849       -0.6991018136
       -0.8698604156       -0.6190549125
       -0.8800344749       -0.4414346286
       -0.8800822670       -0.5161668914
       -0.8671853586       -0.5489970830
       -0.8964400581       -0.3870129823
       -0.9137617775       -0.3423810175
       -1.0855941339       -0.0431214774
       -1.7859919476        0.1084965910
       -1.7256827499        0.1102364249
       -1.6669142993        0.1123141490
       -1.5220707697        0.0708237711
       -1.9356473490        0.1553558796
       -1.2170174013        0.0184428286
       -1.3074978709        0.0323713050
       -1.4072459705        0.0695010039
       -1.1685395901        0.0151303280
       -0.5655205444       -1.2027050784
       -0.5933351056       -1.1530232411
       -0.6184274700       -1.1030494011
       -0.6424971940       -1.0553807513
       -0.6875283719       -0.9634141375
       -0.7376444327       -0.9123233118
       -0.7525663374       -0.8815197932
       -0.8489323353       -0.6549874008
       -0.8508078680       -0.5844480621
       -0.8623359091       -0.4827450463
       -0.9288890354       -0.2879902615
       -0.9441921595       -0.2324169823
       -0.9576757348       -0.1762305244
       -1.0089733254       -0.0912895596
       -1.0289891435       -0.0435341944
       -1.1099711014        0.0099851504
       -1.8143536114        0.1566509914
       -1.8753010451        0.1566918743
       -1.6091429630        0.1151959820
       -1.4657917065        0.0704464040
       -1.5511800801        0.1182916778
       -2.0000000000        0.1848987863
       -1.2509582388        0.0501319547
       -1.3479675350        0.0754551605
       -0.6655214004       -1.0094930076
       -0.7016053216       -0.9209430899
       -0.7703204917       -0.8463973938
       -0.7885433777       -0.8116584238
       -0.8055452011       -0.7774685658
       -0.8213806251       -0.7439058843
       -0.8353166240       -0.7159782643
       -0.8242082311       -0.6867653081
       -0.8323508705       -0.6184239906
       -0.8415471538       -0.3942194811
       -0.8322712291       -0.4507393083
       -0.8468330964       -0.5197034625
       -0.8321461251       -0.5537735204
       -0.8635513705       -0.3509681422
       -0.8776554402       -0.2994076510
       -0.9564297673       -0.1094157797
       -1.0510404327        0.0073147776
       -1.7551865408        0.1580478808
       -1.6969380748        0.1598059722
       -1.6394794900        0.1619400334
       -1.4965297622        0.1216582536
       -1.9022515727        0.2016453582
       -1.9526316605        0.2077365364
       -1.1977618859        0.0684461686
       -1.2917134703        0.0879305877
       -1.3827439455        0.1237225697
       -1.4395282496        0.1218044333
       -1.1358478823        0.0617473125
       -0.5103708303       -1.2036212082
       -0.5411309870       -1.1519963879
       -0.5685701645       -1.1034411166
       -0.5943536229       -1.0570258390
       -0.6181720119       -1.0123859528
       -0.6402411578       -0.9684471706
       -0.6599847604       -0.9246428683
       -0.7159524338       -0.8824365751
       -0.7337719080       -0.8474585668
       -0.8111703436       -0.6501205402
       -0.8157876629       -0.5857844924
       -0.8265758221       -0.4900850378
       -0.8888433388       -0.2462608047
       -0.9049508039       -0.1955893717
       -0.9177140864       -0.1478275597
       -0.9729351234       -0.0502228994
       -0.9980901380        0.0023712001
       -1.0763502664        0.0572119001
       -1.8424325954        0.2039697393
       -1.7834397237        0.2053280238
       -1.5822400561        0.1646231901
       -1.5241315750        0.1676948496
       -2.0000000000        0.2442968194
       -1.2397792304        0.1006343664
       -1.3280717806        0.1294550138
       -0.6747143971       -0.8856256481
       -0.7526184328       -0.8129067675
       -0.7706807371       -0.7790035716
       -0.7873607150       -0.7456967940
       -0.8030690530       -0.7135418113
       -0.7847941948       -0.6821782671
       -0.7978673968       -0.6158070575
       -0.8191083990       -0.3540976863
       -0.8067293709       -0.4167162289
       -0.8052266846       -0.4721345702
       -0.8133837109       -0.5249700937
       -0.7987681632       -0.5564085384
       -0.8309549757       -0.3091168873
       -0.8408286579       -0.2621901561
       -0.8994866946       -0.1071180847
       -0.9237164573       -0.0607325720
       -1.0231160762        0.0532051453
       -1.7258089983        0.2066112053
       -1.6691794103        0.2081209081
       -1.6129396216        0.2100871223
       -1.4713405002        0.1729826604
       -1.8696882707        0.2507849627
       -1.9322776250        0.2495253432
       -1.1574409496        0.1133297513
       -1.1994848504        0.1182395095
       -1.2763929139        0.1387586095
       -1.3598039578        0.1725154103
       -1.4141717969        0.1722659823
       -1.1047898699        0.1066928065
       -0.4549399260       -1.2030774776
       -0.4884264924       -1.1500607206
       -0.5186922972       -1.1017529255
       -0.5461206625       -1.0566415937
       -0.5717505845       -1.0132594043
       -0.5950352396       -0.9709508019
       -0.6161781139       -0.9289479961
       -0.6361245187       -0.8864402004
       -0.6955229439       -0.8478128143
       -0.7165911287       -0.8134759551
       -0.7779728276       -0.6437380021
       -0.7829474294       -0.5854630740
       -0.7969798529       -0.3845244455
       -0.7915576590       -0.4455890647
       -0.7943298598       -0.4988054474
       -0.8475803223       -0.2090687022
       -0.8720934001       -0.1540124703
       -0.9358478458       -0.0029060458
       -0.9669462060        0.0507424293
       -1.0454996480        0.1077622701
       -1.8107817143        0.2520572816
       -1.7535957828        0.2528758975
       -1.5564448589        0.2129063215
       -1.4983224817        0.2171443667
       -1.9545059070        0.2938467379
       -1.2278606921        0.1502310811
       -1.3092763862        0.1776148619
       -0.6514348227       -0.8455702406
       -0.7356395177       -0.7801800025
       -0.7533377630       -0.7473259350
       -0.7700278501       -0.7139703279
       -0.7591172643       -0.6640786463
       -0.7656948101       -0.6130248484
       -0.7754468680       -0.3484923614
       -0.7964847642       -0.3193380889
       -0.7730027529       -0.4164633597
       -0.7765838810       -0.4742373799
       -0.7811139050       -0.5286790181
       -0.7669059252       -0.5572306221
       -0.7946746444       -0.2787185191
       -0.8431077706       -0.1075811229
       -0.8691374217       -0.0637788951
       -0.9945897063        0.0990860890
       -1.6976706121        0.2535880720
       -1.6426311480        0.2546823406
       -1.5879186781        0.2564990359
       -1.4443742094        0.2263932120
       -1.8373926266        0.2996712164
       -1.8962005102        0.2983955497
       -2.0000000000        0.3032089395
       -1.1306015073        0.1510529236
       -1.1755265602        0.1605455939
       -1.2610477295        0.1860381621
       -1.3383079305        0.2169326948
       -1.3872426242        0.2160375758
       -1.0825864453        0.1487573506
       -0.4015169746       -1.1994083463
       -0.4355445102       -1.1456463319
       -0.4680211908       -1.0978462951
       -0.4983101317       -1.0537398576
       -0.5254976987       -1.0120983324
       -0.5505738258       -0.9713003652
       -0.5732206277       -0.9309613647
       -0.5937767773       -0.8914725088
       -0.6132720981       -0.8521031847
       -0.6807580135       -0.8122339121
       -0.7519782660       -0.6888544165
       -0.7008980878       -0.7804615062
       -0.7480900894       -0.6384969049
       -0.7514275872       -0.5846511096
       -0.7494891303       -0.3799201428
       -0.7586291537       -0.4466878448
       -0.7639117115       -0.5025947510
       -0.8095270225       -0.2374545419
       -0.8176032396       -0.1541754356
       -0.8908035875       -0.0251589600
       -0.9126059575        0.0569259881
       -0.9385155268        0.0986346144