 VARIABLES = "X",  "Y"
 ZONE N=        2567 , E=        4691 , F=FEPOINT, ET=TRIANGLE
        0.9961947000        0.0871557400
        0.0000000000        0.0000000000
        3.0000000000       -0.1570790000
       -2.0000000000       -0.1570790000
        3.0000000000        0.1570790000
       -2.0000000000        0.1570790000
        0.9661300863        0.0887923312
        0.9360573331        0.0902718747
        0.9059776632        0.0916034747
        0.8758920824        0.0927941175
        0.8458014338        0.0938489775
        0.8157064896        0.0947732783
        0.7856078806        0.0955693771
        0.7555061791        0.0962385021
        0.7254019146        0.0967800794
        0.6952956334        0.0971947242
        0.6651878240        0.0974772307
        0.6350790467        0.0976236207
        0.6049699184        0.0976273327
        0.5748611523        0.0974801209
        0.5447536153        0.0971714411
        0.5146483655        0.0966890625
        0.4845467223        0.0960186571
        0.4544504447        0.0951401048
        0.4243615907        0.0940365943
        0.3942829912        0.0926823796
        0.3642182021        0.0910504523
        0.3341718772        0.0891084315
        0.3041501159        0.0868183229
        0.2741608444        0.0841366558
        0.2442148367        0.0810093565
        0.2143269443        0.0773691047
        0.1845180801        0.0731316965
        0.1548219514        0.0681860644
        0.1253350522        0.0623905804
        0.0965958127        0.0556392937
        0.0708384853        0.0483079767
        0.0508705363        0.0413978110
        0.0366190578        0.0354511197
        0.0262545811        0.0302840590
        0.0186263458        0.0257502827
        0.0128418265        0.0216293587
        0.0085266663        0.0178913231
        0.0053640352        0.0144932864
        0.0030930591        0.0113684324
        0.0015260915        0.0084577545
        0.0005270902        0.0056777787
        0.0000113509        0.0028839409
        0.0004924319       -0.0027631269
        0.0013822332       -0.0052361855
        0.0026849025       -0.0076277059
        0.0045361168       -0.0101093760
        0.0070634583       -0.0126945014
        0.0103947422       -0.0153683519
        0.0146836132       -0.0181159177
        0.0201261588       -0.0209280283
        0.0269159613       -0.0237677808
        0.0354496062       -0.0266508984
        0.0463343352       -0.0295813421
        0.0605586237       -0.0325476430
        0.0801280115       -0.0355279294
        0.1054339476       -0.0380703996
        0.1344471893       -0.0396851501
        0.1644175927       -0.0402660259
        0.1945126235       -0.0399772472
        0.2246005345       -0.0389720561
        0.2546627508       -0.0373655039
        0.2846931248       -0.0352440581
        0.3146887249       -0.0326765252
        0.3446483351       -0.0297179771
        0.3745716998       -0.0264125539
        0.4044594115       -0.0227987039
        0.4343125127       -0.0189091155
        0.4641321868       -0.0147709524
        0.4939201195       -0.0104100650
        0.5236772044       -0.0058433640
        0.5534051973       -0.0010909237
        0.5831052911        0.0038328944
        0.6127785634        0.0089158923
        0.6424259930        0.0141475301
        0.6720483098        0.0195195630
        0.7016460398        0.0250254562
        0.7312193298        0.0306611557
        0.7607685956        0.0364214877
        0.7902931943        0.0423069548
        0.8197927036        0.0483169030
        0.8492663500        0.0544524273
        0.8787130985        0.0607157617
        0.9081312844        0.0671119036
        0.9375191786        0.0736458049
        0.9668745771        0.0803241725
        2.9699286373       -0.1570790000
        2.9398572745       -0.1570790000
        2.9097859118       -0.1570790000
        2.8797145490       -0.1570790000
        2.8496431863       -0.1570790000
        2.8195718235       -0.1570790000
        2.7895004608       -0.1570790000
        2.7594290980       -0.1570790000
        2.7293577353       -0.1570790000
        2.6992863725       -0.1570790000
        2.6692150098       -0.1570790000
        2.6391436471       -0.1570790000
        2.6090722843       -0.1570790000
        2.5790009216       -0.1570790000
        2.5489295588       -0.1570790000
        2.5188581961       -0.1570790000
        2.4887868333       -0.1570790000
        2.4587154706       -0.1570790000
        2.4286441078       -0.1570790000
        2.3985727451       -0.1570790000
        2.3685013823       -0.1570790000
        2.3384300196       -0.1570790000
        2.3083586569       -0.1570790000
        2.2782872941       -0.1570790000
        2.2482159314       -0.1570790000
        2.2181445686       -0.1570790000
        2.1880732059       -0.1570790000
        2.1580018431       -0.1570790000
        2.1279304804       -0.1570790000
        2.0978591176       -0.1570790000
        2.0677877549       -0.1570790000
        2.0377163921       -0.1570790000
        2.0076450294       -0.1570790000
        1.9775736667       -0.1570790000
        1.9475023039       -0.1570790000
        1.9174309412       -0.1570790000
        1.8873595784       -0.1570790000
        1.8572882157       -0.1570790000
        1.8272168529       -0.1570790000
        1.7971454902       -0.1570790000
        1.7670741274       -0.1570790000
        1.7370027647       -0.1570790000
        1.7069314020       -0.1570790000
        1.6768600392       -0.1570790000
        1.6467886765       -0.1570790000
        1.6167173137       -0.1570790000
        1.5866459510       -0.1570790000
        1.5565745882       -0.1570790000
        1.5265032255       -0.1570790000
        1.4964318627       -0.1570790000
        1.4663605000       -0.1570790000
        1.4362891372       -0.1570790000
        1.4062177745       -0.1570790000
        1.3761464118       -0.1570790000
        1.3460750490       -0.1570790000
        1.3160036863       -0.1570790000
        1.2859323235       -0.1570790000
        1.2558609608       -0.1570790000
        1.2257895980       -0.1570790000
        1.1957182353       -0.1570790000
        1.1656468725       -0.1570790000
        1.1355755098       -0.1570790000
        1.1055041470       -0.1570790000
        1.0754327843       -0.1570790000
        1.0453614216       -0.1570790000
        1.0152900588       -0.1570790000
        0.9852186961       -0.1570790000
        0.9551473333       -0.1570790000
        0.9250759706       -0.1570790000
        0.8950046078       -0.1570790000
        0.8649332451       -0.1570790000
        0.8348618823       -0.1570790000
        0.8047905196       -0.1570790000
        0.7747191568       -0.1570790000
        0.7446477941       -0.1570790000
        0.7145764314       -0.1570790000
        0.6845050686       -0.1570790000
        0.6544337059       -0.1570790000
        0.6243623431       -0.1570790000
        0.5942909804       -0.1570790000
        0.5642196176       -0.1570790000
        0.5341482549       -0.1570790000
        0.5040768921       -0.1570790000
        0.4740055294       -0.1570790000
        0.4439341666       -0.1570790000
        0.4138628039       -0.1570790000
        0.3837914412       -0.1570790000
        0.3537200784       -0.1570790000
        0.3236487157       -0.1570790000
        0.2935773529       -0.1570790000
        0.2635059902       -0.1570790000
        0.2334346274       -0.1570790000
        0.2033632666       -0.1570790000
        0.1732919911       -0.1570790000
        0.1432229929       -0.1570790000
        0.1131891485       -0.1570790000
        0.0834313271       -0.1570790000
        0.0547134509       -0.1570790000
        0.0277759160       -0.1570790000
        0.0025364957       -0.1570790000
       -0.0214179494       -0.1570790000
       -0.0448376874       -0.1570790000
       -0.0683583118       -0.1570790000
       -0.0916896643       -0.1570790000
       -0.1159210179       -0.1570790000
       -0.1414367661       -0.1570790000
       -0.1682807998       -0.1570790000
       -0.1965284799       -0.1570790000
       -0.2259404124       -0.1570790000
       -0.2558748278       -0.1570790000
       -0.2859330087       -0.1570790000
       -0.3160037011       -0.1570790000
       -0.3460750490       -0.1570790000
       -0.3761464118       -0.1570790000
       -0.4062177745       -0.1570790000
       -0.4362891372       -0.1570790000
       -0.4663605000       -0.1570790000
       -0.4964318627       -0.1570790000
       -0.5265032255       -0.1570790000
       -0.5565745882       -0.1570790000
       -0.5866459510       -0.1570790000
       -0.6167173137       -0.1570790000
       -0.6467886765       -0.1570790000
       -0.6768600392       -0.1570790000
       -0.7069314020       -0.1570790000
       -0.7370027647       -0.1570790000
       -0.7670741274       -0.1570790000
       -0.7971454902       -0.1570790000
       -0.8272168529       -0.1570790000
       -0.8572882157       -0.1570790000
       -0.8873595784       -0.1570790000
       -0.9174309412       -0.1570790000
       -0.9475023039       -0.1570790000
       -0.9775736667       -0.1570790000
       -1.0076450294       -0.1570790000
       -1.0377163921       -0.1570790000
       -1.0677877549       -0.1570790000
       -1.0978591176       -0.1570790000
       -1.1279304804       -0.1570790000
       -1.1580018431       -0.1570790000
       -1.1880732059       -0.1570790000
       -1.2181445686       -0.1570790000
       -1.2482159314       -0.1570790000
       -1.2782872941       -0.1570790000
       -1.3083586569       -0.1570790000
       -1.3384300196       -0.1570790000
       -1.3685013823       -0.1570790000
       -1.3985727451       -0.1570790000
       -1.4286441078       -0.1570790000
       -1.4587154706       -0.1570790000
       -1.4887868333       -0.1570790000
       -1.5188581961       -0.1570790000
       -1.5489295588       -0.1570790000
       -1.5790009216       -0.1570790000
       -1.6090722843       -0.1570790000
       -1.6391436471       -0.1570790000
       -1.6692150098       -0.1570790000
       -1.6992863725       -0.1570790000
       -1.7293577353       -0.1570790000
       -1.7594290980       -0.1570790000
       -1.7895004608       -0.1570790000
       -1.8195718235       -0.1570790000
       -1.8496431863       -0.1570790000
       -1.8797145490       -0.1570790000
       -1.9097859118       -0.1570790000
       -1.9398572745       -0.1570790000
       -1.9699286373       -0.1570790000
        3.0000000000        0.1256632000
        3.0000000000        0.0942474000
        3.0000000000        0.0628316000
        3.0000000000        0.0314158000
        3.0000000000       -0.0000000000
        3.0000000000       -0.0314158000
        3.0000000000       -0.0628316000
        3.0000000000       -0.0942474000
        3.0000000000       -0.1256632000
       -1.9699286373        0.1570790000
       -1.9398572745        0.1570790000
       -1.9097859118        0.1570790000
       -1.8797145490        0.1570790000
       -1.8496431863        0.1570790000
       -1.8195718235        0.1570790000
       -1.7895004608        0.1570790000
       -1.7594290980        0.1570790000
       -1.7293577353        0.1570790000
       -1.6992863725        0.1570790000
       -1.6692150098        0.1570790000
       -1.6391436471        0.1570790000
       -1.6090722843        0.1570790000
       -1.5790009216        0.1570790000
       -1.5489295588        0.1570790000
       -1.5188581961        0.1570790000
       -1.4887868333        0.1570790000
       -1.4587154706        0.1570790000
       -1.4286441078        0.1570790000
       -1.3985727451        0.1570790000
       -1.3685013823        0.1570790000
       -1.3384300196        0.1570790000
       -1.3083586569        0.1570790000
       -1.2782872941        0.1570790000
       -1.2482159314        0.1570790000
       -1.2181445686        0.1570790000
       -1.1880732059        0.1570790000
       -1.1580018431        0.1570790000
       -1.1279304804        0.1570790000
       -1.0978591176        0.1570790000
       -1.0677877549        0.1570790000
       -1.0377163921        0.1570790000
       -1.0076450294        0.1570790000
       -0.9775736667        0.1570790000
       -0.9475023039        0.1570790000
       -0.9174309412        0.1570790000
       -0.8873595784        0.1570790000
       -0.8572882157        0.1570790000
       -0.8272168529        0.1570790000
       -0.7971454902        0.1570790000
       -0.7670741274        0.1570790000
       -0.7370027647        0.1570790000
       -0.7069314020        0.1570790000
       -0.6768600392        0.1570790000
       -0.6467886765        0.1570790000
       -0.6167173137        0.1570790000
       -0.5866459510        0.1570790000
       -0.5565745882        0.1570790000
       -0.5265032255        0.1570790000
       -0.4964318627        0.1570790000
       -0.4663605000        0.1570790000
       -0.4362891372        0.1570790000
       -0.4062177745        0.1570790000
       -0.3761464118        0.1570790000
       -0.3460750490        0.1570790000
       -0.3160037011        0.1570790000
       -0.2859330087        0.1570790000
       -0.2558748278        0.1570790000
       -0.2259404124        0.1570790000
       -0.1965284799        0.1570790000
       -0.1682807998        0.1570790000
       -0.1414367661        0.1570790000
       -0.1159210179        0.1570790000
       -0.0916896643        0.1570790000
       -0.0683583118        0.1570790000
       -0.0448376874        0.1570790000
       -0.0214179494        0.1570790000
        0.0025364957        0.1570790000
        0.0277759160        0.1570790000
        0.0547134509        0.1570790000
        0.0834313271        0.1570790000
        0.1131891485        0.1570790000
        0.1432229929        0.1570790000
        0.1732919911        0.1570790000
        0.2033632666        0.1570790000
        0.2334346274        0.1570790000
        0.2635059902        0.1570790000
        0.2935773529        0.1570790000
        0.3236487157        0.1570790000
        0.3537200784        0.1570790000
        0.3837914412        0.1570790000
        0.4138628039        0.1570790000
        0.4439341666        0.1570790000
        0.4740055294        0.1570790000
        0.5040768921        0.1570790000
        0.5341482549        0.1570790000
        0.5642196176        0.1570790000
        0.5942909804        0.1570790000
        0.6243623431        0.1570790000
        0.6544337059        0.1570790000
        0.6845050686        0.1570790000
        0.7145764314        0.1570790000
        0.7446477941        0.1570790000
        0.7747191568        0.1570790000
        0.8047905196        0.1570790000
        0.8348618823        0.1570790000
        0.8649332451        0.1570790000
        0.8950046078        0.1570790000
        0.9250759706        0.1570790000
        0.9551473333        0.1570790000
        0.9852186961        0.1570790000
        1.0152900588        0.1570790000
        1.0453614216        0.1570790000
        1.0754327843        0.1570790000
        1.1055041470        0.1570790000
        1.1355755098        0.1570790000
        1.1656468725        0.1570790000
        1.1957182353        0.1570790000
        1.2257895980        0.1570790000
        1.2558609608        0.1570790000
        1.2859323235        0.1570790000
        1.3160036863        0.1570790000
        1.3460750490        0.1570790000
        1.3761464118        0.1570790000
        1.4062177745        0.1570790000
        1.4362891372        0.1570790000
        1.4663605000        0.1570790000
        1.4964318627        0.1570790000
        1.5265032255        0.1570790000
        1.5565745882        0.1570790000
        1.5866459510        0.1570790000
        1.6167173137        0.1570790000
        1.6467886765        0.1570790000
        1.6768600392        0.1570790000
        1.7069314020        0.1570790000
        1.7370027647        0.1570790000
        1.7670741274        0.1570790000
        1.7971454902        0.1570790000
        1.8272168529        0.1570790000
        1.8572882157        0.1570790000
        1.8873595784        0.1570790000
        1.9174309412        0.1570790000
        1.9475023039        0.1570790000
        1.9775736667        0.1570790000
        2.0076450294        0.1570790000
        2.0377163921        0.1570790000
        2.0677877549        0.1570790000
        2.0978591176        0.1570790000
        2.1279304804        0.1570790000
        2.1580018431        0.1570790000
        2.1880732059        0.1570790000
        2.2181445686        0.1570790000
        2.2482159314        0.1570790000
        2.2782872941        0.1570790000
        2.3083586569        0.1570790000
        2.3384300196        0.1570790000
        2.3685013823        0.1570790000
        2.3985727451        0.1570790000
        2.4286441078        0.1570790000
        2.4587154706        0.1570790000
        2.4887868333        0.1570790000
        2.5188581961        0.1570790000
        2.5489295588        0.1570790000
        2.5790009216        0.1570790000
        2.6090722843        0.1570790000
        2.6391436471        0.1570790000
        2.6692150098        0.1570790000
        2.6992863725        0.1570790000
        2.7293577353        0.1570790000
        2.7594290980        0.1570790000
        2.7895004608        0.1570790000
        2.8195718235        0.1570790000
        2.8496431863        0.1570790000
        2.8797145490        0.1570790000
        2.9097859118        0.1570790000
        2.9398572745        0.1570790000
        2.9699286373        0.1570790000
       -2.0000000000       -0.1256632000
       -2.0000000000       -0.0942474000
       -2.0000000000       -0.0628316000
       -2.0000000000       -0.0314158000
       -2.0000000000        0.0000000000
       -2.0000000000        0.0314158000
       -2.0000000000        0.0628316000
       -2.0000000000        0.0942474000
       -2.0000000000        0.1256632000
       -0.2095606855       -0.1316942367
       -0.2191760781       -0.1053715718
        2.8337810813       -0.1323646147
       -0.1383734639        0.1173046599
        1.3117413318       -0.1336169164
        0.6754587963        0.1243902192
        0.4036951312        0.1216401978
        0.7659046106        0.1232793377
        0.7054693410        0.1241961027
        0.7356942260        0.1237380421
        0.9966206099        0.1118003133
        0.9988626534        0.1354118912
        0.9743257964        0.1257801223
        0.4949415212        0.1236739502
        0.4344313226        0.1223927713
        0.4647436800        0.1230377450
        0.6454040688        0.1245575486
        0.6151609640        0.1246127867
        0.8562885160        0.1212004504
        0.7958072107        0.1227685643
        0.8260805296        0.1219697000
        0.5248017274        0.1241927317
        0.5851944946        0.1245693302
        0.5550391148        0.1244024804
        0.9461521873        0.1199034776
        0.8861993144        0.1204352364
        0.9163942460        0.1196201126
        2.9829384176        0.0488584364
        2.5970869847       -0.1330156912
        1.0230534014        0.1313596976
        2.9767365733        0.0235889049
        2.8638296708       -0.1319292601
        2.8477826052       -0.1057696933
        2.8778978449       -0.1061069716
        2.8938674334       -0.1317616195
        2.5726612332       -0.1353892592
        2.5840177337       -0.1126664383
        2.9707399144        0.1369353619
        2.9684569971        0.1047449210
        2.9767317951        0.0740509444
        2.9608069096        0.0495726268
        2.9498080618        0.0768442996
        2.8162209490       -0.0544648550
        2.8622407872       -0.0809274032
        2.8329975321       -0.0817789144
        2.8018564060       -0.0806693202
        2.8188452427       -0.1065865375
        2.8043221838       -0.1326890519
        2.7737059262       -0.1321107545
        2.7876217528       -0.1061326856
        2.7583913013       -0.1061250450
        2.8158775157       -0.0034857694
        2.8011949556       -0.0292839622
        2.7866340978       -0.0550442883
        2.7722936711       -0.0808867951
        2.9339640745        0.0498205605
        2.9193935540        0.0232036671
        2.9486423509        0.0234551370
        2.9668996444       -0.0026830210
        2.8310583734       -0.0290526960
        2.9350287205       -0.0029893754
        2.9799964213       -0.1359760820
        2.9819138071       -0.0305833636
        2.9514136600       -0.0296193780
        2.9794436643       -0.0805543969
        2.9732272493       -0.1085039928
        2.9541881420       -0.1330787932
        2.9681822438       -0.0568372726
        2.9529430700       -0.0816822476
        2.9239665683       -0.1321593905
        2.9388604362       -0.1072550603
        2.9078948486       -0.1066159191
        2.9220807761       -0.0812228052
        2.9366361403       -0.0556779036
        2.8916815398       -0.0809093293
        2.9060206438       -0.0552696929
        2.9477871830        0.1271154259
        2.9224040665        0.1315639536
        2.9367667959        0.1026956701
        2.9206651604        0.0761052381
        2.9049788168        0.0493045237
        2.8470884919       -0.0547635456
        2.8761537446       -0.0551816071
        2.9204954194       -0.0293102466
        2.8904377936       -0.0292464999
        2.8608116901       -0.0292615478
        2.9049004174       -0.0031428703
        2.8752117382       -0.0033162914
        2.8455747589       -0.0034012739
        2.8899161322        0.0228382857
        2.8603447859        0.0225723503
        2.9070162706        0.1033091976
        2.8910829781        0.0758223522
        2.8933509160        0.1327090639
        2.8772371437        0.1036228206
        2.8306902525        0.0224139685
        2.8754787005        0.0489196269
        2.8458129578        0.0486908721
        2.8613370487        0.0756721136
        2.8160732887        0.0485542194
        2.8315386179        0.0755704127
        2.8017138839        0.0754901846
        2.8635651148        0.1330482549
        2.8473856573        0.1037085120
        2.8336229565        0.1331516592
        2.8174999342        0.1037076895
        2.7862923997        0.0484461370
        2.5937732683        0.1330002390
        2.6376241049        0.0468329820
        2.6229604627        0.0739232108
        2.6083771740        0.1025925004
        2.6237240919        0.1331081080
        2.6536910926        0.1331842593
        2.8036392683        0.1331944300
        2.7875977983        0.1036795388
        2.7718763015        0.0754048454
        2.7736437534        0.1332229651
        2.7576916368        0.1036308249
        2.6381907689        0.1029496004
        2.6680367918        0.1032226023
        2.6836689756        0.1332291703
        2.7436472749        0.1332422226
        2.6526759700        0.0744431278
        2.6824347654        0.0748304503
        2.7136548997        0.1332465646
        2.6979055376        0.1034182202
        2.6672757965        0.0474257091
        2.6969797741        0.0478475516
        2.7277918954        0.1035491281
        2.7122257292        0.0751029254
        2.7420423080        0.0752852953
        2.7267245134        0.0481324137
        2.7565005200        0.0483188749
        2.7440251753       -0.1325025850
        2.7137257985       -0.1315563213
        2.8009637823        0.0222915947
        2.7861181695       -0.0036504085
        2.7714614708       -0.0295326455
        2.7569461368       -0.0554020580
        2.7425296241       -0.0810261056
        2.7277869202       -0.1061698783
        2.6840951172       -0.1312295223
        2.6984549439       -0.1067250430
        2.6545300669       -0.1313441989
        2.6690673090       -0.1072089250
        2.7711995133        0.0221576272
        2.7563738866       -0.0038401256
        2.7417531105       -0.0298180299
        2.7272754971       -0.0557796724
        2.7128322526       -0.0815442486
        2.6833783708       -0.0820650192
        2.7414441519        0.0219807356
        2.7266606128       -0.0040951465
        2.7120964606       -0.0301848622
        2.6976867257       -0.0562711037
        2.7117215213        0.0217162136
        2.6820468837        0.0213151873
        2.6969995533       -0.0044638704
        2.6825196218       -0.0306831958
        2.6682402928       -0.0568939741
        2.6540883221       -0.0827946380
        2.6674105372       -0.0050056824
        2.6530594628       -0.0313934250
        2.6389813327       -0.0578113443
        2.6252978312       -0.1318520450
        2.6398999219       -0.1079565090
        2.6113305984       -0.1094316173
        2.6251285606       -0.0839850886
        2.5967333707       -0.0861053519
        2.6524341866        0.0207263560
        2.6379193873       -0.0057917207
        2.6237621633       -0.0324339523
        2.6100138214       -0.0592427061
        2.0523797551       -0.1323211903
        2.0224030350       -0.1322646499
        1.0558506427        0.1306336736
        1.0870538597        0.1315692272
        0.9229797848        0.0440021437
        0.9517810216        0.0481132988
        2.3821026112       -0.1324676746
        2.3654040987       -0.1026767602
        2.5786112265        0.1021530504
        2.5933075045        0.0732666619
        2.4466748459        0.0679250663
        2.4619204568        0.0399996152
        2.6080451667        0.0460509482
        2.4119957203       -0.1323467251
        2.4330112220        0.0382956177
        2.6229046338        0.0199063864
        2.6085608618       -0.0068817111
        2.5946745683       -0.0339086434
        2.5813608835       -0.0614331635
        2.5687440812       -0.0899331436
        2.5569476574       -0.1213408528
        2.5302676388       -0.1292712730
        2.5012223069       -0.1312572099
        2.4743069671        0.1321948090
        2.4604001887        0.0993210248
        2.4897769638        0.1003283347
        2.5040978523        0.1324983746
        2.5638460722        0.1328634884
        2.4757374734        0.0694365128
        2.5049474247        0.0706021401
        2.5339509390        0.1327000916
        2.5192934637        0.1010458603
        2.4909093084        0.0414534570
        2.5200004593        0.0427641649
        2.5489109358        0.1016383360
        2.5342841681        0.0715977669
        2.5637415623        0.0724854742
        2.5492162454        0.0439795568
        2.5785674679        0.0450882998
        2.3951036287       -0.1021710442
        1.9474160685        0.1056090718
        1.9620869811        0.0791987914
        1.9771459794        0.1056954470
        1.9768213789        0.0529457581
        1.9918325082        0.0793487209
        2.0065480245        0.0531077230
        2.0069807277        0.1057502387
        2.0368250613        0.1058140719
        2.0216109229        0.0794741776
        2.0665952409        0.1058658280
        2.0513669245        0.0795802930
        2.4446487054        0.1315542807
        2.4312890731        0.0975916925
        2.4178162456        0.0657508209
        2.4154613681        0.1296975897
        2.4027727554        0.0941305400
        2.3206910151        0.1330097061
        2.3041874583        0.1075363186
        2.3743718317        0.1368684426
        2.2884757482        0.0814939098
        2.3175294169        0.0827235384
        2.3492206095        0.1343193788
        2.3329752018        0.1091448459
        2.3886048809        0.1222582361
        2.3025132442        0.0561880537
        2.3315678202        0.0576522686
        2.3607959051        0.1127202872
        2.3461630401        0.0849956306
        2.3170582829        0.0307890119
        2.3462238517        0.0322771288
        2.3745383200        0.0891211858
        2.3604138103        0.0599418855
        2.3891097356        0.0628794069
        2.3752351754        0.0341898837
        2.4041385809        0.0362999836
        2.5934892970        0.0188429695
        2.5793693732       -0.0082732005
        2.5658064176       -0.0357796224
        2.5529520831       -0.0642172111
        2.5409764871       -0.0946771314
        2.5125762211       -0.0981416482
        2.5642167182        0.0175729225
        2.5503451100       -0.0098733558
        2.5370651490       -0.0378200463
        2.5244675127       -0.0669522700
        2.5350917717        0.0161693660
        2.5214365716       -0.0115432606
        2.5083062308       -0.0397548502
        2.4957026508       -0.0690765704
        2.4835406235       -0.0998801289
        2.5060897041        0.0147026417
        2.4925751639       -0.0131709438
        2.4794550330       -0.0414279933
        2.4666904730       -0.0705685060
        2.4716123266       -0.1319096754
        2.4418404961       -0.1321851093
        2.4542044457       -0.1008841964
        2.4247103564       -0.1015905953
        2.0213202701        0.0269796248
        2.0362763430        0.0532590043
        2.1721057807        0.1316837772
        2.1562243543        0.1057119149
        2.1421279854        0.1315487181
        2.0510105996        0.0271479576
        2.0659780733        0.0533974686
        2.0810520227        0.0796576688
        1.9326489218        0.1302467465
        1.9624044440        0.1298289016
        1.9923166176        0.1297185622
        2.0222661115        0.1297167238
        2.0521940263        0.1298084412
        2.0819845212        0.1301470119
        2.1120303838        0.1311437135