TITLE = "Visualization of the volumetric solution"
VARIABLES = "x","y","Density","Momentum_x","Momentum_y","Energy","Pressure","Temperature","Mach","C<sub>p</sub>","Roe_Dissipation"
ZONE NODES= 3200, ELEMENTS= 3081, DATAPACKING=POINT, ZONETYPE=FEQUADRILATERAL
-2.000000e+00	1.250000e+00	1.224981e+00	4.205074e+01	-1.021373e-11	2.540028e+05	1.013124e+05	2.881136e+02	1.008820e-01	-1.775090e-02	0.000000e+00	
-2.000000e+00	1.218354e+00	1.224981e+00	4.205074e+01	-1.405955e-09	2.540028e+05	1.013124e+05	2.881136e+02	1.008820e-01	-1.775090e-02	0.000000e+00	
-1.948718e+00	1.218354e+00	1.224981e+00	4.205074e+01	-2.335471e-09	2.540028e+05	1.013124e+05	2.881136e+02	1.008820e-01	-1.775090e-02	0.000000e+00	
-1.948718e+00	1.250000e+00	1.224981e+00	4.205074e+01	-3.944549e-10	2.540028e+05	1.013124e+05	2.881136e+02	1.008820e-01	-1.775090e-02	0.000000e+00	
-2.000000e+00	1.186709e+00	1.224981e+00	4.205074e+01	-1.331221e-09	2.540028e+05	1.013124e+05	2.881136e+02	1.008820e-01	-1.775090e-02	0.000000e+00	
-1.948718e+00	1.186709e+00	1.224981e+00	4.205074e+01	-2.685594e-09	2.540028e+05	1.013124e+05	2.881136e+02	1.008820e-01	-1.775090e-02	0.000000e+00	
-2.000000e+00	1.155063e+00	1.224981e+00	4.205074e+01	-8.269106e-10	2.540028e+05	1.013124e+05	2.881136e+02	1.008820e-01	-1.775090e-02	0.000000e+00	
-1.948718e+00	1.155063e+00	1.224981e+00	4.205074e+01	-2.506217e-09	2.540028e+05	1.013124e+05	2.881136e+02	1.008820e-01	-1.775090e-02	0.000000e+00	
-2.000000e+00	1.123418e+00	1.224981e+00	4.205074e+01	-3.585398e-10	2.540028e+05	1.013124e+05	2.881136e+02	1.008820e-01	-1.775090e-02	0.000000e+00	
-1.948718e+00	1.123418e+00	1.224981e+00	4.205074e+01	-2.085277e-09	2.540028e+05	1.013124e+05	2.881136e+02	1.008820e-01	-1.775090e-02	0.000000e+00	
-2.000000e+00	1.091772e+00	1.224981e+00	4.205074e+01	-1.147916e-10	2.540028e+05	1.013124e+05	2.881136e+02	1.008820e-01	-1.775090e-02	0.000000e+00	
-1.948718e+00	1.091772e+00	1.224981e+00	4.205074e+01	-1.833951e-09	2.540028e+05	1.013124e+05	2.881136e+02	1.008820e-01	-1.775090e-02	0.000000e+00	
-2.000000e+00	1.060127e+00	1.224981e+00	4.205074e+01	-2.818851e-11	2.540028e+05	1.013124e+05	2.881136e+02	1.008820e-01	-1.775090e-02	0.000000e+00	
-1.948718e+00	1.060127e+00	1.224981e+00	4.205074e+01	-1.718359e-09	2.540028e+05	1.013124e+05	2.881136e+02	1.008820e-01	-1.775090e-02	0.000000e+00	
-2.000000e+00	1.028481e+00	1.224981e+00	4.205074e+01	-1.540188e-11	2.540028e+05	1.013124e+05	2.881136e+02	1.008820e-01	-1.775090e-02	0.000000e+00	
-1.948718e+00	1.028481e+00	1.224981e+00	4.205074e+01	-1.706796e-09	2.540028e+05	1.013124e+05	2.881136e+02	1.008820e-01	-1.775090e-02	0.000000e+00	
-2.000000e+00	9.968354e-01	1.224981e+00	4.205074e+01	-1.702717e-11	2.540028e+05	1.013124e+05	2.881136e+02	1.008820e-01	-1.775090e-02	0.000000e+00	
-1.948718e+00	9.968354e-01	1.224981e+00	4.205074e+01	-1.720249e-09	2.540028e+05	1.013124e+05	2.881136e+02	1.008820e-01	-1.775090e-02	0.000000e+00	
-2.000000e+00	9.651899e-01	1.224981e+00	4.205074e+01	-1.757008e-11	2.540028e+05	1.013124e+05	2.881136e+02	1.008820e-01	-1.775090e-02	0.000000e+00	
-1.948718e+00	9.651899e-01	1.224981e+00	4.205074e+01	-1.739775e-09	2.540028e+05	1.013124e+05	2.881136e+02	1.008820e-01	-1.775090e-02	0.000000e+00	
-2.000000e+00	9.335443e-01	1.224981e+00	4.205074e+01	-1.492900e-11	2.540028e+05	1.013124e+05	2.881136e+02	1.008820e-01	-1.775090e-02	0.000000e+00	
-1.948718e+00	9.335443e-01	1.224981e+00	4.205074e+01	-1.752550e-09	2.540028e+05	1.013124e+05	2.881136e+02	1.008820e-01	-1.775090e-02	0.000000e+00	
-2.000000e+00	9.018987e-01	1.224981e+00	4.205074e+01	-1.329376e-11	2.540028e+05	1.013124e+05	2.881136e+02	1.008820e-01	-1.775090e-02	0.000000e+00	
-1.948718e+00	9.018987e-01	1.224981e+00	4.205074e+01	-1.763334e-09	2.540028e+05	1.013124e+05	2.881136e+02	1.008820e-01	-1.775090e-02	0.000000e+00	
-2.000000e+00	8.702532e-01	1.224981e+00	4.205074e+01	-1.328067e-11	2.540028e+05	1.013124e+05	2.881136e+02	1.008820e-01	-1.775090e-02	0.000000e+00	
-1.948718e+00	8.702532e-01	1.224981e+00	4.205074e+01	-1.770960e-09	2.540028e+05	1.013124e+05	2.881136e+02	1.008820e-01	-1.775090e-02	0.000000e+00	
-2.000000e+00	8.386076e-01	1.224981e+00	4.205074e+01	-1.432988e-11	2.540028e+05	1.013124e+05	2.881136e+02	1.008820e-01	-1.775090e-02	0.000000e+00	
-1.948718e+00	8.386076e-01	1.224981e+00	4.205074e+01	-1.775649e-09	2.540028e+05	1.013124e+05	2.881136e+02	1.008820e-01	-1.775090e-02	0.000000e+00	
-2.000000e+00	8.069620e-01	1.224981e+00	4.205074e+01	-1.559528e-11	2.540028e+05	1.013124e+05	2.881136e+02	1.008820e-01	-1.775090e-02	0.000000e+00	
-1.948718e+00	8.069620e-01	1.224981e+00	4.205074e+01	-1.775221e-09	2.540028e+05	1.013124e+05	2.881136e+02	1.008820e-01	-1.775090e-02	0.000000e+00	
-2.000000e+00	7.753165e-01	1.224981e+00	4.205074e+01	-1.672370e-11	2.540028e+05	1.013124e+05	2.881136e+02	1.008820e-01	-1.775090e-02	0.000000e+00	
-1.948718e+00	7.753165e-01	1.224981e+00	4.205074e+01	-1.768740e-09	2.540028e+05	1.013124e+05	2.881136e+02	1.008820e-01	-1.775090e-02	0.000000e+00	
-2.000000e+00	7.436709e-01	1.224981e+00	4.205074e+01	-1.761485e-11	2.540028e+05	1.013124e+05	2.881136e+02	1.008820e-01	-1.775090e-02	0.000000e+00	
-1.948718e+00	7.436709e-01	1.224981e+00	4.205074e+01	-1.755265e-09	2.540028e+05	1.013124e+05	2.881136e+02	1.008820e-01	-1.775090e-02	0.000000e+00	
-2.000000e+00	7.120253e-01	1.224981e+00	4.205074e+01	-1.805753e-11	2.540028e+05	1.013124e+05	2.881136e+02	1.008820e-01	-1.775090e-02	0.000000e+00	
-1.948718e+00	7.120253e-01	1.224981e+00	4.205074e+01	-1.734197e-09	2.540028e+05	1.013124e+05	2.881136e+02	1.008820e-01	-1.775090e-02	0.000000e+00	
-2.000000e+00	6.803797e-01	1.224981e+00	4.205074e+01	-1.841465e-11	2.540028e+05	1.013124e+05	2.881136e+02	1.008820e-01	-1.775090e-02	0.000000e+00	
-1.948718e+00	6.803797e-01	1.224981e+00	4.205074e+01	-1.705449e-09	2.540028e+05	1.013124e+05	2.881136e+02	1.008820e-01	-1.775090e-02	0.000000e+00	
-2.000000e+00	6.487342e-01	1.224981e+00	4.205074e+01	-1.856977e-11	2.540028e+05	1.013124e+05	2.881136e+02	1.008820e-01	-1.775090e-02	0.000000e+00	
-1.948718e+00	6.487342e-01	1.224981e+00	4.205074e+01	-1.668928e-09	2.540028e+05	1.013124e+05	2.881136e+02	1.008820e-01	-1.775090e-02	0.000000e+00	
-2.000000e+00	6.170886e-01	1.224981e+00	4.205074e+01	-1.861238e-11	2.540028e+05	1.013124e+05	2.881136e+02	1.008820e-01	-1.775090e-02	0.000000e+00	
-1.948718e+00	6.170886e-01	1.224981e+00	4.205074e+01	-1.624672e-09	2.540028e+05	1.013124e+05	2.881136e+02	1.008820e-01	-1.775090e-02	0.000000e+00	
-2.000000e+00	5.854430e-01	1.224981e+00	4.205074e+01	-1.840933e-11	2.540028e+05	1.013124e+05	2.881136e+02	1.008820e-01	-1.775090e-02	0.000000e+00	
-1.948718e+00	5.854430e-01	1.224981e+00	4.205074e+01	-1.572683e-09	2.540028e+05	1.013124e+05	2.881136e+02	1.008820e-01	-1.775090e-02	0.000000e+00	
-2.000000e+00	5.537975e-01	1.224981e+00	4.205074e+01	-1.798313e-11	2.540028e+05	1.013124e+05	2.881136e+02	1.008820e-01	-1.775090e-02	0.000000e+00	
-1.948718e+00	5.537975e-01	1.224981e+00	4.205074e+01	-1.513033e-09	2.540028e+05	1.013124e+05	2.881136e+02	1.008820e-01	-1.775090e-02	0.000000e+00	
-2.000000e+00	5.221519e-01	1.224981e+00	4.205074e+01	-1.781439e-11	2.540028e+05	1.013124e+05	2.881136e+02	1.008820e-01	-1.775090e-02	0.000000e+00	
-1.948718e+00	5.221519e-01	1.224981e+00	4.205074e+01	-1.446342e-09	2.540028e+05	1.013124e+05	2.881136e+02	1.008820e-01	-1.775090e-02	0.000000e+00	
-2.000000e+00	4.905063e-01	1.224981e+00	4.205074e+01	-1.737557e-11	2.540028e+05	1.013124e+05	2.881136e+02	1.008820e-01	-1.775090e-02	0.000000e+00	
-1.948718e+00	4.905063e-01	1.224981e+00	4.205074e+01	-1.372376e-09	2.540028e+05	1.013124e+05	2.881136e+02	1.008820e-01	-1.775090e-02	0.000000e+00	
-2.000000e+00	4.588608e-01	1.224981e+00	4.205074e+01	-1.699964e-11	2.540028e+05	1.013124e+05	2.881136e+02	1.008820e-01	-1.775090e-02	0.000000e+00	
-1.948718e+00	4.588608e-01	1.224981e+00	4.205074e+01	-1.291636e-09	2.540028e+05	1.013124e+05	2.881136e+02	1.008820e-01	-1.775090e-02	0.000000e+00	
-2.000000e+00	4.272152e-01	1.224981e+00	4.205074e+01	-1.636981e-11	2.540028e+05	1.013124e+05	2.881136e+02	1.008820e-01	-1.775090e-02	0.000000e+00	
-1.948718e+00	4.272152e-01	1.224981e+00	4.205074e+01	-1.204321e-09	2.540028e+05	1.013124e+05	2.881136e+02	1.008820e-01	-1.775090e-02	0.000000e+00	
-2.000000e+00	3.955696e-01	1.224981e+00	4.205074e+01	-1.558194e-11	2.540028e+05	1.013124e+05	2.881136e+02	1.008820e-01	-1.775090e-02	0.000000e+00	
-1.948718e+00	3.955696e-01	1.224981e+00	4.205074e+01	-1.110955e-09	2.540028e+05	1.013124e+05	2.881136e+02	1.008820e-01	-1.775090e-02	0.000000e+00	
-2.000000e+00	3.639241e-01	1.224981e+00	4.205074e+01	-1.501042e-11	2.540028e+05	1.013124e+05	2.881136e+02	1.008820e-01	-1.775090e-02	0.000000e+00	
-1.948718e+00	3.639241e-01	1.224981e+00	4.205074e+01	-1.011955e-09	2.540028e+05	1.013124e+05	2.881136e+02	1.008820e-01	-1.775090e-02	0.000000e+00	
-2.000000e+00	3.322785e-01	1.224981e+00	4.205074e+01	-1.421249e-11	2.540028e+05	1.013124e+05	2.881136e+02	1.008820e-01	-1.775090e-02	0.000000e+00	
-1.948718e+00	3.322785e-01	1.224981e+00	4.205074e+01	-9.078429e-10	2.540028e+05	1.013124e+05	2.881136e+02	1.008820e-01	-1.775090e-02	0.000000e+00	
-2.000000e+00	3.006329e-01	1.224981e+00	4.205074e+01	-1.346373e-11	2.540028e+05	1.013124e+05	2.881136e+02	1.008820e-01	-1.775090e-02	0.000000e+00	
-1.948718e+00	3.006329e-01	1.224981e+00	4.205074e+01	-7.989555e-10	2.540028e+05	1.013124e+05	2.881136e+02	1.008820e-01	-1.775090e-02	0.000000e+00	
-2.000000e+00	2.689873e-01	1.224981e+00	4.205074e+01	-1.249447e-11	2.540028e+05	1.013124e+05	2.881136e+02	1.008820e-01	-1.775090e-02	0.000000e+00	
-1.948718e+00	2.689873e-01	1.224981e+00	4.205074e+01	-6.859028e-10	2.540028e+05	1.013124e+05	2.881136e+02	1.008820e-01	-1.775090e-02	0.000000e+00	
-2.000000e+00	2.373418e-01	1.224981e+00	4.205074e+01	-1.167884e-11	2.540028e+05	1.013124e+05	2.881136e+02	1.008820e-01	-1.775090e-02	0.000000e+00	
-1.948718e+00	2.373418e-01	1.224981e+00	4.205074e+01	-5.692463e-10	2.540028e+05	1.013124e+05	2.881136e+02	1.008820e-01	-1.775090e-02	0.000000e+00	
-2.000000e+00	2.056962e-01	1.224981e+00	4.205074e+01	-1.103479e-11	2.540028e+05	1.013124e+05	2.881136e+02	1.008820e-01	-1.775090e-02	0.000000e+00	
-1.948718e+00	2.056962e-01	1.224981e+00	4.205074e+01	-4.497246e-10	2.540028e+05	1.013124e+05	2.881136e+02	1.008820e-01	-1.775090e-02	0.000000e+00	
-2.000000e+00	1.740506e-01	1.224981e+00	4.205074e+01	-1.022508e-11	2.540028e+05	1.013124e+05	2.881136e+02	1.008820e-01	-1.775090e-02	0.000000e+00	
-1.948718e+00	1.740506e-01	1.224981e+00	4.205074e+01	-3.274750e-10	2.540028e+05	1.013124e+05	2.881136e+02	1.008820e-01	-1.775090e-02	0.000000e+00	
-2.000000e+00	1.424051e-01	1.224981e+00	4.205074e+01	-9.195049e-12	2.540028e+05	1.013124e+05	2.881136e+02	1.008820e-01	-1.775090e-02	0.000000e+00	
-1.948718e+00	1.424051e-01	1.224981e+00	4.205074e+01	-2.033447e-10	2.540028e+05	1.013124e+05	2.881136e+02	1.008820e-01	-1.775090e-02	0.000000e+00	
-2.000000e+00	1.107595e-01	1.224981e+00	4.205074e+01	-8.043206e-12	2.540028e+05	1.013124e+05	2.881136e+02	1.008820e-01	-1.775090e-02	0.000000e+00	
-1.948718e+00	1.107595e-01	1.224981e+00	4.205074e+01	-7.787996e-11	2.540028e+05	1.013124e+05	2.881136e+02	1.008820e-01	-1.775090e-02	0.000000e+00	
-2.000000e+00	7.911392e-02	1.224981e+00	4.205074e+01	-7.072408e-12	2.540028e+05	1.013124e+05	2.881136e+02	1.008820e-01	-1.775090e-02	0.000000e+00	
-1.948718e+00	7.911392e-02	1.224981e+00	4.205074e+01	4.821794e-11	2.540028e+05	1.013124e+05	2.881136e+02	1.008820e-01	-1.775090e-02	0.000000e+00	
-2.000000e+00	4.746835e-02	1.224981e+00	4.205074e+01	-6.051097e-12	2.540028e+05	1.013124e+05	2.881136e+02	1.008820e-01	-1.775090e-02	0.000000e+00	
-1.948718e+00	4.746835e-02	1.224981e+00	4.205074e+01	1.740705e-10	2.540028e+05	1.013124e+05	2.881136e+02	1.008820e-01	-1.775090e-02	0.000000e+00	
-2.000000e+00	1.582278e-02	1.224981e+00	4.205074e+01	-4.961432e-12	2.540028e+05	1.013124e+05	2.881136e+02	1.008820e-01	-1.775090e-02	0.000000e+00	
-1.948718e+00	1.582278e-02	1.224981e+00	4.205074e+01	2.995640e-10	2.540028e+05	1.013124e+05	2.881136e+02	1.008820e-01	-1.775090e-02	0.000000e+00	
-2.000000e+00	-1.582278e-02	1.224981e+00	4.205074e+01	-4.173513e-12	2.540028e+05	1.013124e+05	2.881136e+02	1.008820e-01	-1.775090e-02	0.000000e+00	
-1.948718e+00	-1.582278e-02	1.224981e+00	4.205074e+01	4.232899e-10	2.540028e+05	1.013124e+05	2.881136e+02	1.008820e-01	-1.775090e-02	0.000000e+00	
-2.000000e+00	-4.746835e-02	1.224981e+00	4.205074e+01	-3.335295e-12	2.540028e+05	1.013124e+05	2.881136e+02	1.008820e-01	-1.775090e-02	0.000000e+00	
-1.948718e+00	-4.746835e-02	1.224981e+00	4.205074e+01	5.451252e-10	2.540028e+05	1.013124e+05	2.881136e+02	1.008820e-01	-1.775090e-02	0.000000e+00	
-2.000000e+00	-7.911392e-02	1.224981e+00	4.205074e+01	-2.444626e-12	2.540028e+05	1.013124e+05	2.881136e+02	1.008820e-01	-1.775090e-02	0.000000e+00	
-1.948718e+00	-7.911392e-02	1.224981e+00	4.205074e+01	6.643342e-10	2.540028e+05	1.013124e+05	2.881136e+02	1.008820e-01	-1.775090e-02	0.000000e+00	
-2.000000e+00	-1.107595e-01	1.224981e+00	4.205074e+01	-1.378002e-12	2.540028e+05	1.013124e+05	2.881136e+02	1.008820e-01	-1.775090e-02	0.000000e+00	
-1.948718e+00	-1.107595e-01	1.224981e+00	4.205074e+01	7.804246e-10	2.540028e+05	1.013124e+05	2.881136e+02	1.008820e-01	-1.775090e-02	0.000000e+00	
-2.000000e+00	-1.424051e-01	1.224981e+00	4.205074e+01	-2.117859e-13	2.540028e+05	1.013124e+05	2.881136e+02	1.008820e-01	-1.775090e-02	0.000000e+00	
-1.948718e+00	-1.424051e-01	1.224981e+00	4.205074e+01	8.924609e-10	2.540028e+05	1.013124e+05	2.881136e+02	1.008820e-01	-1.775090e-02	0.000000e+00	
-2.000000e+00	-1.740506e-01	1.224981e+00	4.205074e+01	7.339278e-13	2.540028e+05	1.013124e+05	2.881136e+02	1.008820e-01	-1.775090e-02	0.000000e+00	
-1.948718e+00	-1.740506e-01	1.224981e+00	4.205074e+01	9.998540e-10	2.540028e+05	1.013124e+05	2.881136e+02	1.008820e-01	-1.775090e-02	0.000000e+00	
-2.000000e+00	-2.056962e-01	1.224981e+00	4.205074e+01	1.627760e-12	2.540028e+05	1.013124e+05	2.881136e+02	1.008820e-01	-1.775090e-02	0.000000e+00	
-1.948718e+00	-2.056962e-01	1.224981e+00	4.205074e+01	1.101790e-09	2.540028e+05	1.013124e+05	2.881136e+02	1.008820e-01	-1.775090e-02	0.000000e+00	
-2.000000e+00	-2.373418e-01	1.224981e+00	4.205074e+01	2.507754e-12	2.540028e+05	1.013124e+05	2.881136e+02	1.008820e-01	-1.775090e-02	0.000000e+00	
-1.948718e+00	-2.373418e-01	1.224981e+00	4.205074e+01	1.197946e-09	2.540028e+05	1.013124e+05	2.881136e+02	1.008820e-01	-1.775090e-02	0.000000e+00	
-2.000000e+00	-2.689873e-01	1.224981e+00	4.205074e+01	3.206995e-12	2.540028e+05	1.013124e+05	2.881136e+02	1.008820e-01	-1.775090e-02	0.000000e+00	
-1.948718e+00	-2.689873e-01	1.224981e+00	4.205074e+01	1.287526e-09	2.540028e+05	1.013124e+05	2.881136e+02	1.008820e-01	-1.775090e-02	0.000000e+00	
-2.000000e+00	-3.006329e-01	1.224981e+00	4.205074e+01	3.865801e-12	2.540028e+05	1.013124e+05	2.881136e+02	1.008820e-01	-1.775090e-02	0.000000e+00	
-1.948718e+00	-3.006329e-01	1.224981e+00	4.205074e+01	1.370100e-09	2.540028e+05	1.013124e+05	2.881136e+02	1.008820e-01	-1.775090e-02	0.000000e+00	
-2.000000e+00	-3.322785e-01	1.224981e+00	4.205074e+01	4.556731e-12	2.540028e+05	1.013124e+05	2.881136e+02	1.008820e-01	-1.775090e-02	0.000000e+00	
-1.948718e+00	-3.322785e-01	1.224981e+00	4.205074e+01	1.445096e-09	2.540028e+05	1.013124e+05	2.881136e+02	1.008820e-01	-1.775090e-02	0.000000e+00	
-2.000000e+00	-3.639241e-01	1.224981e+00	4.205074e+01	5.175833e-12	2.540028e+05	1.013124e+05	2.881136e+02	1.008820e-01	-1.775090e-02	0.000000e+00	
-1.948718e+00	-3.639241e-01	1.224981e+00	4.205074e+01	1.512215e-09	2.540028e+05	1.013124e+05	2.881136e+02	1.008820e-01	-1.775090e-02	0.000000e+00	
-2.000000e+00	-3.955696e-01	1.224981e+00	4.205074e+01	5.796300e-12	2.540028e+05	1.013124e+05	2.881136e+02	1.008820e-01	-1.775090e-02	0.000000e+00	
-1.948718e+00	-3.955696e-01	1.224981e+00	4.205074e+01	1.570797e-09	2.540028e+05	1.013124e+05	2.881136e+02	1.008820e-01	-1.775090e-02	0.000000e+00	
-2.000000e+00	-4.272152e-01	1.224981e+00	4.205074e+01	6.326007e-12	2.540028e+05	1.013124e+05	2.881136e+02	1.008820e-01	-1.775090e-02	0.000000e+00	
-1.948718e+00	-4.272152e-01	1.224981e+00	4.205074e+01	1.620707e-09	2.540028e+05	1.013124e+05	2.881136e+02	1.008820e-01	-1.775090e-02	0.000000e+00	
-2.000000e+00	-4.588608e-01	1.224981e+00	4.205074e+01	6.614224e-12	2.540028e+05	1.013124e+05	2.881136e+02	1.008820e-01	-1.775090e-02	0.000000e+00	
-1.948718e+00	-4.588608e-01	1.224981e+00	4.205074e+01	1.661243e-09	2.540028e+05	1.013124e+05	2.881136e+02	1.008820e-01	-1.775090e-02	0.000000e+00	
-2.000000e+00	-4.905063e-01	1.224981e+00	4.205074e+01	6.748665e-12	2.540028e+05	1.013124e+05	2.881136e+02	1.008820e-01	-1.775090e-02	0.000000e+00	
-1.948718e+00	-4.905063e-01	1.224981e+00	4.205074e+01	1.692615e-09	2.540028e+05	1.013124e+05	2.881136e+02	1.008820e-01	-1.775090e-02	0.000000e+00	
-2.000000e+00	-5.221519e-01	1.224981e+00	4.205074e+01	6.896639e-12	2.540028e+05	1.013124e+05	2.881136e+02	1.008820e-01	-1.775090e-02	0.000000e+00	
-1.948718e+00	-5.221519e-01	1.224981e+00	4.205074e+01	1.714321e-09	2.540028e+05	1.013124e+05	2.881136e+02	1.008820e-01	-1.775090e-02	0.000000e+00	
-2.000000e+00	-5.537975e-01	1.224981e+00	4.205074e+01	7.021167e-12	2.540028e+05	1.013124e+05	2.881136e+02	1.008820e-01	-1.775090e-02	0.000000e+00	
-1.948718e+00	-5.537975e-01	1.224981e+00	4.205074e+01	1.726660e-09	2.540028e+05	1.013124e+05	2.881136e+02	1.008820e-01	-1.775090e-02	0.000000e+00	
-2.000000e+00	-5.854430e-01	1.224981e+00	4.205074e+01	6.746978e-12	2.540028e+05	1.013124e+05	2.881136e+02	1.008820e-01	-1.775090e-02	0.000000e+00	
-1.948718e+00	-5.854430e-01	1.224981e+00	4.205074e+01	1.728969e-09	2.540028e+05	1.013124e+05	2.881136e+02	1.008820e-01	-1.775090e-02	0.000000e+00	
-2.000000e+00	-6.170886e-01	1.224981e+00	4.205074e+01	6.083179e-12	2.540028e+05	1.013124e+05	2.881136e+02	1.008820e-01	-1.775090e-02	0.000000e+00	
-1.948718e+00	-6.170886e-01	1.224981e+00	4.205074e+01	1.721863e-09	2.540028e+05	1.013124e+05	2.881136e+02	1.008820e-01	-1.775090e-02	0.000000e+00	
-2.000000e+00	-6.487342e-01	1.224981e+00	4.205074e+01	5.580470e-12	2.540028e+05	1.013124e+05	2.881136e+02	1.008820e-01	-1.775090e-02	0.000000e+00	
-1.948718e+00	-6.487342e-01	1.224981e+00	4.205074e+01	1.705423e-09	2.540028e+05	1.013124e+05	2.881136e+02	1.008820e-01	-1.775090e-02	0.000000e+00	
-2.000000e+00	-6.803797e-01	1.224981e+00	4.205074e+01	4.805888e-12	2.540028e+05	1.013124e+05	2.881136e+02	1.008820e-01	-1.775090e-02	0.000000e+00	
-1.948718e+00	-6.803797e-01	1.224981e+00	4.205074e+01	1.680035e-09	2.540028e+05	1.013124e+05	2.881136e+02	1.008820e-01	-1.775090e-02	0.000000e+00	
-2.000000e+00	-7.120253e-01	1.224981e+00	4.205074e+01	3.823014e-12	2.540028e+05	1.013124e+05	2.881136e+02	1.008820e-01	-1.775090e-02	0.000000e+00	
-1.948718e+00	-7.120253e-01	1.224981e+00	4.205074e+01	1.645935e-09	2.540028e+05	1.013124e+05	2.881136e+02	1.008820e-01	-1.775090e-02	0.000000e+00	
-2.000000e+00	-7.436709e-01	1.224981e+00	4.205074e+01	2.660436e-12	2.540028e+05	1.013124e+05	2.881136e+02	1.008820e-01	-1.775090e-02	0.000000e+00	
-1.948718e+00	-7.436709e-01	1.224981e+00	4.205074e+01	1.603768e-09	2.540028e+05	1.013124e+05	2.881136e+02	1.008820e-01	-1.775090e-02	0.000000e+00	
-2.000000e+00	-7.753165e-01	1.224981e+00	4.205074e+01	1.247894e-12	2.540028e+05	1.013124e+05	2.881136e+02	1.008820e-01	-1.775090e-02	0.000000e+00	
-1.948718e+00	-7.753165e-01	1.224981e+00	4.205074e+01	1.554296e-09	2.540028e+05	1.013124e+05	2.881136e+02	1.008820e-01	-1.775090e-02	0.000000e+00	
-2.000000e+00	-8.069620e-01	1.224981e+00	4.205074e+01	-6.505925e-13	2.540028e+05	1.013124e+05	2.881136e+02	1.008820e-01	-1.775090e-02	0.000000e+00	
-1.948718e+00	-8.069620e-01	1.224981e+00	4.205074e+01	1.498165e-09	2.540028e+05	1.013124e+05	2.881136e+02	1.008820e-01	-1.775090e-02	0.000000e+00	
-2.000000e+00	-8.386076e-01	1.224981e+00	4.205074e+01	-2.700759e-12	2.540028e+05	1.013124e+05	2.881136e+02	1.008820e-01	-1.775090e-02	0.000000e+00	
-1.948718e+00	-8.386076e-01	1.224981e+00	4.205074e+01	1.437010e-09	2.540028e+05	1.013124e+05	2.881136e+02	1.008820e-01	-1.775090e-02	0.000000e+00	
-2.000000e+00	-8.702532e-01	1.224981e+00	4.205074e+01	-4.561629e-12	2.540028e+05	1.013124e+05	2.881136e+02	1.008820e-01	-1.775090e-02	0.000000e+00	
-1.948718e+00	-8.702532e-01	1.224981e+00	4.205074e+01	1.372300e-09	2.540028e+05	1.013124e+05	2.881136e+02	1.008820e-01	-1.775090e-02	0.000000e+00	
-2.000000e+00	-9.018987e-01	1.224981e+00	4.205074e+01	-5.451763e-12	2.540028e+05	1.013124e+05	2.881136e+02	1.008820e-01	-1.775090e-02	0.000000e+00	
-1.948718e+00	-9.018987e-01	1.224981e+00	4.205074e+01	1.306952e-09	2.540028e+05	1.013124e+05	2.881136e+02	1.008820e-01	-1.775090e-02	0.000000e+00	
-2.000000e+00	-9.335443e-01	1.224981e+00	4.205074e+01	-4.639324e-12	2.540028e+05	1.013124e+05	2.881136e+02	1.008820e-01	-1.775090e-02	0.000000e+00	
-1.948718e+00	-9.335443e-01	1.224981e+00	4.205074e+01	1.241084e-09	2.540028e+05	1.013124e+05	2.881136e+02	1.008820e-01	-1.775090e-02	0.000000e+00	
-2.000000e+00	-9.651899e-01	1.224981e+00	4.205074e+01	-2.805758e-12	2.540028e+05	1.013124e+05	2.881136e+02	1.008820e-01	-1.775090e-02	0.000000e+00	
-1.948718e+00	-9.651899e-01	1.224981e+00	4.205074e+01	1.176593e-09	2.540028e+05	1.013124e+05	2.881136e+02	1.008820e-01	-1.775090e-02	0.000000e+00	
-2.000000e+00	-9.968354e-01	1.224981e+00	4.205074e+01	-3.940766e-12	2.540028e+05	1.013124e+05	2.881136e+02	1.008820e-01	-1.775090e-02	0.000000e+00	
-1.948718e+00	-9.968354e-01	1.224981e+00	4.205074e+01	1.109336e-09	2.540028e+05	1.013124e+05	2.881136e+02	1.008820e-01	-1.775090e-02	0.000000e+00	
-2.000000e+00	-1.028481e+00	1.224981e+00	4.205074e+01	-6.145676e-12	2.540028e+05	1.013124e+05	2.881136e+02	1.008820e-01	-1.775090e-02	0.000000e+00	
-1.948718e+00	-1.028481e+00	1.224981e+00	4.205074e+01	1.052804e-09	2.540028e+05	1.013124e+05	2.881136e+02	1.008820e-01	-1.775090e-02	0.000000e+00	
-2.000000e+00	-1.060127e+00	1.224981e+00	4.205074e+01	6.030596e-12	2.540028e+05	1.013124e+05	2.881136e+02	1.008820e-01	-1.775090e-02	0.000000e+00	
-1.948718e+00	-1.060127e+00	1.224981e+00	4.205074e+01	1.026034e-09	2.540028e+05	1.013124e+05	2.881136e+02	1.008820e-01	-1.775090e-02	0.000000e+00	
-2.000000e+00	-1.091772e+00	1.224981e+00	4.205074e+01	9.200008e-11	2.540028e+05	1.013124e+05	2.881136e+02	1.008820e-01	-1.775090e-02	0.000000e+00	
-1.948718e+00	-1.091772e+00	1.224981e+00	4.205074e+01	1.108607e-09	2.540028e+05	1.013124e+05	2.881136e+02	1.008820e-01	-1.775090e-02	0.000000e+00	
-2.000000e+00	-1.123418e+00	1.224981e+00	4.205074e+01	3.351013e-10	2.540028e+05	1.013124e+05	2.881136e+02	1.008820e-01	-1.775090e-02	0.000000e+00	
-1.948718e+00	-1.123418e+00	1.224981e+00	4.205074e+01	1.332936e-09	2.540028e+05	1.013124e+05	2.881136e+02	1.008820e-01	-1.775090e-02	0.000000e+00	
-2.000000e+00	-1.155063e+00	1.224981e+00	4.205074e+01	8.027984e-10	2.540028e+05	1.013124e+05	2.881136e+02	1.008820e-01	-1.775090e-02	0.000000e+00	
-1.948718e+00	-1.155063e+00	1.224981e+00	4.205074e+01	1.733042e-09	2.540028e+05	1.013124e+05	2.881136e+02	1.008820e-01	-1.775090e-02	0.000000e+00	
-2.000000e+00	-1.186709e+00	1.224981e+00	4.205074e+01	1.307342e-09	2.540028e+05	1.013124e+05	2.881136e+02	1.008820e-01	-1.775090e-02	0.000000e+00	
-1.948718e+00	-1.186709e+00	1.224981e+00	4.205074e+01	1.900132e-09	2.540028e+05	1.013124e+05	2.881136e+02	1.008820e-01	-1.775090e-02	0.000000e+00	
-2.000000e+00	-1.218354e+00	1.224981e+00	4.205074e+01	1.385263e-09	2.540028e+05	1.013124e+05	2.881136e+02	1.008820e-01	-1.775090e-02	0.000000e+00	
-1.948718e+00	-1.218354e+00	1.224981e+00	4.205074e+01	1.543424e-09	2.540028e+05	1.013124e+05	2.881136e+02	1.008820e-01	-1.775090e-02	0.000000e+00	
-1.897436e+00	1.218354e+00	1.224981e+00	4.205074e+01	-3.001637e-09	2.540028e+05	1.013124e+05	2.881136e+02	1.008820e-01	-1.775090e-02	0.000000e+00	
-1.897436e+00	1.250000e+00	1.224981e+00	4.205074e+01	-7.998331e-10	2.540028e+05	1.013124e+05	2.881136e+02	1.008820e-01	-1.775090e-02	0.000000e+00	
-1.897436e+00	1.186709e+00	1.224981e+00	4.205074e+01	-3.866300e-09	2.540028e+05	1.013124e+05	2.881136e+02	1.008820e-01	-1.775090e-02	0.000000e+00	
-1.897436e+00	1.155063e+00	1.224981e+00	4.205074e+01	-4.014974e-09	2.540028e+05	1.013124e+05	2.881136e+02	1.008820e-01	-1.775090e-02	0.000000e+00	
-1.897436e+00	1.123418e+00	1.224981e+00	4.205074e+01	-3.715101e-09	2.540028e+05	1.013124e+05	2.881136e+02	1.008820e-01	-1.775090e-02	0.000000e+00	
-1.897436e+00	1.091772e+00	1.224981e+00	4.205074e+01	-3.487057e-09	2.540028e+05	1.013124e+05	2.881136e+02	1.008820e-01	-1.775090e-02	0.000000e+00	
-1.897436e+00	1.060127e+00	1.224981e+00	4.205074e+01	-3.363577e-09	2.540028e+05	1.013124e+05	2.881136e+02	1.008820e-01	-1.775090e-02	0.000000e+00	
-1.897436e+00	1.028481e+00	1.224981e+00	4.205074e+01	-3.365055e-09	2.540028e+05	1.013124e+05	2.881136e+02	1.008820e-01	-1.775090e-02	0.000000e+00	
-1.897436e+00	9.968354e-01	1.224981e+00	4.205074e+01	-3.403609e-09	2.540028e+05	1.013124e+05	2.881136e+02	1.008820e-01	-1.775090e-02	0.000000e+00	
-1.897436e+00	9.651899e-01	1.224981e+00	4.205074e+01	-3.454706e-09	2.540028e+05	1.013124e+05	2.881136e+02	1.008820e-01	-1.775090e-02	0.000000e+00	
-1.897436e+00	9.335443e-01	1.224981e+00	4.205074e+01	-3.494264e-09	2.540028e+05	1.013124e+05	2.881136e+02	1.008820e-01	-1.775090e-02	0.000000e+00	
-1.897436e+00	9.018987e-01	1.224981e+00	4.205074e+01	-3.525854e-09	2.540028e+05	1.013124e+05	2.881136e+02	1.008820e-01	-1.775090e-02	0.000000e+00	
-1.897436e+00	8.702532e-01	1.224981e+00	4.205074e+01	-3.547236e-09	2.540028e+05	1.013124e+05	2.881136e+02	1.008820e-01	-1.775090e-02	0.000000e+00	
-1.897436e+00	8.386076e-01	1.224981e+00	4.205074e+01	-3.560053e-09	2.540028e+05	1.013124e+05	2.881136e+02	1.008820e-01	-1.775090e-02	0.000000e+00	
-1.897436e+00	8.069620e-01	1.224981e+00	4.205074e+01	-3.561159e-09	2.540028e+05	1.013124e+05	2.881136e+02	1.008820e-01	-1.775090e-02	0.000000e+00	
-1.897436e+00	7.753165e-01	1.224981e+00	4.205074e+01	-3.549550e-09	2.540028e+05	1.013124e+05	2.881136e+02	1.008820e-01	-1.775090e-02	0.000000e+00	
-1.897436e+00	7.436709e-01	1.224981e+00	4.205074e+01	-3.523316e-09	2.540028e+05	1.013124e+05	2.881136e+02	1.008820e-01	-1.775090e-02	0.000000e+00	
-1.897436e+00	7.120253e-01	1.224981e+00	4.205074e+01	-3.481932e-09	2.540028e+05	1.013124e+05	2.881136e+02	1.008820e-01	-1.775090e-02	0.000000e+00	
-1.897436e+00	6.803797e-01	1.224981e+00	4.205074e+01	-3.424732e-09	2.540028e+05	1.013124e+05	2.881136e+02	1.008820e-01	-1.775090e-02	0.000000e+00	
-1.897436e+00	6.487342e-01	1.224981e+00	4.205074e+01	-3.351840e-09	2.540028e+05	1.013124e+05	2.881136e+02	1.008820e-01	-1.775090e-02	0.000000e+00	
-1.897436e+00	6.170886e-01	1.224981e+00	4.205074e+01	-3.263140e-09	2.540028e+05	1.013124e+05	2.881136e+02	1.008820e-01	-1.775090e-02	0.000000e+00	
-1.897436e+00	5.854430e-01	1.224981e+00	4.205074e+01	-3.158967e-09	2.540028e+05	1.013124e+05	2.881136e+02	1.008820e-01	-1.775090e-02	0.000000e+00	
-1.897436e+00	5.537975e-01	1.224981e+00	4.205074e+01	-3.039461e-09	2.540028e+05	1.013124e+05	2.881136e+02	1.008820e-01	-1.775090e-02	0.000000e+00	
-1.897436e+00	5.221519e-01	1.224981e+00	4.205074e+01	-2.905141e-09	2.540028e+05	1.013124e+05	2.881136e+02	1.008820e-01	-1.775090e-02	0.000000e+00	
-1.897436e+00	4.905063e-01	1.224981e+00	4.205074e+01	-2.756443e-09	2.540028e+05	1.013124e+05	2.881136e+02	1.008820e-01	-1.775090e-02	0.000000e+00	
-1.897436e+00	4.588608e-01	1.224981e+00	4.205074e+01	-2.594003e-09	2.540028e+05	1.013124e+05	2.881136e+02	1.008820e-01	-1.775090e-02	0.000000e+00	
-1.897436e+00	4.272152e-01	1.224981e+00	4.205074e+01	-2.418589e-09	2.540028e+05	1.013124e+05	2.881136e+02	1.008820e-01	-1.775090e-02	0.000000e+00	
-1.897436e+00	3.955696e-01	1.224981e+00	4.205074e+01	-2.230783e-09	2.540028e+05	1.013124e+05	2.881136e+02	1.008820e-01	-1.775090e-02	0.000000e+00	
-1.897436e+00	3.639241e-01	1.224981e+00	4.205074e+01	-2.031674e-09	2.540028e+05	1.013124e+05	2.881136e+02	1.008820e-01	-1.775091e-02	0.000000e+00	
-1.897436e+00	3.322785e-01	1.224981e+00	4.205074e+01	-1.822111e-09	2.540028e+05	1.013124e+05	2.881136e+02	1.008820e-01	-1.775091e-02	0.000000e+00	
-1.897436e+00	3.006329e-01	1.224981e+00	4.205074e+01	-1.603188e-09	2.540028e+05	1.013124e+05	2.881136e+02	1.008820e-01	-1.775091e-02	0.000000e+00	
-1.897436e+00	2.689873e-01	1.224981e+00	4.205074e+01	-1.375722e-09	2.540028e+05	1.013124e+05	2.881136e+02	1.008820e-01	-1.775091e-02	0.000000e+00	
-1.897436e+00	2.373418e-01	1.224981e+00	4.205074e+01	-1.141025e-09	2.540028e+05	1.013124e+05	2.881136e+02	1.008820e-01	-1.775091e-02	0.000000e+00	
-1.897436e+00	2.056962e-01	1.224981e+00	4.205074e+01	-9.001078e-10	2.540028e+05	1.013124e+05	2.881136e+02	1.008820e-01	-1.775091e-02	0.000000e+00	
-1.897436e+00	1.740506e-01	1.224981e+00	4.205074e+01	-6.541289e-10	2.540028e+05	1.013124e+05	2.881136e+02	1.008820e-01	-1.775091e-02	0.000000e+00	
-1.897436e+00	1.424051e-01	1.224981e+00	4.205074e+01	-4.042098e-10	2.540028e+05	1.013124e+05	2.881136e+02	1.008820e-01	-1.775091e-02	0.000000e+00	
-1.897436e+00	1.107595e-01	1.224981e+00	4.205074e+01	-1.517862e-10	2.540028e+05	1.013124e+05	2.881136e+02	1.008820e-01	-1.775091e-02	0.000000e+00	
-1.897436e+00	7.911392e-02	1.224981e+00	4.205074e+01	1.019498e-10	2.540028e+05	1.013124e+05	2.881136e+02	1.008820e-01	-1.775091e-02	0.000000e+00	
-1.897436e+00	4.746835e-02	1.224981e+00	4.205074e+01	3.556212e-10	2.540028e+05	1.013124e+05	2.881136e+02	1.008820e-01	-1.775091e-02	0.000000e+00	
-1.897436e+00	1.582278e-02	1.224981e+00	4.205074e+01	6.080981e-10	2.540028e+05	1.013124e+05	2.881136e+02	1.008820e-01	-1.775091e-02	0.000000e+00	
-1.897436e+00	-1.582278e-02	1.224981e+00	4.205074e+01	8.575470e-10	2.540028e+05	1.013124e+05	2.881136e+02	1.008820e-01	-1.775091e-02	0.000000e+00	
-1.897436e+00	-4.746835e-02	1.224981e+00	4.205074e+01	1.103162e-09	2.540028e+05	1.013124e+05	2.881136e+02	1.008820e-01	-1.775091e-02	0.000000e+00	
-1.897436e+00	-7.911392e-02	1.224981e+00	4.205074e+01	1.343393e-09	2.540028e+05	1.013124e+05	2.881136e+02	1.008820e-01	-1.775091e-02	0.000000e+00	
-1.897436e+00	-1.107595e-01	1.224981e+00	4.205074e+01	1.577033e-09	2.540028e+05	1.013124e+05	2.881136e+02	1.008820e-01	-1.775091e-02	0.000000e+00	