VARIABLES = "x"
 "y"
 "Density"
 "Momentum_x"
 "Momentum_y"
 "Energy"
 "Pressure"
 "Temperature"
 "Mach"
 "C<sub>p</sub>"
 "Roe_Dissipation"
ZONE
DT=(DOUBLE,DOUBLE,DOUBLE,DOUBLE,DOUBLE,DOUBLE,DOUBLE,DOUBLE,DOUBLE,DOUBLE,DOUBLE)
                     -2                     0.6        1.22498095035553        42.0507392883301   -1.85027331686103E-11           254002.796875          101312.3984375        288.113586425781        0.10088200122118     -0.0177509002387524                       0 
      -1.99749874937469                     0.6        1.22498095035553        42.0507392883301   -9.55743959757395E-11           254002.796875          101312.3984375        288.113586425781        0.10088200122118     -0.0177509002387524                       0 
      -1.99499749874937                     0.6        1.22498095035553        42.0507392883301   -1.72646058782875E-10           254002.796875          101312.3984375        288.113586425781        0.10088200122118     -0.0177509002387524                       0 
      -1.99249624812406                     0.6        1.22498095035553        42.0507392883301   -2.49717721590005E-10           254002.796875          101312.3984375        288.113586425781        0.10088200122118     -0.0177509002387524                       0 
      -1.98999499749875                     0.6        1.22498095035553        42.0507392883301   -3.26789384397134E-10           254002.796875          101312.3984375        288.113586425781        0.10088200122118     -0.0177509002387524                       0 
      -1.98749374687344                     0.6        1.22498095035553        42.0507392883301   -4.03861047204263E-10           254002.796875          101312.3984375        288.113586425781        0.10088200122118     -0.0177509002387524                       0 
      -1.98499249624812                     0.6        1.22498095035553        42.0507392883301   -4.80932710011399E-10           254002.796875          101312.3984375        288.113586425781        0.10088200122118     -0.0177509002387524                       0 
      -1.98249124562281                     0.6        1.22498095035553        42.0507392883301   -5.58004372818528E-10           254002.796875          101312.3984375        288.113586425781        0.10088200122118     -0.0177509002387524                       0 
       -1.9799899949975                     0.6        1.22498095035553        42.0507392883301   -6.35076035625657E-10           254002.796875          101312.3984375        288.113586425781        0.10088200122118     -0.0177509002387524                       0 
      -1.97748874437219                     0.6        1.22498095035553        42.0507392883301   -7.12147698432793E-10           254002.796875          101312.3984375        288.113586425781        0.10088200122118     -0.0177509002387524                       0 
      -1.97498749374687                     0.6        1.22498095035553        42.0507392883301   -7.88500994431572E-10           254002.796875          101312.3984375        288.113586425781        0.10088200122118     -0.0177509002387524                       0 
      -1.97248624312156                     0.6        1.22498095035553        42.0507392883301   -8.64309743966106E-10           254002.796875          101312.3984375        288.113586425781        0.10088200122118     -0.0177509002387524                       0 
      -1.96998499249625                     0.6        1.22498095035553        42.0507392883301    -9.4129125990537E-10           254002.796875          101312.3984375        288.113586425781        0.10088200122118     -0.0177509002387524                       0 
      -1.96748374187094                     0.6        1.22498095035553        42.0507392883301    -1.0183629227125E-09           254002.796875          101312.3984375        288.113586425781        0.10088200122118     -0.0177509002387524                       0 
      -1.96498249124562                     0.6        1.22498095035553        42.0507392883301   -1.09543458551963E-09           254002.796875          101312.3984375        288.113586425781        0.10088200122118     -0.0177509002387524                       0 
      -1.96248124062031                     0.6        1.22498095035553        42.0507392883301   -1.17250624832676E-09           254002.796875          101312.3984375        288.113586425781        0.10088200122118     -0.0177509002387524                       0 
        -1.959979989995                     0.6        1.22498095035553        42.0507392883301   -1.24957791113389E-09           254002.796875          101312.3984375        288.113586425781        0.10088200122118     -0.0177509002387524                       0 
      -1.95747873936968                     0.6        1.22498095035553        42.0507392883301   -1.32664957394102E-09           254002.796875          101312.3984375        288.113586425781        0.10088200122118     -0.0177509002387524                       0 
      -1.95497748874437                     0.6        1.22498095035553        42.0507392883301   -1.40372123674815E-09           254002.796875          101312.3984375        288.113586425781        0.10088200122118     -0.0177509002387524                       0 
      -1.95247623811906                     0.6        1.22498095035553        42.0507392883301   -1.48079289955529E-09           254002.796875          101312.3984375        288.113586425781        0.10088200122118     -0.0177509002387524                       0 
      -1.94997498749375                     0.6        1.22498095035553        42.0507392883301   -1.55786456236242E-09           254002.796875          101312.3984375        288.113586425781        0.10088200122118     -0.0177509002387524                       0 
      -1.94747373686843                     0.6        1.22498095035553        42.0507392883301   -1.63571778804319E-09           254002.796875          101312.3984375        288.113586425781        0.10088200122118     -0.0177509002387524                       0 
      -1.94497248624312                     0.6        1.22498095035553        42.0507392883301   -1.71436063008691E-09           254002.796875          101312.3984375        288.113586425781        0.10088200122118     -0.0177509002387524                       0 
      -1.94247123561781                     0.6        1.22498095035553        42.0507392883301   -1.79300347213062E-09           254002.796875          101312.3984375        288.113586425781        0.10088200122118     -0.0177509002387524                       0 
       -1.9399699849925                     0.6        1.22498095035553        42.0507392883301   -1.87164631417434E-09           254002.796875          101312.3984375        288.113586425781        0.10088200122118     -0.0177509002387524                       0 
      -1.93746873436718                     0.6        1.22498095035553        42.0507392883301   -1.95028915621805E-09           254002.796875          101312.3984375        288.113586425781        0.10088200122118     -0.0177509002387524                       0 
      -1.93496748374187                     0.6        1.22498095035553        42.0507392883301   -2.02893199826177E-09           254002.796875          101312.3984375        288.113586425781        0.10088200122118     -0.0177509002387524                       0 
      -1.93246623311656                     0.6        1.22498095035553        42.0507392883301   -2.10757484030549E-09           254002.796875          101312.3984375        288.113586425781        0.10088200122118     -0.0177509002387524                       0 
      -1.92996498249125                     0.6        1.22498095035553        42.0507392883301    -2.1862176823492E-09           254002.796875          101312.3984375        288.113586425781        0.10088200122118     -0.0177509002387524                       0 
      -1.92746373186593                     0.6        1.22498095035553        42.0507392883301   -2.26486052439292E-09           254002.796875          101312.3984375        288.113586425781        0.10088200122118     -0.0177509002387524                       0 
      -1.92496248124062                     0.6        1.22498095035553        42.0507392883301   -2.34341902178243E-09           254002.796875          101312.3984375        288.113586425781        0.10088200122118     -0.0177509002387524                       0 
      -1.92246123061531                     0.6        1.22498095035553        42.0507392883301   -2.42078924133844E-09           254002.796875          101312.3984375        288.113586425781        0.10088200122118     -0.0177509002387524                       0 
      -1.91995997998999                     0.6        1.22498095035553        42.0507392883301   -2.49870170339899E-09           254002.796875          101312.3984375        288.113586425781        0.10088200122118     -0.0177509002387524                       0 
      -1.91745872936468                     0.6        1.22498095035553        42.0507392883301    -2.5773445454427E-09           254002.796875          101312.3984375        288.113586425781        0.10088200122118     -0.0177509002387524                       0 
      -1.91495747873937                     0.6        1.22498095035553        42.0507392883301   -2.65598738748642E-09           254002.796875          101312.3984375        288.113586425781        0.10088200122118     -0.0177509002387524                       0 
      -1.91245622811406                     0.6        1.22498095035553        42.0507392883301   -2.73463022953013E-09           254002.796875          101312.3984375        288.113586425781        0.10088200122118     -0.0177509002387524                       0 
      -1.90995497748874                     0.6        1.22498095035553        42.0507392883301   -2.81327307157385E-09           254002.796875          101312.3984375        288.113586425781        0.10088200122118     -0.0177509002387524                       0 
      -1.90745372686343                     0.6        1.22498095035553        42.0507392883301   -2.89191591361757E-09           254002.796875          101312.3984375        288.113586425781        0.10088200122118     -0.0177509002387524                       0 
      -1.90495247623812                     0.6        1.22498095035553        42.0507392883301   -2.97055875566128E-09           254002.796875          101312.3984375        288.113586425781        0.10088200122118     -0.0177509002387524                       0 
      -1.90245122561281                     0.6        1.22498095035553        42.0507392883301     -3.049201597705E-09           254002.796875          101312.3984375        288.113586425781        0.10088200122118     -0.0177509002387524                       0 
      -1.89994997498749                     0.6        1.22498095035553        42.0507392883301   -3.12784443974872E-09           254002.796875          101312.3984375        288.113586425781        0.10088200122118     -0.0177509002387524                       0 
      -1.89744872436218                     0.6        1.22498095035553        42.0507392883301   -3.20648728179243E-09           254002.796875          101312.3984375        288.113586425781        0.10088200122118     -0.0177509002387524                       0 
      -1.89494747373687                     0.6        1.22498095035553        42.0507392883301   -3.28726574065647E-09           254002.796875          101312.3984375        288.113586425781        0.10088200122118     -0.0177509006906926                       0 
      -1.89244622311156                     0.6        1.22498095035553        42.0507392883301   -3.36805509975122E-09           254002.796875          101312.3984375        288.113586425781        0.10088200122118     -0.0177509011449395                       0 
      -1.88994497248624                     0.6        1.22498095035553        42.0507392883301   -3.44884445884598E-09           254002.796875          101312.3984375        288.113586425781        0.10088200122118     -0.0177509015991864                       0 
      -1.88744372186093                     0.6        1.22498095035553        42.0507392883301   -3.52963381794073E-09           254002.796875          101312.3984375        288.113586425781        0.10088200122118     -0.0177509020534333                       0 
      -1.88494247123562                     0.6        1.22498095035553        42.0507392883301   -3.61042317703549E-09           254002.796875          101312.3984375        288.113586425781        0.10088200122118     -0.0177509025076802                       0 
      -1.88244122061031                     0.6        1.22498095035553        42.0507392883301   -3.69121253613024E-09           254002.796875          101312.3984375        288.113586425781        0.10088200122118     -0.0177509029619271                       0 
      -1.87993996998499                     0.6        1.22498095035553        42.0507392883301     -3.772001895225E-09           254002.796875          101312.3984375        288.113586425781        0.10088200122118      -0.017750903416174                       0 
      -1.87743871935968                     0.6        1.22498095035553        42.0507392883301   -3.85279125431976E-09           254002.796875          101312.3984375        288.113586425781        0.10088200122118     -0.0177509038704209                       0 
      -1.87493746873437                     0.6        1.22498095035553        42.0507392883301   -3.93358061341451E-09           254002.796875          101312.3984375        288.113586425781        0.10088200122118     -0.0177509043246678                       0 
      -1.87243621810905                     0.6        1.22498095035553        42.0507392883301   -4.01364212070203E-09           254002.796875          101312.3984375        288.113586425781        0.10088200122118     -0.0177509047789147                       0 
      -1.86993496748374                     0.6        1.22498095035553        42.0507392883301   -4.09314036518089E-09           254002.796875          101312.3984375        288.113586425781        0.10088200122118     -0.0177509052331616                       0 
      -1.86743371685843                     0.6        1.22498095035553        42.0507392883301   -4.17383100798262E-09           254002.796875          101312.3984375        288.113586425781        0.10088200122118     -0.0177509056874085                       0 
      -1.86493246623312                     0.6        1.22498095035553        42.0507392883301   -4.25462036707737E-09           254002.796875          101312.3984375        288.113586425781        0.10088200122118     -0.0177509061416554                       0 
       -1.8624312156078                     0.6        1.22498095035553        42.0507392883301   -4.33540972617212E-09           254002.796875          101312.3984375        288.113586425781        0.10088200122118     -0.0177509065959023                       0 
      -1.85992996498249                     0.6        1.22498095035553        42.0507392883301   -4.41619908526688E-09           254002.796875          101312.3984375        288.113586425781        0.10088200122118     -0.0177509070501492                       0 
      -1.85742871435718                     0.6        1.22498095035553        42.0507392883301   -4.49698844436164E-09           254002.796875          101312.3984375        288.113586425781        0.10088200122118     -0.0177509075043961                       0 
      -1.85492746373187                     0.6        1.22498095035553        42.0507392883301   -4.57777780345639E-09           254002.796875          101312.3984375        288.113586425781        0.10088200122118      -0.017750907958643                       0 
      -1.85242621310655                     0.6        1.22498095035553        42.0507392883301   -4.65856716255115E-09           254002.796875          101312.3984375        288.113586425781        0.10088200122118       -0.01775090841289                       0 
      -1.84992496248124                     0.6        1.22498095035553        42.0507392883301   -4.73935652164591E-09           254002.796875          101312.3984375        288.113586425781        0.10088200122118     -0.0177509088671369                       0 
      -1.84742371185593                     0.6        1.22498095035553        42.0507392883301   -4.82014588074066E-09           254002.796875          101312.3984375        288.113586425781        0.10088200122118     -0.0177509093213838                       0 
      -1.84492246123062                     0.6        1.22498095035553        42.0507392883301   -4.90266633979907E-09           254002.796875          101312.3984375        288.113586425781        0.10088200122118     -0.0177509095519781                       0 
       -1.8424212106053                     0.6        1.22498095035553        42.0507392883301   -4.98697162913827E-09           254002.796875          101312.3984375        288.113586425781        0.10088200122118     -0.0177509095519781                       0 
      -1.83991995997999                     0.6        1.22498095035553        42.0507392883301   -5.07127691847746E-09           254002.796875          101312.3984375        288.113586425781        0.10088200122118     -0.0177509095519781                       0 
      -1.83741870935468                     0.6        1.22498095035553        42.0507392883301   -5.15558220781666E-09           254002.796875          101312.3984375        288.113586425781        0.10088200122118     -0.0177509095519781                       0 
      -1.83491745872936                     0.6        1.22498095035553        42.0507392883301   -5.23988749715586E-09           254002.796875          101312.3984375        288.113586425781        0.10088200122118     -0.0177509095519781                       0 
      -1.83241620810405                     0.6        1.22498095035553        42.0507392883301   -5.32419278649505E-09           254002.796875          101312.3984375        288.113586425781        0.10088200122118     -0.0177509095519781                       0 
      -1.82991495747874                     0.6        1.22498095035553        42.0507392883301   -5.40849807583425E-09           254002.796875          101312.3984375        288.113586425781        0.10088200122118     -0.0177509095519781                       0 
      -1.82741370685343                     0.6        1.22498095035553        42.0507392883301   -5.49280336517345E-09           254002.796875          101312.3984375        288.113586425781        0.10088200122118     -0.0177509095519781                       0 
      -1.82491245622811                     0.6        1.22498095035553        42.0507392883301   -5.57710865451264E-09           254002.796875          101312.3984375        288.113586425781        0.10088200122118     -0.0177509095519781                       0 
       -1.8224112056028                     0.6        1.22498095035553        42.0507392883301   -5.66133277081967E-09           254002.796875          101312.3984375        288.113586425781        0.10088200122118     -0.0177509095519781                       0 
      -1.81990995497749                     0.6        1.22498095035553        42.0507392883301    -5.7443116634409E-09           254002.796875          101312.3984375        288.113586425781        0.10088200122118     -0.0177509095519781                       0 
      -1.81740870435218                     0.6        1.22498095035553        42.0507392883301    -5.8278489752625E-09           254002.796875          101312.3984375        288.113586425781        0.10088200122118     -0.0177509095519781                       0 
      -1.81490745372686                     0.6        1.22498095035553        42.0507392883301    -5.9121542646017E-09           254002.796875          101312.3984375        288.113586425781        0.10088200122118     -0.0177509095519781                       0 
      -1.81240620310155                     0.6        1.22498095035553        42.0507392883301   -5.99645955394089E-09           254002.796875          101312.3984375        288.113586425781        0.10088200122118     -0.0177509095519781                       0 
      -1.80990495247624                     0.6        1.22498095035553        42.0507392883301   -6.08076484328009E-09           254002.796875          101312.3984375        288.113586425781        0.10088200122118     -0.0177509095519781                       0 
      -1.80740370185093                     0.6        1.22498095035553        42.0507392883301   -6.16507013261929E-09           254002.796875          101312.3984375        288.113586425781        0.10088200122118     -0.0177509095519781                       0 
      -1.80490245122561                     0.6        1.22498095035553        42.0507392883301   -6.24937542195848E-09           254002.796875          101312.3984375        288.113586425781        0.10088200122118     -0.0177509095519781                       0 
       -1.8024012006003                     0.6        1.22498095035553        42.0507392883301   -6.33368071129768E-09           254002.796875          101312.3984375        288.113586425781        0.10088200122118     -0.0177509095519781                       0 
      -1.79989994997499                     0.6        1.22498095035553        42.0507392883301   -6.41798600063688E-09           254002.796875          101312.3984375        288.113586425781        0.10088200122118     -0.0177509095519781                       0 
      -1.79739869934967                     0.6        1.22498095035553        42.0507392883301   -6.50229128997607E-09           254002.796875          101312.3984375        288.113586425781        0.10088200122118     -0.0177509095519781                       0 
      -1.79489744872436                     0.6        1.22498095035553        42.0507392883301   -6.58659657931526E-09           254002.796875          101312.3984375        288.113586425781        0.10088200122118     -0.0177509095519781                       0 
      -1.79239619809905                     0.6        1.22498095035553        42.0507392883301   -6.67525452741774E-09           254002.796875          101312.3984375        288.113586425781        0.10088200122118     -0.0177509095519781                       0 
      -1.78989494747374                     0.6        1.22498095035553        42.0507392883301   -6.76395713557982E-09           254002.796875          101312.3984375        288.113586425781        0.10088200122118     -0.0177509095519781                       0 
      -1.78739369684842                     0.6        1.22498095035553        42.0507392883301   -6.85265974374191E-09           254002.796875          101312.3984375        288.113586425781        0.10088200122118     -0.0177509095519781                       0 
      -1.78489244622311                     0.6        1.22498095035553        42.0507392883301   -6.94136235190399E-09           254002.796875          101312.3984375        288.113586425781        0.10088200122118     -0.0177509095519781                       0 
       -1.7823911955978                     0.6        1.22498095035553        42.0507392883301   -7.03006496006607E-09           254002.796875          101312.3984375        288.113586425781        0.10088200122118     -0.0177509095519781                       0 
      -1.77988994497249                     0.6        1.22498095035553        42.0507392883301   -7.11876756822816E-09           254002.796875          101312.3984375        288.113586425781        0.10088200122118     -0.0177509095519781                       0 
      -1.77738869434717                     0.6        1.22498095035553        42.0507392883301   -7.20747017639025E-09           254002.796875          101312.3984375        288.113586425781        0.10088200122118     -0.0177509095519781                       0 
      -1.77488744372186                     0.6        1.22498095035553        42.0507392883301   -7.29617278455233E-09           254002.796875          101312.3984375        288.113586425781        0.10088200122118     -0.0177509095519781                       0 
      -1.77238619309655                     0.6        1.22498095035553        42.0507392883301   -7.38487539271441E-09           254002.796875          101312.3984375        288.113586425781        0.10088200122118     -0.0177509095519781                       0 
      -1.76988494247124                     0.6        1.22498095035553        42.0507392883301   -7.47281297658156E-09           254002.796875          101312.3984375        288.113586425781        0.10088200122118     -0.0177509095519781                       0 
      -1.76738369184592                     0.6        1.22498095035553        42.0507392883301   -7.56014619565096E-09           254002.796875          101312.3984375        288.113586425781        0.10088200122118     -0.0177509095519781                       0 
      -1.76488244122061                     0.6        1.22498095035553        42.0507392883301   -7.64873714889847E-09           254002.796875          101312.3984375        288.113586425781        0.10088200122118     -0.0177509095519781                       0 
       -1.7623811905953                     0.6        1.22498095035553        42.0507392883301   -7.73743975706055E-09           254002.796875          101312.3984375        288.113586425781        0.10088200122118     -0.0177509095519781                       0 
      -1.75987993996998                     0.6        1.22498095035553        42.0507392883301   -7.82614236522264E-09           254002.796875          101312.3984375        288.113586425781        0.10088200122118     -0.0177509095519781                       0 
      -1.75737868934467                     0.6        1.22498095035553        42.0507392883301   -7.91484497338472E-09           254002.796875          101312.3984375        288.113586425781        0.10088200122118     -0.0177509095519781                       0 
      -1.75487743871936                     0.6        1.22498095035553        42.0507392883301    -8.0035475815468E-09           254002.796875          101312.3984375        288.113586425781        0.10088200122118     -0.0177509095519781                       0 
      -1.75237618809405                     0.6        1.22498095035553        42.0507392883301   -8.09225018970889E-09           254002.796875          101312.3984375        288.113586425781        0.10088200122118     -0.0177509095519781                       0 
      -1.74987493746873                     0.6        1.22498095035553        42.0507392883301   -8.18095279787098E-09           254002.796875          101312.3984375        288.113586425781        0.10088200122118     -0.0177509095519781                       0 
      -1.74737368684342                     0.6        1.22498095035553        42.0507392883301   -8.26965540603306E-09           254002.796875          101312.3984375        288.113586425781        0.10088200122118     -0.0177509095519781                       0 
      -1.74487243621811                     0.6        1.22498095035553        42.0507392883301   -8.35835801419514E-09           254002.796875          101312.3984375        288.113586425781        0.10088200122118     -0.0177509095519781                       0 
       -1.7423711855928                     0.6        1.22498095035553        42.0507392883301   -8.44978478908143E-09           254002.796875          101312.3984375        288.113586425781        0.10088200122118     -0.0177509095519781                       0 
      -1.73986993496748                     0.6        1.22498095035553        42.0507392883301   -8.54407794394508E-09           254002.796875          101312.3984375        288.113586425781        0.10088200122118     -0.0177509095519781                       0 
      -1.73736868434217                     0.6        1.22498095035553        42.0507392883301   -8.63837109880874E-09           254002.796875          101312.3984375        288.113586425781        0.10088200122118     -0.0177509095519781                       0 
      -1.73486743371686                     0.6        1.22498095035553        42.0507392883301   -8.73266425367239E-09           254002.796875          101312.3984375        288.113586425781        0.10088200122118     -0.0177509095519781                       0 
      -1.73236618309155                     0.6        1.22498095035553        42.0507392883301   -8.82695740853604E-09           254002.796875          101312.3984375        288.113586425781        0.10088200122118     -0.0177509095519781                       0 
      -1.72986493246623                     0.6        1.22498095035553        42.0507392883301   -8.92125056339968E-09           254002.796875          101312.3984375        288.113586425781        0.10088200122118     -0.0177509095519781                       0 
      -1.72736368184092                     0.6        1.22498095035553        42.0507392883301   -9.01554371826333E-09           254002.796875          101312.3984375        288.113586425781        0.10088200122118     -0.0177509095519781                       0 
      -1.72486243121561                     0.6        1.22498095035553        42.0507392883301   -9.10983687312699E-09           254002.796875          101312.3984375        288.113586425781        0.10088200122118     -0.0177509095519781                       0 
       -1.7223611805903                     0.6        1.22498095035553        42.0507392883301   -9.20413002799064E-09           254002.796875          101312.3984375        288.113586425781        0.10088200122118     -0.0177509095519781                       0 