TITLE = "Visualization of the volumetric solution"
VARIABLES = "x","y","Density","Momentum_x","Momentum_y","Energy","Pressure","Temperature","Mach","C<sub>p</sub>","Roe_Dissipation"
ZONE NODES= 2400, ELEMENTS= 2291, DATAPACKING=POINT, ZONETYPE=FEQUADRILATERAL
0.000000e+00	1.250000e+00	1.222603e+00	5.052759e+01	-4.140788e+00	2.539079e+05	1.011427e+05	2.881902e+02	1.218451e-01	-2.570225e-01	0.000000e+00	
0.000000e+00	1.218354e+00	1.222613e+00	5.052912e+01	-4.126782e+00	2.539082e+05	1.011428e+05	2.881883e+02	1.218454e-01	-2.568538e-01	0.000000e+00	
3.448276e-02	1.218354e+00	1.241676e+00	4.987610e+01	-2.256829e+01	2.592817e+05	1.032300e+05	2.896194e+02	1.292316e-01	2.685782e+00	0.000000e+00	
3.448276e-02	1.250000e+00	1.241662e+00	4.987525e+01	-2.257036e+01	2.592785e+05	1.032287e+05	2.896191e+02	1.292334e-01	2.683986e+00	0.000000e+00	
0.000000e+00	1.186709e+00	1.222613e+00	5.053229e+01	-4.120025e+00	2.539070e+05	1.011423e+05	2.881869e+02	1.218520e-01	-2.575532e-01	0.000000e+00	
3.448276e-02	1.186709e+00	1.241680e+00	4.987540e+01	-2.256919e+01	2.592823e+05	1.032302e+05	2.896192e+02	1.292307e-01	2.686100e+00	0.000000e+00	
0.000000e+00	1.155063e+00	1.222613e+00	5.053422e+01	-4.116768e+00	2.539066e+05	1.011421e+05	2.881864e+02	1.218561e-01	-2.578196e-01	0.000000e+00	
3.448276e-02	1.155063e+00	1.241684e+00	4.987539e+01	-2.256959e+01	2.592830e+05	1.032305e+05	2.896189e+02	1.292306e-01	2.686493e+00	0.000000e+00	
0.000000e+00	1.123418e+00	1.222612e+00	5.053471e+01	-4.115156e+00	2.539064e+05	1.011420e+05	2.881864e+02	1.218571e-01	-2.579480e-01	0.000000e+00	
3.448276e-02	1.123418e+00	1.241687e+00	4.987519e+01	-2.257010e+01	2.592833e+05	1.032306e+05	2.896188e+02	1.292305e-01	2.686704e+00	0.000000e+00	
0.000000e+00	1.091772e+00	1.222611e+00	5.053454e+01	-4.114166e+00	2.539063e+05	1.011420e+05	2.881864e+02	1.218566e-01	-2.580222e-01	0.000000e+00	
3.448276e-02	1.091772e+00	1.241688e+00	4.987487e+01	-2.257042e+01	2.592836e+05	1.032307e+05	2.896188e+02	1.292300e-01	2.686842e+00	0.000000e+00	
0.000000e+00	1.060127e+00	1.222611e+00	5.053433e+01	-4.113461e+00	2.539062e+05	1.011420e+05	2.881865e+02	1.218560e-01	-2.580635e-01	0.000000e+00	
3.448276e-02	1.060127e+00	1.241689e+00	4.987461e+01	-2.257055e+01	2.592837e+05	1.032308e+05	2.896189e+02	1.292295e-01	2.686939e+00	0.000000e+00	
0.000000e+00	1.028481e+00	1.222610e+00	5.053425e+01	-4.112969e+00	2.539061e+05	1.011419e+05	2.881865e+02	1.218557e-01	-2.580885e-01	0.000000e+00	
3.448276e-02	1.028481e+00	1.241689e+00	4.987447e+01	-2.257060e+01	2.592838e+05	1.032308e+05	2.896189e+02	1.292292e-01	2.687005e+00	0.000000e+00	
0.000000e+00	9.968354e-01	1.222610e+00	5.053426e+01	-4.112647e+00	2.539061e+05	1.011419e+05	2.881865e+02	1.218557e-01	-2.581012e-01	0.000000e+00	
3.448276e-02	9.968354e-01	1.241689e+00	4.987442e+01	-2.257062e+01	2.592839e+05	1.032309e+05	2.896189e+02	1.292291e-01	2.687052e+00	0.000000e+00	
0.000000e+00	9.651899e-01	1.222610e+00	5.053429e+01	-4.112450e+00	2.539061e+05	1.011419e+05	2.881865e+02	1.218557e-01	-2.581081e-01	0.000000e+00	
3.448276e-02	9.651899e-01	1.241690e+00	4.987441e+01	-2.257064e+01	2.592840e+05	1.032309e+05	2.896189e+02	1.292290e-01	2.687084e+00	0.000000e+00	
0.000000e+00	9.335443e-01	1.222610e+00	5.053431e+01	-4.112332e+00	2.539061e+05	1.011419e+05	2.881865e+02	1.218557e-01	-2.581107e-01	0.000000e+00	
3.448276e-02	9.335443e-01	1.241690e+00	4.987440e+01	-2.257066e+01	2.592840e+05	1.032309e+05	2.896189e+02	1.292290e-01	2.687106e+00	0.000000e+00	
0.000000e+00	9.018987e-01	1.222610e+00	5.053431e+01	-4.112259e+00	2.539061e+05	1.011419e+05	2.881865e+02	1.218557e-01	-2.581113e-01	0.000000e+00	
3.448276e-02	9.018987e-01	1.241690e+00	4.987438e+01	-2.257068e+01	2.592840e+05	1.032309e+05	2.896189e+02	1.292290e-01	2.687122e+00	0.000000e+00	
0.000000e+00	8.702532e-01	1.222610e+00	5.053430e+01	-4.112210e+00	2.539061e+05	1.011419e+05	2.881865e+02	1.218557e-01	-2.581106e-01	0.000000e+00	
3.448276e-02	8.702532e-01	1.241690e+00	4.987437e+01	-2.257070e+01	2.592841e+05	1.032309e+05	2.896189e+02	1.292290e-01	2.687134e+00	0.000000e+00	
0.000000e+00	8.386076e-01	1.222610e+00	5.053429e+01	-4.112176e+00	2.539061e+05	1.011419e+05	2.881865e+02	1.218557e-01	-2.581094e-01	0.000000e+00	
3.448276e-02	8.386076e-01	1.241690e+00	4.987435e+01	-2.257071e+01	2.592841e+05	1.032309e+05	2.896189e+02	1.292289e-01	2.687142e+00	0.000000e+00	
0.000000e+00	8.069620e-01	1.222610e+00	5.053427e+01	-4.112151e+00	2.539061e+05	1.011419e+05	2.881865e+02	1.218556e-01	-2.581081e-01	0.000000e+00	
3.448276e-02	8.069620e-01	1.241690e+00	4.987434e+01	-2.257072e+01	2.592841e+05	1.032309e+05	2.896189e+02	1.292289e-01	2.687149e+00	0.000000e+00	
0.000000e+00	7.753165e-01	1.222610e+00	5.053426e+01	-4.112133e+00	2.539061e+05	1.011419e+05	2.881865e+02	1.218556e-01	-2.581069e-01	0.000000e+00	
3.448276e-02	7.753165e-01	1.241690e+00	4.987432e+01	-2.257073e+01	2.592841e+05	1.032309e+05	2.896189e+02	1.292289e-01	2.687154e+00	0.000000e+00	
0.000000e+00	7.436709e-01	1.222610e+00	5.053425e+01	-4.112119e+00	2.539061e+05	1.011419e+05	2.881865e+02	1.218555e-01	-2.581058e-01	0.000000e+00	
3.448276e-02	7.436709e-01	1.241690e+00	4.987431e+01	-2.257073e+01	2.592841e+05	1.032309e+05	2.896190e+02	1.292288e-01	2.687158e+00	0.000000e+00	
0.000000e+00	7.120253e-01	1.222610e+00	5.053423e+01	-4.112107e+00	2.539061e+05	1.011419e+05	2.881865e+02	1.218555e-01	-2.581047e-01	0.000000e+00	
3.448276e-02	7.120253e-01	1.241690e+00	4.987429e+01	-2.257074e+01	2.592841e+05	1.032309e+05	2.896190e+02	1.292288e-01	2.687162e+00	0.000000e+00	
0.000000e+00	6.803797e-01	1.222610e+00	5.053422e+01	-4.112097e+00	2.539061e+05	1.011419e+05	2.881865e+02	1.218555e-01	-2.581037e-01	0.000000e+00	
3.448276e-02	6.803797e-01	1.241690e+00	4.987428e+01	-2.257074e+01	2.592841e+05	1.032309e+05	2.896190e+02	1.292288e-01	2.687165e+00	0.000000e+00	
0.000000e+00	6.487342e-01	1.222610e+00	5.053421e+01	-4.112087e+00	2.539061e+05	1.011419e+05	2.881865e+02	1.218555e-01	-2.581027e-01	0.000000e+00	
3.448276e-02	6.487342e-01	1.241690e+00	4.987427e+01	-2.257074e+01	2.592841e+05	1.032309e+05	2.896190e+02	1.292288e-01	2.687167e+00	0.000000e+00	
0.000000e+00	6.170886e-01	1.222610e+00	5.053420e+01	-4.112079e+00	2.539061e+05	1.011419e+05	2.881865e+02	1.218554e-01	-2.581017e-01	0.000000e+00	
3.448276e-02	6.170886e-01	1.241690e+00	4.987426e+01	-2.257074e+01	2.592841e+05	1.032309e+05	2.896190e+02	1.292287e-01	2.687169e+00	0.000000e+00	
0.000000e+00	5.854430e-01	1.222610e+00	5.053420e+01	-4.112071e+00	2.539061e+05	1.011419e+05	2.881865e+02	1.218554e-01	-2.581008e-01	0.000000e+00	
3.448276e-02	5.854430e-01	1.241690e+00	4.987426e+01	-2.257074e+01	2.592841e+05	1.032309e+05	2.896190e+02	1.292287e-01	2.687172e+00	0.000000e+00	
0.000000e+00	5.537975e-01	1.222610e+00	5.053419e+01	-4.112065e+00	2.539061e+05	1.011419e+05	2.881865e+02	1.218554e-01	-2.580999e-01	0.000000e+00	
3.448276e-02	5.537975e-01	1.241690e+00	4.987425e+01	-2.257074e+01	2.592841e+05	1.032309e+05	2.896190e+02	1.292287e-01	2.687173e+00	0.000000e+00	
0.000000e+00	5.221519e-01	1.222610e+00	5.053419e+01	-4.112060e+00	2.539061e+05	1.011419e+05	2.881865e+02	1.218554e-01	-2.580992e-01	0.000000e+00	
3.448276e-02	5.221519e-01	1.241690e+00	4.987425e+01	-2.257074e+01	2.592841e+05	1.032309e+05	2.896190e+02	1.292287e-01	2.687175e+00	0.000000e+00	
0.000000e+00	4.905063e-01	1.222610e+00	5.053418e+01	-4.112055e+00	2.539061e+05	1.011419e+05	2.881865e+02	1.218554e-01	-2.580985e-01	0.000000e+00	
3.448276e-02	4.905063e-01	1.241690e+00	4.987424e+01	-2.257074e+01	2.592841e+05	1.032309e+05	2.896190e+02	1.292287e-01	2.687176e+00	0.000000e+00	
0.000000e+00	4.588608e-01	1.222610e+00	5.053418e+01	-4.112050e+00	2.539061e+05	1.011419e+05	2.881865e+02	1.218554e-01	-2.580978e-01	0.000000e+00	
3.448276e-02	4.588608e-01	1.241690e+00	4.987424e+01	-2.257074e+01	2.592841e+05	1.032309e+05	2.896190e+02	1.292287e-01	2.687178e+00	0.000000e+00	
0.000000e+00	4.272152e-01	1.222610e+00	5.053418e+01	-4.112045e+00	2.539061e+05	1.011419e+05	2.881865e+02	1.218554e-01	-2.580972e-01	0.000000e+00	
3.448276e-02	4.272152e-01	1.241690e+00	4.987423e+01	-2.257074e+01	2.592841e+05	1.032309e+05	2.896190e+02	1.292287e-01	2.687179e+00	0.000000e+00	
0.000000e+00	3.955696e-01	1.222610e+00	5.053417e+01	-4.112041e+00	2.539061e+05	1.011419e+05	2.881865e+02	1.218553e-01	-2.580967e-01	0.000000e+00	
3.448276e-02	3.955696e-01	1.241690e+00	4.987423e+01	-2.257074e+01	2.592841e+05	1.032309e+05	2.896190e+02	1.292287e-01	2.687180e+00	0.000000e+00	
0.000000e+00	3.639241e-01	1.222610e+00	5.053417e+01	-4.112036e+00	2.539061e+05	1.011419e+05	2.881865e+02	1.218553e-01	-2.580962e-01	0.000000e+00	
3.448276e-02	3.639241e-01	1.241690e+00	4.987423e+01	-2.257074e+01	2.592841e+05	1.032310e+05	2.896190e+02	1.292287e-01	2.687181e+00	0.000000e+00	
0.000000e+00	3.322785e-01	1.222610e+00	5.053417e+01	-4.112032e+00	2.539061e+05	1.011419e+05	2.881865e+02	1.218553e-01	-2.580958e-01	0.000000e+00	
3.448276e-02	3.322785e-01	1.241690e+00	4.987422e+01	-2.257074e+01	2.592841e+05	1.032310e+05	2.896190e+02	1.292286e-01	2.687182e+00	0.000000e+00	
0.000000e+00	3.006329e-01	1.222610e+00	5.053416e+01	-4.112028e+00	2.539061e+05	1.011419e+05	2.881865e+02	1.218553e-01	-2.580953e-01	0.000000e+00	
3.448276e-02	3.006329e-01	1.241690e+00	4.987422e+01	-2.257073e+01	2.592842e+05	1.032310e+05	2.896190e+02	1.292286e-01	2.687183e+00	0.000000e+00	
0.000000e+00	2.689873e-01	1.222610e+00	5.053416e+01	-4.112024e+00	2.539061e+05	1.011419e+05	2.881865e+02	1.218553e-01	-2.580950e-01	0.000000e+00	
3.448276e-02	2.689873e-01	1.241690e+00	4.987422e+01	-2.257073e+01	2.592842e+05	1.032310e+05	2.896190e+02	1.292286e-01	2.687183e+00	0.000000e+00	
0.000000e+00	2.373418e-01	1.222610e+00	5.053416e+01	-4.112020e+00	2.539061e+05	1.011419e+05	2.881865e+02	1.218553e-01	-2.580946e-01	0.000000e+00	
3.448276e-02	2.373418e-01	1.241690e+00	4.987421e+01	-2.257073e+01	2.592842e+05	1.032310e+05	2.896190e+02	1.292286e-01	2.687184e+00	0.000000e+00	
0.000000e+00	2.056962e-01	1.222610e+00	5.053415e+01	-4.112016e+00	2.539061e+05	1.011419e+05	2.881865e+02	1.218553e-01	-2.580943e-01	0.000000e+00	
3.448276e-02	2.056962e-01	1.241690e+00	4.987421e+01	-2.257073e+01	2.592842e+05	1.032310e+05	2.896190e+02	1.292286e-01	2.687185e+00	0.000000e+00	
0.000000e+00	1.740506e-01	1.222610e+00	5.053415e+01	-4.112013e+00	2.539061e+05	1.011419e+05	2.881865e+02	1.218553e-01	-2.580940e-01	0.000000e+00	
3.448276e-02	1.740506e-01	1.241690e+00	4.987421e+01	-2.257073e+01	2.592842e+05	1.032310e+05	2.896190e+02	1.292286e-01	2.687186e+00	0.000000e+00	
0.000000e+00	1.424051e-01	1.222610e+00	5.053415e+01	-4.112009e+00	2.539061e+05	1.011419e+05	2.881865e+02	1.218553e-01	-2.580937e-01	0.000000e+00	
3.448276e-02	1.424051e-01	1.241690e+00	4.987420e+01	-2.257073e+01	2.592842e+05	1.032310e+05	2.896190e+02	1.292286e-01	2.687186e+00	0.000000e+00	
0.000000e+00	1.107595e-01	1.222610e+00	5.053415e+01	-4.112006e+00	2.539061e+05	1.011419e+05	2.881865e+02	1.218553e-01	-2.580934e-01	0.000000e+00	
3.448276e-02	1.107595e-01	1.241690e+00	4.987420e+01	-2.257073e+01	2.592842e+05	1.032310e+05	2.896190e+02	1.292286e-01	2.687187e+00	0.000000e+00	
0.000000e+00	7.911392e-02	1.222610e+00	5.053414e+01	-4.112003e+00	2.539061e+05	1.011419e+05	2.881865e+02	1.218553e-01	-2.580932e-01	0.000000e+00	
3.448276e-02	7.911392e-02	1.241690e+00	4.987420e+01	-2.257073e+01	2.592842e+05	1.032310e+05	2.896190e+02	1.292286e-01	2.687188e+00	0.000000e+00	
0.000000e+00	4.746835e-02	1.222610e+00	5.053414e+01	-4.112000e+00	2.539061e+05	1.011419e+05	2.881865e+02	1.218553e-01	-2.580929e-01	0.000000e+00	
3.448276e-02	4.746835e-02	1.241690e+00	4.987420e+01	-2.257072e+01	2.592842e+05	1.032310e+05	2.896190e+02	1.292286e-01	2.687188e+00	0.000000e+00	
0.000000e+00	1.582278e-02	1.222610e+00	5.053414e+01	-4.111997e+00	2.539061e+05	1.011419e+05	2.881865e+02	1.218553e-01	-2.580927e-01	0.000000e+00	
3.448276e-02	1.582278e-02	1.241690e+00	4.987419e+01	-2.257072e+01	2.592842e+05	1.032310e+05	2.896190e+02	1.292286e-01	2.687189e+00	0.000000e+00	
0.000000e+00	-1.582278e-02	1.222610e+00	5.053414e+01	-4.111994e+00	2.539061e+05	1.011419e+05	2.881865e+02	1.218553e-01	-2.580925e-01	0.000000e+00	
3.448276e-02	-1.582278e-02	1.241690e+00	4.987419e+01	-2.257072e+01	2.592842e+05	1.032310e+05	2.896190e+02	1.292286e-01	2.687189e+00	0.000000e+00	
0.000000e+00	-4.746835e-02	1.222610e+00	5.053413e+01	-4.111992e+00	2.539061e+05	1.011419e+05	2.881865e+02	1.218552e-01	-2.580923e-01	0.000000e+00	
3.448276e-02	-4.746835e-02	1.241690e+00	4.987419e+01	-2.257072e+01	2.592842e+05	1.032310e+05	2.896190e+02	1.292285e-01	2.687190e+00	0.000000e+00	
0.000000e+00	-7.911392e-02	1.222610e+00	5.053413e+01	-4.111990e+00	2.539061e+05	1.011419e+05	2.881865e+02	1.218552e-01	-2.580921e-01	0.000000e+00	
3.448276e-02	-7.911392e-02	1.241690e+00	4.987418e+01	-2.257072e+01	2.592842e+05	1.032310e+05	2.896190e+02	1.292285e-01	2.687190e+00	0.000000e+00	
0.000000e+00	-1.107595e-01	1.222610e+00	5.053413e+01	-4.111988e+00	2.539061e+05	1.011419e+05	2.881865e+02	1.218552e-01	-2.580919e-01	0.000000e+00	
3.448276e-02	-1.107595e-01	1.241690e+00	4.987418e+01	-2.257072e+01	2.592842e+05	1.032310e+05	2.896190e+02	1.292285e-01	2.687191e+00	0.000000e+00	
0.000000e+00	-1.424051e-01	1.222610e+00	5.053413e+01	-4.111986e+00	2.539061e+05	1.011419e+05	2.881865e+02	1.218552e-01	-2.580917e-01	0.000000e+00	
3.448276e-02	-1.424051e-01	1.241690e+00	4.987418e+01	-2.257072e+01	2.592842e+05	1.032310e+05	2.896190e+02	1.292285e-01	2.687191e+00	0.000000e+00	
0.000000e+00	-1.740506e-01	1.222610e+00	5.053412e+01	-4.111985e+00	2.539061e+05	1.011419e+05	2.881865e+02	1.218552e-01	-2.580916e-01	0.000000e+00	
3.448276e-02	-1.740506e-01	1.241690e+00	4.987418e+01	-2.257072e+01	2.592842e+05	1.032310e+05	2.896190e+02	1.292285e-01	2.687192e+00	0.000000e+00	
0.000000e+00	-2.056962e-01	1.222610e+00	5.053412e+01	-4.111984e+00	2.539061e+05	1.011419e+05	2.881865e+02	1.218552e-01	-2.580915e-01	0.000000e+00	
3.448276e-02	-2.056962e-01	1.241690e+00	4.987417e+01	-2.257072e+01	2.592842e+05	1.032310e+05	2.896190e+02	1.292285e-01	2.687192e+00	0.000000e+00	
0.000000e+00	-2.373418e-01	1.222610e+00	5.053412e+01	-4.111983e+00	2.539061e+05	1.011419e+05	2.881865e+02	1.218552e-01	-2.580913e-01	0.000000e+00	
3.448276e-02	-2.373418e-01	1.241690e+00	4.987417e+01	-2.257072e+01	2.592842e+05	1.032310e+05	2.896190e+02	1.292285e-01	2.687192e+00	0.000000e+00	
0.000000e+00	-2.689873e-01	1.222610e+00	5.053412e+01	-4.111983e+00	2.539061e+05	1.011419e+05	2.881865e+02	1.218552e-01	-2.580912e-01	0.000000e+00	
3.448276e-02	-2.689873e-01	1.241690e+00	4.987417e+01	-2.257072e+01	2.592842e+05	1.032310e+05	2.896190e+02	1.292285e-01	2.687193e+00	0.000000e+00	
0.000000e+00	-3.006329e-01	1.222610e+00	5.053412e+01	-4.111982e+00	2.539061e+05	1.011419e+05	2.881865e+02	1.218552e-01	-2.580912e-01	0.000000e+00	
3.448276e-02	-3.006329e-01	1.241690e+00	4.987417e+01	-2.257073e+01	2.592842e+05	1.032310e+05	2.896190e+02	1.292285e-01	2.687193e+00	0.000000e+00	
0.000000e+00	-3.322785e-01	1.222610e+00	5.053411e+01	-4.111982e+00	2.539061e+05	1.011419e+05	2.881865e+02	1.218552e-01	-2.580911e-01	0.000000e+00	
3.448276e-02	-3.322785e-01	1.241690e+00	4.987416e+01	-2.257073e+01	2.592842e+05	1.032310e+05	2.896190e+02	1.292285e-01	2.687193e+00	0.000000e+00	
0.000000e+00	-3.639241e-01	1.222610e+00	5.053411e+01	-4.111982e+00	2.539061e+05	1.011419e+05	2.881865e+02	1.218552e-01	-2.580911e-01	0.000000e+00	
3.448276e-02	-3.639241e-01	1.241690e+00	4.987416e+01	-2.257073e+01	2.592842e+05	1.032310e+05	2.896190e+02	1.292285e-01	2.687193e+00	0.000000e+00	
0.000000e+00	-3.955696e-01	1.222610e+00	5.053411e+01	-4.111983e+00	2.539061e+05	1.011419e+05	2.881865e+02	1.218552e-01	-2.580911e-01	0.000000e+00	
3.448276e-02	-3.955696e-01	1.241690e+00	4.987416e+01	-2.257073e+01	2.592842e+05	1.032310e+05	2.896190e+02	1.292285e-01	2.687193e+00	0.000000e+00	
0.000000e+00	-4.272152e-01	1.222610e+00	5.053411e+01	-4.111984e+00	2.539061e+05	1.011419e+05	2.881865e+02	1.218552e-01	-2.580911e-01	0.000000e+00	
3.448276e-02	-4.272152e-01	1.241690e+00	4.987416e+01	-2.257073e+01	2.592842e+05	1.032310e+05	2.896190e+02	1.292285e-01	2.687193e+00	0.000000e+00	
0.000000e+00	-4.588608e-01	1.222610e+00	5.053411e+01	-4.111985e+00	2.539061e+05	1.011419e+05	2.881865e+02	1.218552e-01	-2.580912e-01	0.000000e+00	
3.448276e-02	-4.588608e-01	1.241690e+00	4.987416e+01	-2.257073e+01	2.592842e+05	1.032310e+05	2.896190e+02	1.292285e-01	2.687193e+00	0.000000e+00	
0.000000e+00	-4.905063e-01	1.222610e+00	5.053411e+01	-4.111987e+00	2.539061e+05	1.011419e+05	2.881865e+02	1.218552e-01	-2.580914e-01	0.000000e+00	
3.448276e-02	-4.905063e-01	1.241690e+00	4.987416e+01	-2.257074e+01	2.592842e+05	1.032310e+05	2.896190e+02	1.292285e-01	2.687193e+00	0.000000e+00	
0.000000e+00	-5.221519e-01	1.222610e+00	5.053411e+01	-4.111989e+00	2.539061e+05	1.011419e+05	2.881865e+02	1.218552e-01	-2.580916e-01	0.000000e+00	
3.448276e-02	-5.221519e-01	1.241690e+00	4.987416e+01	-2.257074e+01	2.592842e+05	1.032310e+05	2.896190e+02	1.292285e-01	2.687193e+00	0.000000e+00	
0.000000e+00	-5.537975e-01	1.222610e+00	5.053411e+01	-4.111991e+00	2.539061e+05	1.011419e+05	2.881865e+02	1.218552e-01	-2.580919e-01	0.000000e+00	
3.448276e-02	-5.537975e-01	1.241690e+00	4.987416e+01	-2.257074e+01	2.592842e+05	1.032310e+05	2.896190e+02	1.292285e-01	2.687192e+00	0.000000e+00	
0.000000e+00	-5.854430e-01	1.222610e+00	5.053411e+01	-4.111993e+00	2.539061e+05	1.011419e+05	2.881865e+02	1.218552e-01	-2.580922e-01	0.000000e+00	
3.448276e-02	-5.854430e-01	1.241690e+00	4.987416e+01	-2.257074e+01	2.592842e+05	1.032310e+05	2.896190e+02	1.292285e-01	2.687192e+00	0.000000e+00	
0.000000e+00	-6.170886e-01	1.222610e+00	5.053411e+01	-4.111996e+00	2.539061e+05	1.011419e+05	2.881865e+02	1.218552e-01	-2.580926e-01	0.000000e+00	
3.448276e-02	-6.170886e-01	1.241690e+00	4.987416e+01	-2.257074e+01	2.592842e+05	1.032310e+05	2.896190e+02	1.292285e-01	2.687191e+00	0.000000e+00	
0.000000e+00	-6.487342e-01	1.222610e+00	5.053411e+01	-4.111998e+00	2.539061e+05	1.011419e+05	2.881865e+02	1.218552e-01	-2.580930e-01	0.000000e+00	
3.448276e-02	-6.487342e-01	1.241690e+00	4.987416e+01	-2.257075e+01	2.592842e+05	1.032310e+05	2.896190e+02	1.292285e-01	2.687190e+00	0.000000e+00	
0.000000e+00	-6.803797e-01	1.222610e+00	5.053412e+01	-4.112000e+00	2.539061e+05	1.011419e+05	2.881865e+02	1.218552e-01	-2.580934e-01	0.000000e+00	
3.448276e-02	-6.803797e-01	1.241690e+00	4.987417e+01	-2.257075e+01	2.592842e+05	1.032310e+05	2.896190e+02	1.292285e-01	2.687189e+00	0.000000e+00	
0.000000e+00	-7.120253e-01	1.222610e+00	5.053413e+01	-4.112002e+00	2.539061e+05	1.011419e+05	2.881865e+02	1.218552e-01	-2.580939e-01	0.000000e+00	
3.448276e-02	-7.120253e-01	1.241690e+00	4.987418e+01	-2.257075e+01	2.592842e+05	1.032310e+05	2.896190e+02	1.292286e-01	2.687188e+00	0.000000e+00	
0.000000e+00	-7.436709e-01	1.222610e+00	5.053414e+01	-4.112006e+00	2.539061e+05	1.011419e+05	2.881865e+02	1.218553e-01	-2.580945e-01	0.000000e+00	
3.448276e-02	-7.436709e-01	1.241690e+00	4.987418e+01	-2.257076e+01	2.592842e+05	1.032310e+05	2.896190e+02	1.292286e-01	2.687186e+00	0.000000e+00	
0.000000e+00	-7.753165e-01	1.222610e+00	5.053415e+01	-4.112011e+00	2.539061e+05	1.011419e+05	2.881865e+02	1.218553e-01	-2.580954e-01	0.000000e+00	
3.448276e-02	-7.753165e-01	1.241690e+00	4.987419e+01	-2.257076e+01	2.592842e+05	1.032310e+05	2.896190e+02	1.292286e-01	2.687184e+00	0.000000e+00	
0.000000e+00	-8.069620e-01	1.222610e+00	5.053416e+01	-4.112018e+00	2.539061e+05	1.011419e+05	2.881865e+02	1.218553e-01	-2.580965e-01	0.000000e+00	
3.448276e-02	-8.069620e-01	1.241690e+00	4.987420e+01	-2.257077e+01	2.592841e+05	1.032310e+05	2.896190e+02	1.292286e-01	2.687181e+00	0.000000e+00	
0.000000e+00	-8.386076e-01	1.222610e+00	5.053417e+01	-4.112026e+00	2.539061e+05	1.011419e+05	2.881865e+02	1.218553e-01	-2.580979e-01	0.000000e+00	
3.448276e-02	-8.386076e-01	1.241690e+00	4.987420e+01	-2.257079e+01	2.592841e+05	1.032309e+05	2.896190e+02	1.292286e-01	2.687178e+00	0.000000e+00	
0.000000e+00	-8.702532e-01	1.222610e+00	5.053417e+01	-4.112037e+00	2.539061e+05	1.011419e+05	2.881865e+02	1.218553e-01	-2.580996e-01	0.000000e+00	
3.448276e-02	-8.702532e-01	1.241690e+00	4.987420e+01	-2.257080e+01	2.592841e+05	1.032309e+05	2.896190e+02	1.292287e-01	2.687174e+00	0.000000e+00	
0.000000e+00	-9.018987e-01	1.222610e+00	5.053417e+01	-4.112051e+00	2.539061e+05	1.011419e+05	2.881865e+02	1.218554e-01	-2.581013e-01	0.000000e+00	
3.448276e-02	-9.018987e-01	1.241690e+00	4.987419e+01	-2.257082e+01	2.592841e+05	1.032309e+05	2.896190e+02	1.292287e-01	2.687169e+00	0.000000e+00	
0.000000e+00	-9.335443e-01	1.222610e+00	5.053417e+01	-4.112070e+00	2.539061e+05	1.011419e+05	2.881865e+02	1.218554e-01	-2.581032e-01	0.000000e+00	
3.448276e-02	-9.335443e-01	1.241690e+00	4.987418e+01	-2.257085e+01	2.592841e+05	1.032309e+05	2.896190e+02	1.292287e-01	2.687162e+00	0.000000e+00	
0.000000e+00	-9.651899e-01	1.222610e+00	5.053416e+01	-4.112092e+00	2.539061e+05	1.011419e+05	2.881865e+02	1.218553e-01	-2.581041e-01	0.000000e+00	
3.448276e-02	-9.651899e-01	1.241690e+00	4.987416e+01	-2.257089e+01	2.592841e+05	1.032309e+05	2.896190e+02	1.292287e-01	2.687154e+00	0.000000e+00	
0.000000e+00	-9.968354e-01	1.222610e+00	5.053411e+01	-4.112095e+00	2.539061e+05	1.011419e+05	2.881865e+02	1.218552e-01	-2.581043e-01	0.000000e+00	
3.448276e-02	-9.968354e-01	1.241690e+00	4.987412e+01	-2.257091e+01	2.592841e+05	1.032309e+05	2.896189e+02	1.292286e-01	2.687143e+00	0.000000e+00	
0.000000e+00	-1.028481e+00	1.222610e+00	5.053404e+01	-4.112052e+00	2.539061e+05	1.011419e+05	2.881865e+02	1.218550e-01	-2.580968e-01	0.000000e+00	
3.448276e-02	-1.028481e+00	1.241690e+00	4.987408e+01	-2.257092e+01	2.592841e+05	1.032309e+05	2.896190e+02	1.292286e-01	2.687134e+00	0.000000e+00	
0.000000e+00	-1.060127e+00	1.222610e+00	5.053409e+01	-4.111896e+00	2.539061e+05	1.011419e+05	2.881865e+02	1.218551e-01	-2.580834e-01	0.000000e+00	
3.448276e-02	-1.060127e+00	1.241690e+00	4.987412e+01	-2.257088e+01	2.592840e+05	1.032309e+05	2.896189e+02	1.292286e-01	2.687111e+00	0.000000e+00	
0.000000e+00	-1.091772e+00	1.222611e+00	5.053448e+01	-4.111668e+00	2.539062e+05	1.011420e+05	2.881865e+02	1.218560e-01	-2.580482e-01	0.000000e+00	
3.448276e-02	-1.091772e+00	1.241690e+00	4.987432e+01	-2.257092e+01	2.592840e+05	1.032309e+05	2.896189e+02	1.292291e-01	2.687098e+00	0.000000e+00	
0.000000e+00	-1.123418e+00	1.222611e+00	5.053559e+01	-4.111496e+00	2.539063e+05	1.011420e+05	2.881864e+02	1.218586e-01	-2.580508e-01	0.000000e+00	
3.448276e-02	-1.123418e+00	1.241689e+00	4.987467e+01	-2.257104e+01	2.592839e+05	1.032308e+05	2.896189e+02	1.292300e-01	2.687003e+00	0.000000e+00	
0.000000e+00	-1.155063e+00	1.222611e+00	5.053702e+01	-4.112392e+00	2.539063e+05	1.011420e+05	2.881864e+02	1.218622e-01	-2.580600e-01	0.000000e+00	
3.448276e-02	-1.155063e+00	1.241689e+00	4.987438e+01	-2.257205e+01	2.592838e+05	1.032308e+05	2.896188e+02	1.292304e-01	2.686943e+00	0.000000e+00	
0.000000e+00	-1.186709e+00	1.222606e+00	5.053757e+01	-4.115270e+00	2.539057e+05	1.011417e+05	2.881867e+02	1.218644e-01	-2.584254e-01	0.000000e+00	
3.448276e-02	-1.186709e+00	1.241685e+00	4.987224e+01	-2.257346e+01	2.592831e+05	1.032305e+05	2.896190e+02	1.292275e-01	2.686602e+00	0.000000e+00	
0.000000e+00	-1.218354e+00	1.222589e+00	5.053252e+01	-4.121312e+00	2.539031e+05	1.011407e+05	2.881881e+02	1.218550e-01	-2.597725e-01	0.000000e+00	
3.448276e-02	-1.218354e+00	1.241688e+00	4.986842e+01	-2.257813e+01	2.592840e+05	1.032309e+05	2.896194e+02	1.292235e-01	2.687143e+00	0.000000e+00	
6.896552e-02	1.218354e+00	1.250424e+00	5.016696e+01	-3.678793e+01	2.622543e+05	1.042827e+05	2.905263e+02	1.455999e-01	4.170034e+00	0.000000e+00	
6.896552e-02	1.250000e+00	1.250439e+00	5.016220e+01	-3.678432e+01	2.622570e+05	1.042839e+05	2.905261e+02	1.455841e-01	4.171750e+00	0.000000e+00	
6.896552e-02	1.186709e+00	1.250424e+00	5.016942e+01	-3.678765e+01	2.622545e+05	1.042828e+05	2.905263e+02	1.456040e-01	4.170137e+00	0.000000e+00	
6.896552e-02	1.155063e+00	1.250424e+00	5.017074e+01	-3.678796e+01	2.622543e+05	1.042827e+05	2.905262e+02	1.456071e-01	4.169984e+00	0.000000e+00	
6.896552e-02	1.123418e+00	1.250423e+00	5.017121e+01	-3.678818e+01	2.622542e+05	1.042826e+05	2.905261e+02	1.456083e-01	4.169900e+00	0.000000e+00	
6.896552e-02	1.091772e+00	1.250423e+00	5.017130e+01	-3.678831e+01	2.622541e+05	1.042826e+05	2.905260e+02	1.456087e-01	4.169847e+00	0.000000e+00	
6.896552e-02	1.060127e+00	1.250423e+00	5.017129e+01	-3.678835e+01	2.622541e+05	1.042826e+05	2.905260e+02	1.456088e-01	4.169824e+00	0.000000e+00	
6.896552e-02	1.028481e+00	1.250423e+00	5.017127e+01	-3.678836e+01	2.622541e+05	1.042825e+05	2.905260e+02	1.456088e-01	4.169812e+00	0.000000e+00	
6.896552e-02	9.968354e-01	1.250423e+00	5.017127e+01	-3.678837e+01	2.622540e+05	1.042825e+05	2.905260e+02	1.456088e-01	4.169810e+00	0.000000e+00	
6.896552e-02	9.651899e-01	1.250423e+00	5.017128e+01	-3.678838e+01	2.622540e+05	1.042825e+05	2.905260e+02	1.456088e-01	4.169810e+00	0.000000e+00	
6.896552e-02	9.335443e-01	1.250423e+00	5.017128e+01	-3.678840e+01	2.622541e+05	1.042825e+05	2.905261e+02	1.456088e-01	4.169811e+00	0.000000e+00	
6.896552e-02	9.018987e-01	1.250423e+00	5.017127e+01	-3.678843e+01	2.622541e+05	1.042825e+05	2.905261e+02	1.456089e-01	4.169814e+00	0.000000e+00	
6.896552e-02	8.702532e-01	1.250423e+00	5.017126e+01	-3.678845e+01	2.622541e+05	1.042825e+05	2.905261e+02	1.456089e-01	4.169817e+00	0.000000e+00	
6.896552e-02	8.386076e-01	1.250423e+00	5.017125e+01	-3.678847e+01	2.622541e+05	1.042825e+05	2.905261e+02	1.456089e-01	4.169820e+00	0.000000e+00	
6.896552e-02	8.069620e-01	1.250423e+00	5.017124e+01	-3.678849e+01	2.622541e+05	1.042826e+05	2.905261e+02	1.456089e-01	4.169823e+00	0.000000e+00	
6.896552e-02	7.753165e-01	1.250423e+00	5.017123e+01	-3.678850e+01	2.622541e+05	1.042826e+05	2.905261e+02	1.456089e-01	4.169825e+00	0.000000e+00	
6.896552e-02	7.436709e-01	1.250423e+00	5.017122e+01	-3.678852e+01	2.622541e+05	1.042826e+05	2.905261e+02	1.456089e-01	4.169828e+00	0.000000e+00	
6.896552e-02	7.120253e-01	1.250423e+00	5.017121e+01	-3.678853e+01	2.622541e+05	1.042826e+05	2.905261e+02	1.456089e-01	4.169830e+00	0.000000e+00	
6.896552e-02	6.803797e-01	1.250423e+00	5.017120e+01	-3.678854e+01	2.622541e+05	1.042826e+05	2.905261e+02	1.456089e-01	4.169832e+00	0.000000e+00	
6.896552e-02	6.487342e-01	1.250423e+00	5.017119e+01	-3.678854e+01	2.622541e+05	1.042826e+05	2.905261e+02	1.456088e-01	4.169835e+00	0.000000e+00	
6.896552e-02	6.170886e-01	1.250423e+00	5.017118e+01	-3.678855e+01	2.622541e+05	1.042826e+05	2.905261e+02	1.456088e-01	4.169836e+00	0.000000e+00	
6.896552e-02	5.854430e-01	1.250423e+00	5.017118e+01	-3.678855e+01	2.622541e+05	1.042826e+05	2.905261e+02	1.456088e-01	4.169838e+00	0.000000e+00	
6.896552e-02	5.537975e-01	1.250423e+00	5.017117e+01	-3.678856e+01	2.622541e+05	1.042826e+05	2.905261e+02	1.456088e-01	4.169840e+00	0.000000e+00	
6.896552e-02	5.221519e-01	1.250423e+00	5.017117e+01	-3.678856e+01	2.622541e+05	1.042826e+05	2.905261e+02	1.456088e-01	4.169841e+00	0.000000e+00	
6.896552e-02	4.905063e-01	1.250423e+00	5.017116e+01	-3.678856e+01	2.622541e+05	1.042826e+05	2.905261e+02	1.456088e-01	4.169843e+00	0.000000e+00	
6.896552e-02	4.588608e-01	1.250423e+00	5.017116e+01	-3.678857e+01	2.622541e+05	1.042826e+05	2.905261e+02	1.456088e-01	4.169844e+00	0.000000e+00	
6.896552e-02	4.272152e-01	1.250423e+00	5.017116e+01	-3.678857e+01	2.622541e+05	1.042826e+05	2.905261e+02	1.456088e-01	4.169845e+00	0.000000e+00	
6.896552e-02	3.955696e-01	1.250423e+00	5.017115e+01	-3.678857e+01	2.622541e+05	1.042826e+05	2.905261e+02	1.456088e-01	4.169846e+00	0.000000e+00	
6.896552e-02	3.639241e-01	1.250423e+00	5.017115e+01	-3.678857e+01	2.622541e+05	1.042826e+05	2.905261e+02	1.456088e-01	4.169848e+00	0.000000e+00	
6.896552e-02	3.322785e-01	1.250423e+00	5.017115e+01	-3.678857e+01	2.622541e+05	1.042826e+05	2.905261e+02	1.456088e-01	4.169849e+00	0.000000e+00	
6.896552e-02	3.006329e-01	1.250423e+00	5.017115e+01	-3.678857e+01	2.622541e+05	1.042826e+05	2.905261e+02	1.456088e-01	4.169850e+00	0.000000e+00	
6.896552e-02	2.689873e-01	1.250423e+00	5.017114e+01	-3.678857e+01	2.622541e+05	1.042826e+05	2.905261e+02	1.456088e-01	4.169851e+00	0.000000e+00	
6.896552e-02	2.373418e-01	1.250423e+00	5.017114e+01	-3.678857e+01	2.622541e+05	1.042826e+05	2.905261e+02	1.456088e-01	4.169851e+00	0.000000e+00	
6.896552e-02	2.056962e-01	1.250423e+00	5.017114e+01	-3.678857e+01	2.622541e+05	1.042826e+05	2.905261e+02	1.456088e-01	4.169852e+00	0.000000e+00	
6.896552e-02	1.740506e-01	1.250423e+00	5.017113e+01	-3.678858e+01	2.622541e+05	1.042826e+05	2.905261e+02	1.456088e-01	4.169853e+00	0.000000e+00	
6.896552e-02	1.424051e-01	1.250423e+00	5.017113e+01	-3.678858e+01	2.622541e+05	1.042826e+05	2.905261e+02	1.456088e-01	4.169854e+00	0.000000e+00	
6.896552e-02	1.107595e-01	1.250423e+00	5.017113e+01	-3.678858e+01	2.622541e+05	1.042826e+05	2.905261e+02	1.456088e-01	4.169855e+00	0.000000e+00	
6.896552e-02	7.911392e-02	1.250423e+00	5.017113e+01	-3.678858e+01	2.622541e+05	1.042826e+05	2.905261e+02	1.456088e-01	4.169856e+00	0.000000e+00	
6.896552e-02	4.746835e-02	1.250423e+00	5.017112e+01	-3.678858e+01	2.622541e+05	1.042826e+05	2.905261e+02	1.456088e-01	4.169856e+00	0.000000e+00	
6.896552e-02	1.582278e-02	1.250423e+00	5.017112e+01	-3.678858e+01	2.622541e+05	1.042826e+05	2.905261e+02	1.456087e-01	4.169857e+00	0.000000e+00	
6.896552e-02	-1.582278e-02	1.250423e+00	5.017112e+01	-3.678858e+01	2.622541e+05	1.042826e+05	2.905261e+02	1.456087e-01	4.169858e+00	0.000000e+00	
6.896552e-02	-4.746835e-02	1.250423e+00	5.017111e+01	-3.678858e+01	2.622541e+05	1.042826e+05	2.905261e+02	1.456087e-01	4.169858e+00	0.000000e+00	
6.896552e-02	-7.911392e-02	1.250423e+00	5.017111e+01	-3.678858e+01	2.622541e+05	1.042826e+05	2.905261e+02	1.456087e-01	4.169859e+00	0.000000e+00	
6.896552e-02	-1.107595e-01	1.250423e+00	5.017111e+01	-3.678858e+01	2.622541e+05	1.042826e+05	2.905261e+02	1.456087e-01	4.169859e+00	0.000000e+00	
6.896552e-02	-1.424051e-01	1.250423e+00	5.017110e+01	-3.678859e+01	2.622541e+05	1.042826e+05	2.905261e+02	1.456087e-01	4.169860e+00	0.000000e+00	