TITLE = "Visualization of the volumetric solution"
VARIABLES = "x","y","Density","Momentum_x","Momentum_y","Energy","Pressure","Temperature","Mach","C<sub>p</sub>","Roe_Dissipation"
ZONE NODES= 3200, ELEMENTS= 3081, DATAPACKING=POINT, ZONETYPE=FEQUADRILATERAL
-2.000000e+00	1.250000e+00	1.224414e+00	4.390099e+01	-7.175755e-12	2.539040e+05	1.012468e+05	2.880602e+02	1.053793e-01	-1.102753e-01	0.000000e+00	
-2.000000e+00	1.218354e+00	1.224414e+00	4.390099e+01	-1.934147e-09	2.539040e+05	1.012468e+05	2.880602e+02	1.053793e-01	-1.102753e-01	0.000000e+00	
-1.948718e+00	1.218354e+00	1.224414e+00	4.390099e+01	-2.606192e-09	2.539040e+05	1.012468e+05	2.880602e+02	1.053793e-01	-1.102753e-01	0.000000e+00	
-1.948718e+00	1.250000e+00	1.224414e+00	4.390099e+01	-7.976756e-11	2.539040e+05	1.012468e+05	2.880602e+02	1.053793e-01	-1.102753e-01	0.000000e+00	
-2.000000e+00	1.186709e+00	1.224414e+00	4.390099e+01	-1.793414e-09	2.539040e+05	1.012468e+05	2.880602e+02	1.053793e-01	-1.102753e-01	0.000000e+00	
-1.948718e+00	1.186709e+00	1.224414e+00	4.390099e+01	-2.888105e-09	2.539040e+05	1.012468e+05	2.880602e+02	1.053793e-01	-1.102753e-01	0.000000e+00	
-2.000000e+00	1.155063e+00	1.224414e+00	4.390099e+01	-1.086096e-09	2.539040e+05	1.012468e+05	2.880602e+02	1.053793e-01	-1.102753e-01	0.000000e+00	
-1.948718e+00	1.155063e+00	1.224414e+00	4.390099e+01	-2.471365e-09	2.539040e+05	1.012468e+05	2.880602e+02	1.053793e-01	-1.102753e-01	0.000000e+00	
-2.000000e+00	1.123418e+00	1.224414e+00	4.390099e+01	-4.508098e-10	2.539040e+05	1.012468e+05	2.880602e+02	1.053793e-01	-1.102753e-01	0.000000e+00	
-1.948718e+00	1.123418e+00	1.224414e+00	4.390099e+01	-1.744786e-09	2.539040e+05	1.012468e+05	2.880602e+02	1.053793e-01	-1.102753e-01	0.000000e+00	
-2.000000e+00	1.091772e+00	1.224414e+00	4.390099e+01	-1.312268e-10	2.539040e+05	1.012468e+05	2.880602e+02	1.053793e-01	-1.102753e-01	0.000000e+00	
-1.948718e+00	1.091772e+00	1.224414e+00	4.390099e+01	-1.274355e-09	2.539040e+05	1.012468e+05	2.880602e+02	1.053793e-01	-1.102753e-01	0.000000e+00	
-2.000000e+00	1.060127e+00	1.224414e+00	4.390099e+01	-2.165837e-11	2.539040e+05	1.012468e+05	2.880602e+02	1.053793e-01	-1.102753e-01	0.000000e+00	
-1.948718e+00	1.060127e+00	1.224414e+00	4.390099e+01	-9.964081e-10	2.539040e+05	1.012468e+05	2.880602e+02	1.053793e-01	-1.102754e-01	0.000000e+00	
-2.000000e+00	1.028481e+00	1.224414e+00	4.390099e+01	-6.517847e-12	2.539040e+05	1.012468e+05	2.880602e+02	1.053793e-01	-1.102753e-01	0.000000e+00	
-1.948718e+00	1.028481e+00	1.224414e+00	4.390099e+01	-8.652650e-10	2.539040e+05	1.012468e+05	2.880602e+02	1.053793e-01	-1.102754e-01	0.000000e+00	
-2.000000e+00	9.968354e-01	1.224414e+00	4.390099e+01	-7.095068e-12	2.539040e+05	1.012468e+05	2.880602e+02	1.053793e-01	-1.102753e-01	0.000000e+00	
-1.948718e+00	9.968354e-01	1.224414e+00	4.390099e+01	-7.732568e-10	2.539040e+05	1.012468e+05	2.880602e+02	1.053793e-01	-1.102754e-01	0.000000e+00	
-2.000000e+00	9.651899e-01	1.224414e+00	4.390099e+01	-5.535238e-12	2.539040e+05	1.012468e+05	2.880602e+02	1.053793e-01	-1.102753e-01	0.000000e+00	
-1.948718e+00	9.651899e-01	1.224414e+00	4.390099e+01	-6.983741e-10	2.539040e+05	1.012468e+05	2.880602e+02	1.053793e-01	-1.102754e-01	0.000000e+00	
-2.000000e+00	9.335443e-01	1.224414e+00	4.390099e+01	-8.679239e-13	2.539040e+05	1.012468e+05	2.880602e+02	1.053793e-01	-1.102753e-01	0.000000e+00	
-1.948718e+00	9.335443e-01	1.224414e+00	4.390099e+01	-6.260242e-10	2.539040e+05	1.012468e+05	2.880602e+02	1.053793e-01	-1.102754e-01	0.000000e+00	
-2.000000e+00	9.018987e-01	1.224414e+00	4.390099e+01	1.920101e-12	2.539040e+05	1.012468e+05	2.880602e+02	1.053793e-01	-1.102753e-01	0.000000e+00	
-1.948718e+00	9.018987e-01	1.224414e+00	4.390099e+01	-5.630056e-10	2.539040e+05	1.012468e+05	2.880602e+02	1.053793e-01	-1.102754e-01	0.000000e+00	
-2.000000e+00	8.702532e-01	1.224414e+00	4.390099e+01	2.336578e-12	2.539040e+05	1.012468e+05	2.880602e+02	1.053793e-01	-1.102753e-01	0.000000e+00	
-1.948718e+00	8.702532e-01	1.224414e+00	4.390099e+01	-5.079684e-10	2.539040e+05	1.012468e+05	2.880602e+02	1.053793e-01	-1.102754e-01	0.000000e+00	
-2.000000e+00	8.386076e-01	1.224414e+00	4.390099e+01	9.199288e-13	2.539040e+05	1.012468e+05	2.880602e+02	1.053793e-01	-1.102753e-01	0.000000e+00	
-1.948718e+00	8.386076e-01	1.224414e+00	4.390099e+01	-4.615093e-10	2.539040e+05	1.012468e+05	2.880602e+02	1.053793e-01	-1.102754e-01	0.000000e+00	
-2.000000e+00	8.069620e-01	1.224414e+00	4.390099e+01	-6.374487e-13	2.539040e+05	1.012468e+05	2.880602e+02	1.053793e-01	-1.102753e-01	0.000000e+00	
-1.948718e+00	8.069620e-01	1.224414e+00	4.390099e+01	-4.200483e-10	2.539040e+05	1.012468e+05	2.880602e+02	1.053793e-01	-1.102754e-01	0.000000e+00	
-2.000000e+00	7.753165e-01	1.224414e+00	4.390099e+01	-2.279870e-12	2.539040e+05	1.012468e+05	2.880602e+02	1.053793e-01	-1.102753e-01	0.000000e+00	
-1.948718e+00	7.753165e-01	1.224414e+00	4.390099e+01	-3.830906e-10	2.539040e+05	1.012468e+05	2.880602e+02	1.053793e-01	-1.102754e-01	0.000000e+00	
-2.000000e+00	7.436709e-01	1.224414e+00	4.390099e+01	-3.320801e-12	2.539040e+05	1.012468e+05	2.880602e+02	1.053793e-01	-1.102753e-01	0.000000e+00	
-1.948718e+00	7.436709e-01	1.224414e+00	4.390099e+01	-3.487795e-10	2.539040e+05	1.012468e+05	2.880602e+02	1.053793e-01	-1.102754e-01	0.000000e+00	
-2.000000e+00	7.120253e-01	1.224414e+00	4.390099e+01	-3.909379e-12	2.539040e+05	1.012468e+05	2.880602e+02	1.053793e-01	-1.102753e-01	0.000000e+00	
-1.948718e+00	7.120253e-01	1.224414e+00	4.390099e+01	-3.168440e-10	2.539040e+05	1.012468e+05	2.880602e+02	1.053793e-01	-1.102754e-01	0.000000e+00	
-2.000000e+00	6.803797e-01	1.224414e+00	4.390099e+01	-4.313559e-12	2.539040e+05	1.012468e+05	2.880602e+02	1.053793e-01	-1.102753e-01	0.000000e+00	
-1.948718e+00	6.803797e-01	1.224414e+00	4.390099e+01	-2.868013e-10	2.539040e+05	1.012468e+05	2.880602e+02	1.053793e-01	-1.102754e-01	0.000000e+00	
-2.000000e+00	6.487342e-01	1.224414e+00	4.390099e+01	-4.719152e-12	2.539040e+05	1.012468e+05	2.880602e+02	1.053793e-01	-1.102753e-01	0.000000e+00	
-1.948718e+00	6.487342e-01	1.224414e+00	4.390099e+01	-2.586169e-10	2.539040e+05	1.012468e+05	2.880602e+02	1.053793e-01	-1.102754e-01	0.000000e+00	
-2.000000e+00	6.170886e-01	1.224414e+00	4.390099e+01	-5.064815e-12	2.539040e+05	1.012468e+05	2.880602e+02	1.053793e-01	-1.102753e-01	0.000000e+00	
-1.948718e+00	6.170886e-01	1.224414e+00	4.390099e+01	-2.320520e-10	2.539040e+05	1.012468e+05	2.880602e+02	1.053793e-01	-1.102754e-01	0.000000e+00	
-2.000000e+00	5.854430e-01	1.224414e+00	4.390099e+01	-5.384198e-12	2.539040e+05	1.012468e+05	2.880602e+02	1.053793e-01	-1.102753e-01	0.000000e+00	
-1.948718e+00	5.854430e-01	1.224414e+00	4.390099e+01	-2.069388e-10	2.539040e+05	1.012468e+05	2.880602e+02	1.053793e-01	-1.102754e-01	0.000000e+00	
-2.000000e+00	5.537975e-01	1.224414e+00	4.390099e+01	-5.848200e-12	2.539040e+05	1.012468e+05	2.880602e+02	1.053793e-01	-1.102753e-01	0.000000e+00	
-1.948718e+00	5.537975e-01	1.224414e+00	4.390099e+01	-1.829936e-10	2.539040e+05	1.012468e+05	2.880602e+02	1.053793e-01	-1.102754e-01	0.000000e+00	
-2.000000e+00	5.221519e-01	1.224414e+00	4.390099e+01	-5.996592e-12	2.539040e+05	1.012468e+05	2.880602e+02	1.053793e-01	-1.102753e-01	0.000000e+00	
-1.948718e+00	5.221519e-01	1.224414e+00	4.390099e+01	-1.601560e-10	2.539040e+05	1.012468e+05	2.880602e+02	1.053793e-01	-1.102754e-01	0.000000e+00	
-2.000000e+00	4.905063e-01	1.224414e+00	4.390099e+01	-6.279655e-12	2.539040e+05	1.012468e+05	2.880602e+02	1.053793e-01	-1.102753e-01	0.000000e+00	
-1.948718e+00	4.905063e-01	1.224414e+00	4.390099e+01	-1.383028e-10	2.539040e+05	1.012468e+05	2.880602e+02	1.053793e-01	-1.102754e-01	0.000000e+00	
-2.000000e+00	4.588608e-01	1.224414e+00	4.390099e+01	-6.373062e-12	2.539040e+05	1.012468e+05	2.880602e+02	1.053793e-01	-1.102753e-01	0.000000e+00	
-1.948718e+00	4.588608e-01	1.224414e+00	4.390099e+01	-1.173916e-10	2.539040e+05	1.012468e+05	2.880602e+02	1.053793e-01	-1.102754e-01	0.000000e+00	
-2.000000e+00	4.272152e-01	1.224414e+00	4.390099e+01	-6.428045e-12	2.539040e+05	1.012468e+05	2.880602e+02	1.053793e-01	-1.102753e-01	0.000000e+00	
-1.948718e+00	4.272152e-01	1.224414e+00	4.390099e+01	-9.727595e-11	2.539040e+05	1.012468e+05	2.880602e+02	1.053793e-01	-1.102754e-01	0.000000e+00	
-2.000000e+00	3.955696e-01	1.224414e+00	4.390099e+01	-6.530503e-12	2.539040e+05	1.012468e+05	2.880602e+02	1.053793e-01	-1.102753e-01	0.000000e+00	
-1.948718e+00	3.955696e-01	1.224414e+00	4.390099e+01	-7.804240e-11	2.539040e+05	1.012468e+05	2.880602e+02	1.053793e-01	-1.102754e-01	0.000000e+00	
-2.000000e+00	3.639241e-01	1.224414e+00	4.390099e+01	-6.548423e-12	2.539040e+05	1.012468e+05	2.880602e+02	1.053793e-01	-1.102753e-01	0.000000e+00	
-1.948718e+00	3.639241e-01	1.224414e+00	4.390099e+01	-5.956495e-11	2.539040e+05	1.012468e+05	2.880602e+02	1.053793e-01	-1.102754e-01	0.000000e+00	
-2.000000e+00	3.322785e-01	1.224414e+00	4.390099e+01	-6.508126e-12	2.539040e+05	1.012468e+05	2.880602e+02	1.053793e-01	-1.102753e-01	0.000000e+00	
-1.948718e+00	3.322785e-01	1.224414e+00	4.390099e+01	-4.179891e-11	2.539040e+05	1.012468e+05	2.880602e+02	1.053793e-01	-1.102754e-01	0.000000e+00	
-2.000000e+00	3.006329e-01	1.224414e+00	4.390099e+01	-6.539355e-12	2.539040e+05	1.012468e+05	2.880602e+02	1.053793e-01	-1.102753e-01	0.000000e+00	
-1.948718e+00	3.006329e-01	1.224414e+00	4.390099e+01	-2.483832e-11	2.539040e+05	1.012468e+05	2.880602e+02	1.053793e-01	-1.102754e-01	0.000000e+00	
-2.000000e+00	2.689873e-01	1.224414e+00	4.390099e+01	-6.678922e-12	2.539040e+05	1.012468e+05	2.880602e+02	1.053793e-01	-1.102753e-01	0.000000e+00	
-1.948718e+00	2.689873e-01	1.224414e+00	4.390099e+01	-8.624539e-12	2.539040e+05	1.012468e+05	2.880602e+02	1.053793e-01	-1.102754e-01	0.000000e+00	
-2.000000e+00	2.373418e-01	1.224414e+00	4.390099e+01	-6.586477e-12	2.539040e+05	1.012468e+05	2.880602e+02	1.053793e-01	-1.102753e-01	0.000000e+00	
-1.948718e+00	2.373418e-01	1.224414e+00	4.390099e+01	7.058669e-12	2.539040e+05	1.012468e+05	2.880602e+02	1.053793e-01	-1.102754e-01	0.000000e+00	
-2.000000e+00	2.056962e-01	1.224414e+00	4.390099e+01	-6.856440e-12	2.539040e+05	1.012468e+05	2.880602e+02	1.053793e-01	-1.102753e-01	0.000000e+00	
-1.948718e+00	2.056962e-01	1.224414e+00	4.390099e+01	2.176996e-11	2.539040e+05	1.012468e+05	2.880602e+02	1.053793e-01	-1.102754e-01	0.000000e+00	
-2.000000e+00	1.740506e-01	1.224414e+00	4.390099e+01	-6.883302e-12	2.539040e+05	1.012468e+05	2.880602e+02	1.053793e-01	-1.102753e-01	0.000000e+00	
-1.948718e+00	1.740506e-01	1.224414e+00	4.390099e+01	3.599938e-11	2.539040e+05	1.012468e+05	2.880602e+02	1.053793e-01	-1.102754e-01	0.000000e+00	
-2.000000e+00	1.424051e-01	1.224414e+00	4.390099e+01	-6.938184e-12	2.539040e+05	1.012468e+05	2.880602e+02	1.053793e-01	-1.102753e-01	0.000000e+00	
-1.948718e+00	1.424051e-01	1.224414e+00	4.390099e+01	4.954175e-11	2.539040e+05	1.012468e+05	2.880602e+02	1.053793e-01	-1.102754e-01	0.000000e+00	
-2.000000e+00	1.107595e-01	1.224414e+00	4.390099e+01	-7.040250e-12	2.539040e+05	1.012468e+05	2.880602e+02	1.053793e-01	-1.102753e-01	0.000000e+00	
-1.948718e+00	1.107595e-01	1.224414e+00	4.390099e+01	6.250785e-11	2.539040e+05	1.012468e+05	2.880602e+02	1.053793e-01	-1.102754e-01	0.000000e+00	
-2.000000e+00	7.911392e-02	1.224414e+00	4.390099e+01	-6.877243e-12	2.539040e+05	1.012468e+05	2.880602e+02	1.053793e-01	-1.102753e-01	0.000000e+00	
-1.948718e+00	7.911392e-02	1.224414e+00	4.390099e+01	7.493256e-11	2.539040e+05	1.012468e+05	2.880602e+02	1.053793e-01	-1.102754e-01	0.000000e+00	
-2.000000e+00	4.746835e-02	1.224414e+00	4.390099e+01	-6.901267e-12	2.539040e+05	1.012468e+05	2.880602e+02	1.053793e-01	-1.102753e-01	0.000000e+00	
-1.948718e+00	4.746835e-02	1.224414e+00	4.390099e+01	8.676767e-11	2.539040e+05	1.012468e+05	2.880602e+02	1.053793e-01	-1.102754e-01	0.000000e+00	
-2.000000e+00	1.582278e-02	1.224414e+00	4.390099e+01	-6.766357e-12	2.539040e+05	1.012468e+05	2.880602e+02	1.053793e-01	-1.102753e-01	0.000000e+00	
-1.948718e+00	1.582278e-02	1.224414e+00	4.390099e+01	9.802189e-11	2.539040e+05	1.012468e+05	2.880602e+02	1.053793e-01	-1.102754e-01	0.000000e+00	
-2.000000e+00	-1.582278e-02	1.224414e+00	4.390099e+01	-6.933415e-12	2.539040e+05	1.012468e+05	2.880602e+02	1.053793e-01	-1.102753e-01	0.000000e+00	
-1.948718e+00	-1.582278e-02	1.224414e+00	4.390099e+01	1.086143e-10	2.539040e+05	1.012468e+05	2.880602e+02	1.053793e-01	-1.102754e-01	0.000000e+00	
-2.000000e+00	-4.746835e-02	1.224414e+00	4.390099e+01	-7.225515e-12	2.539040e+05	1.012468e+05	2.880602e+02	1.053793e-01	-1.102753e-01	0.000000e+00	
-1.948718e+00	-4.746835e-02	1.224414e+00	4.390099e+01	1.186332e-10	2.539040e+05	1.012468e+05	2.880602e+02	1.053793e-01	-1.102754e-01	0.000000e+00	
-2.000000e+00	-7.911392e-02	1.224414e+00	4.390099e+01	-7.344060e-12	2.539040e+05	1.012468e+05	2.880602e+02	1.053793e-01	-1.102753e-01	0.000000e+00	
-1.948718e+00	-7.911392e-02	1.224414e+00	4.390099e+01	1.282007e-10	2.539040e+05	1.012468e+05	2.880602e+02	1.053793e-01	-1.102754e-01	0.000000e+00	
-2.000000e+00	-1.107595e-01	1.224414e+00	4.390099e+01	-7.360749e-12	2.539040e+05	1.012468e+05	2.880602e+02	1.053793e-01	-1.102753e-01	0.000000e+00	
-1.948718e+00	-1.107595e-01	1.224414e+00	4.390099e+01	1.372813e-10	2.539040e+05	1.012468e+05	2.880602e+02	1.053793e-01	-1.102754e-01	0.000000e+00	
-2.000000e+00	-1.424051e-01	1.224414e+00	4.390099e+01	-7.219460e-12	2.539040e+05	1.012468e+05	2.880602e+02	1.053793e-01	-1.102753e-01	0.000000e+00	
-1.948718e+00	-1.424051e-01	1.224414e+00	4.390099e+01	1.462716e-10	2.539040e+05	1.012468e+05	2.880602e+02	1.053793e-01	-1.102754e-01	0.000000e+00	
-2.000000e+00	-1.740506e-01	1.224414e+00	4.390099e+01	-7.195922e-12	2.539040e+05	1.012468e+05	2.880602e+02	1.053793e-01	-1.102753e-01	0.000000e+00	
-1.948718e+00	-1.740506e-01	1.224414e+00	4.390099e+01	1.545612e-10	2.539040e+05	1.012468e+05	2.880602e+02	1.053793e-01	-1.102754e-01	0.000000e+00	
-2.000000e+00	-2.056962e-01	1.224414e+00	4.390099e+01	-7.412663e-12	2.539040e+05	1.012468e+05	2.880602e+02	1.053793e-01	-1.102753e-01	0.000000e+00	
-1.948718e+00	-2.056962e-01	1.224414e+00	4.390099e+01	1.624478e-10	2.539040e+05	1.012468e+05	2.880602e+02	1.053793e-01	-1.102754e-01	0.000000e+00	
-2.000000e+00	-2.373418e-01	1.224414e+00	4.390099e+01	-7.427976e-12	2.539040e+05	1.012468e+05	2.880602e+02	1.053793e-01	-1.102753e-01	0.000000e+00	
-1.948718e+00	-2.373418e-01	1.224414e+00	4.390099e+01	1.701200e-10	2.539040e+05	1.012468e+05	2.880602e+02	1.053793e-01	-1.102754e-01	0.000000e+00	
-2.000000e+00	-2.689873e-01	1.224414e+00	4.390099e+01	-7.598000e-12	2.539040e+05	1.012468e+05	2.880602e+02	1.053793e-01	-1.102753e-01	0.000000e+00	
-1.948718e+00	-2.689873e-01	1.224414e+00	4.390099e+01	1.773433e-10	2.539040e+05	1.012468e+05	2.880602e+02	1.053793e-01	-1.102754e-01	0.000000e+00	
-2.000000e+00	-3.006329e-01	1.224414e+00	4.390099e+01	-7.724629e-12	2.539040e+05	1.012468e+05	2.880602e+02	1.053793e-01	-1.102753e-01	0.000000e+00	
-1.948718e+00	-3.006329e-01	1.224414e+00	4.390099e+01	1.844601e-10	2.539040e+05	1.012468e+05	2.880602e+02	1.053793e-01	-1.102754e-01	0.000000e+00	
-2.000000e+00	-3.322785e-01	1.224414e+00	4.390099e+01	-7.903274e-12	2.539040e+05	1.012468e+05	2.880602e+02	1.053793e-01	-1.102753e-01	0.000000e+00	
-1.948718e+00	-3.322785e-01	1.224414e+00	4.390099e+01	1.912838e-10	2.539040e+05	1.012468e+05	2.880602e+02	1.053793e-01	-1.102754e-01	0.000000e+00	
-2.000000e+00	-3.639241e-01	1.224414e+00	4.390099e+01	-7.832552e-12	2.539040e+05	1.012468e+05	2.880602e+02	1.053793e-01	-1.102753e-01	0.000000e+00	
-1.948718e+00	-3.639241e-01	1.224414e+00	4.390099e+01	1.982305e-10	2.539040e+05	1.012468e+05	2.880602e+02	1.053793e-01	-1.102754e-01	0.000000e+00	
-2.000000e+00	-3.955696e-01	1.224414e+00	4.390099e+01	-7.938428e-12	2.539040e+05	1.012468e+05	2.880602e+02	1.053793e-01	-1.102753e-01	0.000000e+00	
-1.948718e+00	-3.955696e-01	1.224414e+00	4.390099e+01	2.050463e-10	2.539040e+05	1.012468e+05	2.880602e+02	1.053793e-01	-1.102754e-01	0.000000e+00	
-2.000000e+00	-4.272152e-01	1.224414e+00	4.390099e+01	-8.161101e-12	2.539040e+05	1.012468e+05	2.880602e+02	1.053793e-01	-1.102753e-01	0.000000e+00	
-1.948718e+00	-4.272152e-01	1.224414e+00	4.390099e+01	2.118207e-10	2.539040e+05	1.012468e+05	2.880602e+02	1.053793e-01	-1.102754e-01	0.000000e+00	
-2.000000e+00	-4.588608e-01	1.224414e+00	4.390099e+01	-8.403489e-12	2.539040e+05	1.012468e+05	2.880602e+02	1.053793e-01	-1.102753e-01	0.000000e+00	
-1.948718e+00	-4.588608e-01	1.224414e+00	4.390099e+01	2.187112e-10	2.539040e+05	1.012468e+05	2.880602e+02	1.053793e-01	-1.102754e-01	0.000000e+00	
-2.000000e+00	-4.905063e-01	1.224414e+00	4.390099e+01	-8.697642e-12	2.539040e+05	1.012468e+05	2.880602e+02	1.053793e-01	-1.102753e-01	0.000000e+00	
-1.948718e+00	-4.905063e-01	1.224414e+00	4.390099e+01	2.259046e-10	2.539040e+05	1.012468e+05	2.880602e+02	1.053793e-01	-1.102754e-01	0.000000e+00	
-2.000000e+00	-5.221519e-01	1.224414e+00	4.390099e+01	-8.957174e-12	2.539040e+05	1.012468e+05	2.880602e+02	1.053793e-01	-1.102753e-01	0.000000e+00	
-1.948718e+00	-5.221519e-01	1.224414e+00	4.390099e+01	2.335284e-10	2.539040e+05	1.012468e+05	2.880602e+02	1.053793e-01	-1.102754e-01	0.000000e+00	
-2.000000e+00	-5.537975e-01	1.224414e+00	4.390099e+01	-9.245951e-12	2.539040e+05	1.012468e+05	2.880602e+02	1.053793e-01	-1.102753e-01	0.000000e+00	
-1.948718e+00	-5.537975e-01	1.224414e+00	4.390099e+01	2.417803e-10	2.539040e+05	1.012468e+05	2.880602e+02	1.053793e-01	-1.102754e-01	0.000000e+00	
-2.000000e+00	-5.854430e-01	1.224414e+00	4.390099e+01	-9.719399e-12	2.539040e+05	1.012468e+05	2.880602e+02	1.053793e-01	-1.102753e-01	0.000000e+00	
-1.948718e+00	-5.854430e-01	1.224414e+00	4.390099e+01	2.506879e-10	2.539040e+05	1.012468e+05	2.880602e+02	1.053793e-01	-1.102754e-01	0.000000e+00	
-2.000000e+00	-6.170886e-01	1.224414e+00	4.390099e+01	-1.010479e-11	2.539040e+05	1.012468e+05	2.880602e+02	1.053793e-01	-1.102753e-01	0.000000e+00	
-1.948718e+00	-6.170886e-01	1.224414e+00	4.390099e+01	2.605737e-10	2.539040e+05	1.012468e+05	2.880602e+02	1.053793e-01	-1.102754e-01	0.000000e+00	
-2.000000e+00	-6.487342e-01	1.224414e+00	4.390099e+01	-1.061856e-11	2.539040e+05	1.012468e+05	2.880602e+02	1.053793e-01	-1.102753e-01	0.000000e+00	
-1.948718e+00	-6.487342e-01	1.224414e+00	4.390099e+01	2.716281e-10	2.539040e+05	1.012468e+05	2.880602e+02	1.053793e-01	-1.102754e-01	0.000000e+00	
-2.000000e+00	-6.803797e-01	1.224414e+00	4.390099e+01	-1.139710e-11	2.539040e+05	1.012468e+05	2.880602e+02	1.053793e-01	-1.102753e-01	0.000000e+00	
-1.948718e+00	-6.803797e-01	1.224414e+00	4.390099e+01	2.840758e-10	2.539040e+05	1.012468e+05	2.880602e+02	1.053793e-01	-1.102754e-01	0.000000e+00	
-2.000000e+00	-7.120253e-01	1.224414e+00	4.390099e+01	-1.193650e-11	2.539040e+05	1.012468e+05	2.880602e+02	1.053793e-01	-1.102753e-01	0.000000e+00	
-1.948718e+00	-7.120253e-01	1.224414e+00	4.390099e+01	2.984703e-10	2.539040e+05	1.012468e+05	2.880602e+02	1.053793e-01	-1.102754e-01	0.000000e+00	
-2.000000e+00	-7.436709e-01	1.224414e+00	4.390099e+01	-1.276849e-11	2.539040e+05	1.012468e+05	2.880602e+02	1.053793e-01	-1.102753e-01	0.000000e+00	
-1.948718e+00	-7.436709e-01	1.224414e+00	4.390099e+01	3.148866e-10	2.539040e+05	1.012468e+05	2.880602e+02	1.053793e-01	-1.102754e-01	0.000000e+00	
-2.000000e+00	-7.753165e-01	1.224414e+00	4.390099e+01	-1.391279e-11	2.539040e+05	1.012468e+05	2.880602e+02	1.053793e-01	-1.102753e-01	0.000000e+00	
-1.948718e+00	-7.753165e-01	1.224414e+00	4.390099e+01	3.340530e-10	2.539040e+05	1.012468e+05	2.880602e+02	1.053793e-01	-1.102754e-01	0.000000e+00	
-2.000000e+00	-8.069620e-01	1.224414e+00	4.390099e+01	-1.551347e-11	2.539040e+05	1.012468e+05	2.880602e+02	1.053793e-01	-1.102753e-01	0.000000e+00	
-1.948718e+00	-8.069620e-01	1.224414e+00	4.390099e+01	3.561881e-10	2.539040e+05	1.012468e+05	2.880602e+02	1.053793e-01	-1.102754e-01	0.000000e+00	
-2.000000e+00	-8.386076e-01	1.224414e+00	4.390099e+01	-1.731802e-11	2.539040e+05	1.012468e+05	2.880602e+02	1.053793e-01	-1.102753e-01	0.000000e+00	
-1.948718e+00	-8.386076e-01	1.224414e+00	4.390099e+01	3.831612e-10	2.539040e+05	1.012468e+05	2.880602e+02	1.053793e-01	-1.102754e-01	0.000000e+00	
-2.000000e+00	-8.702532e-01	1.224414e+00	4.390099e+01	-1.896785e-11	2.539040e+05	1.012468e+05	2.880602e+02	1.053793e-01	-1.102753e-01	0.000000e+00	
-1.948718e+00	-8.702532e-01	1.224414e+00	4.390099e+01	4.157757e-10	2.539040e+05	1.012468e+05	2.880602e+02	1.053793e-01	-1.102754e-01	0.000000e+00	
-2.000000e+00	-9.018987e-01	1.224414e+00	4.390099e+01	-1.873277e-11	2.539040e+05	1.012468e+05	2.880602e+02	1.053793e-01	-1.102753e-01	0.000000e+00	
-1.948718e+00	-9.018987e-01	1.224414e+00	4.390099e+01	4.576537e-10	2.539040e+05	1.012468e+05	2.880602e+02	1.053793e-01	-1.102754e-01	0.000000e+00	
-2.000000e+00	-9.335443e-01	1.224414e+00	4.390099e+01	-1.618841e-11	2.539040e+05	1.012468e+05	2.880602e+02	1.053793e-01	-1.102753e-01	0.000000e+00	
-1.948718e+00	-9.335443e-01	1.224414e+00	4.390099e+01	5.081176e-10	2.539040e+05	1.012468e+05	2.880602e+02	1.053793e-01	-1.102754e-01	0.000000e+00	
-2.000000e+00	-9.651899e-01	1.224414e+00	4.390099e+01	-1.164748e-11	2.539040e+05	1.012468e+05	2.880602e+02	1.053793e-01	-1.102753e-01	0.000000e+00	
-1.948718e+00	-9.651899e-01	1.224414e+00	4.390099e+01	5.691296e-10	2.539040e+05	1.012468e+05	2.880602e+02	1.053793e-01	-1.102754e-01	0.000000e+00	
-2.000000e+00	-9.968354e-01	1.224414e+00	4.390099e+01	-1.001473e-11	2.539040e+05	1.012468e+05	2.880602e+02	1.053793e-01	-1.102753e-01	0.000000e+00	
-1.948718e+00	-9.968354e-01	1.224414e+00	4.390099e+01	6.336207e-10	2.539040e+05	1.012468e+05	2.880602e+02	1.053793e-01	-1.102754e-01	0.000000e+00	
-2.000000e+00	-1.028481e+00	1.224414e+00	4.390099e+01	-1.072705e-11	2.539040e+05	1.012468e+05	2.880602e+02	1.053793e-01	-1.102753e-01	0.000000e+00	
-1.948718e+00	-1.028481e+00	1.224414e+00	4.390099e+01	7.166863e-10	2.539040e+05	1.012468e+05	2.880602e+02	1.053793e-01	-1.102753e-01	0.000000e+00	
-2.000000e+00	-1.060127e+00	1.224414e+00	4.390099e+01	4.209251e-12	2.539040e+05	1.012468e+05	2.880602e+02	1.053793e-01	-1.102753e-01	0.000000e+00	
-1.948718e+00	-1.060127e+00	1.224414e+00	4.390099e+01	8.399256e-10	2.539040e+05	1.012468e+05	2.880602e+02	1.053793e-01	-1.102753e-01	0.000000e+00	
-2.000000e+00	-1.091772e+00	1.224414e+00	4.390099e+01	1.136435e-10	2.539040e+05	1.012468e+05	2.880602e+02	1.053793e-01	-1.102753e-01	0.000000e+00	
-1.948718e+00	-1.091772e+00	1.224414e+00	4.390099e+01	1.111614e-09	2.539040e+05	1.012468e+05	2.880602e+02	1.053793e-01	-1.102753e-01	0.000000e+00	
-2.000000e+00	-1.123418e+00	1.224414e+00	4.390099e+01	4.328559e-10	2.539040e+05	1.012468e+05	2.880602e+02	1.053793e-01	-1.102753e-01	0.000000e+00	
-1.948718e+00	-1.123418e+00	1.224414e+00	4.390099e+01	1.577161e-09	2.539040e+05	1.012468e+05	2.880602e+02	1.053793e-01	-1.102753e-01	0.000000e+00	
-2.000000e+00	-1.155063e+00	1.224414e+00	4.390099e+01	1.067608e-09	2.539040e+05	1.012468e+05	2.880602e+02	1.053793e-01	-1.102753e-01	0.000000e+00	
-1.948718e+00	-1.155063e+00	1.224414e+00	4.390099e+01	2.301257e-09	2.539040e+05	1.012468e+05	2.880602e+02	1.053793e-01	-1.102753e-01	0.000000e+00	
-2.000000e+00	-1.186709e+00	1.224414e+00	4.390099e+01	1.775535e-09	2.539040e+05	1.012468e+05	2.880602e+02	1.053793e-01	-1.102753e-01	0.000000e+00	
-1.948718e+00	-1.186709e+00	1.224414e+00	4.390099e+01	2.719290e-09	2.539040e+05	1.012468e+05	2.880602e+02	1.053793e-01	-1.102753e-01	0.000000e+00	
-2.000000e+00	-1.218354e+00	1.224414e+00	4.390099e+01	1.920254e-09	2.539040e+05	1.012468e+05	2.880602e+02	1.053793e-01	-1.102753e-01	0.000000e+00	
-1.948718e+00	-1.218354e+00	1.224414e+00	4.390099e+01	2.439865e-09	2.539040e+05	1.012468e+05	2.880602e+02	1.053793e-01	-1.102753e-01	0.000000e+00	
-1.897436e+00	1.218354e+00	1.224414e+00	4.390099e+01	-2.885284e-09	2.539040e+05	1.012468e+05	2.880602e+02	1.053793e-01	-1.102754e-01	0.000000e+00	
-1.897436e+00	1.250000e+00	1.224414e+00	4.390099e+01	-1.653649e-10	2.539040e+05	1.012468e+05	2.880602e+02	1.053793e-01	-1.102754e-01	0.000000e+00	
-1.897436e+00	1.186709e+00	1.224414e+00	4.390099e+01	-3.719015e-09	2.539040e+05	1.012468e+05	2.880602e+02	1.053793e-01	-1.102754e-01	0.000000e+00	
-1.897436e+00	1.155063e+00	1.224414e+00	4.390099e+01	-3.592988e-09	2.539040e+05	1.012468e+05	2.880602e+02	1.053793e-01	-1.102754e-01	0.000000e+00	
-1.897436e+00	1.123418e+00	1.224414e+00	4.390099e+01	-2.873735e-09	2.539040e+05	1.012468e+05	2.880602e+02	1.053793e-01	-1.102754e-01	0.000000e+00	
-1.897436e+00	1.091772e+00	1.224414e+00	4.390099e+01	-2.290355e-09	2.539040e+05	1.012468e+05	2.880602e+02	1.053793e-01	-1.102754e-01	0.000000e+00	
-1.897436e+00	1.060127e+00	1.224414e+00	4.390099e+01	-1.869319e-09	2.539040e+05	1.012468e+05	2.880602e+02	1.053793e-01	-1.102754e-01	0.000000e+00	
-1.897436e+00	1.028481e+00	1.224414e+00	4.390099e+01	-1.636227e-09	2.539040e+05	1.012468e+05	2.880602e+02	1.053793e-01	-1.102754e-01	0.000000e+00	
-1.897436e+00	9.968354e-01	1.224414e+00	4.390099e+01	-1.467928e-09	2.539040e+05	1.012468e+05	2.880602e+02	1.053793e-01	-1.102754e-01	0.000000e+00	
-1.897436e+00	9.651899e-01	1.224414e+00	4.390099e+01	-1.335549e-09	2.539040e+05	1.012468e+05	2.880602e+02	1.053793e-01	-1.102754e-01	0.000000e+00	
-1.897436e+00	9.335443e-01	1.224414e+00	4.390099e+01	-1.209126e-09	2.539040e+05	1.012468e+05	2.880602e+02	1.053793e-01	-1.102754e-01	0.000000e+00	
-1.897436e+00	9.018987e-01	1.224414e+00	4.390099e+01	-1.095763e-09	2.539040e+05	1.012468e+05	2.880602e+02	1.053793e-01	-1.102754e-01	0.000000e+00	
-1.897436e+00	8.702532e-01	1.224414e+00	4.390099e+01	-9.931468e-10	2.539040e+05	1.012468e+05	2.880602e+02	1.053793e-01	-1.102754e-01	0.000000e+00	
-1.897436e+00	8.386076e-01	1.224414e+00	4.390099e+01	-9.036531e-10	2.539040e+05	1.012468e+05	2.880602e+02	1.053793e-01	-1.102754e-01	0.000000e+00	
-1.897436e+00	8.069620e-01	1.224414e+00	4.390099e+01	-8.232746e-10	2.539040e+05	1.012468e+05	2.880602e+02	1.053793e-01	-1.102754e-01	0.000000e+00	
-1.897436e+00	7.753165e-01	1.224414e+00	4.390099e+01	-7.508009e-10	2.539040e+05	1.012468e+05	2.880602e+02	1.053793e-01	-1.102754e-01	0.000000e+00	
-1.897436e+00	7.436709e-01	1.224414e+00	4.390099e+01	-6.837139e-10	2.539040e+05	1.012468e+05	2.880602e+02	1.053793e-01	-1.102754e-01	0.000000e+00	
-1.897436e+00	7.120253e-01	1.224414e+00	4.390099e+01	-6.210440e-10	2.539040e+05	1.012468e+05	2.880602e+02	1.053793e-01	-1.102754e-01	0.000000e+00	
-1.897436e+00	6.803797e-01	1.224414e+00	4.390099e+01	-5.622384e-10	2.539040e+05	1.012468e+05	2.880602e+02	1.053793e-01	-1.102754e-01	0.000000e+00	
-1.897436e+00	6.487342e-01	1.224414e+00	4.390099e+01	-5.066223e-10	2.539040e+05	1.012468e+05	2.880602e+02	1.053793e-01	-1.102754e-01	0.000000e+00	
-1.897436e+00	6.170886e-01	1.224414e+00	4.390099e+01	-4.540436e-10	2.539040e+05	1.012468e+05	2.880602e+02	1.053793e-01	-1.102754e-01	0.000000e+00	
-1.897436e+00	5.854430e-01	1.224414e+00	4.390099e+01	-4.041861e-10	2.539040e+05	1.012468e+05	2.880602e+02	1.053793e-01	-1.102754e-01	0.000000e+00	
-1.897436e+00	5.537975e-01	1.224414e+00	4.390099e+01	-3.565458e-10	2.539040e+05	1.012468e+05	2.880602e+02	1.053793e-01	-1.102754e-01	0.000000e+00	
-1.897436e+00	5.221519e-01	1.224414e+00	4.390099e+01	-3.111356e-10	2.539040e+05	1.012468e+05	2.880602e+02	1.053793e-01	-1.102754e-01	0.000000e+00	
-1.897436e+00	4.905063e-01	1.224414e+00	4.390099e+01	-2.676133e-10	2.539040e+05	1.012468e+05	2.880602e+02	1.053793e-01	-1.102754e-01	0.000000e+00	
-1.897436e+00	4.588608e-01	1.224414e+00	4.390099e+01	-2.258757e-10	2.539040e+05	1.012468e+05	2.880602e+02	1.053793e-01	-1.102754e-01	0.000000e+00	
-1.897436e+00	4.272152e-01	1.224414e+00	4.390099e+01	-1.858539e-10	2.539040e+05	1.012468e+05	2.880602e+02	1.053793e-01	-1.102754e-01	0.000000e+00	
-1.897436e+00	3.955696e-01	1.224414e+00	4.390099e+01	-1.475238e-10	2.539040e+05	1.012468e+05	2.880602e+02	1.053793e-01	-1.102754e-01	0.000000e+00	
-1.897436e+00	3.639241e-01	1.224414e+00	4.390099e+01	-1.107379e-10	2.539040e+05	1.012468e+05	2.880602e+02	1.053793e-01	-1.102754e-01	0.000000e+00	
-1.897436e+00	3.322785e-01	1.224414e+00	4.390099e+01	-7.534793e-11	2.539040e+05	1.012468e+05	2.880602e+02	1.053793e-01	-1.102754e-01	0.000000e+00	
-1.897436e+00	3.006329e-01	1.224414e+00	4.390099e+01	-4.145413e-11	2.539040e+05	1.012468e+05	2.880602e+02	1.053793e-01	-1.102754e-01	0.000000e+00	
-1.897436e+00	2.689873e-01	1.224414e+00	4.390099e+01	-9.017511e-12	2.539040e+05	1.012468e+05	2.880602e+02	1.053793e-01	-1.102754e-01	0.000000e+00	
-1.897436e+00	2.373418e-01	1.224414e+00	4.390099e+01	2.210358e-11	2.539040e+05	1.012468e+05	2.880602e+02	1.053793e-01	-1.102754e-01	0.000000e+00	
-1.897436e+00	2.056962e-01	1.224414e+00	4.390099e+01	5.180430e-11	2.539040e+05	1.012468e+05	2.880602e+02	1.053793e-01	-1.102754e-01	0.000000e+00	
-1.897436e+00	1.740506e-01	1.224414e+00	4.390099e+01	8.021244e-11	2.539040e+05	1.012468e+05	2.880602e+02	1.053793e-01	-1.102754e-01	0.000000e+00	
-1.897436e+00	1.424051e-01	1.224414e+00	4.390099e+01	1.072884e-10	2.539040e+05	1.012468e+05	2.880602e+02	1.053793e-01	-1.102754e-01	0.000000e+00	
-1.897436e+00	1.107595e-01	1.224414e+00	4.390099e+01	1.331617e-10	2.539040e+05	1.012468e+05	2.880602e+02	1.053793e-01	-1.102754e-01	0.000000e+00	
-1.897436e+00	7.911392e-02	1.224414e+00	4.390099e+01	1.579012e-10	2.539040e+05	1.012468e+05	2.880602e+02	1.053793e-01	-1.102754e-01	0.000000e+00	
-1.897436e+00	4.746835e-02	1.224414e+00	4.390099e+01	1.813554e-10	2.539040e+05	1.012468e+05	2.880602e+02	1.053793e-01	-1.102754e-01	0.000000e+00	
-1.897436e+00	1.582278e-02	1.224414e+00	4.390099e+01	2.037674e-10	2.539040e+05	1.012468e+05	2.880602e+02	1.053793e-01	-1.102754e-01	0.000000e+00	
-1.897436e+00	-1.582278e-02	1.224414e+00	4.390099e+01	2.248871e-10	2.539040e+05	1.012468e+05	2.880602e+02	1.053793e-01	-1.102754e-01	0.000000e+00	
-1.897436e+00	-4.746835e-02	1.224414e+00	4.390099e+01	2.451647e-10	2.539040e+05	1.012468e+05	2.880602e+02	1.053793e-01	-1.102754e-01	0.000000e+00	
-1.897436e+00	-7.911392e-02	1.224414e+00	4.390099e+01	2.641769e-10	2.539040e+05	1.012468e+05	2.880602e+02	1.053793e-01	-1.102754e-01	0.000000e+00	
-1.897436e+00	-1.107595e-01	1.224414e+00	4.390099e+01	2.825517e-10	2.539040e+05	1.012468e+05	2.880602e+02	1.053793e-01	-1.102754e-01	0.000000e+00	