TITLE = "Visualization of the volumetric solution"
VARIABLES = "x","y","Density","Momentum_x","Momentum_y","Energy","Pressure","Temperature","Mach","C<sub>p</sub>","Roe_Dissipation"
ZONE NODES= 3200, ELEMENTS= 3081, DATAPACKING=POINT, ZONETYPE=FEQUADRILATERAL
1.000000e+00	1.250000e+00	1.224269e+00	4.390099e+01	6.374772e+00	2.538787e+05	1.012300e+05	2.880466e+02	1.064997e-01	-1.339395e-01	0.000000e+00	
1.000000e+00	1.218354e+00	1.224269e+00	4.390099e+01	6.374771e+00	2.538787e+05	1.012300e+05	2.880466e+02	1.064997e-01	-1.339397e-01	0.000000e+00	
1.051282e+00	1.218354e+00	1.224269e+00	4.390099e+01	6.374771e+00	2.538787e+05	1.012300e+05	2.880466e+02	1.064997e-01	-1.339395e-01	0.000000e+00	
1.051282e+00	1.250000e+00	1.224269e+00	4.390099e+01	6.374771e+00	2.538787e+05	1.012300e+05	2.880466e+02	1.064997e-01	-1.339395e-01	0.000000e+00	
1.000000e+00	1.186709e+00	1.224269e+00	4.390099e+01	6.374770e+00	2.538787e+05	1.012300e+05	2.880466e+02	1.064997e-01	-1.339396e-01	0.000000e+00	
1.051282e+00	1.186709e+00	1.224269e+00	4.390099e+01	6.374770e+00	2.538787e+05	1.012300e+05	2.880466e+02	1.064997e-01	-1.339395e-01	0.000000e+00	
1.000000e+00	1.155063e+00	1.224269e+00	4.390099e+01	6.374770e+00	2.538787e+05	1.012300e+05	2.880466e+02	1.064997e-01	-1.339395e-01	0.000000e+00	
1.051282e+00	1.155063e+00	1.224269e+00	4.390099e+01	6.374770e+00	2.538787e+05	1.012300e+05	2.880466e+02	1.064997e-01	-1.339395e-01	0.000000e+00	
1.000000e+00	1.123418e+00	1.224269e+00	4.390099e+01	6.374770e+00	2.538787e+05	1.012300e+05	2.880466e+02	1.064997e-01	-1.339395e-01	0.000000e+00	
1.051282e+00	1.123418e+00	1.224269e+00	4.390099e+01	6.374770e+00	2.538787e+05	1.012300e+05	2.880466e+02	1.064997e-01	-1.339395e-01	0.000000e+00	
1.000000e+00	1.091772e+00	1.224269e+00	4.390099e+01	6.374770e+00	2.538787e+05	1.012300e+05	2.880466e+02	1.064997e-01	-1.339395e-01	0.000000e+00	
1.051282e+00	1.091772e+00	1.224269e+00	4.390099e+01	6.374770e+00	2.538787e+05	1.012300e+05	2.880466e+02	1.064997e-01	-1.339395e-01	0.000000e+00	
1.000000e+00	1.060127e+00	1.224269e+00	4.390099e+01	6.374770e+00	2.538787e+05	1.012300e+05	2.880466e+02	1.064997e-01	-1.339395e-01	0.000000e+00	
1.051282e+00	1.060127e+00	1.224269e+00	4.390099e+01	6.374770e+00	2.538787e+05	1.012300e+05	2.880466e+02	1.064997e-01	-1.339395e-01	0.000000e+00	
1.000000e+00	1.028481e+00	1.224269e+00	4.390099e+01	6.374770e+00	2.538787e+05	1.012300e+05	2.880466e+02	1.064997e-01	-1.339395e-01	0.000000e+00	
1.051282e+00	1.028481e+00	1.224269e+00	4.390099e+01	6.374770e+00	2.538787e+05	1.012300e+05	2.880466e+02	1.064997e-01	-1.339395e-01	0.000000e+00	
1.000000e+00	9.968354e-01	1.224269e+00	4.390099e+01	6.374770e+00	2.538787e+05	1.012300e+05	2.880466e+02	1.064997e-01	-1.339395e-01	0.000000e+00	
1.051282e+00	9.968354e-01	1.224269e+00	4.390099e+01	6.374770e+00	2.538787e+05	1.012300e+05	2.880466e+02	1.064997e-01	-1.339395e-01	0.000000e+00	
1.000000e+00	9.651899e-01	1.224269e+00	4.390099e+01	6.374770e+00	2.538787e+05	1.012300e+05	2.880466e+02	1.064997e-01	-1.339395e-01	0.000000e+00	
1.051282e+00	9.651899e-01	1.224269e+00	4.390099e+01	6.374770e+00	2.538787e+05	1.012300e+05	2.880466e+02	1.064997e-01	-1.339395e-01	0.000000e+00	
1.000000e+00	9.335443e-01	1.224269e+00	4.390099e+01	6.374770e+00	2.538787e+05	1.012300e+05	2.880466e+02	1.064997e-01	-1.339395e-01	0.000000e+00	
1.051282e+00	9.335443e-01	1.224269e+00	4.390099e+01	6.374770e+00	2.538787e+05	1.012300e+05	2.880466e+02	1.064997e-01	-1.339395e-01	0.000000e+00	
1.000000e+00	9.018987e-01	1.224269e+00	4.390099e+01	6.374770e+00	2.538787e+05	1.012300e+05	2.880466e+02	1.064997e-01	-1.339395e-01	0.000000e+00	
1.051282e+00	9.018987e-01	1.224269e+00	4.390099e+01	6.374770e+00	2.538787e+05	1.012300e+05	2.880466e+02	1.064997e-01	-1.339395e-01	0.000000e+00	
1.000000e+00	8.702532e-01	1.224269e+00	4.390099e+01	6.374770e+00	2.538787e+05	1.012300e+05	2.880466e+02	1.064997e-01	-1.339395e-01	0.000000e+00	
1.051282e+00	8.702532e-01	1.224269e+00	4.390099e+01	6.374770e+00	2.538787e+05	1.012300e+05	2.880466e+02	1.064997e-01	-1.339395e-01	0.000000e+00	
1.000000e+00	8.386076e-01	1.224269e+00	4.390099e+01	6.374770e+00	2.538787e+05	1.012300e+05	2.880466e+02	1.064997e-01	-1.339395e-01	0.000000e+00	
1.051282e+00	8.386076e-01	1.224269e+00	4.390099e+01	6.374770e+00	2.538787e+05	1.012300e+05	2.880466e+02	1.064997e-01	-1.339395e-01	0.000000e+00	
1.000000e+00	8.069620e-01	1.224269e+00	4.390099e+01	6.374770e+00	2.538787e+05	1.012300e+05	2.880466e+02	1.064997e-01	-1.339395e-01	0.000000e+00	
1.051282e+00	8.069620e-01	1.224269e+00	4.390099e+01	6.374770e+00	2.538787e+05	1.012300e+05	2.880466e+02	1.064997e-01	-1.339395e-01	0.000000e+00	
1.000000e+00	7.753165e-01	1.224269e+00	4.390099e+01	6.374770e+00	2.538787e+05	1.012300e+05	2.880466e+02	1.064997e-01	-1.339395e-01	0.000000e+00	
1.051282e+00	7.753165e-01	1.224269e+00	4.390099e+01	6.374770e+00	2.538787e+05	1.012300e+05	2.880466e+02	1.064997e-01	-1.339395e-01	0.000000e+00	
1.000000e+00	7.436709e-01	1.224269e+00	4.390099e+01	6.374770e+00	2.538787e+05	1.012300e+05	2.880466e+02	1.064997e-01	-1.339395e-01	0.000000e+00	
1.051282e+00	7.436709e-01	1.224269e+00	4.390099e+01	6.374770e+00	2.538787e+05	1.012300e+05	2.880466e+02	1.064997e-01	-1.339395e-01	0.000000e+00	
1.000000e+00	7.120253e-01	1.224269e+00	4.390099e+01	6.374770e+00	2.538787e+05	1.012300e+05	2.880466e+02	1.064997e-01	-1.339395e-01	0.000000e+00	
1.051282e+00	7.120253e-01	1.224269e+00	4.390099e+01	6.374770e+00	2.538787e+05	1.012300e+05	2.880466e+02	1.064997e-01	-1.339395e-01	0.000000e+00	
1.000000e+00	6.803797e-01	1.224269e+00	4.390099e+01	6.374770e+00	2.538787e+05	1.012300e+05	2.880466e+02	1.064997e-01	-1.339395e-01	0.000000e+00	
1.051282e+00	6.803797e-01	1.224269e+00	4.390099e+01	6.374770e+00	2.538787e+05	1.012300e+05	2.880466e+02	1.064997e-01	-1.339395e-01	0.000000e+00	
1.000000e+00	6.487342e-01	1.224269e+00	4.390099e+01	6.374770e+00	2.538787e+05	1.012300e+05	2.880466e+02	1.064997e-01	-1.339395e-01	0.000000e+00	
1.051282e+00	6.487342e-01	1.224269e+00	4.390099e+01	6.374770e+00	2.538787e+05	1.012300e+05	2.880466e+02	1.064997e-01	-1.339395e-01	0.000000e+00	
1.000000e+00	6.170886e-01	1.224269e+00	4.390099e+01	6.374770e+00	2.538787e+05	1.012300e+05	2.880466e+02	1.064997e-01	-1.339395e-01	0.000000e+00	
1.051282e+00	6.170886e-01	1.224269e+00	4.390099e+01	6.374770e+00	2.538787e+05	1.012300e+05	2.880466e+02	1.064997e-01	-1.339395e-01	0.000000e+00	
1.000000e+00	5.854430e-01	1.224269e+00	4.390099e+01	6.374770e+00	2.538787e+05	1.012300e+05	2.880466e+02	1.064997e-01	-1.339395e-01	0.000000e+00	
1.051282e+00	5.854430e-01	1.224269e+00	4.390099e+01	6.374770e+00	2.538787e+05	1.012300e+05	2.880466e+02	1.064997e-01	-1.339395e-01	0.000000e+00	
1.000000e+00	5.537975e-01	1.224269e+00	4.390099e+01	6.374770e+00	2.538787e+05	1.012300e+05	2.880466e+02	1.064997e-01	-1.339395e-01	0.000000e+00	
1.051282e+00	5.537975e-01	1.224269e+00	4.390099e+01	6.374770e+00	2.538787e+05	1.012300e+05	2.880466e+02	1.064997e-01	-1.339395e-01	0.000000e+00	
1.000000e+00	5.221519e-01	1.224269e+00	4.390099e+01	6.374770e+00	2.538787e+05	1.012300e+05	2.880466e+02	1.064997e-01	-1.339395e-01	0.000000e+00	
1.051282e+00	5.221519e-01	1.224269e+00	4.390099e+01	6.374770e+00	2.538787e+05	1.012300e+05	2.880466e+02	1.064997e-01	-1.339395e-01	0.000000e+00	
1.000000e+00	4.905063e-01	1.224269e+00	4.390099e+01	6.374770e+00	2.538787e+05	1.012300e+05	2.880466e+02	1.064997e-01	-1.339395e-01	0.000000e+00	
1.051282e+00	4.905063e-01	1.224269e+00	4.390099e+01	6.374770e+00	2.538787e+05	1.012300e+05	2.880466e+02	1.064997e-01	-1.339395e-01	0.000000e+00	
1.000000e+00	4.588608e-01	1.224269e+00	4.390099e+01	6.374770e+00	2.538787e+05	1.012300e+05	2.880466e+02	1.064997e-01	-1.339395e-01	0.000000e+00	
1.051282e+00	4.588608e-01	1.224269e+00	4.390099e+01	6.374770e+00	2.538787e+05	1.012300e+05	2.880466e+02	1.064997e-01	-1.339395e-01	0.000000e+00	
1.000000e+00	4.272152e-01	1.224269e+00	4.390099e+01	6.374770e+00	2.538787e+05	1.012300e+05	2.880466e+02	1.064997e-01	-1.339395e-01	0.000000e+00	
1.051282e+00	4.272152e-01	1.224269e+00	4.390099e+01	6.374770e+00	2.538787e+05	1.012300e+05	2.880466e+02	1.064997e-01	-1.339395e-01	0.000000e+00	
1.000000e+00	3.955696e-01	1.224269e+00	4.390099e+01	6.374770e+00	2.538787e+05	1.012300e+05	2.880466e+02	1.064997e-01	-1.339395e-01	0.000000e+00	
1.051282e+00	3.955696e-01	1.224269e+00	4.390099e+01	6.374770e+00	2.538787e+05	1.012300e+05	2.880466e+02	1.064997e-01	-1.339395e-01	0.000000e+00	
1.000000e+00	3.639241e-01	1.224269e+00	4.390099e+01	6.374770e+00	2.538787e+05	1.012300e+05	2.880466e+02	1.064997e-01	-1.339395e-01	0.000000e+00	
1.051282e+00	3.639241e-01	1.224269e+00	4.390099e+01	6.374770e+00	2.538787e+05	1.012300e+05	2.880466e+02	1.064997e-01	-1.339395e-01	0.000000e+00	
1.000000e+00	3.322785e-01	1.224269e+00	4.390099e+01	6.374770e+00	2.538787e+05	1.012300e+05	2.880466e+02	1.064997e-01	-1.339395e-01	0.000000e+00	
1.051282e+00	3.322785e-01	1.224269e+00	4.390099e+01	6.374770e+00	2.538787e+05	1.012300e+05	2.880466e+02	1.064997e-01	-1.339395e-01	0.000000e+00	
1.000000e+00	3.006329e-01	1.224269e+00	4.390099e+01	6.374770e+00	2.538787e+05	1.012300e+05	2.880466e+02	1.064997e-01	-1.339395e-01	0.000000e+00	
1.051282e+00	3.006329e-01	1.224269e+00	4.390099e+01	6.374770e+00	2.538787e+05	1.012300e+05	2.880466e+02	1.064997e-01	-1.339395e-01	0.000000e+00	
1.000000e+00	2.689873e-01	1.224269e+00	4.390099e+01	6.374770e+00	2.538787e+05	1.012300e+05	2.880466e+02	1.064997e-01	-1.339395e-01	0.000000e+00	
1.051282e+00	2.689873e-01	1.224269e+00	4.390099e+01	6.374770e+00	2.538787e+05	1.012300e+05	2.880466e+02	1.064997e-01	-1.339395e-01	0.000000e+00	
1.000000e+00	2.373418e-01	1.224269e+00	4.390099e+01	6.374770e+00	2.538787e+05	1.012300e+05	2.880466e+02	1.064997e-01	-1.339395e-01	0.000000e+00	
1.051282e+00	2.373418e-01	1.224269e+00	4.390099e+01	6.374770e+00	2.538787e+05	1.012300e+05	2.880466e+02	1.064997e-01	-1.339395e-01	0.000000e+00	
1.000000e+00	2.056962e-01	1.224269e+00	4.390099e+01	6.374770e+00	2.538787e+05	1.012300e+05	2.880466e+02	1.064997e-01	-1.339395e-01	0.000000e+00	
1.051282e+00	2.056962e-01	1.224269e+00	4.390099e+01	6.374770e+00	2.538787e+05	1.012300e+05	2.880466e+02	1.064997e-01	-1.339395e-01	0.000000e+00	
1.000000e+00	1.740506e-01	1.224269e+00	4.390099e+01	6.374770e+00	2.538787e+05	1.012300e+05	2.880466e+02	1.064997e-01	-1.339395e-01	0.000000e+00	
1.051282e+00	1.740506e-01	1.224269e+00	4.390099e+01	6.374770e+00	2.538787e+05	1.012300e+05	2.880466e+02	1.064997e-01	-1.339395e-01	0.000000e+00	
1.000000e+00	1.424051e-01	1.224269e+00	4.390099e+01	6.374770e+00	2.538787e+05	1.012300e+05	2.880466e+02	1.064997e-01	-1.339395e-01	0.000000e+00	
1.051282e+00	1.424051e-01	1.224269e+00	4.390099e+01	6.374770e+00	2.538787e+05	1.012300e+05	2.880466e+02	1.064997e-01	-1.339395e-01	0.000000e+00	
1.000000e+00	1.107595e-01	1.224269e+00	4.390099e+01	6.374770e+00	2.538787e+05	1.012300e+05	2.880466e+02	1.064997e-01	-1.339395e-01	0.000000e+00	
1.051282e+00	1.107595e-01	1.224269e+00	4.390099e+01	6.374770e+00	2.538787e+05	1.012300e+05	2.880466e+02	1.064997e-01	-1.339395e-01	0.000000e+00	
1.000000e+00	7.911392e-02	1.224269e+00	4.390099e+01	6.374770e+00	2.538787e+05	1.012300e+05	2.880466e+02	1.064997e-01	-1.339395e-01	0.000000e+00	
1.051282e+00	7.911392e-02	1.224269e+00	4.390099e+01	6.374770e+00	2.538787e+05	1.012300e+05	2.880466e+02	1.064997e-01	-1.339395e-01	0.000000e+00	
1.000000e+00	4.746835e-02	1.224269e+00	4.390099e+01	6.374770e+00	2.538787e+05	1.012300e+05	2.880466e+02	1.064997e-01	-1.339395e-01	0.000000e+00	
1.051282e+00	4.746835e-02	1.224269e+00	4.390099e+01	6.374770e+00	2.538787e+05	1.012300e+05	2.880466e+02	1.064997e-01	-1.339395e-01	0.000000e+00	
1.000000e+00	1.582278e-02	1.224269e+00	4.390099e+01	6.374770e+00	2.538787e+05	1.012300e+05	2.880466e+02	1.064997e-01	-1.339395e-01	0.000000e+00	
1.051282e+00	1.582278e-02	1.224269e+00	4.390099e+01	6.374770e+00	2.538787e+05	1.012300e+05	2.880466e+02	1.064997e-01	-1.339395e-01	0.000000e+00	
1.000000e+00	-1.582278e-02	1.224269e+00	4.390099e+01	6.374770e+00	2.538787e+05	1.012300e+05	2.880466e+02	1.064997e-01	-1.339395e-01	0.000000e+00	
1.051282e+00	-1.582278e-02	1.224269e+00	4.390099e+01	6.374770e+00	2.538787e+05	1.012300e+05	2.880466e+02	1.064997e-01	-1.339395e-01	0.000000e+00	
1.000000e+00	-4.746835e-02	1.224269e+00	4.390099e+01	6.374770e+00	2.538787e+05	1.012300e+05	2.880466e+02	1.064997e-01	-1.339395e-01	0.000000e+00	
1.051282e+00	-4.746835e-02	1.224269e+00	4.390099e+01	6.374770e+00	2.538787e+05	1.012300e+05	2.880466e+02	1.064997e-01	-1.339395e-01	0.000000e+00	
1.000000e+00	-7.911392e-02	1.224269e+00	4.390099e+01	6.374770e+00	2.538787e+05	1.012300e+05	2.880466e+02	1.064997e-01	-1.339395e-01	0.000000e+00	
1.051282e+00	-7.911392e-02	1.224269e+00	4.390099e+01	6.374770e+00	2.538787e+05	1.012300e+05	2.880466e+02	1.064997e-01	-1.339395e-01	0.000000e+00	
1.000000e+00	-1.107595e-01	1.224269e+00	4.390099e+01	6.374770e+00	2.538787e+05	1.012300e+05	2.880466e+02	1.064997e-01	-1.339395e-01	0.000000e+00	
1.051282e+00	-1.107595e-01	1.224269e+00	4.390099e+01	6.374770e+00	2.538787e+05	1.012300e+05	2.880466e+02	1.064997e-01	-1.339395e-01	0.000000e+00	
1.000000e+00	-1.424051e-01	1.224269e+00	4.390099e+01	6.374770e+00	2.538787e+05	1.012300e+05	2.880466e+02	1.064997e-01	-1.339395e-01	0.000000e+00	
1.051282e+00	-1.424051e-01	1.224269e+00	4.390099e+01	6.374770e+00	2.538787e+05	1.012300e+05	2.880466e+02	1.064997e-01	-1.339395e-01	0.000000e+00	
1.000000e+00	-1.740506e-01	1.224269e+00	4.390099e+01	6.374770e+00	2.538787e+05	1.012300e+05	2.880466e+02	1.064997e-01	-1.339395e-01	0.000000e+00	
1.051282e+00	-1.740506e-01	1.224269e+00	4.390099e+01	6.374770e+00	2.538787e+05	1.012300e+05	2.880466e+02	1.064997e-01	-1.339395e-01	0.000000e+00	
1.000000e+00	-2.056962e-01	1.224269e+00	4.390099e+01	6.374770e+00	2.538787e+05	1.012300e+05	2.880466e+02	1.064997e-01	-1.339395e-01	0.000000e+00	
1.051282e+00	-2.056962e-01	1.224269e+00	4.390099e+01	6.374770e+00	2.538787e+05	1.012300e+05	2.880466e+02	1.064997e-01	-1.339395e-01	0.000000e+00	
1.000000e+00	-2.373418e-01	1.224269e+00	4.390099e+01	6.374770e+00	2.538787e+05	1.012300e+05	2.880466e+02	1.064997e-01	-1.339395e-01	0.000000e+00	
1.051282e+00	-2.373418e-01	1.224269e+00	4.390099e+01	6.374770e+00	2.538787e+05	1.012300e+05	2.880466e+02	1.064997e-01	-1.339395e-01	0.000000e+00	
1.000000e+00	-2.689873e-01	1.224269e+00	4.390099e+01	6.374770e+00	2.538787e+05	1.012300e+05	2.880466e+02	1.064997e-01	-1.339395e-01	0.000000e+00	
1.051282e+00	-2.689873e-01	1.224269e+00	4.390099e+01	6.374770e+00	2.538787e+05	1.012300e+05	2.880466e+02	1.064997e-01	-1.339395e-01	0.000000e+00	
1.000000e+00	-3.006329e-01	1.224269e+00	4.390099e+01	6.374770e+00	2.538787e+05	1.012300e+05	2.880466e+02	1.064997e-01	-1.339395e-01	0.000000e+00	
1.051282e+00	-3.006329e-01	1.224269e+00	4.390099e+01	6.374770e+00	2.538787e+05	1.012300e+05	2.880466e+02	1.064997e-01	-1.339395e-01	0.000000e+00	
1.000000e+00	-3.322785e-01	1.224269e+00	4.390099e+01	6.374770e+00	2.538787e+05	1.012300e+05	2.880466e+02	1.064997e-01	-1.339395e-01	0.000000e+00	
1.051282e+00	-3.322785e-01	1.224269e+00	4.390099e+01	6.374770e+00	2.538787e+05	1.012300e+05	2.880466e+02	1.064997e-01	-1.339395e-01	0.000000e+00	
1.000000e+00	-3.639241e-01	1.224269e+00	4.390099e+01	6.374770e+00	2.538787e+05	1.012300e+05	2.880466e+02	1.064997e-01	-1.339395e-01	0.000000e+00	
1.051282e+00	-3.639241e-01	1.224269e+00	4.390099e+01	6.374770e+00	2.538787e+05	1.012300e+05	2.880466e+02	1.064997e-01	-1.339395e-01	0.000000e+00	
1.000000e+00	-3.955696e-01	1.224269e+00	4.390099e+01	6.374770e+00	2.538787e+05	1.012300e+05	2.880466e+02	1.064997e-01	-1.339395e-01	0.000000e+00	
1.051282e+00	-3.955696e-01	1.224269e+00	4.390099e+01	6.374770e+00	2.538787e+05	1.012300e+05	2.880466e+02	1.064997e-01	-1.339395e-01	0.000000e+00	
1.000000e+00	-4.272152e-01	1.224269e+00	4.390099e+01	6.374770e+00	2.538787e+05	1.012300e+05	2.880466e+02	1.064997e-01	-1.339395e-01	0.000000e+00	
1.051282e+00	-4.272152e-01	1.224269e+00	4.390099e+01	6.374770e+00	2.538787e+05	1.012300e+05	2.880466e+02	1.064997e-01	-1.339395e-01	0.000000e+00	
1.000000e+00	-4.588608e-01	1.224269e+00	4.390099e+01	6.374770e+00	2.538787e+05	1.012300e+05	2.880466e+02	1.064997e-01	-1.339395e-01	0.000000e+00	
1.051282e+00	-4.588608e-01	1.224269e+00	4.390099e+01	6.374770e+00	2.538787e+05	1.012300e+05	2.880466e+02	1.064997e-01	-1.339395e-01	0.000000e+00	
1.000000e+00	-4.905063e-01	1.224269e+00	4.390099e+01	6.374770e+00	2.538787e+05	1.012300e+05	2.880466e+02	1.064997e-01	-1.339395e-01	0.000000e+00	
1.051282e+00	-4.905063e-01	1.224269e+00	4.390099e+01	6.374770e+00	2.538787e+05	1.012300e+05	2.880466e+02	1.064997e-01	-1.339395e-01	0.000000e+00	
1.000000e+00	-5.221519e-01	1.224269e+00	4.390099e+01	6.374770e+00	2.538787e+05	1.012300e+05	2.880466e+02	1.064997e-01	-1.339395e-01	0.000000e+00	
1.051282e+00	-5.221519e-01	1.224269e+00	4.390099e+01	6.374770e+00	2.538787e+05	1.012300e+05	2.880466e+02	1.064997e-01	-1.339395e-01	0.000000e+00	
1.000000e+00	-5.537975e-01	1.224269e+00	4.390099e+01	6.374770e+00	2.538787e+05	1.012300e+05	2.880466e+02	1.064997e-01	-1.339395e-01	0.000000e+00	
1.051282e+00	-5.537975e-01	1.224269e+00	4.390099e+01	6.374770e+00	2.538787e+05	1.012300e+05	2.880466e+02	1.064997e-01	-1.339395e-01	0.000000e+00	
1.000000e+00	-5.854430e-01	1.224269e+00	4.390099e+01	6.374770e+00	2.538787e+05	1.012300e+05	2.880466e+02	1.064997e-01	-1.339395e-01	0.000000e+00	
1.051282e+00	-5.854430e-01	1.224269e+00	4.390099e+01	6.374770e+00	2.538787e+05	1.012300e+05	2.880466e+02	1.064997e-01	-1.339395e-01	0.000000e+00	
1.000000e+00	-6.170886e-01	1.224269e+00	4.390099e+01	6.374770e+00	2.538787e+05	1.012300e+05	2.880466e+02	1.064997e-01	-1.339395e-01	0.000000e+00	
1.051282e+00	-6.170886e-01	1.224269e+00	4.390099e+01	6.374770e+00	2.538787e+05	1.012300e+05	2.880466e+02	1.064997e-01	-1.339395e-01	0.000000e+00	
1.000000e+00	-6.487342e-01	1.224269e+00	4.390099e+01	6.374770e+00	2.538787e+05	1.012300e+05	2.880466e+02	1.064997e-01	-1.339395e-01	0.000000e+00	
1.051282e+00	-6.487342e-01	1.224269e+00	4.390099e+01	6.374770e+00	2.538787e+05	1.012300e+05	2.880466e+02	1.064997e-01	-1.339395e-01	0.000000e+00	
1.000000e+00	-6.803797e-01	1.224269e+00	4.390099e+01	6.374770e+00	2.538787e+05	1.012300e+05	2.880466e+02	1.064997e-01	-1.339395e-01	0.000000e+00	
1.051282e+00	-6.803797e-01	1.224269e+00	4.390099e+01	6.374770e+00	2.538787e+05	1.012300e+05	2.880466e+02	1.064997e-01	-1.339395e-01	0.000000e+00	
1.000000e+00	-7.120253e-01	1.224269e+00	4.390099e+01	6.374770e+00	2.538787e+05	1.012300e+05	2.880466e+02	1.064997e-01	-1.339395e-01	0.000000e+00	
1.051282e+00	-7.120253e-01	1.224269e+00	4.390099e+01	6.374770e+00	2.538787e+05	1.012300e+05	2.880466e+02	1.064997e-01	-1.339395e-01	0.000000e+00	
1.000000e+00	-7.436709e-01	1.224269e+00	4.390099e+01	6.374770e+00	2.538787e+05	1.012300e+05	2.880466e+02	1.064997e-01	-1.339395e-01	0.000000e+00	
1.051282e+00	-7.436709e-01	1.224269e+00	4.390099e+01	6.374770e+00	2.538787e+05	1.012300e+05	2.880466e+02	1.064997e-01	-1.339395e-01	0.000000e+00	
1.000000e+00	-7.753165e-01	1.224269e+00	4.390099e+01	6.374770e+00	2.538787e+05	1.012300e+05	2.880466e+02	1.064997e-01	-1.339395e-01	0.000000e+00	
1.051282e+00	-7.753165e-01	1.224269e+00	4.390099e+01	6.374770e+00	2.538787e+05	1.012300e+05	2.880466e+02	1.064997e-01	-1.339395e-01	0.000000e+00	
1.000000e+00	-8.069620e-01	1.224269e+00	4.390099e+01	6.374770e+00	2.538787e+05	1.012300e+05	2.880466e+02	1.064997e-01	-1.339395e-01	0.000000e+00	
1.051282e+00	-8.069620e-01	1.224269e+00	4.390099e+01	6.374770e+00	2.538787e+05	1.012300e+05	2.880466e+02	1.064997e-01	-1.339395e-01	0.000000e+00	
1.000000e+00	-8.386076e-01	1.224269e+00	4.390099e+01	6.374770e+00	2.538787e+05	1.012300e+05	2.880466e+02	1.064997e-01	-1.339395e-01	0.000000e+00	
1.051282e+00	-8.386076e-01	1.224269e+00	4.390099e+01	6.374770e+00	2.538787e+05	1.012300e+05	2.880466e+02	1.064997e-01	-1.339395e-01	0.000000e+00	
1.000000e+00	-8.702532e-01	1.224269e+00	4.390099e+01	6.374770e+00	2.538787e+05	1.012300e+05	2.880466e+02	1.064997e-01	-1.339395e-01	0.000000e+00	
1.051282e+00	-8.702532e-01	1.224269e+00	4.390099e+01	6.374770e+00	2.538787e+05	1.012300e+05	2.880466e+02	1.064997e-01	-1.339395e-01	0.000000e+00	
1.000000e+00	-9.018987e-01	1.224269e+00	4.390099e+01	6.374770e+00	2.538787e+05	1.012300e+05	2.880466e+02	1.064997e-01	-1.339395e-01	0.000000e+00	
1.051282e+00	-9.018987e-01	1.224269e+00	4.390099e+01	6.374770e+00	2.538787e+05	1.012300e+05	2.880466e+02	1.064997e-01	-1.339395e-01	0.000000e+00	
1.000000e+00	-9.335443e-01	1.224269e+00	4.390099e+01	6.374770e+00	2.538787e+05	1.012300e+05	2.880466e+02	1.064997e-01	-1.339395e-01	0.000000e+00	
1.051282e+00	-9.335443e-01	1.224269e+00	4.390099e+01	6.374770e+00	2.538787e+05	1.012300e+05	2.880466e+02	1.064997e-01	-1.339395e-01	0.000000e+00	
1.000000e+00	-9.651899e-01	1.224269e+00	4.390099e+01	6.374770e+00	2.538787e+05	1.012300e+05	2.880466e+02	1.064997e-01	-1.339395e-01	0.000000e+00	
1.051282e+00	-9.651899e-01	1.224269e+00	4.390099e+01	6.374770e+00	2.538787e+05	1.012300e+05	2.880466e+02	1.064997e-01	-1.339395e-01	0.000000e+00	
1.000000e+00	-9.968354e-01	1.224269e+00	4.390099e+01	6.374770e+00	2.538787e+05	1.012300e+05	2.880466e+02	1.064997e-01	-1.339395e-01	0.000000e+00	
1.051282e+00	-9.968354e-01	1.224269e+00	4.390099e+01	6.374770e+00	2.538787e+05	1.012300e+05	2.880466e+02	1.064997e-01	-1.339395e-01	0.000000e+00	
1.000000e+00	-1.028481e+00	1.224269e+00	4.390099e+01	6.374770e+00	2.538787e+05	1.012300e+05	2.880466e+02	1.064997e-01	-1.339395e-01	0.000000e+00	
1.051282e+00	-1.028481e+00	1.224269e+00	4.390099e+01	6.374770e+00	2.538787e+05	1.012300e+05	2.880466e+02	1.064997e-01	-1.339395e-01	0.000000e+00	
1.000000e+00	-1.060127e+00	1.224269e+00	4.390099e+01	6.374770e+00	2.538787e+05	1.012300e+05	2.880466e+02	1.064997e-01	-1.339395e-01	0.000000e+00	
1.051282e+00	-1.060127e+00	1.224269e+00	4.390099e+01	6.374770e+00	2.538787e+05	1.012300e+05	2.880466e+02	1.064997e-01	-1.339395e-01	0.000000e+00	
1.000000e+00	-1.091772e+00	1.224269e+00	4.390099e+01	6.374770e+00	2.538787e+05	1.012300e+05	2.880466e+02	1.064997e-01	-1.339395e-01	0.000000e+00	
1.051282e+00	-1.091772e+00	1.224269e+00	4.390099e+01	6.374770e+00	2.538787e+05	1.012300e+05	2.880466e+02	1.064997e-01	-1.339395e-01	0.000000e+00	
1.000000e+00	-1.123418e+00	1.224269e+00	4.390099e+01	6.374770e+00	2.538787e+05	1.012300e+05	2.880466e+02	1.064997e-01	-1.339395e-01	0.000000e+00	
1.051282e+00	-1.123418e+00	1.224269e+00	4.390099e+01	6.374770e+00	2.538787e+05	1.012300e+05	2.880466e+02	1.064997e-01	-1.339395e-01	0.000000e+00	
1.000000e+00	-1.155063e+00	1.224269e+00	4.390098e+01	6.374770e+00	2.538787e+05	1.012300e+05	2.880466e+02	1.064997e-01	-1.339394e-01	0.000000e+00	
1.051282e+00	-1.155063e+00	1.224269e+00	4.390099e+01	6.374770e+00	2.538787e+05	1.012300e+05	2.880466e+02	1.064997e-01	-1.339394e-01	0.000000e+00	
1.000000e+00	-1.186709e+00	1.224269e+00	4.390098e+01	6.374770e+00	2.538787e+05	1.012300e+05	2.880466e+02	1.064997e-01	-1.339394e-01	0.000000e+00	
1.051282e+00	-1.186709e+00	1.224269e+00	4.390099e+01	6.374770e+00	2.538787e+05	1.012300e+05	2.880466e+02	1.064997e-01	-1.339395e-01	0.000000e+00	
1.000000e+00	-1.218354e+00	1.224269e+00	4.390099e+01	6.374771e+00	2.538787e+05	1.012300e+05	2.880466e+02	1.064997e-01	-1.339392e-01	0.000000e+00	
1.051282e+00	-1.218354e+00	1.224269e+00	4.390099e+01	6.374771e+00	2.538787e+05	1.012300e+05	2.880466e+02	1.064997e-01	-1.339394e-01	0.000000e+00	
1.102564e+00	1.218354e+00	1.224269e+00	4.390099e+01	6.374770e+00	2.538787e+05	1.012300e+05	2.880466e+02	1.064997e-01	-1.339395e-01	0.000000e+00	
1.102564e+00	1.250000e+00	1.224269e+00	4.390099e+01	6.374770e+00	2.538787e+05	1.012300e+05	2.880466e+02	1.064997e-01	-1.339395e-01	0.000000e+00	
1.102564e+00	1.186709e+00	1.224269e+00	4.390099e+01	6.374770e+00	2.538787e+05	1.012300e+05	2.880466e+02	1.064997e-01	-1.339395e-01	0.000000e+00	
1.102564e+00	1.155063e+00	1.224269e+00	4.390099e+01	6.374770e+00	2.538787e+05	1.012300e+05	2.880466e+02	1.064997e-01	-1.339395e-01	0.000000e+00	
1.102564e+00	1.123418e+00	1.224269e+00	4.390099e+01	6.374770e+00	2.538787e+05	1.012300e+05	2.880466e+02	1.064997e-01	-1.339395e-01	0.000000e+00	
1.102564e+00	1.091772e+00	1.224269e+00	4.390099e+01	6.374770e+00	2.538787e+05	1.012300e+05	2.880466e+02	1.064997e-01	-1.339395e-01	0.000000e+00	
1.102564e+00	1.060127e+00	1.224269e+00	4.390099e+01	6.374770e+00	2.538787e+05	1.012300e+05	2.880466e+02	1.064997e-01	-1.339395e-01	0.000000e+00	
1.102564e+00	1.028481e+00	1.224269e+00	4.390099e+01	6.374770e+00	2.538787e+05	1.012300e+05	2.880466e+02	1.064997e-01	-1.339395e-01	0.000000e+00	
1.102564e+00	9.968354e-01	1.224269e+00	4.390099e+01	6.374770e+00	2.538787e+05	1.012300e+05	2.880466e+02	1.064997e-01	-1.339395e-01	0.000000e+00	
1.102564e+00	9.651899e-01	1.224269e+00	4.390099e+01	6.374770e+00	2.538787e+05	1.012300e+05	2.880466e+02	1.064997e-01	-1.339395e-01	0.000000e+00	
1.102564e+00	9.335443e-01	1.224269e+00	4.390099e+01	6.374770e+00	2.538787e+05	1.012300e+05	2.880466e+02	1.064997e-01	-1.339395e-01	0.000000e+00	
1.102564e+00	9.018987e-01	1.224269e+00	4.390099e+01	6.374770e+00	2.538787e+05	1.012300e+05	2.880466e+02	1.064997e-01	-1.339395e-01	0.000000e+00	
1.102564e+00	8.702532e-01	1.224269e+00	4.390099e+01	6.374770e+00	2.538787e+05	1.012300e+05	2.880466e+02	1.064997e-01	-1.339395e-01	0.000000e+00	
1.102564e+00	8.386076e-01	1.224269e+00	4.390099e+01	6.374770e+00	2.538787e+05	1.012300e+05	2.880466e+02	1.064997e-01	-1.339395e-01	0.000000e+00	
1.102564e+00	8.069620e-01	1.224269e+00	4.390099e+01	6.374770e+00	2.538787e+05	1.012300e+05	2.880466e+02	1.064997e-01	-1.339395e-01	0.000000e+00	
1.102564e+00	7.753165e-01	1.224269e+00	4.390099e+01	6.374770e+00	2.538787e+05	1.012300e+05	2.880466e+02	1.064997e-01	-1.339395e-01	0.000000e+00	
1.102564e+00	7.436709e-01	1.224269e+00	4.390099e+01	6.374770e+00	2.538787e+05	1.012300e+05	2.880466e+02	1.064997e-01	-1.339395e-01	0.000000e+00	
1.102564e+00	7.120253e-01	1.224269e+00	4.390099e+01	6.374770e+00	2.538787e+05	1.012300e+05	2.880466e+02	1.064997e-01	-1.339395e-01	0.000000e+00	
1.102564e+00	6.803797e-01	1.224269e+00	4.390099e+01	6.374770e+00	2.538787e+05	1.012300e+05	2.880466e+02	1.064997e-01	-1.339395e-01	0.000000e+00	
1.102564e+00	6.487342e-01	1.224269e+00	4.390099e+01	6.374770e+00	2.538787e+05	1.012300e+05	2.880466e+02	1.064997e-01	-1.339395e-01	0.000000e+00	
1.102564e+00	6.170886e-01	1.224269e+00	4.390099e+01	6.374770e+00	2.538787e+05	1.012300e+05	2.880466e+02	1.064997e-01	-1.339395e-01	0.000000e+00	
1.102564e+00	5.854430e-01	1.224269e+00	4.390099e+01	6.374770e+00	2.538787e+05	1.012300e+05	2.880466e+02	1.064997e-01	-1.339395e-01	0.000000e+00	
1.102564e+00	5.537975e-01	1.224269e+00	4.390099e+01	6.374770e+00	2.538787e+05	1.012300e+05	2.880466e+02	1.064997e-01	-1.339395e-01	0.000000e+00	
1.102564e+00	5.221519e-01	1.224269e+00	4.390099e+01	6.374770e+00	2.538787e+05	1.012300e+05	2.880466e+02	1.064997e-01	-1.339395e-01	0.000000e+00	
1.102564e+00	4.905063e-01	1.224269e+00	4.390099e+01	6.374770e+00	2.538787e+05	1.012300e+05	2.880466e+02	1.064997e-01	-1.339395e-01	0.000000e+00	
1.102564e+00	4.588608e-01	1.224269e+00	4.390099e+01	6.374770e+00	2.538787e+05	1.012300e+05	2.880466e+02	1.064997e-01	-1.339395e-01	0.000000e+00	
1.102564e+00	4.272152e-01	1.224269e+00	4.390099e+01	6.374770e+00	2.538787e+05	1.012300e+05	2.880466e+02	1.064997e-01	-1.339395e-01	0.000000e+00	
1.102564e+00	3.955696e-01	1.224269e+00	4.390099e+01	6.374770e+00	2.538787e+05	1.012300e+05	2.880466e+02	1.064997e-01	-1.339395e-01	0.000000e+00	
1.102564e+00	3.639241e-01	1.224269e+00	4.390099e+01	6.374770e+00	2.538787e+05	1.012300e+05	2.880466e+02	1.064997e-01	-1.339395e-01	0.000000e+00	
1.102564e+00	3.322785e-01	1.224269e+00	4.390099e+01	6.374770e+00	2.538787e+05	1.012300e+05	2.880466e+02	1.064997e-01	-1.339395e-01	0.000000e+00	
1.102564e+00	3.006329e-01	1.224269e+00	4.390099e+01	6.374770e+00	2.538787e+05	1.012300e+05	2.880466e+02	1.064997e-01	-1.339395e-01	0.000000e+00	
1.102564e+00	2.689873e-01	1.224269e+00	4.390099e+01	6.374770e+00	2.538787e+05	1.012300e+05	2.880466e+02	1.064997e-01	-1.339395e-01	0.000000e+00	
1.102564e+00	2.373418e-01	1.224269e+00	4.390099e+01	6.374770e+00	2.538787e+05	1.012300e+05	2.880466e+02	1.064997e-01	-1.339395e-01	0.000000e+00	
1.102564e+00	2.056962e-01	1.224269e+00	4.390099e+01	6.374770e+00	2.538787e+05	1.012300e+05	2.880466e+02	1.064997e-01	-1.339395e-01	0.000000e+00	
1.102564e+00	1.740506e-01	1.224269e+00	4.390099e+01	6.374770e+00	2.538787e+05	1.012300e+05	2.880466e+02	1.064997e-01	-1.339395e-01	0.000000e+00	
1.102564e+00	1.424051e-01	1.224269e+00	4.390099e+01	6.374770e+00	2.538787e+05	1.012300e+05	2.880466e+02	1.064997e-01	-1.339395e-01	0.000000e+00	
1.102564e+00	1.107595e-01	1.224269e+00	4.390099e+01	6.374770e+00	2.538787e+05	1.012300e+05	2.880466e+02	1.064997e-01	-1.339395e-01	0.000000e+00	
1.102564e+00	7.911392e-02	1.224269e+00	4.390099e+01	6.374770e+00	2.538787e+05	1.012300e+05	2.880466e+02	1.064997e-01	-1.339395e-01	0.000000e+00	
1.102564e+00	4.746835e-02	1.224269e+00	4.390099e+01	6.374770e+00	2.538787e+05	1.012300e+05	2.880466e+02	1.064997e-01	-1.339395e-01	0.000000e+00	
1.102564e+00	1.582278e-02	1.224269e+00	4.390099e+01	6.374770e+00	2.538787e+05	1.012300e+05	2.880466e+02	1.064997e-01	-1.339395e-01	0.000000e+00	
1.102564e+00	-1.582278e-02	1.224269e+00	4.390099e+01	6.374770e+00	2.538787e+05	1.012300e+05	2.880466e+02	1.064997e-01	-1.339395e-01	0.000000e+00	
1.102564e+00	-4.746835e-02	1.224269e+00	4.390099e+01	6.374770e+00	2.538787e+05	1.012300e+05	2.880466e+02	1.064997e-01	-1.339395e-01	0.000000e+00	
1.102564e+00	-7.911392e-02	1.224269e+00	4.390099e+01	6.374770e+00	2.538787e+05	1.012300e+05	2.880466e+02	1.064997e-01	-1.339395e-01	0.000000e+00	
1.102564e+00	-1.107595e-01	1.224269e+00	4.390099e+01	6.374770e+00	2.538787e+05	1.012300e+05	2.880466e+02	1.064997e-01	-1.339395e-01	0.000000e+00	
1.102564e+00	-1.424051e-01	1.224269e+00	4.390099e+01	6.374770e+00	2.538787e+05	1.012300e+05	2.880466e+02	1.064997e-01	-1.339395e-01	0.000000e+00	
1.102564e+00	-1.740506e-01	1.224269e+00	4.390099e+01	6.374770e+00	2.538787e+05	1.012300e+05	2.880466e+02	1.064997e-01	-1.339395e-01	0.000000e+00	