VARIABLES = "x"
 "y"
 "Density"
 "Momentum_x"
 "Momentum_y"
 "Energy"
 "Pressure"
 "Temperature"
 "Mach"
 "C<sub>p</sub>"
 "Roe_Dissipation"
ZONE
DT=(DOUBLE,DOUBLE,DOUBLE,DOUBLE,DOUBLE,DOUBLE,DOUBLE,DOUBLE,DOUBLE,DOUBLE,DOUBLE)
                     -2                       0        1.22441399097443        43.9009895324707    -6.8498861097166E-12                  253904           101246.796875        288.060211181641       0.105379298329353       -0.11027529835701                       0 
      -1.99749874937469                       0        1.22441399097443        43.9009895324707   -1.47651008762786E-12                  253904           101246.796875        288.060211181641       0.105379298329353      -0.110275303444575                       0 
      -1.99499749874937                       0        1.22441399097443        43.9009895324707    3.89686593446135E-12                  253904           101246.796875        288.060211181641       0.105379298329353      -0.110275308532141                       0 
      -1.99249624812406                       0        1.22441399097443        43.9009895324707    9.27024195655009E-12                  253904           101246.796875        288.060211181641       0.105379298329353      -0.110275313619706                       0 
      -1.98999499749875                       0        1.22441399097443        43.9009895324707    1.46436179786388E-11                  253904           101246.796875        288.060211181641       0.105379298329353      -0.110275318707271                       0 
      -1.98749374687344                       0        1.22441399097443        43.9009895324707    2.00169940007276E-11                  253904           101246.796875        288.060211181641       0.105379298329353      -0.110275323794837                       0 
      -1.98499249624812                       0        1.22441399097443        43.9009895324707    2.53903700228168E-11                  253904           101246.796875        288.060211181641       0.105379298329353      -0.110275328882402                       0 
      -1.98249124562281                       0        1.22441399097443        43.9009895324707    3.07637460449055E-11                  253904           101246.796875        288.060211181641       0.105379298329353      -0.110275333969967                       0 
       -1.9799899949975                       0        1.22441399097443        43.9009895324707    3.61371220669942E-11                  253904           101246.796875        288.060211181641       0.105379298329353      -0.110275339057533                       0 
      -1.97748874437219                       0        1.22441399097443        43.9009895324707    4.15104980890834E-11                  253904           101246.796875        288.060211181641       0.105379298329353      -0.110275344145098                       0 
      -1.97498749374687                       0        1.22441399097443        43.9009895324707    4.68838741111722E-11                  253904           101246.796875        288.060211181641       0.105379298329353      -0.110275349232663                       0 
      -1.97248624312156                       0        1.22441399097443        43.9009895324707    5.22572501332609E-11                  253904           101246.796875        288.060211181641       0.105379298329353      -0.110275354320229                       0 
      -1.96998499249625                       0        1.22441399097443        43.9009895324707    5.76306261553501E-11                  253904           101246.796875        288.060211181641       0.105379298329353      -0.110275359407794                       0 
      -1.96748374187094                       0        1.22441399097443        43.9009895324707    6.30040021774389E-11                  253904           101246.796875        288.060211181641       0.105379298329353      -0.110275364495359                       0 
      -1.96498249124562                       0        1.22441399097443        43.9009895324707    6.83773781995276E-11                  253904           101246.796875        288.060211181641       0.105379298329353      -0.110275369582925                       0 
      -1.96248124062031                       0        1.22441399097443        43.9009895324707    7.37507542216163E-11                  253904           101246.796875        288.060211181641       0.105379298329353       -0.11027537467049                       0 
        -1.959979989995                       0        1.22441399097443        43.9009895324707    7.91241302437056E-11                  253904           101246.796875        288.060211181641       0.105379298329353      -0.110275379758055                       0 
      -1.95747873936968                       0        1.22441399097443        43.9009895324707    8.44975062657943E-11                  253904           101246.796875        288.060211181641       0.105379298329353      -0.110275384845621                       0 
      -1.95497748874437                       0        1.22441399097443        43.9009895324707     8.9870882287883E-11                  253904           101246.796875        288.060211181641       0.105379298329353      -0.110275389933186                       0 
      -1.95247623811906                       0        1.22441399097443        43.9009895324707    9.52442583099722E-11                  253904           101246.796875        288.060211181641       0.105379298329353      -0.110275395020751                       0 
      -1.94997498749375                       0        1.22441399097443        43.9009895324707    1.00617634332061E-10                  253904           101246.796875        288.060211181641       0.105379298329353      -0.110275400108317                       0 
      -1.94747373686843                       0        1.22441399097443        43.9009895324707    1.06011425411892E-10                  253904           101246.796875        288.060211181641       0.105379298329353      -0.110275402665138                       0 
      -1.94497248624312                       0        1.22441399097443        43.9009895324707    1.11425841913154E-10                  253904           101246.796875        288.060211181641       0.105379298329353      -0.110275402665138                       0 
      -1.94247123561781                       0        1.22441399097443        43.9009895324707    1.16840258414415E-10                  253904           101246.796875        288.060211181641       0.105379298329353      -0.110275402665138                       0 
       -1.9399699849925                       0        1.22441399097443        43.9009895324707    1.22254674915677E-10                  253904           101246.796875        288.060211181641       0.105379298329353      -0.110275402665138                       0 
      -1.93746873436718                       0        1.22441399097443        43.9009895324707    1.27669091416939E-10                  253904           101246.796875        288.060211181641       0.105379298329353      -0.110275402665138                       0 
      -1.93496748374187                       0        1.22441399097443        43.9009895324707    1.33083507918201E-10                  253904           101246.796875        288.060211181641       0.105379298329353      -0.110275402665138                       0 
      -1.93246623311656                       0        1.22441399097443        43.9009895324707    1.38497924419462E-10                  253904           101246.796875        288.060211181641       0.105379298329353      -0.110275402665138                       0 
      -1.92996498249125                       0        1.22441399097443        43.9009895324707    1.43912340920724E-10                  253904           101246.796875        288.060211181641       0.105379298329353      -0.110275402665138                       0 
      -1.92746373186593                       0        1.22441399097443        43.9009895324707    1.49326757421986E-10                  253904           101246.796875        288.060211181641       0.105379298329353      -0.110275402665138                       0 
      -1.92496248124062                       0        1.22441399097443        43.9009895324707    1.54741173923248E-10                  253904           101246.796875        288.060211181641       0.105379298329353      -0.110275402665138                       0 
      -1.92246123061531                       0        1.22441399097443        43.9009895324707    1.60155590424509E-10                  253904           101246.796875        288.060211181641       0.105379298329353      -0.110275402665138                       0 
      -1.91995997998999                       0        1.22441399097443        43.9009895324707    1.65570006925771E-10                  253904           101246.796875        288.060211181641       0.105379298329353      -0.110275402665138                       0 
      -1.91745872936468                       0        1.22441399097443        43.9009895324707    1.70984423427033E-10                  253904           101246.796875        288.060211181641       0.105379298329353      -0.110275402665138                       0 
      -1.91495747873937                       0        1.22441399097443        43.9009895324707    1.76398839928294E-10                  253904           101246.796875        288.060211181641       0.105379298329353      -0.110275402665138                       0 
      -1.91245622811406                       0        1.22441399097443        43.9009895324707    1.81813256429556E-10                  253904           101246.796875        288.060211181641       0.105379298329353      -0.110275402665138                       0 
      -1.90995497748874                       0        1.22441399097443        43.9009895324707    1.87227672930818E-10                  253904           101246.796875        288.060211181641       0.105379298329353      -0.110275402665138                       0 
      -1.90745372686343                       0        1.22441399097443        43.9009895324707     1.9264208943208E-10                  253904           101246.796875        288.060211181641       0.105379298329353      -0.110275402665138                       0 
      -1.90495247623812                       0        1.22441399097443        43.9009895324707    1.98056505933341E-10                  253904           101246.796875        288.060211181641       0.105379298329353      -0.110275402665138                       0 
      -1.90245122561281                       0        1.22441399097443        43.9009895324707    2.03470922434603E-10                  253904           101246.796875        288.060211181641       0.105379298329353      -0.110275402665138                       0 
      -1.89994997498749                       0        1.22441399097443        43.9009895324707    2.08885338935865E-10                  253904           101246.796875        288.060211181641       0.105379298329353      -0.110275402665138                       0 
      -1.89744872436218                       0        1.22441399097443        43.9009895324707    2.14299755437127E-10                  253904           101246.796875        288.060211181641       0.105379298329353      -0.110275402665138                       0 
      -1.89494747373687                       0        1.22441399097443        43.9009895324707    2.19478144621687E-10                  253904           101246.796875        288.060211181641       0.105379298329353      -0.110275402665138                       0 
      -1.89244622311156                       0        1.22441399097443        43.9009895324707    2.24655329118129E-10                  253904           101246.796875        288.060211181641       0.105379298329353      -0.110275402665138                       0 
      -1.88994497248624                       0        1.22441399097443        43.9009895324707    2.29832513614571E-10                  253904           101246.796875        288.060211181641       0.105379298329353      -0.110275402665138                       0 
      -1.88744372186093                       0        1.22441399097443        43.9009895324707    2.35009698111013E-10                  253904           101246.796875        288.060211181641       0.105379298329353      -0.110275402665138                       0 
      -1.88494247123562                       0        1.22441399097443        43.9009895324707    2.40186882607455E-10                  253904           101246.796875        288.060211181641       0.105379298329353      -0.110275402665138                       0 
      -1.88244122061031                       0        1.22441399097443        43.9009895324707    2.45364067103897E-10                  253904           101246.796875        288.060211181641       0.105379298329353      -0.110275402665138                       0 
      -1.87993996998499                       0        1.22441399097443        43.9009895324707    2.50541251600339E-10                  253904           101246.796875        288.060211181641       0.105379298329353      -0.110275402665138                       0 
      -1.87743871935968                       0        1.22441399097443        43.9009895324707    2.55718436096781E-10                  253904           101246.796875        288.060211181641       0.105379298329353      -0.110275402665138                       0 
      -1.87493746873437                       0        1.22441399097443        43.9009895324707    2.60895620593223E-10                  253904           101246.796875        288.060211181641       0.105379298329353      -0.110275402665138                       0 
      -1.87243621810905                       0        1.22441399097443        43.9009895324707    2.66072805089665E-10                  253904           101246.796875        288.060211181641       0.105379298329353      -0.110275402665138                       0 
      -1.86993496748374                       0        1.22441399097443        43.9009895324707    2.71249989586107E-10                  253904           101246.796875        288.060211181641       0.105379298329353      -0.110275402665138                       0 
      -1.86743371685843                       0        1.22441399097443        43.9009895324707    2.76427174082549E-10                  253904           101246.796875        288.060211181641       0.105379298329353      -0.110275402665138                       0 
      -1.86493246623312                       0        1.22441399097443        43.9009895324707    2.81604358578991E-10                  253904           101246.796875        288.060211181641       0.105379298329353      -0.110275402665138                       0 
       -1.8624312156078                       0        1.22441399097443        43.9009895324707    2.86781543075433E-10                  253904           101246.796875        288.060211181641       0.105379298329353      -0.110275402665138                       0 
      -1.85992996498249                       0        1.22441399097443        43.9009895324707    2.91958727571875E-10                  253904           101246.796875        288.060211181641       0.105379298329353      -0.110275402665138                       0 
      -1.85742871435718                       0        1.22441399097443        43.9009895324707    2.97135912068317E-10                  253904           101246.796875        288.060211181641       0.105379298329353      -0.110275402665138                       0 
      -1.85492746373187                       0        1.22441399097443        43.9009895324707    3.02313096564759E-10                  253904           101246.796875        288.060211181641       0.105379298329353      -0.110275402665138                       0 
      -1.85242621310655                       0        1.22441399097443        43.9009895324707    3.07490281061201E-10                  253904           101246.796875        288.060211181641       0.105379298329353      -0.110275402665138                       0 
      -1.84992496248124                       0        1.22441399097443        43.9009895324707    3.12667465557643E-10                  253904           101246.796875        288.060211181641       0.105379298329353      -0.110275402665138                       0 
      -1.84742371185593                       0        1.22441399097443        43.9009895324707    3.17844650054085E-10                  253904           101246.796875        288.060211181641       0.105379298329353      -0.110275402665138                       0 
      -1.84492246123062                       0        1.22441399097443        43.9009895324707    3.22966880741971E-10                  253904           101246.796875        288.060211181641       0.105379298329353      -0.110275402665138                       0 
       -1.8424212106053                       0        1.22441399097443        43.9009895324707    3.28032451951137E-10                  253904           101246.796875        288.060211181641       0.105379298329353      -0.110275402665138                       0 
      -1.83991995997999                       0        1.22441399097443        43.9009895324707    3.33098023160303E-10                  253904           101246.796875        288.060211181641       0.105379298329353      -0.110275402665138                       0 
      -1.83741870935468                       0        1.22441399097443        43.9009895324707    3.38163594369468E-10                  253904           101246.796875        288.060211181641       0.105379298329353      -0.110275402665138                       0 
      -1.83491745872936                       0        1.22441399097443        43.9009895324707    3.43229165578633E-10                  253904           101246.796875        288.060211181641       0.105379298329353      -0.110275402665138                       0 
      -1.83241620810405                       0        1.22441399097443        43.9009895324707    3.48294736787799E-10                  253904           101246.796875        288.060211181641       0.105379298329353      -0.110275402665138                       0 
      -1.82991495747874                       0        1.22441399097443        43.9009895324707    3.53360307996964E-10                  253904           101246.796875        288.060211181641       0.105379298329353      -0.110275402665138                       0 
      -1.82741370685343                       0        1.22441399097443        43.9009895324707     3.5842587920613E-10                  253904           101246.796875        288.060211181641       0.105379298329353      -0.110275402665138                       0 
      -1.82491245622811                       0        1.22441399097443        43.9009895324707    3.63491450415295E-10                  253904           101246.796875        288.060211181641       0.105379298329353      -0.110275402665138                       0 
       -1.8224112056028                       0        1.22441399097443        43.9009895324707     3.6855702162446E-10                  253904           101246.796875        288.060211181641       0.105379298329353      -0.110275402665138                       0 
      -1.81990995497749                       0        1.22441399097443        43.9009895324707    3.73622592833626E-10                  253904           101246.796875        288.060211181641       0.105379298329353      -0.110275402665138                       0 
      -1.81740870435218                       0        1.22441399097443        43.9009895324707    3.78688164042791E-10                  253904           101246.796875        288.060211181641       0.105379298329353      -0.110275402665138                       0 
      -1.81490745372686                       0        1.22441399097443        43.9009895324707    3.83753735251957E-10                  253904           101246.796875        288.060211181641       0.105379298329353      -0.110275402665138                       0 
      -1.81240620310155                       0        1.22441399097443        43.9009895324707    3.88819306461122E-10                  253904           101246.796875        288.060211181641       0.105379298329353      -0.110275402665138                       0 
      -1.80990495247624                       0        1.22441399097443        43.9009895324707    3.93884877670288E-10                  253904           101246.796875        288.060211181641       0.105379298329353      -0.110275402665138                       0 
      -1.80740370185093                       0        1.22441399097443        43.9009895324707    3.98950448879453E-10                  253904           101246.796875        288.060211181641       0.105379298329353      -0.110275402665138                       0 
      -1.80490245122561                       0        1.22441399097443        43.9009895324707    4.04016020088618E-10                  253904           101246.796875        288.060211181641       0.105379298329353      -0.110275402665138                       0 
       -1.8024012006003                       0        1.22441399097443        43.9009895324707    4.09081591297784E-10                  253904           101246.796875        288.060211181641       0.105379298329353      -0.110275402665138                       0 
      -1.79989994997499                       0        1.22441399097443        43.9009895324707    4.14147162506949E-10                  253904           101246.796875        288.060211181641       0.105379298329353      -0.110275402665138                       0 
      -1.79739869934967                       0        1.22441399097443        43.9009895324707    4.19212733716115E-10                  253904           101246.796875        288.060211181641       0.105379298329353      -0.110275402665138                       0 
      -1.79489744872436                       0        1.22441399097443        43.9009895324707     4.2427830492528E-10                  253904           101246.796875        288.060211181641       0.105379298329353      -0.110275402665138                       0 
      -1.79239619809905                       0        1.22441399097443        43.9009895324707    4.29395998323321E-10                  253904           101246.796875        288.060211181641       0.105379298329353      -0.110275402665138                       0 
      -1.78989494747374                       0        1.22441399097443        43.9009895324707    4.34514226516344E-10                  253904           101246.796875        288.060211181641       0.105379298329353      -0.110275402665138                       0 
      -1.78739369684842                       0        1.22441399097443        43.9009895324707    4.39632454709367E-10                  253904           101246.796875        288.060211181641       0.105379298329353      -0.110275402665138                       0 
      -1.78489244622311                       0        1.22441399097443        43.9009895324707    4.44750682902389E-10                  253904           101246.796875        288.060211181641       0.105379298329353      -0.110275402665138                       0 
       -1.7823911955978                       0        1.22441399097443        43.9009895324707    4.49868911095411E-10                  253904           101246.796875        288.060211181641       0.105379298329353      -0.110275402665138                       0 
      -1.77988994497249                       0        1.22441399097443        43.9009895324707    4.54987139288434E-10                  253904           101246.796875        288.060211181641       0.105379298329353      -0.110275402665138                       0 
      -1.77738869434717                       0        1.22441399097443        43.9009895324707    4.60105367481457E-10                  253904           101246.796875        288.060211181641       0.105379298329353      -0.110275402665138                       0 
      -1.77488744372186                       0        1.22441399097443        43.9009895324707    4.65223595674479E-10                  253904           101246.796875        288.060211181641       0.105379298329353      -0.110275402665138                       0 
      -1.77238619309655                       0        1.22441399097443        43.9009895324707    4.70341823867501E-10                  253904           101246.796875        288.060211181641       0.105379298329353      -0.110275402665138                       0 
      -1.76988494247124                       0        1.22441399097443        43.9009895324707    4.75460052060524E-10                  253904           101246.796875        288.060211181641       0.105379298329353      -0.110275402665138                       0 
      -1.76738369184592                       0        1.22441399097443        43.9009895324707    4.80578280253547E-10                  253904           101246.796875        288.060211181641       0.105379298329353      -0.110275402665138                       0 
      -1.76488244122061                       0        1.22441399097443        43.9009895324707    4.85696508446569E-10                  253904           101246.796875        288.060211181641       0.105379298329353      -0.110275402665138                       0 
       -1.7623811905953                       0        1.22441399097443        43.9009895324707    4.90814736639591E-10                  253904           101246.796875        288.060211181641       0.105379298329353      -0.110275402665138                       0 
      -1.75987993996998                       0        1.22441399097443        43.9009895324707    4.95932964832614E-10                  253904           101246.796875        288.060211181641       0.105379298329353      -0.110275402665138                       0 
      -1.75737868934467                       0        1.22441399097443        43.9009895324707    5.01051193025637E-10                  253904           101246.796875        288.060211181641       0.105379298329353      -0.110275402665138                       0 
      -1.75487743871936                       0        1.22441399097443        43.9009895324707    5.06169421218659E-10                  253904           101246.796875        288.060211181641       0.105379298329353      -0.110275402665138                       0 
      -1.75237618809405                       0        1.22441399097443        43.9009895324707    5.11287649411682E-10                  253904           101246.796875        288.060211181641       0.105379298329353      -0.110275402665138                       0 
      -1.74987493746873                       0        1.22441399097443        43.9009895324707    5.16405877604704E-10                  253904           101246.796875        288.060211181641       0.105379298329353      -0.110275402665138                       0 
      -1.74737368684342                       0        1.22441399097443        43.9009895324707    5.21524105797727E-10                  253904           101246.796875        288.060211181641       0.105379298329353      -0.110275402665138                       0 
      -1.74487243621811                       0        1.22441399097443        43.9009895324707    5.26642333990749E-10                  253904           101246.796875        288.060211181641       0.105379298329353      -0.110275402665138                       0 
       -1.7423711855928                       0        1.22441399097443        43.9009895324707    5.31864987013666E-10                  253904           101246.796875        288.060211181641       0.105379298329353      -0.110275402665138                       0 
      -1.73986993496748                       0        1.22441399097443        43.9009895324707    5.37197516293014E-10                  253904           101246.796875        288.060211181641       0.105379298329353      -0.110275402665138                       0 
      -1.73736868434217                       0        1.22441399097443        43.9009895324707    5.42530045572362E-10                  253904           101246.796875        288.060211181641       0.105379298329353      -0.110275402665138                       0 
      -1.73486743371686                       0        1.22441399097443        43.9009895324707    5.47862574851709E-10                  253904           101246.796875        288.060211181641       0.105379298329353      -0.110275402665138                       0 
      -1.73236618309155                       0        1.22441399097443        43.9009895324707    5.53195104131057E-10                  253904           101246.796875        288.060211181641       0.105379298329353      -0.110275402665138                       0 
      -1.72986493246623                       0        1.22441399097443        43.9009895324707    5.58527633410404E-10                  253904           101246.796875        288.060211181641       0.105379298329353      -0.110275402665138                       0 
      -1.72736368184092                       0        1.22441399097443        43.9009895324707    5.63860162689751E-10                  253904           101246.796875        288.060211181641       0.105379298329353      -0.110275402665138                       0 
      -1.72486243121561                       0        1.22441399097443        43.9009895324707    5.69192691969099E-10                  253904           101246.796875        288.060211181641       0.105379298329353      -0.110275402665138                       0 
       -1.7223611805903                       0        1.22441399097443        43.9009895324707    5.74525221248447E-10                  253904           101246.796875        288.060211181641       0.105379298329353      -0.110275402665138                       0 