VARIABLES = "x"
 "y"
 "Density"
 "Momentum_x"
 "Momentum_y"
 "Energy"
 "Pressure"
 "Temperature"
 "Mach"
 "C<sub>p</sub>"
 "Roe_Dissipation"
ZONE
DT=(DOUBLE,DOUBLE,DOUBLE,DOUBLE,DOUBLE,DOUBLE,DOUBLE,DOUBLE,DOUBLE,DOUBLE,DOUBLE)
                     -2                    -0.6        1.22441399097443        43.9009895324707   -9.89667900034525E-12                  253904           101246.796875        288.060211181641       0.105379298329353       -0.11027529835701                       0 
      -1.99749874937469                    -0.6        1.22441399097443        43.9009895324707    3.05501345100183E-12                  253904           101246.796875        288.060211181641       0.105379298329353      -0.110275303444575                       0 
      -1.99499749874937                    -0.6        1.22441399097443        43.9009895324707    1.60067059023501E-11                  253904           101246.796875        288.060211181641       0.105379298329353      -0.110275308532141                       0 
      -1.99249624812406                    -0.6        1.22441399097443        43.9009895324707    2.89583983536971E-11                  253904           101246.796875        288.060211181641       0.105379298329353      -0.110275313619706                       0 
      -1.98999499749875                    -0.6        1.22441399097443        43.9009895324707    4.19100908050442E-11                  253904           101246.796875        288.060211181641       0.105379298329353      -0.110275318707271                       0 
      -1.98749374687344                    -0.6        1.22441399097443        43.9009895324707    5.48617832563913E-11                  253904           101246.796875        288.060211181641       0.105379298329353      -0.110275323794837                       0 
      -1.98499249624812                    -0.6        1.22441399097443        43.9009895324707    6.78134757077396E-11                  253904           101246.796875        288.060211181641       0.105379298329353      -0.110275328882402                       0 
      -1.98249124562281                    -0.6        1.22441399097443        43.9009895324707    8.07651681590866E-11                  253904           101246.796875        288.060211181641       0.105379298329353      -0.110275333969967                       0 
       -1.9799899949975                    -0.6        1.22441399097443        43.9009895324707    9.37168606104337E-11                  253904           101246.796875        288.060211181641       0.105379298329353      -0.110275339057533                       0 
      -1.97748874437219                    -0.6        1.22441399097443        43.9009895324707    1.06668553061782E-10                  253904           101246.796875        288.060211181641       0.105379298329353      -0.110275344145098                       0 
      -1.97498749374687                    -0.6        1.22441399097443        43.9009895324707    1.19477764822492E-10                  253904           101246.796875        288.060211181641       0.105379298329353      -0.110275349232663                       0 
      -1.97248624312156                    -0.6        1.22441399097443        43.9009895324707    1.32178971375545E-10                  253904           101246.796875        288.060211181641       0.105379298329353      -0.110275354320229                       0 
      -1.96998499249625                    -0.6        1.22441399097443        43.9009895324707    1.45112784119975E-10                  253904           101246.796875        288.060211181641       0.105379298329353      -0.110275359407794                       0 
      -1.96748374187094                    -0.6        1.22441399097443        43.9009895324707    1.58064476571322E-10                  253904           101246.796875        288.060211181641       0.105379298329353      -0.110275364495359                       0 
      -1.96498249124562                    -0.6        1.22441399097443        43.9009895324707    1.71016169022669E-10                  253904           101246.796875        288.060211181641       0.105379298329353      -0.110275369582925                       0 
      -1.96248124062031                    -0.6        1.22441399097443        43.9009895324707    1.83967861474016E-10                  253904           101246.796875        288.060211181641       0.105379298329353       -0.11027537467049                       0 
        -1.959979989995                    -0.6        1.22441399097443        43.9009895324707    1.96919553925364E-10                  253904           101246.796875        288.060211181641       0.105379298329353      -0.110275379758055                       0 
      -1.95747873936968                    -0.6        1.22441399097443        43.9009895324707    2.09871246376711E-10                  253904           101246.796875        288.060211181641       0.105379298329353      -0.110275384845621                       0 
      -1.95497748874437                    -0.6        1.22441399097443        43.9009895324707    2.22822938828058E-10                  253904           101246.796875        288.060211181641       0.105379298329353      -0.110275389933186                       0 
      -1.95247623811906                    -0.6        1.22441399097443        43.9009895324707    2.35774631279407E-10                  253904           101246.796875        288.060211181641       0.105379298329353      -0.110275395020751                       0 
      -1.94997498749375                    -0.6        1.22441399097443        43.9009895324707    2.48726323730754E-10                  253904           101246.796875        288.060211181641       0.105379298329353      -0.110275400108317                       0 
      -1.94747373686843                    -0.6        1.22441399097443        43.9009895324707    2.61522886411678E-10                  253904           101246.796875        288.060211181641       0.105379298329353      -0.110275402665138                       0 
      -1.94497248624312                    -0.6        1.22441399097443        43.9009895324707    2.74162720812336E-10                  253904           101246.796875        288.060211181641       0.105379298329353      -0.110275402665138                       0 
      -1.94247123561781                    -0.6        1.22441399097443        43.9009895324707    2.86802555212994E-10                  253904           101246.796875        288.060211181641       0.105379298329353      -0.110275402665138                       0 
       -1.9399699849925                    -0.6        1.22441399097443        43.9009895324707    2.99442389613651E-10                  253904           101246.796875        288.060211181641       0.105379298329353      -0.110275402665138                       0 
      -1.93746873436718                    -0.6        1.22441399097443        43.9009895324707    3.12082224014309E-10                  253904           101246.796875        288.060211181641       0.105379298329353      -0.110275402665138                       0 
      -1.93496748374187                    -0.6        1.22441399097443        43.9009895324707    3.24722058414967E-10                  253904           101246.796875        288.060211181641       0.105379298329353      -0.110275402665138                       0 
      -1.93246623311656                    -0.6        1.22441399097443        43.9009895324707    3.37361892815625E-10                  253904           101246.796875        288.060211181641       0.105379298329353      -0.110275402665138                       0 
      -1.92996498249125                    -0.6        1.22441399097443        43.9009895324707    3.50001727216282E-10                  253904           101246.796875        288.060211181641       0.105379298329353      -0.110275402665138                       0 
      -1.92746373186593                    -0.6        1.22441399097443        43.9009895324707    3.62641561616941E-10                  253904           101246.796875        288.060211181641       0.105379298329353      -0.110275402665138                       0 
      -1.92496248124062                    -0.6        1.22441399097443        43.9009895324707    3.75266575306454E-10                  253904           101246.796875        288.060211181641       0.105379298329353      -0.110275402665138                       0 
      -1.92246123061531                    -0.6        1.22441399097443        43.9009895324707    3.87682789485243E-10                  253904           101246.796875        288.060211181641       0.105379298329353      -0.110275402665138                       0 
      -1.91995997998999                    -0.6        1.22441399097443        43.9009895324707    4.00194284385805E-10                  253904           101246.796875        288.060211181641       0.105379298329353      -0.110275402665138                       0 
      -1.91745872936468                    -0.6        1.22441399097443        43.9009895324707    4.12834118786463E-10                  253904           101246.796875        288.060211181641       0.105379298329353      -0.110275402665138                       0 
      -1.91495747873937                    -0.6        1.22441399097443        43.9009895324707     4.2547395318712E-10                  253904           101246.796875        288.060211181641       0.105379298329353      -0.110275402665138                       0 
      -1.91245622811406                    -0.6        1.22441399097443        43.9009895324707    4.38113787587778E-10                  253904           101246.796875        288.060211181641       0.105379298329353      -0.110275402665138                       0 
      -1.90995497748874                    -0.6        1.22441399097443        43.9009895324707    4.50753621988436E-10                  253904           101246.796875        288.060211181641       0.105379298329353      -0.110275402665138                       0 
      -1.90745372686343                    -0.6        1.22441399097443        43.9009895324707    4.63393456389094E-10                  253904           101246.796875        288.060211181641       0.105379298329353      -0.110275402665138                       0 
      -1.90495247623812                    -0.6        1.22441399097443        43.9009895324707    4.76033290789751E-10                  253904           101246.796875        288.060211181641       0.105379298329353      -0.110275402665138                       0 
      -1.90245122561281                    -0.6        1.22441399097443        43.9009895324707     4.8867312519041E-10                  253904           101246.796875        288.060211181641       0.105379298329353      -0.110275402665138                       0 
      -1.89994997498749                    -0.6        1.22441399097443        43.9009895324707    5.01312959591067E-10                  253904           101246.796875        288.060211181641       0.105379298329353      -0.110275402665138                       0 
      -1.89744872436218                    -0.6        1.22441399097443        43.9009895324707    5.13952793991725E-10                  253904           101246.796875        288.060211181641       0.105379298329353      -0.110275402665138                       0 
      -1.89494747373687                    -0.6        1.22441399097443        43.9009895324707    5.25998546683095E-10                  253904           101246.796875        288.060211181641       0.105379298329353      -0.110275402665138                       0 
      -1.89244622311156                    -0.6        1.22441399097443        43.9009895324707    5.38041267169605E-10                  253904           101246.796875        288.060211181641       0.105379298329353      -0.110275402665138                       0 
      -1.88994497248624                    -0.6        1.22441399097443        43.9009895324707    5.50083987656115E-10                  253904           101246.796875        288.060211181641       0.105379298329353      -0.110275402665138                       0 
      -1.88744372186093                    -0.6        1.22441399097443        43.9009895324707    5.62126708142625E-10                  253904           101246.796875        288.060211181641       0.105379298329353      -0.110275402665138                       0 
      -1.88494247123562                    -0.6        1.22441399097443        43.9009895324707    5.74169428629136E-10                  253904           101246.796875        288.060211181641       0.105379298329353      -0.110275402665138                       0 
      -1.88244122061031                    -0.6        1.22441399097443        43.9009895324707    5.86212149115646E-10                  253904           101246.796875        288.060211181641       0.105379298329353      -0.110275402665138                       0 
      -1.87993996998499                    -0.6        1.22441399097443        43.9009895324707    5.98254869602156E-10                  253904           101246.796875        288.060211181641       0.105379298329353      -0.110275402665138                       0 
      -1.87743871935968                    -0.6        1.22441399097443        43.9009895324707    6.10297590088666E-10                  253904           101246.796875        288.060211181641       0.105379298329353      -0.110275402665138                       0 
      -1.87493746873437                    -0.6        1.22441399097443        43.9009895324707    6.22340310575176E-10                  253904           101246.796875        288.060211181641       0.105379298329353      -0.110275402665138                       0 
      -1.87243621810905                    -0.6        1.22441399097443        43.9009895324707    6.34271891643117E-10                  253904           101246.796875        288.060211181641       0.105379298329353      -0.110275402665138                       0 
      -1.86993496748374                    -0.6        1.22441399097443        43.9009895324707    6.46117465229268E-10                  253904           101246.796875        288.060211181641       0.105379298329353      -0.110275402665138                       0 
      -1.86743371685843                    -0.6        1.22441399097443        43.9009895324707    6.58145112219633E-10                  253904           101246.796875        288.060211181641       0.105379298329353      -0.110275402665138                       0 
      -1.86493246623312                    -0.6        1.22441399097443        43.9009895324707    6.70187832706143E-10                  253904           101246.796875        288.060211181641       0.105379298329353      -0.110275402665138                       0 
       -1.8624312156078                    -0.6        1.22441399097443        43.9009895324707    6.82230553192653E-10                  253904           101246.796875        288.060211181641       0.105379298329353      -0.110275402665138                       0 
      -1.85992996498249                    -0.6        1.22441399097443        43.9009895324707    6.94273273679164E-10                  253904           101246.796875        288.060211181641       0.105379298329353      -0.110275402665138                       0 
      -1.85742871435718                    -0.6        1.22441399097443        43.9009895324707    7.06315994165674E-10                  253904           101246.796875        288.060211181641       0.105379298329353      -0.110275402665138                       0 
      -1.85492746373187                    -0.6        1.22441399097443        43.9009895324707    7.18358714652184E-10                  253904           101246.796875        288.060211181641       0.105379298329353      -0.110275402665138                       0 
      -1.85242621310655                    -0.6        1.22441399097443        43.9009895324707    7.30401435138695E-10                  253904           101246.796875        288.060211181641       0.105379298329353      -0.110275402665138                       0 
      -1.84992496248124                    -0.6        1.22441399097443        43.9009895324707    7.42444155625205E-10                  253904           101246.796875        288.060211181641       0.105379298329353      -0.110275402665138                       0 
      -1.84742371185593                    -0.6        1.22441399097443        43.9009895324707    7.54486876111714E-10                  253904           101246.796875        288.060211181641       0.105379298329353      -0.110275402665138                       0 
      -1.84492246123062                    -0.6        1.22441399097443        43.9009895324707    7.66173307763349E-10                  253904           101246.796875        288.060211181641       0.105379298329353      -0.110275402665138                       0 
       -1.8424212106053                    -0.6        1.22441399097443        43.9009895324707    7.77492391997422E-10                  253904           101246.796875        288.060211181641       0.105379298329353      -0.110275402665138                       0 
      -1.83991995997999                    -0.6        1.22441399097443        43.9009895324707    7.88811476231493E-10                  253904           101246.796875        288.060211181641       0.105379298329353      -0.110275402665138                       0 
      -1.83741870935468                    -0.6        1.22441399097443        43.9009895324707    8.00130560465565E-10                  253904           101246.796875        288.060211181641       0.105379298329353      -0.110275402665138                       0 
      -1.83491745872936                    -0.6        1.22441399097443        43.9009895324707    8.11449644699638E-10                  253904           101246.796875        288.060211181641       0.105379298329353      -0.110275402665138                       0 
      -1.83241620810405                    -0.6        1.22441399097443        43.9009895324707     8.2276872893371E-10                  253904           101246.796875        288.060211181641       0.105379298329353      -0.110275402665138                       0 
      -1.82991495747874                    -0.6        1.22441399097443        43.9009895324707    8.34087813167781E-10                  253904           101246.796875        288.060211181641       0.105379298329353      -0.110275402665138                       0 
      -1.82741370685343                    -0.6        1.22441399097443        43.9009895324707    8.45406897401854E-10                  253904           101246.796875        288.060211181641       0.105379298329353      -0.110275402665138                       0 
      -1.82491245622811                    -0.6        1.22441399097443        43.9009895324707    8.56725981635926E-10                  253904           101246.796875        288.060211181641       0.105379298329353      -0.110275402665138                       0 
       -1.8224112056028                    -0.6        1.22441399097443        43.9009895324707     8.6803575973277E-10                  253904           101246.796875        288.060211181641       0.105379298329353      -0.110275402665138                       0 
      -1.81990995497749                    -0.6        1.22441399097443        43.9009895324707    8.79202778317131E-10                  253904           101246.796875        288.060211181641       0.105379298329353      -0.110275402665138                       0 
      -1.81740870435218                    -0.6        1.22441399097443        43.9009895324707    8.90433817248773E-10                  253904           101246.796875        288.060211181641       0.105379298329353      -0.110275402665138                       0 
      -1.81490745372686                    -0.6        1.22441399097443        43.9009895324707    9.01752901482845E-10                  253904           101246.796875        288.060211181641       0.105379298329353      -0.110275402665138                       0 
      -1.81240620310155                    -0.6        1.22441399097443        43.9009895324707    9.13071985716917E-10                  253904           101246.796875        288.060211181641       0.105379298329353      -0.110275402665138                       0 
      -1.80990495247624                    -0.6        1.22441399097443        43.9009895324707     9.2439106995099E-10                  253904           101246.796875        288.060211181641       0.105379298329353      -0.110275402665138                       0 
      -1.80740370185093                    -0.6        1.22441399097443        43.9009895324707    9.35710154185061E-10                  253904           101246.796875        288.060211181641       0.105379298329353      -0.110275402665138                       0 
      -1.80490245122561                    -0.6        1.22441399097443        43.9009895324707    9.47029238419133E-10                  253904           101246.796875        288.060211181641       0.105379298329353      -0.110275402665138                       0 
       -1.8024012006003                    -0.6        1.22441399097443        43.9009895324707    9.58348322653206E-10                  253904           101246.796875        288.060211181641       0.105379298329353      -0.110275402665138                       0 
      -1.79989994997499                    -0.6        1.22441399097443        43.9009895324707    9.69667406887277E-10                  253904           101246.796875        288.060211181641       0.105379298329353      -0.110275402665138                       0 
      -1.79739869934967                    -0.6        1.22441399097443        43.9009895324707    9.80986491121349E-10                  253904           101246.796875        288.060211181641       0.105379298329353      -0.110275402665138                       0 
      -1.79489744872436                    -0.6        1.22441399097443        43.9009895324707    9.92305575355421E-10                  253904           101246.796875        288.060211181641       0.105379298329353      -0.110275402665138                       0 
      -1.79239619809905                    -0.6        1.22441399097443        43.9009895324707    1.00298333318634E-09                  253904           101246.796875        288.060211181641       0.105379298329353      -0.110275402665138                       0 
      -1.78989494747374                    -0.6        1.22441399097443        43.9009895324707    1.01365451074598E-09                  253904           101246.796875        288.060211181641       0.105379298329353      -0.110275402665138                       0 
      -1.78739369684842                    -0.6        1.22441399097443        43.9009895324707    1.02432568830563E-09                  253904           101246.796875        288.060211181641       0.105379298329353      -0.110275402665138                       0 
      -1.78489244622311                    -0.6        1.22441399097443        43.9009895324707    1.03499686586528E-09                  253904           101246.796875        288.060211181641       0.105379298329353      -0.110275402665138                       0 
       -1.7823911955978                    -0.6        1.22441399097443        43.9009895324707    1.04566804342492E-09                  253904           101246.796875        288.060211181641       0.105379298329353      -0.110275402665138                       0 
      -1.77988994497249                    -0.6        1.22441399097443        43.9009895324707    1.05633922098457E-09                  253904           101246.796875        288.060211181641       0.105379298329353      -0.110275402665138                       0 
      -1.77738869434717                    -0.6        1.22441399097443        43.9009895324707    1.06701039854422E-09                  253904           101246.796875        288.060211181641       0.105379298329353      -0.110275402665138                       0 
      -1.77488744372186                    -0.6        1.22441399097443        43.9009895324707    1.07768157610387E-09                  253904           101246.796875        288.060211181641       0.105379298329353      -0.110275402665138                       0 
      -1.77238619309655                    -0.6        1.22441399097443        43.9009895324707    1.08835275366351E-09                  253904           101246.796875        288.060211181641       0.105379298329353      -0.110275402665138                       0 
      -1.76988494247124                    -0.6        1.22441399097443        43.9009895324707    1.09896546821211E-09                  253904           101246.796875        288.060211181641       0.105379298329353      -0.110275402665138                       0 
      -1.76738369184592                    -0.6        1.22441399097443        43.9009895324707    1.10953199731787E-09                  253904           101246.796875        288.060211181641       0.105379298329353      -0.110275402665138                       0 
      -1.76488244122061                    -0.6        1.22441399097443        43.9009895324707    1.12019464223019E-09                  253904           101246.796875        288.060211181641       0.105379298329353      -0.110275402665138                       0 
       -1.7623811905953                    -0.6        1.22441399097443        43.9009895324707    1.13086581978984E-09                  253904           101246.796875        288.060211181641       0.105379298329353      -0.110275402665138                       0 
      -1.75987993996998                    -0.6        1.22441399097443        43.9009895324707    1.14153699734948E-09                  253904           101246.796875        288.060211181641       0.105379298329353      -0.110275402665138                       0 
      -1.75737868934467                    -0.6        1.22441399097443        43.9009895324707    1.15220817490913E-09                  253904           101246.796875        288.060211181641       0.105379298329353      -0.110275402665138                       0 
      -1.75487743871936                    -0.6        1.22441399097443        43.9009895324707    1.16287935246878E-09                  253904           101246.796875        288.060211181641       0.105379298329353      -0.110275402665138                       0 
      -1.75237618809405                    -0.6        1.22441399097443        43.9009895324707    1.17355053002842E-09                  253904           101246.796875        288.060211181641       0.105379298329353      -0.110275402665138                       0 
      -1.74987493746873                    -0.6        1.22441399097443        43.9009895324707    1.18422170758807E-09                  253904           101246.796875        288.060211181641       0.105379298329353      -0.110275402665138                       0 
      -1.74737368684342                    -0.6        1.22441399097443        43.9009895324707    1.19489288514772E-09                  253904           101246.796875        288.060211181641       0.105379298329353      -0.110275402665138                       0 
      -1.74487243621811                    -0.6        1.22441399097443        43.9009895324707    1.20556406270737E-09                  253904           101246.796875        288.060211181641       0.105379298329353      -0.110275402665138                       0 
       -1.7423711855928                    -0.6        1.22441399097443        43.9009895324707    1.21594049535405E-09                  253904           101246.796875        288.060211181641       0.105379298329353      -0.110275402665138                       0 
      -1.73986993496748                    -0.6        1.22441399097443        43.9009895324707    1.22600679613198E-09                  253904           101246.796875        288.060211181641       0.105379298329353      -0.110275402665138                       0 
      -1.73736868434217                    -0.6        1.22441399097443        43.9009895324707    1.23607309690992E-09                  253904           101246.796875        288.060211181641       0.105379298329353      -0.110275402665138                       0 
      -1.73486743371686                    -0.6        1.22441399097443        43.9009895324707    1.24613939768786E-09                  253904           101246.796875        288.060211181641       0.105379298329353      -0.110275402665138                       0 
      -1.73236618309155                    -0.6        1.22441399097443        43.9009895324707     1.2562056984658E-09                  253904           101246.796875        288.060211181641       0.105379298329353      -0.110275402665138                       0 
      -1.72986493246623                    -0.6        1.22441399097443        43.9009895324707    1.26627199924373E-09                  253904           101246.796875        288.060211181641       0.105379298329353      -0.110275402665138                       0 
      -1.72736368184092                    -0.6        1.22441399097443        43.9009895324707    1.27633830002167E-09                  253904           101246.796875        288.060211181641       0.105379298329353      -0.110275402665138                       0 
      -1.72486243121561                    -0.6        1.22441399097443        43.9009895324707    1.28640460079961E-09                  253904           101246.796875        288.060211181641       0.105379298329353      -0.110275402665138                       0 
       -1.7223611805903                    -0.6        1.22441399097443        43.9009895324707    1.29647090157754E-09                  253904           101246.796875        288.060211181641       0.105379298329353      -0.110275402665138                       0 