VARIABLES = "x"
 "y"
 "Density"
 "Momentum_x"
 "Momentum_y"
 "Energy"
 "Pressure"
 "Temperature"
 "Mach"
 "C<sub>p</sub>"
 "Roe_Dissipation"
ZONE
DT=(DOUBLE,DOUBLE,DOUBLE,DOUBLE,DOUBLE,DOUBLE,DOUBLE,DOUBLE,DOUBLE,DOUBLE,DOUBLE)
                     -1                    1.25        1.22441399097443        43.9009895324707   -5.68313943897008E-09                  253904           101246.796875        288.060211181641       0.105379298329353      -0.110275402665138                       0 
                     -1         1.2474974974975        1.22441399097443        43.9009895324707   -5.85957338701372E-09                  253904           101246.796875        288.060211181641       0.105379298329353      -0.110275402665138                       0 
                     -1        1.24499499499499        1.22441399097443        43.9009895324707   -6.03600733505737E-09                  253904           101246.796875        288.060211181641       0.105379298329353      -0.110275402665138                       0 
                     -1        1.24249249249249        1.22441399097443        43.9009895324707   -6.21244128310101E-09                  253904           101246.796875        288.060211181641       0.105379298329353      -0.110275402665138                       0 
                     -1        1.23998998998999        1.22441399097443        43.9009895324707   -6.38887523114466E-09                  253904           101246.796875        288.060211181641       0.105379298329353      -0.110275402665138                       0 
                     -1        1.23748748748749        1.22441399097443        43.9009895324707    -6.5653091791883E-09                  253904           101246.796875        288.060211181641       0.105379298329353      -0.110275402665138                       0 
                     -1        1.23498498498498        1.22441399097443        43.9009895324707   -6.74174312723195E-09                  253904           101246.796875        288.060211181641       0.105379298329353      -0.110275402665138                       0 
                     -1        1.23248248248248        1.22441399097443        43.9009895324707   -6.91817707761303E-09                  253904           101246.796875        288.060211181641       0.105379298329353      -0.110275402665138                       0 
                     -1        1.22997997997998        1.22441399097443        43.9009895324707   -7.09461102565667E-09                  253904           101246.796875        288.060211181641       0.105379298329353      -0.110275402665138                       0 
                     -1        1.22747747747748        1.22441399097443        43.9009895324707   -7.27104497370031E-09                  253904           101246.796875        288.060211181641       0.105379298329353      -0.110275402665138                       0 
                     -1        1.22497497497497        1.22441399097443        43.9009895324707   -7.44747892174396E-09                  253904           101246.796875        288.060211181641       0.105379298329353      -0.110275402665138                       0 
                     -1        1.22247247247247        1.22441399097443        43.9009895324707    -7.6239128697876E-09                  253904           101246.796875        288.060211181641       0.105379298329353      -0.110275402665138                       0 
                     -1        1.21996996996997        1.22441399097443        43.9009895324707   -7.80034681783125E-09                  253904           101246.796875        288.060211181641       0.105379298329353      -0.110275402665138                       0 
                     -1        1.21746746746747        1.22441399097443        43.9009895324707    -7.9625532246943E-09                  253904           101246.796875        288.060211181641       0.105379298329353      -0.110275402665138                       0 
                     -1        1.21496496496496        1.22441399097443        43.9009895324707   -8.09882509334777E-09                  253904           101246.796875        288.060211181641       0.105379298329353      -0.110275402665138                       0 
                     -1        1.21246246246246        1.22441399097443        43.9009895324707   -8.23509696200125E-09                  253904           101246.796875        288.060211181641       0.105379298329353      -0.110275402665138                       0 
                     -1        1.20995995995996        1.22441399097443        43.9009895324707   -8.37136883065472E-09                  253904           101246.796875        288.060211181641       0.105379298329353      -0.110275402665138                       0 
                     -1        1.20745745745746        1.22441399097443        43.9009895324707   -8.50764069930819E-09                  253904           101246.796875        288.060211181641       0.105379298329353      -0.110275402665138                       0 
                     -1        1.20495495495495        1.22441399097443        43.9009895324707   -8.64391256796166E-09                  253904           101246.796875        288.060211181641       0.105379298329353      -0.110275402665138                       0 
                     -1        1.20245245245245        1.22441399097443        43.9009895324707   -8.78018444001147E-09                  253904           101246.796875        288.060211181641       0.105379298329353      -0.110275402665138                       0 
                     -1        1.19994994994995        1.22441399097443        43.9009895324707   -8.91645630866494E-09                  253904           101246.796875        288.060211181641       0.105379298329353      -0.110275402665138                       0 
                     -1        1.19744744744745        1.22441399097443        43.9009895324707   -9.05272817731842E-09                  253904           101246.796875        288.060211181641       0.105379298329353      -0.110275402665138                       0 
                     -1        1.19494494494494        1.22441399097443        43.9009895324707   -9.18900004597189E-09                  253904           101246.796875        288.060211181641       0.105379298329353      -0.110275402665138                       0 
                     -1        1.19244244244244        1.22441399097443        43.9009895324707   -9.32527191462536E-09                  253904           101246.796875        288.060211181641       0.105379298329353      -0.110275402665138                       0 
                     -1        1.18993993993994        1.22441399097443        43.9009895324707   -9.46154378327883E-09                  253904           101246.796875        288.060211181641       0.105379298329353      -0.110275402665138                       0 
                     -1        1.18743743743744        1.22441399097443        43.9009895324707    -9.5978156519323E-09                  253904           101246.796875        288.060211181641       0.105379298329353      -0.110275402665138                       0 
                     -1        1.18493493493493        1.22441399097443        43.9009895324707   -9.70463805567281E-09                  253904           101246.796875        288.060211181641       0.105379298329353      -0.110275402665138                       0 
                     -1        1.18243243243243        1.22441399097443        43.9009895324707   -9.79936948980695E-09                  253904           101246.796875        288.060211181641       0.105379298329353      -0.110275402665138                       0 
                     -1        1.17992992992993        1.22441399097443        43.9009895324707   -9.89410092394109E-09                  253904           101246.796875        288.060211181641       0.105379298329353      -0.110275402665138                       0 
                     -1        1.17742742742743        1.22441399097443        43.9009895324707   -9.98883235807523E-09                  253904           101246.796875        288.060211181641       0.105379298329353      -0.110275402665138                       0 
                     -1        1.17492492492492        1.22441399097443        43.9009895324707   -1.00835637922094E-08                  253904           101246.796875        288.060211181641       0.105379298329353      -0.110275402665138                       0 
                     -1        1.17242242242242        1.22441399097443        43.9009895324707   -1.01782952263435E-08                  253904           101246.796875        288.060211181641       0.105379298329353      -0.110275402665138                       0 
                     -1        1.16991991991992        1.22441399097443        43.9009895324707   -1.02730266647551E-08                  253904           101246.796875        288.060211181641       0.105379298329353      -0.110275402665138                       0 
                     -1        1.16741741741742        1.22441399097443        43.9009895324707   -1.03677580988892E-08                  253904           101246.796875        288.060211181641       0.105379298329353      -0.110275402665138                       0 
                     -1        1.16491491491491        1.22441399097443        43.9009895324707   -1.04624895330234E-08                  253904           101246.796875        288.060211181641       0.105379298329353      -0.110275402665138                       0 
                     -1        1.16241241241241        1.22441399097443        43.9009895324707   -1.05572209671575E-08                  253904           101246.796875        288.060211181641       0.105379298329353      -0.110275402665138                       0 
                     -1        1.15990990990991        1.22441399097443        43.9009895324707   -1.06519524012916E-08                  253904           101246.796875        288.060211181641       0.105379298329353      -0.110275402665138                       0 
                     -1        1.15740740740741        1.22441399097443        43.9009895324707   -1.07466838354258E-08                  253904           101246.796875        288.060211181641       0.105379298329353      -0.110275402665138                       0 
                     -1         1.1549049049049        1.22441399097443        43.9009895324707   -1.08377807577481E-08                  253904           101246.796875        288.060211181641       0.105379298329353      -0.110275402665138                       0 
                     -1         1.1524024024024        1.22441399097443        43.9009895324707   -1.08749931980537E-08                  253904           101246.796875        288.060211181641       0.105379298329353      -0.110275402665138                       0 
                     -1         1.1498998998999        1.22441399097443        43.9009895324707   -1.09122056383594E-08                  253904           101246.796875        288.060211181641       0.105379298329353      -0.110275402665138                       0 
                     -1         1.1473973973974        1.22441399097443        43.9009895324707   -1.09494180786651E-08                  253904           101246.796875        288.060211181641       0.105379298329353      -0.110275402665138                       0 
                     -1        1.14489489489489        1.22441399097443        43.9009895324707   -1.09866305189708E-08                  253904           101246.796875        288.060211181641       0.105379298329353      -0.110275402665138                       0 
                     -1        1.14239239239239        1.22441399097443        43.9009895324707   -1.10238429592765E-08                  253904           101246.796875        288.060211181641       0.105379298329353      -0.110275402665138                       0 
                     -1        1.13988988988989        1.22441399097443        43.9009895324707   -1.10610553995822E-08                  253904           101246.796875        288.060211181641       0.105379298329353      -0.110275402665138                       0 
                     -1        1.13738738738739        1.22441399097443        43.9009895324707   -1.10982678454025E-08                  253904           101246.796875        288.060211181641       0.105379298329353      -0.110275402665138                       0 
                     -1        1.13488488488488        1.22441399097443        43.9009895324707   -1.11354802857082E-08                  253904           101246.796875        288.060211181641       0.105379298329353      -0.110275402665138                       0 
                     -1        1.13238238238238        1.22441399097443        43.9009895324707   -1.11726927260139E-08                  253904           101246.796875        288.060211181641       0.105379298329353      -0.110275402665138                       0 
                     -1        1.12987987987988        1.22441399097443        43.9009895324707   -1.12099051663196E-08                  253904           101246.796875        288.060211181641       0.105379298329353      -0.110275402665138                       0 
                     -1        1.12737737737738        1.22441399097443        43.9009895324707   -1.12471176066253E-08                  253904           101246.796875        288.060211181641       0.105379298329353      -0.110275402665138                       0 
                     -1        1.12487487487487        1.22441399097443        43.9009895324707    -1.1284330046931E-08                  253904           101246.796875        288.060211181641       0.105379298329353      -0.110275402665138                       0 
                     -1        1.12237237237237        1.22441399097443        43.9009895324707   -1.13032922508727E-08                  253904           101246.796875        288.060211181641       0.105379298329353      -0.110275402665138                       0 
                     -1        1.11986986986987        1.22441399097443        43.9009895324707   -1.12968252610754E-08                  253904           101246.796875        288.060211181641       0.105379298329353      -0.110275402665138                       0 
                     -1        1.11736736736737        1.22441399097443        43.9009895324707   -1.12903582712781E-08                  253904           101246.796875        288.060211181641       0.105379298329353      -0.110275402665138                       0 
                     -1        1.11486486486486        1.22441399097443        43.9009895324707   -1.12838912814809E-08                  253904           101246.796875        288.060211181641       0.105379298329353      -0.110275402665138                       0 
                     -1        1.11236236236236        1.22441399097443        43.9009895324707   -1.12774242916836E-08                  253904           101246.796875        288.060211181641       0.105379298329353      -0.110275402665138                       0 
                     -1        1.10985985985986        1.22441399097443        43.9009895324707   -1.12709573018864E-08                  253904           101246.796875        288.060211181641       0.105379298329353      -0.110275402665138                       0 
                     -1        1.10735735735736        1.22441399097443        43.9009895324707   -1.12644903242354E-08                  253904           101246.796875        288.060211181641       0.105379298329353      -0.110275402665138                       0 
                     -1        1.10485485485485        1.22441399097443        43.9009895324707   -1.12580233344381E-08                  253904           101246.796875        288.060211181641       0.105379298329353      -0.110275402665138                       0 
                     -1        1.10235235235235        1.22441399097443        43.9009895324707   -1.12515563446409E-08                  253904           101246.796875        288.060211181641       0.105379298329353      -0.110275402665138                       0 
                     -1        1.09984984984985        1.22441399097443        43.9009895324707   -1.12450893548436E-08                  253904           101246.796875        288.060211181641       0.105379298329353      -0.110275402665138                       0 
                     -1        1.09734734734735        1.22441399097443        43.9009895324707   -1.12386223650464E-08                  253904           101246.796875        288.060211181641       0.105379298329353      -0.110275402665138                       0 
                     -1        1.09484484484484        1.22441399097443        43.9009895324707   -1.12321553752491E-08                  253904           101246.796875        288.060211181641       0.105379298329353      -0.110275402665138                       0 
                     -1        1.09234234234234        1.22441399097443        43.9009895324707   -1.12256883854518E-08                  253904           101246.796875        288.060211181641       0.105379298329353      -0.110275402665138                       0 
                     -1        1.08983983983984        1.22441399097443        43.9009895324707   -1.11929856775095E-08                  253904           101246.796875        288.060211181641       0.105379298329353      -0.110275402665138                       0 
                     -1        1.08733733733734        1.22441399097443        43.9009895324707    -1.1152537912146E-08                  253904           101246.796875        288.060211181641       0.105379298329353      -0.110275402665138                       0 
                     -1        1.08483483483483        1.22441399097443        43.9009895324707   -1.11120901467825E-08                  253904           101246.796875        288.060211181641       0.105379298329353      -0.110275402665138                       0 
                     -1        1.08233233233233        1.22441399097443        43.9009895324707    -1.1071642381419E-08                  253904           101246.796875        288.060211181641       0.105379298329353      -0.110275402665138                       0 
                     -1        1.07982982982983        1.22441399097443        43.9009895324707   -1.10311946160555E-08                  253904           101246.796875        288.060211181641       0.105379298329353      -0.110275402665138                       0 
                     -1        1.07732732732733        1.22441399097443        43.9009895324707    -1.0990746850692E-08                  253904           101246.796875        288.060211181641       0.105379298329353      -0.110275402665138                       0 
                     -1        1.07482482482482        1.22441399097443        43.9009895324707   -1.09502991074754E-08                  253904           101246.796875        288.060211181641       0.105379298329353      -0.110275402665138                       0 
                     -1        1.07232232232232        1.22441399097443        43.9009895324707   -1.09098513421119E-08                  253904           101246.796875        288.060211181641       0.105379298329353      -0.110275402665138                       0 
                     -1        1.06981981981982        1.22441399097443        43.9009895324707   -1.08694035767484E-08                  253904           101246.796875        288.060211181641       0.105379298329353      -0.110275402665138                       0 
                     -1        1.06731731731732        1.22441399097443        43.9009895324707   -1.08289558113849E-08                  253904           101246.796875        288.060211181641       0.105379298329353      -0.110275402665138                       0 
                     -1        1.06481481481481        1.22441399097443        43.9009895324707   -1.07885080460214E-08                  253904           101246.796875        288.060211181641       0.105379298329353      -0.110275402665138                       0 
                     -1        1.06231231231231        1.22441399097443        43.9009895324707   -1.07480602806579E-08                  253904           101246.796875        288.060211181641       0.105379298329353      -0.110275402665138                       0 
                     -1        1.05980980980981        1.22441399097443        43.9009895324707    -1.0705699319161E-08                  253904           101246.796875        288.060211181641       0.105379298329353      -0.110275402665138                       0 
                     -1        1.05730730730731        1.22441399097443        43.9009895324707   -1.06501581550432E-08                  253904           101246.796875        288.060211181641       0.105379298329353      -0.110275402665138                       0 
                     -1         1.0548048048048        1.22441399097443        43.9009895324707   -1.05946169909254E-08                  253904           101246.796875        288.060211181641       0.105379298329353      -0.110275402665138                       0 
                     -1         1.0523023023023        1.22441399097443        43.9009895324707   -1.05390758268076E-08                  253904           101246.796875        288.060211181641       0.105379298329353      -0.110275402665138                       0 
                     -1         1.0497997997998        1.22441399097443        43.9009895324707   -1.04835346626898E-08                  253904           101246.796875        288.060211181641       0.105379298329353      -0.110275402665138                       0 
                     -1         1.0472972972973        1.22441399097443        43.9009895324707    -1.0427993498572E-08                  253904           101246.796875        288.060211181641       0.105379298329353      -0.110275402665138                       0 
                     -1        1.04479479479479        1.22441399097443        43.9009895324707   -1.03724523344542E-08                  253904           101246.796875        288.060211181641       0.105379298329353      -0.110275402665138                       0 
                     -1        1.04229229229229        1.22441399097443        43.9009895324707   -1.03169112044273E-08                  253904           101246.796875        288.060211181641       0.105379298329353      -0.110275402665138                       0 
                     -1        1.03978978978979        1.22441399097443        43.9009895324707   -1.02613700403095E-08                  253904           101246.796875        288.060211181641       0.105379298329353      -0.110275402665138                       0 
                     -1        1.03728728728729        1.22441399097443        43.9009895324707   -1.02058288761917E-08                  253904           101246.796875        288.060211181641       0.105379298329353      -0.110275402665138                       0 
                     -1        1.03478478478478        1.22441399097443        43.9009895324707   -1.01502877120739E-08                  253904           101246.796875        288.060211181641       0.105379298329353      -0.110275402665138                       0 
                     -1        1.03228228228228        1.22441399097443        43.9009895324707   -1.00947465479561E-08                  253904           101246.796875        288.060211181641       0.105379298329353      -0.110275402665138                       0 
                     -1        1.02977977977978        1.22441399097443        43.9009895324707   -1.00392053838383E-08                  253904           101246.796875        288.060211181641       0.105379298329353      -0.110275402665138                       0 
                     -1        1.02727727727728        1.22441399097443        43.9009895324707   -9.98149600912015E-09                  253904           101246.796875        288.060211181641       0.105379298329353      -0.110275402665138                       0 
                     -1        1.02477477477477        1.22441399097443        43.9009895324707   -9.92144722667794E-09                  253904           101246.796875        288.060211181641       0.105379298329353      -0.110275402665138                       0 
                     -1        1.02227227227227        1.22441399097443        43.9009895324707   -9.86139844423573E-09                  253904           101246.796875        288.060211181641       0.105379298329353      -0.110275402665138                       0 
                     -1        1.01976976976977        1.22441399097443        43.9009895324707   -9.80134966179352E-09                  253904           101246.796875        288.060211181641       0.105379298329353      -0.110275402665138                       0 
                     -1        1.01726726726727        1.22441399097443        43.9009895324707   -9.74130087935131E-09                  253904           101246.796875        288.060211181641       0.105379298329353      -0.110275402665138                       0 
                     -1        1.01476476476476        1.22441399097443        43.9009895324707    -9.6812520969091E-09                  253904           101246.796875        288.060211181641       0.105379298329353      -0.110275402665138                       0 
                     -1        1.01226226226226        1.22441399097443        43.9009895324707   -9.62120335810213E-09                  253904           101246.796875        288.060211181641       0.105379298329353      -0.110275402665138                       0 
                     -1        1.00975975975976        1.22441399097443        43.9009895324707   -9.56115457565993E-09                  253904           101246.796875        288.060211181641       0.105379298329353      -0.110275402665138                       0 
                     -1        1.00725725725726        1.22441399097443        43.9009895324707   -9.50110579321772E-09                  253904           101246.796875        288.060211181641       0.105379298329353      -0.110275402665138                       0 
                     -1        1.00475475475475        1.22441399097443        43.9009895324707   -9.44105701077551E-09                  253904           101246.796875        288.060211181641       0.105379298329353      -0.110275402665138                       0 
                     -1        1.00225225225225        1.22441399097443        43.9009895324707    -9.3810082283333E-09                  253904           101246.796875        288.060211181641       0.105379298329353      -0.110275402665138                       0 
                     -1        0.99974974974975        1.22441399097443        43.9009895324707   -9.32095944589108E-09                  253904           101246.796875        288.060211181641       0.105379298329353      -0.110275402665138                       0 
                     -1       0.997247247247247        1.22441399097443        43.9009895324707   -9.26091066344888E-09                  253904           101246.796875        288.060211181641       0.105379298329353      -0.110275402665138                       0 
                     -1       0.994744744744745        1.22441399097443        43.9009895324707   -9.20406065483983E-09                  253904           101246.796875        288.060211181641       0.105379298329353      -0.110275402665138                       0 
                     -1       0.992242242242242        1.22441399097443        43.9009895324707   -9.14784076715939E-09                  253904           101246.796875        288.060211181641       0.105379298329353      -0.110275402665138                       0 
                     -1        0.98973973973974        1.22441399097443        43.9009895324707   -9.09162087947895E-09                  253904           101246.796875        288.060211181641       0.105379298329353      -0.110275402665138                       0 
                     -1       0.987237237237237        1.22441399097443        43.9009895324707   -9.03540099179851E-09                  253904           101246.796875        288.060211181641       0.105379298329353      -0.110275402665138                       0 
                     -1       0.984734734734735        1.22441399097443        43.9009895324707   -8.97918110411807E-09                  253904           101246.796875        288.060211181641       0.105379298329353      -0.110275402665138                       0 
                     -1       0.982232232232232        1.22441399097443        43.9009895324707   -8.92296121643763E-09                  253904           101246.796875        288.060211181641       0.105379298329353      -0.110275402665138                       0 
                     -1        0.97972972972973        1.22441399097443        43.9009895324707   -8.86674137795563E-09                  253904           101246.796875        288.060211181641       0.105379298329353      -0.110275402665138                       0 
                     -1       0.977227227227227        1.22441399097443        43.9009895324707   -8.81052149027519E-09                  253904           101246.796875        288.060211181641       0.105379298329353      -0.110275402665138                       0 
                     -1       0.974724724724725        1.22441399097443        43.9009895324707   -8.75430160259475E-09                  253904           101246.796875        288.060211181641       0.105379298329353      -0.110275402665138                       0 
                     -1       0.972222222222222        1.22441399097443        43.9009895324707   -8.69808171491431E-09                  253904           101246.796875        288.060211181641       0.105379298329353      -0.110275402665138                       0 