TITLE = "Visualization of the volumetric solution"
VARIABLES = "x","y","Density","Momentum_x","Momentum_y","Energy","Pressure","Temperature","Mach","C<sub>p</sub>","Roe_Dissipation"
ZONE NODES= 1720, ELEMENTS= 3288, DATAPACKING=POINT, ZONETYPE=FEQUADRILATERAL
1.040621e+00	-1.209117e+00	1.269255e+00	4.942726e+01	-7.399552e+01	2.693926e+05	1.065093e+05	2.923270e+02	2.045437e-01	7.309315e+00	0.000000e+00	
1.000000e+00	-1.190476e+00	1.269263e+00	4.942367e+01	-7.399994e+01	2.693939e+05	1.065098e+05	2.923265e+02	2.045465e-01	7.309996e+00	0.000000e+00	
1.049910e+00	-1.157894e+00	1.269251e+00	4.942032e+01	-7.399560e+01	2.693917e+05	1.065090e+05	2.923272e+02	2.045356e-01	7.308930e+00	0.000000e+00	
1.093743e+00	-1.191849e+00	1.269251e+00	4.942601e+01	-7.398938e+01	2.693912e+05	1.065089e+05	2.923268e+02	2.045311e-01	7.308738e+00	0.000000e+00	
1.000000e+00	-1.130952e+00	1.269254e+00	4.941521e+01	-7.400272e+01	2.693926e+05	1.065093e+05	2.923274e+02	2.045422e-01	7.309341e+00	0.000000e+00	
1.095476e+00	-1.132804e+00	1.269249e+00	4.941682e+01	-7.398816e+01	2.693897e+05	1.065085e+05	2.923261e+02	2.045176e-01	7.308168e+00	0.000000e+00	
1.048314e+00	-1.101041e+00	1.269248e+00	4.941289e+01	-7.399632e+01	2.693905e+05	1.065087e+05	2.923269e+02	2.045281e-01	7.308430e+00	0.000000e+00	
1.144982e+00	-1.160302e+00	1.269253e+00	4.941939e+01	-7.398106e+01	2.693890e+05	1.065083e+05	2.923249e+02	2.045072e-01	7.307921e+00	0.000000e+00	
1.000000e+00	-1.071429e+00	1.269247e+00	4.940818e+01	-7.400541e+01	2.693912e+05	1.065088e+05	2.923276e+02	2.045394e-01	7.308638e+00	0.000000e+00	
1.148009e+00	-1.206784e+00	1.269247e+00	4.942641e+01	-7.398244e+01	2.693891e+05	1.065082e+05	2.923261e+02	2.045194e-01	7.307810e+00	0.000000e+00	
1.095648e+00	-1.071244e+00	1.269252e+00	4.940954e+01	-7.398741e+01	2.693885e+05	1.065082e+05	2.923247e+02	2.045070e-01	7.307684e+00	0.000000e+00	
1.145729e+00	-1.102380e+00	1.269257e+00	4.941185e+01	-7.397852e+01	2.693878e+05	1.065080e+05	2.923232e+02	2.044927e-01	7.307496e+00	0.000000e+00	
1.049733e+00	-1.041321e+00	1.269247e+00	4.940629e+01	-7.399693e+01	2.693891e+05	1.065082e+05	2.923259e+02	2.045214e-01	7.307740e+00	0.000000e+00	
1.192761e+00	-1.192577e+00	1.269255e+00	4.942119e+01	-7.397487e+01	2.693882e+05	1.065081e+05	2.923239e+02	2.044977e-01	7.307673e+00	0.000000e+00	
1.195107e+00	-1.133762e+00	1.269262e+00	4.941326e+01	-7.397053e+01	2.693870e+05	1.065079e+05	2.923216e+02	2.044790e-01	7.307301e+00	0.000000e+00	
1.000000e+00	-1.011905e+00	1.269242e+00	4.940262e+01	-7.400756e+01	2.693896e+05	1.065082e+05	2.923269e+02	2.045374e-01	7.307749e+00	0.000000e+00	
1.094413e+00	-1.012480e+00	1.269255e+00	4.940317e+01	-7.398659e+01	2.693871e+05	1.065077e+05	2.923226e+02	2.044975e-01	7.307024e+00	0.000000e+00	
1.144800e+00	-1.042146e+00	1.269262e+00	4.940478e+01	-7.397628e+01	2.693865e+05	1.065077e+05	2.923210e+02	2.044793e-01	7.307016e+00	0.000000e+00	
1.194807e+00	-1.073419e+00	1.269268e+00	4.940589e+01	-7.396698e+01	2.693858e+05	1.065076e+05	2.923195e+02	2.044625e-01	7.306935e+00	0.000000e+00	
1.046483e+00	-9.824203e-01	1.269249e+00	4.940108e+01	-7.399761e+01	2.693877e+05	1.065077e+05	2.923241e+02	2.045164e-01	7.307030e+00	0.000000e+00	
1.243114e+00	-1.166395e+00	1.269265e+00	4.941420e+01	-7.396308e+01	2.693862e+05	1.065077e+05	2.923204e+02	2.044658e-01	7.307090e+00	0.000000e+00	
1.243982e+00	-1.104797e+00	1.269273e+00	4.940629e+01	-7.395862e+01	2.693852e+05	1.065075e+05	2.923181e+02	2.044467e-01	7.306825e+00	0.000000e+00	
1.000000e+00	-9.523810e-01	1.269242e+00	4.939861e+01	-7.400910e+01	2.693881e+05	1.065076e+05	2.923255e+02	2.045358e-01	7.306943e+00	0.000000e+00	
1.143063e+00	-9.807371e-01	1.269267e+00	4.939875e+01	-7.397428e+01	2.693851e+05	1.065073e+05	2.923187e+02	2.044677e-01	7.306451e+00	0.000000e+00	
1.092059e+00	-9.503938e-01	1.269260e+00	4.939801e+01	-7.398575e+01	2.693857e+05	1.065072e+05	2.923203e+02	2.044893e-01	7.306402e+00	0.000000e+00	
1.193442e+00	-1.011838e+00	1.269273e+00	4.939928e+01	-7.396377e+01	2.693846e+05	1.065073e+05	2.923175e+02	2.044478e-01	7.306477e+00	0.000000e+00	
1.243532e+00	-1.043138e+00	1.269276e+00	4.939949e+01	-7.395447e+01	2.693840e+05	1.065073e+05	2.923166e+02	2.044301e-01	7.306441e+00	0.000000e+00	
1.045466e+00	-9.241753e-01	1.269252e+00	4.939710e+01	-7.399772e+01	2.693862e+05	1.065072e+05	2.923219e+02	2.045118e-01	7.306267e+00	0.000000e+00	
1.292216e+00	-1.195962e+00	1.269272e+00	4.941485e+01	-7.395573e+01	2.693859e+05	1.065078e+05	2.923188e+02	2.044519e-01	7.307130e+00	0.000000e+00	
1.293053e+00	-1.132219e+00	1.269275e+00	4.940607e+01	-7.395031e+01	2.693843e+05	1.065074e+05	2.923172e+02	2.044305e-01	7.306616e+00	0.000000e+00	
1.293488e+00	-1.073063e+00	1.269277e+00	4.939927e+01	-7.394619e+01	2.693834e+05	1.065072e+05	2.923163e+02	2.044140e-01	7.306384e+00	0.000000e+00	
1.000000e+00	-8.928571e-01	1.269243e+00	4.939567e+01	-7.400990e+01	2.693863e+05	1.065069e+05	2.923232e+02	2.045341e-01	7.305974e+00	0.000000e+00	
1.139604e+00	-9.191736e-01	1.269270e+00	4.939382e+01	-7.397239e+01	2.693837e+05	1.065068e+05	2.923168e+02	2.044580e-01	7.305836e+00	0.000000e+00	
1.191101e+00	-9.499658e-01	1.269274e+00	4.939379e+01	-7.396108e+01	2.693832e+05	1.065069e+05	2.923161e+02	2.044359e-01	7.305925e+00	0.000000e+00	
1.086165e+00	-8.914965e-01	1.269263e+00	4.939396e+01	-7.398538e+01	2.693842e+05	1.065067e+05	2.923181e+02	2.044837e-01	7.305652e+00	0.000000e+00	
1.242086e+00	-9.812383e-01	1.269275e+00	4.939373e+01	-7.395121e+01	2.693828e+05	1.065070e+05	2.923160e+02	2.044169e-01	7.306012e+00	0.000000e+00	
1.292812e+00	-1.012013e+00	1.269273e+00	4.939373e+01	-7.394277e+01	2.693823e+05	1.065070e+05	2.923166e+02	2.044009e-01	7.306023e+00	0.000000e+00	
1.036811e+00	-8.675911e-01	1.269253e+00	4.939449e+01	-7.399881e+01	2.693846e+05	1.065066e+05	2.923199e+02	2.045110e-01	7.305430e+00	0.000000e+00	
1.341812e+00	-1.209973e+00	1.269274e+00	4.941198e+01	-7.394831e+01	2.693843e+05	1.065074e+05	2.923173e+02	2.044343e-01	7.306552e+00	0.000000e+00	
1.346003e+00	-1.158948e+00	1.269275e+00	4.940542e+01	-7.394275e+01	2.693834e+05	1.065072e+05	2.923168e+02	2.044154e-01	7.306390e+00	0.000000e+00	
1.344501e+00	-1.101571e+00	1.269274e+00	4.939877e+01	-7.393884e+01	2.693828e+05	1.065072e+05	2.923167e+02	2.043995e-01	7.306303e+00	0.000000e+00	
1.343694e+00	-1.041833e+00	1.269266e+00	4.939368e+01	-7.393558e+01	2.693818e+05	1.065069e+05	2.923180e+02	2.043877e-01	7.305971e+00	0.000000e+00	
1.000000e+00	-8.333333e-01	1.269248e+00	4.939357e+01	-7.401078e+01	2.693847e+05	1.065063e+05	2.923204e+02	2.045333e-01	7.305098e+00	0.000000e+00	
1.135849e+00	-8.580295e-01	1.269271e+00	4.939016e+01	-7.397096e+01	2.693824e+05	1.065064e+05	2.923154e+02	2.044509e-01	7.305215e+00	0.000000e+00	
1.188203e+00	-8.888722e-01	1.269272e+00	4.938973e+01	-7.395893e+01	2.693820e+05	1.065065e+05	2.923155e+02	2.044272e-01	7.305387e+00	0.000000e+00	
1.240135e+00	-9.198651e-01	1.269270e+00	4.938944e+01	-7.394893e+01	2.693817e+05	1.065066e+05	2.923164e+02	2.044078e-01	7.305534e+00	0.000000e+00	
1.060587e+00	-8.131532e-01	1.269262e+00	4.939144e+01	-7.398941e+01	2.693825e+05	1.065060e+05	2.923163e+02	2.044890e-01	7.304632e+00	0.000000e+00	
1.291525e+00	-9.506591e-01	1.269263e+00	4.938951e+01	-7.394064e+01	2.693814e+05	1.065067e+05	2.923181e+02	2.043925e-01	7.305623e+00	0.000000e+00	
1.342746e+00	-9.809885e-01	1.269253e+00	4.938996e+01	-7.393403e+01	2.693811e+05	1.065067e+05	2.923205e+02	2.043813e-01	7.305679e+00	0.000000e+00	
1.396074e+00	-1.192578e+00	1.269274e+00	4.940538e+01	-7.393723e+01	2.693833e+05	1.065073e+05	2.923171e+02	2.044047e-01	7.306509e+00	0.000000e+00	
1.395764e+00	-1.131440e+00	1.269267e+00	4.939823e+01	-7.393217e+01	2.693821e+05	1.065070e+05	2.923180e+02	2.043868e-01	7.306106e+00	0.000000e+00	
1.394808e+00	-1.071143e+00	1.269257e+00	4.939384e+01	-7.392992e+01	2.693815e+05	1.065069e+05	2.923202e+02	2.043778e-01	7.305966e+00	0.000000e+00	
1.393992e+00	-1.010751e+00	1.269240e+00	4.939076e+01	-7.392895e+01	2.693809e+05	1.065067e+05	2.923235e+02	2.043736e-01	7.305668e+00	0.000000e+00	
1.000000e+00	-7.738095e-01	1.269252e+00	4.939252e+01	-7.401005e+01	2.693828e+05	1.065056e+05	2.923175e+02	2.045310e-01	7.304061e+00	0.000000e+00	
1.136070e+00	-7.973420e-01	1.269267e+00	4.938793e+01	-7.396845e+01	2.693807e+05	1.065058e+05	2.923147e+02	2.044442e-01	7.304352e+00	0.000000e+00	
1.187499e+00	-8.298549e-01	1.269265e+00	4.938706e+01	-7.395703e+01	2.693808e+05	1.065061e+05	2.923160e+02	2.044211e-01	7.304808e+00	0.000000e+00	
1.238805e+00	-8.599060e-01	1.269258e+00	4.938684e+01	-7.394755e+01	2.693806e+05	1.065063e+05	2.923180e+02	2.044031e-01	7.305020e+00	0.000000e+00	
1.290245e+00	-8.900452e-01	1.269248e+00	4.938707e+01	-7.393988e+01	2.693805e+05	1.065064e+05	2.923207e+02	2.043895e-01	7.305198e+00	0.000000e+00	
1.341669e+00	-9.201922e-01	1.269234e+00	4.938789e+01	-7.393397e+01	2.693804e+05	1.065065e+05	2.923240e+02	2.043802e-01	7.305303e+00	0.000000e+00	
1.393077e+00	-9.501287e-01	1.269219e+00	4.938931e+01	-7.392985e+01	2.693804e+05	1.065065e+05	2.923278e+02	2.043754e-01	7.305379e+00	0.000000e+00	
1.043305e+00	-7.483473e-01	1.269263e+00	4.939058e+01	-7.399282e+01	2.693811e+05	1.065054e+05	2.923145e+02	2.044950e-01	7.303747e+00	0.000000e+00	
1.446081e+00	-1.157621e+00	1.269257e+00	4.939817e+01	-7.392702e+01	2.693817e+05	1.065070e+05	2.923203e+02	2.043777e-01	7.306064e+00	0.000000e+00	
1.450844e+00	-1.210365e+00	1.269266e+00	4.940251e+01	-7.392932e+01	2.693820e+05	1.065070e+05	2.923183e+02	2.043870e-01	7.306047e+00	0.000000e+00	
1.445809e+00	-1.099210e+00	1.269243e+00	4.939413e+01	-7.392545e+01	2.693811e+05	1.065069e+05	2.923231e+02	2.043709e-01	7.305848e+00	0.000000e+00	
1.091832e+00	-7.665481e-01	1.269268e+00	4.938899e+01	-7.397852e+01	2.693807e+05	1.065056e+05	2.923139e+02	2.044650e-01	7.304029e+00	0.000000e+00	
1.445317e+00	-1.039826e+00	1.269224e+00	4.939205e+01	-7.392557e+01	2.693807e+05	1.065067e+05	2.923271e+02	2.043701e-01	7.305663e+00	0.000000e+00	
1.444508e+00	-9.797257e-01	1.269201e+00	4.939129e+01	-7.392739e+01	2.693804e+05	1.065065e+05	2.923318e+02	2.043746e-01	7.305406e+00	0.000000e+00	
1.000000e+00	-7.142857e-01	1.269255e+00	4.939286e+01	-7.400808e+01	2.693809e+05	1.065049e+05	2.923149e+02	2.045281e-01	7.303066e+00	0.000000e+00	
1.188570e+00	-7.715395e-01	1.269252e+00	4.938626e+01	-7.395586e+01	2.693797e+05	1.065057e+05	2.923178e+02	2.044193e-01	7.304241e+00	0.000000e+00	
1.141157e+00	-7.415263e-01	1.269258e+00	4.938746e+01	-7.396582e+01	2.693795e+05	1.065054e+05	2.923156e+02	2.044397e-01	7.303806e+00	0.000000e+00	
1.238579e+00	-8.011049e-01	1.269242e+00	4.938603e+01	-7.394721e+01	2.693797e+05	1.065059e+05	2.923208e+02	2.044031e-01	7.304514e+00	0.000000e+00	
1.289445e+00	-8.304909e-01	1.269228e+00	4.938646e+01	-7.394045e+01	2.693798e+05	1.065061e+05	2.923245e+02	2.043917e-01	7.304755e+00	0.000000e+00	
1.340723e+00	-8.600896e-01	1.269212e+00	4.938769e+01	-7.393555e+01	2.693799e+05	1.065062e+05	2.923285e+02	2.043851e-01	7.304928e+00	0.000000e+00	
1.392142e+00	-8.897883e-01	1.269195e+00	4.938962e+01	-7.393244e+01	2.693800e+05	1.065063e+05	2.923327e+02	2.043829e-01	7.305052e+00	0.000000e+00	
1.443585e+00	-9.194397e-01	1.269177e+00	4.939224e+01	-7.393101e+01	2.693803e+05	1.065064e+05	2.923368e+02	2.043848e-01	7.305140e+00	0.000000e+00	
1.090456e+00	-7.145167e-01	1.269261e+00	4.938895e+01	-7.397751e+01	2.693796e+05	1.065052e+05	2.923142e+02	2.044639e-01	7.303451e+00	0.000000e+00	
1.039997e+00	-6.903901e-01	1.269260e+00	4.939101e+01	-7.399125e+01	2.693793e+05	1.065047e+05	2.923133e+02	2.044934e-01	7.302782e+00	0.000000e+00	
1.498196e+00	-1.126038e+00	1.269227e+00	4.939527e+01	-7.392260e+01	2.693810e+05	1.065068e+05	2.923268e+02	2.043682e-01	7.305821e+00	0.000000e+00	
1.510399e+00	-1.196264e+00	1.269242e+00	4.939827e+01	-7.392292e+01	2.693811e+05	1.065069e+05	2.923234e+02	2.043714e-01	7.305865e+00	0.000000e+00	
1.497132e+00	-1.068254e+00	1.269206e+00	4.939370e+01	-7.392359e+01	2.693806e+05	1.065067e+05	2.923312e+02	2.043699e-01	7.305601e+00	0.000000e+00	
1.496082e+00	-1.009007e+00	1.269184e+00	4.939387e+01	-7.392653e+01	2.693805e+05	1.065066e+05	2.923360e+02	2.043777e-01	7.305422e+00	0.000000e+00	
1.495030e+00	-9.489896e-01	1.269161e+00	4.939542e+01	-7.393107e+01	2.693805e+05	1.065064e+05	2.923408e+02	2.043903e-01	7.305190e+00	0.000000e+00	
1.000000e+00	-6.547619e-01	1.269255e+00	4.939463e+01	-7.400488e+01	2.693788e+05	1.065041e+05	2.923126e+02	2.045250e-01	7.301924e+00	0.000000e+00	
1.238355e+00	-7.426163e-01	1.269220e+00	4.938697e+01	-7.394797e+01	2.693789e+05	1.065055e+05	2.923248e+02	2.044079e-01	7.303981e+00	0.000000e+00	
1.188580e+00	-7.135674e-01	1.269233e+00	4.938724e+01	-7.395552e+01	2.693786e+05	1.065053e+05	2.923210e+02	2.044219e-01	7.303600e+00	0.000000e+00	
1.138284e+00	-6.855143e-01	1.269244e+00	4.938845e+01	-7.396506e+01	2.693784e+05	1.065049e+05	2.923177e+02	2.044411e-01	7.303133e+00	0.000000e+00	
1.288905e+00	-7.716261e-01	1.269204e+00	4.938765e+01	-7.394235e+01	2.693792e+05	1.065058e+05	2.923290e+02	2.043991e-01	7.304299e+00	0.000000e+00	
1.339977e+00	-8.007426e-01	1.269187e+00	4.938926e+01	-7.393859e+01	2.693795e+05	1.065059e+05	2.923334e+02	2.043951e-01	7.304531e+00	0.000000e+00	
1.391303e+00	-8.300433e-01	1.269170e+00	4.939168e+01	-7.393659e+01	2.693798e+05	1.065061e+05	2.923377e+02	2.043956e-01	7.304716e+00	0.000000e+00	
1.442698e+00	-8.594594e-01	1.269154e+00	4.939478e+01	-7.393615e+01	2.693802e+05	1.065061e+05	2.923416e+02	2.044000e-01	7.304849e+00	0.000000e+00	
1.494070e+00	-8.889202e-01	1.269139e+00	4.939844e+01	-7.393707e+01	2.693806e+05	1.065062e+05	2.923452e+02	2.044075e-01	7.304946e+00	0.000000e+00	
1.087729e+00	-6.605235e-01	1.269251e+00	4.939032e+01	-7.397714e+01	2.693781e+05	1.065045e+05	2.923148e+02	2.044664e-01	7.302540e+00	0.000000e+00	
1.036519e+00	-6.389016e-01	1.269256e+00	4.939256e+01	-7.398980e+01	2.693780e+05	1.065042e+05	2.923128e+02	2.044934e-01	7.302050e+00	0.000000e+00	
1.547027e+00	-1.151126e+00	1.269210e+00	4.939618e+01	-7.392097e+01	2.693806e+05	1.065067e+05	2.923303e+02	2.043677e-01	7.305607e+00	0.000000e+00	
1.549649e+00	-1.096695e+00	1.269189e+00	4.939618e+01	-7.392326e+01	2.693808e+05	1.065067e+05	2.923352e+02	2.043738e-01	7.305613e+00	0.000000e+00	
1.572311e+00	-1.200555e+00	1.269212e+00	4.939799e+01	-7.391982e+01	2.693807e+05	1.065068e+05	2.923300e+02	2.043676e-01	7.305705e+00	0.000000e+00	
1.547814e+00	-1.038373e+00	1.269166e+00	4.939698e+01	-7.392698e+01	2.693807e+05	1.065065e+05	2.923400e+02	2.043839e-01	7.305407e+00	0.000000e+00	
1.546431e+00	-9.785191e-01	1.269145e+00	4.939912e+01	-7.393241e+01	2.693808e+05	1.065064e+05	2.923444e+02	2.043988e-01	7.305220e+00	0.000000e+00	
1.545361e+00	-9.183948e-01	1.269127e+00	4.940252e+01	-7.393910e+01	2.693810e+05	1.065063e+05	2.923482e+02	2.044176e-01	7.305015e+00	0.000000e+00	
1.000000e+00	-5.952381e-01	1.269252e+00	4.939802e+01	-7.399911e+01	2.693768e+05	1.065034e+05	2.923114e+02	2.045192e-01	7.300914e+00	0.000000e+00	
1.236479e+00	-6.844404e-01	1.269196e+00	4.938965e+01	-7.395012e+01	2.693783e+05	1.065052e+05	2.923294e+02	2.044177e-01	7.303485e+00	0.000000e+00	
1.287827e+00	-7.131044e-01	1.269179e+00	4.939058e+01	-7.394562e+01	2.693788e+05	1.065054e+05	2.923339e+02	2.044114e-01	7.303856e+00	0.000000e+00	
1.184572e+00	-6.562751e-01	1.269212e+00	4.938979e+01	-7.395677e+01	2.693779e+05	1.065049e+05	2.923247e+02	2.044295e-01	7.303069e+00	0.000000e+00	
1.131451e+00	-6.297704e-01	1.269227e+00	4.939130e+01	-7.396612e+01	2.693774e+05	1.065044e+05	2.923202e+02	2.044486e-01	7.302455e+00	0.000000e+00	
1.339147e+00	-7.419103e-01	1.269162e+00	4.939253e+01	-7.394302e+01	2.693792e+05	1.065056e+05	2.923383e+02	2.044100e-01	7.304141e+00	0.000000e+00	
1.390516e+00	-7.708705e-01	1.269147e+00	4.939530e+01	-7.394207e+01	2.693797e+05	1.065058e+05	2.923424e+02	2.044129e-01	7.304374e+00	0.000000e+00	
1.441888e+00	-7.999823e-01	1.269133e+00	4.939875e+01	-7.394252e+01	2.693802e+05	1.065059e+05	2.923459e+02	2.044191e-01	7.304553e+00	0.000000e+00	
1.493214e+00	-8.292045e-01	1.269121e+00	4.940268e+01	-7.394413e+01	2.693808e+05	1.065060e+05	2.923489e+02	2.044280e-01	7.304691e+00	0.000000e+00	
1.544461e+00	-8.584941e-01	1.269112e+00	4.940695e+01	-7.394661e+01	2.693813e+05	1.065061e+05	2.923511e+02	2.044389e-01	7.304793e+00	0.000000e+00	
1.076336e+00	-6.075870e-01	1.269242e+00	4.939366e+01	-7.397869e+01	2.693775e+05	1.065042e+05	2.923160e+02	2.044747e-01	7.302064e+00	0.000000e+00	
1.600550e+00	-1.133089e+00	1.269175e+00	4.939889e+01	-7.392376e+01	2.693808e+05	1.065066e+05	2.923382e+02	2.043794e-01	7.305520e+00	0.000000e+00	
1.598755e+00	-1.069283e+00	1.269150e+00	4.940042e+01	-7.392858e+01	2.693809e+05	1.065065e+05	2.923436e+02	2.043927e-01	7.305350e+00	0.000000e+00	
1.634718e+00	-1.200848e+00	1.269179e+00	4.940012e+01	-7.392149e+01	2.693808e+05	1.065067e+05	2.923373e+02	2.043763e-01	7.305560e+00	0.000000e+00	
1.597484e+00	-1.008162e+00	1.269132e+00	4.940315e+01	-7.393486e+01	2.693812e+05	1.065064e+05	2.923475e+02	2.044097e-01	7.305236e+00	0.000000e+00	
1.596469e+00	-9.478281e-01	1.269117e+00	4.940685e+01	-7.394196e+01	2.693814e+05	1.065063e+05	2.923506e+02	2.044294e-01	7.305048e+00	0.000000e+00	
1.595591e+00	-8.877928e-01	1.269107e+00	4.941140e+01	-7.394977e+01	2.693818e+05	1.065062e+05	2.923526e+02	2.044510e-01	7.304871e+00	0.000000e+00	
1.069329e+00	-5.546983e-01	1.269226e+00	4.939807e+01	-7.397894e+01	2.693760e+05	1.065035e+05	2.923178e+02	2.044827e-01	7.301130e+00	0.000000e+00	
1.232605e+00	-6.269239e-01	1.269172e+00	4.939387e+01	-7.395324e+01	2.693778e+05	1.065048e+05	2.923338e+02	2.044313e-01	7.302985e+00	0.000000e+00	
1.285629e+00	-6.549535e-01	1.269155e+00	4.939507e+01	-7.394998e+01	2.693785e+05	1.065051e+05	2.923386e+02	2.044277e-01	7.303413e+00	0.000000e+00	
1.337846e+00	-6.834172e-01	1.269140e+00	4.939729e+01	-7.394853e+01	2.693791e+05	1.065054e+05	2.923429e+02	2.044288e-01	7.303755e+00	0.000000e+00	
1.178506e+00	-5.999571e-01	1.269191e+00	4.939386e+01	-7.395880e+01	2.693772e+05	1.065045e+05	2.923286e+02	2.044408e-01	7.302470e+00	0.000000e+00	
1.123578e+00	-5.753637e-01	1.269209e+00	4.939540e+01	-7.396706e+01	2.693765e+05	1.065040e+05	2.923231e+02	2.044575e-01	7.301838e+00	0.000000e+00	
1.389598e+00	-7.121037e-01	1.269126e+00	4.940029e+01	-7.394855e+01	2.693798e+05	1.065056e+05	2.923464e+02	2.044335e-01	7.304034e+00	0.000000e+00	
1.441092e+00	-7.409554e-01	1.269116e+00	4.940389e+01	-7.394973e+01	2.693804e+05	1.065057e+05	2.923493e+02	2.044411e-01	7.304255e+00	0.000000e+00	
1.492432e+00	-7.699347e-01	1.269108e+00	4.940789e+01	-7.395182e+01	2.693810e+05	1.065059e+05	2.923515e+02	2.044507e-01	7.304431e+00	0.000000e+00	
1.543664e+00	-7.990048e-01	1.269103e+00	4.941213e+01	-7.395457e+01	2.693816e+05	1.065059e+05	2.923529e+02	2.044617e-01	7.304570e+00	0.000000e+00	
1.594803e+00	-8.281254e-01	1.269101e+00	4.941646e+01	-7.395775e+01	2.693821e+05	1.065060e+05	2.923535e+02	2.044733e-01	7.304673e+00	0.000000e+00	
1.000000e+00	-5.357143e-01	1.269240e+00	4.940367e+01	-7.399431e+01	2.693749e+05	1.065026e+05	2.923121e+02	2.045189e-01	7.299897e+00	0.000000e+00	
1.648946e+00	-1.094829e+00	1.269136e+00	4.940440e+01	-7.393184e+01	2.693814e+05	1.065065e+05	2.923468e+02	2.044051e-01	7.305417e+00	0.000000e+00	
1.654747e+00	-1.149486e+00	1.269150e+00	4.940259e+01	-7.392700e+01	2.693809e+05	1.065065e+05	2.923437e+02	2.043924e-01	7.305379e+00	0.000000e+00	
1.648102e+00	-1.036534e+00	1.269120e+00	4.940736e+01	-7.393804e+01	2.693815e+05	1.065064e+05	2.923501e+02	2.044221e-01	7.305199e+00	0.000000e+00	
1.696459e+00	-1.196388e+00	1.269144e+00	4.940503e+01	-7.392790e+01	2.693810e+05	1.065065e+05	2.923449e+02	2.043977e-01	7.305362e+00	0.000000e+00	
1.647343e+00	-9.768803e-01	1.269110e+00	4.941135e+01	-7.394555e+01	2.693819e+05	1.065063e+05	2.923523e+02	2.044425e-01	7.305089e+00	0.000000e+00	
1.646583e+00	-9.169782e-01	1.269103e+00	4.941587e+01	-7.395333e+01	2.693823e+05	1.065062e+05	2.923535e+02	2.044638e-01	7.304918e+00	0.000000e+00	
1.645850e+00	-8.572406e-01	1.269102e+00	4.942075e+01	-7.396117e+01	2.693826e+05	1.065061e+05	2.923535e+02	2.044852e-01	7.304755e+00	0.000000e+00	
1.118466e+00	-5.207647e-01	1.269189e+00	4.940075e+01	-7.396814e+01	2.693759e+05	1.065036e+05	2.923268e+02	2.044684e-01	7.301297e+00	0.000000e+00	
1.067657e+00	-4.976080e-01	1.269206e+00	4.940429e+01	-7.397777e+01	2.693752e+05	1.065031e+05	2.923212e+02	2.044904e-01	7.300522e+00	0.000000e+00	
1.282527e+00	-5.972533e-01	1.269133e+00	4.940086e+01	-7.395514e+01	2.693783e+05	1.065048e+05	2.923428e+02	2.044470e-01	7.303007e+00	0.000000e+00	
1.227972e+00	-5.700864e-01	1.269150e+00	4.939942e+01	-7.395712e+01	2.693775e+05	1.065045e+05	2.923381e+02	2.044479e-01	7.302529e+00	0.000000e+00	
1.335955e+00	-6.252197e-01	1.269120e+00	4.940327e+01	-7.395479e+01	2.693791e+05	1.065051e+05	2.923467e+02	2.044502e-01	7.303391e+00	0.000000e+00	
1.388405e+00	-6.536085e-01	1.269110e+00	4.940636e+01	-7.395564e+01	2.693799e+05	1.065053e+05	2.923496e+02	2.044564e-01	7.303709e+00	0.000000e+00	
1.172776e+00	-5.443829e-01	1.269169e+00	4.939930e+01	-7.396127e+01	2.693767e+05	1.065041e+05	2.923326e+02	2.044545e-01	7.301966e+00	0.000000e+00	
1.440217e+00	-6.822398e-01	1.269103e+00	4.940992e+01	-7.395738e+01	2.693806e+05	1.065055e+05	2.923517e+02	2.044646e-01	7.303966e+00	0.000000e+00	
1.491668e+00	-7.110241e-01	1.269099e+00	4.941378e+01	-7.395975e+01	2.693813e+05	1.065057e+05	2.923530e+02	2.044742e-01	7.304176e+00	0.000000e+00	
1.542926e+00	-7.399089e-01	1.269098e+00	4.941778e+01	-7.396254e+01	2.693819e+05	1.065058e+05	2.923535e+02	2.044846e-01	7.304344e+00	0.000000e+00	
1.594075e+00	-7.688581e-01	1.269100e+00	4.942180e+01	-7.396556e+01	2.693824e+05	1.065059e+05	2.923533e+02	2.044953e-01	7.304479e+00	0.000000e+00	
1.645149e+00	-7.978403e-01	1.269105e+00	4.942572e+01	-7.396866e+01	2.693829e+05	1.065060e+05	2.923525e+02	2.045058e-01	7.304583e+00	0.000000e+00	
1.000000e+00	-4.761905e-01	1.269221e+00	4.941074e+01	-7.398973e+01	2.693737e+05	1.065021e+05	2.923151e+02	2.045212e-01	7.299167e+00	0.000000e+00	
1.699338e+00	-1.064432e+00	1.269112e+00	4.941202e+01	-7.394215e+01	2.693820e+05	1.065064e+05	2.923520e+02	2.044365e-01	7.305223e+00	0.000000e+00	
1.701258e+00	-1.122386e+00	1.269124e+00	4.940836e+01	-7.393538e+01	2.693815e+05	1.065065e+05	2.923494e+02	2.044180e-01	7.305281e+00	0.000000e+00	
1.698266e+00	-1.005530e+00	1.269105e+00	4.941589e+01	-7.394952e+01	2.693823e+05	1.065063e+05	2.923533e+02	2.044562e-01	7.305081e+00	0.000000e+00	
1.751835e+00	-1.208439e+00	1.269125e+00	4.940961e+01	-7.393309e+01	2.693815e+05	1.065065e+05	2.923493e+02	2.044151e-01	7.305331e+00	0.000000e+00	
1.697504e+00	-9.459863e-01	1.269103e+00	4.942032e+01	-7.395718e+01	2.693827e+05	1.065062e+05	2.923536e+02	2.044768e-01	7.304955e+00	0.000000e+00	
1.696824e+00	-8.863085e-01	1.269105e+00	4.942490e+01	-7.396468e+01	2.693831e+05	1.065061e+05	2.923528e+02	2.044969e-01	7.304811e+00	0.000000e+00	
1.696166e+00	-8.268316e-01	1.269111e+00	4.942947e+01	-7.397174e+01	2.693834e+05	1.065060e+05	2.923511e+02	2.045159e-01	7.304665e+00	0.000000e+00	
1.116174e+00	-4.640064e-01	1.269164e+00	4.940799e+01	-7.396879e+01	2.693753e+05	1.065032e+05	2.923314e+02	2.044812e-01	7.300763e+00	0.000000e+00	
1.168895e+00	-4.883350e-01	1.269146e+00	4.940616e+01	-7.396390e+01	2.693763e+05	1.065038e+05	2.923370e+02	2.044705e-01	7.301471e+00	0.000000e+00	
1.066592e+00	-4.393951e-01	1.269181e+00	4.941212e+01	-7.397588e+01	2.693744e+05	1.065027e+05	2.923258e+02	2.044992e-01	7.299938e+00	0.000000e+00	
1.751889e+00	-1.152379e+00	1.269116e+00	4.941241e+01	-7.393924e+01	2.693819e+05	1.065065e+05	2.923511e+02	2.044311e-01	7.305280e+00	0.000000e+00	
1.333726e+00	-5.672619e-01	1.269104e+00	4.941020e+01	-7.396138e+01	2.693792e+05	1.065049e+05	2.923496e+02	2.044731e-01	7.303048e+00	0.000000e+00	
1.279278e+00	-5.398617e-01	1.269114e+00	4.940775e+01	-7.396070e+01	2.693783e+05	1.065046e+05	2.923464e+02	2.044682e-01	7.302620e+00	0.000000e+00	
1.223918e+00	-5.134628e-01	1.269128e+00	4.940624e+01	-7.396135e+01	2.693773e+05	1.065042e+05	2.923422e+02	2.044667e-01	7.302103e+00	0.000000e+00	
1.386957e+00	-5.953011e-01	1.269098e+00	4.941320e+01	-7.396294e+01	2.693800e+05	1.065051e+05	2.923518e+02	2.044802e-01	7.303401e+00	0.000000e+00	
1.439218e+00	-6.237155e-01	1.269095e+00	4.941654e+01	-7.396506e+01	2.693808e+05	1.065053e+05	2.923530e+02	2.044886e-01	7.303691e+00	0.000000e+00	
1.490873e+00	-6.523436e-01	1.269095e+00	4.942007e+01	-7.396753e+01	2.693815e+05	1.065055e+05	2.923534e+02	2.044976e-01	7.303930e+00	0.000000e+00	
1.542206e+00	-6.810933e-01	1.269098e+00	4.942366e+01	-7.397018e+01	2.693822e+05	1.065056e+05	2.923531e+02	2.045069e-01	7.304126e+00	0.000000e+00	
1.593379e+00	-7.099137e-01	1.269104e+00	4.942720e+01	-7.397289e+01	2.693827e+05	1.065057e+05	2.923521e+02	2.045160e-01	7.304285e+00	0.000000e+00	
1.644471e+00	-7.387760e-01	1.269111e+00	4.943063e+01	-7.397558e+01	2.693832e+05	1.065058e+05	2.923506e+02	2.045249e-01	7.304413e+00	0.000000e+00	
1.695515e+00	-7.676637e-01	1.269121e+00	4.943391e+01	-7.397820e+01	2.693837e+05	1.065059e+05	2.923487e+02	2.045332e-01	7.304515e+00	0.000000e+00	
1.000000e+00	-4.166667e-01	1.269198e+00	4.941921e+01	-7.398484e+01	2.693727e+05	1.065017e+05	2.923193e+02	2.045250e-01	7.298552e+00	0.000000e+00	
1.750541e+00	-1.093258e+00	1.269107e+00	4.941647e+01	-7.394647e+01	2.693824e+05	1.065064e+05	2.923531e+02	2.044509e-01	7.305191e+00	0.000000e+00	
1.749304e+00	-1.034386e+00	1.269104e+00	4.942047e+01	-7.395374e+01	2.693828e+05	1.065063e+05	2.923536e+02	2.044703e-01	7.305085e+00	0.000000e+00	
1.748434e+00	-9.750108e-01	1.269106e+00	4.942458e+01	-7.396109e+01	2.693831e+05	1.065062e+05	2.923531e+02	2.044895e-01	7.304972e+00	0.000000e+00	
1.800221e+00	-1.182159e+00	1.269109e+00	4.941631e+01	-7.394307e+01	2.693821e+05	1.065064e+05	2.923526e+02	2.044441e-01	7.305170e+00	0.000000e+00	
1.747758e+00	-9.153829e-01	1.269111e+00	4.942886e+01	-7.396817e+01	2.693835e+05	1.065062e+05	2.923516e+02	2.045082e-01	7.304854e+00	0.000000e+00	
1.747140e+00	-8.558444e-01	1.269120e+00	4.943302e+01	-7.397476e+01	2.693838e+05	1.065061e+05	2.923493e+02	2.045254e-01	7.304725e+00	0.000000e+00	
1.746524e+00	-7.965773e-01	1.269131e+00	4.943703e+01	-7.398077e+01	2.693840e+05	1.065060e+05	2.923464e+02	2.045412e-01	7.304595e+00	0.000000e+00	
1.114880e+00	-4.060739e-01	1.269139e+00	4.941663e+01	-7.396964e+01	2.693751e+05	1.065030e+05	2.923365e+02	2.044961e-01	7.300396e+00	0.000000e+00	
1.166696e+00	-4.311516e-01	1.269123e+00	4.941446e+01	-7.396687e+01	2.693762e+05	1.065035e+05	2.923415e+02	2.044889e-01	7.301102e+00	0.000000e+00	
1.221074e+00	-4.564179e-01	1.269109e+00	4.941425e+01	-7.396593e+01	2.693773e+05	1.065040e+05	2.923459e+02	2.044875e-01	7.301754e+00	0.000000e+00	
1.065819e+00	-3.806343e-01	1.269155e+00	4.942121e+01	-7.397412e+01	2.693740e+05	1.065024e+05	2.923311e+02	2.045098e-01	7.299550e+00	0.000000e+00	
1.800616e+00	-1.123297e+00	1.269105e+00	4.942072e+01	-7.395082e+01	2.693828e+05	1.065064e+05	2.923535e+02	2.044648e-01	7.305176e+00	0.000000e+00	
1.849631e+00	-1.210478e+00	1.269107e+00	4.942073e+01	-7.394766e+01	2.693826e+05	1.065064e+05	2.923532e+02	2.044587e-01	7.305211e+00	0.000000e+00	
1.385424e+00	-5.370981e-01	1.269091e+00	4.942055e+01	-7.397011e+01	2.693803e+05	1.065049e+05	2.923529e+02	2.045041e-01	7.303125e+00	0.000000e+00	
1.331571e+00	-5.093972e-01	1.269093e+00	4.941783e+01	-7.396804e+01	2.693794e+05	1.065047e+05	2.923517e+02	2.044967e-01	7.302748e+00	0.000000e+00	
1.276546e+00	-4.824460e-01	1.269099e+00	4.941560e+01	-7.396649e+01	2.693784e+05	1.065043e+05	2.923494e+02	2.044907e-01	7.302293e+00	0.000000e+00	
1.438132e+00	-5.652974e-01	1.269092e+00	4.942349e+01	-7.397243e+01	2.693811e+05	1.065051e+05	2.923532e+02	2.045119e-01	7.303439e+00	0.000000e+00	
1.490036e+00	-5.937899e-01	1.269096e+00	4.942652e+01	-7.397483e+01	2.693818e+05	1.065053e+05	2.923527e+02	2.045199e-01	7.303702e+00	0.000000e+00	
1.541481e+00	-6.224415e-01	1.269103e+00	4.942955e+01	-7.397722e+01	2.693824e+05	1.065055e+05	2.923517e+02	2.045276e-01	7.303919e+00	0.000000e+00	
1.592697e+00	-6.511767e-01	1.269111e+00	4.943252e+01	-7.397955e+01	2.693830e+05	1.065056e+05	2.923501e+02	2.045351e-01	7.304099e+00	0.000000e+00	
1.643806e+00	-6.799565e-01	1.269121e+00	4.943540e+01	-7.398180e+01	2.693835e+05	1.065057e+05	2.923480e+02	2.045422e-01	7.304247e+00	0.000000e+00	
1.694866e+00	-7.087628e-01	1.269133e+00	4.943818e+01	-7.398401e+01	2.693839e+05	1.065058e+05	2.923456e+02	2.045489e-01	7.304368e+00	0.000000e+00	
1.745898e+00	-7.375912e-01	1.269145e+00	4.944087e+01	-7.398621e+01	2.693843e+05	1.065059e+05	2.923430e+02	2.045555e-01	7.304465e+00	0.000000e+00	
1.000000e+00	-3.571429e-01	1.269172e+00	4.942873e+01	-7.397953e+01	2.693722e+05	1.065014e+05	2.923247e+02	2.045294e-01	7.298196e+00	0.000000e+00	
1.799997e+00	-1.063912e+00	1.269105e+00	4.942473e+01	-7.395792e+01	2.693831e+05	1.065063e+05	2.923533e+02	2.044836e-01	7.305056e+00	0.000000e+00	
1.799274e+00	-1.004360e+00	1.269110e+00	4.942864e+01	-7.396494e+01	2.693835e+05	1.065062e+05	2.923520e+02	2.045017e-01	7.304988e+00	0.000000e+00	
1.798648e+00	-9.446210e-01	1.269119e+00	4.943255e+01	-7.397155e+01	2.693839e+05	1.065062e+05	2.923499e+02	2.045187e-01	7.304876e+00	0.000000e+00	
1.850071e+00	-1.152401e+00	1.269105e+00	4.942472e+01	-7.395506e+01	2.693831e+05	1.065063e+05	2.923534e+02	2.044781e-01	7.305129e+00	0.000000e+00	
1.798078e+00	-8.849494e-01	1.269130e+00	4.943636e+01	-7.397769e+01	2.693842e+05	1.065061e+05	2.923471e+02	2.045345e-01	7.304771e+00	0.000000e+00	
1.797506e+00	-8.255463e-01	1.269143e+00	4.943999e+01	-7.398331e+01	2.693844e+05	1.065060e+05	2.923438e+02	2.045488e-01	7.304657e+00	0.000000e+00	
1.796910e+00	-7.664523e-01	1.269158e+00	4.944351e+01	-7.398847e+01	2.693846e+05	1.065059e+05	2.923402e+02	2.045621e-01	7.304544e+00	0.000000e+00	
1.165428e+00	-3.731207e-01	1.269103e+00	4.942381e+01	-7.396988e+01	2.693763e+05	1.065033e+05	2.923457e+02	2.045084e-01	7.300822e+00	0.000000e+00	
1.114066e+00	-3.475137e-01	1.269115e+00	4.942626e+01	-7.397053e+01	2.693752e+05	1.065028e+05	2.923414e+02	2.045122e-01	7.300144e+00	0.000000e+00	