TITLE = "Visualization of the surface solution"
VARIABLES = "x","y","Density","Momentum_x","Momentum_y","Energy","Grid_Velocity_x","Grid_Velocity_y","Pressure","Temperature","Mach","C<sub>p</sub>","Roe_Dissipation"
ZONE NODES= 0, ELEMENTS= 0, DATAPACKING=POINT, ZONETYPE=FELINESEG
