TITLE = "Visualization of the volumetric solution"
VARIABLES = "x","y","Density","Momentum_x","Momentum_y","Energy","Pressure","Temperature","Mach","C<sub>p</sub>","Roe_Dissipation"
ZONE NODES= 1720, ELEMENTS= 3288, DATAPACKING=POINT, ZONETYPE=FEQUADRILATERAL
1.040621e+00	-1.209117e+00	1.238064e+00	4.462169e+01	-5.694836e+01	2.592343e+05	1.028482e+05	2.893901e+02	1.713530e-01	2.147488e+00	0.000000e+00	
1.000000e+00	-1.190476e+00	1.238062e+00	4.462236e+01	-5.694935e+01	2.592332e+05	1.028477e+05	2.893893e+02	1.713563e-01	2.146867e+00	0.000000e+00	
1.049910e+00	-1.157894e+00	1.238059e+00	4.462942e+01	-5.695093e+01	2.592343e+05	1.028480e+05	2.893910e+02	1.713696e-01	2.147281e+00	0.000000e+00	
1.093743e+00	-1.191849e+00	1.238058e+00	4.462662e+01	-5.695002e+01	2.592347e+05	1.028482e+05	2.893917e+02	1.713637e-01	2.147582e+00	0.000000e+00	
1.000000e+00	-1.130952e+00	1.238057e+00	4.463163e+01	-5.695155e+01	2.592334e+05	1.028476e+05	2.893903e+02	1.713744e-01	2.146712e+00	0.000000e+00	
1.095476e+00	-1.132804e+00	1.238054e+00	4.463683e+01	-5.695461e+01	2.592352e+05	1.028482e+05	2.893925e+02	1.713875e-01	2.147522e+00	0.000000e+00	
1.048314e+00	-1.101041e+00	1.238053e+00	4.463891e+01	-5.695419e+01	2.592345e+05	1.028479e+05	2.893919e+02	1.713900e-01	2.147099e+00	0.000000e+00	
1.144982e+00	-1.160302e+00	1.238055e+00	4.463616e+01	-5.695497e+01	2.592359e+05	1.028485e+05	2.893931e+02	1.713868e-01	2.147948e+00	0.000000e+00	
1.000000e+00	-1.071429e+00	1.238052e+00	4.464180e+01	-5.695361e+01	2.592337e+05	1.028475e+05	2.893913e+02	1.713935e-01	2.146628e+00	0.000000e+00	
1.148009e+00	-1.206784e+00	1.238059e+00	4.462864e+01	-5.695104e+01	2.592361e+05	1.028487e+05	2.893928e+02	1.713680e-01	2.148285e+00	0.000000e+00	
1.095648e+00	-1.071244e+00	1.238051e+00	4.464636e+01	-5.695857e+01	2.592355e+05	1.028481e+05	2.893930e+02	1.714090e-01	2.147426e+00	0.000000e+00	
1.145729e+00	-1.102380e+00	1.238053e+00	4.464507e+01	-5.695977e+01	2.592362e+05	1.028484e+05	2.893934e+02	1.714090e-01	2.147819e+00	0.000000e+00	
1.049733e+00	-1.041321e+00	1.238050e+00	4.464871e+01	-5.695718e+01	2.592349e+05	1.028479e+05	2.893926e+02	1.714102e-01	2.147053e+00	0.000000e+00	
1.192761e+00	-1.192577e+00	1.238056e+00	4.463558e+01	-5.695508e+01	2.592364e+05	1.028487e+05	2.893935e+02	1.713860e-01	2.148200e+00	0.000000e+00	
1.195107e+00	-1.133762e+00	1.238055e+00	4.464454e+01	-5.696084e+01	2.592369e+05	1.028486e+05	2.893936e+02	1.714099e-01	2.148160e+00	0.000000e+00	
1.000000e+00	-1.011905e+00	1.238048e+00	4.465164e+01	-5.695531e+01	2.592342e+05	1.028476e+05	2.893921e+02	1.714113e-01	2.146635e+00	0.000000e+00	
1.094413e+00	-1.012480e+00	1.238050e+00	4.465575e+01	-5.696202e+01	2.592360e+05	1.028481e+05	2.893933e+02	1.714293e-01	2.147411e+00	0.000000e+00	
1.144800e+00	-1.042146e+00	1.238053e+00	4.465418e+01	-5.696405e+01	2.592367e+05	1.028484e+05	2.893933e+02	1.714303e-01	2.147764e+00	0.000000e+00	
1.194807e+00	-1.073419e+00	1.238056e+00	4.465321e+01	-5.696574e+01	2.592372e+05	1.028486e+05	2.893932e+02	1.714317e-01	2.148050e+00	0.000000e+00	
1.046483e+00	-9.824203e-01	1.238048e+00	4.465800e+01	-5.695964e+01	2.592354e+05	1.028479e+05	2.893930e+02	1.714285e-01	2.147066e+00	0.000000e+00	
1.243114e+00	-1.166395e+00	1.238058e+00	4.464402e+01	-5.696202e+01	2.592376e+05	1.028489e+05	2.893936e+02	1.714109e-01	2.148532e+00	0.000000e+00	
1.243982e+00	-1.104797e+00	1.238059e+00	4.465284e+01	-5.696715e+01	2.592378e+05	1.028488e+05	2.893930e+02	1.714334e-01	2.148333e+00	0.000000e+00	
1.000000e+00	-9.523810e-01	1.238046e+00	4.466103e+01	-5.695703e+01	2.592347e+05	1.028476e+05	2.893928e+02	1.714284e-01	2.146690e+00	0.000000e+00	
1.143063e+00	-9.807371e-01	1.238055e+00	4.466278e+01	-5.696748e+01	2.592371e+05	1.028483e+05	2.893929e+02	1.714492e-01	2.147739e+00	0.000000e+00	
1.092059e+00	-9.503938e-01	1.238051e+00	4.466446e+01	-5.696464e+01	2.592365e+05	1.028481e+05	2.893931e+02	1.714468e-01	2.147470e+00	0.000000e+00	
1.193442e+00	-1.011838e+00	1.238059e+00	4.466147e+01	-5.696981e+01	2.592377e+05	1.028485e+05	2.893925e+02	1.714512e-01	2.148031e+00	0.000000e+00	
1.243532e+00	-1.043138e+00	1.238063e+00	4.466065e+01	-5.697175e+01	2.592382e+05	1.028487e+05	2.893920e+02	1.714531e-01	2.148302e+00	0.000000e+00	
1.045466e+00	-9.241753e-01	1.238048e+00	4.466665e+01	-5.696154e+01	2.592359e+05	1.028479e+05	2.893932e+02	1.714446e-01	2.147150e+00	0.000000e+00	
1.292216e+00	-1.195962e+00	1.238059e+00	4.464426e+01	-5.696329e+01	2.592377e+05	1.028489e+05	2.893934e+02	1.714135e-01	2.148571e+00	0.000000e+00	
1.293053e+00	-1.132219e+00	1.238063e+00	4.465315e+01	-5.696898e+01	2.592384e+05	1.028490e+05	2.893926e+02	1.714368e-01	2.148626e+00	0.000000e+00	
1.293488e+00	-1.073063e+00	1.238067e+00	4.466047e+01	-5.697338e+01	2.592387e+05	1.028489e+05	2.893914e+02	1.714555e-01	2.148535e+00	0.000000e+00	
1.000000e+00	-8.928571e-01	1.238046e+00	4.466978e+01	-5.695821e+01	2.592355e+05	1.028478e+05	2.893932e+02	1.714433e-01	2.146919e+00	0.000000e+00	
1.139604e+00	-9.191736e-01	1.238059e+00	4.467051e+01	-5.696994e+01	2.592376e+05	1.028484e+05	2.893921e+02	1.714647e-01	2.147826e+00	0.000000e+00	
1.191101e+00	-9.499658e-01	1.238063e+00	4.466902e+01	-5.697285e+01	2.592381e+05	1.028486e+05	2.893915e+02	1.714675e-01	2.148050e+00	0.000000e+00	
1.086165e+00	-8.914965e-01	1.238054e+00	4.467229e+01	-5.696629e+01	2.592370e+05	1.028482e+05	2.893926e+02	1.714611e-01	2.147504e+00	0.000000e+00	
1.242086e+00	-9.812383e-01	1.238068e+00	4.466780e+01	-5.697510e+01	2.592386e+05	1.028487e+05	2.893908e+02	1.714695e-01	2.148288e+00	0.000000e+00	
1.292812e+00	-1.012013e+00	1.238073e+00	4.466698e+01	-5.697685e+01	2.592390e+05	1.028489e+05	2.893901e+02	1.714711e-01	2.148502e+00	0.000000e+00	
1.036811e+00	-8.675911e-01	1.238050e+00	4.467363e+01	-5.696236e+01	2.592364e+05	1.028480e+05	2.893931e+02	1.714561e-01	2.147275e+00	0.000000e+00	
1.341812e+00	-1.209973e+00	1.238065e+00	4.464740e+01	-5.696560e+01	2.592387e+05	1.028493e+05	2.893931e+02	1.714217e-01	2.149044e+00	0.000000e+00	
1.346003e+00	-1.158948e+00	1.238068e+00	4.465385e+01	-5.697056e+01	2.592389e+05	1.028491e+05	2.893920e+02	1.714403e-01	2.148881e+00	0.000000e+00	
1.344501e+00	-1.101571e+00	1.238072e+00	4.466075e+01	-5.697484e+01	2.592391e+05	1.028490e+05	2.893907e+02	1.714581e-01	2.148742e+00	0.000000e+00	
1.343694e+00	-1.041833e+00	1.238078e+00	4.466656e+01	-5.697829e+01	2.592394e+05	1.028490e+05	2.893894e+02	1.714727e-01	2.148724e+00	0.000000e+00	
1.000000e+00	-8.333333e-01	1.238048e+00	4.467748e+01	-5.695860e+01	2.592363e+05	1.028480e+05	2.893934e+02	1.714549e-01	2.147193e+00	0.000000e+00	
1.135849e+00	-8.580295e-01	1.238064e+00	4.467729e+01	-5.697148e+01	2.592381e+05	1.028485e+05	2.893910e+02	1.714771e-01	2.147905e+00	0.000000e+00	
1.188203e+00	-8.888722e-01	1.238069e+00	4.467549e+01	-5.697481e+01	2.592386e+05	1.028486e+05	2.893902e+02	1.714802e-01	2.148128e+00	0.000000e+00	
1.240135e+00	-9.198651e-01	1.238074e+00	4.467398e+01	-5.697731e+01	2.592390e+05	1.028488e+05	2.893895e+02	1.714822e-01	2.148325e+00	0.000000e+00	
1.060587e+00	-8.131532e-01	1.238058e+00	4.468019e+01	-5.696572e+01	2.592375e+05	1.028483e+05	2.893919e+02	1.714712e-01	2.147656e+00	0.000000e+00	
1.291525e+00	-9.506591e-01	1.238079e+00	4.467270e+01	-5.697916e+01	2.592393e+05	1.028489e+05	2.893888e+02	1.714833e-01	2.148522e+00	0.000000e+00	
1.342746e+00	-9.809885e-01	1.238083e+00	4.467165e+01	-5.698048e+01	2.592397e+05	1.028490e+05	2.893882e+02	1.714839e-01	2.148698e+00	0.000000e+00	
1.396074e+00	-1.192578e+00	1.238071e+00	4.465410e+01	-5.697116e+01	2.592390e+05	1.028492e+05	2.893915e+02	1.714416e-01	2.148918e+00	0.000000e+00	
1.395764e+00	-1.131440e+00	1.238077e+00	4.466113e+01	-5.697635e+01	2.592396e+05	1.028492e+05	2.893900e+02	1.714610e-01	2.148991e+00	0.000000e+00	
1.394808e+00	-1.071143e+00	1.238082e+00	4.466637e+01	-5.697933e+01	2.592397e+05	1.028491e+05	2.893888e+02	1.714740e-01	2.148881e+00	0.000000e+00	
1.393992e+00	-1.010751e+00	1.238086e+00	4.467087e+01	-5.698146e+01	2.592400e+05	1.028491e+05	2.893878e+02	1.714842e-01	2.148881e+00	0.000000e+00	
1.000000e+00	-7.738095e-01	1.238052e+00	4.468383e+01	-5.695869e+01	2.592371e+05	1.028482e+05	2.893931e+02	1.714639e-01	2.147518e+00	0.000000e+00	
1.136070e+00	-7.973420e-01	1.238072e+00	4.468287e+01	-5.697254e+01	2.592388e+05	1.028486e+05	2.893896e+02	1.714866e-01	2.148152e+00	0.000000e+00	
1.187499e+00	-8.298549e-01	1.238076e+00	4.468076e+01	-5.697587e+01	2.592390e+05	1.028487e+05	2.893889e+02	1.714893e-01	2.148259e+00	0.000000e+00	
1.238805e+00	-8.599060e-01	1.238080e+00	4.467896e+01	-5.697839e+01	2.592393e+05	1.028488e+05	2.893883e+02	1.714910e-01	2.148416e+00	0.000000e+00	
1.290245e+00	-8.900452e-01	1.238084e+00	4.467734e+01	-5.698025e+01	2.592396e+05	1.028489e+05	2.893877e+02	1.714918e-01	2.148571e+00	0.000000e+00	
1.341669e+00	-9.201922e-01	1.238086e+00	4.467589e+01	-5.698159e+01	2.592399e+05	1.028490e+05	2.893874e+02	1.714919e-01	2.148731e+00	0.000000e+00	
1.393077e+00	-9.501287e-01	1.238088e+00	4.467461e+01	-5.698248e+01	2.592402e+05	1.028491e+05	2.893874e+02	1.714915e-01	2.148877e+00	0.000000e+00	
1.043305e+00	-7.483473e-01	1.238063e+00	4.468652e+01	-5.696433e+01	2.592380e+05	1.028484e+05	2.893912e+02	1.714774e-01	2.147865e+00	0.000000e+00	
1.446081e+00	-1.157621e+00	1.238082e+00	4.466160e+01	-5.697734e+01	2.592399e+05	1.028493e+05	2.893893e+02	1.714632e-01	2.149113e+00	0.000000e+00	
1.450844e+00	-1.210365e+00	1.238079e+00	4.465711e+01	-5.697407e+01	2.592399e+05	1.028494e+05	2.893903e+02	1.714506e-01	2.149305e+00	0.000000e+00	
1.445809e+00	-1.099210e+00	1.238086e+00	4.466638e+01	-5.698024e+01	2.592401e+05	1.028493e+05	2.893883e+02	1.714753e-01	2.149082e+00	0.000000e+00	
1.091832e+00	-7.665481e-01	1.238069e+00	4.468530e+01	-5.696929e+01	2.592385e+05	1.028485e+05	2.893901e+02	1.714843e-01	2.148030e+00	0.000000e+00	
1.445317e+00	-1.039826e+00	1.238088e+00	4.467023e+01	-5.698207e+01	2.592403e+05	1.028493e+05	2.893876e+02	1.714842e-01	2.149030e+00	0.000000e+00	
1.444508e+00	-9.797257e-01	1.238088e+00	4.467354e+01	-5.698305e+01	2.592404e+05	1.028492e+05	2.893875e+02	1.714909e-01	2.149025e+00	0.000000e+00	
1.000000e+00	-7.142857e-01	1.238059e+00	4.468870e+01	-5.695880e+01	2.592378e+05	1.028484e+05	2.893921e+02	1.714705e-01	2.147867e+00	0.000000e+00	
1.188570e+00	-7.715395e-01	1.238082e+00	4.468464e+01	-5.697590e+01	2.592394e+05	1.028488e+05	2.893878e+02	1.714945e-01	2.148421e+00	0.000000e+00	
1.141157e+00	-7.415263e-01	1.238079e+00	4.468658e+01	-5.697276e+01	2.592393e+05	1.028488e+05	2.893884e+02	1.714918e-01	2.148366e+00	0.000000e+00	
1.238579e+00	-8.011049e-01	1.238085e+00	4.468265e+01	-5.697843e+01	2.592397e+05	1.028489e+05	2.893874e+02	1.714961e-01	2.148541e+00	0.000000e+00	
1.289445e+00	-8.304909e-01	1.238087e+00	4.468082e+01	-5.698032e+01	2.592399e+05	1.028490e+05	2.893871e+02	1.714967e-01	2.148662e+00	0.000000e+00	
1.340723e+00	-8.600896e-01	1.238088e+00	4.467911e+01	-5.698168e+01	2.592401e+05	1.028491e+05	2.893872e+02	1.714966e-01	2.148788e+00	0.000000e+00	
1.392142e+00	-8.897883e-01	1.238087e+00	4.467757e+01	-5.698263e+01	2.592404e+05	1.028492e+05	2.893875e+02	1.714961e-01	2.148916e+00	0.000000e+00	
1.443585e+00	-9.194397e-01	1.238086e+00	4.467620e+01	-5.698325e+01	2.592406e+05	1.028493e+05	2.893882e+02	1.714953e-01	2.149039e+00	0.000000e+00	
1.090456e+00	-7.145167e-01	1.238075e+00	4.468849e+01	-5.696882e+01	2.592389e+05	1.028487e+05	2.893892e+02	1.714876e-01	2.148242e+00	0.000000e+00	
1.039997e+00	-6.903901e-01	1.238071e+00	4.469039e+01	-5.696394e+01	2.592388e+05	1.028487e+05	2.893901e+02	1.714816e-01	2.148231e+00	0.000000e+00	
1.498196e+00	-1.126038e+00	1.238088e+00	4.466643e+01	-5.698086e+01	2.592404e+05	1.028494e+05	2.893880e+02	1.714763e-01	2.149217e+00	0.000000e+00	
1.510399e+00	-1.196264e+00	1.238086e+00	4.466243e+01	-5.697804e+01	2.592403e+05	1.028495e+05	2.893887e+02	1.714653e-01	2.149325e+00	0.000000e+00	
1.497132e+00	-1.068254e+00	1.238089e+00	4.466983e+01	-5.698248e+01	2.592405e+05	1.028494e+05	2.893877e+02	1.714842e-01	2.149185e+00	0.000000e+00	
1.496082e+00	-1.009007e+00	1.238087e+00	4.467264e+01	-5.698337e+01	2.592406e+05	1.028493e+05	2.893880e+02	1.714901e-01	2.149155e+00	0.000000e+00	
1.495030e+00	-9.489896e-01	1.238083e+00	4.467504e+01	-5.698366e+01	2.592407e+05	1.028493e+05	2.893891e+02	1.714945e-01	2.149158e+00	0.000000e+00	
1.000000e+00	-6.547619e-01	1.238069e+00	4.469230e+01	-5.695870e+01	2.592388e+05	1.028488e+05	2.893908e+02	1.714746e-01	2.148353e+00	0.000000e+00	
1.238355e+00	-7.426163e-01	1.238088e+00	4.468520e+01	-5.697766e+01	2.592400e+05	1.028490e+05	2.893870e+02	1.714981e-01	2.148705e+00	0.000000e+00	
1.188580e+00	-7.135674e-01	1.238087e+00	4.468719e+01	-5.697511e+01	2.592399e+05	1.028490e+05	2.893871e+02	1.714963e-01	2.148639e+00	0.000000e+00	
1.138284e+00	-6.855143e-01	1.238085e+00	4.468914e+01	-5.697188e+01	2.592397e+05	1.028489e+05	2.893875e+02	1.714933e-01	2.148590e+00	0.000000e+00	
1.288905e+00	-7.716261e-01	1.238088e+00	4.468326e+01	-5.697959e+01	2.592402e+05	1.028491e+05	2.893872e+02	1.714988e-01	2.148783e+00	0.000000e+00	
1.339977e+00	-8.007426e-01	1.238087e+00	4.468143e+01	-5.698105e+01	2.592404e+05	1.028491e+05	2.893877e+02	1.714989e-01	2.148879e+00	0.000000e+00	
1.391303e+00	-8.300433e-01	1.238084e+00	4.467976e+01	-5.698212e+01	2.592405e+05	1.028492e+05	2.893885e+02	1.714985e-01	2.148978e+00	0.000000e+00	
1.442698e+00	-8.594594e-01	1.238080e+00	4.467829e+01	-5.698291e+01	2.592407e+05	1.028493e+05	2.893896e+02	1.714981e-01	2.149080e+00	0.000000e+00	
1.494070e+00	-8.889202e-01	1.238075e+00	4.467704e+01	-5.698351e+01	2.592409e+05	1.028494e+05	2.893910e+02	1.714977e-01	2.149180e+00	0.000000e+00	
1.087729e+00	-6.605235e-01	1.238082e+00	4.469107e+01	-5.696769e+01	2.592395e+05	1.028489e+05	2.893882e+02	1.714886e-01	2.148569e+00	0.000000e+00	
1.036519e+00	-6.389016e-01	1.238078e+00	4.469279e+01	-5.696318e+01	2.592393e+05	1.028489e+05	2.893890e+02	1.714830e-01	2.148506e+00	0.000000e+00	
1.547027e+00	-1.151126e+00	1.238091e+00	4.466681e+01	-5.698137e+01	2.592407e+05	1.028495e+05	2.893877e+02	1.714776e-01	2.149358e+00	0.000000e+00	
1.549649e+00	-1.096695e+00	1.238089e+00	4.466943e+01	-5.698269e+01	2.592408e+05	1.028495e+05	2.893880e+02	1.714840e-01	2.149308e+00	0.000000e+00	
1.572311e+00	-1.200555e+00	1.238090e+00	4.466499e+01	-5.698041e+01	2.592407e+05	1.028495e+05	2.893880e+02	1.714731e-01	2.149445e+00	0.000000e+00	
1.547814e+00	-1.038373e+00	1.238085e+00	4.467193e+01	-5.698353e+01	2.592408e+05	1.028494e+05	2.893888e+02	1.714895e-01	2.149276e+00	0.000000e+00	
1.546431e+00	-9.785191e-01	1.238078e+00	4.467410e+01	-5.698393e+01	2.592409e+05	1.028494e+05	2.893903e+02	1.714938e-01	2.149269e+00	0.000000e+00	
1.545361e+00	-9.183948e-01	1.238069e+00	4.467601e+01	-5.698400e+01	2.592410e+05	1.028494e+05	2.893926e+02	1.714974e-01	2.149277e+00	0.000000e+00	
1.000000e+00	-5.952381e-01	1.238080e+00	4.469451e+01	-5.695876e+01	2.592396e+05	1.028491e+05	2.893890e+02	1.714770e-01	2.148773e+00	0.000000e+00	
1.236479e+00	-6.844404e-01	1.238088e+00	4.468682e+01	-5.697622e+01	2.592403e+05	1.028491e+05	2.893873e+02	1.714976e-01	2.148881e+00	0.000000e+00	
1.287827e+00	-7.131044e-01	1.238086e+00	4.468489e+01	-5.697830e+01	2.592404e+05	1.028492e+05	2.893879e+02	1.714988e-01	2.148926e+00	0.000000e+00	
1.184572e+00	-6.562751e-01	1.238089e+00	4.468884e+01	-5.697356e+01	2.592402e+05	1.028491e+05	2.893869e+02	1.714956e-01	2.148835e+00	0.000000e+00	
1.131451e+00	-6.297704e-01	1.238089e+00	4.469075e+01	-5.697012e+01	2.592401e+05	1.028491e+05	2.893870e+02	1.714920e-01	2.148856e+00	0.000000e+00	
1.339147e+00	-7.419103e-01	1.238082e+00	4.468305e+01	-5.697994e+01	2.592406e+05	1.028492e+05	2.893890e+02	1.714994e-01	2.148992e+00	0.000000e+00	
1.390516e+00	-7.708705e-01	1.238077e+00	4.468140e+01	-5.698123e+01	2.592407e+05	1.028493e+05	2.893903e+02	1.714997e-01	2.149065e+00	0.000000e+00	
1.441888e+00	-7.999823e-01	1.238071e+00	4.467994e+01	-5.698228e+01	2.592409e+05	1.028493e+05	2.893918e+02	1.714999e-01	2.149144e+00	0.000000e+00	
1.493214e+00	-8.292045e-01	1.238064e+00	4.467872e+01	-5.698316e+01	2.592410e+05	1.028494e+05	2.893936e+02	1.715002e-01	2.149225e+00	0.000000e+00	
1.544461e+00	-8.584941e-01	1.238057e+00	4.467772e+01	-5.698392e+01	2.592412e+05	1.028494e+05	2.893955e+02	1.715006e-01	2.149306e+00	0.000000e+00	
1.076336e+00	-6.075870e-01	1.238086e+00	4.469265e+01	-5.696563e+01	2.592398e+05	1.028491e+05	2.893876e+02	1.714867e-01	2.148756e+00	0.000000e+00	
1.600550e+00	-1.133089e+00	1.238088e+00	4.466872e+01	-5.698252e+01	2.592409e+05	1.028495e+05	2.893885e+02	1.714826e-01	2.149423e+00	0.000000e+00	
1.598755e+00	-1.069283e+00	1.238082e+00	4.467134e+01	-5.698360e+01	2.592410e+05	1.028495e+05	2.893898e+02	1.714889e-01	2.149400e+00	0.000000e+00	
1.634718e+00	-1.200848e+00	1.238090e+00	4.466705e+01	-5.698152e+01	2.592410e+05	1.028496e+05	2.893882e+02	1.714781e-01	2.149550e+00	0.000000e+00	
1.597484e+00	-1.008162e+00	1.238073e+00	4.467337e+01	-5.698411e+01	2.592411e+05	1.028495e+05	2.893918e+02	1.714934e-01	2.149368e+00	0.000000e+00	
1.596469e+00	-9.478281e-01	1.238062e+00	4.467521e+01	-5.698441e+01	2.592412e+05	1.028495e+05	2.893944e+02	1.714975e-01	2.149369e+00	0.000000e+00	
1.595591e+00	-8.877928e-01	1.238049e+00	4.467695e+01	-5.698461e+01	2.592413e+05	1.028495e+05	2.893975e+02	1.715013e-01	2.149384e+00	0.000000e+00	
1.069329e+00	-5.546983e-01	1.238091e+00	4.469340e+01	-5.696362e+01	2.592404e+05	1.028493e+05	2.893872e+02	1.714834e-01	2.149122e+00	0.000000e+00	
1.232605e+00	-6.269239e-01	1.238086e+00	4.468771e+01	-5.697441e+01	2.592406e+05	1.028493e+05	2.893883e+02	1.714956e-01	2.149077e+00	0.000000e+00	
1.285629e+00	-6.549535e-01	1.238081e+00	4.468587e+01	-5.697671e+01	2.592407e+05	1.028493e+05	2.893895e+02	1.714975e-01	2.149091e+00	0.000000e+00	
1.337846e+00	-6.834172e-01	1.238075e+00	4.468415e+01	-5.697861e+01	2.592408e+05	1.028493e+05	2.893910e+02	1.714990e-01	2.149127e+00	0.000000e+00	
1.178506e+00	-5.999571e-01	1.238089e+00	4.468968e+01	-5.697156e+01	2.592405e+05	1.028493e+05	2.893874e+02	1.714929e-01	2.149067e+00	0.000000e+00	
1.123578e+00	-5.753637e-01	1.238091e+00	4.469151e+01	-5.696810e+01	2.592405e+05	1.028493e+05	2.893870e+02	1.714890e-01	2.149110e+00	0.000000e+00	
1.389598e+00	-7.121037e-01	1.238068e+00	4.468263e+01	-5.698020e+01	2.592409e+05	1.028494e+05	2.893927e+02	1.715002e-01	2.149172e+00	0.000000e+00	
1.441092e+00	-7.409554e-01	1.238060e+00	4.468130e+01	-5.698157e+01	2.592410e+05	1.028494e+05	2.893946e+02	1.715013e-01	2.149228e+00	0.000000e+00	
1.492432e+00	-7.699347e-01	1.238052e+00	4.468019e+01	-5.698276e+01	2.592412e+05	1.028494e+05	2.893966e+02	1.715024e-01	2.149288e+00	0.000000e+00	
1.543664e+00	-7.990048e-01	1.238043e+00	4.467929e+01	-5.698382e+01	2.592413e+05	1.028495e+05	2.893987e+02	1.715036e-01	2.149352e+00	0.000000e+00	
1.594803e+00	-8.281254e-01	1.238035e+00	4.467857e+01	-5.698475e+01	2.592415e+05	1.028495e+05	2.894008e+02	1.715048e-01	2.149416e+00	0.000000e+00	
1.000000e+00	-5.357143e-01	1.238090e+00	4.469507e+01	-5.695809e+01	2.592404e+05	1.028494e+05	2.893875e+02	1.714756e-01	2.149230e+00	0.000000e+00	
1.648946e+00	-1.094829e+00	1.238077e+00	4.467099e+01	-5.698369e+01	2.592412e+05	1.028496e+05	2.893912e+02	1.714889e-01	2.149496e+00	0.000000e+00	
1.654747e+00	-1.149486e+00	1.238084e+00	4.466924e+01	-5.698294e+01	2.592411e+05	1.028496e+05	2.893896e+02	1.714844e-01	2.149507e+00	0.000000e+00	
1.648102e+00	-1.036534e+00	1.238067e+00	4.467289e+01	-5.698428e+01	2.592413e+05	1.028496e+05	2.893935e+02	1.714934e-01	2.149457e+00	0.000000e+00	
1.696459e+00	-1.196388e+00	1.238082e+00	4.466855e+01	-5.698254e+01	2.592413e+05	1.028497e+05	2.893902e+02	1.714827e-01	2.149614e+00	0.000000e+00	
1.647343e+00	-9.768803e-01	1.238054e+00	4.467465e+01	-5.698481e+01	2.592414e+05	1.028496e+05	2.893963e+02	1.714978e-01	2.149456e+00	0.000000e+00	
1.646583e+00	-9.169782e-01	1.238041e+00	4.467637e+01	-5.698522e+01	2.592415e+05	1.028496e+05	2.893995e+02	1.715021e-01	2.149459e+00	0.000000e+00	
1.645850e+00	-8.572406e-01	1.238027e+00	4.467800e+01	-5.698556e+01	2.592416e+05	1.028496e+05	2.894028e+02	1.715060e-01	2.149480e+00	0.000000e+00	
1.118466e+00	-5.207647e-01	1.238092e+00	4.469142e+01	-5.696588e+01	2.592409e+05	1.028495e+05	2.893875e+02	1.714846e-01	2.149386e+00	0.000000e+00	
1.067657e+00	-4.976080e-01	1.238094e+00	4.469291e+01	-5.696170e+01	2.592409e+05	1.028495e+05	2.893870e+02	1.714787e-01	2.149443e+00	0.000000e+00	
1.282527e+00	-5.972533e-01	1.238073e+00	4.468637e+01	-5.697502e+01	2.592410e+05	1.028494e+05	2.893916e+02	1.714956e-01	2.149265e+00	0.000000e+00	
1.227972e+00	-5.700864e-01	1.238081e+00	4.468800e+01	-5.697243e+01	2.592409e+05	1.028494e+05	2.893899e+02	1.714926e-01	2.149284e+00	0.000000e+00	
1.335955e+00	-6.252197e-01	1.238065e+00	4.468488e+01	-5.697725e+01	2.592410e+05	1.028494e+05	2.893936e+02	1.714981e-01	2.149276e+00	0.000000e+00	
1.388405e+00	-6.536085e-01	1.238056e+00	4.468358e+01	-5.697919e+01	2.592411e+05	1.028494e+05	2.893957e+02	1.715004e-01	2.149295e+00	0.000000e+00	
1.172776e+00	-5.443829e-01	1.238087e+00	4.468977e+01	-5.696940e+01	2.592409e+05	1.028494e+05	2.893884e+02	1.714891e-01	2.149298e+00	0.000000e+00	
1.440217e+00	-6.822398e-01	1.238047e+00	4.468245e+01	-5.698090e+01	2.592412e+05	1.028495e+05	2.893978e+02	1.715026e-01	2.149328e+00	0.000000e+00	
1.491668e+00	-7.110241e-01	1.238038e+00	4.468150e+01	-5.698240e+01	2.592414e+05	1.028495e+05	2.894000e+02	1.715046e-01	2.149368e+00	0.000000e+00	
1.542926e+00	-7.399089e-01	1.238030e+00	4.468070e+01	-5.698372e+01	2.592415e+05	1.028495e+05	2.894021e+02	1.715064e-01	2.149414e+00	0.000000e+00	
1.594075e+00	-7.688581e-01	1.238022e+00	4.468002e+01	-5.698483e+01	2.592416e+05	1.028496e+05	2.894040e+02	1.715080e-01	2.149463e+00	0.000000e+00	
1.645149e+00	-7.978403e-01	1.238014e+00	4.467942e+01	-5.698573e+01	2.592417e+05	1.028496e+05	2.894059e+02	1.715093e-01	2.149514e+00	0.000000e+00	
1.000000e+00	-4.761905e-01	1.238097e+00	4.469434e+01	-5.695674e+01	2.592410e+05	1.028497e+05	2.893867e+02	1.714713e-01	2.149613e+00	0.000000e+00	
1.699338e+00	-1.064432e+00	1.238059e+00	4.467260e+01	-5.698450e+01	2.592414e+05	1.028496e+05	2.893954e+02	1.714939e-01	2.149549e+00	0.000000e+00	
1.701258e+00	-1.122386e+00	1.238071e+00	4.467073e+01	-5.698376e+01	2.592414e+05	1.028496e+05	2.893926e+02	1.714889e-01	2.149583e+00	0.000000e+00	
1.698266e+00	-1.005530e+00	1.238046e+00	4.467430e+01	-5.698518e+01	2.592415e+05	1.028496e+05	2.893984e+02	1.714985e-01	2.149534e+00	0.000000e+00	
1.751835e+00	-1.208439e+00	1.238075e+00	4.466915e+01	-5.698288e+01	2.592415e+05	1.028497e+05	2.893920e+02	1.714846e-01	2.149703e+00	0.000000e+00	
1.697504e+00	-9.459863e-01	1.238033e+00	4.467597e+01	-5.698578e+01	2.592416e+05	1.028496e+05	2.894016e+02	1.715031e-01	2.149530e+00	0.000000e+00	
1.696824e+00	-8.863085e-01	1.238019e+00	4.467754e+01	-5.698623e+01	2.592417e+05	1.028496e+05	2.894047e+02	1.715071e-01	2.149542e+00	0.000000e+00	
1.696166e+00	-8.268316e-01	1.238008e+00	4.467885e+01	-5.698638e+01	2.592419e+05	1.028496e+05	2.894075e+02	1.715101e-01	2.149565e+00	0.000000e+00	
1.116174e+00	-4.640064e-01	1.238089e+00	4.469042e+01	-5.696380e+01	2.592413e+05	1.028497e+05	2.893887e+02	1.714792e-01	2.149686e+00	0.000000e+00	
1.168895e+00	-4.883350e-01	1.238082e+00	4.468921e+01	-5.696733e+01	2.592412e+05	1.028496e+05	2.893901e+02	1.714846e-01	2.149554e+00	0.000000e+00	
1.066592e+00	-4.393951e-01	1.238094e+00	4.469148e+01	-5.695986e+01	2.592414e+05	1.028498e+05	2.893877e+02	1.714730e-01	2.149797e+00	0.000000e+00	
1.751889e+00	-1.152379e+00	1.238065e+00	4.467063e+01	-5.698379e+01	2.592415e+05	1.028497e+05	2.893942e+02	1.714892e-01	2.149655e+00	0.000000e+00	
1.333726e+00	-5.672619e-01	1.238053e+00	4.468532e+01	-5.697604e+01	2.592413e+05	1.028495e+05	2.893967e+02	1.714972e-01	2.149437e+00	0.000000e+00	
1.279278e+00	-5.398617e-01	1.238063e+00	4.468650e+01	-5.697345e+01	2.592412e+05	1.028496e+05	2.893943e+02	1.714934e-01	2.149454e+00	0.000000e+00	
1.223918e+00	-5.134628e-01	1.238073e+00	4.468778e+01	-5.697055e+01	2.592412e+05	1.028496e+05	2.893921e+02	1.714892e-01	2.149503e+00	0.000000e+00	
1.386957e+00	-5.953011e-01	1.238043e+00	4.468431e+01	-5.697833e+01	2.592414e+05	1.028495e+05	2.893990e+02	1.715007e-01	2.149432e+00	0.000000e+00	
1.439218e+00	-6.237155e-01	1.238033e+00	4.468341e+01	-5.698034e+01	2.592415e+05	1.028495e+05	2.894012e+02	1.715038e-01	2.149441e+00	0.000000e+00	
1.490873e+00	-6.523436e-01	1.238025e+00	4.468263e+01	-5.698209e+01	2.592416e+05	1.028496e+05	2.894033e+02	1.715065e-01	2.149461e+00	0.000000e+00	
1.542206e+00	-6.810933e-01	1.238017e+00	4.468191e+01	-5.698355e+01	2.592417e+05	1.028496e+05	2.894052e+02	1.715087e-01	2.149489e+00	0.000000e+00	
1.593379e+00	-7.099137e-01	1.238010e+00	4.468122e+01	-5.698473e+01	2.592418e+05	1.028496e+05	2.894070e+02	1.715104e-01	2.149522e+00	0.000000e+00	
1.644471e+00	-7.387760e-01	1.238003e+00	4.468051e+01	-5.698558e+01	2.592419e+05	1.028496e+05	2.894085e+02	1.715113e-01	2.149560e+00	0.000000e+00	
1.695515e+00	-7.676637e-01	1.237999e+00	4.467973e+01	-5.698606e+01	2.592420e+05	1.028497e+05	2.894097e+02	1.715114e-01	2.149600e+00	0.000000e+00	
1.000000e+00	-4.166667e-01	1.238100e+00	4.469255e+01	-5.695521e+01	2.592415e+05	1.028499e+05	2.893867e+02	1.714653e-01	2.149999e+00	0.000000e+00	
1.750541e+00	-1.093258e+00	1.238052e+00	4.467242e+01	-5.698473e+01	2.592416e+05	1.028497e+05	2.893973e+02	1.714945e-01	2.149621e+00	0.000000e+00	
1.749304e+00	-1.034386e+00	1.238038e+00	4.467411e+01	-5.698556e+01	2.592417e+05	1.028497e+05	2.894004e+02	1.714995e-01	2.149607e+00	0.000000e+00	
1.748434e+00	-9.750108e-01	1.238025e+00	4.467570e+01	-5.698626e+01	2.592418e+05	1.028497e+05	2.894035e+02	1.715040e-01	2.149596e+00	0.000000e+00	
1.800221e+00	-1.182159e+00	1.238059e+00	4.467067e+01	-5.698384e+01	2.592416e+05	1.028497e+05	2.893958e+02	1.714898e-01	2.149703e+00	0.000000e+00	
1.747758e+00	-9.153829e-01	1.238013e+00	4.467714e+01	-5.698672e+01	2.592419e+05	1.028497e+05	2.894064e+02	1.715079e-01	2.149601e+00	0.000000e+00	
1.747140e+00	-8.558444e-01	1.238002e+00	4.467825e+01	-5.698675e+01	2.592420e+05	1.028497e+05	2.894089e+02	1.715102e-01	2.149615e+00	0.000000e+00	
1.746524e+00	-7.965773e-01	1.237995e+00	4.467883e+01	-5.698614e+01	2.592420e+05	1.028497e+05	2.894106e+02	1.715105e-01	2.149641e+00	0.000000e+00	
1.114880e+00	-4.060739e-01	1.238083e+00	4.468886e+01	-5.696191e+01	2.592417e+05	1.028499e+05	2.893907e+02	1.714737e-01	2.149962e+00	0.000000e+00	
1.166696e+00	-4.311516e-01	1.238074e+00	4.468813e+01	-5.696551e+01	2.592415e+05	1.028498e+05	2.893926e+02	1.714801e-01	2.149806e+00	0.000000e+00	
1.221074e+00	-4.564179e-01	1.238063e+00	4.468721e+01	-5.696896e+01	2.592415e+05	1.028497e+05	2.893949e+02	1.714859e-01	2.149724e+00	0.000000e+00	
1.065819e+00	-3.806343e-01	1.238091e+00	4.468941e+01	-5.695811e+01	2.592418e+05	1.028500e+05	2.893892e+02	1.714668e-01	2.150114e+00	0.000000e+00	
1.800616e+00	-1.123297e+00	1.238045e+00	4.467237e+01	-5.698500e+01	2.592417e+05	1.028497e+05	2.893991e+02	1.714954e-01	2.149698e+00	0.000000e+00	
1.849631e+00	-1.210478e+00	1.238051e+00	4.467092e+01	-5.698403e+01	2.592418e+05	1.028498e+05	2.893979e+02	1.714910e-01	2.149779e+00	0.000000e+00	
1.385424e+00	-5.370981e-01	1.238030e+00	4.468485e+01	-5.697765e+01	2.592417e+05	1.028496e+05	2.894023e+02	1.715010e-01	2.149577e+00	0.000000e+00	
1.331571e+00	-5.093972e-01	1.238040e+00	4.468556e+01	-5.697508e+01	2.592416e+05	1.028497e+05	2.894000e+02	1.714966e-01	2.149606e+00	0.000000e+00	
1.276546e+00	-4.824460e-01	1.238051e+00	4.468636e+01	-5.697217e+01	2.592415e+05	1.028497e+05	2.893974e+02	1.714915e-01	2.149649e+00	0.000000e+00	
1.438132e+00	-5.652974e-01	1.238021e+00	4.468417e+01	-5.697987e+01	2.592417e+05	1.028496e+05	2.894045e+02	1.715048e-01	2.149565e+00	0.000000e+00	
1.490036e+00	-5.937899e-01	1.238012e+00	4.468349e+01	-5.698172e+01	2.592418e+05	1.028496e+05	2.894064e+02	1.715079e-01	2.149565e+00	0.000000e+00	
1.541481e+00	-6.224415e-01	1.238006e+00	4.468278e+01	-5.698320e+01	2.592419e+05	1.028496e+05	2.894080e+02	1.715100e-01	2.149575e+00	0.000000e+00	
1.592697e+00	-6.511767e-01	1.238000e+00	4.468199e+01	-5.698427e+01	2.592419e+05	1.028497e+05	2.894094e+02	1.715113e-01	2.149593e+00	0.000000e+00	
1.643806e+00	-6.799565e-01	1.237996e+00	4.468107e+01	-5.698489e+01	2.592420e+05	1.028497e+05	2.894104e+02	1.715114e-01	2.149617e+00	0.000000e+00	
1.694866e+00	-7.087628e-01	1.237993e+00	4.467998e+01	-5.698503e+01	2.592420e+05	1.028497e+05	2.894112e+02	1.715102e-01	2.149645e+00	0.000000e+00	
1.745898e+00	-7.375912e-01	1.237991e+00	4.467868e+01	-5.698467e+01	2.592420e+05	1.028497e+05	2.894116e+02	1.715078e-01	2.149675e+00	0.000000e+00	
1.000000e+00	-3.571429e-01	1.238099e+00	4.468994e+01	-5.695375e+01	2.592419e+05	1.028502e+05	2.893876e+02	1.714587e-01	2.150326e+00	0.000000e+00	
1.799997e+00	-1.063912e+00	1.238031e+00	4.467401e+01	-5.698591e+01	2.592418e+05	1.028497e+05	2.894023e+02	1.715005e-01	2.149669e+00	0.000000e+00	
1.799274e+00	-1.004360e+00	1.238018e+00	4.467549e+01	-5.698663e+01	2.592419e+05	1.028497e+05	2.894053e+02	1.715049e-01	2.149659e+00	0.000000e+00	
1.798648e+00	-9.446210e-01	1.238007e+00	4.467674e+01	-5.698699e+01	2.592420e+05	1.028497e+05	2.894079e+02	1.715082e-01	2.149656e+00	0.000000e+00	
1.850071e+00	-1.152401e+00	1.238037e+00	4.467244e+01	-5.698525e+01	2.592419e+05	1.028498e+05	2.894010e+02	1.714965e-01	2.149758e+00	0.000000e+00	
1.798078e+00	-8.849494e-01	1.237998e+00	4.467757e+01	-5.698678e+01	2.592420e+05	1.028497e+05	2.894100e+02	1.715096e-01	2.149664e+00	0.000000e+00	
1.797506e+00	-8.255463e-01	1.237992e+00	4.467776e+01	-5.698578e+01	2.592420e+05	1.028497e+05	2.894113e+02	1.715084e-01	2.149681e+00	0.000000e+00	
1.796910e+00	-7.664523e-01	1.237990e+00	4.467714e+01	-5.698377e+01	2.592420e+05	1.028497e+05	2.894118e+02	1.715038e-01	2.149707e+00	0.000000e+00	
1.165428e+00	-3.731207e-01	1.238063e+00	4.468681e+01	-5.696419e+01	2.592419e+05	1.028500e+05	2.893957e+02	1.714763e-01	2.150060e+00	0.000000e+00	
1.114066e+00	-3.475137e-01	1.238074e+00	4.468702e+01	-5.696049e+01	2.592420e+05	1.028501e+05	2.893934e+02	1.714688e-01	2.150230e+00	0.000000e+00	