TITLE = "Visualization of the volumetric solution"
VARIABLES = "x","y","Density","Momentum_x","Momentum_y","Energy","Pressure","Temperature","Mach","C<sub>p</sub>","Roe_Dissipation"
ZONE NODES= 2364, ELEMENTS= 4524, DATAPACKING=POINT, ZONETYPE=FEQUADRILATERAL
-1.500000e-01	1.963462e-03	1.224535e+00	5.558336e+01	-3.020154e-06	2.544162e+05	1.012619e+05	2.880746e+02	1.334050e-01	-5.266055e-02	0.000000e+00	
-1.478836e-01	1.451775e-03	1.224535e+00	5.558336e+01	-7.251898e-06	2.544162e+05	1.012619e+05	2.880746e+02	1.334050e-01	-5.265505e-02	0.000000e+00	
-1.484334e-01	3.026602e-03	1.224535e+00	5.558336e+01	-5.996275e-06	2.544162e+05	1.012619e+05	2.880746e+02	1.334050e-01	-5.265656e-02	0.000000e+00	
-1.461478e-01	2.023344e-03	1.224535e+00	5.558336e+01	-6.504656e-06	2.544162e+05	1.012619e+05	2.880746e+02	1.334050e-01	-5.265279e-02	0.000000e+00	
-1.500000e-01	3.926923e-03	1.224535e+00	5.558336e+01	-1.944471e-06	2.544162e+05	1.012619e+05	2.880746e+02	1.334050e-01	-5.266040e-02	0.000000e+00	
-1.441570e-01	1.123039e-03	1.224535e+00	5.558337e+01	-3.628753e-06	2.544162e+05	1.012619e+05	2.880746e+02	1.334050e-01	-5.264893e-02	0.000000e+00	
-1.463116e-01	4.096790e-03	1.224535e+00	5.558335e+01	-7.370848e-06	2.544162e+05	1.012619e+05	2.880746e+02	1.334050e-01	-5.265296e-02	0.000000e+00	
-1.485406e-01	4.961598e-03	1.224535e+00	5.558335e+01	-4.545719e-06	2.544162e+05	1.012619e+05	2.880746e+02	1.334050e-01	-5.265634e-02	0.000000e+00	
-1.442488e-01	3.148938e-03	1.224535e+00	5.558335e+01	-6.280210e-06	2.544162e+05	1.012619e+05	2.880746e+02	1.334050e-01	-5.264932e-02	0.000000e+00	
-1.500000e-01	5.890385e-03	1.224535e+00	5.558336e+01	-7.572715e-08	2.544162e+05	1.012619e+05	2.880746e+02	1.334050e-01	-5.266026e-02	0.000000e+00	
-1.423632e-01	2.108638e-03	1.224535e+00	5.558336e+01	-4.320961e-06	2.544162e+05	1.012619e+05	2.880746e+02	1.334050e-01	-5.264599e-02	0.000000e+00	
-1.463638e-01	6.108693e-03	1.224535e+00	5.558335e+01	-4.434534e-06	2.544162e+05	1.012619e+05	2.880746e+02	1.334050e-01	-5.265308e-02	0.000000e+00	
-1.442916e-01	5.207404e-03	1.224535e+00	5.558334e+01	-6.331224e-06	2.544162e+05	1.012619e+05	2.880746e+02	1.334050e-01	-5.264932e-02	0.000000e+00	
-1.485635e-01	6.933678e-03	1.224535e+00	5.558335e+01	-1.656683e-06	2.544162e+05	1.012619e+05	2.880746e+02	1.334050e-01	-5.265635e-02	0.000000e+00	
-1.423681e-01	4.223747e-03	1.224535e+00	5.558334e+01	-6.343198e-06	2.544162e+05	1.012619e+05	2.880746e+02	1.334050e-01	-5.264606e-02	0.000000e+00	
-1.500000e-01	7.853846e-03	1.224535e+00	5.558335e+01	3.968880e-07	2.544162e+05	1.012619e+05	2.880746e+02	1.334050e-01	-5.266021e-02	0.000000e+00	
-1.405414e-01	3.193930e-03	1.224535e+00	5.558335e+01	-6.163466e-06	2.544162e+05	1.012619e+05	2.880747e+02	1.334050e-01	-5.264276e-02	0.000000e+00	
-1.406784e-01	1.461156e-03	1.224535e+00	5.558337e+01	-2.790745e-06	2.544162e+05	1.012619e+05	2.880747e+02	1.334050e-01	-5.264319e-02	0.000000e+00	
-1.443007e-01	7.232946e-03	1.224535e+00	5.558334e+01	-3.788326e-06	2.544162e+05	1.012619e+05	2.880746e+02	1.334050e-01	-5.264931e-02	0.000000e+00	
-1.463743e-01	8.100138e-03	1.224535e+00	5.558335e+01	-2.055291e-06	2.544162e+05	1.012619e+05	2.880746e+02	1.334050e-01	-5.265301e-02	0.000000e+00	
-1.423677e-01	6.287958e-03	1.224535e+00	5.558334e+01	-5.194502e-06	2.544162e+05	1.012619e+05	2.880746e+02	1.334049e-01	-5.264600e-02	0.000000e+00	
-1.485681e-01	8.904366e-03	1.224535e+00	5.558335e+01	-4.898500e-07	2.544162e+05	1.012619e+05	2.880746e+02	1.334050e-01	-5.265630e-02	0.000000e+00	
-1.405572e-01	5.260574e-03	1.224535e+00	5.558334e+01	-5.989167e-06	2.544162e+05	1.012619e+05	2.880747e+02	1.334049e-01	-5.264270e-02	0.000000e+00	
-1.500000e-01	9.817308e-03	1.224535e+00	5.558335e+01	2.262805e-07	2.544162e+05	1.012619e+05	2.880746e+02	1.334050e-01	-5.266020e-02	0.000000e+00	
-1.388609e-01	4.088100e-03	1.224535e+00	5.558334e+01	-5.370818e-06	2.544163e+05	1.012619e+05	2.880747e+02	1.334049e-01	-5.263954e-02	0.000000e+00	
-1.388860e-01	2.151455e-03	1.224535e+00	5.558337e+01	-3.844410e-06	2.544163e+05	1.012619e+05	2.880747e+02	1.334050e-01	-5.263971e-02	0.000000e+00	
-1.442965e-01	9.228845e-03	1.224535e+00	5.558334e+01	-1.565373e-06	2.544162e+05	1.012619e+05	2.880746e+02	1.334050e-01	-5.264929e-02	0.000000e+00	
-1.423564e-01	8.315752e-03	1.224535e+00	5.558334e+01	-2.676150e-06	2.544162e+05	1.012619e+05	2.880746e+02	1.334049e-01	-5.264598e-02	0.000000e+00	
-1.463733e-01	1.007599e-02	1.224535e+00	5.558335e+01	-7.264597e-07	2.544162e+05	1.012619e+05	2.880746e+02	1.334050e-01	-5.265300e-02	0.000000e+00	
-1.405360e-01	7.336897e-03	1.224535e+00	5.558333e+01	-3.768082e-06	2.544162e+05	1.012619e+05	2.880747e+02	1.334049e-01	-5.264267e-02	0.000000e+00	
-1.485689e-01	1.087076e-02	1.224535e+00	5.558335e+01	-2.123498e-07	2.544162e+05	1.012619e+05	2.880746e+02	1.334050e-01	-5.265628e-02	0.000000e+00	
-1.388080e-01	6.299373e-03	1.224535e+00	5.558333e+01	-4.132360e-06	2.544163e+05	1.012619e+05	2.880747e+02	1.334049e-01	-5.263950e-02	0.000000e+00	
-1.500000e-01	1.178077e-02	1.224535e+00	5.558335e+01	2.438474e-08	2.544162e+05	1.012619e+05	2.880746e+02	1.334050e-01	-5.266018e-02	0.000000e+00	
-1.373019e-01	3.172699e-03	1.224536e+00	5.558335e+01	-3.360557e-06	2.544163e+05	1.012619e+05	2.880747e+02	1.334050e-01	-5.263657e-02	0.000000e+00	
-1.371506e-01	5.268351e-03	1.224536e+00	5.558333e+01	-2.933523e-06	2.544163e+05	1.012619e+05	2.880747e+02	1.334049e-01	-5.263642e-02	0.000000e+00	
-1.371637e-01	1.501761e-03	1.224536e+00	5.558337e+01	-4.780838e-06	2.544163e+05	1.012619e+05	2.880747e+02	1.334050e-01	-5.263616e-02	0.000000e+00	
-1.423444e-01	1.030870e-02	1.224535e+00	5.558334e+01	-8.824801e-07	2.544162e+05	1.012619e+05	2.880746e+02	1.334050e-01	-5.264595e-02	0.000000e+00	
-1.442899e-01	1.120374e-02	1.224535e+00	5.558335e+01	-5.077066e-07	2.544162e+05	1.012619e+05	2.880746e+02	1.334050e-01	-5.264927e-02	0.000000e+00	
-1.405151e-01	9.359827e-03	1.224535e+00	5.558334e+01	-1.519884e-06	2.544162e+05	1.012619e+05	2.880747e+02	1.334049e-01	-5.264262e-02	0.000000e+00	
-1.463704e-01	1.204202e-02	1.224535e+00	5.558335e+01	-3.238489e-07	2.544162e+05	1.012619e+05	2.880746e+02	1.334050e-01	-5.265298e-02	0.000000e+00	
-1.387691e-01	8.368637e-03	1.224535e+00	5.558333e+01	-2.136982e-06	2.544163e+05	1.012619e+05	2.880747e+02	1.334049e-01	-5.263943e-02	0.000000e+00	
-1.485691e-01	1.283452e-02	1.224535e+00	5.558335e+01	-1.620889e-07	2.544162e+05	1.012619e+05	2.880746e+02	1.334050e-01	-5.265627e-02	0.000000e+00	
-1.370768e-01	7.356310e-03	1.224536e+00	5.558333e+01	-2.027730e-06	2.544163e+05	1.012619e+05	2.880747e+02	1.334049e-01	-5.263626e-02	0.000000e+00	
-1.500000e-01	1.374423e-02	1.224535e+00	5.558335e+01	-3.039301e-08	2.544162e+05	1.012619e+05	2.880746e+02	1.334050e-01	-5.266018e-02	0.000000e+00	
-1.355157e-01	4.246512e-03	1.224536e+00	5.558334e+01	-1.564594e-06	2.544163e+05	1.012619e+05	2.880747e+02	1.334049e-01	-5.263331e-02	0.000000e+00	
-1.356633e-01	2.090697e-03	1.224536e+00	5.558336e+01	-3.631998e-06	2.544163e+05	1.012619e+05	2.880747e+02	1.334050e-01	-5.263353e-02	0.000000e+00	
-1.354125e-01	6.337723e-03	1.224536e+00	5.558333e+01	-8.616259e-07	2.544163e+05	1.012619e+05	2.880747e+02	1.334049e-01	-5.263314e-02	0.000000e+00	
-1.423350e-01	1.227957e-02	1.224535e+00	5.558334e+01	-8.123791e-08	2.544162e+05	1.012619e+05	2.880746e+02	1.334050e-01	-5.264593e-02	0.000000e+00	
-1.405004e-01	1.134525e-02	1.224535e+00	5.558334e+01	-1.476639e-07	2.544162e+05	1.012619e+05	2.880747e+02	1.334049e-01	-5.264260e-02	0.000000e+00	
-1.442841e-01	1.316709e-02	1.224535e+00	5.558335e+01	-1.401483e-07	2.544162e+05	1.012619e+05	2.880746e+02	1.334050e-01	-5.264926e-02	0.000000e+00	
-1.387451e-01	1.037579e-02	1.224535e+00	5.558334e+01	-4.131022e-07	2.544163e+05	1.012619e+05	2.880747e+02	1.334049e-01	-5.263940e-02	0.000000e+00	
-1.463676e-01	1.400323e-02	1.224535e+00	5.558335e+01	-1.844839e-07	2.544162e+05	1.012619e+05	2.880746e+02	1.334050e-01	-5.265297e-02	0.000000e+00	
-1.370372e-01	9.384578e-03	1.224536e+00	5.558333e+01	-5.663914e-07	2.544163e+05	1.012619e+05	2.880747e+02	1.334049e-01	-5.263622e-02	0.000000e+00	
-1.485694e-01	1.479712e-02	1.224535e+00	5.558335e+01	-1.259692e-07	2.544162e+05	1.012619e+05	2.880746e+02	1.334050e-01	-5.265626e-02	0.000000e+00	
-1.353542e-01	8.381416e-03	1.224536e+00	5.558333e+01	-6.755398e-08	2.544163e+05	1.012619e+05	2.880747e+02	1.334049e-01	-5.263308e-02	0.000000e+00	
-1.340409e-01	1.142895e-03	1.224536e+00	5.558337e+01	-3.380518e-06	2.544163e+05	1.012619e+05	2.880747e+02	1.334050e-01	-5.263051e-02	0.000000e+00	
-1.500000e-01	1.570769e-02	1.224535e+00	5.558335e+01	-2.499426e-08	2.544162e+05	1.012619e+05	2.880746e+02	1.334050e-01	-5.266017e-02	0.000000e+00	
-1.337553e-01	5.305194e-03	1.224536e+00	5.558333e+01	2.495342e-07	2.544163e+05	1.012619e+05	2.880747e+02	1.334049e-01	-5.263006e-02	0.000000e+00	
-1.338699e-01	3.202235e-03	1.224536e+00	5.558334e+01	-1.225938e-06	2.544163e+05	1.012619e+05	2.880747e+02	1.334049e-01	-5.263025e-02	0.000000e+00	
-1.336822e-01	7.366286e-03	1.224536e+00	5.558332e+01	9.433692e-07	2.544163e+05	1.012619e+05	2.880747e+02	1.334049e-01	-5.262995e-02	0.000000e+00	
-1.423276e-01	1.423968e-02	1.224535e+00	5.558334e+01	1.489396e-07	2.544162e+05	1.012619e+05	2.880746e+02	1.334050e-01	-5.264592e-02	0.000000e+00	
-1.404902e-01	1.331093e-02	1.224535e+00	5.558334e+01	3.633766e-07	2.544162e+05	1.012619e+05	2.880747e+02	1.334049e-01	-5.264259e-02	0.000000e+00	
-1.387306e-01	1.235111e-02	1.224535e+00	5.558334e+01	4.802035e-07	2.544163e+05	1.012619e+05	2.880747e+02	1.334049e-01	-5.263937e-02	0.000000e+00	
-1.442790e-01	1.512539e-02	1.224535e+00	5.558335e+01	-3.561785e-08	2.544162e+05	1.012619e+05	2.880746e+02	1.334050e-01	-5.264925e-02	0.000000e+00	
-1.370158e-01	1.137213e-02	1.224536e+00	5.558334e+01	4.823380e-07	2.544163e+05	1.012619e+05	2.880747e+02	1.334049e-01	-5.263618e-02	0.000000e+00	
-1.463651e-01	1.596257e-02	1.224535e+00	5.558335e+01	-1.163555e-07	2.544162e+05	1.012619e+05	2.880746e+02	1.334050e-01	-5.265296e-02	0.000000e+00	
-1.353234e-01	1.038211e-02	1.224536e+00	5.558333e+01	6.257572e-07	2.544163e+05	1.012619e+05	2.880747e+02	1.334049e-01	-5.263303e-02	0.000000e+00	
-1.485698e-01	1.675933e-02	1.224535e+00	5.558335e+01	-8.749420e-08	2.544162e+05	1.012619e+05	2.880746e+02	1.334050e-01	-5.265626e-02	0.000000e+00	
-1.336412e-01	9.383164e-03	1.224536e+00	5.558333e+01	1.233052e-06	2.544163e+05	1.012619e+05	2.880747e+02	1.334049e-01	-5.262989e-02	0.000000e+00	
-1.321987e-01	2.095351e-03	1.224536e+00	5.558336e+01	-7.316028e-07	2.544163e+05	1.012619e+05	2.880747e+02	1.334050e-01	-5.262717e-02	0.000000e+00	
-1.500000e-01	1.767115e-02	1.224535e+00	5.558335e+01	-1.808768e-08	2.544162e+05	1.012619e+05	2.880746e+02	1.334050e-01	-5.266017e-02	0.000000e+00	
-1.320137e-01	6.328796e-03	1.224536e+00	5.558332e+01	1.907772e-06	2.544163e+05	1.012619e+05	2.880747e+02	1.334049e-01	-5.262685e-02	0.000000e+00	
-1.320939e-01	4.243179e-03	1.224536e+00	5.558333e+01	6.277836e-07	2.544163e+05	1.012619e+05	2.880747e+02	1.334049e-01	-5.262699e-02	0.000000e+00	
-1.319636e-01	8.370798e-03	1.224536e+00	5.558332e+01	2.186550e-06	2.544163e+05	1.012619e+05	2.880747e+02	1.334049e-01	-5.262676e-02	0.000000e+00	
-1.404822e-01	1.526811e-02	1.224535e+00	5.558334e+01	4.740590e-07	2.544162e+05	1.012619e+05	2.880747e+02	1.334049e-01	-5.264258e-02	0.000000e+00	
-1.423211e-01	1.619555e-02	1.224535e+00	5.558334e+01	1.970988e-07	2.544162e+05	1.012619e+05	2.880746e+02	1.334050e-01	-5.264591e-02	0.000000e+00	
-1.387208e-01	1.431176e-02	1.224535e+00	5.558334e+01	7.722776e-07	2.544163e+05	1.012619e+05	2.880747e+02	1.334049e-01	-5.263936e-02	0.000000e+00	
-1.370032e-01	1.333826e-02	1.224536e+00	5.558334e+01	1.004208e-06	2.544163e+05	1.012619e+05	2.880747e+02	1.334049e-01	-5.263617e-02	0.000000e+00	
-1.442744e-01	1.708190e-02	1.224535e+00	5.558335e+01	1.178214e-08	2.544162e+05	1.012619e+05	2.880746e+02	1.334050e-01	-5.264924e-02	0.000000e+00	
-1.353066e-01	1.235552e-02	1.224536e+00	5.558334e+01	1.188842e-06	2.544163e+05	1.012619e+05	2.880747e+02	1.334049e-01	-5.263302e-02	0.000000e+00	
-1.463627e-01	1.792131e-02	1.224535e+00	5.558335e+01	-7.180832e-08	2.544162e+05	1.012619e+05	2.880746e+02	1.334050e-01	-5.265295e-02	0.000000e+00	
-1.336192e-01	1.136681e-02	1.224536e+00	5.558333e+01	1.494268e-06	2.544163e+05	1.012619e+05	2.880747e+02	1.334049e-01	-5.262987e-02	0.000000e+00	
-1.485702e-01	1.872142e-02	1.224535e+00	5.558335e+01	-6.563842e-08	2.544162e+05	1.012619e+05	2.880746e+02	1.334050e-01	-5.265626e-02	0.000000e+00	
-1.319357e-01	1.037112e-02	1.224536e+00	5.558333e+01	2.146421e-06	2.544163e+05	1.012619e+05	2.880747e+02	1.334049e-01	-5.262673e-02	0.000000e+00	
-1.308572e-01	1.429194e-03	1.224536e+00	5.558336e+01	-1.367748e-07	2.544163e+05	1.012619e+05	2.880747e+02	1.334050e-01	-5.262474e-02	0.000000e+00	
-1.304303e-01	3.173585e-03	1.224536e+00	5.558334e+01	4.448902e-07	2.544163e+05	1.012619e+05	2.880747e+02	1.334049e-01	-5.262397e-02	0.000000e+00	
-1.500000e-01	1.963462e-02	1.224535e+00	5.558335e+01	-1.547081e-08	2.544162e+05	1.012619e+05	2.880746e+02	1.334050e-01	-5.266017e-02	0.000000e+00	
-1.303462e-01	5.249774e-03	1.224536e+00	5.558332e+01	2.349748e-06	2.544163e+05	1.012619e+05	2.880747e+02	1.334049e-01	-5.262372e-02	0.000000e+00	
-1.302882e-01	7.335124e-03	1.224536e+00	5.558332e+01	3.335192e-06	2.544163e+05	1.012619e+05	2.880747e+02	1.334049e-01	-5.262367e-02	0.000000e+00	
-1.302542e-01	9.364216e-03	1.224536e+00	5.558332e+01	3.116889e-06	2.544163e+05	1.012619e+05	2.880747e+02	1.334049e-01	-5.262360e-02	0.000000e+00	
-1.387128e-01	1.626674e-02	1.224535e+00	5.558334e+01	7.752512e-07	2.544163e+05	1.012619e+05	2.880747e+02	1.334049e-01	-5.263936e-02	0.000000e+00	
-1.404751e-01	1.722229e-02	1.224535e+00	5.558334e+01	4.528766e-07	2.544162e+05	1.012619e+05	2.880747e+02	1.334049e-01	-5.264257e-02	0.000000e+00	
-1.423151e-01	1.815007e-02	1.224535e+00	5.558334e+01	1.990996e-07	2.544162e+05	1.012619e+05	2.880746e+02	1.334050e-01	-5.264591e-02	0.000000e+00	
-1.369941e-01	1.529513e-02	1.224536e+00	5.558334e+01	1.115005e-06	2.544163e+05	1.012619e+05	2.880747e+02	1.334049e-01	-5.263616e-02	0.000000e+00	
-1.352961e-01	1.431546e-02	1.224536e+00	5.558334e+01	1.406430e-06	2.544163e+05	1.012619e+05	2.880747e+02	1.334049e-01	-5.263300e-02	0.000000e+00	
-1.442698e-01	1.903790e-02	1.224535e+00	5.558335e+01	3.284171e-08	2.544162e+05	1.012619e+05	2.880746e+02	1.334050e-01	-5.264924e-02	0.000000e+00	
-1.336064e-01	1.333164e-02	1.224536e+00	5.558334e+01	1.674771e-06	2.544163e+05	1.012619e+05	2.880747e+02	1.334049e-01	-5.262985e-02	0.000000e+00	
-1.463604e-01	1.987991e-02	1.224535e+00	5.558335e+01	-5.187091e-08	2.544162e+05	1.012619e+05	2.880746e+02	1.334050e-01	-5.265295e-02	0.000000e+00	
-1.319201e-01	1.234441e-02	1.224536e+00	5.558333e+01	2.037066e-06	2.544163e+05	1.012619e+05	2.880747e+02	1.334049e-01	-5.262671e-02	0.000000e+00	
-1.485706e-01	2.068350e-02	1.224535e+00	5.558335e+01	-5.810321e-08	2.544162e+05	1.012619e+05	2.880746e+02	1.334050e-01	-5.265625e-02	0.000000e+00	
-1.302352e-01	1.135235e-02	1.224536e+00	5.558333e+01	2.671368e-06	2.544163e+05	1.012619e+05	2.880747e+02	1.334049e-01	-5.262359e-02	0.000000e+00	
-1.287406e-01	2.075382e-03	1.224536e+00	5.558335e+01	-1.043614e-06	2.544163e+05	1.012619e+05	2.880747e+02	1.334049e-01	-5.262093e-02	0.000000e+00	
-1.286807e-01	4.045868e-03	1.224536e+00	5.558333e+01	2.120803e-06	2.544163e+05	1.012619e+05	2.880747e+02	1.334049e-01	-5.262062e-02	0.000000e+00	
-1.500000e-01	2.159808e-02	1.224535e+00	5.558335e+01	-1.459593e-08	2.544162e+05	1.012619e+05	2.880746e+02	1.334050e-01	-5.266017e-02	0.000000e+00	
-1.286124e-01	6.263213e-03	1.224536e+00	5.558332e+01	4.320083e-06	2.544163e+05	1.012619e+05	2.880747e+02	1.334049e-01	-5.262058e-02	0.000000e+00	
-1.285729e-01	8.341695e-03	1.224536e+00	5.558332e+01	4.338874e-06	2.544163e+05	1.012619e+05	2.880747e+02	1.334049e-01	-5.262050e-02	0.000000e+00	
-1.285508e-01	1.035342e-02	1.224536e+00	5.558333e+01	3.591982e-06	2.544163e+05	1.012619e+05	2.880747e+02	1.334049e-01	-5.262048e-02	0.000000e+00	
-1.369863e-01	1.724871e-02	1.224536e+00	5.558334e+01	1.040612e-06	2.544163e+05	1.012619e+05	2.880747e+02	1.334049e-01	-5.263615e-02	0.000000e+00	
-1.387054e-01	1.821988e-02	1.224535e+00	5.558334e+01	6.973948e-07	2.544163e+05	1.012619e+05	2.880747e+02	1.334049e-01	-5.263935e-02	0.000000e+00	
-1.404682e-01	1.917558e-02	1.224535e+00	5.558334e+01	4.076062e-07	2.544162e+05	1.012619e+05	2.880747e+02	1.334049e-01	-5.264256e-02	0.000000e+00	
-1.423091e-01	2.010422e-02	1.224535e+00	5.558334e+01	1.854871e-07	2.544162e+05	1.012619e+05	2.880746e+02	1.334050e-01	-5.264590e-02	0.000000e+00	
-1.352877e-01	1.627003e-02	1.224536e+00	5.558334e+01	1.395365e-06	2.544163e+05	1.012619e+05	2.880747e+02	1.334049e-01	-5.263300e-02	0.000000e+00	
-1.335973e-01	1.528805e-02	1.224536e+00	5.558334e+01	1.710030e-06	2.544163e+05	1.012619e+05	2.880747e+02	1.334049e-01	-5.262984e-02	0.000000e+00	
-1.442654e-01	2.099378e-02	1.224535e+00	5.558335e+01	3.240888e-08	2.544162e+05	1.012619e+05	2.880746e+02	1.334050e-01	-5.264923e-02	0.000000e+00	
-1.319099e-01	1.430427e-02	1.224536e+00	5.558333e+01	2.000375e-06	2.544163e+05	1.012619e+05	2.880747e+02	1.334049e-01	-5.262671e-02	0.000000e+00	
-1.463581e-01	2.183847e-02	1.224535e+00	5.558335e+01	-5.169716e-08	2.544162e+05	1.012619e+05	2.880746e+02	1.334050e-01	-5.265294e-02	0.000000e+00	
-1.302235e-01	1.331859e-02	1.224536e+00	5.558333e+01	2.341759e-06	2.544163e+05	1.012619e+05	2.880747e+02	1.334049e-01	-5.262358e-02	0.000000e+00	
-1.485710e-01	2.264556e-02	1.224535e+00	5.558335e+01	-5.980881e-08	2.544162e+05	1.012619e+05	2.880746e+02	1.334050e-01	-5.265625e-02	0.000000e+00	
-1.285375e-01	1.233021e-02	1.224536e+00	5.558333e+01	2.861366e-06	2.544163e+05	1.012619e+05	2.880747e+02	1.334049e-01	-5.262046e-02	0.000000e+00	
-1.270334e-01	3.042225e-03	1.224536e+00	5.558333e+01	6.877897e-07	2.544163e+05	1.012619e+05	2.880747e+02	1.334049e-01	-5.261753e-02	0.000000e+00	
-1.269844e-01	1.386434e-03	1.224536e+00	5.558335e+01	-4.074338e-06	2.544163e+05	1.012619e+05	2.880747e+02	1.334049e-01	-5.261748e-02	0.000000e+00	
-1.269274e-01	5.193247e-03	1.224536e+00	5.558332e+01	4.735226e-06	2.544163e+05	1.012619e+05	2.880747e+02	1.334048e-01	-5.261753e-02	0.000000e+00	
-1.500000e-01	2.356154e-02	1.224535e+00	5.558335e+01	-1.337435e-08	2.544162e+05	1.012619e+05	2.880746e+02	1.334050e-01	-5.266017e-02	0.000000e+00	
-1.268869e-01	7.308392e-03	1.224536e+00	5.558332e+01	5.372376e-06	2.544163e+05	1.012619e+05	2.880747e+02	1.334048e-01	-5.261740e-02	0.000000e+00	
-1.268650e-01	9.347479e-03	1.224536e+00	5.558332e+01	4.740366e-06	2.544163e+05	1.012619e+05	2.880747e+02	1.334049e-01	-5.261739e-02	0.000000e+00	
-1.268513e-01	1.133853e-02	1.224536e+00	5.558333e+01	3.582069e-06	2.544163e+05	1.012619e+05	2.880747e+02	1.334049e-01	-5.261735e-02	0.000000e+00	
-1.352800e-01	1.822286e-02	1.224536e+00	5.558334e+01	1.255573e-06	2.544163e+05	1.012619e+05	2.880747e+02	1.334049e-01	-5.263299e-02	0.000000e+00	
-1.369788e-01	1.920131e-02	1.224536e+00	5.558334e+01	9.100739e-07	2.544163e+05	1.012619e+05	2.880747e+02	1.334049e-01	-5.263615e-02	0.000000e+00	
-1.386981e-01	2.017254e-02	1.224535e+00	5.558334e+01	6.045465e-07	2.544163e+05	1.012619e+05	2.880747e+02	1.334049e-01	-5.263934e-02	0.000000e+00	
-1.404613e-01	2.112867e-02	1.224535e+00	5.558334e+01	3.539100e-07	2.544162e+05	1.012619e+05	2.880747e+02	1.334049e-01	-5.264255e-02	0.000000e+00	
-1.423031e-01	2.205830e-02	1.224535e+00	5.558335e+01	1.554025e-07	2.544162e+05	1.012619e+05	2.880746e+02	1.334050e-01	-5.264589e-02	0.000000e+00	
-1.335894e-01	1.724142e-02	1.224536e+00	5.558334e+01	1.605625e-06	2.544163e+05	1.012619e+05	2.880747e+02	1.334049e-01	-5.262984e-02	0.000000e+00	
-1.319016e-01	1.625878e-02	1.224536e+00	5.558334e+01	1.913647e-06	2.544163e+05	1.012619e+05	2.880747e+02	1.334049e-01	-5.262670e-02	0.000000e+00	
-1.442609e-01	2.294964e-02	1.224535e+00	5.558335e+01	1.353949e-08	2.544162e+05	1.012619e+05	2.880746e+02	1.334050e-01	-5.264922e-02	0.000000e+00	
-1.302147e-01	1.527538e-02	1.224536e+00	5.558333e+01	2.178748e-06	2.544163e+05	1.012619e+05	2.880747e+02	1.334049e-01	-5.262357e-02	0.000000e+00	
-1.463558e-01	2.379703e-02	1.224535e+00	5.558335e+01	-6.395048e-08	2.544162e+05	1.012619e+05	2.880746e+02	1.334050e-01	-5.265294e-02	0.000000e+00	
-1.285280e-01	1.429105e-02	1.224536e+00	5.558333e+01	2.443408e-06	2.544163e+05	1.012619e+05	2.880747e+02	1.334049e-01	-5.262045e-02	0.000000e+00	
-1.485715e-01	2.460763e-02	1.224535e+00	5.558335e+01	-6.589871e-08	2.544162e+05	1.012619e+05	2.880746e+02	1.334050e-01	-5.265625e-02	0.000000e+00	
-1.268414e-01	1.330546e-02	1.224536e+00	5.558333e+01	2.800677e-06	2.544163e+05	1.012619e+05	2.880747e+02	1.334049e-01	-5.261734e-02	0.000000e+00	
-1.251836e-01	4.115296e-03	1.224536e+00	5.558332e+01	3.042963e-06	2.544163e+05	1.012619e+05	2.880747e+02	1.334048e-01	-5.261434e-02	0.000000e+00	
-1.250932e-01	1.681339e-03	1.224536e+00	5.558334e+01	-2.017405e-06	2.544163e+05	1.012619e+05	2.880747e+02	1.334049e-01	-5.261429e-02	0.000000e+00	
-1.251839e-01	6.272877e-03	1.224536e+00	5.558331e+01	5.571142e-06	2.544163e+05	1.012619e+05	2.880747e+02	1.334048e-01	-5.261432e-02	0.000000e+00	
-1.500000e-01	2.552500e-02	1.224535e+00	5.558335e+01	-1.214603e-08	2.544162e+05	1.012619e+05	2.880746e+02	1.334050e-01	-5.266016e-02	0.000000e+00	
-1.251736e-01	8.337026e-03	1.224536e+00	5.558332e+01	5.604437e-06	2.544163e+05	1.012619e+05	2.880747e+02	1.334048e-01	-5.261430e-02	0.000000e+00	
-1.251634e-01	1.034368e-02	1.224536e+00	5.558332e+01	4.427040e-06	2.544163e+05	1.012619e+05	2.880747e+02	1.334049e-01	-5.261427e-02	0.000000e+00	
-1.251544e-01	1.231838e-02	1.224536e+00	5.558333e+01	3.282354e-06	2.544163e+05	1.012619e+05	2.880747e+02	1.334049e-01	-5.261425e-02	0.000000e+00	
-1.335818e-01	1.919390e-02	1.224536e+00	5.558334e+01	1.417865e-06	2.544163e+05	1.012619e+05	2.880747e+02	1.334049e-01	-5.262983e-02	0.000000e+00	
-1.352725e-01	2.017522e-02	1.224536e+00	5.558334e+01	1.081550e-06	2.544163e+05	1.012619e+05	2.880747e+02	1.334049e-01	-5.263298e-02	0.000000e+00	
-1.369713e-01	2.115368e-02	1.224536e+00	5.558334e+01	7.752018e-07	2.544163e+05	1.012619e+05	2.880747e+02	1.334049e-01	-5.263614e-02	0.000000e+00	
-1.386909e-01	2.212510e-02	1.224535e+00	5.558334e+01	5.123168e-07	2.544163e+05	1.012619e+05	2.880747e+02	1.334049e-01	-5.263933e-02	0.000000e+00	
-1.404545e-01	2.308172e-02	1.224535e+00	5.558334e+01	2.913973e-07	2.544162e+05	1.012619e+05	2.880747e+02	1.334049e-01	-5.264254e-02	0.000000e+00	
-1.422972e-01	2.401236e-02	1.224535e+00	5.558335e+01	1.117821e-07	2.544162e+05	1.012619e+05	2.880746e+02	1.334050e-01	-5.264588e-02	0.000000e+00	
-1.318939e-01	1.821157e-02	1.224536e+00	5.558334e+01	1.750715e-06	2.544163e+05	1.012619e+05	2.880747e+02	1.334049e-01	-5.262669e-02	0.000000e+00	
-1.302068e-01	1.722884e-02	1.224536e+00	5.558333e+01	2.033249e-06	2.544163e+05	1.012619e+05	2.880747e+02	1.334049e-01	-5.262356e-02	0.000000e+00	
-1.442564e-01	2.490550e-02	1.224535e+00	5.558335e+01	-1.622152e-08	2.544162e+05	1.012619e+05	2.880746e+02	1.334050e-01	-5.264922e-02	0.000000e+00	
-1.285199e-01	1.624580e-02	1.224536e+00	5.558333e+01	2.247053e-06	2.544163e+05	1.012619e+05	2.880747e+02	1.334049e-01	-5.262044e-02	0.000000e+00	
-1.463535e-01	2.575559e-02	1.224535e+00	5.558335e+01	-8.124964e-08	2.544162e+05	1.012619e+05	2.880746e+02	1.334050e-01	-5.265293e-02	0.000000e+00	
-1.268331e-01	1.526237e-02	1.224536e+00	5.558333e+01	2.410601e-06	2.544163e+05	1.012619e+05	2.880747e+02	1.334049e-01	-5.261733e-02	0.000000e+00	
-1.485720e-01	2.656970e-02	1.224535e+00	5.558335e+01	-7.297336e-08	2.544162e+05	1.012619e+05	2.880746e+02	1.334050e-01	-5.265625e-02	0.000000e+00	
-1.251463e-01	1.427840e-02	1.224536e+00	5.558333e+01	2.593404e-06	2.544163e+05	1.012619e+05	2.880747e+02	1.334049e-01	-5.261423e-02	0.000000e+00	
-1.234611e-01	5.251159e-03	1.224536e+00	5.558331e+01	4.919594e-06	2.544163e+05	1.012619e+05	2.880747e+02	1.334048e-01	-5.261121e-02	0.000000e+00	
-1.234046e-01	3.143695e-03	1.224536e+00	5.558332e+01	2.095913e-06	2.544163e+05	1.012619e+05	2.880747e+02	1.334048e-01	-5.261117e-02	0.000000e+00	
-1.231959e-01	1.399954e-03	1.224536e+00	5.558334e+01	-1.771143e-06	2.544163e+05	1.012619e+05	2.880747e+02	1.334049e-01	-5.261056e-02	0.000000e+00	
-1.234734e-01	7.325357e-03	1.224536e+00	5.558331e+01	5.903325e-06	2.544163e+05	1.012619e+05	2.880747e+02	1.334048e-01	-5.261122e-02	0.000000e+00	
-1.500000e-01	2.748846e-02	1.224535e+00	5.558335e+01	-1.144649e-08	2.544162e+05	1.012619e+05	2.880746e+02	1.334050e-01	-5.266016e-02	0.000000e+00	
-1.234721e-01	9.345870e-03	1.224536e+00	5.558332e+01	5.129085e-06	2.544163e+05	1.012619e+05	2.880747e+02	1.334049e-01	-5.261118e-02	0.000000e+00	
-1.234662e-01	1.132944e-02	1.224536e+00	5.558333e+01	3.867127e-06	2.544163e+05	1.012619e+05	2.880747e+02	1.334049e-01	-5.261116e-02	0.000000e+00	
-1.234591e-01	1.329364e-02	1.224536e+00	5.558333e+01	2.850437e-06	2.544163e+05	1.012619e+05	2.880747e+02	1.334049e-01	-5.261114e-02	0.000000e+00	
-1.318864e-01	2.016389e-02	1.224536e+00	5.558334e+01	1.524935e-06	2.544163e+05	1.012619e+05	2.880747e+02	1.334049e-01	-5.262668e-02	0.000000e+00	
-1.335743e-01	2.114616e-02	1.224536e+00	5.558334e+01	1.206626e-06	2.544163e+05	1.012619e+05	2.880747e+02	1.334049e-01	-5.262982e-02	0.000000e+00	
-1.352650e-01	2.212748e-02	1.224536e+00	5.558334e+01	9.094067e-07	2.544163e+05	1.012619e+05	2.880747e+02	1.334049e-01	-5.263297e-02	0.000000e+00	
-1.369639e-01	2.310601e-02	1.224536e+00	5.558334e+01	6.467522e-07	2.544163e+05	1.012619e+05	2.880747e+02	1.334049e-01	-5.263613e-02	0.000000e+00	
-1.386836e-01	2.407763e-02	1.224535e+00	5.558334e+01	4.171949e-07	2.544163e+05	1.012619e+05	2.880747e+02	1.334049e-01	-5.263932e-02	0.000000e+00	
-1.404477e-01	2.503475e-02	1.224535e+00	5.558334e+01	2.205274e-07	2.544162e+05	1.012619e+05	2.880747e+02	1.334049e-01	-5.264253e-02	0.000000e+00	
-1.422912e-01	2.596642e-02	1.224535e+00	5.558334e+01	6.108959e-08	2.544162e+05	1.012619e+05	2.880746e+02	1.334050e-01	-5.264587e-02	0.000000e+00	
-1.301992e-01	1.918133e-02	1.224536e+00	5.558333e+01	1.831808e-06	2.544163e+05	1.012619e+05	2.880747e+02	1.334049e-01	-5.262355e-02	0.000000e+00	
-1.285123e-01	1.819864e-02	1.224536e+00	5.558333e+01	2.079678e-06	2.544163e+05	1.012619e+05	2.880747e+02	1.334049e-01	-5.262042e-02	0.000000e+00	
-1.442519e-01	2.686135e-02	1.224535e+00	5.558335e+01	-4.771820e-08	2.544162e+05	1.012619e+05	2.880746e+02	1.334050e-01	-5.264921e-02	0.000000e+00	
-1.268254e-01	1.721584e-02	1.224536e+00	5.558333e+01	2.238882e-06	2.544163e+05	1.012619e+05	2.880747e+02	1.334049e-01	-5.261731e-02	0.000000e+00	
-1.463512e-01	2.771415e-02	1.224535e+00	5.558335e+01	-9.617093e-08	2.544162e+05	1.012619e+05	2.880746e+02	1.334050e-01	-5.265293e-02	0.000000e+00	
-1.251385e-01	1.623288e-02	1.224536e+00	5.558333e+01	2.314256e-06	2.544163e+05	1.012619e+05	2.880747e+02	1.334049e-01	-5.261421e-02	0.000000e+00	
-1.485725e-01	2.853178e-02	1.224535e+00	5.558335e+01	-7.680929e-08	2.544162e+05	1.012619e+05	2.880746e+02	1.334050e-01	-5.265624e-02	0.000000e+00	
-1.234516e-01	1.524967e-02	1.224536e+00	5.558333e+01	2.362129e-06	2.544163e+05	1.012619e+05	2.880747e+02	1.334049e-01	-5.261112e-02	0.000000e+00	
-1.217445e-01	4.228910e-03	1.224536e+00	5.558331e+01	4.529243e-06	2.544164e+05	1.012619e+05	2.880747e+02	1.334048e-01	-5.260806e-02	0.000000e+00	
-1.217667e-01	6.309589e-03	1.224536e+00	5.558331e+01	6.008935e-06	2.544164e+05	1.012619e+05	2.880747e+02	1.334048e-01	-5.260809e-02	0.000000e+00	
-1.217397e-01	2.090549e-03	1.224536e+00	5.558333e+01	5.730721e-07	2.544164e+05	1.012619e+05	2.880747e+02	1.334049e-01	-5.260798e-02	0.000000e+00	
-1.217761e-01	8.342975e-03	1.224536e+00	5.558332e+01	5.737402e-06	2.544164e+05	1.012619e+05	2.880747e+02	1.334048e-01	-5.260810e-02	0.000000e+00	
-1.500000e-01	2.945192e-02	1.224535e+00	5.558335e+01	-1.012396e-08	2.544162e+05	1.012619e+05	2.880746e+02	1.334050e-01	-5.266016e-02	0.000000e+00	
-1.217759e-01	1.033720e-02	1.224536e+00	5.558332e+01	4.501598e-06	2.544164e+05	1.012619e+05	2.880747e+02	1.334049e-01	-5.260808e-02	0.000000e+00	
-1.217711e-01	1.230735e-02	1.224536e+00	5.558333e+01	3.241837e-06	2.544164e+05	1.012619e+05	2.880747e+02	1.334049e-01	-5.260806e-02	0.000000e+00	
-1.217644e-01	1.426591e-02	1.224536e+00	5.558333e+01	2.455059e-06	2.544164e+05	1.012619e+05	2.880747e+02	1.334049e-01	-5.260805e-02	0.000000e+00	
-1.199762e-01	1.157702e-03	1.224536e+00	5.558333e+01	-1.226667e-06	2.544164e+05	1.012619e+05	2.880747e+02	1.334049e-01	-5.260493e-02	0.000000e+00	
-1.301917e-01	2.113359e-02	1.224536e+00	5.558333e+01	1.581834e-06	2.544163e+05	1.012619e+05	2.880747e+02	1.334049e-01	-5.262354e-02	0.000000e+00	
-1.318788e-01	2.211612e-02	1.224536e+00	5.558334e+01	1.286428e-06	2.544163e+05	1.012619e+05	2.880747e+02	1.334049e-01	-5.262667e-02	0.000000e+00	
-1.335668e-01	2.309839e-02	1.224536e+00	5.558334e+01	1.004184e-06	2.544163e+05	1.012619e+05	2.880747e+02	1.334049e-01	-5.262981e-02	0.000000e+00	
-1.352575e-01	2.407972e-02	1.224536e+00	5.558334e+01	7.483615e-07	2.544163e+05	1.012619e+05	2.880747e+02	1.334049e-01	-5.263296e-02	0.000000e+00	
-1.369565e-01	2.505833e-02	1.224536e+00	5.558334e+01	5.192273e-07	2.544163e+05	1.012619e+05	2.880747e+02	1.334049e-01	-5.263612e-02	0.000000e+00	
-1.386764e-01	2.603017e-02	1.224535e+00	5.558334e+01	3.163992e-07	2.544163e+05	1.012619e+05	2.880747e+02	1.334049e-01	-5.263931e-02	0.000000e+00	
-1.404409e-01	2.698779e-02	1.224535e+00	5.558334e+01	1.443145e-07	2.544162e+05	1.012619e+05	2.880747e+02	1.334049e-01	-5.264252e-02	0.000000e+00	
-1.422853e-01	2.792049e-02	1.224535e+00	5.558334e+01	1.071995e-08	2.544162e+05	1.012619e+05	2.880746e+02	1.334050e-01	-5.264586e-02	0.000000e+00	
-1.285047e-01	2.015097e-02	1.224536e+00	5.558333e+01	1.859161e-06	2.544163e+05	1.012619e+05	2.880747e+02	1.334049e-01	-5.262041e-02	0.000000e+00	
-1.268178e-01	1.916833e-02	1.224536e+00	5.558333e+01	2.072219e-06	2.544163e+05	1.012619e+05	2.880747e+02	1.334049e-01	-5.261730e-02	0.000000e+00	
-1.442475e-01	2.881721e-02	1.224535e+00	5.558335e+01	-7.315341e-08	2.544162e+05	1.012619e+05	2.880746e+02	1.334050e-01	-5.264920e-02	0.000000e+00	