TITLE = "Visualization of the volumetric solution"
VARIABLES = "x","y","Density","Momentum_x","Momentum_y","Energy","Pressure","Temperature","Mach","C<sub>p</sub>","Roe_Dissipation"
ZONE NODES= 2368, ELEMENTS= 4532, DATAPACKING=POINT, ZONETYPE=FEQUADRILATERAL
4.768107e-02	1.220150e-03	1.227118e+00	5.557482e+01	-7.968091e+00	2.551879e+05	1.015614e+05	2.883186e+02	1.344080e-01	1.972280e-01	0.000000e+00	
4.569681e-02	1.963462e-03	1.227108e+00	5.557162e+01	-7.966263e+00	2.551858e+05	1.015606e+05	2.883188e+02	1.344008e-01	1.965834e-01	0.000000e+00	
4.745044e-02	2.995146e-03	1.227119e+00	5.557360e+01	-7.967400e+00	2.551873e+05	1.015612e+05	2.883179e+02	1.344050e-01	1.970560e-01	0.000000e+00	
4.954719e-02	2.004144e-03	1.227116e+00	5.557330e+01	-7.967769e+00	2.551870e+05	1.015611e+05	2.883182e+02	1.344046e-01	1.969526e-01	0.000000e+00	
4.569681e-02	3.926923e-03	1.227126e+00	5.557844e+01	-7.967762e+00	2.551884e+05	1.015616e+05	2.883172e+02	1.344159e-01	1.973586e-01	0.000000e+00	
5.159399e-02	1.165041e-03	1.227117e+00	5.557430e+01	-7.968521e+00	2.551874e+05	1.015612e+05	2.883183e+02	1.344071e-01	1.970755e-01	0.000000e+00	
4.945755e-02	4.022997e-03	1.227120e+00	5.557204e+01	-7.966516e+00	2.551872e+05	1.015612e+05	2.883176e+02	1.344009e-01	1.970444e-01	0.000000e+00	
4.735376e-02	4.959046e-03	1.227119e+00	5.557450e+01	-7.964165e+00	2.551868e+05	1.015610e+05	2.883173e+02	1.344061e-01	1.968955e-01	0.000000e+00	
5.146586e-02	3.079064e-03	1.227119e+00	5.557093e+01	-7.967610e+00	2.551872e+05	1.015612e+05	2.883179e+02	1.343987e-01	1.970800e-01	0.000000e+00	
4.569681e-02	5.890385e-03	1.227118e+00	5.557463e+01	-7.960000e+00	2.551867e+05	1.015610e+05	2.883173e+02	1.344051e-01	1.968471e-01	0.000000e+00	
5.347195e-02	2.069816e-03	1.227119e+00	5.557142e+01	-7.968418e+00	2.551873e+05	1.015613e+05	2.883180e+02	1.344001e-01	1.971027e-01	0.000000e+00	
5.138027e-02	5.088540e-03	1.227121e+00	5.557093e+01	-7.966732e+00	2.551873e+05	1.015613e+05	2.883175e+02	1.343982e-01	1.971100e-01	0.000000e+00	
4.939854e-02	6.015006e-03	1.227122e+00	5.557178e+01	-7.965347e+00	2.551874e+05	1.015613e+05	2.883174e+02	1.343997e-01	1.971294e-01	0.000000e+00	
4.731945e-02	6.927681e-03	1.227122e+00	5.557171e+01	-7.963152e+00	2.551874e+05	1.015613e+05	2.883175e+02	1.343988e-01	1.971485e-01	0.000000e+00	
5.330192e-02	4.140638e-03	1.227120e+00	5.557007e+01	-7.967613e+00	2.551872e+05	1.015613e+05	2.883177e+02	1.343965e-01	1.970936e-01	0.000000e+00	
4.569681e-02	7.853846e-03	1.227120e+00	5.557086e+01	-7.960713e+00	2.551872e+05	1.015612e+05	2.883176e+02	1.343961e-01	1.970702e-01	0.000000e+00	
5.520820e-02	3.178327e-03	1.227120e+00	5.556970e+01	-7.968465e+00	2.551873e+05	1.015613e+05	2.883178e+02	1.343960e-01	1.971188e-01	0.000000e+00	
5.552752e-02	1.199090e-03	1.227118e+00	5.557221e+01	-7.969162e+00	2.551873e+05	1.015612e+05	2.883182e+02	1.344023e-01	1.970647e-01	0.000000e+00	
5.132909e-02	7.076554e-03	1.227121e+00	5.557188e+01	-7.966203e+00	2.551874e+05	1.015613e+05	2.883175e+02	1.344003e-01	1.971220e-01	0.000000e+00	
5.320813e-02	6.149496e-03	1.227122e+00	5.557105e+01	-7.967193e+00	2.551874e+05	1.015613e+05	2.883175e+02	1.343986e-01	1.971324e-01	0.000000e+00	
4.936665e-02	7.990023e-03	1.227121e+00	5.557239e+01	-7.965024e+00	2.551874e+05	1.015613e+05	2.883175e+02	1.344011e-01	1.971263e-01	0.000000e+00	
4.730602e-02	8.893408e-03	1.227122e+00	5.557246e+01	-7.963692e+00	2.551877e+05	1.015614e+05	2.883176e+02	1.344007e-01	1.972085e-01	0.000000e+00	
5.504298e-02	5.206360e-03	1.227121e+00	5.557005e+01	-7.967916e+00	2.551873e+05	1.015613e+05	2.883175e+02	1.343965e-01	1.971252e-01	0.000000e+00	
4.569681e-02	9.817308e-03	1.227123e+00	5.557290e+01	-7.962560e+00	2.551879e+05	1.015615e+05	2.883177e+02	1.344013e-01	1.972780e-01	0.000000e+00	
5.707174e-02	2.163413e-03	1.227119e+00	5.556996e+01	-7.968724e+00	2.551873e+05	1.015613e+05	2.883180e+02	1.343967e-01	1.971108e-01	0.000000e+00	
5.683942e-02	4.240962e-03	1.227121e+00	5.556931e+01	-7.968450e+00	2.551873e+05	1.015613e+05	2.883177e+02	1.343949e-01	1.971396e-01	0.000000e+00	
5.315858e-02	8.128032e-03	1.227122e+00	5.557321e+01	-7.967271e+00	2.551876e+05	1.015613e+05	2.883176e+02	1.344037e-01	1.971607e-01	0.000000e+00	
5.129995e-02	9.047996e-03	1.227122e+00	5.557407e+01	-7.966597e+00	2.551877e+05	1.015614e+05	2.883176e+02	1.344055e-01	1.971824e-01	0.000000e+00	
5.496222e-02	7.195605e-03	1.227122e+00	5.557220e+01	-7.967856e+00	2.551875e+05	1.015613e+05	2.883175e+02	1.344016e-01	1.971523e-01	0.000000e+00	
4.934950e-02	9.957488e-03	1.227122e+00	5.557485e+01	-7.965688e+00	2.551878e+05	1.015614e+05	2.883177e+02	1.344071e-01	1.972020e-01	0.000000e+00	
4.729889e-02	1.085858e-02	1.227122e+00	5.557543e+01	-7.964582e+00	2.551879e+05	1.015614e+05	2.883178e+02	1.344080e-01	1.972443e-01	0.000000e+00	
5.673690e-02	6.246236e-03	1.227122e+00	5.557103e+01	-7.968312e+00	2.551874e+05	1.015613e+05	2.883175e+02	1.343989e-01	1.971441e-01	0.000000e+00	
4.569681e-02	1.178077e-02	1.227123e+00	5.557565e+01	-7.963667e+00	2.551881e+05	1.015615e+05	2.883179e+02	1.344081e-01	1.973227e-01	0.000000e+00	
5.861605e-02	1.517465e-03	1.227119e+00	5.557091e+01	-7.968853e+00	2.551874e+05	1.015613e+05	2.883181e+02	1.343990e-01	1.971300e-01	0.000000e+00	
5.853985e-02	3.284818e-03	1.227120e+00	5.556903e+01	-7.968705e+00	2.551873e+05	1.015613e+05	2.883178e+02	1.343944e-01	1.971357e-01	0.000000e+00	
5.847590e-02	5.279078e-03	1.227121e+00	5.556997e+01	-7.968652e+00	2.551874e+05	1.015613e+05	2.883176e+02	1.343966e-01	1.971442e-01	0.000000e+00	
5.492197e-02	9.164404e-03	1.227121e+00	5.557512e+01	-7.968134e+00	2.551877e+05	1.015613e+05	2.883177e+02	1.344086e-01	1.971709e-01	0.000000e+00	
5.313206e-02	1.009490e-02	1.227121e+00	5.557618e+01	-7.967686e+00	2.551878e+05	1.015614e+05	2.883177e+02	1.344109e-01	1.971853e-01	0.000000e+00	
5.128311e-02	1.101487e-02	1.227121e+00	5.557710e+01	-7.967105e+00	2.551879e+05	1.015614e+05	2.883178e+02	1.344129e-01	1.972075e-01	0.000000e+00	
5.668659e-02	8.221332e-03	1.227122e+00	5.557395e+01	-7.968508e+00	2.551876e+05	1.015613e+05	2.883176e+02	1.344059e-01	1.971647e-01	0.000000e+00	
4.933923e-02	1.192438e-02	1.227122e+00	5.557772e+01	-7.966385e+00	2.551880e+05	1.015614e+05	2.883179e+02	1.344141e-01	1.972510e-01	0.000000e+00	
4.729396e-02	1.282431e-02	1.227122e+00	5.557781e+01	-7.965605e+00	2.551882e+05	1.015615e+05	2.883180e+02	1.344139e-01	1.972987e-01	0.000000e+00	
5.843711e-02	7.261712e-03	1.227122e+00	5.557265e+01	-7.968805e+00	2.551876e+05	1.015613e+05	2.883176e+02	1.344029e-01	1.971589e-01	0.000000e+00	
4.569681e-02	1.374423e-02	1.227123e+00	5.557738e+01	-7.965144e+00	2.551884e+05	1.015616e+05	2.883180e+02	1.344127e-01	1.973784e-01	0.000000e+00	
6.009394e-02	2.184318e-03	1.227120e+00	5.556960e+01	-7.969080e+00	2.551874e+05	1.015613e+05	2.883179e+02	1.343959e-01	1.971464e-01	0.000000e+00	
6.016119e-02	4.266586e-03	1.227121e+00	5.556921e+01	-7.968899e+00	2.551874e+05	1.015613e+05	2.883176e+02	1.343949e-01	1.971425e-01	0.000000e+00	
6.016698e-02	6.275993e-03	1.227122e+00	5.557132e+01	-7.969025e+00	2.551875e+05	1.015613e+05	2.883176e+02	1.343999e-01	1.971564e-01	0.000000e+00	
5.666166e-02	1.018625e-02	1.227121e+00	5.557712e+01	-7.968883e+00	2.551878e+05	1.015614e+05	2.883177e+02	1.344136e-01	1.971820e-01	0.000000e+00	
5.490158e-02	1.112944e-02	1.227121e+00	5.557814e+01	-7.968574e+00	2.551879e+05	1.015614e+05	2.883178e+02	1.344159e-01	1.971965e-01	0.000000e+00	
5.311758e-02	1.206180e-02	1.227121e+00	5.557896e+01	-7.968165e+00	2.551880e+05	1.015614e+05	2.883179e+02	1.344177e-01	1.972159e-01	0.000000e+00	
5.127318e-02	1.298314e-02	1.227121e+00	5.557946e+01	-7.967652e+00	2.551881e+05	1.015614e+05	2.883179e+02	1.344187e-01	1.972402e-01	0.000000e+00	
5.841588e-02	9.230133e-03	1.227121e+00	5.557594e+01	-7.969122e+00	2.551877e+05	1.015613e+05	2.883177e+02	1.344108e-01	1.971722e-01	0.000000e+00	
4.933276e-02	1.389236e-02	1.227122e+00	5.557944e+01	-7.967103e+00	2.551882e+05	1.015615e+05	2.883180e+02	1.344184e-01	1.972808e-01	0.000000e+00	
4.729041e-02	1.479025e-02	1.227122e+00	5.557884e+01	-7.966654e+00	2.551883e+05	1.015615e+05	2.883181e+02	1.344167e-01	1.973278e-01	0.000000e+00	
6.172056e-02	1.220216e-03	1.227120e+00	5.557034e+01	-7.969301e+00	2.551875e+05	1.015613e+05	2.883180e+02	1.343977e-01	1.971639e-01	0.000000e+00	
6.016320e-02	8.256398e-03	1.227122e+00	5.557460e+01	-7.969307e+00	2.551877e+05	1.015613e+05	2.883176e+02	1.344077e-01	1.971664e-01	0.000000e+00	
4.569681e-02	1.570769e-02	1.227122e+00	5.557792e+01	-7.966578e+00	2.551884e+05	1.015616e+05	2.883182e+02	1.344145e-01	1.973729e-01	0.000000e+00	
6.182036e-02	3.229436e-03	1.227120e+00	5.556887e+01	-7.968970e+00	2.551873e+05	1.015613e+05	2.883178e+02	1.343941e-01	1.971329e-01	0.000000e+00	
6.187469e-02	5.263666e-03	1.227122e+00	5.557014e+01	-7.969169e+00	2.551874e+05	1.015613e+05	2.883176e+02	1.343971e-01	1.971590e-01	0.000000e+00	
6.189623e-02	7.261205e-03	1.227122e+00	5.557315e+01	-7.969421e+00	2.551876e+05	1.015613e+05	2.883176e+02	1.344043e-01	1.971598e-01	0.000000e+00	
5.840547e-02	1.119679e-02	1.227121e+00	5.557892e+01	-7.969492e+00	2.551879e+05	1.015614e+05	2.883178e+02	1.344181e-01	1.971867e-01	0.000000e+00	
5.664976e-02	1.215307e-02	1.227121e+00	5.557978e+01	-7.969259e+00	2.551880e+05	1.015614e+05	2.883179e+02	1.344200e-01	1.971989e-01	0.000000e+00	
5.489151e-02	1.309790e-02	1.227121e+00	5.558039e+01	-7.968958e+00	2.551881e+05	1.015614e+05	2.883179e+02	1.344213e-01	1.972148e-01	0.000000e+00	
5.310998e-02	1.403153e-02	1.227121e+00	5.558068e+01	-7.968606e+00	2.551882e+05	1.015614e+05	2.883180e+02	1.344219e-01	1.972385e-01	0.000000e+00	
5.126772e-02	1.495270e-02	1.227121e+00	5.558058e+01	-7.968240e+00	2.551882e+05	1.015615e+05	2.883180e+02	1.344215e-01	1.972645e-01	0.000000e+00	
6.016028e-02	1.022716e-02	1.227121e+00	5.557786e+01	-7.969660e+00	2.551879e+05	1.015614e+05	2.883178e+02	1.344156e-01	1.971778e-01	0.000000e+00	
4.932903e-02	1.586028e-02	1.227122e+00	5.558003e+01	-7.967930e+00	2.551883e+05	1.015615e+05	2.883181e+02	1.344200e-01	1.973072e-01	0.000000e+00	
4.728805e-02	1.675569e-02	1.227122e+00	5.557914e+01	-7.967780e+00	2.551884e+05	1.015616e+05	2.883182e+02	1.344178e-01	1.973488e-01	0.000000e+00	
6.351066e-02	2.156064e-03	1.227121e+00	5.556936e+01	-7.969127e+00	2.551874e+05	1.015613e+05	2.883179e+02	1.343953e-01	1.971695e-01	0.000000e+00	
6.190616e-02	9.241864e-03	1.227121e+00	5.557660e+01	-7.969779e+00	2.551878e+05	1.015613e+05	2.883177e+02	1.344126e-01	1.971721e-01	0.000000e+00	
4.569681e-02	1.767115e-02	1.227122e+00	5.557838e+01	-7.967920e+00	2.551885e+05	1.015616e+05	2.883182e+02	1.344160e-01	1.973836e-01	0.000000e+00	
6.357322e-02	4.225600e-03	1.227121e+00	5.556937e+01	-7.969152e+00	2.551874e+05	1.015613e+05	2.883176e+02	1.343953e-01	1.971565e-01	0.000000e+00	
6.361211e-02	6.240246e-03	1.227122e+00	5.557176e+01	-7.969466e+00	2.551875e+05	1.015613e+05	2.883176e+02	1.344011e-01	1.971599e-01	0.000000e+00	
6.363607e-02	8.238880e-03	1.227121e+00	5.557518e+01	-7.969835e+00	2.551877e+05	1.015613e+05	2.883176e+02	1.344093e-01	1.971675e-01	0.000000e+00	
6.015983e-02	1.219919e-02	1.227121e+00	5.558040e+01	-7.969986e+00	2.551880e+05	1.015614e+05	2.883179e+02	1.344217e-01	1.971890e-01	0.000000e+00	
5.840149e-02	1.316764e-02	1.227121e+00	5.558103e+01	-7.969810e+00	2.551881e+05	1.015614e+05	2.883179e+02	1.344232e-01	1.972001e-01	0.000000e+00	
5.664495e-02	1.412409e-02	1.227121e+00	5.558141e+01	-7.969587e+00	2.551881e+05	1.015614e+05	2.883180e+02	1.344240e-01	1.972150e-01	0.000000e+00	
5.488731e-02	1.506901e-02	1.227121e+00	5.558153e+01	-7.969337e+00	2.551882e+05	1.015614e+05	2.883180e+02	1.344241e-01	1.972328e-01	0.000000e+00	
5.310680e-02	1.600187e-02	1.227121e+00	5.558134e+01	-7.969092e+00	2.551882e+05	1.015614e+05	2.883181e+02	1.344236e-01	1.972567e-01	0.000000e+00	
5.126546e-02	1.692136e-02	1.227121e+00	5.558090e+01	-7.968889e+00	2.551883e+05	1.015615e+05	2.883181e+02	1.344225e-01	1.972821e-01	0.000000e+00	
6.191225e-02	1.121806e-02	1.227121e+00	5.557954e+01	-7.970109e+00	2.551879e+05	1.015614e+05	2.883178e+02	1.344197e-01	1.971800e-01	0.000000e+00	
4.932741e-02	1.782678e-02	1.227122e+00	5.558022e+01	-7.968767e+00	2.551884e+05	1.015615e+05	2.883181e+02	1.344207e-01	1.973208e-01	0.000000e+00	
4.728663e-02	1.872021e-02	1.227122e+00	5.557946e+01	-7.968768e+00	2.551885e+05	1.015616e+05	2.883182e+02	1.344189e-01	1.973567e-01	0.000000e+00	
6.525732e-02	3.183370e-03	1.227121e+00	5.556895e+01	-7.969322e+00	2.551874e+05	1.015613e+05	2.883177e+02	1.343944e-01	1.971523e-01	0.000000e+00	
6.495144e-02	1.446441e-03	1.227119e+00	5.556941e+01	-7.969324e+00	2.551872e+05	1.015612e+05	2.883179e+02	1.343956e-01	1.970838e-01	0.000000e+00	
6.365060e-02	1.022415e-02	1.227121e+00	5.557846e+01	-7.970184e+00	2.551879e+05	1.015613e+05	2.883178e+02	1.344172e-01	1.971738e-01	0.000000e+00	
4.569681e-02	1.963462e-02	1.227122e+00	5.557892e+01	-7.968922e+00	2.551885e+05	1.015616e+05	2.883182e+02	1.344176e-01	1.973858e-01	0.000000e+00	
6.531005e-02	5.183434e-03	1.227121e+00	5.557054e+01	-7.969483e+00	2.551874e+05	1.015613e+05	2.883176e+02	1.343982e-01	1.971532e-01	0.000000e+00	
6.534854e-02	7.215670e-03	1.227122e+00	5.557369e+01	-7.969849e+00	2.551876e+05	1.015613e+05	2.883176e+02	1.344058e-01	1.971638e-01	0.000000e+00	
6.537191e-02	9.218092e-03	1.227121e+00	5.557718e+01	-7.970214e+00	2.551878e+05	1.015613e+05	2.883177e+02	1.344142e-01	1.971685e-01	0.000000e+00	
6.191738e-02	1.319600e-02	1.227120e+00	5.558152e+01	-7.970380e+00	2.551881e+05	1.015614e+05	2.883179e+02	1.344245e-01	1.971892e-01	0.000000e+00	
6.016157e-02	1.417452e-02	1.227120e+00	5.558193e+01	-7.970246e+00	2.551881e+05	1.015614e+05	2.883180e+02	1.344255e-01	1.971991e-01	0.000000e+00	
5.840139e-02	1.514124e-02	1.227121e+00	5.558213e+01	-7.970084e+00	2.551882e+05	1.015614e+05	2.883180e+02	1.344259e-01	1.972117e-01	0.000000e+00	
5.664426e-02	1.609616e-02	1.227121e+00	5.558213e+01	-7.969911e+00	2.551882e+05	1.015614e+05	2.883180e+02	1.344258e-01	1.972277e-01	0.000000e+00	
5.488674e-02	1.703933e-02	1.227121e+00	5.558192e+01	-7.969754e+00	2.551882e+05	1.015614e+05	2.883181e+02	1.344252e-01	1.972463e-01	0.000000e+00	
5.310657e-02	1.797015e-02	1.227121e+00	5.558155e+01	-7.969636e+00	2.551883e+05	1.015615e+05	2.883181e+02	1.344243e-01	1.972707e-01	0.000000e+00	
5.126545e-02	1.888758e-02	1.227121e+00	5.558108e+01	-7.969568e+00	2.551884e+05	1.015615e+05	2.883181e+02	1.344231e-01	1.972950e-01	0.000000e+00	
6.366044e-02	1.220640e-02	1.227121e+00	5.558088e+01	-7.970474e+00	2.551880e+05	1.015614e+05	2.883179e+02	1.344231e-01	1.971813e-01	0.000000e+00	
4.932726e-02	1.979133e-02	1.227122e+00	5.558049e+01	-7.969557e+00	2.551884e+05	1.015615e+05	2.883181e+02	1.344216e-01	1.973326e-01	0.000000e+00	
4.728583e-02	2.068383e-02	1.227122e+00	5.557989e+01	-7.969609e+00	2.551885e+05	1.015616e+05	2.883182e+02	1.344202e-01	1.973617e-01	0.000000e+00	
6.700099e-02	4.036072e-03	1.227121e+00	5.556960e+01	-7.969386e+00	2.551874e+05	1.015613e+05	2.883176e+02	1.343960e-01	1.971490e-01	0.000000e+00	
6.690713e-02	1.956953e-03	1.227121e+00	5.556915e+01	-7.969378e+00	2.551875e+05	1.015614e+05	2.883179e+02	1.343949e-01	1.971898e-01	0.000000e+00	
6.538693e-02	1.120757e-02	1.227121e+00	5.558004e+01	-7.970529e+00	2.551880e+05	1.015613e+05	2.883179e+02	1.344211e-01	1.971751e-01	0.000000e+00	
4.569681e-02	2.159808e-02	1.227122e+00	5.557945e+01	-7.969704e+00	2.551886e+05	1.015616e+05	2.883182e+02	1.344191e-01	1.973916e-01	0.000000e+00	
6.705003e-02	6.168320e-03	1.227122e+00	5.557225e+01	-7.969807e+00	2.551876e+05	1.015613e+05	2.883176e+02	1.344023e-01	1.971648e-01	0.000000e+00	
6.707943e-02	8.201515e-03	1.227121e+00	5.557576e+01	-7.970192e+00	2.551877e+05	1.015613e+05	2.883177e+02	1.344108e-01	1.971646e-01	0.000000e+00	
6.709851e-02	1.020248e-02	1.227121e+00	5.557898e+01	-7.970544e+00	2.551879e+05	1.015613e+05	2.883178e+02	1.344186e-01	1.971702e-01	0.000000e+00	
6.366831e-02	1.418895e-02	1.227120e+00	5.558233e+01	-7.970693e+00	2.551881e+05	1.015614e+05	2.883180e+02	1.344266e-01	1.971878e-01	0.000000e+00	
6.192263e-02	1.517477e-02	1.227120e+00	5.558258e+01	-7.970598e+00	2.551881e+05	1.015614e+05	2.883180e+02	1.344271e-01	1.971968e-01	0.000000e+00	
6.016494e-02	1.614990e-02	1.227120e+00	5.558266e+01	-7.970488e+00	2.551882e+05	1.015614e+05	2.883180e+02	1.344273e-01	1.972081e-01	0.000000e+00	
5.840369e-02	1.711356e-02	1.227121e+00	5.558261e+01	-7.970378e+00	2.551882e+05	1.015614e+05	2.883180e+02	1.344271e-01	1.972215e-01	0.000000e+00	
5.664610e-02	1.806572e-02	1.227121e+00	5.558244e+01	-7.970288e+00	2.551882e+05	1.015614e+05	2.883181e+02	1.344266e-01	1.972379e-01	0.000000e+00	
5.488847e-02	1.900642e-02	1.227121e+00	5.558218e+01	-7.970233e+00	2.551883e+05	1.015614e+05	2.883181e+02	1.344260e-01	1.972564e-01	0.000000e+00	
5.310826e-02	1.993519e-02	1.227121e+00	5.558186e+01	-7.970224e+00	2.551883e+05	1.015615e+05	2.883181e+02	1.344252e-01	1.972796e-01	0.000000e+00	
5.126688e-02	2.085116e-02	1.227121e+00	5.558149e+01	-7.970260e+00	2.551884e+05	1.015615e+05	2.883181e+02	1.344243e-01	1.973031e-01	0.000000e+00	
6.539782e-02	1.319431e-02	1.227120e+00	5.558190e+01	-7.970764e+00	2.551881e+05	1.015614e+05	2.883180e+02	1.344256e-01	1.971804e-01	0.000000e+00	
4.932801e-02	2.175422e-02	1.227122e+00	5.558101e+01	-7.970344e+00	2.551885e+05	1.015615e+05	2.883181e+02	1.344231e-01	1.973380e-01	0.000000e+00	
4.728541e-02	2.264680e-02	1.227122e+00	5.558045e+01	-7.970437e+00	2.551885e+05	1.015616e+05	2.883182e+02	1.344218e-01	1.973685e-01	0.000000e+00	
6.866492e-02	3.056624e-03	1.227121e+00	5.556911e+01	-7.969524e+00	2.551874e+05	1.015613e+05	2.883177e+02	1.343948e-01	1.971562e-01	0.000000e+00	
6.874578e-02	5.124854e-03	1.227122e+00	5.557104e+01	-7.969747e+00	2.551875e+05	1.015613e+05	2.883176e+02	1.343994e-01	1.971613e-01	0.000000e+00	
6.870691e-02	1.392898e-03	1.227120e+00	5.556914e+01	-7.969486e+00	2.551873e+05	1.015613e+05	2.883179e+02	1.343950e-01	1.971105e-01	0.000000e+00	
6.711202e-02	1.219390e-02	1.227120e+00	5.558129e+01	-7.970807e+00	2.551880e+05	1.015613e+05	2.883179e+02	1.344241e-01	1.971746e-01	0.000000e+00	
4.569681e-02	2.356154e-02	1.227122e+00	5.558001e+01	-7.970568e+00	2.551886e+05	1.015616e+05	2.883182e+02	1.344208e-01	1.973812e-01	0.000000e+00	
6.878053e-02	7.182613e-03	1.227121e+00	5.557431e+01	-7.970126e+00	2.551876e+05	1.015613e+05	2.883176e+02	1.344073e-01	1.971599e-01	0.000000e+00	
6.880084e-02	9.196034e-03	1.227121e+00	5.557774e+01	-7.970524e+00	2.551878e+05	1.015613e+05	2.883177e+02	1.344156e-01	1.971670e-01	0.000000e+00	
6.881523e-02	1.119173e-02	1.227121e+00	5.558047e+01	-7.970817e+00	2.551880e+05	1.015613e+05	2.883179e+02	1.344222e-01	1.971692e-01	0.000000e+00	
6.367549e-02	1.616939e-02	1.227120e+00	5.558308e+01	-7.970891e+00	2.551881e+05	1.015614e+05	2.883180e+02	1.344284e-01	1.971938e-01	0.000000e+00	
6.540682e-02	1.517925e-02	1.227120e+00	5.558292e+01	-7.970952e+00	2.551881e+05	1.015614e+05	2.883180e+02	1.344281e-01	1.971858e-01	0.000000e+00	
6.192826e-02	1.715068e-02	1.227120e+00	5.558313e+01	-7.970828e+00	2.551882e+05	1.015614e+05	2.883180e+02	1.344285e-01	1.972034e-01	0.000000e+00	
6.016944e-02	1.812166e-02	1.227120e+00	5.558310e+01	-7.970773e+00	2.551882e+05	1.015614e+05	2.883180e+02	1.344284e-01	1.972151e-01	0.000000e+00	
5.840746e-02	1.908181e-02	1.227121e+00	5.558302e+01	-7.970742e+00	2.551882e+05	1.015614e+05	2.883180e+02	1.344282e-01	1.972287e-01	0.000000e+00	
5.664946e-02	2.003117e-02	1.227121e+00	5.558290e+01	-7.970745e+00	2.551883e+05	1.015614e+05	2.883180e+02	1.344279e-01	1.972451e-01	0.000000e+00	
5.489159e-02	2.096982e-02	1.227121e+00	5.558277e+01	-7.970794e+00	2.551883e+05	1.015615e+05	2.883181e+02	1.344275e-01	1.972629e-01	0.000000e+00	
5.311109e-02	2.189730e-02	1.227121e+00	5.558259e+01	-7.970895e+00	2.551884e+05	1.015615e+05	2.883181e+02	1.344271e-01	1.972857e-01	0.000000e+00	
5.126915e-02	2.281276e-02	1.227122e+00	5.558237e+01	-7.971054e+00	2.551885e+05	1.015615e+05	2.883181e+02	1.344266e-01	1.973068e-01	0.000000e+00	
6.712273e-02	1.418270e-02	1.227120e+00	5.558265e+01	-7.971000e+00	2.551881e+05	1.015614e+05	2.883180e+02	1.344274e-01	1.971791e-01	0.000000e+00	
4.932927e-02	2.371604e-02	1.227122e+00	5.558198e+01	-7.971256e+00	2.551886e+05	1.015616e+05	2.883181e+02	1.344257e-01	1.973441e-01	0.000000e+00	
4.728517e-02	2.460944e-02	1.227122e+00	5.558149e+01	-7.971488e+00	2.551886e+05	1.015616e+05	2.883182e+02	1.344246e-01	1.973715e-01	0.000000e+00	
7.049479e-02	4.096815e-03	1.227121e+00	5.557005e+01	-7.969685e+00	2.551874e+05	1.015613e+05	2.883176e+02	1.343971e-01	1.971508e-01	0.000000e+00	
7.057211e-02	1.818122e-03	1.227121e+00	5.556900e+01	-7.969598e+00	2.551874e+05	1.015613e+05	2.883178e+02	1.343946e-01	1.971679e-01	0.000000e+00	
7.049332e-02	6.170961e-03	1.227122e+00	5.557294e+01	-7.970063e+00	2.551876e+05	1.015613e+05	2.883176e+02	1.344041e-01	1.971621e-01	0.000000e+00	
6.882682e-02	1.318296e-02	1.227120e+00	5.558223e+01	-7.971033e+00	2.551881e+05	1.015613e+05	2.883180e+02	1.344265e-01	1.971737e-01	0.000000e+00	
4.569681e-02	2.552500e-02	1.227123e+00	5.558109e+01	-7.971625e+00	2.551887e+05	1.015616e+05	2.883182e+02	1.344237e-01	1.974028e-01	0.000000e+00	
7.050271e-02	8.193777e-03	1.227121e+00	5.557640e+01	-7.970455e+00	2.551877e+05	1.015613e+05	2.883177e+02	1.344124e-01	1.971619e-01	0.000000e+00	
7.051338e-02	1.019209e-02	1.227121e+00	5.557948e+01	-7.970799e+00	2.551879e+05	1.015613e+05	2.883178e+02	1.344199e-01	1.971659e-01	0.000000e+00	
7.052387e-02	1.218357e-02	1.227120e+00	5.558164e+01	-7.971043e+00	2.551880e+05	1.015613e+05	2.883179e+02	1.344251e-01	1.971687e-01	0.000000e+00	
6.541497e-02	1.715936e-02	1.227120e+00	5.558355e+01	-7.971148e+00	2.551882e+05	1.015614e+05	2.883180e+02	1.344296e-01	1.971901e-01	0.000000e+00	
6.368248e-02	1.814448e-02	1.227120e+00	5.558364e+01	-7.971129e+00	2.551882e+05	1.015614e+05	2.883180e+02	1.344298e-01	1.971986e-01	0.000000e+00	
6.713205e-02	1.616754e-02	1.227120e+00	5.558342e+01	-7.971175e+00	2.551881e+05	1.015614e+05	2.883180e+02	1.344293e-01	1.971830e-01	0.000000e+00	
6.193425e-02	1.912112e-02	1.227120e+00	5.558370e+01	-7.971124e+00	2.551882e+05	1.015614e+05	2.883180e+02	1.344299e-01	1.972085e-01	0.000000e+00	
6.017465e-02	2.008823e-02	1.227121e+00	5.558376e+01	-7.971145e+00	2.551883e+05	1.015614e+05	2.883180e+02	1.344301e-01	1.972202e-01	0.000000e+00	
5.841210e-02	2.104545e-02	1.227121e+00	5.558381e+01	-7.971202e+00	2.551883e+05	1.015614e+05	2.883180e+02	1.344302e-01	1.972336e-01	0.000000e+00	
5.665370e-02	2.199283e-02	1.227121e+00	5.558386e+01	-7.971304e+00	2.551884e+05	1.015614e+05	2.883180e+02	1.344303e-01	1.972492e-01	0.000000e+00	
5.489549e-02	2.293036e-02	1.227121e+00	5.558391e+01	-7.971462e+00	2.551884e+05	1.015615e+05	2.883180e+02	1.344305e-01	1.972660e-01	0.000000e+00	
5.311454e-02	2.385751e-02	1.227121e+00	5.558392e+01	-7.971689e+00	2.551885e+05	1.015615e+05	2.883181e+02	1.344305e-01	1.972871e-01	0.000000e+00	
5.127186e-02	2.477334e-02	1.227122e+00	5.558386e+01	-7.971988e+00	2.551885e+05	1.015615e+05	2.883181e+02	1.344305e-01	1.973076e-01	0.000000e+00	
6.883696e-02	1.517133e-02	1.227120e+00	5.558322e+01	-7.971200e+00	2.551881e+05	1.015614e+05	2.883180e+02	1.344289e-01	1.971768e-01	0.000000e+00	
4.933079e-02	2.567751e-02	1.227122e+00	5.558364e+01	-7.972376e+00	2.551886e+05	1.015615e+05	2.883181e+02	1.344300e-01	1.973418e-01	0.000000e+00	
4.728504e-02	2.657209e-02	1.227122e+00	5.558322e+01	-7.972817e+00	2.551887e+05	1.015616e+05	2.883182e+02	1.344291e-01	1.973823e-01	0.000000e+00	
7.227081e-02	3.147519e-03	1.227121e+00	5.556947e+01	-7.969650e+00	2.551874e+05	1.015613e+05	2.883177e+02	1.343957e-01	1.971643e-01	0.000000e+00	
7.222042e-02	5.185416e-03	1.227121e+00	5.557171e+01	-7.969953e+00	2.551875e+05	1.015613e+05	2.883176e+02	1.344011e-01	1.971566e-01	0.000000e+00	
7.220934e-02	7.202050e-03	1.227121e+00	5.557505e+01	-7.970370e+00	2.551877e+05	1.015613e+05	2.883177e+02	1.344092e-01	1.971608e-01	0.000000e+00	
7.244846e-02	1.399231e-03	1.227120e+00	5.556906e+01	-7.969504e+00	2.551874e+05	1.015613e+05	2.883178e+02	1.343947e-01	1.971540e-01	0.000000e+00	
7.053392e-02	1.417339e-02	1.227120e+00	5.558293e+01	-7.971219e+00	2.551881e+05	1.015613e+05	2.883180e+02	1.344282e-01	1.971717e-01	0.000000e+00	
4.569681e-02	2.748846e-02	1.227122e+00	5.558279e+01	-7.973447e+00	2.551888e+05	1.015616e+05	2.883182e+02	1.344283e-01	1.973995e-01	0.000000e+00	
7.221135e-02	9.198444e-03	1.227121e+00	5.557833e+01	-7.970743e+00	2.551878e+05	1.015613e+05	2.883178e+02	1.344171e-01	1.971618e-01	0.000000e+00	
7.221818e-02	1.118747e-02	1.227120e+00	5.558089e+01	-7.971030e+00	2.551880e+05	1.015613e+05	2.883179e+02	1.344233e-01	1.971649e-01	0.000000e+00	
7.222682e-02	1.317617e-02	1.227120e+00	5.558252e+01	-7.971227e+00	2.551880e+05	1.015613e+05	2.883180e+02	1.344272e-01	1.971670e-01	0.000000e+00	
6.542269e-02	1.913245e-02	1.227120e+00	5.558428e+01	-7.971409e+00	2.551882e+05	1.015614e+05	2.883180e+02	1.344314e-01	1.971935e-01	0.000000e+00	
6.714060e-02	1.814555e-02	1.227120e+00	5.558410e+01	-7.971389e+00	2.551882e+05	1.015614e+05	2.883180e+02	1.344310e-01	1.971862e-01	0.000000e+00	
6.368941e-02	2.011296e-02	1.227120e+00	5.558447e+01	-7.971448e+00	2.551882e+05	1.015614e+05	2.883180e+02	1.344319e-01	1.972020e-01	0.000000e+00	
6.884620e-02	1.715389e-02	1.227120e+00	5.558392e+01	-7.971383e+00	2.551881e+05	1.015614e+05	2.883180e+02	1.344306e-01	1.971799e-01	0.000000e+00	
6.194048e-02	2.108580e-02	1.227121e+00	5.558468e+01	-7.971513e+00	2.551883e+05	1.015614e+05	2.883180e+02	1.344324e-01	1.972118e-01	0.000000e+00	
6.018027e-02	2.205010e-02	1.227121e+00	5.558490e+01	-7.971612e+00	2.551883e+05	1.015614e+05	2.883180e+02	1.344329e-01	1.972231e-01	0.000000e+00	
5.841722e-02	2.300550e-02	1.227121e+00	5.558514e+01	-7.971755e+00	2.551884e+05	1.015614e+05	2.883180e+02	1.344335e-01	1.972358e-01	0.000000e+00	
5.665840e-02	2.395197e-02	1.227121e+00	5.558537e+01	-7.971952e+00	2.551884e+05	1.015614e+05	2.883180e+02	1.344341e-01	1.972504e-01	0.000000e+00	
5.489978e-02	2.488938e-02	1.227121e+00	5.558559e+01	-7.972215e+00	2.551885e+05	1.015615e+05	2.883180e+02	1.344347e-01	1.972656e-01	0.000000e+00	
5.311831e-02	2.581706e-02	1.227121e+00	5.558575e+01	-7.972555e+00	2.551886e+05	1.015615e+05	2.883181e+02	1.344352e-01	1.972854e-01	0.000000e+00	
5.127481e-02	2.673391e-02	1.227122e+00	5.558585e+01	-7.972989e+00	2.551886e+05	1.015615e+05	2.883181e+02	1.344355e-01	1.973034e-01	0.000000e+00	
7.054345e-02	1.615929e-02	1.227120e+00	5.558373e+01	-7.971383e+00	2.551881e+05	1.015613e+05	2.883180e+02	1.344301e-01	1.971743e-01	0.000000e+00	
4.933248e-02	2.763937e-02	1.227122e+00	5.558577e+01	-7.973539e+00	2.551887e+05	1.015615e+05	2.883181e+02	1.344355e-01	1.973372e-01	0.000000e+00	
4.728501e-02	2.853510e-02	1.227122e+00	5.558549e+01	-7.974304e+00	2.551888e+05	1.015616e+05	2.883181e+02	1.344350e-01	1.973765e-01	0.000000e+00	
7.394810e-02	2.138740e-03	1.227121e+00	5.556918e+01	-7.969649e+00	2.551874e+05	1.015613e+05	2.883177e+02	1.343951e-01	1.971465e-01	0.000000e+00	
7.393413e-02	4.192336e-03	1.227121e+00	5.557073e+01	-7.969892e+00	2.551875e+05	1.015613e+05	2.883176e+02	1.343988e-01	1.971561e-01	0.000000e+00	
7.391613e-02	6.213059e-03	1.227121e+00	5.557370e+01	-7.970268e+00	2.551876e+05	1.015613e+05	2.883176e+02	1.344059e-01	1.971559e-01	0.000000e+00	
7.391030e-02	8.209561e-03	1.227121e+00	5.557708e+01	-7.970667e+00	2.551878e+05	1.015613e+05	2.883177e+02	1.344141e-01	1.971595e-01	0.000000e+00	
7.223595e-02	1.516351e-02	1.227120e+00	5.558350e+01	-7.971385e+00	2.551881e+05	1.015613e+05	2.883180e+02	1.344296e-01	1.971695e-01	0.000000e+00	
4.569681e-02	2.945192e-02	1.227123e+00	5.558532e+01	-7.975407e+00	2.551890e+05	1.015617e+05	2.883182e+02	1.344349e-01	1.974351e-01	0.000000e+00	
7.391230e-02	1.019561e-02	1.227121e+00	5.557997e+01	-7.970989e+00	2.551879e+05	1.015613e+05	2.883178e+02	1.344211e-01	1.971610e-01	0.000000e+00	
7.568528e-02	1.210863e-03	1.227121e+00	5.556912e+01	-7.969608e+00	2.551874e+05	1.015613e+05	2.883178e+02	1.343949e-01	1.971633e-01	0.000000e+00	
7.391840e-02	1.218127e-02	1.227120e+00	5.558198e+01	-7.971218e+00	2.551880e+05	1.015613e+05	2.883179e+02	1.344259e-01	1.971632e-01	0.000000e+00	
7.392633e-02	1.416796e-02	1.227120e+00	5.558320e+01	-7.971384e+00	2.551881e+05	1.015613e+05	2.883180e+02	1.344289e-01	1.971651e-01	0.000000e+00	
6.714865e-02	2.011576e-02	1.227120e+00	5.558507e+01	-7.971676e+00	2.551882e+05	1.015614e+05	2.883180e+02	1.344334e-01	1.971885e-01	0.000000e+00	
6.543017e-02	2.109856e-02	1.227120e+00	5.558540e+01	-7.971748e+00	2.551883e+05	1.015614e+05	2.883180e+02	1.344342e-01	1.971958e-01	0.000000e+00	
6.885479e-02	1.912850e-02	1.227120e+00	5.558478e+01	-7.971624e+00	2.551882e+05	1.015614e+05	2.883180e+02	1.344327e-01	1.971821e-01	0.000000e+00	
6.369631e-02	2.207569e-02	1.227120e+00	5.558576e+01	-7.971845e+00	2.551883e+05	1.015614e+05	2.883180e+02	1.344351e-01	1.972041e-01	0.000000e+00	
7.055241e-02	1.813803e-02	1.227120e+00	5.558451e+01	-7.971587e+00	2.551882e+05	1.015614e+05	2.883180e+02	1.344321e-01	1.971764e-01	0.000000e+00	
6.194684e-02	2.304605e-02	1.227121e+00	5.558613e+01	-7.971972e+00	2.551884e+05	1.015614e+05	2.883180e+02	1.344360e-01	1.972134e-01	0.000000e+00	
6.018611e-02	2.400883e-02	1.227121e+00	5.558650e+01	-7.972135e+00	2.551884e+05	1.015614e+05	2.883180e+02	1.344369e-01	1.972239e-01	0.000000e+00	
5.842258e-02	2.496360e-02	1.227121e+00	5.558686e+01	-7.972345e+00	2.551885e+05	1.015614e+05	2.883180e+02	1.344378e-01	1.972354e-01	0.000000e+00	
5.666332e-02	2.591020e-02	1.227121e+00	5.558718e+01	-7.972610e+00	2.551885e+05	1.015614e+05	2.883180e+02	1.344386e-01	1.972484e-01	0.000000e+00	
5.490427e-02	2.684837e-02	1.227121e+00	5.558745e+01	-7.972941e+00	2.551886e+05	1.015615e+05	2.883180e+02	1.344394e-01	1.972618e-01	0.000000e+00	
5.312225e-02	2.777728e-02	1.227121e+00	5.558763e+01	-7.973350e+00	2.551886e+05	1.015615e+05	2.883181e+02	1.344399e-01	1.972788e-01	0.000000e+00	
5.127793e-02	2.869563e-02	1.227121e+00	5.558770e+01	-7.973856e+00	2.551887e+05	1.015615e+05	2.883181e+02	1.344402e-01	1.972941e-01	0.000000e+00	
7.224491e-02	1.714549e-02	1.227120e+00	5.558427e+01	-7.971562e+00	2.551881e+05	1.015613e+05	2.883180e+02	1.344315e-01	1.971713e-01	0.000000e+00	