TITLE = "Visualization of the volumetric solution"
VARIABLES = "x","y","Density","Momentum_x","Momentum_y","Energy","Pressure","Temperature","Mach","C<sub>p</sub>","Roe_Dissipation"
ZONE NODES= 3200, ELEMENTS= 3081, DATAPACKING=POINT, ZONETYPE=FEQUADRILATERAL
-2.000000e+00	1.250000e+00	1.224769e+00	4.275114e+01	-6.267039e-10	2.539659e+05	1.012879e+05	2.880937e+02	1.025836e-01	-5.229214e-02	0.000000e+00	
-2.000000e+00	1.218354e+00	1.224769e+00	4.275114e+01	-1.809905e-06	2.539659e+05	1.012879e+05	2.880937e+02	1.025836e-01	-5.229233e-02	0.000000e+00	
-1.948718e+00	1.218354e+00	1.224769e+00	4.275114e+01	-3.551957e-06	2.539659e+05	1.012879e+05	2.880937e+02	1.025836e-01	-5.229405e-02	0.000000e+00	
-1.948718e+00	1.250000e+00	1.224769e+00	4.275114e+01	8.066448e-08	2.539659e+05	1.012879e+05	2.880937e+02	1.025836e-01	-5.229396e-02	0.000000e+00	
-2.000000e+00	1.186709e+00	1.224769e+00	4.275115e+01	-1.852028e-06	2.539659e+05	1.012879e+05	2.880937e+02	1.025836e-01	-5.229249e-02	0.000000e+00	
-1.948718e+00	1.186709e+00	1.224769e+00	4.275115e+01	-4.770849e-06	2.539659e+05	1.012879e+05	2.880937e+02	1.025836e-01	-5.229404e-02	0.000000e+00	
-2.000000e+00	1.155063e+00	1.224769e+00	4.275115e+01	-1.058897e-06	2.539659e+05	1.012879e+05	2.880937e+02	1.025836e-01	-5.229265e-02	0.000000e+00	
-1.948718e+00	1.155063e+00	1.224769e+00	4.275115e+01	-4.453765e-06	2.539659e+05	1.012879e+05	2.880937e+02	1.025836e-01	-5.229410e-02	0.000000e+00	
-2.000000e+00	1.123418e+00	1.224769e+00	4.275115e+01	-2.757377e-07	2.539659e+05	1.012879e+05	2.880937e+02	1.025836e-01	-5.229277e-02	0.000000e+00	
-1.948718e+00	1.123418e+00	1.224769e+00	4.275115e+01	-3.510621e-06	2.539659e+05	1.012879e+05	2.880937e+02	1.025836e-01	-5.229415e-02	0.000000e+00	
-2.000000e+00	1.091772e+00	1.224769e+00	4.275115e+01	7.909618e-08	2.539659e+05	1.012879e+05	2.880937e+02	1.025836e-01	-5.229287e-02	0.000000e+00	
-1.948718e+00	1.091772e+00	1.224769e+00	4.275115e+01	-2.826362e-06	2.539659e+05	1.012879e+05	2.880937e+02	1.025836e-01	-5.229421e-02	0.000000e+00	
-2.000000e+00	1.060127e+00	1.224769e+00	4.275115e+01	9.723430e-08	2.539659e+05	1.012879e+05	2.880937e+02	1.025836e-01	-5.229296e-02	0.000000e+00	
-1.948718e+00	1.060127e+00	1.224769e+00	4.275115e+01	-2.522563e-06	2.539659e+05	1.012879e+05	2.880937e+02	1.025836e-01	-5.229428e-02	0.000000e+00	
-2.000000e+00	1.028481e+00	1.224769e+00	4.275116e+01	2.491710e-09	2.539659e+05	1.012879e+05	2.880937e+02	1.025836e-01	-5.229304e-02	0.000000e+00	
-1.948718e+00	1.028481e+00	1.224769e+00	4.275116e+01	-2.448283e-06	2.539659e+05	1.012879e+05	2.880937e+02	1.025836e-01	-5.229434e-02	0.000000e+00	
-2.000000e+00	9.968354e-01	1.224769e+00	4.275116e+01	-5.538314e-08	2.539659e+05	1.012879e+05	2.880937e+02	1.025836e-01	-5.229313e-02	0.000000e+00	
-1.948718e+00	9.968354e-01	1.224769e+00	4.275116e+01	-2.394498e-06	2.539659e+05	1.012879e+05	2.880937e+02	1.025836e-01	-5.229440e-02	0.000000e+00	
-2.000000e+00	9.651899e-01	1.224769e+00	4.275116e+01	-5.125039e-08	2.539659e+05	1.012879e+05	2.880937e+02	1.025836e-01	-5.229320e-02	0.000000e+00	
-1.948718e+00	9.651899e-01	1.224769e+00	4.275116e+01	-2.282899e-06	2.539659e+05	1.012879e+05	2.880937e+02	1.025836e-01	-5.229447e-02	0.000000e+00	
-2.000000e+00	9.335443e-01	1.224769e+00	4.275116e+01	-1.731165e-08	2.539659e+05	1.012879e+05	2.880937e+02	1.025836e-01	-5.229327e-02	0.000000e+00	
-1.948718e+00	9.335443e-01	1.224769e+00	4.275116e+01	-2.120847e-06	2.539659e+05	1.012879e+05	2.880937e+02	1.025836e-01	-5.229452e-02	0.000000e+00	
-2.000000e+00	9.018987e-01	1.224769e+00	4.275116e+01	1.310962e-08	2.539659e+05	1.012879e+05	2.880937e+02	1.025836e-01	-5.229334e-02	0.000000e+00	
-1.948718e+00	9.018987e-01	1.224769e+00	4.275116e+01	-1.947965e-06	2.539659e+05	1.012879e+05	2.880937e+02	1.025836e-01	-5.229458e-02	0.000000e+00	
-2.000000e+00	8.702532e-01	1.224769e+00	4.275116e+01	2.792084e-08	2.539659e+05	1.012879e+05	2.880937e+02	1.025836e-01	-5.229339e-02	0.000000e+00	
-1.948718e+00	8.702532e-01	1.224769e+00	4.275116e+01	-1.789794e-06	2.539659e+05	1.012879e+05	2.880937e+02	1.025836e-01	-5.229463e-02	0.000000e+00	
-2.000000e+00	8.386076e-01	1.224769e+00	4.275116e+01	3.022118e-08	2.539659e+05	1.012879e+05	2.880937e+02	1.025836e-01	-5.229345e-02	0.000000e+00	
-1.948718e+00	8.386076e-01	1.224769e+00	4.275116e+01	-1.652799e-06	2.539659e+05	1.012879e+05	2.880937e+02	1.025836e-01	-5.229468e-02	0.000000e+00	
-2.000000e+00	8.069620e-01	1.224769e+00	4.275117e+01	2.712726e-08	2.539659e+05	1.012879e+05	2.880937e+02	1.025836e-01	-5.229350e-02	0.000000e+00	
-1.948718e+00	8.069620e-01	1.224769e+00	4.275117e+01	-1.532805e-06	2.539659e+05	1.012879e+05	2.880937e+02	1.025836e-01	-5.229472e-02	0.000000e+00	
-2.000000e+00	7.753165e-01	1.224769e+00	4.275117e+01	2.341226e-08	2.539659e+05	1.012879e+05	2.880937e+02	1.025836e-01	-5.229354e-02	0.000000e+00	
-1.948718e+00	7.753165e-01	1.224769e+00	4.275117e+01	-1.424089e-06	2.539659e+05	1.012879e+05	2.880937e+02	1.025836e-01	-5.229477e-02	0.000000e+00	
-2.000000e+00	7.436709e-01	1.224769e+00	4.275117e+01	2.060411e-08	2.539659e+05	1.012879e+05	2.880937e+02	1.025836e-01	-5.229358e-02	0.000000e+00	
-1.948718e+00	7.436709e-01	1.224769e+00	4.275117e+01	-1.323424e-06	2.539659e+05	1.012879e+05	2.880937e+02	1.025836e-01	-5.229481e-02	0.000000e+00	
-2.000000e+00	7.120253e-01	1.224769e+00	4.275117e+01	1.855424e-08	2.539659e+05	1.012879e+05	2.880937e+02	1.025836e-01	-5.229362e-02	0.000000e+00	
-1.948718e+00	7.120253e-01	1.224769e+00	4.275117e+01	-1.229594e-06	2.539659e+05	1.012879e+05	2.880937e+02	1.025836e-01	-5.229484e-02	0.000000e+00	
-2.000000e+00	6.803797e-01	1.224769e+00	4.275117e+01	1.675590e-08	2.539659e+05	1.012879e+05	2.880937e+02	1.025836e-01	-5.229366e-02	0.000000e+00	
-1.948718e+00	6.803797e-01	1.224769e+00	4.275117e+01	-1.142410e-06	2.539659e+05	1.012879e+05	2.880937e+02	1.025836e-01	-5.229488e-02	0.000000e+00	
-2.000000e+00	6.487342e-01	1.224769e+00	4.275117e+01	1.496570e-08	2.539659e+05	1.012879e+05	2.880937e+02	1.025836e-01	-5.229369e-02	0.000000e+00	
-1.948718e+00	6.487342e-01	1.224769e+00	4.275117e+01	-1.061588e-06	2.539659e+05	1.012879e+05	2.880937e+02	1.025836e-01	-5.229491e-02	0.000000e+00	
-2.000000e+00	6.170886e-01	1.224769e+00	4.275117e+01	1.316220e-08	2.539659e+05	1.012879e+05	2.880937e+02	1.025836e-01	-5.229372e-02	0.000000e+00	
-1.948718e+00	6.170886e-01	1.224769e+00	4.275117e+01	-9.867081e-07	2.539659e+05	1.012879e+05	2.880937e+02	1.025836e-01	-5.229494e-02	0.000000e+00	
-2.000000e+00	5.854430e-01	1.224769e+00	4.275117e+01	1.142718e-08	2.539659e+05	1.012879e+05	2.880937e+02	1.025836e-01	-5.229375e-02	0.000000e+00	
-1.948718e+00	5.854430e-01	1.224769e+00	4.275117e+01	-9.171507e-07	2.539659e+05	1.012879e+05	2.880937e+02	1.025836e-01	-5.229497e-02	0.000000e+00	
-2.000000e+00	5.537975e-01	1.224769e+00	4.275117e+01	9.818965e-09	2.539659e+05	1.012879e+05	2.880937e+02	1.025836e-01	-5.229377e-02	0.000000e+00	
-1.948718e+00	5.537975e-01	1.224769e+00	4.275117e+01	-8.523330e-07	2.539659e+05	1.012879e+05	2.880937e+02	1.025836e-01	-5.229500e-02	0.000000e+00	
-2.000000e+00	5.221519e-01	1.224769e+00	4.275117e+01	8.364007e-09	2.539659e+05	1.012879e+05	2.880937e+02	1.025836e-01	-5.229380e-02	0.000000e+00	
-1.948718e+00	5.221519e-01	1.224769e+00	4.275117e+01	-7.916956e-07	2.539659e+05	1.012879e+05	2.880937e+02	1.025836e-01	-5.229502e-02	0.000000e+00	
-2.000000e+00	4.905063e-01	1.224769e+00	4.275117e+01	7.057552e-09	2.539659e+05	1.012879e+05	2.880937e+02	1.025836e-01	-5.229382e-02	0.000000e+00	
-1.948718e+00	4.905063e-01	1.224769e+00	4.275117e+01	-7.347641e-07	2.539659e+05	1.012879e+05	2.880937e+02	1.025836e-01	-5.229504e-02	0.000000e+00	
-2.000000e+00	4.588608e-01	1.224769e+00	4.275117e+01	5.888663e-09	2.539659e+05	1.012879e+05	2.880937e+02	1.025836e-01	-5.229384e-02	0.000000e+00	
-1.948718e+00	4.588608e-01	1.224769e+00	4.275117e+01	-6.810995e-07	2.539659e+05	1.012879e+05	2.880937e+02	1.025836e-01	-5.229506e-02	0.000000e+00	
-2.000000e+00	4.272152e-01	1.224769e+00	4.275117e+01	4.842611e-09	2.539659e+05	1.012879e+05	2.880937e+02	1.025836e-01	-5.229386e-02	0.000000e+00	
-1.948718e+00	4.272152e-01	1.224769e+00	4.275117e+01	-6.303123e-07	2.539659e+05	1.012879e+05	2.880937e+02	1.025836e-01	-5.229508e-02	0.000000e+00	
-2.000000e+00	3.955696e-01	1.224769e+00	4.275117e+01	3.907719e-09	2.539659e+05	1.012879e+05	2.880937e+02	1.025836e-01	-5.229388e-02	0.000000e+00	
-1.948718e+00	3.955696e-01	1.224769e+00	4.275117e+01	-5.820381e-07	2.539659e+05	1.012879e+05	2.880937e+02	1.025836e-01	-5.229510e-02	0.000000e+00	
-2.000000e+00	3.639241e-01	1.224769e+00	4.275117e+01	3.071638e-09	2.539659e+05	1.012879e+05	2.880937e+02	1.025836e-01	-5.229390e-02	0.000000e+00	
-1.948718e+00	3.639241e-01	1.224769e+00	4.275117e+01	-5.359472e-07	2.539659e+05	1.012879e+05	2.880937e+02	1.025836e-01	-5.229512e-02	0.000000e+00	
-2.000000e+00	3.322785e-01	1.224769e+00	4.275117e+01	2.323548e-09	2.539659e+05	1.012879e+05	2.880937e+02	1.025836e-01	-5.229391e-02	0.000000e+00	
-1.948718e+00	3.322785e-01	1.224769e+00	4.275117e+01	-4.917335e-07	2.539659e+05	1.012879e+05	2.880937e+02	1.025836e-01	-5.229513e-02	0.000000e+00	
-2.000000e+00	3.006329e-01	1.224769e+00	4.275117e+01	1.652468e-09	2.539659e+05	1.012879e+05	2.880937e+02	1.025836e-01	-5.229393e-02	0.000000e+00	
-1.948718e+00	3.006329e-01	1.224769e+00	4.275117e+01	-4.491173e-07	2.539659e+05	1.012879e+05	2.880937e+02	1.025836e-01	-5.229515e-02	0.000000e+00	
-2.000000e+00	2.689873e-01	1.224769e+00	4.275117e+01	1.048828e-09	2.539659e+05	1.012879e+05	2.880937e+02	1.025836e-01	-5.229394e-02	0.000000e+00	
-1.948718e+00	2.689873e-01	1.224769e+00	4.275117e+01	-4.078397e-07	2.539659e+05	1.012879e+05	2.880937e+02	1.025836e-01	-5.229516e-02	0.000000e+00	
-2.000000e+00	2.373418e-01	1.224769e+00	4.275117e+01	5.036323e-10	2.539659e+05	1.012879e+05	2.880937e+02	1.025836e-01	-5.229395e-02	0.000000e+00	
-1.948718e+00	2.373418e-01	1.224769e+00	4.275118e+01	-3.676616e-07	2.539659e+05	1.012879e+05	2.880937e+02	1.025836e-01	-5.229517e-02	0.000000e+00	
-2.000000e+00	2.056962e-01	1.224769e+00	4.275117e+01	8.304109e-12	2.539659e+05	1.012879e+05	2.880937e+02	1.025836e-01	-5.229396e-02	0.000000e+00	
-1.948718e+00	2.056962e-01	1.224769e+00	4.275118e+01	-3.283603e-07	2.539659e+05	1.012879e+05	2.880937e+02	1.025836e-01	-5.229518e-02	0.000000e+00	
-2.000000e+00	1.740506e-01	1.224769e+00	4.275117e+01	-4.445434e-10	2.539659e+05	1.012879e+05	2.880937e+02	1.025836e-01	-5.229397e-02	0.000000e+00	
-1.948718e+00	1.740506e-01	1.224769e+00	4.275118e+01	-2.897282e-07	2.539659e+05	1.012879e+05	2.880937e+02	1.025836e-01	-5.229519e-02	0.000000e+00	
-2.000000e+00	1.424051e-01	1.224769e+00	4.275118e+01	-8.618561e-10	2.539659e+05	1.012879e+05	2.880937e+02	1.025836e-01	-5.229398e-02	0.000000e+00	
-1.948718e+00	1.424051e-01	1.224769e+00	4.275118e+01	-2.515700e-07	2.539659e+05	1.012879e+05	2.880937e+02	1.025836e-01	-5.229520e-02	0.000000e+00	
-2.000000e+00	1.107595e-01	1.224769e+00	4.275118e+01	-1.250311e-09	2.539659e+05	1.012879e+05	2.880937e+02	1.025836e-01	-5.229398e-02	0.000000e+00	
-1.948718e+00	1.107595e-01	1.224769e+00	4.275118e+01	-2.137020e-07	2.539659e+05	1.012879e+05	2.880937e+02	1.025836e-01	-5.229521e-02	0.000000e+00	
-2.000000e+00	7.911392e-02	1.224769e+00	4.275118e+01	-1.616122e-09	2.539659e+05	1.012879e+05	2.880937e+02	1.025836e-01	-5.229399e-02	0.000000e+00	
-1.948718e+00	7.911392e-02	1.224769e+00	4.275118e+01	-1.759495e-07	2.539659e+05	1.012879e+05	2.880937e+02	1.025836e-01	-5.229521e-02	0.000000e+00	
-2.000000e+00	4.746835e-02	1.224769e+00	4.275118e+01	-1.965027e-09	2.539659e+05	1.012879e+05	2.880937e+02	1.025836e-01	-5.229399e-02	0.000000e+00	
-1.948718e+00	4.746835e-02	1.224769e+00	4.275118e+01	-1.381454e-07	2.539659e+05	1.012879e+05	2.880937e+02	1.025836e-01	-5.229522e-02	0.000000e+00	
-2.000000e+00	1.582278e-02	1.224769e+00	4.275118e+01	-2.302216e-09	2.539659e+05	1.012879e+05	2.880937e+02	1.025836e-01	-5.229400e-02	0.000000e+00	
-1.948718e+00	1.582278e-02	1.224769e+00	4.275118e+01	-1.001284e-07	2.539659e+05	1.012879e+05	2.880937e+02	1.025836e-01	-5.229522e-02	0.000000e+00	
-2.000000e+00	-1.582278e-02	1.224769e+00	4.275118e+01	-2.633596e-09	2.539659e+05	1.012879e+05	2.880937e+02	1.025836e-01	-5.229400e-02	0.000000e+00	
-1.948718e+00	-1.582278e-02	1.224769e+00	4.275118e+01	-6.174256e-08	2.539659e+05	1.012879e+05	2.880937e+02	1.025836e-01	-5.229522e-02	0.000000e+00	
-2.000000e+00	-4.746835e-02	1.224769e+00	4.275118e+01	-2.964360e-09	2.539659e+05	1.012879e+05	2.880937e+02	1.025836e-01	-5.229400e-02	0.000000e+00	
-1.948718e+00	-4.746835e-02	1.224769e+00	4.275118e+01	-2.283481e-08	2.539659e+05	1.012879e+05	2.880937e+02	1.025836e-01	-5.229522e-02	0.000000e+00	
-2.000000e+00	-7.911392e-02	1.224769e+00	4.275118e+01	-3.299991e-09	2.539659e+05	1.012879e+05	2.880937e+02	1.025836e-01	-5.229400e-02	0.000000e+00	
-1.948718e+00	-7.911392e-02	1.224769e+00	4.275118e+01	1.674651e-08	2.539659e+05	1.012879e+05	2.880937e+02	1.025836e-01	-5.229522e-02	0.000000e+00	
-2.000000e+00	-1.107595e-01	1.224769e+00	4.275118e+01	-3.646239e-09	2.539659e+05	1.012879e+05	2.880937e+02	1.025836e-01	-5.229400e-02	0.000000e+00	
-1.948718e+00	-1.107595e-01	1.224769e+00	4.275118e+01	5.715250e-08	2.539659e+05	1.012879e+05	2.880937e+02	1.025836e-01	-5.229522e-02	0.000000e+00	
-2.000000e+00	-1.424051e-01	1.224769e+00	4.275118e+01	-4.008851e-09	2.539659e+05	1.012879e+05	2.880937e+02	1.025836e-01	-5.229400e-02	0.000000e+00	
-1.948718e+00	-1.424051e-01	1.224769e+00	4.275118e+01	9.853561e-08	2.539659e+05	1.012879e+05	2.880937e+02	1.025836e-01	-5.229522e-02	0.000000e+00	
-2.000000e+00	-1.740506e-01	1.224769e+00	4.275118e+01	-4.394393e-09	2.539659e+05	1.012879e+05	2.880937e+02	1.025836e-01	-5.229399e-02	0.000000e+00	
-1.948718e+00	-1.740506e-01	1.224769e+00	4.275118e+01	1.410515e-07	2.539659e+05	1.012879e+05	2.880937e+02	1.025836e-01	-5.229522e-02	0.000000e+00	
-2.000000e+00	-2.056962e-01	1.224769e+00	4.275118e+01	-4.809374e-09	2.539659e+05	1.012879e+05	2.880937e+02	1.025836e-01	-5.229399e-02	0.000000e+00	
-1.948718e+00	-2.056962e-01	1.224769e+00	4.275118e+01	1.848602e-07	2.539659e+05	1.012879e+05	2.880937e+02	1.025836e-01	-5.229521e-02	0.000000e+00	
-2.000000e+00	-2.373418e-01	1.224769e+00	4.275118e+01	-5.260858e-09	2.539659e+05	1.012879e+05	2.880937e+02	1.025836e-01	-5.229398e-02	0.000000e+00	
-1.948718e+00	-2.373418e-01	1.224769e+00	4.275118e+01	2.301290e-07	2.539659e+05	1.012879e+05	2.880937e+02	1.025836e-01	-5.229521e-02	0.000000e+00	
-2.000000e+00	-2.689873e-01	1.224769e+00	4.275118e+01	-5.756950e-09	2.539659e+05	1.012879e+05	2.880937e+02	1.025836e-01	-5.229398e-02	0.000000e+00	
-1.948718e+00	-2.689873e-01	1.224769e+00	4.275118e+01	2.770322e-07	2.539659e+05	1.012879e+05	2.880937e+02	1.025836e-01	-5.229520e-02	0.000000e+00	
-2.000000e+00	-3.006329e-01	1.224769e+00	4.275117e+01	-6.306271e-09	2.539659e+05	1.012879e+05	2.880937e+02	1.025836e-01	-5.229397e-02	0.000000e+00	
-1.948718e+00	-3.006329e-01	1.224769e+00	4.275118e+01	3.257564e-07	2.539659e+05	1.012879e+05	2.880937e+02	1.025836e-01	-5.229519e-02	0.000000e+00	
-2.000000e+00	-3.322785e-01	1.224769e+00	4.275117e+01	-6.918092e-09	2.539659e+05	1.012879e+05	2.880937e+02	1.025836e-01	-5.229396e-02	0.000000e+00	
-1.948718e+00	-3.322785e-01	1.224769e+00	4.275118e+01	3.764999e-07	2.539659e+05	1.012879e+05	2.880937e+02	1.025836e-01	-5.229518e-02	0.000000e+00	
-2.000000e+00	-3.639241e-01	1.224769e+00	4.275117e+01	-7.602632e-09	2.539659e+05	1.012879e+05	2.880937e+02	1.025836e-01	-5.229394e-02	0.000000e+00	
-1.948718e+00	-3.639241e-01	1.224769e+00	4.275117e+01	4.294778e-07	2.539659e+05	1.012879e+05	2.880937e+02	1.025836e-01	-5.229516e-02	0.000000e+00	
-2.000000e+00	-3.955696e-01	1.224769e+00	4.275117e+01	-8.371333e-09	2.539659e+05	1.012879e+05	2.880937e+02	1.025836e-01	-5.229393e-02	0.000000e+00	
-1.948718e+00	-3.955696e-01	1.224769e+00	4.275117e+01	4.849219e-07	2.539659e+05	1.012879e+05	2.880937e+02	1.025836e-01	-5.229515e-02	0.000000e+00	
-2.000000e+00	-4.272152e-01	1.224769e+00	4.275117e+01	-9.235653e-09	2.539659e+05	1.012879e+05	2.880937e+02	1.025836e-01	-5.229392e-02	0.000000e+00	
-1.948718e+00	-4.272152e-01	1.224769e+00	4.275117e+01	5.430877e-07	2.539659e+05	1.012879e+05	2.880937e+02	1.025836e-01	-5.229514e-02	0.000000e+00	
-2.000000e+00	-4.588608e-01	1.224769e+00	4.275117e+01	-1.020789e-08	2.539659e+05	1.012879e+05	2.880937e+02	1.025836e-01	-5.229390e-02	0.000000e+00	
-1.948718e+00	-4.588608e-01	1.224769e+00	4.275117e+01	6.042528e-07	2.539659e+05	1.012879e+05	2.880937e+02	1.025836e-01	-5.229512e-02	0.000000e+00	
-2.000000e+00	-4.905063e-01	1.224769e+00	4.275117e+01	-1.130101e-08	2.539659e+05	1.012879e+05	2.880937e+02	1.025836e-01	-5.229388e-02	0.000000e+00	
-1.948718e+00	-4.905063e-01	1.224769e+00	4.275117e+01	6.687255e-07	2.539659e+05	1.012879e+05	2.880937e+02	1.025836e-01	-5.229510e-02	0.000000e+00	
-2.000000e+00	-5.221519e-01	1.224769e+00	4.275117e+01	-1.252998e-08	2.539659e+05	1.012879e+05	2.880937e+02	1.025836e-01	-5.229386e-02	0.000000e+00	
-1.948718e+00	-5.221519e-01	1.224769e+00	4.275117e+01	7.368389e-07	2.539659e+05	1.012879e+05	2.880937e+02	1.025836e-01	-5.229508e-02	0.000000e+00	
-2.000000e+00	-5.537975e-01	1.224769e+00	4.275117e+01	-1.390646e-08	2.539659e+05	1.012879e+05	2.880937e+02	1.025836e-01	-5.229384e-02	0.000000e+00	
-1.948718e+00	-5.537975e-01	1.224769e+00	4.275117e+01	8.089731e-07	2.539659e+05	1.012879e+05	2.880937e+02	1.025836e-01	-5.229505e-02	0.000000e+00	
-2.000000e+00	-5.854430e-01	1.224769e+00	4.275117e+01	-1.543606e-08	2.539659e+05	1.012879e+05	2.880937e+02	1.025836e-01	-5.229381e-02	0.000000e+00	
-1.948718e+00	-5.854430e-01	1.224769e+00	4.275117e+01	8.855442e-07	2.539659e+05	1.012879e+05	2.880937e+02	1.025836e-01	-5.229503e-02	0.000000e+00	
-2.000000e+00	-6.170886e-01	1.224769e+00	4.275117e+01	-1.709306e-08	2.539659e+05	1.012879e+05	2.880937e+02	1.025836e-01	-5.229378e-02	0.000000e+00	
-1.948718e+00	-6.170886e-01	1.224769e+00	4.275117e+01	9.670512e-07	2.539659e+05	1.012879e+05	2.880937e+02	1.025836e-01	-5.229500e-02	0.000000e+00	
-2.000000e+00	-6.487342e-01	1.224769e+00	4.275117e+01	-1.881984e-08	2.539659e+05	1.012879e+05	2.880937e+02	1.025836e-01	-5.229375e-02	0.000000e+00	
-1.948718e+00	-6.487342e-01	1.224769e+00	4.275117e+01	1.054020e-06	2.539659e+05	1.012879e+05	2.880937e+02	1.025836e-01	-5.229497e-02	0.000000e+00	
-2.000000e+00	-6.803797e-01	1.224769e+00	4.275117e+01	-2.053567e-08	2.539659e+05	1.012879e+05	2.880937e+02	1.025836e-01	-5.229372e-02	0.000000e+00	
-1.948718e+00	-6.803797e-01	1.224769e+00	4.275117e+01	1.147008e-06	2.539659e+05	1.012879e+05	2.880937e+02	1.025836e-01	-5.229494e-02	0.000000e+00	
-2.000000e+00	-7.120253e-01	1.224769e+00	4.275117e+01	-2.226088e-08	2.539659e+05	1.012879e+05	2.880937e+02	1.025836e-01	-5.229368e-02	0.000000e+00	
-1.948718e+00	-7.120253e-01	1.224769e+00	4.275117e+01	1.246386e-06	2.539659e+05	1.012879e+05	2.880937e+02	1.025836e-01	-5.229490e-02	0.000000e+00	
-2.000000e+00	-7.436709e-01	1.224769e+00	4.275117e+01	-2.423879e-08	2.539659e+05	1.012879e+05	2.880937e+02	1.025836e-01	-5.229364e-02	0.000000e+00	
-1.948718e+00	-7.436709e-01	1.224769e+00	4.275117e+01	1.352378e-06	2.539659e+05	1.012879e+05	2.880937e+02	1.025836e-01	-5.229486e-02	0.000000e+00	
-2.000000e+00	-7.753165e-01	1.224769e+00	4.275117e+01	-2.697004e-08	2.539659e+05	1.012879e+05	2.880937e+02	1.025836e-01	-5.229360e-02	0.000000e+00	
-1.948718e+00	-7.753165e-01	1.224769e+00	4.275117e+01	1.465134e-06	2.539659e+05	1.012879e+05	2.880937e+02	1.025836e-01	-5.229482e-02	0.000000e+00	
-2.000000e+00	-8.069620e-01	1.224769e+00	4.275117e+01	-3.060155e-08	2.539659e+05	1.012879e+05	2.880937e+02	1.025836e-01	-5.229355e-02	0.000000e+00	
-1.948718e+00	-8.069620e-01	1.224769e+00	4.275117e+01	1.585809e-06	2.539659e+05	1.012879e+05	2.880937e+02	1.025836e-01	-5.229478e-02	0.000000e+00	
-2.000000e+00	-8.386076e-01	1.224769e+00	4.275117e+01	-3.360563e-08	2.539659e+05	1.012879e+05	2.880937e+02	1.025836e-01	-5.229350e-02	0.000000e+00	
-1.948718e+00	-8.386076e-01	1.224769e+00	4.275117e+01	1.717589e-06	2.539659e+05	1.012879e+05	2.880937e+02	1.025836e-01	-5.229473e-02	0.000000e+00	
-2.000000e+00	-8.702532e-01	1.224769e+00	4.275116e+01	-3.123643e-08	2.539659e+05	1.012879e+05	2.880937e+02	1.025836e-01	-5.229345e-02	0.000000e+00	
-1.948718e+00	-8.702532e-01	1.224769e+00	4.275116e+01	1.866106e-06	2.539659e+05	1.012879e+05	2.880937e+02	1.025836e-01	-5.229468e-02	0.000000e+00	
-2.000000e+00	-9.018987e-01	1.224769e+00	4.275116e+01	-1.640531e-08	2.539659e+05	1.012879e+05	2.880937e+02	1.025836e-01	-5.229339e-02	0.000000e+00	
-1.948718e+00	-9.018987e-01	1.224769e+00	4.275116e+01	2.035503e-06	2.539659e+05	1.012879e+05	2.880937e+02	1.025836e-01	-5.229463e-02	0.000000e+00	
-2.000000e+00	-9.335443e-01	1.224769e+00	4.275116e+01	1.396492e-08	2.539659e+05	1.012879e+05	2.880937e+02	1.025836e-01	-5.229332e-02	0.000000e+00	
-1.948718e+00	-9.335443e-01	1.224769e+00	4.275116e+01	2.219252e-06	2.539659e+05	1.012879e+05	2.880937e+02	1.025836e-01	-5.229457e-02	0.000000e+00	
-2.000000e+00	-9.651899e-01	1.224769e+00	4.275116e+01	4.791694e-08	2.539659e+05	1.012879e+05	2.880937e+02	1.025836e-01	-5.229325e-02	0.000000e+00	
-1.948718e+00	-9.651899e-01	1.224769e+00	4.275116e+01	2.392043e-06	2.539659e+05	1.012879e+05	2.880937e+02	1.025836e-01	-5.229451e-02	0.000000e+00	
-2.000000e+00	-9.968354e-01	1.224769e+00	4.275116e+01	5.243969e-08	2.539659e+05	1.012879e+05	2.880937e+02	1.025836e-01	-5.229317e-02	0.000000e+00	
-1.948718e+00	-9.968354e-01	1.224769e+00	4.275116e+01	2.514461e-06	2.539659e+05	1.012879e+05	2.880937e+02	1.025836e-01	-5.229444e-02	0.000000e+00	
-2.000000e+00	-1.028481e+00	1.224769e+00	4.275116e+01	-4.093230e-09	2.539659e+05	1.012879e+05	2.880937e+02	1.025836e-01	-5.229308e-02	0.000000e+00	
-1.948718e+00	-1.028481e+00	1.224769e+00	4.275116e+01	2.579715e-06	2.539659e+05	1.012879e+05	2.880937e+02	1.025836e-01	-5.229438e-02	0.000000e+00	
-2.000000e+00	-1.060127e+00	1.224769e+00	4.275115e+01	-9.622199e-08	2.539659e+05	1.012879e+05	2.880937e+02	1.025836e-01	-5.229299e-02	0.000000e+00	
-1.948718e+00	-1.060127e+00	1.224769e+00	4.275115e+01	2.665790e-06	2.539659e+05	1.012879e+05	2.880937e+02	1.025836e-01	-5.229430e-02	0.000000e+00	
-2.000000e+00	-1.091772e+00	1.224769e+00	4.275115e+01	-7.448044e-08	2.539659e+05	1.012879e+05	2.880937e+02	1.025836e-01	-5.229290e-02	0.000000e+00	
-1.948718e+00	-1.091772e+00	1.224769e+00	4.275115e+01	2.981092e-06	2.539659e+05	1.012879e+05	2.880937e+02	1.025836e-01	-5.229424e-02	0.000000e+00	
-2.000000e+00	-1.123418e+00	1.224769e+00	4.275115e+01	2.833814e-07	2.539659e+05	1.012879e+05	2.880937e+02	1.025836e-01	-5.229279e-02	0.000000e+00	
-1.948718e+00	-1.123418e+00	1.224769e+00	4.275115e+01	3.673903e-06	2.539659e+05	1.012879e+05	2.880937e+02	1.025836e-01	-5.229417e-02	0.000000e+00	
-2.000000e+00	-1.155063e+00	1.224769e+00	4.275115e+01	1.067175e-06	2.539659e+05	1.012879e+05	2.880937e+02	1.025836e-01	-5.229266e-02	0.000000e+00	
-1.948718e+00	-1.155063e+00	1.224769e+00	4.275115e+01	4.621311e-06	2.539659e+05	1.012879e+05	2.880937e+02	1.025836e-01	-5.229412e-02	0.000000e+00	
-2.000000e+00	-1.186709e+00	1.224769e+00	4.275115e+01	1.857559e-06	2.539659e+05	1.012879e+05	2.880937e+02	1.025836e-01	-5.229250e-02	0.000000e+00	
-1.948718e+00	-1.186709e+00	1.224769e+00	4.275115e+01	4.937011e-06	2.539659e+05	1.012879e+05	2.880937e+02	1.025836e-01	-5.229406e-02	0.000000e+00	
-2.000000e+00	-1.218354e+00	1.224769e+00	4.275114e+01	1.812322e-06	2.539659e+05	1.012879e+05	2.880937e+02	1.025836e-01	-5.229233e-02	0.000000e+00	
-1.948718e+00	-1.218354e+00	1.224769e+00	4.275114e+01	3.714662e-06	2.539659e+05	1.012879e+05	2.880937e+02	1.025836e-01	-5.229406e-02	0.000000e+00	
-1.897436e+00	1.218354e+00	1.224769e+00	4.275114e+01	-5.453511e-06	2.539659e+05	1.012879e+05	2.880937e+02	1.025836e-01	-5.229505e-02	0.000000e+00	
-1.897436e+00	1.250000e+00	1.224769e+00	4.275113e+01	1.564193e-07	2.539659e+05	1.012879e+05	2.880937e+02	1.025835e-01	-5.229498e-02	0.000000e+00	
-1.897436e+00	1.186709e+00	1.224769e+00	4.275115e+01	-8.194763e-06	2.539659e+05	1.012879e+05	2.880937e+02	1.025836e-01	-5.229505e-02	0.000000e+00	
-1.897436e+00	1.155063e+00	1.224769e+00	4.275115e+01	-8.438508e-06	2.539659e+05	1.012879e+05	2.880937e+02	1.025836e-01	-5.229511e-02	0.000000e+00	
-1.897436e+00	1.123418e+00	1.224769e+00	4.275115e+01	-7.284077e-06	2.539659e+05	1.012879e+05	2.880937e+02	1.025836e-01	-5.229516e-02	0.000000e+00	
-1.897436e+00	1.091772e+00	1.224769e+00	4.275115e+01	-6.085940e-06	2.539659e+05	1.012879e+05	2.880937e+02	1.025836e-01	-5.229521e-02	0.000000e+00	
-1.897436e+00	1.060127e+00	1.224769e+00	4.275115e+01	-5.312771e-06	2.539659e+05	1.012879e+05	2.880937e+02	1.025836e-01	-5.229527e-02	0.000000e+00	
-1.897436e+00	1.028481e+00	1.224769e+00	4.275116e+01	-4.945127e-06	2.539659e+05	1.012879e+05	2.880937e+02	1.025836e-01	-5.229532e-02	0.000000e+00	
-1.897436e+00	9.968354e-01	1.224769e+00	4.275116e+01	-4.726064e-06	2.539659e+05	1.012879e+05	2.880937e+02	1.025836e-01	-5.229538e-02	0.000000e+00	
-1.897436e+00	9.651899e-01	1.224769e+00	4.275116e+01	-4.494911e-06	2.539659e+05	1.012879e+05	2.880937e+02	1.025836e-01	-5.229543e-02	0.000000e+00	
-1.897436e+00	9.335443e-01	1.224769e+00	4.275116e+01	-4.206760e-06	2.539659e+05	1.012879e+05	2.880937e+02	1.025836e-01	-5.229548e-02	0.000000e+00	
-1.897436e+00	9.018987e-01	1.224769e+00	4.275116e+01	-3.892148e-06	2.539659e+05	1.012879e+05	2.880937e+02	1.025836e-01	-5.229553e-02	0.000000e+00	
-1.897436e+00	8.702532e-01	1.224769e+00	4.275116e+01	-3.587834e-06	2.539659e+05	1.012879e+05	2.880937e+02	1.025836e-01	-5.229558e-02	0.000000e+00	
-1.897436e+00	8.386076e-01	1.224769e+00	4.275116e+01	-3.312226e-06	2.539659e+05	1.012879e+05	2.880937e+02	1.025836e-01	-5.229562e-02	0.000000e+00	
-1.897436e+00	8.069620e-01	1.224769e+00	4.275117e+01	-3.066604e-06	2.539659e+05	1.012879e+05	2.880937e+02	1.025836e-01	-5.229566e-02	0.000000e+00	
-1.897436e+00	7.753165e-01	1.224769e+00	4.275117e+01	-2.844914e-06	2.539659e+05	1.012879e+05	2.880937e+02	1.025836e-01	-5.229570e-02	0.000000e+00	
-1.897436e+00	7.436709e-01	1.224769e+00	4.275117e+01	-2.641778e-06	2.539659e+05	1.012879e+05	2.880937e+02	1.025836e-01	-5.229574e-02	0.000000e+00	
-1.897436e+00	7.120253e-01	1.224769e+00	4.275117e+01	-2.453842e-06	2.539659e+05	1.012879e+05	2.880937e+02	1.025836e-01	-5.229577e-02	0.000000e+00	
-1.897436e+00	6.803797e-01	1.224769e+00	4.275117e+01	-2.279711e-06	2.539659e+05	1.012879e+05	2.880937e+02	1.025836e-01	-5.229580e-02	0.000000e+00	
-1.897436e+00	6.487342e-01	1.224769e+00	4.275117e+01	-2.118324e-06	2.539659e+05	1.012879e+05	2.880937e+02	1.025836e-01	-5.229583e-02	0.000000e+00	
-1.897436e+00	6.170886e-01	1.224769e+00	4.275117e+01	-1.968748e-06	2.539659e+05	1.012879e+05	2.880937e+02	1.025836e-01	-5.229586e-02	0.000000e+00	
-1.897436e+00	5.854430e-01	1.224769e+00	4.275117e+01	-1.829806e-06	2.539659e+05	1.012879e+05	2.880937e+02	1.025836e-01	-5.229589e-02	0.000000e+00	
-1.897436e+00	5.537975e-01	1.224769e+00	4.275117e+01	-1.700382e-06	2.539659e+05	1.012879e+05	2.880937e+02	1.025836e-01	-5.229591e-02	0.000000e+00	
-1.897436e+00	5.221519e-01	1.224769e+00	4.275117e+01	-1.579371e-06	2.539659e+05	1.012879e+05	2.880937e+02	1.025836e-01	-5.229594e-02	0.000000e+00	
-1.897436e+00	4.905063e-01	1.224769e+00	4.275117e+01	-1.465813e-06	2.539659e+05	1.012879e+05	2.880937e+02	1.025836e-01	-5.229596e-02	0.000000e+00	
-1.897436e+00	4.588608e-01	1.224769e+00	4.275117e+01	-1.358816e-06	2.539659e+05	1.012879e+05	2.880937e+02	1.025836e-01	-5.229598e-02	0.000000e+00	
-1.897436e+00	4.272152e-01	1.224769e+00	4.275117e+01	-1.257589e-06	2.539659e+05	1.012879e+05	2.880937e+02	1.025836e-01	-5.229600e-02	0.000000e+00	
-1.897436e+00	3.955696e-01	1.224769e+00	4.275117e+01	-1.161397e-06	2.539659e+05	1.012879e+05	2.880937e+02	1.025836e-01	-5.229602e-02	0.000000e+00	
-1.897436e+00	3.639241e-01	1.224769e+00	4.275117e+01	-1.069576e-06	2.539659e+05	1.012879e+05	2.880937e+02	1.025836e-01	-5.229603e-02	0.000000e+00	
-1.897436e+00	3.322785e-01	1.224769e+00	4.275117e+01	-9.815103e-07	2.539659e+05	1.012879e+05	2.880937e+02	1.025836e-01	-5.229605e-02	0.000000e+00	
-1.897436e+00	3.006329e-01	1.224769e+00	4.275117e+01	-8.966388e-07	2.539659e+05	1.012879e+05	2.880937e+02	1.025836e-01	-5.229606e-02	0.000000e+00	
-1.897436e+00	2.689873e-01	1.224769e+00	4.275117e+01	-8.144413e-07	2.539659e+05	1.012879e+05	2.880937e+02	1.025836e-01	-5.229607e-02	0.000000e+00	
-1.897436e+00	2.373418e-01	1.224769e+00	4.275117e+01	-7.344386e-07	2.539659e+05	1.012879e+05	2.880937e+02	1.025836e-01	-5.229609e-02	0.000000e+00	
-1.897436e+00	2.056962e-01	1.224769e+00	4.275118e+01	-6.561843e-07	2.539659e+05	1.012879e+05	2.880937e+02	1.025836e-01	-5.229610e-02	0.000000e+00	
-1.897436e+00	1.740506e-01	1.224769e+00	4.275118e+01	-5.792627e-07	2.539659e+05	1.012879e+05	2.880937e+02	1.025836e-01	-5.229611e-02	0.000000e+00	
-1.897436e+00	1.424051e-01	1.224769e+00	4.275118e+01	-5.032828e-07	2.539659e+05	1.012879e+05	2.880937e+02	1.025836e-01	-5.229611e-02	0.000000e+00	
-1.897436e+00	1.107595e-01	1.224769e+00	4.275118e+01	-4.278768e-07	2.539659e+05	1.012879e+05	2.880937e+02	1.025836e-01	-5.229612e-02	0.000000e+00	
-1.897436e+00	7.911392e-02	1.224769e+00	4.275118e+01	-3.526948e-07	2.539659e+05	1.012879e+05	2.880937e+02	1.025836e-01	-5.229613e-02	0.000000e+00	
-1.897436e+00	4.746835e-02	1.224769e+00	4.275118e+01	-2.774026e-07	2.539659e+05	1.012879e+05	2.880937e+02	1.025836e-01	-5.229613e-02	0.000000e+00	
-1.897436e+00	1.582278e-02	1.224769e+00	4.275118e+01	-2.016782e-07	2.539659e+05	1.012879e+05	2.880937e+02	1.025836e-01	-5.229613e-02	0.000000e+00	
-1.897436e+00	-1.582278e-02	1.224769e+00	4.275118e+01	-1.252091e-07	2.539659e+05	1.012879e+05	2.880937e+02	1.025836e-01	-5.229614e-02	0.000000e+00	
-1.897436e+00	-4.746835e-02	1.224769e+00	4.275118e+01	-4.768911e-08	2.539659e+05	1.012879e+05	2.880937e+02	1.025836e-01	-5.229614e-02	0.000000e+00	
-1.897436e+00	-7.911392e-02	1.224769e+00	4.275118e+01	3.118450e-08	2.539659e+05	1.012879e+05	2.880937e+02	1.025836e-01	-5.229614e-02	0.000000e+00	
-1.897436e+00	-1.107595e-01	1.224769e+00	4.275118e+01	1.117141e-07	2.539659e+05	1.012879e+05	2.880937e+02	1.025836e-01	-5.229614e-02	0.000000e+00	