TITLE = "Visualization of the volumetric solution"
VARIABLES = "x","y","Density","Momentum_x","Momentum_y","Energy","Pressure","Temperature","Mach","C<sub>p</sub>","Roe_Dissipation"
ZONE NODES= 2400, ELEMENTS= 2291, DATAPACKING=POINT, ZONETYPE=FEQUADRILATERAL
0.000000e+00	1.250000e+00	1.224770e+00	4.274969e+01	1.530035e-01	2.539647e+05	1.012875e+05	2.880923e+02	1.025809e-01	-5.291863e-02	0.000000e+00	
0.000000e+00	1.218354e+00	1.224769e+00	4.274972e+01	1.524802e-01	2.539647e+05	1.012874e+05	2.880923e+02	1.025810e-01	-5.296241e-02	0.000000e+00	
3.448276e-02	1.218354e+00	1.224690e+00	4.275094e+01	8.372176e-01	2.539431e+05	1.012787e+05	2.880861e+02	1.026108e-01	-6.530986e-02	0.000000e+00	
3.448276e-02	1.250000e+00	1.224689e+00	4.275106e+01	8.371046e-01	2.539431e+05	1.012787e+05	2.880861e+02	1.026111e-01	-6.533672e-02	0.000000e+00	
0.000000e+00	1.186709e+00	1.224769e+00	4.274984e+01	1.522567e-01	2.539647e+05	1.012875e+05	2.880923e+02	1.025813e-01	-5.293005e-02	0.000000e+00	
3.448276e-02	1.186709e+00	1.224689e+00	4.275108e+01	8.371740e-01	2.539431e+05	1.012787e+05	2.880861e+02	1.026111e-01	-6.532582e-02	0.000000e+00	
0.000000e+00	1.155063e+00	1.224770e+00	4.274994e+01	1.521250e-01	2.539648e+05	1.012875e+05	2.880923e+02	1.025815e-01	-5.291913e-02	0.000000e+00	
3.448276e-02	1.155063e+00	1.224689e+00	4.275125e+01	8.371607e-01	2.539431e+05	1.012787e+05	2.880861e+02	1.026115e-01	-6.532863e-02	0.000000e+00	
0.000000e+00	1.123418e+00	1.224770e+00	4.275004e+01	1.520515e-01	2.539648e+05	1.012875e+05	2.880923e+02	1.025818e-01	-5.291569e-02	0.000000e+00	
3.448276e-02	1.123418e+00	1.224689e+00	4.275138e+01	8.371484e-01	2.539431e+05	1.012787e+05	2.880861e+02	1.026118e-01	-6.533248e-02	0.000000e+00	
0.000000e+00	1.091772e+00	1.224770e+00	4.275012e+01	1.520104e-01	2.539648e+05	1.012875e+05	2.880923e+02	1.025820e-01	-5.291329e-02	0.000000e+00	
3.448276e-02	1.091772e+00	1.224689e+00	4.275148e+01	8.371437e-01	2.539431e+05	1.012787e+05	2.880861e+02	1.026121e-01	-6.533363e-02	0.000000e+00	
0.000000e+00	1.060127e+00	1.224770e+00	4.275017e+01	1.519817e-01	2.539648e+05	1.012875e+05	2.880923e+02	1.025821e-01	-5.291237e-02	0.000000e+00	
3.448276e-02	1.060127e+00	1.224689e+00	4.275154e+01	8.371364e-01	2.539431e+05	1.012787e+05	2.880861e+02	1.026122e-01	-6.533514e-02	0.000000e+00	
0.000000e+00	1.028481e+00	1.224770e+00	4.275020e+01	1.519615e-01	2.539648e+05	1.012875e+05	2.880923e+02	1.025821e-01	-5.291171e-02	0.000000e+00	
3.448276e-02	1.028481e+00	1.224689e+00	4.275157e+01	8.371300e-01	2.539431e+05	1.012787e+05	2.880861e+02	1.026123e-01	-6.533583e-02	0.000000e+00	
0.000000e+00	9.968354e-01	1.224770e+00	4.275020e+01	1.519468e-01	2.539648e+05	1.012875e+05	2.880923e+02	1.025822e-01	-5.291144e-02	0.000000e+00	
3.448276e-02	9.968354e-01	1.224689e+00	4.275157e+01	8.371235e-01	2.539431e+05	1.012787e+05	2.880861e+02	1.026123e-01	-6.533652e-02	0.000000e+00	
0.000000e+00	9.651899e-01	1.224770e+00	4.275019e+01	1.519365e-01	2.539648e+05	1.012875e+05	2.880923e+02	1.025821e-01	-5.291126e-02	0.000000e+00	
3.448276e-02	9.651899e-01	1.224689e+00	4.275157e+01	8.371183e-01	2.539431e+05	1.012787e+05	2.880861e+02	1.026123e-01	-6.533692e-02	0.000000e+00	
0.000000e+00	9.335443e-01	1.224770e+00	4.275018e+01	1.519291e-01	2.539648e+05	1.012875e+05	2.880923e+02	1.025821e-01	-5.291120e-02	0.000000e+00	
3.448276e-02	9.335443e-01	1.224689e+00	4.275156e+01	8.371139e-01	2.539431e+05	1.012787e+05	2.880861e+02	1.026123e-01	-6.533724e-02	0.000000e+00	
0.000000e+00	9.018987e-01	1.224770e+00	4.275017e+01	1.519233e-01	2.539648e+05	1.012875e+05	2.880923e+02	1.025821e-01	-5.291117e-02	0.000000e+00	
3.448276e-02	9.018987e-01	1.224689e+00	4.275155e+01	8.371103e-01	2.539431e+05	1.012787e+05	2.880861e+02	1.026122e-01	-6.533742e-02	0.000000e+00	
0.000000e+00	8.702532e-01	1.224770e+00	4.275017e+01	1.519185e-01	2.539648e+05	1.012875e+05	2.880923e+02	1.025821e-01	-5.291117e-02	0.000000e+00	
3.448276e-02	8.702532e-01	1.224689e+00	4.275154e+01	8.371071e-01	2.539431e+05	1.012787e+05	2.880861e+02	1.026122e-01	-6.533756e-02	0.000000e+00	
0.000000e+00	8.386076e-01	1.224770e+00	4.275016e+01	1.519143e-01	2.539648e+05	1.012875e+05	2.880923e+02	1.025821e-01	-5.291117e-02	0.000000e+00	
3.448276e-02	8.386076e-01	1.224689e+00	4.275154e+01	8.371043e-01	2.539431e+05	1.012787e+05	2.880861e+02	1.026122e-01	-6.533765e-02	0.000000e+00	
0.000000e+00	8.069620e-01	1.224770e+00	4.275016e+01	1.519105e-01	2.539648e+05	1.012875e+05	2.880923e+02	1.025821e-01	-5.291119e-02	0.000000e+00	
3.448276e-02	8.069620e-01	1.224689e+00	4.275154e+01	8.371016e-01	2.539431e+05	1.012787e+05	2.880861e+02	1.026122e-01	-6.533774e-02	0.000000e+00	
0.000000e+00	7.753165e-01	1.224770e+00	4.275017e+01	1.519070e-01	2.539648e+05	1.012875e+05	2.880923e+02	1.025821e-01	-5.291122e-02	0.000000e+00	
3.448276e-02	7.753165e-01	1.224689e+00	4.275154e+01	8.370991e-01	2.539431e+05	1.012787e+05	2.880861e+02	1.026122e-01	-6.533782e-02	0.000000e+00	
0.000000e+00	7.436709e-01	1.224770e+00	4.275017e+01	1.519037e-01	2.539648e+05	1.012875e+05	2.880923e+02	1.025821e-01	-5.291126e-02	0.000000e+00	
3.448276e-02	7.436709e-01	1.224689e+00	4.275155e+01	8.370968e-01	2.539431e+05	1.012787e+05	2.880861e+02	1.026122e-01	-6.533790e-02	0.000000e+00	
0.000000e+00	7.120253e-01	1.224770e+00	4.275017e+01	1.519008e-01	2.539648e+05	1.012875e+05	2.880923e+02	1.025821e-01	-5.291130e-02	0.000000e+00	
3.448276e-02	7.120253e-01	1.224689e+00	4.275155e+01	8.370947e-01	2.539431e+05	1.012787e+05	2.880861e+02	1.026122e-01	-6.533798e-02	0.000000e+00	
0.000000e+00	6.803797e-01	1.224770e+00	4.275017e+01	1.518981e-01	2.539648e+05	1.012875e+05	2.880923e+02	1.025821e-01	-5.291136e-02	0.000000e+00	
3.448276e-02	6.803797e-01	1.224689e+00	4.275155e+01	8.370928e-01	2.539431e+05	1.012787e+05	2.880861e+02	1.026122e-01	-6.533807e-02	0.000000e+00	
0.000000e+00	6.487342e-01	1.224770e+00	4.275017e+01	1.518956e-01	2.539648e+05	1.012875e+05	2.880923e+02	1.025821e-01	-5.291142e-02	0.000000e+00	
3.448276e-02	6.487342e-01	1.224689e+00	4.275155e+01	8.370910e-01	2.539431e+05	1.012787e+05	2.880861e+02	1.026122e-01	-6.533816e-02	0.000000e+00	
0.000000e+00	6.170886e-01	1.224770e+00	4.275017e+01	1.518933e-01	2.539648e+05	1.012875e+05	2.880923e+02	1.025821e-01	-5.291149e-02	0.000000e+00	
3.448276e-02	6.170886e-01	1.224689e+00	4.275155e+01	8.370894e-01	2.539431e+05	1.012787e+05	2.880861e+02	1.026122e-01	-6.533826e-02	0.000000e+00	
0.000000e+00	5.854430e-01	1.224770e+00	4.275017e+01	1.518912e-01	2.539648e+05	1.012875e+05	2.880923e+02	1.025821e-01	-5.291156e-02	0.000000e+00	
3.448276e-02	5.854430e-01	1.224689e+00	4.275155e+01	8.370879e-01	2.539431e+05	1.012787e+05	2.880861e+02	1.026122e-01	-6.533835e-02	0.000000e+00	
0.000000e+00	5.537975e-01	1.224770e+00	4.275017e+01	1.518893e-01	2.539648e+05	1.012875e+05	2.880923e+02	1.025821e-01	-5.291163e-02	0.000000e+00	
3.448276e-02	5.537975e-01	1.224689e+00	4.275155e+01	8.370866e-01	2.539431e+05	1.012787e+05	2.880861e+02	1.026122e-01	-6.533844e-02	0.000000e+00	
0.000000e+00	5.221519e-01	1.224770e+00	4.275017e+01	1.518875e-01	2.539648e+05	1.012875e+05	2.880923e+02	1.025821e-01	-5.291170e-02	0.000000e+00	
3.448276e-02	5.221519e-01	1.224689e+00	4.275155e+01	8.370854e-01	2.539431e+05	1.012787e+05	2.880861e+02	1.026122e-01	-6.533854e-02	0.000000e+00	
0.000000e+00	4.905063e-01	1.224770e+00	4.275018e+01	1.518859e-01	2.539648e+05	1.012875e+05	2.880923e+02	1.025821e-01	-5.291178e-02	0.000000e+00	
3.448276e-02	4.905063e-01	1.224689e+00	4.275156e+01	8.370843e-01	2.539431e+05	1.012787e+05	2.880861e+02	1.026122e-01	-6.533863e-02	0.000000e+00	
0.000000e+00	4.588608e-01	1.224770e+00	4.275018e+01	1.518844e-01	2.539648e+05	1.012875e+05	2.880923e+02	1.025821e-01	-5.291186e-02	0.000000e+00	
3.448276e-02	4.588608e-01	1.224689e+00	4.275156e+01	8.370833e-01	2.539431e+05	1.012787e+05	2.880861e+02	1.026123e-01	-6.533873e-02	0.000000e+00	
0.000000e+00	4.272152e-01	1.224770e+00	4.275018e+01	1.518830e-01	2.539648e+05	1.012875e+05	2.880923e+02	1.025821e-01	-5.291194e-02	0.000000e+00	
3.448276e-02	4.272152e-01	1.224689e+00	4.275156e+01	8.370824e-01	2.539431e+05	1.012787e+05	2.880861e+02	1.026123e-01	-6.533883e-02	0.000000e+00	
0.000000e+00	3.955696e-01	1.224770e+00	4.275018e+01	1.518818e-01	2.539648e+05	1.012875e+05	2.880923e+02	1.025821e-01	-5.291202e-02	0.000000e+00	
3.448276e-02	3.955696e-01	1.224689e+00	4.275156e+01	8.370817e-01	2.539431e+05	1.012787e+05	2.880861e+02	1.026123e-01	-6.533892e-02	0.000000e+00	
0.000000e+00	3.639241e-01	1.224770e+00	4.275018e+01	1.518807e-01	2.539648e+05	1.012875e+05	2.880923e+02	1.025821e-01	-5.291210e-02	0.000000e+00	
3.448276e-02	3.639241e-01	1.224689e+00	4.275156e+01	8.370810e-01	2.539431e+05	1.012787e+05	2.880861e+02	1.026123e-01	-6.533902e-02	0.000000e+00	
0.000000e+00	3.322785e-01	1.224770e+00	4.275018e+01	1.518797e-01	2.539648e+05	1.012875e+05	2.880923e+02	1.025821e-01	-5.291218e-02	0.000000e+00	
3.448276e-02	3.322785e-01	1.224689e+00	4.275156e+01	8.370804e-01	2.539431e+05	1.012787e+05	2.880861e+02	1.026123e-01	-6.533912e-02	0.000000e+00	
0.000000e+00	3.006329e-01	1.224770e+00	4.275018e+01	1.518788e-01	2.539648e+05	1.012875e+05	2.880923e+02	1.025821e-01	-5.291226e-02	0.000000e+00	
3.448276e-02	3.006329e-01	1.224689e+00	4.275157e+01	8.370800e-01	2.539431e+05	1.012787e+05	2.880861e+02	1.026123e-01	-6.533921e-02	0.000000e+00	
0.000000e+00	2.689873e-01	1.224770e+00	4.275019e+01	1.518780e-01	2.539648e+05	1.012875e+05	2.880923e+02	1.025821e-01	-5.291234e-02	0.000000e+00	
3.448276e-02	2.689873e-01	1.224689e+00	4.275157e+01	8.370796e-01	2.539431e+05	1.012787e+05	2.880861e+02	1.026123e-01	-6.533930e-02	0.000000e+00	
0.000000e+00	2.373418e-01	1.224770e+00	4.275019e+01	1.518774e-01	2.539648e+05	1.012875e+05	2.880923e+02	1.025821e-01	-5.291242e-02	0.000000e+00	
3.448276e-02	2.373418e-01	1.224689e+00	4.275157e+01	8.370793e-01	2.539431e+05	1.012787e+05	2.880861e+02	1.026123e-01	-6.533940e-02	0.000000e+00	
0.000000e+00	2.056962e-01	1.224770e+00	4.275019e+01	1.518768e-01	2.539648e+05	1.012875e+05	2.880923e+02	1.025821e-01	-5.291250e-02	0.000000e+00	
3.448276e-02	2.056962e-01	1.224689e+00	4.275157e+01	8.370790e-01	2.539431e+05	1.012787e+05	2.880861e+02	1.026123e-01	-6.533949e-02	0.000000e+00	
0.000000e+00	1.740506e-01	1.224770e+00	4.275019e+01	1.518763e-01	2.539648e+05	1.012875e+05	2.880923e+02	1.025821e-01	-5.291258e-02	0.000000e+00	
3.448276e-02	1.740506e-01	1.224689e+00	4.275157e+01	8.370789e-01	2.539431e+05	1.012787e+05	2.880861e+02	1.026123e-01	-6.533958e-02	0.000000e+00	
0.000000e+00	1.424051e-01	1.224770e+00	4.275019e+01	1.518760e-01	2.539648e+05	1.012875e+05	2.880923e+02	1.025821e-01	-5.291266e-02	0.000000e+00	
3.448276e-02	1.424051e-01	1.224689e+00	4.275157e+01	8.370788e-01	2.539431e+05	1.012787e+05	2.880861e+02	1.026123e-01	-6.533967e-02	0.000000e+00	
0.000000e+00	1.107595e-01	1.224770e+00	4.275019e+01	1.518757e-01	2.539648e+05	1.012875e+05	2.880923e+02	1.025821e-01	-5.291273e-02	0.000000e+00	
3.448276e-02	1.107595e-01	1.224689e+00	4.275158e+01	8.370787e-01	2.539431e+05	1.012787e+05	2.880861e+02	1.026123e-01	-6.533976e-02	0.000000e+00	
0.000000e+00	7.911392e-02	1.224770e+00	4.275020e+01	1.518755e-01	2.539648e+05	1.012875e+05	2.880923e+02	1.025821e-01	-5.291281e-02	0.000000e+00	
3.448276e-02	7.911392e-02	1.224689e+00	4.275158e+01	8.370787e-01	2.539431e+05	1.012787e+05	2.880861e+02	1.026123e-01	-6.533984e-02	0.000000e+00	
0.000000e+00	4.746835e-02	1.224770e+00	4.275020e+01	1.518753e-01	2.539648e+05	1.012875e+05	2.880923e+02	1.025821e-01	-5.291289e-02	0.000000e+00	
3.448276e-02	4.746835e-02	1.224689e+00	4.275158e+01	8.370788e-01	2.539431e+05	1.012787e+05	2.880861e+02	1.026123e-01	-6.533993e-02	0.000000e+00	
0.000000e+00	1.582278e-02	1.224770e+00	4.275020e+01	1.518752e-01	2.539648e+05	1.012875e+05	2.880923e+02	1.025822e-01	-5.291296e-02	0.000000e+00	
3.448276e-02	1.582278e-02	1.224689e+00	4.275158e+01	8.370790e-01	2.539431e+05	1.012787e+05	2.880861e+02	1.026123e-01	-6.534001e-02	0.000000e+00	
0.000000e+00	-1.582278e-02	1.224770e+00	4.275020e+01	1.518752e-01	2.539648e+05	1.012875e+05	2.880923e+02	1.025822e-01	-5.291303e-02	0.000000e+00	
3.448276e-02	-1.582278e-02	1.224689e+00	4.275158e+01	8.370791e-01	2.539431e+05	1.012787e+05	2.880861e+02	1.026123e-01	-6.534009e-02	0.000000e+00	
0.000000e+00	-4.746835e-02	1.224770e+00	4.275020e+01	1.518753e-01	2.539648e+05	1.012875e+05	2.880923e+02	1.025822e-01	-5.291311e-02	0.000000e+00	
3.448276e-02	-4.746835e-02	1.224689e+00	4.275158e+01	8.370794e-01	2.539431e+05	1.012787e+05	2.880861e+02	1.026123e-01	-6.534017e-02	0.000000e+00	
0.000000e+00	-7.911392e-02	1.224770e+00	4.275020e+01	1.518754e-01	2.539648e+05	1.012875e+05	2.880923e+02	1.025822e-01	-5.291318e-02	0.000000e+00	
3.448276e-02	-7.911392e-02	1.224689e+00	4.275159e+01	8.370797e-01	2.539431e+05	1.012787e+05	2.880861e+02	1.026123e-01	-6.534025e-02	0.000000e+00	
0.000000e+00	-1.107595e-01	1.224770e+00	4.275021e+01	1.518756e-01	2.539648e+05	1.012875e+05	2.880923e+02	1.025822e-01	-5.291325e-02	0.000000e+00	
3.448276e-02	-1.107595e-01	1.224689e+00	4.275159e+01	8.370800e-01	2.539431e+05	1.012787e+05	2.880861e+02	1.026123e-01	-6.534032e-02	0.000000e+00	
0.000000e+00	-1.424051e-01	1.224770e+00	4.275021e+01	1.518758e-01	2.539648e+05	1.012875e+05	2.880923e+02	1.025822e-01	-5.291332e-02	0.000000e+00	
3.448276e-02	-1.424051e-01	1.224689e+00	4.275159e+01	8.370803e-01	2.539431e+05	1.012787e+05	2.880861e+02	1.026123e-01	-6.534040e-02	0.000000e+00	
0.000000e+00	-1.740506e-01	1.224770e+00	4.275021e+01	1.518761e-01	2.539648e+05	1.012875e+05	2.880923e+02	1.025822e-01	-5.291339e-02	0.000000e+00	
3.448276e-02	-1.740506e-01	1.224689e+00	4.275159e+01	8.370807e-01	2.539431e+05	1.012787e+05	2.880861e+02	1.026123e-01	-6.534047e-02	0.000000e+00	
0.000000e+00	-2.056962e-01	1.224770e+00	4.275021e+01	1.518765e-01	2.539648e+05	1.012875e+05	2.880923e+02	1.025822e-01	-5.291345e-02	0.000000e+00	
3.448276e-02	-2.056962e-01	1.224689e+00	4.275159e+01	8.370812e-01	2.539431e+05	1.012787e+05	2.880861e+02	1.026123e-01	-6.534055e-02	0.000000e+00	
0.000000e+00	-2.373418e-01	1.224770e+00	4.275021e+01	1.518769e-01	2.539648e+05	1.012875e+05	2.880923e+02	1.025822e-01	-5.291352e-02	0.000000e+00	
3.448276e-02	-2.373418e-01	1.224689e+00	4.275160e+01	8.370816e-01	2.539431e+05	1.012787e+05	2.880861e+02	1.026123e-01	-6.534062e-02	0.000000e+00	
0.000000e+00	-2.689873e-01	1.224770e+00	4.275022e+01	1.518773e-01	2.539648e+05	1.012875e+05	2.880923e+02	1.025822e-01	-5.291359e-02	0.000000e+00	
3.448276e-02	-2.689873e-01	1.224689e+00	4.275160e+01	8.370821e-01	2.539431e+05	1.012787e+05	2.880861e+02	1.026123e-01	-6.534069e-02	0.000000e+00	
0.000000e+00	-3.006329e-01	1.224770e+00	4.275022e+01	1.518778e-01	2.539648e+05	1.012875e+05	2.880923e+02	1.025822e-01	-5.291365e-02	0.000000e+00	
3.448276e-02	-3.006329e-01	1.224689e+00	4.275160e+01	8.370826e-01	2.539431e+05	1.012787e+05	2.880861e+02	1.026124e-01	-6.534076e-02	0.000000e+00	
0.000000e+00	-3.322785e-01	1.224770e+00	4.275022e+01	1.518783e-01	2.539648e+05	1.012875e+05	2.880923e+02	1.025822e-01	-5.291372e-02	0.000000e+00	
3.448276e-02	-3.322785e-01	1.224689e+00	4.275160e+01	8.370832e-01	2.539431e+05	1.012787e+05	2.880861e+02	1.026124e-01	-6.534083e-02	0.000000e+00	
0.000000e+00	-3.639241e-01	1.224770e+00	4.275022e+01	1.518788e-01	2.539648e+05	1.012875e+05	2.880923e+02	1.025822e-01	-5.291378e-02	0.000000e+00	
3.448276e-02	-3.639241e-01	1.224689e+00	4.275160e+01	8.370838e-01	2.539431e+05	1.012787e+05	2.880861e+02	1.026124e-01	-6.534089e-02	0.000000e+00	
0.000000e+00	-3.955696e-01	1.224770e+00	4.275022e+01	1.518794e-01	2.539648e+05	1.012875e+05	2.880923e+02	1.025822e-01	-5.291385e-02	0.000000e+00	
3.448276e-02	-3.955696e-01	1.224689e+00	4.275160e+01	8.370844e-01	2.539431e+05	1.012787e+05	2.880861e+02	1.026124e-01	-6.534096e-02	0.000000e+00	
0.000000e+00	-4.272152e-01	1.224770e+00	4.275022e+01	1.518801e-01	2.539648e+05	1.012875e+05	2.880923e+02	1.025822e-01	-5.291391e-02	0.000000e+00	
3.448276e-02	-4.272152e-01	1.224689e+00	4.275161e+01	8.370850e-01	2.539431e+05	1.012787e+05	2.880861e+02	1.026124e-01	-6.534103e-02	0.000000e+00	
0.000000e+00	-4.588608e-01	1.224770e+00	4.275023e+01	1.518807e-01	2.539648e+05	1.012875e+05	2.880923e+02	1.025822e-01	-5.291398e-02	0.000000e+00	
3.448276e-02	-4.588608e-01	1.224689e+00	4.275161e+01	8.370856e-01	2.539431e+05	1.012787e+05	2.880861e+02	1.026124e-01	-6.534110e-02	0.000000e+00	
0.000000e+00	-4.905063e-01	1.224770e+00	4.275023e+01	1.518814e-01	2.539648e+05	1.012875e+05	2.880923e+02	1.025822e-01	-5.291405e-02	0.000000e+00	
3.448276e-02	-4.905063e-01	1.224689e+00	4.275161e+01	8.370863e-01	2.539431e+05	1.012787e+05	2.880861e+02	1.026124e-01	-6.534117e-02	0.000000e+00	
0.000000e+00	-5.221519e-01	1.224770e+00	4.275023e+01	1.518821e-01	2.539648e+05	1.012875e+05	2.880923e+02	1.025822e-01	-5.291412e-02	0.000000e+00	
3.448276e-02	-5.221519e-01	1.224689e+00	4.275161e+01	8.370870e-01	2.539431e+05	1.012787e+05	2.880861e+02	1.026124e-01	-6.534124e-02	0.000000e+00	
0.000000e+00	-5.537975e-01	1.224770e+00	4.275023e+01	1.518828e-01	2.539648e+05	1.012875e+05	2.880923e+02	1.025822e-01	-5.291419e-02	0.000000e+00	
3.448276e-02	-5.537975e-01	1.224689e+00	4.275161e+01	8.370876e-01	2.539431e+05	1.012787e+05	2.880861e+02	1.026124e-01	-6.534132e-02	0.000000e+00	
0.000000e+00	-5.854430e-01	1.224770e+00	4.275023e+01	1.518836e-01	2.539648e+05	1.012875e+05	2.880923e+02	1.025822e-01	-5.291426e-02	0.000000e+00	
3.448276e-02	-5.854430e-01	1.224689e+00	4.275162e+01	8.370884e-01	2.539431e+05	1.012787e+05	2.880861e+02	1.026124e-01	-6.534139e-02	0.000000e+00	
0.000000e+00	-6.170886e-01	1.224770e+00	4.275024e+01	1.518845e-01	2.539648e+05	1.012875e+05	2.880923e+02	1.025822e-01	-5.291434e-02	0.000000e+00	
3.448276e-02	-6.170886e-01	1.224689e+00	4.275162e+01	8.370891e-01	2.539431e+05	1.012787e+05	2.880861e+02	1.026124e-01	-6.534148e-02	0.000000e+00	
0.000000e+00	-6.487342e-01	1.224770e+00	4.275024e+01	1.518853e-01	2.539648e+05	1.012875e+05	2.880923e+02	1.025822e-01	-5.291442e-02	0.000000e+00	
3.448276e-02	-6.487342e-01	1.224689e+00	4.275162e+01	8.370899e-01	2.539431e+05	1.012787e+05	2.880861e+02	1.026124e-01	-6.534156e-02	0.000000e+00	
0.000000e+00	-6.803797e-01	1.224770e+00	4.275024e+01	1.518863e-01	2.539648e+05	1.012875e+05	2.880923e+02	1.025823e-01	-5.291451e-02	0.000000e+00	
3.448276e-02	-6.803797e-01	1.224689e+00	4.275162e+01	8.370907e-01	2.539431e+05	1.012787e+05	2.880861e+02	1.026124e-01	-6.534166e-02	0.000000e+00	
0.000000e+00	-7.120253e-01	1.224770e+00	4.275024e+01	1.518872e-01	2.539648e+05	1.012875e+05	2.880923e+02	1.025823e-01	-5.291460e-02	0.000000e+00	
3.448276e-02	-7.120253e-01	1.224689e+00	4.275163e+01	8.370915e-01	2.539431e+05	1.012787e+05	2.880861e+02	1.026124e-01	-6.534176e-02	0.000000e+00	
0.000000e+00	-7.436709e-01	1.224770e+00	4.275025e+01	1.518882e-01	2.539648e+05	1.012875e+05	2.880923e+02	1.025823e-01	-5.291470e-02	0.000000e+00	
3.448276e-02	-7.436709e-01	1.224689e+00	4.275163e+01	8.370922e-01	2.539431e+05	1.012787e+05	2.880861e+02	1.026124e-01	-6.534187e-02	0.000000e+00	
0.000000e+00	-7.753165e-01	1.224770e+00	4.275025e+01	1.518892e-01	2.539648e+05	1.012875e+05	2.880923e+02	1.025823e-01	-5.291481e-02	0.000000e+00	
3.448276e-02	-7.753165e-01	1.224689e+00	4.275163e+01	8.370930e-01	2.539431e+05	1.012787e+05	2.880861e+02	1.026124e-01	-6.534199e-02	0.000000e+00	
0.000000e+00	-8.069620e-01	1.224770e+00	4.275025e+01	1.518902e-01	2.539648e+05	1.012875e+05	2.880923e+02	1.025823e-01	-5.291492e-02	0.000000e+00	
3.448276e-02	-8.069620e-01	1.224689e+00	4.275163e+01	8.370936e-01	2.539431e+05	1.012787e+05	2.880861e+02	1.026124e-01	-6.534212e-02	0.000000e+00	
0.000000e+00	-8.386076e-01	1.224770e+00	4.275025e+01	1.518913e-01	2.539648e+05	1.012875e+05	2.880923e+02	1.025823e-01	-5.291505e-02	0.000000e+00	
3.448276e-02	-8.386076e-01	1.224689e+00	4.275164e+01	8.370943e-01	2.539431e+05	1.012787e+05	2.880861e+02	1.026124e-01	-6.534227e-02	0.000000e+00	
0.000000e+00	-8.702532e-01	1.224770e+00	4.275026e+01	1.518924e-01	2.539648e+05	1.012875e+05	2.880923e+02	1.025823e-01	-5.291518e-02	0.000000e+00	
3.448276e-02	-8.702532e-01	1.224689e+00	4.275164e+01	8.370950e-01	2.539431e+05	1.012787e+05	2.880861e+02	1.026125e-01	-6.534244e-02	0.000000e+00	
0.000000e+00	-9.018987e-01	1.224770e+00	4.275027e+01	1.518939e-01	2.539648e+05	1.012875e+05	2.880923e+02	1.025823e-01	-5.291532e-02	0.000000e+00	
3.448276e-02	-9.018987e-01	1.224689e+00	4.275165e+01	8.370959e-01	2.539431e+05	1.012787e+05	2.880861e+02	1.026125e-01	-6.534267e-02	0.000000e+00	
0.000000e+00	-9.335443e-01	1.224770e+00	4.275028e+01	1.518961e-01	2.539648e+05	1.012875e+05	2.880923e+02	1.025824e-01	-5.291547e-02	0.000000e+00	
3.448276e-02	-9.335443e-01	1.224689e+00	4.275167e+01	8.370972e-01	2.539431e+05	1.012787e+05	2.880861e+02	1.026125e-01	-6.534298e-02	0.000000e+00	
0.000000e+00	-9.651899e-01	1.224770e+00	4.275030e+01	1.518996e-01	2.539648e+05	1.012875e+05	2.880923e+02	1.025824e-01	-5.291565e-02	0.000000e+00	
3.448276e-02	-9.651899e-01	1.224689e+00	4.275169e+01	8.370990e-01	2.539431e+05	1.012787e+05	2.880861e+02	1.026126e-01	-6.534345e-02	0.000000e+00	
0.000000e+00	-9.968354e-01	1.224770e+00	4.275032e+01	1.519054e-01	2.539648e+05	1.012875e+05	2.880923e+02	1.025824e-01	-5.291581e-02	0.000000e+00	
3.448276e-02	-9.968354e-01	1.224689e+00	4.275171e+01	8.371014e-01	2.539431e+05	1.012787e+05	2.880861e+02	1.026126e-01	-6.534406e-02	0.000000e+00	
0.000000e+00	-1.028481e+00	1.224770e+00	4.275034e+01	1.519146e-01	2.539648e+05	1.012875e+05	2.880923e+02	1.025825e-01	-5.291602e-02	0.000000e+00	
3.448276e-02	-1.028481e+00	1.224689e+00	4.275173e+01	8.371045e-01	2.539431e+05	1.012787e+05	2.880861e+02	1.026127e-01	-6.534505e-02	0.000000e+00	
0.000000e+00	-1.060127e+00	1.224770e+00	4.275033e+01	1.519282e-01	2.539648e+05	1.012875e+05	2.880923e+02	1.025825e-01	-5.291609e-02	0.000000e+00	
3.448276e-02	-1.060127e+00	1.224689e+00	4.275173e+01	8.371072e-01	2.539431e+05	1.012787e+05	2.880861e+02	1.026127e-01	-6.534614e-02	0.000000e+00	
0.000000e+00	-1.091772e+00	1.224770e+00	4.275029e+01	1.519494e-01	2.539648e+05	1.012875e+05	2.880923e+02	1.025824e-01	-5.291618e-02	0.000000e+00	
3.448276e-02	-1.091772e+00	1.224689e+00	4.275169e+01	8.371114e-01	2.539431e+05	1.012787e+05	2.880861e+02	1.026126e-01	-6.534817e-02	0.000000e+00	
0.000000e+00	-1.123418e+00	1.224770e+00	4.275020e+01	1.519846e-01	2.539648e+05	1.012875e+05	2.880923e+02	1.025822e-01	-5.291499e-02	0.000000e+00	
3.448276e-02	-1.123418e+00	1.224689e+00	4.275162e+01	8.371162e-01	2.539431e+05	1.012786e+05	2.880861e+02	1.026124e-01	-6.534975e-02	0.000000e+00	
0.000000e+00	-1.155063e+00	1.224770e+00	4.275005e+01	1.520589e-01	2.539648e+05	1.012875e+05	2.880923e+02	1.025818e-01	-5.291292e-02	0.000000e+00	
3.448276e-02	-1.155063e+00	1.224689e+00	4.275152e+01	8.371363e-01	2.539431e+05	1.012786e+05	2.880861e+02	1.026122e-01	-6.535411e-02	0.000000e+00	
0.000000e+00	-1.186709e+00	1.224770e+00	4.274988e+01	1.522020e-01	2.539648e+05	1.012875e+05	2.880923e+02	1.025814e-01	-5.290265e-02	0.000000e+00	
3.448276e-02	-1.186709e+00	1.224689e+00	4.275142e+01	8.371641e-01	2.539431e+05	1.012786e+05	2.880861e+02	1.026119e-01	-6.535651e-02	0.000000e+00	
0.000000e+00	-1.218354e+00	1.224770e+00	4.274977e+01	1.524453e-01	2.539648e+05	1.012875e+05	2.880923e+02	1.025811e-01	-5.286898e-02	0.000000e+00	
3.448276e-02	-1.218354e+00	1.224689e+00	4.275132e+01	8.372340e-01	2.539430e+05	1.012786e+05	2.880861e+02	1.026117e-01	-6.537487e-02	0.000000e+00	
6.896552e-02	1.218354e+00	1.224636e+00	4.275054e+01	1.374318e+00	2.539281e+05	1.012725e+05	2.880811e+02	1.026485e-01	-7.407242e-02	0.000000e+00	
6.896552e-02	1.250000e+00	1.224636e+00	4.275054e+01	1.374187e+00	2.539281e+05	1.012725e+05	2.880811e+02	1.026485e-01	-7.408566e-02	0.000000e+00	
6.896552e-02	1.186709e+00	1.224636e+00	4.275062e+01	1.374354e+00	2.539281e+05	1.012725e+05	2.880811e+02	1.026487e-01	-7.408199e-02	0.000000e+00	
6.896552e-02	1.155063e+00	1.224636e+00	4.275074e+01	1.374397e+00	2.539281e+05	1.012725e+05	2.880811e+02	1.026490e-01	-7.407694e-02	0.000000e+00	
6.896552e-02	1.123418e+00	1.224636e+00	4.275085e+01	1.374406e+00	2.539281e+05	1.012725e+05	2.880811e+02	1.026493e-01	-7.407765e-02	0.000000e+00	
6.896552e-02	1.091772e+00	1.224636e+00	4.275094e+01	1.374414e+00	2.539281e+05	1.012725e+05	2.880811e+02	1.026495e-01	-7.407638e-02	0.000000e+00	
6.896552e-02	1.060127e+00	1.224636e+00	4.275099e+01	1.374412e+00	2.539281e+05	1.012725e+05	2.880811e+02	1.026496e-01	-7.407654e-02	0.000000e+00	
6.896552e-02	1.028481e+00	1.224636e+00	4.275102e+01	1.374410e+00	2.539281e+05	1.012725e+05	2.880811e+02	1.026497e-01	-7.407634e-02	0.000000e+00	
6.896552e-02	9.968354e-01	1.224636e+00	4.275102e+01	1.374406e+00	2.539281e+05	1.012725e+05	2.880811e+02	1.026497e-01	-7.407654e-02	0.000000e+00	
6.896552e-02	9.651899e-01	1.224636e+00	4.275102e+01	1.374403e+00	2.539281e+05	1.012725e+05	2.880811e+02	1.026497e-01	-7.407660e-02	0.000000e+00	
6.896552e-02	9.335443e-01	1.224636e+00	4.275101e+01	1.374400e+00	2.539281e+05	1.012725e+05	2.880811e+02	1.026497e-01	-7.407673e-02	0.000000e+00	
6.896552e-02	9.018987e-01	1.224636e+00	4.275100e+01	1.374397e+00	2.539281e+05	1.012725e+05	2.880811e+02	1.026496e-01	-7.407680e-02	0.000000e+00	
6.896552e-02	8.702532e-01	1.224636e+00	4.275099e+01	1.374395e+00	2.539281e+05	1.012725e+05	2.880811e+02	1.026496e-01	-7.407687e-02	0.000000e+00	
6.896552e-02	8.386076e-01	1.224636e+00	4.275099e+01	1.374392e+00	2.539281e+05	1.012725e+05	2.880811e+02	1.026496e-01	-7.407693e-02	0.000000e+00	
6.896552e-02	8.069620e-01	1.224636e+00	4.275099e+01	1.374391e+00	2.539281e+05	1.012725e+05	2.880811e+02	1.026496e-01	-7.407700e-02	0.000000e+00	
6.896552e-02	7.753165e-01	1.224636e+00	4.275100e+01	1.374389e+00	2.539281e+05	1.012725e+05	2.880811e+02	1.026496e-01	-7.407707e-02	0.000000e+00	
6.896552e-02	7.436709e-01	1.224636e+00	4.275100e+01	1.374387e+00	2.539281e+05	1.012725e+05	2.880811e+02	1.026496e-01	-7.407716e-02	0.000000e+00	
6.896552e-02	7.120253e-01	1.224636e+00	4.275100e+01	1.374386e+00	2.539281e+05	1.012725e+05	2.880811e+02	1.026496e-01	-7.407725e-02	0.000000e+00	
6.896552e-02	6.803797e-01	1.224636e+00	4.275100e+01	1.374384e+00	2.539281e+05	1.012725e+05	2.880811e+02	1.026496e-01	-7.407735e-02	0.000000e+00	
6.896552e-02	6.487342e-01	1.224636e+00	4.275100e+01	1.374383e+00	2.539281e+05	1.012725e+05	2.880811e+02	1.026496e-01	-7.407745e-02	0.000000e+00	
6.896552e-02	6.170886e-01	1.224636e+00	4.275100e+01	1.374382e+00	2.539281e+05	1.012725e+05	2.880811e+02	1.026497e-01	-7.407756e-02	0.000000e+00	
6.896552e-02	5.854430e-01	1.224636e+00	4.275100e+01	1.374381e+00	2.539281e+05	1.012725e+05	2.880811e+02	1.026497e-01	-7.407766e-02	0.000000e+00	
6.896552e-02	5.537975e-01	1.224636e+00	4.275101e+01	1.374380e+00	2.539281e+05	1.012725e+05	2.880811e+02	1.026497e-01	-7.407777e-02	0.000000e+00	
6.896552e-02	5.221519e-01	1.224636e+00	4.275101e+01	1.374380e+00	2.539281e+05	1.012725e+05	2.880811e+02	1.026497e-01	-7.407787e-02	0.000000e+00	
6.896552e-02	4.905063e-01	1.224636e+00	4.275101e+01	1.374379e+00	2.539281e+05	1.012725e+05	2.880811e+02	1.026497e-01	-7.407798e-02	0.000000e+00	
6.896552e-02	4.588608e-01	1.224636e+00	4.275101e+01	1.374378e+00	2.539281e+05	1.012725e+05	2.880811e+02	1.026497e-01	-7.407809e-02	0.000000e+00	
6.896552e-02	4.272152e-01	1.224636e+00	4.275101e+01	1.374378e+00	2.539281e+05	1.012725e+05	2.880811e+02	1.026497e-01	-7.407819e-02	0.000000e+00	
6.896552e-02	3.955696e-01	1.224636e+00	4.275101e+01	1.374377e+00	2.539281e+05	1.012725e+05	2.880811e+02	1.026497e-01	-7.407830e-02	0.000000e+00	
6.896552e-02	3.639241e-01	1.224636e+00	4.275102e+01	1.374377e+00	2.539281e+05	1.012725e+05	2.880811e+02	1.026497e-01	-7.407840e-02	0.000000e+00	
6.896552e-02	3.322785e-01	1.224636e+00	4.275102e+01	1.374377e+00	2.539281e+05	1.012725e+05	2.880811e+02	1.026497e-01	-7.407851e-02	0.000000e+00	
6.896552e-02	3.006329e-01	1.224636e+00	4.275102e+01	1.374377e+00	2.539281e+05	1.012725e+05	2.880811e+02	1.026497e-01	-7.407861e-02	0.000000e+00	
6.896552e-02	2.689873e-01	1.224636e+00	4.275102e+01	1.374377e+00	2.539281e+05	1.012725e+05	2.880811e+02	1.026497e-01	-7.407871e-02	0.000000e+00	
6.896552e-02	2.373418e-01	1.224636e+00	4.275102e+01	1.374377e+00	2.539281e+05	1.012725e+05	2.880811e+02	1.026497e-01	-7.407881e-02	0.000000e+00	
6.896552e-02	2.056962e-01	1.224636e+00	4.275102e+01	1.374377e+00	2.539281e+05	1.012725e+05	2.880811e+02	1.026497e-01	-7.407891e-02	0.000000e+00	
6.896552e-02	1.740506e-01	1.224636e+00	4.275103e+01	1.374377e+00	2.539281e+05	1.012725e+05	2.880811e+02	1.026497e-01	-7.407900e-02	0.000000e+00	
6.896552e-02	1.424051e-01	1.224636e+00	4.275103e+01	1.374377e+00	2.539281e+05	1.012725e+05	2.880811e+02	1.026497e-01	-7.407910e-02	0.000000e+00	
6.896552e-02	1.107595e-01	1.224636e+00	4.275103e+01	1.374377e+00	2.539281e+05	1.012725e+05	2.880811e+02	1.026497e-01	-7.407919e-02	0.000000e+00	
6.896552e-02	7.911392e-02	1.224636e+00	4.275103e+01	1.374377e+00	2.539281e+05	1.012725e+05	2.880811e+02	1.026497e-01	-7.407928e-02	0.000000e+00	
6.896552e-02	4.746835e-02	1.224636e+00	4.275103e+01	1.374378e+00	2.539281e+05	1.012725e+05	2.880811e+02	1.026497e-01	-7.407937e-02	0.000000e+00	
6.896552e-02	1.582278e-02	1.224636e+00	4.275104e+01	1.374378e+00	2.539281e+05	1.012725e+05	2.880811e+02	1.026497e-01	-7.407945e-02	0.000000e+00	
6.896552e-02	-1.582278e-02	1.224636e+00	4.275104e+01	1.374378e+00	2.539281e+05	1.012725e+05	2.880811e+02	1.026497e-01	-7.407954e-02	0.000000e+00	
6.896552e-02	-4.746835e-02	1.224636e+00	4.275104e+01	1.374379e+00	2.539281e+05	1.012725e+05	2.880811e+02	1.026497e-01	-7.407962e-02	0.000000e+00	
6.896552e-02	-7.911392e-02	1.224636e+00	4.275104e+01	1.374379e+00	2.539281e+05	1.012725e+05	2.880811e+02	1.026497e-01	-7.407970e-02	0.000000e+00	
6.896552e-02	-1.107595e-01	1.224636e+00	4.275104e+01	1.374380e+00	2.539281e+05	1.012725e+05	2.880811e+02	1.026497e-01	-7.407978e-02	0.000000e+00	
6.896552e-02	-1.424051e-01	1.224636e+00	4.275104e+01	1.374380e+00	2.539281e+05	1.012725e+05	2.880811e+02	1.026498e-01	-7.407985e-02	0.000000e+00	
6.896552e-02	-1.740506e-01	1.224636e+00	4.275105e+01	1.374380e+00	2.539281e+05	1.012725e+05	2.880811e+02	1.026498e-01	-7.407993e-02	0.000000e+00	