TITLE = "SU2 Simulation"
VARIABLES = "Iteration","CL","CD","CSF","CMx","CMy","CMz","CFx","CFy","CFz","CL/CD","AoA","Custom_ObjFunc","Res_Flow[0]","Res_Flow[1]","Res_Flow[2]","Res_Flow[3]","Res_Flow[4]","Linear_Solver_Iterations","CFL_Number","Time(min)"
ZONE T= "Convergence history"
           0, 0.00000000e+00, 0.00000000e+00, 0.00000000e+00, 0.00000000e+00, 0.00000000e+00, 0.00000000e+00, 0.00000000e+00, 0.00000000e+00, 0.00000000e+00, 0.00000000e+00, 0.00000000e+00, 0.00000000e+00, -3.03333474e+00, -5.47376990e-01, -1.26119551e+01, 2.41141289e+00, 0.00000000e+00, 5.0000000000, 5.0000000000, 0.0020618667
           1, 0.00000000e+00, 0.00000000e+00, 0.00000000e+00, 0.00000000e+00, 0.00000000e+00, 0.00000000e+00, 0.00000000e+00, 0.00000000e+00, 0.00000000e+00, 0.00000000e+00, 0.00000000e+00, 0.00000000e+00, -3.21606010e+00, -7.36108389e-01, -2.84539361e+00, 2.22926137e+00, 0.00000000e+00, 5.0000000000, 5.0000000000, 0.0040057000
           2, 0.00000000e+00, 0.00000000e+00, 0.00000000e+00, 0.00000000e+00, 0.00000000e+00, 0.00000000e+00, 0.00000000e+00, 0.00000000e+00, 0.00000000e+00, 0.00000000e+00, 0.00000000e+00, 0.00000000e+00, -3.32860760e+00, -8.43078257e-01, -1.93794288e+00, 2.11843042e+00, 0.00000000e+00, 5.0000000000, 5.0000000000, 0.0059840333
           3, 0.00000000e+00, 0.00000000e+00, 0.00000000e+00, 0.00000000e+00, 0.00000000e+00, 0.00000000e+00, 0.00000000e+00, 0.00000000e+00, 0.00000000e+00, 0.00000000e+00, 0.00000000e+00, 0.00000000e+00, -3.36917643e+00, -8.75959316e-01, -1.66101871e+00, 2.07866045e+00, 0.00000000e+00, 5.0000000000, 5.0000000000, 0.0089576167
           4, 0.00000000e+00, 0.00000000e+00, 0.00000000e+00, 0.00000000e+00, 0.00000000e+00, 0.00000000e+00, 0.00000000e+00, 0.00000000e+00, 0.00000000e+00, 0.00000000e+00, 0.00000000e+00, 0.00000000e+00, -3.38428428e+00, -8.89068787e-01, -1.50502856e+00, 2.06425304e+00, 0.00000000e+00, 5.0000000000, 5.0000000000, 0.0120134667
           5, 0.00000000e+00, 0.00000000e+00, 0.00000000e+00, 0.00000000e+00, 0.00000000e+00, 0.00000000e+00, 0.00000000e+00, 0.00000000e+00, 0.00000000e+00, 0.00000000e+00, 0.00000000e+00, 0.00000000e+00, -3.39737478e+00, -9.00979255e-01, -1.39898248e+00, 2.05229341e+00, 0.00000000e+00, 5.0000000000, 5.0000000000, 0.0141248167
           6, 0.00000000e+00, 0.00000000e+00, 0.00000000e+00, 0.00000000e+00, 0.00000000e+00, 0.00000000e+00, 0.00000000e+00, 0.00000000e+00, 0.00000000e+00, 0.00000000e+00, 0.00000000e+00, 0.00000000e+00, -3.41092759e+00, -9.11446509e-01, -1.32025903e+00, 2.04002964e+00, 0.00000000e+00, 5.0000000000, 5.0000000000, 0.0164416167
           7, 0.00000000e+00, 0.00000000e+00, 0.00000000e+00, 0.00000000e+00, 0.00000000e+00, 0.00000000e+00, 0.00000000e+00, 0.00000000e+00, 0.00000000e+00, 0.00000000e+00, 0.00000000e+00, 0.00000000e+00, -3.42261354e+00, -9.18993929e-01, -1.25870596e+00, 2.02951215e+00, 0.00000000e+00, 5.0000000000, 5.0000000000, 0.0187557667
           8, 0.00000000e+00, 0.00000000e+00, 0.00000000e+00, 0.00000000e+00, 0.00000000e+00, 0.00000000e+00, 0.00000000e+00, 0.00000000e+00, 0.00000000e+00, 0.00000000e+00, 0.00000000e+00, 0.00000000e+00, -3.43129120e+00, -9.23984013e-01, -1.20889230e+00, 2.02181424e+00, 0.00000000e+00, 5.0000000000, 5.0000000000, 0.0208222333
           9, 0.00000000e+00, 0.00000000e+00, 0.00000000e+00, 0.00000000e+00, 0.00000000e+00, 0.00000000e+00, 0.00000000e+00, 0.00000000e+00, 0.00000000e+00, 0.00000000e+00, 0.00000000e+00, 0.00000000e+00, -3.43743327e+00, -9.27347424e-01, -1.16758546e+00, 2.01652332e+00, 0.00000000e+00, 5.0000000000, 5.0000000000, 0.0230080000
          10, 0.00000000e+00, 0.00000000e+00, 0.00000000e+00, 0.00000000e+00, 0.00000000e+00, 0.00000000e+00, 0.00000000e+00, 0.00000000e+00, 0.00000000e+00, 0.00000000e+00, 0.00000000e+00, 0.00000000e+00, -3.44199648e+00, -9.29709117e-01, -1.13271298e+00, 2.01275052e+00, 0.00000000e+00, 5.0000000000, 5.0000000000, 0.0252748833
          11, 0.00000000e+00, 0.00000000e+00, 0.00000000e+00, 0.00000000e+00, 0.00000000e+00, 0.00000000e+00, 0.00000000e+00, 0.00000000e+00, 0.00000000e+00, 0.00000000e+00, 0.00000000e+00, 0.00000000e+00, -3.44566409e+00, -9.31389794e-01, -1.10286851e+00, 2.00984082e+00, 0.00000000e+00, 5.0000000000, 5.0000000000, 0.0272116667
          12, 0.00000000e+00, 0.00000000e+00, 0.00000000e+00, 0.00000000e+00, 0.00000000e+00, 0.00000000e+00, 0.00000000e+00, 0.00000000e+00, 0.00000000e+00, 0.00000000e+00, 0.00000000e+00, 0.00000000e+00, -3.44874388e+00, -9.32618092e-01, -1.07705407e+00, 2.00748445e+00, 0.00000000e+00, 5.0000000000, 5.0000000000, 0.0292844000
          13, 0.00000000e+00, 0.00000000e+00, 0.00000000e+00, 0.00000000e+00, 0.00000000e+00, 0.00000000e+00, 0.00000000e+00, 0.00000000e+00, 0.00000000e+00, 0.00000000e+00, 0.00000000e+00, 0.00000000e+00, -3.45132794e+00, -9.33635769e-01, -1.05453585e+00, 2.00557869e+00, 0.00000000e+00, 5.0000000000, 5.0000000000, 0.0312732500
          14, 0.00000000e+00, 0.00000000e+00, 0.00000000e+00, 0.00000000e+00, 0.00000000e+00, 0.00000000e+00, 0.00000000e+00, 0.00000000e+00, 0.00000000e+00, 0.00000000e+00, 0.00000000e+00, 0.00000000e+00, -3.45340687e+00, -9.34727315e-01, -1.03475823e+00, 2.00412597e+00, 0.00000000e+00, 5.0000000000, 5.0000000000, 0.0331111667
          15, 0.00000000e+00, 0.00000000e+00, 0.00000000e+00, 0.00000000e+00, 0.00000000e+00, 0.00000000e+00, 0.00000000e+00, 0.00000000e+00, 0.00000000e+00, 0.00000000e+00, 0.00000000e+00, 0.00000000e+00, -3.45487327e+00, -9.36255866e-01, -1.01728995e+00, 2.00323282e+00, 0.00000000e+00, 5.0000000000, 5.0000000000, 0.0363218833
          16, 0.00000000e+00, 0.00000000e+00, 0.00000000e+00, 0.00000000e+00, 0.00000000e+00, 0.00000000e+00, 0.00000000e+00, 0.00000000e+00, 0.00000000e+00, 0.00000000e+00, 0.00000000e+00, 0.00000000e+00, -3.45547247e+00, -9.38722935e-01, -1.00178901e+00, 2.00315677e+00, 0.00000000e+00, 5.0000000000, 5.0000000000, 0.0394914167
          17, 0.00000000e+00, 0.00000000e+00, 0.00000000e+00, 0.00000000e+00, 0.00000000e+00, 0.00000000e+00, 0.00000000e+00, 0.00000000e+00, 0.00000000e+00, 0.00000000e+00, 0.00000000e+00, 0.00000000e+00, -3.45477257e+00, -9.42827791e-01, -9.87979230e-01, 2.00433336e+00, 0.00000000e+00, 5.0000000000, 5.0000000000, 0.0415847000
          18, 0.00000000e+00, 0.00000000e+00, 0.00000000e+00, 0.00000000e+00, 0.00000000e+00, 0.00000000e+00, 0.00000000e+00, 0.00000000e+00, 0.00000000e+00, 0.00000000e+00, 0.00000000e+00, 0.00000000e+00, -3.45220404e+00, -9.49501539e-01, -9.75634076e-01, 2.00733448e+00, 0.00000000e+00, 5.0000000000, 5.0000000000, 0.0433346000
          19, 0.00000000e+00, 0.00000000e+00, 0.00000000e+00, 0.00000000e+00, 0.00000000e+00, 0.00000000e+00, 0.00000000e+00, 0.00000000e+00, 0.00000000e+00, 0.00000000e+00, 0.00000000e+00, 0.00000000e+00, -3.44719327e+00, -9.59907341e-01, -9.64565241e-01, 2.01273399e+00, 0.00000000e+00, 5.0000000000, 5.0000000000, 0.0453533500
          20, 0.00000000e+00, 0.00000000e+00, 0.00000000e+00, 0.00000000e+00, 0.00000000e+00, 0.00000000e+00, 0.00000000e+00, 0.00000000e+00, 0.00000000e+00, 0.00000000e+00, 0.00000000e+00, 0.00000000e+00, -3.43937337e+00, -9.75414711e-01, -9.54614431e-01, 2.02089695e+00, 0.00000000e+00, 5.0000000000, 5.0000000000, 0.0479150167
          21, 0.00000000e+00, 0.00000000e+00, 0.00000000e+00, 0.00000000e+00, 0.00000000e+00, 0.00000000e+00, 0.00000000e+00, 0.00000000e+00, 0.00000000e+00, 0.00000000e+00, 0.00000000e+00, 0.00000000e+00, -3.42879751e+00, -9.97565939e-01, -9.45647248e-01, 2.03176785e+00, 0.00000000e+00, 5.0000000000, 5.0000000000, 0.0503390167
          22, 0.00000000e+00, 0.00000000e+00, 0.00000000e+00, 0.00000000e+00, 0.00000000e+00, 0.00000000e+00, 0.00000000e+00, 0.00000000e+00, 0.00000000e+00, 0.00000000e+00, 0.00000000e+00, 0.00000000e+00, -3.41604479e+00, -1.02805349e+00, -9.37548573e-01, 2.04476679e+00, 0.00000000e+00, 5.0000000000, 5.0000000000, 0.0526505833
          23, 0.00000000e+00, 0.00000000e+00, 0.00000000e+00, 0.00000000e+00, 0.00000000e+00, 0.00000000e+00, 0.00000000e+00, 0.00000000e+00, 0.00000000e+00, 0.00000000e+00, 0.00000000e+00, 0.00000000e+00, -3.40214998e+00, -1.06871567e+00, -9.30218893e-01, 2.05886139e+00, 0.00000000e+00, 5.0000000000, 5.0000000000, 0.0548581500
          24, 0.00000000e+00, 0.00000000e+00, 0.00000000e+00, 0.00000000e+00, 0.00000000e+00, 0.00000000e+00, 0.00000000e+00, 0.00000000e+00, 0.00000000e+00, 0.00000000e+00, 0.00000000e+00, 0.00000000e+00, -3.38838810e+00, -1.12152215e+00, -9.23571326e-01, 2.07278245e+00, 0.00000000e+00, 5.0000000000, 5.0000000000, 0.0590048333
          25, 0.00000000e+00, 0.00000000e+00, 0.00000000e+00, 0.00000000e+00, 0.00000000e+00, 0.00000000e+00, 0.00000000e+00, 0.00000000e+00, 0.00000000e+00, 0.00000000e+00, 0.00000000e+00, 0.00000000e+00, -3.37601850e+00, -1.18840862e+00, -9.17529396e-01, 2.08527867e+00, 0.00000000e+00, 5.0000000000, 5.0000000000, 0.0619899333
          26, 0.00000000e+00, 0.00000000e+00, 0.00000000e+00, 0.00000000e+00, 0.00000000e+00, 0.00000000e+00, 0.00000000e+00, 0.00000000e+00, 0.00000000e+00, 0.00000000e+00, 0.00000000e+00, 0.00000000e+00, -3.36608635e+00, -1.27042255e+00, -9.12026331e-01, 2.09531372e+00, 0.00000000e+00, 5.0000000000, 5.0000000000, 0.0680753667
          27, 0.00000000e+00, 0.00000000e+00, 0.00000000e+00, 0.00000000e+00, 0.00000000e+00, 0.00000000e+00, 0.00000000e+00, 0.00000000e+00, 0.00000000e+00, 0.00000000e+00, 0.00000000e+00, 0.00000000e+00, -3.35932213e+00, -1.36429946e+00, -9.07005403e-01, 2.10216555e+00, 0.00000000e+00, 5.0000000000, 5.0000000000, 0.0722216500
          28, 0.00000000e+00, 0.00000000e+00, 0.00000000e+00, 0.00000000e+00, 0.00000000e+00, 0.00000000e+00, 0.00000000e+00, 0.00000000e+00, 0.00000000e+00, 0.00000000e+00, 0.00000000e+00, 0.00000000e+00, -3.35612983e+00, -1.45199269e+00, -9.02417798e-01, 2.10543749e+00, 0.00000000e+00, 5.0000000000, 5.0000000000, 0.0762709500
          29, 0.00000000e+00, 0.00000000e+00, 0.00000000e+00, 0.00000000e+00, 0.00000000e+00, 0.00000000e+00, 0.00000000e+00, 0.00000000e+00, 0.00000000e+00, 0.00000000e+00, 0.00000000e+00, 0.00000000e+00, -3.35663481e+00, -1.48958187e+00, -8.98220334e-01, 2.10501015e+00, 0.00000000e+00, 5.0000000000, 5.0000000000, 0.0816930000
          30, 0.00000000e+00, 0.00000000e+00, 0.00000000e+00, 0.00000000e+00, 0.00000000e+00, 0.00000000e+00, 0.00000000e+00, 0.00000000e+00, 0.00000000e+00, 0.00000000e+00, 0.00000000e+00, 0.00000000e+00, -3.36076312e+00, -1.44939668e+00, -8.94374913e-01, 2.10096206e+00, 0.00000000e+00, 5.0000000000, 5.0000000000, 0.0855390667
          31, 0.00000000e+00, 0.00000000e+00, 0.00000000e+00, 0.00000000e+00, 0.00000000e+00, 0.00000000e+00, 0.00000000e+00, 0.00000000e+00, 0.00000000e+00, 0.00000000e+00, 0.00000000e+00, 0.00000000e+00, -3.36833173e+00, -1.36712023e+00, -8.90848201e-01, 2.09347954e+00, 0.00000000e+00, 5.0000000000, 5.0000000000, 0.0875548167
          32, 0.00000000e+00, 0.00000000e+00, 0.00000000e+00, 0.00000000e+00, 0.00000000e+00, 0.00000000e+00, 0.00000000e+00, 0.00000000e+00, 0.00000000e+00, 0.00000000e+00, 0.00000000e+00, 0.00000000e+00, -3.37913289e+00, -1.28171149e+00, -8.87611037e-01, 2.08277255e+00, 0.00000000e+00, 5.0000000000, 5.0000000000, 0.0889572833
          33, 0.00000000e+00, 0.00000000e+00, 0.00000000e+00, 0.00000000e+00, 0.00000000e+00, 0.00000000e+00, 0.00000000e+00, 0.00000000e+00, 0.00000000e+00, 0.00000000e+00, 0.00000000e+00, 0.00000000e+00, -3.39299786e+00, -1.20661333e+00, -8.84637747e-01, 2.06901133e+00, 0.00000000e+00, 5.0000000000, 5.0000000000, 0.0903740667
          34, 0.00000000e+00, 0.00000000e+00, 0.00000000e+00, 0.00000000e+00, 0.00000000e+00, 0.00000000e+00, 0.00000000e+00, 0.00000000e+00, 0.00000000e+00, 0.00000000e+00, 0.00000000e+00, 0.00000000e+00, -3.40982776e+00, -1.14339479e+00, -8.81905492e-01, 2.05229585e+00, 0.00000000e+00, 5.0000000000, 5.0000000000, 0.0926887333
          35, 0.00000000e+00, 0.00000000e+00, 0.00000000e+00, 0.00000000e+00, 0.00000000e+00, 0.00000000e+00, 0.00000000e+00, 0.00000000e+00, 0.00000000e+00, 0.00000000e+00, 0.00000000e+00, 0.00000000e+00, -3.42958556e+00, -1.09064494e+00, -8.79393827e-01, 2.03266433e+00, 0.00000000e+00, 5.0000000000, 5.0000000000, 0.0945864333
          36, 0.00000000e+00, 0.00000000e+00, 0.00000000e+00, 0.00000000e+00, 0.00000000e+00, 0.00000000e+00, 0.00000000e+00, 0.00000000e+00, 0.00000000e+00, 0.00000000e+00, 0.00000000e+00, 0.00000000e+00, -3.45225172e+00, -1.04667081e+00, -8.77083987e-01, 2.01013772e+00, 0.00000000e+00, 5.0000000000, 5.0000000000, 0.0966754000
          37, 0.00000000e+00, 0.00000000e+00, 0.00000000e+00, 0.00000000e+00, 0.00000000e+00, 0.00000000e+00, 0.00000000e+00, 0.00000000e+00, 0.00000000e+00, 0.00000000e+00, 0.00000000e+00, 0.00000000e+00, -3.47775401e+00, -1.01010316e+00, -8.74958796e-01, 1.98478959e+00, 0.00000000e+00, 5.0000000000, 5.0000000000, 0.0991831000
          38, 0.00000000e+00, 0.00000000e+00, 0.00000000e+00, 0.00000000e+00, 0.00000000e+00, 0.00000000e+00, 0.00000000e+00, 0.00000000e+00, 0.00000000e+00, 0.00000000e+00, 0.00000000e+00, 0.00000000e+00, -3.50588783e+00, -9.79933432e-01, -8.73002620e-01, 1.95682497e+00, 0.00000000e+00, 5.0000000000, 5.0000000000, 0.1016284500
          39, 0.00000000e+00, 0.00000000e+00, 0.00000000e+00, 0.00000000e+00, 0.00000000e+00, 0.00000000e+00, 0.00000000e+00, 0.00000000e+00, 0.00000000e+00, 0.00000000e+00, 0.00000000e+00, 0.00000000e+00, -3.53624603e+00, -9.55417918e-01, -8.71201142e-01, 1.92664878e+00, 0.00000000e+00, 5.0000000000, 5.0000000000, 0.1036940833
          40, 0.00000000e+00, 0.00000000e+00, 0.00000000e+00, 0.00000000e+00, 0.00000000e+00, 0.00000000e+00, 0.00000000e+00, 0.00000000e+00, 0.00000000e+00, 0.00000000e+00, 0.00000000e+00, 0.00000000e+00, -3.56818170e+00, -9.35972785e-01, -8.69541296e-01, 1.89490080e+00, 0.00000000e+00, 5.0000000000, 5.0000000000, 0.1053299167
          41, 0.00000000e+00, 0.00000000e+00, 0.00000000e+00, 0.00000000e+00, 0.00000000e+00, 0.00000000e+00, 0.00000000e+00, 0.00000000e+00, 0.00000000e+00, 0.00000000e+00, 0.00000000e+00, 0.00000000e+00, -3.60083122e+00, -9.21093680e-01, -8.68011145e-01, 1.86243013e+00, 0.00000000e+00, 5.0000000000, 5.0000000000, 0.1066262000
          42, 0.00000000e+00, 0.00000000e+00, 0.00000000e+00, 0.00000000e+00, 0.00000000e+00, 0.00000000e+00, 0.00000000e+00, 0.00000000e+00, 0.00000000e+00, 0.00000000e+00, 0.00000000e+00, 0.00000000e+00, -3.63322240e+00, -9.10306090e-01, -8.66599795e-01, 1.83018573e+00, 0.00000000e+00, 5.0000000000, 5.0000000000, 0.1082197667
          43, 0.00000000e+00, 0.00000000e+00, 0.00000000e+00, 0.00000000e+00, 0.00000000e+00, 0.00000000e+00, 0.00000000e+00, 0.00000000e+00, 0.00000000e+00, 0.00000000e+00, 0.00000000e+00, 0.00000000e+00, -3.66446911e+00, -9.03143292e-01, -8.65297296e-01, 1.79902320e+00, 0.00000000e+00, 5.0000000000, 5.0000000000, 0.1097524000
          44, 0.00000000e+00, 0.00000000e+00, 0.00000000e+00, 0.00000000e+00, 0.00000000e+00, 0.00000000e+00, 0.00000000e+00, 0.00000000e+00, 0.00000000e+00, 0.00000000e+00, 0.00000000e+00, 0.00000000e+00, -3.69400441e+00, -8.99145920e-01, -8.64094519e-01, 1.76947633e+00, 0.00000000e+00, 5.0000000000, 5.0000000000, 0.1111878667
          45, 0.00000000e+00, 0.00000000e+00, 0.00000000e+00, 0.00000000e+00, 0.00000000e+00, 0.00000000e+00, 0.00000000e+00, 0.00000000e+00, 0.00000000e+00, 0.00000000e+00, 0.00000000e+00, 0.00000000e+00, -3.72175349e+00, -8.97876519e-01, -8.62983198e-01, 1.74159011e+00, 0.00000000e+00, 5.0000000000, 5.0000000000, 0.1131843000
          46, 0.00000000e+00, 0.00000000e+00, 0.00000000e+00, 0.00000000e+00, 0.00000000e+00, 0.00000000e+00, 0.00000000e+00, 0.00000000e+00, 0.00000000e+00, 0.00000000e+00, 0.00000000e+00, 0.00000000e+00, -3.74814657e+00, -8.98942234e-01, -8.61956018e-01, 1.71491091e+00, 0.00000000e+00, 5.0000000000, 5.0000000000, 0.1145010000
          47, 0.00000000e+00, 0.00000000e+00, 0.00000000e+00, 0.00000000e+00, 0.00000000e+00, 0.00000000e+00, 0.00000000e+00, 0.00000000e+00, 0.00000000e+00, 0.00000000e+00, 0.00000000e+00, 0.00000000e+00, -3.77393993e+00, -9.02018818e-01, -8.61006480e-01, 1.68866293e+00, 0.00000000e+00, 5.0000000000, 5.0000000000, 0.1159519333
          48, 0.00000000e+00, 0.00000000e+00, 0.00000000e+00, 0.00000000e+00, 0.00000000e+00, 0.00000000e+00, 0.00000000e+00, 0.00000000e+00, 0.00000000e+00, 0.00000000e+00, 0.00000000e+00, 0.00000000e+00, -3.79989650e+00, -9.06869776e-01, -8.60128938e-01, 1.66206078e+00, 0.00000000e+00, 5.0000000000, 5.0000000000, 0.1175160667
          49, 0.00000000e+00, 0.00000000e+00, 0.00000000e+00, 0.00000000e+00, 0.00000000e+00, 0.00000000e+00, 0.00000000e+00, 0.00000000e+00, 0.00000000e+00, 0.00000000e+00, 0.00000000e+00, 0.00000000e+00, -3.82640507e+00, -9.13356244e-01, -8.59318769e-01, 1.63468449e+00, 0.00000000e+00, 5.0000000000, 5.0000000000, 0.1188419500
          50, 0.00000000e+00, 0.00000000e+00, 0.00000000e+00, 0.00000000e+00, 0.00000000e+00, 0.00000000e+00, 0.00000000e+00, 0.00000000e+00, 0.00000000e+00, 0.00000000e+00, 0.00000000e+00, 0.00000000e+00, -3.85308713e+00, -9.21436036e-01, -8.58571920e-01, 1.60687543e+00, 0.00000000e+00, 5.0000000000, 5.0000000000, 0.1205656833
          51, 0.00000000e+00, 0.00000000e+00, 0.00000000e+00, 0.00000000e+00, 0.00000000e+00, 0.00000000e+00, 0.00000000e+00, 0.00000000e+00, 0.00000000e+00, 0.00000000e+00, 0.00000000e+00, 0.00000000e+00, -3.87842895e+00, -9.31153412e-01, -8.57885214e-01, 1.58012648e+00, 0.00000000e+00, 5.0000000000, 5.0000000000, 0.1219846333
          52, 0.00000000e+00, 0.00000000e+00, 0.00000000e+00, 0.00000000e+00, 0.00000000e+00, 0.00000000e+00, 0.00000000e+00, 0.00000000e+00, 0.00000000e+00, 0.00000000e+00, 0.00000000e+00, 0.00000000e+00, -3.89957527e+00, -9.42623485e-01, -8.57256199e-01, 1.55734003e+00, 0.00000000e+00, 5.0000000000, 5.0000000000, 0.1231684833
          53, 0.00000000e+00, 0.00000000e+00, 0.00000000e+00, 0.00000000e+00, 0.00000000e+00, 0.00000000e+00, 0.00000000e+00, 0.00000000e+00, 0.00000000e+00, 0.00000000e+00, 0.00000000e+00, 0.00000000e+00, -3.91264133e+00, -9.56015981e-01, -8.56682990e-01, 1.54258186e+00, 0.00000000e+00, 5.0000000000, 5.0000000000, 0.1245092333
          54, 0.00000000e+00, 0.00000000e+00, 0.00000000e+00, 0.00000000e+00, 0.00000000e+00, 0.00000000e+00, 0.00000000e+00, 0.00000000e+00, 0.00000000e+00, 0.00000000e+00, 0.00000000e+00, 0.00000000e+00, -3.91394821e+00, -9.71542385e-01, -8.56164142e-01, 1.53984803e+00, 0.00000000e+00, 5.0000000000, 5.0000000000, 0.1257230667
          55, 0.00000000e+00, 0.00000000e+00, 0.00000000e+00, 0.00000000e+00, 0.00000000e+00, 0.00000000e+00, 0.00000000e+00, 0.00000000e+00, 0.00000000e+00, 0.00000000e+00, 0.00000000e+00, 0.00000000e+00, -3.90187395e+00, -9.89448813e-01, -8.55698511e-01, 1.55106586e+00, 0.00000000e+00, 5.0000000000, 5.0000000000, 0.1269896667
          56, 0.00000000e+00, 0.00000000e+00, 0.00000000e+00, 0.00000000e+00, 0.00000000e+00, 0.00000000e+00, 0.00000000e+00, 0.00000000e+00, 0.00000000e+00, 0.00000000e+00, 0.00000000e+00, 0.00000000e+00, -3.87788827e+00, -1.01001525e+00, -8.55285145e-01, 1.57485754e+00, 0.00000000e+00, 5.0000000000, 5.0000000000, 0.1282757000
          57, 0.00000000e+00, 0.00000000e+00, 0.00000000e+00, 0.00000000e+00, 0.00000000e+00, 0.00000000e+00, 0.00000000e+00, 0.00000000e+00, 0.00000000e+00, 0.00000000e+00, 0.00000000e+00, 0.00000000e+00, -3.84573350e+00, -1.03356061e+00, -8.54923132e-01, 1.60733323e+00, 0.00000000e+00, 5.0000000000, 5.0000000000, 0.1297563833
          58, 0.00000000e+00, 0.00000000e+00, 0.00000000e+00, 0.00000000e+00, 0.00000000e+00, 0.00000000e+00, 0.00000000e+00, 0.00000000e+00, 0.00000000e+00, 0.00000000e+00, 0.00000000e+00, 0.00000000e+00, -3.80963218e+00, -1.06045281e+00, -8.54611470e-01, 1.64403461e+00, 0.00000000e+00, 5.0000000000, 5.0000000000, 0.1309811167
          59, 0.00000000e+00, 0.00000000e+00, 0.00000000e+00, 0.00000000e+00, 0.00000000e+00, 0.00000000e+00, 0.00000000e+00, 0.00000000e+00, 0.00000000e+00, 0.00000000e+00, 0.00000000e+00, 0.00000000e+00, -3.77300970e+00, -1.09112339e+00, -8.54348963e-01, 1.68134663e+00, 0.00000000e+00, 5.0000000000, 5.0000000000, 0.1321794000
          60, 0.00000000e+00, 0.00000000e+00, 0.00000000e+00, 0.00000000e+00, 0.00000000e+00, 0.00000000e+00, 0.00000000e+00, 0.00000000e+00, 0.00000000e+00, 0.00000000e+00, 0.00000000e+00, 0.00000000e+00, -3.73814399e+00, -1.12608706e+00, -8.54134134e-01, 1.71688301e+00, 0.00000000e+00, 5.0000000000, 5.0000000000, 0.1339391333
          61, 0.00000000e+00, 0.00000000e+00, 0.00000000e+00, 0.00000000e+00, 0.00000000e+00, 0.00000000e+00, 0.00000000e+00, 0.00000000e+00, 0.00000000e+00, 0.00000000e+00, 0.00000000e+00, 0.00000000e+00, -3.70634617e+00, -1.16596716e+00, -8.53965207e-01, 1.74928562e+00, 0.00000000e+00, 5.0000000000, 5.0000000000, 0.1351484333
          62, 0.00000000e+00, 0.00000000e+00, 0.00000000e+00, 0.00000000e+00, 0.00000000e+00, 0.00000000e+00, 0.00000000e+00, 0.00000000e+00, 0.00000000e+00, 0.00000000e+00, 0.00000000e+00, 0.00000000e+00, -3.67826685e+00, -1.21152849e+00, -8.53840081e-01, 1.77789063e+00, 0.00000000e+00, 5.0000000000, 5.0000000000, 0.1363508667
          63, 0.00000000e+00, 0.00000000e+00, 0.00000000e+00, 0.00000000e+00, 0.00000000e+00, 0.00000000e+00, 0.00000000e+00, 0.00000000e+00, 0.00000000e+00, 0.00000000e+00, 0.00000000e+00, 0.00000000e+00, -3.65415191e+00, -1.26371674e+00, -8.53756325e-01, 1.80245399e+00, 0.00000000e+00, 5.0000000000, 5.0000000000, 0.1377995333
          64, 0.00000000e+00, 0.00000000e+00, 0.00000000e+00, 0.00000000e+00, 0.00000000e+00, 0.00000000e+00, 0.00000000e+00, 0.00000000e+00, 0.00000000e+00, 0.00000000e+00, 0.00000000e+00, 0.00000000e+00, -3.63401487e+00, -1.32369578e+00, -8.53711301e-01, 1.82296898e+00, 0.00000000e+00, 5.0000000000, 5.0000000000, 0.1390295167
          65, 0.00000000e+00, 0.00000000e+00, 0.00000000e+00, 0.00000000e+00, 0.00000000e+00, 0.00000000e+00, 0.00000000e+00, 0.00000000e+00, 0.00000000e+00, 0.00000000e+00, 0.00000000e+00, 0.00000000e+00, -3.61774250e+00, -1.39284276e+00, -8.53702223e-01, 1.83955604e+00, 0.00000000e+00, 5.0000000000, 5.0000000000, 0.1402313000
          66, 0.00000000e+00, 0.00000000e+00, 0.00000000e+00, 0.00000000e+00, 0.00000000e+00, 0.00000000e+00, 0.00000000e+00, 0.00000000e+00, 0.00000000e+00, 0.00000000e+00, 0.00000000e+00, 0.00000000e+00, -3.60515607e+00, -1.47255372e+00, -8.53726239e-01, 1.85239967e+00, 0.00000000e+00, 5.0000000000, 5.0000000000, 0.1417682167
          67, 0.00000000e+00, 0.00000000e+00, 0.00000000e+00, 0.00000000e+00, 0.00000000e+00, 0.00000000e+00, 0.00000000e+00, 0.00000000e+00, 0.00000000e+00, 0.00000000e+00, 0.00000000e+00, 0.00000000e+00, -3.59604557e+00, -1.56334360e+00, -8.53780505e-01, 1.86171369e+00, 0.00000000e+00, 5.0000000000, 5.0000000000, 0.1429595500
          68, 0.00000000e+00, 0.00000000e+00, 0.00000000e+00, 0.00000000e+00, 0.00000000e+00, 0.00000000e+00, 0.00000000e+00, 0.00000000e+00, 0.00000000e+00, 0.00000000e+00, 0.00000000e+00, 0.00000000e+00, -3.59018778e+00, -1.66159263e+00, -8.53862269e-01, 1.86772318e+00, 0.00000000e+00, 5.0000000000, 5.0000000000, 0.1441466167
          69, 0.00000000e+00, 0.00000000e+00, 0.00000000e+00, 0.00000000e+00, 0.00000000e+00, 0.00000000e+00, 0.00000000e+00, 0.00000000e+00, 0.00000000e+00, 0.00000000e+00, 0.00000000e+00, 0.00000000e+00, -3.58735476e+00, -1.75058324e+00, -8.53968923e-01, 1.87065617e+00, 0.00000000e+00, 5.0000000000, 5.0000000000, 0.1455299333
          70, 0.00000000e+00, 0.00000000e+00, 0.00000000e+00, 0.00000000e+00, 0.00000000e+00, 0.00000000e+00, 0.00000000e+00, 0.00000000e+00, 0.00000000e+00, 0.00000000e+00, 0.00000000e+00, 0.00000000e+00, -3.58731650e+00, -1.79240579e+00, -8.54098052e-01, 1.87074128e+00, 0.00000000e+00, 5.0000000000, 5.0000000000, 0.1466840333
          71, 0.00000000e+00, 0.00000000e+00, 0.00000000e+00, 0.00000000e+00, 0.00000000e+00, 0.00000000e+00, 0.00000000e+00, 0.00000000e+00, 0.00000000e+00, 0.00000000e+00, 0.00000000e+00, 0.00000000e+00, -3.58983983e+00, -1.76251287e+00, -8.54247470e-01, 1.86820909e+00, 0.00000000e+00, 5.0000000000, 5.0000000000, 0.1478876667
          72, 0.00000000e+00, 0.00000000e+00, 0.00000000e+00, 0.00000000e+00, 0.00000000e+00, 0.00000000e+00, 0.00000000e+00, 0.00000000e+00, 0.00000000e+00, 0.00000000e+00, 0.00000000e+00, 0.00000000e+00, -3.59468482e+00, -1.68986064e+00, -8.54415235e-01, 1.86329606e+00, 0.00000000e+00, 5.0000000000, 5.0000000000, 0.1490411167
          73, 0.00000000e+00, 0.00000000e+00, 0.00000000e+00, 0.00000000e+00, 0.00000000e+00, 0.00000000e+00, 0.00000000e+00, 0.00000000e+00, 0.00000000e+00, 0.00000000e+00, 0.00000000e+00, 0.00000000e+00, -3.60159942e+00, -1.61063836e+00, -8.54599651e-01, 1.85625020e+00, 0.00000000e+00, 5.0000000000, 5.0000000000, 0.1505180167
          74, 0.00000000e+00, 0.00000000e+00, 0.00000000e+00, 0.00000000e+00, 0.00000000e+00, 0.00000000e+00, 0.00000000e+00, 0.00000000e+00, 0.00000000e+00, 0.00000000e+00, 0.00000000e+00, 0.00000000e+00, -3.61031307e+00, -1.53958978e+00, -8.54799251e-01, 1.84733796e+00, 0.00000000e+00, 5.0000000000, 5.0000000000, 0.1517268000
          75, 0.00000000e+00, 0.00000000e+00, 0.00000000e+00, 0.00000000e+00, 0.00000000e+00, 0.00000000e+00, 0.00000000e+00, 0.00000000e+00, 0.00000000e+00, 0.00000000e+00, 0.00000000e+00, 0.00000000e+00, -3.62052991e+00, -1.47961001e+00, -8.55012774e-01, 1.83685163e+00, 0.00000000e+00, 5.0000000000, 5.0000000000, 0.1529020500
          76, 0.00000000e+00, 0.00000000e+00, 0.00000000e+00, 0.00000000e+00, 0.00000000e+00, 0.00000000e+00, 0.00000000e+00, 0.00000000e+00, 0.00000000e+00, 0.00000000e+00, 0.00000000e+00, 0.00000000e+00, -3.63192276e+00, -1.43000877e+00, -8.55239134e-01, 1.82511615e+00, 0.00000000e+00, 5.0000000000, 5.0000000000, 0.1544243667
          77, 0.00000000e+00, 0.00000000e+00, 0.00000000e+00, 0.00000000e+00, 0.00000000e+00, 0.00000000e+00, 0.00000000e+00, 0.00000000e+00, 0.00000000e+00, 0.00000000e+00, 0.00000000e+00, 0.00000000e+00, -3.64412934e+00, -1.38938382e+00, -8.55477444e-01, 1.81249403e+00, 0.00000000e+00, 5.0000000000, 5.0000000000, 0.1556231333
          78, 0.00000000e+00, 0.00000000e+00, 0.00000000e+00, 0.00000000e+00, 0.00000000e+00, 0.00000000e+00, 0.00000000e+00, 0.00000000e+00, 0.00000000e+00, 0.00000000e+00, 0.00000000e+00, 0.00000000e+00, -3.65675277e+00, -1.35639950e+00, -8.55726947e-01, 1.79938603e+00, 0.00000000e+00, 5.0000000000, 5.0000000000, 0.1568106167
          79, 0.00000000e+00, 0.00000000e+00, 0.00000000e+00, 0.00000000e+00, 0.00000000e+00, 0.00000000e+00, 0.00000000e+00, 0.00000000e+00, 0.00000000e+00, 0.00000000e+00, 0.00000000e+00, 0.00000000e+00, -3.66936901e+00, -1.32994534e+00, -8.55986992e-01, 1.78622506e+00, 0.00000000e+00, 5.0000000000, 5.0000000000, 0.1582400000
          80, 0.00000000e+00, 0.00000000e+00, 0.00000000e+00, 0.00000000e+00, 0.00000000e+00, 0.00000000e+00, 0.00000000e+00, 0.00000000e+00, 0.00000000e+00, 0.00000000e+00, 0.00000000e+00, 0.00000000e+00, -3.68154332e+00, -1.30912917e+00, -8.56257031e-01, 1.77346067e+00, 0.00000000e+00, 5.0000000000, 5.0000000000, 0.1594739000
          81, 0.00000000e+00, 0.00000000e+00, 0.00000000e+00, 0.00000000e+00, 0.00000000e+00, 0.00000000e+00, 0.00000000e+00, 0.00000000e+00, 0.00000000e+00, 0.00000000e+00, 0.00000000e+00, 0.00000000e+00, -3.69285702e+00, -1.29323368e+00, -8.56536592e-01, 1.76153234e+00, 0.00000000e+00, 5.0000000000, 5.0000000000, 0.1606716167
          82, 0.00000000e+00, 0.00000000e+00, 0.00000000e+00, 0.00000000e+00, 0.00000000e+00, 0.00000000e+00, 0.00000000e+00, 0.00000000e+00, 0.00000000e+00, 0.00000000e+00, 0.00000000e+00, 0.00000000e+00, -3.70294313e+00, -1.28167158e+00, -8.56825271e-01, 1.75083277e+00, 0.00000000e+00, 5.0000000000, 5.0000000000, 0.1620373000
          83, 0.00000000e+00, 0.00000000e+00, 0.00000000e+00, 0.00000000e+00, 0.00000000e+00, 0.00000000e+00, 0.00000000e+00, 0.00000000e+00, 0.00000000e+00, 0.00000000e+00, 0.00000000e+00, 0.00000000e+00, -3.71152588e+00, -1.27394695e+00, -8.57122720e-01, 1.74166555e+00, 0.00000000e+00, 5.0000000000, 5.0000000000, 0.1632695500
          84, 0.00000000e+00, 0.00000000e+00, 0.00000000e+00, 0.00000000e+00, 0.00000000e+00, 0.00000000e+00, 0.00000000e+00, 0.00000000e+00, 0.00000000e+00, 0.00000000e+00, 0.00000000e+00, 0.00000000e+00, -3.71845607e+00, -1.26962340e+00, -8.57428631e-01, 1.73420598e+00, 0.00000000e+00, 5.0000000000, 5.0000000000, 0.1645234833
          85, 0.00000000e+00, 0.00000000e+00, 0.00000000e+00, 0.00000000e+00, 0.00000000e+00, 0.00000000e+00, 0.00000000e+00, 0.00000000e+00, 0.00000000e+00, 0.00000000e+00, 0.00000000e+00, 0.00000000e+00, -3.72373309e+00, -1.26829793e+00, -8.57742728e-01, 1.72847482e+00, 0.00000000e+00, 5.0000000000, 5.0000000000, 0.1657248667
          86, 0.00000000e+00, 0.00000000e+00, 0.00000000e+00, 0.00000000e+00, 0.00000000e+00, 0.00000000e+00, 0.00000000e+00, 0.00000000e+00, 0.00000000e+00, 0.00000000e+00, 0.00000000e+00, 0.00000000e+00, -3.72750719e+00, -1.26957950e+00, -8.58064755e-01, 1.72433298e+00, 0.00000000e+00, 5.0000000000, 5.0000000000, 0.1674602667
          87, 0.00000000e+00, 0.00000000e+00, 0.00000000e+00, 0.00000000e+00, 0.00000000e+00, 0.00000000e+00, 0.00000000e+00, 0.00000000e+00, 0.00000000e+00, 0.00000000e+00, 0.00000000e+00, 0.00000000e+00, -3.73006081e+00, -1.27307200e+00, -8.58394467e-01, 1.72149901e+00, 0.00000000e+00, 5.0000000000, 5.0000000000, 0.1686185500
          88, 0.00000000e+00, 0.00000000e+00, 0.00000000e+00, 0.00000000e+00, 0.00000000e+00, 0.00000000e+00, 0.00000000e+00, 0.00000000e+00, 0.00000000e+00, 0.00000000e+00, 0.00000000e+00, 0.00000000e+00, -3.73177408e+00, -1.27836214e+00, -8.58731615e-01, 1.71958464e+00, 0.00000000e+00, 5.0000000000, 5.0000000000, 0.1697847333
          89, 0.00000000e+00, 0.00000000e+00, 0.00000000e+00, 0.00000000e+00, 0.00000000e+00, 0.00000000e+00, 0.00000000e+00, 0.00000000e+00, 0.00000000e+00, 0.00000000e+00, 0.00000000e+00, 0.00000000e+00, -3.73308319e+00, -1.28501331e+00, -8.59075934e-01, 1.71813890e+00, 0.00000000e+00, 5.0000000000, 5.0000000000, 0.1711981667