TITLE = "Visualization of the volumetric solution"
VARIABLES = "x","y","Density","Momentum_x","Momentum_y","Energy","Pressure","Temperature","Mach","C<sub>p</sub>","Roe_Dissipation"
ZONE NODES= 3200, ELEMENTS= 3081, DATAPACKING=POINT, ZONETYPE=FEQUADRILATERAL
-2.000000e+00	1.250000e+00	1.220961e+00	5.375737e+01	2.030131e-06	2.533016e+05	1.008473e+05	2.877349e+02	1.294765e-01	-6.735575e-01	0.000000e+00	
-2.000000e+00	1.218354e+00	1.220961e+00	5.375849e+01	-5.804067e-04	2.533015e+05	1.008472e+05	2.877349e+02	1.294793e-01	-6.736633e-01	0.000000e+00	
-1.948718e+00	1.218354e+00	1.220951e+00	5.375877e+01	-6.827742e-04	2.532989e+05	1.008462e+05	2.877341e+02	1.294811e-01	-6.751080e-01	0.000000e+00	
-1.948718e+00	1.250000e+00	1.220952e+00	5.375697e+01	3.693906e-06	2.532990e+05	1.008462e+05	2.877342e+02	1.294767e-01	-6.750412e-01	0.000000e+00	
-2.000000e+00	1.186709e+00	1.220960e+00	5.375914e+01	-4.840680e-04	2.533014e+05	1.008472e+05	2.877348e+02	1.294809e-01	-6.737013e-01	0.000000e+00	
-1.948718e+00	1.186709e+00	1.220951e+00	5.375998e+01	-6.484613e-04	2.532990e+05	1.008462e+05	2.877341e+02	1.294840e-01	-6.750904e-01	0.000000e+00	
-2.000000e+00	1.155063e+00	1.220960e+00	5.375941e+01	-2.709317e-04	2.533014e+05	1.008471e+05	2.877348e+02	1.294816e-01	-6.737325e-01	0.000000e+00	
-1.948718e+00	1.155063e+00	1.220951e+00	5.376036e+01	-4.989242e-04	2.532990e+05	1.008462e+05	2.877341e+02	1.294850e-01	-6.751137e-01	0.000000e+00	
-2.000000e+00	1.123418e+00	1.220960e+00	5.375952e+01	-1.053688e-04	2.533014e+05	1.008471e+05	2.877348e+02	1.294818e-01	-6.737464e-01	0.000000e+00	
-1.948718e+00	1.123418e+00	1.220951e+00	5.376039e+01	-2.915627e-04	2.532990e+05	1.008462e+05	2.877341e+02	1.294850e-01	-6.751160e-01	0.000000e+00	
-2.000000e+00	1.091772e+00	1.220960e+00	5.375961e+01	-2.897355e-05	2.533013e+05	1.008471e+05	2.877348e+02	1.294821e-01	-6.737548e-01	0.000000e+00	
-1.948718e+00	1.091772e+00	1.220951e+00	5.376038e+01	-1.717503e-04	2.532990e+05	1.008462e+05	2.877341e+02	1.294850e-01	-6.751260e-01	0.000000e+00	
-2.000000e+00	1.060127e+00	1.220960e+00	5.375968e+01	-1.623434e-07	2.533013e+05	1.008471e+05	2.877348e+02	1.294822e-01	-6.737581e-01	0.000000e+00	
-1.948718e+00	1.060127e+00	1.220951e+00	5.376039e+01	-9.347464e-05	2.532989e+05	1.008461e+05	2.877341e+02	1.294850e-01	-6.751293e-01	0.000000e+00	
-2.000000e+00	1.028481e+00	1.220960e+00	5.375972e+01	6.504968e-06	2.533013e+05	1.008471e+05	2.877348e+02	1.294823e-01	-6.737599e-01	0.000000e+00	
-1.948718e+00	1.028481e+00	1.220951e+00	5.376040e+01	-5.292994e-05	2.532989e+05	1.008461e+05	2.877341e+02	1.294851e-01	-6.751340e-01	0.000000e+00	
-2.000000e+00	9.968354e-01	1.220960e+00	5.375974e+01	7.382150e-06	2.533013e+05	1.008471e+05	2.877348e+02	1.294824e-01	-6.737601e-01	0.000000e+00	
-1.948718e+00	9.968354e-01	1.220951e+00	5.376041e+01	-2.482580e-05	2.532989e+05	1.008461e+05	2.877341e+02	1.294851e-01	-6.751359e-01	0.000000e+00	
-2.000000e+00	9.651899e-01	1.220960e+00	5.375974e+01	6.090825e-06	2.533013e+05	1.008471e+05	2.877348e+02	1.294824e-01	-6.737599e-01	0.000000e+00	
-1.948718e+00	9.651899e-01	1.220951e+00	5.376041e+01	-7.892291e-06	2.532989e+05	1.008461e+05	2.877341e+02	1.294851e-01	-6.751379e-01	0.000000e+00	
-2.000000e+00	9.335443e-01	1.220960e+00	5.375974e+01	4.911549e-06	2.533013e+05	1.008471e+05	2.877348e+02	1.294824e-01	-6.737591e-01	0.000000e+00	
-1.948718e+00	9.335443e-01	1.220951e+00	5.376040e+01	4.743214e-06	2.532989e+05	1.008461e+05	2.877341e+02	1.294851e-01	-6.751387e-01	0.000000e+00	
-2.000000e+00	9.018987e-01	1.220960e+00	5.375972e+01	3.848873e-06	2.533013e+05	1.008471e+05	2.877348e+02	1.294823e-01	-6.737581e-01	0.000000e+00	
-1.948718e+00	9.018987e-01	1.220951e+00	5.376039e+01	1.308344e-05	2.532989e+05	1.008461e+05	2.877341e+02	1.294850e-01	-6.751392e-01	0.000000e+00	
-2.000000e+00	8.702532e-01	1.220960e+00	5.375971e+01	3.143810e-06	2.533013e+05	1.008471e+05	2.877348e+02	1.294823e-01	-6.737569e-01	0.000000e+00	
-1.948718e+00	8.702532e-01	1.220951e+00	5.376037e+01	1.933482e-05	2.532989e+05	1.008461e+05	2.877341e+02	1.294850e-01	-6.751392e-01	0.000000e+00	
-2.000000e+00	8.386076e-01	1.220960e+00	5.375969e+01	2.523869e-06	2.533013e+05	1.008471e+05	2.877348e+02	1.294823e-01	-6.737557e-01	0.000000e+00	
-1.948718e+00	8.386076e-01	1.220951e+00	5.376035e+01	2.337090e-05	2.532989e+05	1.008461e+05	2.877341e+02	1.294850e-01	-6.751390e-01	0.000000e+00	
-2.000000e+00	8.069620e-01	1.220960e+00	5.375967e+01	2.004817e-06	2.533013e+05	1.008471e+05	2.877348e+02	1.294822e-01	-6.737544e-01	0.000000e+00	
-1.948718e+00	8.069620e-01	1.220951e+00	5.376033e+01	2.598496e-05	2.532989e+05	1.008461e+05	2.877341e+02	1.294849e-01	-6.751385e-01	0.000000e+00	
-2.000000e+00	7.753165e-01	1.220960e+00	5.375965e+01	1.532717e-06	2.533013e+05	1.008471e+05	2.877348e+02	1.294822e-01	-6.737531e-01	0.000000e+00	
-1.948718e+00	7.753165e-01	1.220951e+00	5.376031e+01	2.727502e-05	2.532989e+05	1.008461e+05	2.877341e+02	1.294849e-01	-6.751379e-01	0.000000e+00	
-2.000000e+00	7.436709e-01	1.220960e+00	5.375963e+01	1.165083e-06	2.533013e+05	1.008471e+05	2.877348e+02	1.294821e-01	-6.737518e-01	0.000000e+00	
-1.948718e+00	7.436709e-01	1.220951e+00	5.376029e+01	2.772207e-05	2.532989e+05	1.008461e+05	2.877341e+02	1.294848e-01	-6.751372e-01	0.000000e+00	
-2.000000e+00	7.120253e-01	1.220960e+00	5.375961e+01	8.898567e-07	2.533013e+05	1.008471e+05	2.877348e+02	1.294821e-01	-6.737506e-01	0.000000e+00	
-1.948718e+00	7.120253e-01	1.220951e+00	5.376027e+01	2.749769e-05	2.532989e+05	1.008461e+05	2.877341e+02	1.294848e-01	-6.751365e-01	0.000000e+00	
-2.000000e+00	6.803797e-01	1.220960e+00	5.375959e+01	7.059007e-07	2.533013e+05	1.008471e+05	2.877348e+02	1.294820e-01	-6.737495e-01	0.000000e+00	
-1.948718e+00	6.803797e-01	1.220951e+00	5.376025e+01	2.685228e-05	2.532989e+05	1.008461e+05	2.877341e+02	1.294847e-01	-6.751357e-01	0.000000e+00	
-2.000000e+00	6.487342e-01	1.220960e+00	5.375957e+01	5.822465e-07	2.533014e+05	1.008471e+05	2.877348e+02	1.294820e-01	-6.737484e-01	0.000000e+00	
-1.948718e+00	6.487342e-01	1.220951e+00	5.376023e+01	2.587903e-05	2.532989e+05	1.008461e+05	2.877341e+02	1.294847e-01	-6.751349e-01	0.000000e+00	
-2.000000e+00	6.170886e-01	1.220960e+00	5.375956e+01	5.033104e-07	2.533014e+05	1.008471e+05	2.877348e+02	1.294819e-01	-6.737473e-01	0.000000e+00	
-1.948718e+00	6.170886e-01	1.220951e+00	5.376022e+01	2.469155e-05	2.532989e+05	1.008461e+05	2.877341e+02	1.294846e-01	-6.751342e-01	0.000000e+00	
-2.000000e+00	5.854430e-01	1.220960e+00	5.375954e+01	4.522950e-07	2.533014e+05	1.008471e+05	2.877348e+02	1.294819e-01	-6.737464e-01	0.000000e+00	
-1.948718e+00	5.854430e-01	1.220951e+00	5.376020e+01	2.334355e-05	2.532989e+05	1.008461e+05	2.877341e+02	1.294846e-01	-6.751334e-01	0.000000e+00	
-2.000000e+00	5.537975e-01	1.220960e+00	5.375952e+01	4.229096e-07	2.533014e+05	1.008471e+05	2.877348e+02	1.294818e-01	-6.737455e-01	0.000000e+00	
-1.948718e+00	5.537975e-01	1.220951e+00	5.376018e+01	2.189763e-05	2.532989e+05	1.008461e+05	2.877341e+02	1.294845e-01	-6.751327e-01	0.000000e+00	
-2.000000e+00	5.221519e-01	1.220960e+00	5.375951e+01	4.086749e-07	2.533014e+05	1.008471e+05	2.877348e+02	1.294818e-01	-6.737447e-01	0.000000e+00	
-1.948718e+00	5.221519e-01	1.220951e+00	5.376017e+01	2.039015e-05	2.532989e+05	1.008461e+05	2.877341e+02	1.294845e-01	-6.751320e-01	0.000000e+00	
-2.000000e+00	4.905063e-01	1.220960e+00	5.375950e+01	4.064318e-07	2.533014e+05	1.008471e+05	2.877348e+02	1.294818e-01	-6.737439e-01	0.000000e+00	
-1.948718e+00	4.905063e-01	1.220951e+00	5.376016e+01	1.885683e-05	2.532989e+05	1.008461e+05	2.877341e+02	1.294845e-01	-6.751314e-01	0.000000e+00	
-2.000000e+00	4.588608e-01	1.220960e+00	5.375949e+01	4.124962e-07	2.533014e+05	1.008471e+05	2.877348e+02	1.294818e-01	-6.737432e-01	0.000000e+00	
-1.948718e+00	4.588608e-01	1.220951e+00	5.376015e+01	1.731919e-05	2.532989e+05	1.008461e+05	2.877341e+02	1.294845e-01	-6.751308e-01	0.000000e+00	
-2.000000e+00	4.272152e-01	1.220960e+00	5.375948e+01	4.246215e-07	2.533014e+05	1.008471e+05	2.877348e+02	1.294817e-01	-6.737426e-01	0.000000e+00	
-1.948718e+00	4.272152e-01	1.220951e+00	5.376014e+01	1.579588e-05	2.532989e+05	1.008461e+05	2.877341e+02	1.294844e-01	-6.751303e-01	0.000000e+00	
-2.000000e+00	3.955696e-01	1.220960e+00	5.375947e+01	4.406699e-07	2.533014e+05	1.008471e+05	2.877348e+02	1.294817e-01	-6.737420e-01	0.000000e+00	
-1.948718e+00	3.955696e-01	1.220951e+00	5.376013e+01	1.429812e-05	2.532989e+05	1.008461e+05	2.877341e+02	1.294844e-01	-6.751298e-01	0.000000e+00	
-2.000000e+00	3.639241e-01	1.220960e+00	5.375946e+01	4.593591e-07	2.533014e+05	1.008471e+05	2.877348e+02	1.294817e-01	-6.737415e-01	0.000000e+00	
-1.948718e+00	3.639241e-01	1.220951e+00	5.376012e+01	1.283480e-05	2.532989e+05	1.008461e+05	2.877341e+02	1.294844e-01	-6.751293e-01	0.000000e+00	
-2.000000e+00	3.322785e-01	1.220960e+00	5.375945e+01	4.796118e-07	2.533014e+05	1.008471e+05	2.877348e+02	1.294817e-01	-6.737411e-01	0.000000e+00	
-1.948718e+00	3.322785e-01	1.220951e+00	5.376011e+01	1.141082e-05	2.532989e+05	1.008461e+05	2.877341e+02	1.294844e-01	-6.751289e-01	0.000000e+00	
-2.000000e+00	3.006329e-01	1.220960e+00	5.375944e+01	5.007804e-07	2.533014e+05	1.008471e+05	2.877348e+02	1.294817e-01	-6.737407e-01	0.000000e+00	
-1.948718e+00	3.006329e-01	1.220951e+00	5.376011e+01	1.002936e-05	2.532989e+05	1.008461e+05	2.877341e+02	1.294844e-01	-6.751285e-01	0.000000e+00	
-2.000000e+00	2.689873e-01	1.220960e+00	5.375944e+01	5.223469e-07	2.533014e+05	1.008471e+05	2.877348e+02	1.294816e-01	-6.737404e-01	0.000000e+00	
-1.948718e+00	2.689873e-01	1.220951e+00	5.376010e+01	8.691358e-06	2.532989e+05	1.008461e+05	2.877341e+02	1.294843e-01	-6.751282e-01	0.000000e+00	
-2.000000e+00	2.373418e-01	1.220960e+00	5.375943e+01	5.440035e-07	2.533014e+05	1.008471e+05	2.877348e+02	1.294816e-01	-6.737401e-01	0.000000e+00	
-1.948718e+00	2.373418e-01	1.220951e+00	5.376010e+01	7.396497e-06	2.532989e+05	1.008461e+05	2.877341e+02	1.294843e-01	-6.751280e-01	0.000000e+00	
-2.000000e+00	2.056962e-01	1.220960e+00	5.375943e+01	5.655261e-07	2.533014e+05	1.008471e+05	2.877348e+02	1.294816e-01	-6.737398e-01	0.000000e+00	
-1.948718e+00	2.056962e-01	1.220951e+00	5.376009e+01	6.143143e-06	2.532989e+05	1.008461e+05	2.877341e+02	1.294843e-01	-6.751277e-01	0.000000e+00	
-2.000000e+00	1.740506e-01	1.220960e+00	5.375943e+01	5.868028e-07	2.533014e+05	1.008471e+05	2.877348e+02	1.294816e-01	-6.737397e-01	0.000000e+00	
-1.948718e+00	1.740506e-01	1.220951e+00	5.376009e+01	4.928842e-06	2.532989e+05	1.008461e+05	2.877341e+02	1.294843e-01	-6.751276e-01	0.000000e+00	
-2.000000e+00	1.424051e-01	1.220960e+00	5.375943e+01	6.077765e-07	2.533014e+05	1.008471e+05	2.877348e+02	1.294816e-01	-6.737395e-01	0.000000e+00	
-1.948718e+00	1.424051e-01	1.220951e+00	5.376009e+01	3.750348e-06	2.532989e+05	1.008461e+05	2.877341e+02	1.294843e-01	-6.751274e-01	0.000000e+00	
-2.000000e+00	1.107595e-01	1.220960e+00	5.375942e+01	6.284505e-07	2.533014e+05	1.008471e+05	2.877348e+02	1.294816e-01	-6.737394e-01	0.000000e+00	
-1.948718e+00	1.107595e-01	1.220951e+00	5.376008e+01	2.603886e-06	2.532989e+05	1.008461e+05	2.877341e+02	1.294843e-01	-6.751273e-01	0.000000e+00	
-2.000000e+00	7.911392e-02	1.220960e+00	5.375942e+01	6.488578e-07	2.533014e+05	1.008471e+05	2.877348e+02	1.294816e-01	-6.737394e-01	0.000000e+00	
-1.948718e+00	7.911392e-02	1.220951e+00	5.376008e+01	1.485207e-06	2.532989e+05	1.008461e+05	2.877341e+02	1.294843e-01	-6.751273e-01	0.000000e+00	
-2.000000e+00	4.746835e-02	1.220960e+00	5.375942e+01	6.690597e-07	2.533014e+05	1.008471e+05	2.877348e+02	1.294816e-01	-6.737394e-01	0.000000e+00	
-1.948718e+00	4.746835e-02	1.220951e+00	5.376008e+01	3.897425e-07	2.532989e+05	1.008461e+05	2.877341e+02	1.294843e-01	-6.751273e-01	0.000000e+00	
-2.000000e+00	1.582278e-02	1.220960e+00	5.375942e+01	6.891324e-07	2.533014e+05	1.008471e+05	2.877348e+02	1.294816e-01	-6.737394e-01	0.000000e+00	
-1.948718e+00	1.582278e-02	1.220951e+00	5.376008e+01	-6.873309e-07	2.532989e+05	1.008461e+05	2.877341e+02	1.294843e-01	-6.751273e-01	0.000000e+00	
-2.000000e+00	-1.582278e-02	1.220960e+00	5.375942e+01	7.091687e-07	2.533014e+05	1.008471e+05	2.877348e+02	1.294816e-01	-6.737395e-01	0.000000e+00	
-1.948718e+00	-1.582278e-02	1.220951e+00	5.376008e+01	-1.750994e-06	2.532989e+05	1.008461e+05	2.877341e+02	1.294843e-01	-6.751274e-01	0.000000e+00	
-2.000000e+00	-4.746835e-02	1.220960e+00	5.375943e+01	7.292674e-07	2.533014e+05	1.008471e+05	2.877348e+02	1.294816e-01	-6.737396e-01	0.000000e+00	
-1.948718e+00	-4.746835e-02	1.220951e+00	5.376009e+01	-2.806335e-06	2.532989e+05	1.008461e+05	2.877341e+02	1.294843e-01	-6.751275e-01	0.000000e+00	
-2.000000e+00	-7.911392e-02	1.220960e+00	5.375943e+01	7.495271e-07	2.533014e+05	1.008471e+05	2.877348e+02	1.294816e-01	-6.737398e-01	0.000000e+00	
-1.948718e+00	-7.911392e-02	1.220951e+00	5.376009e+01	-3.858472e-06	2.532989e+05	1.008461e+05	2.877341e+02	1.294843e-01	-6.751276e-01	0.000000e+00	
-2.000000e+00	-1.107595e-01	1.220960e+00	5.375943e+01	7.700359e-07	2.533014e+05	1.008471e+05	2.877348e+02	1.294816e-01	-6.737399e-01	0.000000e+00	
-1.948718e+00	-1.107595e-01	1.220951e+00	5.376009e+01	-4.912500e-06	2.532989e+05	1.008461e+05	2.877341e+02	1.294843e-01	-6.751278e-01	0.000000e+00	
-2.000000e+00	-1.424051e-01	1.220960e+00	5.375944e+01	7.908690e-07	2.533014e+05	1.008471e+05	2.877348e+02	1.294816e-01	-6.737402e-01	0.000000e+00	
-1.948718e+00	-1.424051e-01	1.220951e+00	5.376010e+01	-5.973389e-06	2.532989e+05	1.008461e+05	2.877341e+02	1.294843e-01	-6.751281e-01	0.000000e+00	
-2.000000e+00	-1.740506e-01	1.220960e+00	5.375944e+01	8.120727e-07	2.533014e+05	1.008471e+05	2.877348e+02	1.294816e-01	-6.737405e-01	0.000000e+00	
-1.948718e+00	-1.740506e-01	1.220951e+00	5.376010e+01	-7.045938e-06	2.532989e+05	1.008461e+05	2.877341e+02	1.294843e-01	-6.751283e-01	0.000000e+00	
-2.000000e+00	-2.056962e-01	1.220960e+00	5.375945e+01	8.336651e-07	2.533014e+05	1.008471e+05	2.877348e+02	1.294817e-01	-6.737408e-01	0.000000e+00	
-1.948718e+00	-2.056962e-01	1.220951e+00	5.376011e+01	-8.134614e-06	2.532989e+05	1.008461e+05	2.877341e+02	1.294844e-01	-6.751286e-01	0.000000e+00	
-2.000000e+00	-2.373418e-01	1.220960e+00	5.375945e+01	8.556060e-07	2.533014e+05	1.008471e+05	2.877348e+02	1.294817e-01	-6.737411e-01	0.000000e+00	
-1.948718e+00	-2.373418e-01	1.220951e+00	5.376011e+01	-9.243509e-06	2.532989e+05	1.008461e+05	2.877341e+02	1.294844e-01	-6.751290e-01	0.000000e+00	
-2.000000e+00	-2.689873e-01	1.220960e+00	5.375946e+01	8.778048e-07	2.533014e+05	1.008471e+05	2.877348e+02	1.294817e-01	-6.737415e-01	0.000000e+00	
-1.948718e+00	-2.689873e-01	1.220951e+00	5.376012e+01	-1.037606e-05	2.532989e+05	1.008461e+05	2.877341e+02	1.294844e-01	-6.751294e-01	0.000000e+00	
-2.000000e+00	-3.006329e-01	1.220960e+00	5.375946e+01	9.000601e-07	2.533014e+05	1.008471e+05	2.877348e+02	1.294817e-01	-6.737420e-01	0.000000e+00	
-1.948718e+00	-3.006329e-01	1.220951e+00	5.376013e+01	-1.153504e-05	2.532989e+05	1.008461e+05	2.877341e+02	1.294844e-01	-6.751298e-01	0.000000e+00	
-2.000000e+00	-3.322785e-01	1.220960e+00	5.375947e+01	9.220931e-07	2.533014e+05	1.008471e+05	2.877348e+02	1.294817e-01	-6.737425e-01	0.000000e+00	
-1.948718e+00	-3.322785e-01	1.220951e+00	5.376013e+01	-1.272204e-05	2.532989e+05	1.008461e+05	2.877341e+02	1.294844e-01	-6.751303e-01	0.000000e+00	
-2.000000e+00	-3.639241e-01	1.220960e+00	5.375948e+01	9.434119e-07	2.533014e+05	1.008471e+05	2.877348e+02	1.294817e-01	-6.737430e-01	0.000000e+00	
-1.948718e+00	-3.639241e-01	1.220951e+00	5.376014e+01	-1.393758e-05	2.532989e+05	1.008461e+05	2.877341e+02	1.294844e-01	-6.751308e-01	0.000000e+00	
-2.000000e+00	-3.955696e-01	1.220960e+00	5.375949e+01	9.634062e-07	2.533014e+05	1.008471e+05	2.877348e+02	1.294818e-01	-6.737436e-01	0.000000e+00	
-1.948718e+00	-3.955696e-01	1.220951e+00	5.376015e+01	-1.518003e-05	2.532989e+05	1.008461e+05	2.877341e+02	1.294845e-01	-6.751313e-01	0.000000e+00	
-2.000000e+00	-4.272152e-01	1.220960e+00	5.375950e+01	9.810256e-07	2.533014e+05	1.008471e+05	2.877348e+02	1.294818e-01	-6.737443e-01	0.000000e+00	
-1.948718e+00	-4.272152e-01	1.220951e+00	5.376016e+01	-1.644627e-05	2.532989e+05	1.008461e+05	2.877341e+02	1.294845e-01	-6.751319e-01	0.000000e+00	
-2.000000e+00	-4.588608e-01	1.220960e+00	5.375951e+01	9.950396e-07	2.533014e+05	1.008471e+05	2.877348e+02	1.294818e-01	-6.737449e-01	0.000000e+00	
-1.948718e+00	-4.588608e-01	1.220951e+00	5.376017e+01	-1.772924e-05	2.532989e+05	1.008461e+05	2.877341e+02	1.294845e-01	-6.751325e-01	0.000000e+00	
-2.000000e+00	-4.905063e-01	1.220960e+00	5.375953e+01	1.003331e-06	2.533014e+05	1.008471e+05	2.877348e+02	1.294819e-01	-6.737457e-01	0.000000e+00	
-1.948718e+00	-4.905063e-01	1.220951e+00	5.376019e+01	-1.901987e-05	2.532989e+05	1.008461e+05	2.877341e+02	1.294846e-01	-6.751332e-01	0.000000e+00	
-2.000000e+00	-5.221519e-01	1.220960e+00	5.375954e+01	1.003733e-06	2.533014e+05	1.008471e+05	2.877348e+02	1.294819e-01	-6.737465e-01	0.000000e+00	
-1.948718e+00	-5.221519e-01	1.220951e+00	5.376020e+01	-2.030154e-05	2.532989e+05	1.008461e+05	2.877341e+02	1.294846e-01	-6.751339e-01	0.000000e+00	
-2.000000e+00	-5.537975e-01	1.220960e+00	5.375955e+01	9.925593e-07	2.533014e+05	1.008471e+05	2.877348e+02	1.294819e-01	-6.737474e-01	0.000000e+00	
-1.948718e+00	-5.537975e-01	1.220951e+00	5.376021e+01	-2.155536e-05	2.532989e+05	1.008461e+05	2.877341e+02	1.294846e-01	-6.751346e-01	0.000000e+00	
-2.000000e+00	-5.854430e-01	1.220960e+00	5.375957e+01	9.667858e-07	2.533014e+05	1.008471e+05	2.877348e+02	1.294820e-01	-6.737483e-01	0.000000e+00	
-1.948718e+00	-5.854430e-01	1.220951e+00	5.376023e+01	-2.274771e-05	2.532989e+05	1.008461e+05	2.877341e+02	1.294847e-01	-6.751354e-01	0.000000e+00	
-2.000000e+00	-6.170886e-01	1.220960e+00	5.375959e+01	9.198680e-07	2.533013e+05	1.008471e+05	2.877348e+02	1.294820e-01	-6.737493e-01	0.000000e+00	
-1.948718e+00	-6.170886e-01	1.220951e+00	5.376025e+01	-2.384552e-05	2.532989e+05	1.008461e+05	2.877341e+02	1.294847e-01	-6.751362e-01	0.000000e+00	
-2.000000e+00	-6.487342e-01	1.220960e+00	5.375960e+01	8.457914e-07	2.533013e+05	1.008471e+05	2.877348e+02	1.294820e-01	-6.737503e-01	0.000000e+00	
-1.948718e+00	-6.487342e-01	1.220951e+00	5.376026e+01	-2.478804e-05	2.532989e+05	1.008461e+05	2.877341e+02	1.294847e-01	-6.751369e-01	0.000000e+00	
-2.000000e+00	-6.803797e-01	1.220960e+00	5.375962e+01	7.275510e-07	2.533013e+05	1.008471e+05	2.877348e+02	1.294821e-01	-6.737514e-01	0.000000e+00	
-1.948718e+00	-6.803797e-01	1.220951e+00	5.376028e+01	-2.552594e-05	2.532989e+05	1.008461e+05	2.877341e+02	1.294848e-01	-6.751377e-01	0.000000e+00	
-2.000000e+00	-7.120253e-01	1.220960e+00	5.375964e+01	5.501945e-07	2.533013e+05	1.008471e+05	2.877348e+02	1.294821e-01	-6.737526e-01	0.000000e+00	
-1.948718e+00	-7.120253e-01	1.220951e+00	5.376030e+01	-2.594635e-05	2.532989e+05	1.008461e+05	2.877341e+02	1.294848e-01	-6.751385e-01	0.000000e+00	
-2.000000e+00	-7.436709e-01	1.220960e+00	5.375966e+01	2.821330e-07	2.533013e+05	1.008471e+05	2.877348e+02	1.294822e-01	-6.737538e-01	0.000000e+00	
-1.948718e+00	-7.436709e-01	1.220951e+00	5.376032e+01	-2.596287e-05	2.532989e+05	1.008461e+05	2.877341e+02	1.294849e-01	-6.751392e-01	0.000000e+00	
-2.000000e+00	-7.753165e-01	1.220960e+00	5.375968e+01	-7.642791e-08	2.533013e+05	1.008471e+05	2.877348e+02	1.294822e-01	-6.737550e-01	0.000000e+00	
-1.948718e+00	-7.753165e-01	1.220951e+00	5.376034e+01	-2.532271e-05	2.532989e+05	1.008461e+05	2.877341e+02	1.294849e-01	-6.751399e-01	0.000000e+00	
-2.000000e+00	-8.069620e-01	1.220960e+00	5.375970e+01	-5.394375e-07	2.533013e+05	1.008471e+05	2.877348e+02	1.294823e-01	-6.737563e-01	0.000000e+00	
-1.948718e+00	-8.069620e-01	1.220951e+00	5.376036e+01	-2.386669e-05	2.532989e+05	1.008461e+05	2.877341e+02	1.294850e-01	-6.751405e-01	0.000000e+00	
-2.000000e+00	-8.386076e-01	1.220960e+00	5.375972e+01	-1.046292e-06	2.533013e+05	1.008471e+05	2.877348e+02	1.294823e-01	-6.737575e-01	0.000000e+00	
-1.948718e+00	-8.386076e-01	1.220951e+00	5.376038e+01	-2.110279e-05	2.532989e+05	1.008461e+05	2.877341e+02	1.294850e-01	-6.751409e-01	0.000000e+00	
-2.000000e+00	-8.702532e-01	1.220960e+00	5.375974e+01	-1.655344e-06	2.533013e+05	1.008471e+05	2.877348e+02	1.294824e-01	-6.737587e-01	0.000000e+00	
-1.948718e+00	-8.702532e-01	1.220951e+00	5.376040e+01	-1.695774e-05	2.532989e+05	1.008461e+05	2.877341e+02	1.294851e-01	-6.751411e-01	0.000000e+00	
-2.000000e+00	-9.018987e-01	1.220960e+00	5.375975e+01	-2.341997e-06	2.533013e+05	1.008471e+05	2.877348e+02	1.294824e-01	-6.737599e-01	0.000000e+00	
-1.948718e+00	-9.018987e-01	1.220951e+00	5.376041e+01	-1.060339e-05	2.532989e+05	1.008461e+05	2.877341e+02	1.294851e-01	-6.751411e-01	0.000000e+00	
-2.000000e+00	-9.335443e-01	1.220960e+00	5.375976e+01	-3.388409e-06	2.533013e+05	1.008471e+05	2.877348e+02	1.294824e-01	-6.737608e-01	0.000000e+00	
-1.948718e+00	-9.335443e-01	1.220951e+00	5.376043e+01	-2.220658e-06	2.532989e+05	1.008461e+05	2.877341e+02	1.294851e-01	-6.751405e-01	0.000000e+00	
-2.000000e+00	-9.651899e-01	1.220960e+00	5.375977e+01	-4.532012e-06	2.533013e+05	1.008471e+05	2.877348e+02	1.294825e-01	-6.737616e-01	0.000000e+00	
-1.948718e+00	-9.651899e-01	1.220951e+00	5.376044e+01	1.048900e-05	2.532989e+05	1.008461e+05	2.877341e+02	1.294852e-01	-6.751397e-01	0.000000e+00	
-2.000000e+00	-9.968354e-01	1.220960e+00	5.375977e+01	-5.795426e-06	2.533013e+05	1.008471e+05	2.877348e+02	1.294824e-01	-6.737618e-01	0.000000e+00	
-1.948718e+00	-9.968354e-01	1.220951e+00	5.376044e+01	2.739580e-05	2.532989e+05	1.008461e+05	2.877341e+02	1.294852e-01	-6.751377e-01	0.000000e+00	
-2.000000e+00	-1.028481e+00	1.220960e+00	5.375975e+01	-4.848562e-06	2.533013e+05	1.008471e+05	2.877348e+02	1.294824e-01	-6.737615e-01	0.000000e+00	
-1.948718e+00	-1.028481e+00	1.220951e+00	5.376043e+01	5.560669e-05	2.532989e+05	1.008461e+05	2.877341e+02	1.294851e-01	-6.751357e-01	0.000000e+00	
-2.000000e+00	-1.060127e+00	1.220960e+00	5.375970e+01	1.872996e-06	2.533013e+05	1.008471e+05	2.877348e+02	1.294823e-01	-6.737596e-01	0.000000e+00	
-1.948718e+00	-1.060127e+00	1.220951e+00	5.376041e+01	9.608579e-05	2.532989e+05	1.008461e+05	2.877341e+02	1.294851e-01	-6.751309e-01	0.000000e+00	
-2.000000e+00	-1.091772e+00	1.220960e+00	5.375963e+01	3.087228e-05	2.533013e+05	1.008471e+05	2.877348e+02	1.294821e-01	-6.737563e-01	0.000000e+00	
-1.948718e+00	-1.091772e+00	1.220951e+00	5.376041e+01	1.747392e-04	2.532989e+05	1.008461e+05	2.877341e+02	1.294851e-01	-6.751276e-01	0.000000e+00	
-2.000000e+00	-1.123418e+00	1.220960e+00	5.375954e+01	1.075267e-04	2.533013e+05	1.008471e+05	2.877348e+02	1.294819e-01	-6.737479e-01	0.000000e+00	
-1.948718e+00	-1.123418e+00	1.220951e+00	5.376041e+01	2.946794e-04	2.532990e+05	1.008462e+05	2.877341e+02	1.294851e-01	-6.751174e-01	0.000000e+00	
-2.000000e+00	-1.155063e+00	1.220960e+00	5.375943e+01	2.737810e-04	2.533014e+05	1.008471e+05	2.877348e+02	1.294816e-01	-6.737340e-01	0.000000e+00	
-1.948718e+00	-1.155063e+00	1.220951e+00	5.376039e+01	5.033390e-04	2.532990e+05	1.008462e+05	2.877341e+02	1.294850e-01	-6.751152e-01	0.000000e+00	
-2.000000e+00	-1.186709e+00	1.220960e+00	5.375916e+01	4.874870e-04	2.533014e+05	1.008472e+05	2.877348e+02	1.294809e-01	-6.737026e-01	0.000000e+00	
-1.948718e+00	-1.186709e+00	1.220951e+00	5.376000e+01	6.534881e-04	2.532990e+05	1.008462e+05	2.877341e+02	1.294841e-01	-6.750916e-01	0.000000e+00	
-2.000000e+00	-1.218354e+00	1.220961e+00	5.375851e+01	5.854195e-04	2.533015e+05	1.008472e+05	2.877349e+02	1.294793e-01	-6.736648e-01	0.000000e+00	
-1.948718e+00	-1.218354e+00	1.220951e+00	5.375878e+01	6.896525e-04	2.532989e+05	1.008462e+05	2.877341e+02	1.294811e-01	-6.751092e-01	0.000000e+00	
-1.897436e+00	1.218354e+00	1.220945e+00	5.375831e+01	-6.115995e-04	2.532970e+05	1.008454e+05	2.877335e+02	1.294808e-01	-6.761810e-01	0.000000e+00	
-1.897436e+00	1.250000e+00	1.220945e+00	5.375603e+01	2.804490e-07	2.532970e+05	1.008454e+05	2.877335e+02	1.294753e-01	-6.761461e-01	0.000000e+00	
-1.897436e+00	1.186709e+00	1.220945e+00	5.376014e+01	-6.759142e-04	2.532971e+05	1.008454e+05	2.877335e+02	1.294852e-01	-6.761662e-01	0.000000e+00	
-1.897436e+00	1.155063e+00	1.220945e+00	5.376077e+01	-5.859837e-04	2.532971e+05	1.008454e+05	2.877335e+02	1.294868e-01	-6.761864e-01	0.000000e+00	
-1.897436e+00	1.123418e+00	1.220945e+00	5.376079e+01	-3.813240e-04	2.532971e+05	1.008454e+05	2.877335e+02	1.294868e-01	-6.761843e-01	0.000000e+00	
-1.897436e+00	1.091772e+00	1.220945e+00	5.376070e+01	-2.448772e-04	2.532971e+05	1.008454e+05	2.877335e+02	1.294866e-01	-6.761934e-01	0.000000e+00	
-1.897436e+00	1.060127e+00	1.220945e+00	5.376063e+01	-1.378704e-04	2.532971e+05	1.008454e+05	2.877335e+02	1.294864e-01	-6.761945e-01	0.000000e+00	
-1.897436e+00	1.028481e+00	1.220945e+00	5.376060e+01	-7.551340e-05	2.532971e+05	1.008454e+05	2.877335e+02	1.294864e-01	-6.761986e-01	0.000000e+00	
-1.897436e+00	9.968354e-01	1.220945e+00	5.376058e+01	-2.889257e-05	2.532971e+05	1.008454e+05	2.877335e+02	1.294863e-01	-6.761997e-01	0.000000e+00	
-1.897436e+00	9.651899e-01	1.220945e+00	5.376056e+01	-1.275867e-07	2.532971e+05	1.008454e+05	2.877335e+02	1.294863e-01	-6.762014e-01	0.000000e+00	
-1.897436e+00	9.335443e-01	1.220945e+00	5.376054e+01	2.103968e-05	2.532971e+05	1.008454e+05	2.877335e+02	1.294862e-01	-6.762019e-01	0.000000e+00	
-1.897436e+00	9.018987e-01	1.220945e+00	5.376052e+01	3.452697e-05	2.532971e+05	1.008454e+05	2.877335e+02	1.294862e-01	-6.762024e-01	0.000000e+00	
-1.897436e+00	8.702532e-01	1.220945e+00	5.376049e+01	4.438166e-05	2.532971e+05	1.008454e+05	2.877335e+02	1.294861e-01	-6.762023e-01	0.000000e+00	
-1.897436e+00	8.386076e-01	1.220945e+00	5.376047e+01	5.055015e-05	2.532971e+05	1.008454e+05	2.877335e+02	1.294861e-01	-6.762022e-01	0.000000e+00	
-1.897436e+00	8.069620e-01	1.220945e+00	5.376045e+01	5.443150e-05	2.532971e+05	1.008454e+05	2.877335e+02	1.294860e-01	-6.762018e-01	0.000000e+00	
-1.897436e+00	7.753165e-01	1.220945e+00	5.376042e+01	5.609638e-05	2.532971e+05	1.008454e+05	2.877335e+02	1.294859e-01	-6.762014e-01	0.000000e+00	
-1.897436e+00	7.436709e-01	1.220945e+00	5.376040e+01	5.630564e-05	2.532971e+05	1.008454e+05	2.877335e+02	1.294859e-01	-6.762008e-01	0.000000e+00	
-1.897436e+00	7.120253e-01	1.220945e+00	5.376038e+01	5.531721e-05	2.532971e+05	1.008454e+05	2.877335e+02	1.294858e-01	-6.762002e-01	0.000000e+00	
-1.897436e+00	6.803797e-01	1.220945e+00	5.376036e+01	5.357628e-05	2.532971e+05	1.008454e+05	2.877335e+02	1.294858e-01	-6.761996e-01	0.000000e+00	
-1.897436e+00	6.487342e-01	1.220945e+00	5.376034e+01	5.126062e-05	2.532971e+05	1.008454e+05	2.877335e+02	1.294857e-01	-6.761989e-01	0.000000e+00	
-1.897436e+00	6.170886e-01	1.220945e+00	5.376032e+01	4.858449e-05	2.532971e+05	1.008454e+05	2.877335e+02	1.294857e-01	-6.761982e-01	0.000000e+00	
-1.897436e+00	5.854430e-01	1.220945e+00	5.376031e+01	4.564704e-05	2.532971e+05	1.008454e+05	2.877335e+02	1.294857e-01	-6.761976e-01	0.000000e+00	
-1.897436e+00	5.537975e-01	1.220945e+00	5.376029e+01	4.256025e-05	2.532971e+05	1.008454e+05	2.877335e+02	1.294856e-01	-6.761970e-01	0.000000e+00	
-1.897436e+00	5.221519e-01	1.220945e+00	5.376028e+01	3.938735e-05	2.532971e+05	1.008454e+05	2.877335e+02	1.294856e-01	-6.761964e-01	0.000000e+00	
-1.897436e+00	4.905063e-01	1.220945e+00	5.376027e+01	3.619137e-05	2.532971e+05	1.008454e+05	2.877335e+02	1.294856e-01	-6.761958e-01	0.000000e+00	
-1.897436e+00	4.588608e-01	1.220945e+00	5.376026e+01	3.300998e-05	2.532971e+05	1.008454e+05	2.877335e+02	1.294855e-01	-6.761953e-01	0.000000e+00	
-1.897436e+00	4.272152e-01	1.220945e+00	5.376024e+01	2.987610e-05	2.532971e+05	1.008454e+05	2.877335e+02	1.294855e-01	-6.761948e-01	0.000000e+00	
-1.897436e+00	3.955696e-01	1.220945e+00	5.376024e+01	2.680899e-05	2.532971e+05	1.008454e+05	2.877335e+02	1.294855e-01	-6.761943e-01	0.000000e+00	
-1.897436e+00	3.639241e-01	1.220945e+00	5.376023e+01	2.382362e-05	2.532971e+05	1.008454e+05	2.877335e+02	1.294855e-01	-6.761939e-01	0.000000e+00	
-1.897436e+00	3.322785e-01	1.220945e+00	5.376022e+01	2.092766e-05	2.532971e+05	1.008454e+05	2.877335e+02	1.294854e-01	-6.761935e-01	0.000000e+00	
-1.897436e+00	3.006329e-01	1.220945e+00	5.376021e+01	1.812558e-05	2.532971e+05	1.008454e+05	2.877335e+02	1.294854e-01	-6.761932e-01	0.000000e+00	
-1.897436e+00	2.689873e-01	1.220945e+00	5.376021e+01	1.541772e-05	2.532971e+05	1.008454e+05	2.877335e+02	1.294854e-01	-6.761929e-01	0.000000e+00	
-1.897436e+00	2.373418e-01	1.220945e+00	5.376020e+01	1.280220e-05	2.532971e+05	1.008454e+05	2.877335e+02	1.294854e-01	-6.761927e-01	0.000000e+00	
-1.897436e+00	2.056962e-01	1.220945e+00	5.376020e+01	1.027471e-05	2.532971e+05	1.008454e+05	2.877335e+02	1.294854e-01	-6.761925e-01	0.000000e+00	
-1.897436e+00	1.740506e-01	1.220945e+00	5.376020e+01	7.829438e-06	2.532971e+05	1.008454e+05	2.877335e+02	1.294854e-01	-6.761923e-01	0.000000e+00	
-1.897436e+00	1.424051e-01	1.220945e+00	5.376020e+01	5.459123e-06	2.532971e+05	1.008454e+05	2.877335e+02	1.294854e-01	-6.761922e-01	0.000000e+00	
-1.897436e+00	1.107595e-01	1.220945e+00	5.376019e+01	3.155534e-06	2.532971e+05	1.008454e+05	2.877335e+02	1.294854e-01	-6.761921e-01	0.000000e+00	
-1.897436e+00	7.911392e-02	1.220945e+00	5.376019e+01	9.095681e-07	2.532971e+05	1.008454e+05	2.877335e+02	1.294854e-01	-6.761921e-01	0.000000e+00	
-1.897436e+00	4.746835e-02	1.220945e+00	5.376019e+01	-1.288451e-06	2.532971e+05	1.008454e+05	2.877335e+02	1.294854e-01	-6.761921e-01	0.000000e+00	
-1.897436e+00	1.582278e-02	1.220945e+00	5.376019e+01	-3.448670e-06	2.532971e+05	1.008454e+05	2.877335e+02	1.294854e-01	-6.761921e-01	0.000000e+00	
-1.897436e+00	-1.582278e-02	1.220945e+00	5.376019e+01	-5.581539e-06	2.532971e+05	1.008454e+05	2.877335e+02	1.294854e-01	-6.761922e-01	0.000000e+00	
-1.897436e+00	-4.746835e-02	1.220945e+00	5.376020e+01	-7.697721e-06	2.532971e+05	1.008454e+05	2.877335e+02	1.294854e-01	-6.761923e-01	0.000000e+00	
-1.897436e+00	-7.911392e-02	1.220945e+00	5.376020e+01	-9.807948e-06	2.532971e+05	1.008454e+05	2.877335e+02	1.294854e-01	-6.761925e-01	0.000000e+00	
-1.897436e+00	-1.107595e-01	1.220945e+00	5.376020e+01	-1.192292e-05	2.532971e+05	1.008454e+05	2.877335e+02	1.294854e-01	-6.761927e-01	0.000000e+00	