TITLE = "Visualization of the volumetric solution"
VARIABLES = "x","y","Density","Momentum_x","Momentum_y","Energy","Pressure","Temperature","Mach","C<sub>p</sub>","Roe_Dissipation"
ZONE NODES= 3200, ELEMENTS= 3081, DATAPACKING=POINT, ZONETYPE=FEQUADRILATERAL
1.000000e+00	1.250000e+00	1.349154e+00	5.375944e+01	-1.808623e+02	3.035670e+05	1.161492e+05	2.999060e+02	4.028375e-01	2.090051e+01	0.000000e+00	
1.000000e+00	1.218354e+00	1.349153e+00	5.375947e+01	-1.808623e+02	3.035669e+05	1.161492e+05	2.999061e+02	4.028373e-01	2.090051e+01	0.000000e+00	
1.051282e+00	1.218354e+00	1.349161e+00	5.375873e+01	-1.808570e+02	3.035683e+05	1.161501e+05	2.999067e+02	4.028236e-01	2.090171e+01	0.000000e+00	
1.051282e+00	1.250000e+00	1.349161e+00	5.375871e+01	-1.808571e+02	3.035682e+05	1.161500e+05	2.999066e+02	4.028238e-01	2.090169e+01	0.000000e+00	
1.000000e+00	1.186709e+00	1.349154e+00	5.375939e+01	-1.808621e+02	3.035670e+05	1.161492e+05	2.999061e+02	4.028370e-01	2.090055e+01	0.000000e+00	
1.051282e+00	1.186709e+00	1.349161e+00	5.375865e+01	-1.808569e+02	3.035683e+05	1.161501e+05	2.999067e+02	4.028233e-01	2.090174e+01	0.000000e+00	
1.000000e+00	1.155063e+00	1.349154e+00	5.375929e+01	-1.808620e+02	3.035670e+05	1.161492e+05	2.999061e+02	4.028367e-01	2.090056e+01	0.000000e+00	
1.051282e+00	1.155063e+00	1.349161e+00	5.375855e+01	-1.808568e+02	3.035683e+05	1.161501e+05	2.999067e+02	4.028231e-01	2.090175e+01	0.000000e+00	
1.000000e+00	1.123418e+00	1.349154e+00	5.375918e+01	-1.808619e+02	3.035670e+05	1.161493e+05	2.999061e+02	4.028364e-01	2.090058e+01	0.000000e+00	
1.051282e+00	1.123418e+00	1.349161e+00	5.375846e+01	-1.808568e+02	3.035683e+05	1.161501e+05	2.999067e+02	4.028228e-01	2.090177e+01	0.000000e+00	
1.000000e+00	1.091772e+00	1.349154e+00	5.375908e+01	-1.808618e+02	3.035670e+05	1.161493e+05	2.999062e+02	4.028361e-01	2.090060e+01	0.000000e+00	
1.051282e+00	1.091772e+00	1.349161e+00	5.375836e+01	-1.808567e+02	3.035683e+05	1.161501e+05	2.999067e+02	4.028225e-01	2.090179e+01	0.000000e+00	
1.000000e+00	1.060127e+00	1.349154e+00	5.375899e+01	-1.808617e+02	3.035670e+05	1.161493e+05	2.999062e+02	4.028358e-01	2.090062e+01	0.000000e+00	
1.051282e+00	1.060127e+00	1.349161e+00	5.375828e+01	-1.808565e+02	3.035684e+05	1.161501e+05	2.999067e+02	4.028222e-01	2.090181e+01	0.000000e+00	
1.000000e+00	1.028481e+00	1.349154e+00	5.375891e+01	-1.808616e+02	3.035671e+05	1.161493e+05	2.999062e+02	4.028355e-01	2.090064e+01	0.000000e+00	
1.051282e+00	1.028481e+00	1.349161e+00	5.375819e+01	-1.808564e+02	3.035684e+05	1.161501e+05	2.999068e+02	4.028219e-01	2.090183e+01	0.000000e+00	
1.000000e+00	9.968354e-01	1.349154e+00	5.375883e+01	-1.808615e+02	3.035671e+05	1.161493e+05	2.999063e+02	4.028352e-01	2.090066e+01	0.000000e+00	
1.051282e+00	9.968354e-01	1.349161e+00	5.375811e+01	-1.808563e+02	3.035684e+05	1.161502e+05	2.999068e+02	4.028216e-01	2.090185e+01	0.000000e+00	
1.000000e+00	9.651899e-01	1.349154e+00	5.375877e+01	-1.808614e+02	3.035671e+05	1.161493e+05	2.999063e+02	4.028349e-01	2.090069e+01	0.000000e+00	
1.051282e+00	9.651899e-01	1.349161e+00	5.375804e+01	-1.808562e+02	3.035684e+05	1.161502e+05	2.999068e+02	4.028213e-01	2.090187e+01	0.000000e+00	
1.000000e+00	9.335443e-01	1.349154e+00	5.375871e+01	-1.808613e+02	3.035671e+05	1.161494e+05	2.999064e+02	4.028347e-01	2.090071e+01	0.000000e+00	
1.051282e+00	9.335443e-01	1.349161e+00	5.375798e+01	-1.808561e+02	3.035684e+05	1.161502e+05	2.999069e+02	4.028209e-01	2.090189e+01	0.000000e+00	
1.000000e+00	9.018987e-01	1.349154e+00	5.375866e+01	-1.808612e+02	3.035672e+05	1.161494e+05	2.999064e+02	4.028344e-01	2.090073e+01	0.000000e+00	
1.051282e+00	9.018987e-01	1.349161e+00	5.375792e+01	-1.808560e+02	3.035685e+05	1.161502e+05	2.999069e+02	4.028207e-01	2.090192e+01	0.000000e+00	
1.000000e+00	8.702532e-01	1.349154e+00	5.375862e+01	-1.808611e+02	3.035672e+05	1.161494e+05	2.999065e+02	4.028342e-01	2.090076e+01	0.000000e+00	
1.051282e+00	8.702532e-01	1.349161e+00	5.375787e+01	-1.808559e+02	3.035685e+05	1.161502e+05	2.999069e+02	4.028204e-01	2.090194e+01	0.000000e+00	
1.000000e+00	8.386076e-01	1.349154e+00	5.375859e+01	-1.808611e+02	3.035672e+05	1.161494e+05	2.999065e+02	4.028340e-01	2.090078e+01	0.000000e+00	
1.051282e+00	8.386076e-01	1.349161e+00	5.375783e+01	-1.808558e+02	3.035685e+05	1.161502e+05	2.999070e+02	4.028201e-01	2.090196e+01	0.000000e+00	
1.000000e+00	8.069620e-01	1.349154e+00	5.375857e+01	-1.808610e+02	3.035673e+05	1.161494e+05	2.999066e+02	4.028339e-01	2.090080e+01	0.000000e+00	
1.051282e+00	8.069620e-01	1.349161e+00	5.375780e+01	-1.808557e+02	3.035685e+05	1.161503e+05	2.999070e+02	4.028199e-01	2.090198e+01	0.000000e+00	
1.000000e+00	7.753165e-01	1.349154e+00	5.375856e+01	-1.808610e+02	3.035673e+05	1.161494e+05	2.999066e+02	4.028337e-01	2.090082e+01	0.000000e+00	
1.051282e+00	7.753165e-01	1.349161e+00	5.375777e+01	-1.808556e+02	3.035685e+05	1.161503e+05	2.999070e+02	4.028196e-01	2.090200e+01	0.000000e+00	
1.000000e+00	7.436709e-01	1.349154e+00	5.375855e+01	-1.808609e+02	3.035673e+05	1.161494e+05	2.999067e+02	4.028336e-01	2.090085e+01	0.000000e+00	
1.051282e+00	7.436709e-01	1.349161e+00	5.375775e+01	-1.808555e+02	3.035686e+05	1.161503e+05	2.999071e+02	4.028194e-01	2.090202e+01	0.000000e+00	
1.000000e+00	7.120253e-01	1.349153e+00	5.375855e+01	-1.808609e+02	3.035674e+05	1.161495e+05	2.999067e+02	4.028335e-01	2.090087e+01	0.000000e+00	
1.051282e+00	7.120253e-01	1.349161e+00	5.375774e+01	-1.808554e+02	3.035686e+05	1.161503e+05	2.999071e+02	4.028193e-01	2.090204e+01	0.000000e+00	
1.000000e+00	6.803797e-01	1.349153e+00	5.375856e+01	-1.808609e+02	3.035674e+05	1.161495e+05	2.999068e+02	4.028335e-01	2.090089e+01	0.000000e+00	
1.051282e+00	6.803797e-01	1.349161e+00	5.375773e+01	-1.808554e+02	3.035686e+05	1.161503e+05	2.999072e+02	4.028191e-01	2.090205e+01	0.000000e+00	
1.000000e+00	6.487342e-01	1.349153e+00	5.375857e+01	-1.808609e+02	3.035674e+05	1.161495e+05	2.999068e+02	4.028334e-01	2.090090e+01	0.000000e+00	
1.051282e+00	6.487342e-01	1.349161e+00	5.375773e+01	-1.808553e+02	3.035686e+05	1.161503e+05	2.999072e+02	4.028190e-01	2.090207e+01	0.000000e+00	
1.000000e+00	6.170886e-01	1.349153e+00	5.375859e+01	-1.808608e+02	3.035674e+05	1.161495e+05	2.999068e+02	4.028334e-01	2.090092e+01	0.000000e+00	
1.051282e+00	6.170886e-01	1.349161e+00	5.375773e+01	-1.808552e+02	3.035686e+05	1.161503e+05	2.999072e+02	4.028188e-01	2.090209e+01	0.000000e+00	
1.000000e+00	5.854430e-01	1.349153e+00	5.375862e+01	-1.808609e+02	3.035675e+05	1.161495e+05	2.999068e+02	4.028334e-01	2.090094e+01	0.000000e+00	
1.051282e+00	5.854430e-01	1.349161e+00	5.375774e+01	-1.808552e+02	3.035687e+05	1.161503e+05	2.999073e+02	4.028188e-01	2.090210e+01	0.000000e+00	
1.000000e+00	5.537975e-01	1.349154e+00	5.375864e+01	-1.808609e+02	3.035675e+05	1.161495e+05	2.999069e+02	4.028334e-01	2.090095e+01	0.000000e+00	
1.051282e+00	5.537975e-01	1.349161e+00	5.375776e+01	-1.808552e+02	3.035687e+05	1.161503e+05	2.999073e+02	4.028187e-01	2.090211e+01	0.000000e+00	
1.000000e+00	5.221519e-01	1.349154e+00	5.375867e+01	-1.808609e+02	3.035675e+05	1.161495e+05	2.999069e+02	4.028335e-01	2.090097e+01	0.000000e+00	
1.051282e+00	5.221519e-01	1.349161e+00	5.375778e+01	-1.808552e+02	3.035687e+05	1.161504e+05	2.999073e+02	4.028186e-01	2.090213e+01	0.000000e+00	
1.000000e+00	4.905063e-01	1.349154e+00	5.375871e+01	-1.808609e+02	3.035676e+05	1.161495e+05	2.999069e+02	4.028335e-01	2.090098e+01	0.000000e+00	
1.051282e+00	4.905063e-01	1.349161e+00	5.375780e+01	-1.808551e+02	3.035687e+05	1.161504e+05	2.999074e+02	4.028186e-01	2.090214e+01	0.000000e+00	
1.000000e+00	4.588608e-01	1.349154e+00	5.375874e+01	-1.808609e+02	3.035676e+05	1.161496e+05	2.999069e+02	4.028336e-01	2.090099e+01	0.000000e+00	
1.051282e+00	4.588608e-01	1.349161e+00	5.375783e+01	-1.808551e+02	3.035688e+05	1.161504e+05	2.999074e+02	4.028186e-01	2.090215e+01	0.000000e+00	
1.000000e+00	4.272152e-01	1.349154e+00	5.375878e+01	-1.808610e+02	3.035676e+05	1.161496e+05	2.999069e+02	4.028336e-01	2.090101e+01	0.000000e+00	
1.051282e+00	4.272152e-01	1.349161e+00	5.375786e+01	-1.808551e+02	3.035688e+05	1.161504e+05	2.999074e+02	4.028186e-01	2.090216e+01	0.000000e+00	
1.000000e+00	3.955696e-01	1.349154e+00	5.375882e+01	-1.808610e+02	3.035676e+05	1.161496e+05	2.999069e+02	4.028337e-01	2.090102e+01	0.000000e+00	
1.051282e+00	3.955696e-01	1.349161e+00	5.375789e+01	-1.808552e+02	3.035688e+05	1.161504e+05	2.999074e+02	4.028187e-01	2.090217e+01	0.000000e+00	
1.000000e+00	3.639241e-01	1.349154e+00	5.375886e+01	-1.808611e+02	3.035677e+05	1.161496e+05	2.999068e+02	4.028338e-01	2.090103e+01	0.000000e+00	
1.051282e+00	3.639241e-01	1.349161e+00	5.375792e+01	-1.808552e+02	3.035688e+05	1.161504e+05	2.999074e+02	4.028187e-01	2.090218e+01	0.000000e+00	
1.000000e+00	3.322785e-01	1.349154e+00	5.375891e+01	-1.808611e+02	3.035677e+05	1.161496e+05	2.999068e+02	4.028339e-01	2.090104e+01	0.000000e+00	
1.051282e+00	3.322785e-01	1.349161e+00	5.375796e+01	-1.808552e+02	3.035688e+05	1.161504e+05	2.999074e+02	4.028188e-01	2.090219e+01	0.000000e+00	
1.000000e+00	3.006329e-01	1.349155e+00	5.375895e+01	-1.808612e+02	3.035677e+05	1.161496e+05	2.999068e+02	4.028340e-01	2.090104e+01	0.000000e+00	
1.051282e+00	3.006329e-01	1.349161e+00	5.375800e+01	-1.808552e+02	3.035689e+05	1.161504e+05	2.999074e+02	4.028188e-01	2.090219e+01	0.000000e+00	
1.000000e+00	2.689873e-01	1.349155e+00	5.375900e+01	-1.808612e+02	3.035677e+05	1.161496e+05	2.999067e+02	4.028341e-01	2.090105e+01	0.000000e+00	
1.051282e+00	2.689873e-01	1.349161e+00	5.375804e+01	-1.808553e+02	3.035689e+05	1.161504e+05	2.999074e+02	4.028189e-01	2.090220e+01	0.000000e+00	
1.000000e+00	2.373418e-01	1.349155e+00	5.375904e+01	-1.808613e+02	3.035677e+05	1.161496e+05	2.999067e+02	4.028342e-01	2.090106e+01	0.000000e+00	
1.051282e+00	2.373418e-01	1.349161e+00	5.375808e+01	-1.808553e+02	3.035689e+05	1.161504e+05	2.999074e+02	4.028190e-01	2.090221e+01	0.000000e+00	
1.000000e+00	2.056962e-01	1.349155e+00	5.375909e+01	-1.808613e+02	3.035678e+05	1.161496e+05	2.999067e+02	4.028343e-01	2.090106e+01	0.000000e+00	
1.051282e+00	2.056962e-01	1.349162e+00	5.375812e+01	-1.808554e+02	3.035689e+05	1.161504e+05	2.999074e+02	4.028191e-01	2.090221e+01	0.000000e+00	
1.000000e+00	1.740506e-01	1.349156e+00	5.375913e+01	-1.808614e+02	3.035678e+05	1.161496e+05	2.999066e+02	4.028344e-01	2.090107e+01	0.000000e+00	
1.051282e+00	1.740506e-01	1.349162e+00	5.375816e+01	-1.808554e+02	3.035689e+05	1.161504e+05	2.999074e+02	4.028192e-01	2.090221e+01	0.000000e+00	
1.000000e+00	1.424051e-01	1.349156e+00	5.375917e+01	-1.808615e+02	3.035678e+05	1.161496e+05	2.999066e+02	4.028345e-01	2.090107e+01	0.000000e+00	
1.051282e+00	1.424051e-01	1.349162e+00	5.375820e+01	-1.808555e+02	3.035689e+05	1.161504e+05	2.999073e+02	4.028193e-01	2.090222e+01	0.000000e+00	
1.000000e+00	1.107595e-01	1.349156e+00	5.375922e+01	-1.808615e+02	3.035678e+05	1.161496e+05	2.999065e+02	4.028346e-01	2.090107e+01	0.000000e+00	
1.051282e+00	1.107595e-01	1.349162e+00	5.375825e+01	-1.808555e+02	3.035689e+05	1.161504e+05	2.999073e+02	4.028194e-01	2.090222e+01	0.000000e+00	
1.000000e+00	7.911392e-02	1.349156e+00	5.375926e+01	-1.808616e+02	3.035678e+05	1.161496e+05	2.999065e+02	4.028347e-01	2.090107e+01	0.000000e+00	
1.051282e+00	7.911392e-02	1.349162e+00	5.375829e+01	-1.808556e+02	3.035689e+05	1.161504e+05	2.999073e+02	4.028196e-01	2.090222e+01	0.000000e+00	
1.000000e+00	4.746835e-02	1.349156e+00	5.375930e+01	-1.808616e+02	3.035678e+05	1.161496e+05	2.999064e+02	4.028348e-01	2.090107e+01	0.000000e+00	
1.051282e+00	4.746835e-02	1.349162e+00	5.375833e+01	-1.808557e+02	3.035690e+05	1.161504e+05	2.999072e+02	4.028197e-01	2.090222e+01	0.000000e+00	
1.000000e+00	1.582278e-02	1.349157e+00	5.375934e+01	-1.808617e+02	3.035678e+05	1.161496e+05	2.999064e+02	4.028349e-01	2.090108e+01	0.000000e+00	
1.051282e+00	1.582278e-02	1.349162e+00	5.375837e+01	-1.808557e+02	3.035690e+05	1.161504e+05	2.999072e+02	4.028198e-01	2.090222e+01	0.000000e+00	
1.000000e+00	-1.582278e-02	1.349157e+00	5.375938e+01	-1.808617e+02	3.035678e+05	1.161496e+05	2.999063e+02	4.028350e-01	2.090107e+01	0.000000e+00	
1.051282e+00	-1.582278e-02	1.349163e+00	5.375841e+01	-1.808558e+02	3.035690e+05	1.161504e+05	2.999072e+02	4.028200e-01	2.090222e+01	0.000000e+00	
1.000000e+00	-4.746835e-02	1.349157e+00	5.375942e+01	-1.808618e+02	3.035678e+05	1.161496e+05	2.999063e+02	4.028351e-01	2.090107e+01	0.000000e+00	
1.051282e+00	-4.746835e-02	1.349163e+00	5.375845e+01	-1.808558e+02	3.035690e+05	1.161504e+05	2.999071e+02	4.028201e-01	2.090222e+01	0.000000e+00	
1.000000e+00	-7.911392e-02	1.349157e+00	5.375945e+01	-1.808618e+02	3.035678e+05	1.161496e+05	2.999063e+02	4.028351e-01	2.090107e+01	0.000000e+00	
1.051282e+00	-7.911392e-02	1.349163e+00	5.375849e+01	-1.808559e+02	3.035690e+05	1.161504e+05	2.999071e+02	4.028202e-01	2.090222e+01	0.000000e+00	
1.000000e+00	-1.107595e-01	1.349157e+00	5.375949e+01	-1.808618e+02	3.035678e+05	1.161496e+05	2.999062e+02	4.028352e-01	2.090107e+01	0.000000e+00	
1.051282e+00	-1.107595e-01	1.349163e+00	5.375852e+01	-1.808560e+02	3.035690e+05	1.161504e+05	2.999070e+02	4.028204e-01	2.090222e+01	0.000000e+00	
1.000000e+00	-1.424051e-01	1.349157e+00	5.375952e+01	-1.808619e+02	3.035678e+05	1.161496e+05	2.999062e+02	4.028353e-01	2.090106e+01	0.000000e+00	
1.051282e+00	-1.424051e-01	1.349163e+00	5.375855e+01	-1.808560e+02	3.035690e+05	1.161504e+05	2.999070e+02	4.028205e-01	2.090221e+01	0.000000e+00	
1.000000e+00	-1.740506e-01	1.349158e+00	5.375955e+01	-1.808619e+02	3.035678e+05	1.161496e+05	2.999062e+02	4.028354e-01	2.090106e+01	0.000000e+00	
1.051282e+00	-1.740506e-01	1.349163e+00	5.375859e+01	-1.808561e+02	3.035690e+05	1.161504e+05	2.999070e+02	4.028206e-01	2.090221e+01	0.000000e+00	
1.000000e+00	-2.056962e-01	1.349158e+00	5.375957e+01	-1.808619e+02	3.035678e+05	1.161496e+05	2.999061e+02	4.028355e-01	2.090105e+01	0.000000e+00	
1.051282e+00	-2.056962e-01	1.349164e+00	5.375862e+01	-1.808562e+02	3.035690e+05	1.161504e+05	2.999069e+02	4.028208e-01	2.090220e+01	0.000000e+00	
1.000000e+00	-2.373418e-01	1.349158e+00	5.375960e+01	-1.808620e+02	3.035678e+05	1.161496e+05	2.999061e+02	4.028356e-01	2.090105e+01	0.000000e+00	
1.051282e+00	-2.373418e-01	1.349164e+00	5.375864e+01	-1.808562e+02	3.035690e+05	1.161504e+05	2.999069e+02	4.028209e-01	2.090220e+01	0.000000e+00	
1.000000e+00	-2.689873e-01	1.349158e+00	5.375962e+01	-1.808620e+02	3.035678e+05	1.161496e+05	2.999061e+02	4.028356e-01	2.090104e+01	0.000000e+00	
1.051282e+00	-2.689873e-01	1.349164e+00	5.375867e+01	-1.808563e+02	3.035690e+05	1.161504e+05	2.999069e+02	4.028210e-01	2.090219e+01	0.000000e+00	
1.000000e+00	-3.006329e-01	1.349158e+00	5.375964e+01	-1.808620e+02	3.035678e+05	1.161496e+05	2.999061e+02	4.028357e-01	2.090103e+01	0.000000e+00	
1.051282e+00	-3.006329e-01	1.349164e+00	5.375869e+01	-1.808563e+02	3.035690e+05	1.161504e+05	2.999068e+02	4.028211e-01	2.090218e+01	0.000000e+00	
1.000000e+00	-3.322785e-01	1.349158e+00	5.375966e+01	-1.808620e+02	3.035678e+05	1.161496e+05	2.999061e+02	4.028358e-01	2.090103e+01	0.000000e+00	
1.051282e+00	-3.322785e-01	1.349164e+00	5.375871e+01	-1.808564e+02	3.035690e+05	1.161504e+05	2.999068e+02	4.028213e-01	2.090217e+01	0.000000e+00	
1.000000e+00	-3.639241e-01	1.349158e+00	5.375967e+01	-1.808621e+02	3.035678e+05	1.161496e+05	2.999061e+02	4.028358e-01	2.090102e+01	0.000000e+00	
1.051282e+00	-3.639241e-01	1.349164e+00	5.375873e+01	-1.808564e+02	3.035690e+05	1.161504e+05	2.999068e+02	4.028214e-01	2.090217e+01	0.000000e+00	
1.000000e+00	-3.955696e-01	1.349157e+00	5.375968e+01	-1.808621e+02	3.035678e+05	1.161496e+05	2.999061e+02	4.028359e-01	2.090101e+01	0.000000e+00	
1.051282e+00	-3.955696e-01	1.349164e+00	5.375874e+01	-1.808565e+02	3.035690e+05	1.161504e+05	2.999068e+02	4.028215e-01	2.090216e+01	0.000000e+00	
1.000000e+00	-4.272152e-01	1.349157e+00	5.375969e+01	-1.808621e+02	3.035678e+05	1.161496e+05	2.999061e+02	4.028360e-01	2.090099e+01	0.000000e+00	
1.051282e+00	-4.272152e-01	1.349164e+00	5.375875e+01	-1.808565e+02	3.035689e+05	1.161504e+05	2.999067e+02	4.028216e-01	2.090214e+01	0.000000e+00	
1.000000e+00	-4.588608e-01	1.349157e+00	5.375969e+01	-1.808621e+02	3.035677e+05	1.161495e+05	2.999061e+02	4.028361e-01	2.090098e+01	0.000000e+00	
1.051282e+00	-4.588608e-01	1.349164e+00	5.375876e+01	-1.808566e+02	3.035689e+05	1.161504e+05	2.999067e+02	4.028218e-01	2.090213e+01	0.000000e+00	
1.000000e+00	-4.905063e-01	1.349157e+00	5.375970e+01	-1.808621e+02	3.035677e+05	1.161495e+05	2.999061e+02	4.028361e-01	2.090097e+01	0.000000e+00	
1.051282e+00	-4.905063e-01	1.349164e+00	5.375877e+01	-1.808566e+02	3.035689e+05	1.161504e+05	2.999067e+02	4.028219e-01	2.090212e+01	0.000000e+00	
1.000000e+00	-5.221519e-01	1.349157e+00	5.375970e+01	-1.808622e+02	3.035677e+05	1.161495e+05	2.999061e+02	4.028362e-01	2.090096e+01	0.000000e+00	
1.051282e+00	-5.221519e-01	1.349164e+00	5.375877e+01	-1.808567e+02	3.035689e+05	1.161503e+05	2.999067e+02	4.028220e-01	2.090211e+01	0.000000e+00	
1.000000e+00	-5.537975e-01	1.349157e+00	5.375969e+01	-1.808622e+02	3.035677e+05	1.161495e+05	2.999061e+02	4.028363e-01	2.090094e+01	0.000000e+00	
1.051282e+00	-5.537975e-01	1.349164e+00	5.375877e+01	-1.808567e+02	3.035689e+05	1.161503e+05	2.999067e+02	4.028221e-01	2.090209e+01	0.000000e+00	
1.000000e+00	-5.854430e-01	1.349157e+00	5.375968e+01	-1.808622e+02	3.035676e+05	1.161495e+05	2.999061e+02	4.028364e-01	2.090093e+01	0.000000e+00	
1.051282e+00	-5.854430e-01	1.349164e+00	5.375876e+01	-1.808568e+02	3.035689e+05	1.161503e+05	2.999067e+02	4.028222e-01	2.090208e+01	0.000000e+00	
1.000000e+00	-6.170886e-01	1.349156e+00	5.375967e+01	-1.808622e+02	3.035676e+05	1.161495e+05	2.999061e+02	4.028364e-01	2.090091e+01	0.000000e+00	
1.051282e+00	-6.170886e-01	1.349164e+00	5.375875e+01	-1.808568e+02	3.035688e+05	1.161503e+05	2.999067e+02	4.028223e-01	2.090206e+01	0.000000e+00	
1.000000e+00	-6.487342e-01	1.349156e+00	5.375966e+01	-1.808622e+02	3.035676e+05	1.161495e+05	2.999061e+02	4.028365e-01	2.090089e+01	0.000000e+00	
1.051282e+00	-6.487342e-01	1.349163e+00	5.375874e+01	-1.808568e+02	3.035688e+05	1.161503e+05	2.999067e+02	4.028224e-01	2.090205e+01	0.000000e+00	
1.000000e+00	-6.803797e-01	1.349156e+00	5.375964e+01	-1.808623e+02	3.035676e+05	1.161495e+05	2.999061e+02	4.028366e-01	2.090088e+01	0.000000e+00	
1.051282e+00	-6.803797e-01	1.349163e+00	5.375872e+01	-1.808569e+02	3.035688e+05	1.161503e+05	2.999067e+02	4.028226e-01	2.090203e+01	0.000000e+00	
1.000000e+00	-7.120253e-01	1.349156e+00	5.375961e+01	-1.808623e+02	3.035675e+05	1.161495e+05	2.999062e+02	4.028367e-01	2.090086e+01	0.000000e+00	
1.051282e+00	-7.120253e-01	1.349163e+00	5.375870e+01	-1.808569e+02	3.035688e+05	1.161503e+05	2.999067e+02	4.028227e-01	2.090202e+01	0.000000e+00	
1.000000e+00	-7.436709e-01	1.349156e+00	5.375959e+01	-1.808623e+02	3.035675e+05	1.161494e+05	2.999062e+02	4.028367e-01	2.090084e+01	0.000000e+00	
1.051282e+00	-7.436709e-01	1.349163e+00	5.375867e+01	-1.808570e+02	3.035687e+05	1.161503e+05	2.999067e+02	4.028228e-01	2.090200e+01	0.000000e+00	
1.000000e+00	-7.753165e-01	1.349156e+00	5.375956e+01	-1.808623e+02	3.035675e+05	1.161494e+05	2.999062e+02	4.028368e-01	2.090082e+01	0.000000e+00	
1.051282e+00	-7.753165e-01	1.349163e+00	5.375864e+01	-1.808570e+02	3.035687e+05	1.161503e+05	2.999067e+02	4.028229e-01	2.090198e+01	0.000000e+00	
1.000000e+00	-8.069620e-01	1.349155e+00	5.375952e+01	-1.808623e+02	3.035674e+05	1.161494e+05	2.999062e+02	4.028369e-01	2.090080e+01	0.000000e+00	
1.051282e+00	-8.069620e-01	1.349163e+00	5.375861e+01	-1.808570e+02	3.035687e+05	1.161502e+05	2.999067e+02	4.028230e-01	2.090196e+01	0.000000e+00	
1.000000e+00	-8.386076e-01	1.349155e+00	5.375948e+01	-1.808624e+02	3.035674e+05	1.161494e+05	2.999062e+02	4.028370e-01	2.090078e+01	0.000000e+00	
1.051282e+00	-8.386076e-01	1.349163e+00	5.375857e+01	-1.808571e+02	3.035687e+05	1.161502e+05	2.999067e+02	4.028231e-01	2.090194e+01	0.000000e+00	
1.000000e+00	-8.702532e-01	1.349155e+00	5.375943e+01	-1.808624e+02	3.035674e+05	1.161494e+05	2.999062e+02	4.028370e-01	2.090076e+01	0.000000e+00	
1.051282e+00	-8.702532e-01	1.349162e+00	5.375853e+01	-1.808571e+02	3.035686e+05	1.161502e+05	2.999067e+02	4.028231e-01	2.090193e+01	0.000000e+00	
1.000000e+00	-9.018987e-01	1.349155e+00	5.375938e+01	-1.808624e+02	3.035673e+05	1.161494e+05	2.999062e+02	4.028371e-01	2.090074e+01	0.000000e+00	
1.051282e+00	-9.018987e-01	1.349162e+00	5.375848e+01	-1.808571e+02	3.035686e+05	1.161502e+05	2.999067e+02	4.028232e-01	2.090191e+01	0.000000e+00	
1.000000e+00	-9.335443e-01	1.349155e+00	5.375933e+01	-1.808624e+02	3.035673e+05	1.161494e+05	2.999061e+02	4.028371e-01	2.090072e+01	0.000000e+00	
1.051282e+00	-9.335443e-01	1.349162e+00	5.375843e+01	-1.808572e+02	3.035686e+05	1.161502e+05	2.999067e+02	4.028233e-01	2.090189e+01	0.000000e+00	
1.000000e+00	-9.651899e-01	1.349155e+00	5.375927e+01	-1.808624e+02	3.035673e+05	1.161493e+05	2.999061e+02	4.028372e-01	2.090070e+01	0.000000e+00	
1.051282e+00	-9.651899e-01	1.349162e+00	5.375837e+01	-1.808572e+02	3.035686e+05	1.161502e+05	2.999067e+02	4.028233e-01	2.090187e+01	0.000000e+00	
1.000000e+00	-9.968354e-01	1.349155e+00	5.375921e+01	-1.808625e+02	3.035672e+05	1.161493e+05	2.999061e+02	4.028372e-01	2.090068e+01	0.000000e+00	
1.051282e+00	-9.968354e-01	1.349162e+00	5.375831e+01	-1.808572e+02	3.035685e+05	1.161502e+05	2.999067e+02	4.028234e-01	2.090185e+01	0.000000e+00	
1.000000e+00	-1.028481e+00	1.349154e+00	5.375914e+01	-1.808625e+02	3.035672e+05	1.161493e+05	2.999061e+02	4.028372e-01	2.090066e+01	0.000000e+00	
1.051282e+00	-1.028481e+00	1.349162e+00	5.375825e+01	-1.808572e+02	3.035685e+05	1.161502e+05	2.999067e+02	4.028234e-01	2.090184e+01	0.000000e+00	
1.000000e+00	-1.060127e+00	1.349154e+00	5.375907e+01	-1.808625e+02	3.035672e+05	1.161493e+05	2.999061e+02	4.028373e-01	2.090064e+01	0.000000e+00	
1.051282e+00	-1.060127e+00	1.349162e+00	5.375819e+01	-1.808572e+02	3.035685e+05	1.161501e+05	2.999067e+02	4.028235e-01	2.090182e+01	0.000000e+00	
1.000000e+00	-1.091772e+00	1.349154e+00	5.375899e+01	-1.808625e+02	3.035672e+05	1.161493e+05	2.999061e+02	4.028373e-01	2.090063e+01	0.000000e+00	
1.051282e+00	-1.091772e+00	1.349161e+00	5.375811e+01	-1.808573e+02	3.035684e+05	1.161501e+05	2.999067e+02	4.028235e-01	2.090181e+01	0.000000e+00	
1.000000e+00	-1.123418e+00	1.349154e+00	5.375892e+01	-1.808625e+02	3.035671e+05	1.161493e+05	2.999061e+02	4.028372e-01	2.090061e+01	0.000000e+00	
1.051282e+00	-1.123418e+00	1.349161e+00	5.375804e+01	-1.808572e+02	3.035684e+05	1.161501e+05	2.999067e+02	4.028234e-01	2.090179e+01	0.000000e+00	
1.000000e+00	-1.155063e+00	1.349154e+00	5.375887e+01	-1.808625e+02	3.035671e+05	1.161493e+05	2.999061e+02	4.028373e-01	2.090061e+01	0.000000e+00	
1.051282e+00	-1.155063e+00	1.349161e+00	5.375802e+01	-1.808573e+02	3.035684e+05	1.161501e+05	2.999067e+02	4.028236e-01	2.090180e+01	0.000000e+00	
1.000000e+00	-1.186709e+00	1.349154e+00	5.375872e+01	-1.808624e+02	3.035670e+05	1.161493e+05	2.999061e+02	4.028371e-01	2.090057e+01	0.000000e+00	
1.051282e+00	-1.186709e+00	1.349161e+00	5.375792e+01	-1.808571e+02	3.035683e+05	1.161501e+05	2.999067e+02	4.028233e-01	2.090174e+01	0.000000e+00	
1.000000e+00	-1.218354e+00	1.349154e+00	5.375844e+01	-1.808626e+02	3.035671e+05	1.161493e+05	2.999061e+02	4.028371e-01	2.090062e+01	0.000000e+00	
1.051282e+00	-1.218354e+00	1.349161e+00	5.375746e+01	-1.808573e+02	3.035684e+05	1.161501e+05	2.999067e+02	4.028233e-01	2.090181e+01	0.000000e+00	
1.102564e+00	1.218354e+00	1.349167e+00	5.375827e+01	-1.808524e+02	3.035695e+05	1.161508e+05	2.999073e+02	4.028116e-01	2.090277e+01	0.000000e+00	
1.102564e+00	1.250000e+00	1.349167e+00	5.375823e+01	-1.808525e+02	3.035694e+05	1.161508e+05	2.999073e+02	4.028118e-01	2.090275e+01	0.000000e+00	
1.102564e+00	1.186709e+00	1.349167e+00	5.375820e+01	-1.808523e+02	3.035695e+05	1.161508e+05	2.999073e+02	4.028114e-01	2.090279e+01	0.000000e+00	
1.102564e+00	1.155063e+00	1.349167e+00	5.375811e+01	-1.808522e+02	3.035695e+05	1.161508e+05	2.999073e+02	4.028112e-01	2.090280e+01	0.000000e+00	
1.102564e+00	1.123418e+00	1.349167e+00	5.375803e+01	-1.808521e+02	3.035695e+05	1.161508e+05	2.999073e+02	4.028109e-01	2.090282e+01	0.000000e+00	
1.102564e+00	1.091772e+00	1.349167e+00	5.375795e+01	-1.808521e+02	3.035695e+05	1.161509e+05	2.999073e+02	4.028107e-01	2.090284e+01	0.000000e+00	
1.102564e+00	1.060127e+00	1.349167e+00	5.375787e+01	-1.808520e+02	3.035695e+05	1.161509e+05	2.999073e+02	4.028104e-01	2.090286e+01	0.000000e+00	
1.102564e+00	1.028481e+00	1.349167e+00	5.375779e+01	-1.808519e+02	3.035695e+05	1.161509e+05	2.999074e+02	4.028101e-01	2.090287e+01	0.000000e+00	
1.102564e+00	9.968354e-01	1.349167e+00	5.375772e+01	-1.808518e+02	3.035696e+05	1.161509e+05	2.999074e+02	4.028098e-01	2.090289e+01	0.000000e+00	
1.102564e+00	9.651899e-01	1.349167e+00	5.375766e+01	-1.808517e+02	3.035696e+05	1.161509e+05	2.999074e+02	4.028095e-01	2.090291e+01	0.000000e+00	
1.102564e+00	9.335443e-01	1.349167e+00	5.375760e+01	-1.808516e+02	3.035696e+05	1.161509e+05	2.999074e+02	4.028092e-01	2.090293e+01	0.000000e+00	
1.102564e+00	9.018987e-01	1.349167e+00	5.375754e+01	-1.808514e+02	3.035696e+05	1.161509e+05	2.999074e+02	4.028089e-01	2.090295e+01	0.000000e+00	
1.102564e+00	8.702532e-01	1.349167e+00	5.375749e+01	-1.808513e+02	3.035696e+05	1.161510e+05	2.999075e+02	4.028087e-01	2.090297e+01	0.000000e+00	
1.102564e+00	8.386076e-01	1.349168e+00	5.375745e+01	-1.808512e+02	3.035696e+05	1.161510e+05	2.999075e+02	4.028084e-01	2.090299e+01	0.000000e+00	
1.102564e+00	8.069620e-01	1.349168e+00	5.375740e+01	-1.808511e+02	3.035697e+05	1.161510e+05	2.999075e+02	4.028081e-01	2.090301e+01	0.000000e+00	
1.102564e+00	7.753165e-01	1.349168e+00	5.375737e+01	-1.808510e+02	3.035697e+05	1.161510e+05	2.999075e+02	4.028078e-01	2.090303e+01	0.000000e+00	
1.102564e+00	7.436709e-01	1.349168e+00	5.375734e+01	-1.808509e+02	3.035697e+05	1.161510e+05	2.999076e+02	4.028075e-01	2.090304e+01	0.000000e+00	
1.102564e+00	7.120253e-01	1.349168e+00	5.375732e+01	-1.808508e+02	3.035697e+05	1.161510e+05	2.999076e+02	4.028073e-01	2.090306e+01	0.000000e+00	
1.102564e+00	6.803797e-01	1.349168e+00	5.375730e+01	-1.808507e+02	3.035697e+05	1.161510e+05	2.999076e+02	4.028071e-01	2.090308e+01	0.000000e+00	
1.102564e+00	6.487342e-01	1.349168e+00	5.375728e+01	-1.808506e+02	3.035697e+05	1.161510e+05	2.999077e+02	4.028068e-01	2.090309e+01	0.000000e+00	
1.102564e+00	6.170886e-01	1.349167e+00	5.375727e+01	-1.808505e+02	3.035697e+05	1.161511e+05	2.999077e+02	4.028067e-01	2.090311e+01	0.000000e+00	
1.102564e+00	5.854430e-01	1.349167e+00	5.375727e+01	-1.808504e+02	3.035698e+05	1.161511e+05	2.999077e+02	4.028065e-01	2.090312e+01	0.000000e+00	
1.102564e+00	5.537975e-01	1.349167e+00	5.375727e+01	-1.808504e+02	3.035698e+05	1.161511e+05	2.999078e+02	4.028063e-01	2.090313e+01	0.000000e+00	
1.102564e+00	5.221519e-01	1.349167e+00	5.375727e+01	-1.808503e+02	3.035698e+05	1.161511e+05	2.999078e+02	4.028062e-01	2.090315e+01	0.000000e+00	
1.102564e+00	4.905063e-01	1.349167e+00	5.375728e+01	-1.808502e+02	3.035698e+05	1.161511e+05	2.999078e+02	4.028061e-01	2.090316e+01	0.000000e+00	
1.102564e+00	4.588608e-01	1.349167e+00	5.375729e+01	-1.808502e+02	3.035698e+05	1.161511e+05	2.999079e+02	4.028060e-01	2.090317e+01	0.000000e+00	
1.102564e+00	4.272152e-01	1.349167e+00	5.375730e+01	-1.808502e+02	3.035698e+05	1.161511e+05	2.999079e+02	4.028059e-01	2.090318e+01	0.000000e+00	
1.102564e+00	3.955696e-01	1.349167e+00	5.375732e+01	-1.808501e+02	3.035698e+05	1.161511e+05	2.999079e+02	4.028059e-01	2.090319e+01	0.000000e+00	
1.102564e+00	3.639241e-01	1.349167e+00	5.375734e+01	-1.808501e+02	3.035699e+05	1.161511e+05	2.999080e+02	4.028059e-01	2.090320e+01	0.000000e+00	
1.102564e+00	3.322785e-01	1.349167e+00	5.375737e+01	-1.808501e+02	3.035699e+05	1.161511e+05	2.999080e+02	4.028058e-01	2.090321e+01	0.000000e+00	
1.102564e+00	3.006329e-01	1.349167e+00	5.375739e+01	-1.808501e+02	3.035699e+05	1.161511e+05	2.999080e+02	4.028059e-01	2.090321e+01	0.000000e+00	
1.102564e+00	2.689873e-01	1.349167e+00	5.375742e+01	-1.808501e+02	3.035699e+05	1.161511e+05	2.999080e+02	4.028059e-01	2.090322e+01	0.000000e+00	
1.102564e+00	2.373418e-01	1.349167e+00	5.375745e+01	-1.808501e+02	3.035699e+05	1.161511e+05	2.999080e+02	4.028059e-01	2.090322e+01	0.000000e+00	
1.102564e+00	2.056962e-01	1.349167e+00	5.375748e+01	-1.808501e+02	3.035699e+05	1.161511e+05	2.999080e+02	4.028060e-01	2.090323e+01	0.000000e+00	
1.102564e+00	1.740506e-01	1.349167e+00	5.375752e+01	-1.808502e+02	3.035699e+05	1.161511e+05	2.999080e+02	4.028061e-01	2.090323e+01	0.000000e+00	
1.102564e+00	1.424051e-01	1.349167e+00	5.375755e+01	-1.808502e+02	3.035699e+05	1.161511e+05	2.999080e+02	4.028062e-01	2.090324e+01	0.000000e+00	
1.102564e+00	1.107595e-01	1.349167e+00	5.375758e+01	-1.808503e+02	3.035700e+05	1.161511e+05	2.999080e+02	4.028063e-01	2.090324e+01	0.000000e+00	
1.102564e+00	7.911392e-02	1.349167e+00	5.375762e+01	-1.808503e+02	3.035700e+05	1.161511e+05	2.999080e+02	4.028064e-01	2.090324e+01	0.000000e+00	
1.102564e+00	4.746835e-02	1.349167e+00	5.375766e+01	-1.808504e+02	3.035700e+05	1.161511e+05	2.999080e+02	4.028065e-01	2.090324e+01	0.000000e+00	
1.102564e+00	1.582278e-02	1.349167e+00	5.375769e+01	-1.808504e+02	3.035700e+05	1.161511e+05	2.999080e+02	4.028066e-01	2.090324e+01	0.000000e+00	
1.102564e+00	-1.582278e-02	1.349167e+00	5.375773e+01	-1.808505e+02	3.035700e+05	1.161511e+05	2.999080e+02	4.028067e-01	2.090324e+01	0.000000e+00	
1.102564e+00	-4.746835e-02	1.349168e+00	5.375776e+01	-1.808506e+02	3.035700e+05	1.161511e+05	2.999079e+02	4.028069e-01	2.090324e+01	0.000000e+00	
1.102564e+00	-7.911392e-02	1.349168e+00	5.375780e+01	-1.808506e+02	3.035700e+05	1.161511e+05	2.999079e+02	4.028070e-01	2.090324e+01	0.000000e+00	
1.102564e+00	-1.107595e-01	1.349168e+00	5.375783e+01	-1.808507e+02	3.035700e+05	1.161511e+05	2.999079e+02	4.028072e-01	2.090323e+01	0.000000e+00	
1.102564e+00	-1.424051e-01	1.349168e+00	5.375787e+01	-1.808508e+02	3.035700e+05	1.161511e+05	2.999078e+02	4.028074e-01	2.090323e+01	0.000000e+00	
1.102564e+00	-1.740506e-01	1.349168e+00	5.375790e+01	-1.808508e+02	3.035700e+05	1.161511e+05	2.999078e+02	4.028075e-01	2.090323e+01	0.000000e+00	