TITLE = "Visualization of the volumetric solution"
VARIABLES = "x","y","Density","Momentum_x","Momentum_y","Energy","Pressure","Temperature","Mach","C<sub>p</sub>","Roe_Dissipation"
ZONE NODES= 2400, ELEMENTS= 2291, DATAPACKING=POINT, ZONETYPE=FEQUADRILATERAL
0.000000e+00	1.250000e+00	1.222068e+00	5.586245e+01	-1.445652e+01	2.551929e+05	1.015322e+05	2.894270e+02	1.384467e-01	2.921868e-01	0.000000e+00	
0.000000e+00	1.218354e+00	1.222091e+00	5.586498e+01	-1.441431e+01	2.551881e+05	1.015305e+05	2.894165e+02	1.384272e-01	2.897074e-01	0.000000e+00	
3.448276e-02	1.218354e+00	1.290397e+00	5.264742e+01	-6.160076e+01	2.749748e+05	1.089722e+05	2.941865e+02	1.826334e-01	1.078172e+01	0.000000e+00	
3.448276e-02	1.250000e+00	1.290298e+00	5.264667e+01	-6.162080e+01	2.749527e+05	1.089629e+05	2.941839e+02	1.826815e-01	1.076860e+01	0.000000e+00	
0.000000e+00	1.186709e+00	1.222106e+00	5.588611e+01	-1.439102e+01	2.551851e+05	1.015290e+05	2.894087e+02	1.384625e-01	2.876185e-01	0.000000e+00	
3.448276e-02	1.186709e+00	1.290410e+00	5.264787e+01	-6.160636e+01	2.749763e+05	1.089727e+05	2.941848e+02	1.826423e-01	1.078239e+01	0.000000e+00	
0.000000e+00	1.155063e+00	1.222112e+00	5.589828e+01	-1.438116e+01	2.551843e+05	1.015285e+05	2.894059e+02	1.384848e-01	2.869712e-01	0.000000e+00	
3.448276e-02	1.155063e+00	1.290434e+00	5.265096e+01	-6.160909e+01	2.749798e+05	1.089740e+05	2.941829e+02	1.826488e-01	1.078423e+01	0.000000e+00	
0.000000e+00	1.123418e+00	1.222111e+00	5.590210e+01	-1.437651e+01	2.551838e+05	1.015283e+05	2.894054e+02	1.384911e-01	2.866086e-01	0.000000e+00	
3.448276e-02	1.123418e+00	1.290446e+00	5.265218e+01	-6.161230e+01	2.749812e+05	1.089745e+05	2.941816e+02	1.826548e-01	1.078496e+01	0.000000e+00	
0.000000e+00	1.091772e+00	1.222109e+00	5.590209e+01	-1.437309e+01	2.551834e+05	1.015282e+05	2.894056e+02	1.384893e-01	2.864206e-01	0.000000e+00	
3.448276e-02	1.091772e+00	1.290454e+00	5.265188e+01	-6.161380e+01	2.749823e+05	1.089749e+05	2.941809e+02	1.826560e-01	1.078555e+01	0.000000e+00	
0.000000e+00	1.060127e+00	1.222106e+00	5.590179e+01	-1.437036e+01	2.551832e+05	1.015281e+05	2.894060e+02	1.384871e-01	2.863056e-01	0.000000e+00	
3.448276e-02	1.060127e+00	1.290459e+00	5.265143e+01	-6.161432e+01	2.749831e+05	1.089752e+05	2.941806e+02	1.826556e-01	1.078597e+01	0.000000e+00	
0.000000e+00	1.028481e+00	1.222105e+00	5.590202e+01	-1.436834e+01	2.551831e+05	1.015280e+05	2.894062e+02	1.384866e-01	2.862403e-01	0.000000e+00	
3.448276e-02	1.028481e+00	1.290462e+00	5.265135e+01	-6.161437e+01	2.749836e+05	1.089754e+05	2.941805e+02	1.826552e-01	1.078629e+01	0.000000e+00	
0.000000e+00	9.968354e-01	1.222103e+00	5.590255e+01	-1.436700e+01	2.551830e+05	1.015280e+05	2.894065e+02	1.384871e-01	2.862065e-01	0.000000e+00	
3.448276e-02	9.968354e-01	1.290464e+00	5.265154e+01	-6.161437e+01	2.749840e+05	1.089756e+05	2.941805e+02	1.826552e-01	1.078652e+01	0.000000e+00	
0.000000e+00	9.651899e-01	1.222103e+00	5.590298e+01	-1.436616e+01	2.551830e+05	1.015280e+05	2.894066e+02	1.384877e-01	2.861843e-01	0.000000e+00	
3.448276e-02	9.651899e-01	1.290465e+00	5.265173e+01	-6.161440e+01	2.749843e+05	1.089757e+05	2.941805e+02	1.826554e-01	1.078667e+01	0.000000e+00	
0.000000e+00	9.335443e-01	1.222102e+00	5.590318e+01	-1.436562e+01	2.551830e+05	1.015280e+05	2.894067e+02	1.384878e-01	2.861702e-01	0.000000e+00	
3.448276e-02	9.335443e-01	1.290466e+00	5.265181e+01	-6.161444e+01	2.749845e+05	1.089758e+05	2.941805e+02	1.826554e-01	1.078678e+01	0.000000e+00	
0.000000e+00	9.018987e-01	1.222102e+00	5.590320e+01	-1.436523e+01	2.551829e+05	1.015280e+05	2.894068e+02	1.384877e-01	2.861604e-01	0.000000e+00	
3.448276e-02	9.018987e-01	1.290466e+00	5.265178e+01	-6.161445e+01	2.749847e+05	1.089758e+05	2.941806e+02	1.826553e-01	1.078686e+01	0.000000e+00	
0.000000e+00	8.702532e-01	1.222102e+00	5.590314e+01	-1.436493e+01	2.551829e+05	1.015280e+05	2.894068e+02	1.384874e-01	2.861559e-01	0.000000e+00	
3.448276e-02	8.702532e-01	1.290466e+00	5.265169e+01	-6.161443e+01	2.749848e+05	1.089759e+05	2.941807e+02	1.826551e-01	1.078692e+01	0.000000e+00	
0.000000e+00	8.386076e-01	1.222101e+00	5.590307e+01	-1.436467e+01	2.551829e+05	1.015280e+05	2.894068e+02	1.384871e-01	2.861547e-01	0.000000e+00	
3.448276e-02	8.386076e-01	1.290466e+00	5.265160e+01	-6.161438e+01	2.749848e+05	1.089759e+05	2.941807e+02	1.826548e-01	1.078697e+01	0.000000e+00	
0.000000e+00	8.069620e-01	1.222101e+00	5.590302e+01	-1.436445e+01	2.551829e+05	1.015280e+05	2.894068e+02	1.384868e-01	2.861563e-01	0.000000e+00	
3.448276e-02	8.069620e-01	1.290467e+00	5.265153e+01	-6.161431e+01	2.749849e+05	1.089760e+05	2.941808e+02	1.826546e-01	1.078702e+01	0.000000e+00	
0.000000e+00	7.753165e-01	1.222101e+00	5.590300e+01	-1.436427e+01	2.551829e+05	1.015280e+05	2.894068e+02	1.384867e-01	2.861593e-01	0.000000e+00	
3.448276e-02	7.753165e-01	1.290467e+00	5.265147e+01	-6.161426e+01	2.749850e+05	1.089760e+05	2.941808e+02	1.826544e-01	1.078705e+01	0.000000e+00	
0.000000e+00	7.436709e-01	1.222101e+00	5.590299e+01	-1.436413e+01	2.551829e+05	1.015280e+05	2.894068e+02	1.384866e-01	2.861631e-01	0.000000e+00	
3.448276e-02	7.436709e-01	1.290467e+00	5.265143e+01	-6.161420e+01	2.749850e+05	1.089760e+05	2.941808e+02	1.826542e-01	1.078708e+01	0.000000e+00	
0.000000e+00	7.120253e-01	1.222101e+00	5.590299e+01	-1.436400e+01	2.551829e+05	1.015280e+05	2.894068e+02	1.384865e-01	2.861674e-01	0.000000e+00	
3.448276e-02	7.120253e-01	1.290467e+00	5.265140e+01	-6.161416e+01	2.749851e+05	1.089760e+05	2.941809e+02	1.826541e-01	1.078711e+01	0.000000e+00	
0.000000e+00	6.803797e-01	1.222101e+00	5.590298e+01	-1.436390e+01	2.551829e+05	1.015280e+05	2.894068e+02	1.384864e-01	2.861721e-01	0.000000e+00	
3.448276e-02	6.803797e-01	1.290467e+00	5.265138e+01	-6.161412e+01	2.749851e+05	1.089760e+05	2.941809e+02	1.826539e-01	1.078713e+01	0.000000e+00	
0.000000e+00	6.487342e-01	1.222102e+00	5.590298e+01	-1.436382e+01	2.551830e+05	1.015280e+05	2.894068e+02	1.384863e-01	2.861770e-01	0.000000e+00	
3.448276e-02	6.487342e-01	1.290467e+00	5.265136e+01	-6.161408e+01	2.749851e+05	1.089761e+05	2.941809e+02	1.826538e-01	1.078715e+01	0.000000e+00	
0.000000e+00	6.170886e-01	1.222102e+00	5.590298e+01	-1.436374e+01	2.551830e+05	1.015280e+05	2.894068e+02	1.384863e-01	2.861820e-01	0.000000e+00	
3.448276e-02	6.170886e-01	1.290467e+00	5.265134e+01	-6.161405e+01	2.749852e+05	1.089761e+05	2.941809e+02	1.826537e-01	1.078717e+01	0.000000e+00	
0.000000e+00	5.854430e-01	1.222102e+00	5.590298e+01	-1.436368e+01	2.551830e+05	1.015280e+05	2.894068e+02	1.384862e-01	2.861870e-01	0.000000e+00	
3.448276e-02	5.854430e-01	1.290467e+00	5.265133e+01	-6.161403e+01	2.749852e+05	1.089761e+05	2.941809e+02	1.826537e-01	1.078719e+01	0.000000e+00	
0.000000e+00	5.537975e-01	1.222102e+00	5.590298e+01	-1.436362e+01	2.551830e+05	1.015280e+05	2.894068e+02	1.384862e-01	2.861921e-01	0.000000e+00	
3.448276e-02	5.537975e-01	1.290467e+00	5.265132e+01	-6.161401e+01	2.749852e+05	1.089761e+05	2.941809e+02	1.826536e-01	1.078720e+01	0.000000e+00	
0.000000e+00	5.221519e-01	1.222102e+00	5.590298e+01	-1.436357e+01	2.551830e+05	1.015280e+05	2.894068e+02	1.384862e-01	2.861970e-01	0.000000e+00	
3.448276e-02	5.221519e-01	1.290468e+00	5.265131e+01	-6.161399e+01	2.749852e+05	1.089761e+05	2.941809e+02	1.826535e-01	1.078721e+01	0.000000e+00	
0.000000e+00	4.905063e-01	1.222102e+00	5.590298e+01	-1.436353e+01	2.551830e+05	1.015280e+05	2.894068e+02	1.384861e-01	2.862017e-01	0.000000e+00	
3.448276e-02	4.905063e-01	1.290468e+00	5.265131e+01	-6.161397e+01	2.749853e+05	1.089761e+05	2.941809e+02	1.826535e-01	1.078723e+01	0.000000e+00	
0.000000e+00	4.588608e-01	1.222102e+00	5.590298e+01	-1.436348e+01	2.551830e+05	1.015280e+05	2.894068e+02	1.384861e-01	2.862064e-01	0.000000e+00	
3.448276e-02	4.588608e-01	1.290468e+00	5.265130e+01	-6.161395e+01	2.749853e+05	1.089761e+05	2.941810e+02	1.826534e-01	1.078724e+01	0.000000e+00	
0.000000e+00	4.272152e-01	1.222102e+00	5.590298e+01	-1.436345e+01	2.551830e+05	1.015280e+05	2.894068e+02	1.384861e-01	2.862109e-01	0.000000e+00	
3.448276e-02	4.272152e-01	1.290468e+00	5.265130e+01	-6.161393e+01	2.749853e+05	1.089761e+05	2.941810e+02	1.826534e-01	1.078725e+01	0.000000e+00	
0.000000e+00	3.955696e-01	1.222102e+00	5.590299e+01	-1.436341e+01	2.551830e+05	1.015280e+05	2.894069e+02	1.384861e-01	2.862153e-01	0.000000e+00	
3.448276e-02	3.955696e-01	1.290468e+00	5.265130e+01	-6.161392e+01	2.749853e+05	1.089761e+05	2.941810e+02	1.826533e-01	1.078726e+01	0.000000e+00	
0.000000e+00	3.639241e-01	1.222102e+00	5.590299e+01	-1.436338e+01	2.551830e+05	1.015280e+05	2.894069e+02	1.384861e-01	2.862194e-01	0.000000e+00	
3.448276e-02	3.639241e-01	1.290468e+00	5.265131e+01	-6.161390e+01	2.749853e+05	1.089761e+05	2.941810e+02	1.826533e-01	1.078727e+01	0.000000e+00	
0.000000e+00	3.322785e-01	1.222102e+00	5.590300e+01	-1.436334e+01	2.551830e+05	1.015280e+05	2.894069e+02	1.384861e-01	2.862234e-01	0.000000e+00	
3.448276e-02	3.322785e-01	1.290468e+00	5.265131e+01	-6.161389e+01	2.749853e+05	1.089761e+05	2.941810e+02	1.826533e-01	1.078728e+01	0.000000e+00	
0.000000e+00	3.006329e-01	1.222102e+00	5.590301e+01	-1.436331e+01	2.551830e+05	1.015280e+05	2.894069e+02	1.384861e-01	2.862272e-01	0.000000e+00	
3.448276e-02	3.006329e-01	1.290468e+00	5.265132e+01	-6.161387e+01	2.749854e+05	1.089762e+05	2.941810e+02	1.826533e-01	1.078729e+01	0.000000e+00	
0.000000e+00	2.689873e-01	1.222102e+00	5.590302e+01	-1.436328e+01	2.551830e+05	1.015280e+05	2.894069e+02	1.384861e-01	2.862307e-01	0.000000e+00	
3.448276e-02	2.689873e-01	1.290468e+00	5.265133e+01	-6.161386e+01	2.749854e+05	1.089762e+05	2.941810e+02	1.826532e-01	1.078730e+01	0.000000e+00	
0.000000e+00	2.373418e-01	1.222102e+00	5.590303e+01	-1.436326e+01	2.551830e+05	1.015280e+05	2.894069e+02	1.384861e-01	2.862340e-01	0.000000e+00	
3.448276e-02	2.373418e-01	1.290468e+00	5.265134e+01	-6.161384e+01	2.749854e+05	1.089762e+05	2.941810e+02	1.826532e-01	1.078730e+01	0.000000e+00	
0.000000e+00	2.056962e-01	1.222102e+00	5.590305e+01	-1.436323e+01	2.551831e+05	1.015280e+05	2.894069e+02	1.384861e-01	2.862371e-01	0.000000e+00	
3.448276e-02	2.056962e-01	1.290468e+00	5.265135e+01	-6.161383e+01	2.749854e+05	1.089762e+05	2.941810e+02	1.826532e-01	1.078731e+01	0.000000e+00	
0.000000e+00	1.740506e-01	1.222102e+00	5.590306e+01	-1.436320e+01	2.551831e+05	1.015280e+05	2.894069e+02	1.384861e-01	2.862399e-01	0.000000e+00	
3.448276e-02	1.740506e-01	1.290468e+00	5.265136e+01	-6.161381e+01	2.749854e+05	1.089762e+05	2.941810e+02	1.826532e-01	1.078732e+01	0.000000e+00	
0.000000e+00	1.424051e-01	1.222102e+00	5.590307e+01	-1.436317e+01	2.551831e+05	1.015280e+05	2.894069e+02	1.384861e-01	2.862424e-01	0.000000e+00	
3.448276e-02	1.424051e-01	1.290468e+00	5.265137e+01	-6.161379e+01	2.749854e+05	1.089762e+05	2.941810e+02	1.826532e-01	1.078732e+01	0.000000e+00	
0.000000e+00	1.107595e-01	1.222102e+00	5.590309e+01	-1.436315e+01	2.551831e+05	1.015280e+05	2.894069e+02	1.384861e-01	2.862447e-01	0.000000e+00	
3.448276e-02	1.107595e-01	1.290468e+00	5.265139e+01	-6.161378e+01	2.749854e+05	1.089762e+05	2.941810e+02	1.826532e-01	1.078733e+01	0.000000e+00	
0.000000e+00	7.911392e-02	1.222102e+00	5.590311e+01	-1.436312e+01	2.551831e+05	1.015280e+05	2.894069e+02	1.384862e-01	2.862466e-01	0.000000e+00	
3.448276e-02	7.911392e-02	1.290468e+00	5.265141e+01	-6.161376e+01	2.749854e+05	1.089762e+05	2.941810e+02	1.826531e-01	1.078733e+01	0.000000e+00	
0.000000e+00	4.746835e-02	1.222102e+00	5.590313e+01	-1.436309e+01	2.551831e+05	1.015280e+05	2.894069e+02	1.384862e-01	2.862483e-01	0.000000e+00	
3.448276e-02	4.746835e-02	1.290468e+00	5.265142e+01	-6.161374e+01	2.749855e+05	1.089762e+05	2.941810e+02	1.826531e-01	1.078734e+01	0.000000e+00	
0.000000e+00	1.582278e-02	1.222102e+00	5.590315e+01	-1.436307e+01	2.551831e+05	1.015280e+05	2.894069e+02	1.384862e-01	2.862496e-01	0.000000e+00	
3.448276e-02	1.582278e-02	1.290468e+00	5.265144e+01	-6.161372e+01	2.749855e+05	1.089762e+05	2.941810e+02	1.826531e-01	1.078734e+01	0.000000e+00	
0.000000e+00	-1.582278e-02	1.222102e+00	5.590317e+01	-1.436304e+01	2.551831e+05	1.015280e+05	2.894069e+02	1.384862e-01	2.862506e-01	0.000000e+00	
3.448276e-02	-1.582278e-02	1.290468e+00	5.265146e+01	-6.161370e+01	2.749855e+05	1.089762e+05	2.941810e+02	1.826531e-01	1.078735e+01	0.000000e+00	
0.000000e+00	-4.746835e-02	1.222102e+00	5.590319e+01	-1.436301e+01	2.551831e+05	1.015280e+05	2.894069e+02	1.384863e-01	2.862513e-01	0.000000e+00	
3.448276e-02	-4.746835e-02	1.290468e+00	5.265148e+01	-6.161368e+01	2.749855e+05	1.089762e+05	2.941810e+02	1.826531e-01	1.078735e+01	0.000000e+00	
0.000000e+00	-7.911392e-02	1.222102e+00	5.590321e+01	-1.436298e+01	2.551831e+05	1.015280e+05	2.894069e+02	1.384863e-01	2.862516e-01	0.000000e+00	
3.448276e-02	-7.911392e-02	1.290468e+00	5.265150e+01	-6.161366e+01	2.749855e+05	1.089762e+05	2.941810e+02	1.826531e-01	1.078736e+01	0.000000e+00	
0.000000e+00	-1.107595e-01	1.222102e+00	5.590323e+01	-1.436295e+01	2.551831e+05	1.015280e+05	2.894069e+02	1.384863e-01	2.862516e-01	0.000000e+00	
3.448276e-02	-1.107595e-01	1.290468e+00	5.265153e+01	-6.161364e+01	2.749855e+05	1.089762e+05	2.941810e+02	1.826531e-01	1.078736e+01	0.000000e+00	
0.000000e+00	-1.424051e-01	1.222102e+00	5.590326e+01	-1.436292e+01	2.551831e+05	1.015280e+05	2.894069e+02	1.384864e-01	2.862513e-01	0.000000e+00	
3.448276e-02	-1.424051e-01	1.290469e+00	5.265155e+01	-6.161362e+01	2.749855e+05	1.089762e+05	2.941810e+02	1.826531e-01	1.078736e+01	0.000000e+00	
0.000000e+00	-1.740506e-01	1.222102e+00	5.590328e+01	-1.436289e+01	2.551831e+05	1.015280e+05	2.894069e+02	1.384864e-01	2.862506e-01	0.000000e+00	
3.448276e-02	-1.740506e-01	1.290469e+00	5.265157e+01	-6.161359e+01	2.749855e+05	1.089762e+05	2.941810e+02	1.826531e-01	1.078737e+01	0.000000e+00	
0.000000e+00	-2.056962e-01	1.222102e+00	5.590331e+01	-1.436285e+01	2.551831e+05	1.015280e+05	2.894069e+02	1.384865e-01	2.862495e-01	0.000000e+00	
3.448276e-02	-2.056962e-01	1.290469e+00	5.265160e+01	-6.161357e+01	2.749855e+05	1.089762e+05	2.941810e+02	1.826531e-01	1.078737e+01	0.000000e+00	
0.000000e+00	-2.373418e-01	1.222102e+00	5.590333e+01	-1.436282e+01	2.551831e+05	1.015280e+05	2.894069e+02	1.384865e-01	2.862481e-01	0.000000e+00	
3.448276e-02	-2.373418e-01	1.290469e+00	5.265163e+01	-6.161354e+01	2.749855e+05	1.089762e+05	2.941810e+02	1.826531e-01	1.078737e+01	0.000000e+00	
0.000000e+00	-2.689873e-01	1.222102e+00	5.590336e+01	-1.436279e+01	2.551831e+05	1.015280e+05	2.894069e+02	1.384865e-01	2.862463e-01	0.000000e+00	
3.448276e-02	-2.689873e-01	1.290469e+00	5.265165e+01	-6.161352e+01	2.749855e+05	1.089762e+05	2.941810e+02	1.826530e-01	1.078737e+01	0.000000e+00	
0.000000e+00	-3.006329e-01	1.222102e+00	5.590339e+01	-1.436275e+01	2.551831e+05	1.015280e+05	2.894069e+02	1.384866e-01	2.862441e-01	0.000000e+00	
3.448276e-02	-3.006329e-01	1.290469e+00	5.265168e+01	-6.161349e+01	2.749855e+05	1.089762e+05	2.941810e+02	1.826530e-01	1.078738e+01	0.000000e+00	
0.000000e+00	-3.322785e-01	1.222102e+00	5.590342e+01	-1.436271e+01	2.551831e+05	1.015280e+05	2.894069e+02	1.384866e-01	2.862416e-01	0.000000e+00	
3.448276e-02	-3.322785e-01	1.290469e+00	5.265171e+01	-6.161346e+01	2.749855e+05	1.089762e+05	2.941810e+02	1.826530e-01	1.078738e+01	0.000000e+00	
0.000000e+00	-3.639241e-01	1.222102e+00	5.590345e+01	-1.436267e+01	2.551831e+05	1.015280e+05	2.894069e+02	1.384867e-01	2.862386e-01	0.000000e+00	
3.448276e-02	-3.639241e-01	1.290469e+00	5.265174e+01	-6.161343e+01	2.749855e+05	1.089762e+05	2.941810e+02	1.826530e-01	1.078738e+01	0.000000e+00	
0.000000e+00	-3.955696e-01	1.222102e+00	5.590348e+01	-1.436263e+01	2.551831e+05	1.015280e+05	2.894069e+02	1.384867e-01	2.862354e-01	0.000000e+00	
3.448276e-02	-3.955696e-01	1.290469e+00	5.265178e+01	-6.161340e+01	2.749855e+05	1.089762e+05	2.941810e+02	1.826530e-01	1.078738e+01	0.000000e+00	
0.000000e+00	-4.272152e-01	1.222102e+00	5.590352e+01	-1.436259e+01	2.551831e+05	1.015280e+05	2.894069e+02	1.384868e-01	2.862317e-01	0.000000e+00	
3.448276e-02	-4.272152e-01	1.290469e+00	5.265181e+01	-6.161336e+01	2.749855e+05	1.089762e+05	2.941810e+02	1.826530e-01	1.078738e+01	0.000000e+00	
0.000000e+00	-4.588608e-01	1.222102e+00	5.590355e+01	-1.436254e+01	2.551831e+05	1.015280e+05	2.894069e+02	1.384869e-01	2.862276e-01	0.000000e+00	
3.448276e-02	-4.588608e-01	1.290469e+00	5.265185e+01	-6.161333e+01	2.749855e+05	1.089762e+05	2.941810e+02	1.826530e-01	1.078738e+01	0.000000e+00	
0.000000e+00	-4.905063e-01	1.222102e+00	5.590359e+01	-1.436249e+01	2.551830e+05	1.015280e+05	2.894069e+02	1.384869e-01	2.862232e-01	0.000000e+00	
3.448276e-02	-4.905063e-01	1.290469e+00	5.265189e+01	-6.161329e+01	2.749855e+05	1.089762e+05	2.941810e+02	1.826530e-01	1.078738e+01	0.000000e+00	
0.000000e+00	-5.221519e-01	1.222102e+00	5.590363e+01	-1.436245e+01	2.551830e+05	1.015280e+05	2.894069e+02	1.384870e-01	2.862183e-01	0.000000e+00	
3.448276e-02	-5.221519e-01	1.290469e+00	5.265193e+01	-6.161326e+01	2.749855e+05	1.089762e+05	2.941810e+02	1.826530e-01	1.078738e+01	0.000000e+00	
0.000000e+00	-5.537975e-01	1.222102e+00	5.590368e+01	-1.436239e+01	2.551830e+05	1.015280e+05	2.894069e+02	1.384871e-01	2.862129e-01	0.000000e+00	
3.448276e-02	-5.537975e-01	1.290469e+00	5.265197e+01	-6.161322e+01	2.749855e+05	1.089762e+05	2.941810e+02	1.826530e-01	1.078738e+01	0.000000e+00	
0.000000e+00	-5.854430e-01	1.222102e+00	5.590372e+01	-1.436234e+01	2.551830e+05	1.015280e+05	2.894069e+02	1.384872e-01	2.862071e-01	0.000000e+00	
3.448276e-02	-5.854430e-01	1.290469e+00	5.265202e+01	-6.161318e+01	2.749855e+05	1.089762e+05	2.941810e+02	1.826530e-01	1.078738e+01	0.000000e+00	
0.000000e+00	-6.170886e-01	1.222102e+00	5.590377e+01	-1.436229e+01	2.551830e+05	1.015280e+05	2.894069e+02	1.384872e-01	2.862008e-01	0.000000e+00	
3.448276e-02	-6.170886e-01	1.290469e+00	5.265207e+01	-6.161314e+01	2.749855e+05	1.089762e+05	2.941810e+02	1.826530e-01	1.078738e+01	0.000000e+00	
0.000000e+00	-6.487342e-01	1.222102e+00	5.590383e+01	-1.436223e+01	2.551830e+05	1.015280e+05	2.894069e+02	1.384873e-01	2.861940e-01	0.000000e+00	
3.448276e-02	-6.487342e-01	1.290469e+00	5.265212e+01	-6.161309e+01	2.749855e+05	1.089762e+05	2.941810e+02	1.826530e-01	1.078738e+01	0.000000e+00	
0.000000e+00	-6.803797e-01	1.222102e+00	5.590389e+01	-1.436216e+01	2.551830e+05	1.015280e+05	2.894069e+02	1.384874e-01	2.861869e-01	0.000000e+00	
3.448276e-02	-6.803797e-01	1.290469e+00	5.265218e+01	-6.161305e+01	2.749855e+05	1.089762e+05	2.941810e+02	1.826530e-01	1.078737e+01	0.000000e+00	
0.000000e+00	-7.120253e-01	1.222102e+00	5.590395e+01	-1.436209e+01	2.551830e+05	1.015280e+05	2.894068e+02	1.384876e-01	2.861794e-01	0.000000e+00	
3.448276e-02	-7.120253e-01	1.290469e+00	5.265225e+01	-6.161299e+01	2.749855e+05	1.089762e+05	2.941810e+02	1.826530e-01	1.078737e+01	0.000000e+00	
0.000000e+00	-7.436709e-01	1.222101e+00	5.590403e+01	-1.436202e+01	2.551830e+05	1.015280e+05	2.894068e+02	1.384877e-01	2.861716e-01	0.000000e+00	
3.448276e-02	-7.436709e-01	1.290469e+00	5.265234e+01	-6.161294e+01	2.749855e+05	1.089762e+05	2.941810e+02	1.826531e-01	1.078737e+01	0.000000e+00	
0.000000e+00	-7.753165e-01	1.222101e+00	5.590412e+01	-1.436193e+01	2.551830e+05	1.015280e+05	2.894068e+02	1.384879e-01	2.861638e-01	0.000000e+00	
3.448276e-02	-7.753165e-01	1.290469e+00	5.265244e+01	-6.161287e+01	2.749855e+05	1.089762e+05	2.941810e+02	1.826531e-01	1.078737e+01	0.000000e+00	
0.000000e+00	-8.069620e-01	1.222101e+00	5.590425e+01	-1.436183e+01	2.551829e+05	1.015280e+05	2.894068e+02	1.384881e-01	2.861555e-01	0.000000e+00	
3.448276e-02	-8.069620e-01	1.290468e+00	5.265256e+01	-6.161281e+01	2.749855e+05	1.089762e+05	2.941810e+02	1.826532e-01	1.078736e+01	0.000000e+00	
0.000000e+00	-8.386076e-01	1.222101e+00	5.590441e+01	-1.436171e+01	2.551829e+05	1.015280e+05	2.894068e+02	1.384884e-01	2.861478e-01	0.000000e+00	
3.448276e-02	-8.386076e-01	1.290468e+00	5.265271e+01	-6.161274e+01	2.749855e+05	1.089762e+05	2.941810e+02	1.826533e-01	1.078735e+01	0.000000e+00	
0.000000e+00	-8.702532e-01	1.222101e+00	5.590462e+01	-1.436160e+01	2.551829e+05	1.015280e+05	2.894068e+02	1.384889e-01	2.861384e-01	0.000000e+00	
3.448276e-02	-8.702532e-01	1.290468e+00	5.265290e+01	-6.161269e+01	2.749855e+05	1.089762e+05	2.941810e+02	1.826535e-01	1.078734e+01	0.000000e+00	
0.000000e+00	-9.018987e-01	1.222101e+00	5.590487e+01	-1.436150e+01	2.551829e+05	1.015279e+05	2.894068e+02	1.384894e-01	2.861301e-01	0.000000e+00	
3.448276e-02	-9.018987e-01	1.290468e+00	5.265310e+01	-6.161267e+01	2.749854e+05	1.089762e+05	2.941810e+02	1.826538e-01	1.078733e+01	0.000000e+00	
0.000000e+00	-9.335443e-01	1.222101e+00	5.590512e+01	-1.436143e+01	2.551829e+05	1.015279e+05	2.894068e+02	1.384899e-01	2.861154e-01	0.000000e+00	
3.448276e-02	-9.335443e-01	1.290468e+00	5.265329e+01	-6.161267e+01	2.749854e+05	1.089762e+05	2.941810e+02	1.826541e-01	1.078729e+01	0.000000e+00	
0.000000e+00	-9.651899e-01	1.222101e+00	5.590524e+01	-1.436138e+01	2.551829e+05	1.015279e+05	2.894068e+02	1.384902e-01	2.861054e-01	0.000000e+00	
3.448276e-02	-9.651899e-01	1.290468e+00	5.265338e+01	-6.161274e+01	2.749853e+05	1.089761e+05	2.941809e+02	1.826544e-01	1.078726e+01	0.000000e+00	
0.000000e+00	-9.968354e-01	1.222101e+00	5.590513e+01	-1.436122e+01	2.551829e+05	1.015279e+05	2.894068e+02	1.384899e-01	2.860900e-01	0.000000e+00	
3.448276e-02	-9.968354e-01	1.290467e+00	5.265337e+01	-6.161270e+01	2.749852e+05	1.089761e+05	2.941809e+02	1.826543e-01	1.078720e+01	0.000000e+00	
0.000000e+00	-1.028481e+00	1.222101e+00	5.590480e+01	-1.436080e+01	2.551829e+05	1.015279e+05	2.894068e+02	1.384888e-01	2.861330e-01	0.000000e+00	
3.448276e-02	-1.028481e+00	1.290467e+00	5.265325e+01	-6.161263e+01	2.749852e+05	1.089761e+05	2.941809e+02	1.826541e-01	1.078718e+01	0.000000e+00	
0.000000e+00	-1.060127e+00	1.222102e+00	5.590505e+01	-1.435958e+01	2.551831e+05	1.015280e+05	2.894068e+02	1.384886e-01	2.862285e-01	0.000000e+00	
3.448276e-02	-1.060127e+00	1.290466e+00	5.265362e+01	-6.161206e+01	2.749850e+05	1.089760e+05	2.941809e+02	1.826538e-01	1.078707e+01	0.000000e+00	
0.000000e+00	-1.091772e+00	1.222105e+00	5.590734e+01	-1.435752e+01	2.551838e+05	1.015283e+05	2.894068e+02	1.384923e-01	2.865615e-01	0.000000e+00	
3.448276e-02	-1.091772e+00	1.290466e+00	5.265511e+01	-6.161206e+01	2.749851e+05	1.089760e+05	2.941809e+02	1.826559e-01	1.078708e+01	0.000000e+00	
0.000000e+00	-1.123418e+00	1.222108e+00	5.591452e+01	-1.435439e+01	2.551845e+05	1.015284e+05	2.894065e+02	1.385068e-01	2.868159e-01	0.000000e+00	
3.448276e-02	-1.123418e+00	1.290463e+00	5.265903e+01	-6.161230e+01	2.749843e+05	1.089756e+05	2.941806e+02	1.826626e-01	1.078654e+01	0.000000e+00	
0.000000e+00	-1.155063e+00	1.222114e+00	5.592530e+01	-1.435401e+01	2.551858e+05	1.015288e+05	2.894062e+02	1.385311e-01	2.872718e-01	0.000000e+00	
3.448276e-02	-1.155063e+00	1.290463e+00	5.266252e+01	-6.161775e+01	2.749837e+05	1.089752e+05	2.941797e+02	1.826775e-01	1.078598e+01	0.000000e+00	
0.000000e+00	-1.186709e+00	1.222098e+00	5.593246e+01	-1.435824e+01	2.551839e+05	1.015278e+05	2.894072e+02	1.385518e-01	2.859804e-01	0.000000e+00	
3.448276e-02	-1.186709e+00	1.290439e+00	5.265636e+01	-6.162389e+01	2.749785e+05	1.089731e+05	2.941793e+02	1.826824e-01	1.078301e+01	0.000000e+00	
0.000000e+00	-1.218354e+00	1.222024e+00	5.590472e+01	-1.437585e+01	2.551738e+05	1.015242e+05	2.894145e+02	1.385046e-01	2.808349e-01	0.000000e+00	
3.448276e-02	-1.218354e+00	1.290429e+00	5.262794e+01	-6.164698e+01	2.749782e+05	1.089730e+05	2.941813e+02	1.826811e-01	1.078287e+01	0.000000e+00	
6.896552e-02	1.218354e+00	1.311706e+00	5.424419e+01	-9.625099e+01	2.838737e+05	1.116883e+05	2.966207e+02	2.439567e-01	1.461108e+01	0.000000e+00	
6.896552e-02	1.250000e+00	1.311779e+00	5.422374e+01	-9.624224e+01	2.838863e+05	1.116940e+05	2.966195e+02	2.439047e-01	1.461921e+01	0.000000e+00	
6.896552e-02	1.186709e+00	1.311699e+00	5.425697e+01	-9.625001e+01	2.838740e+05	1.116882e+05	2.966221e+02	2.439694e-01	1.461098e+01	0.000000e+00	
6.896552e-02	1.155063e+00	1.311698e+00	5.426638e+01	-9.625058e+01	2.838744e+05	1.116882e+05	2.966222e+02	2.439808e-01	1.461097e+01	0.000000e+00	
6.896552e-02	1.123418e+00	1.311697e+00	5.427113e+01	-9.625265e+01	2.838740e+05	1.116879e+05	2.966218e+02	2.439904e-01	1.461054e+01	0.000000e+00	
6.896552e-02	1.091772e+00	1.311698e+00	5.427329e+01	-9.625388e+01	2.838739e+05	1.116878e+05	2.966212e+02	2.439951e-01	1.461042e+01	0.000000e+00	
6.896552e-02	1.060127e+00	1.311700e+00	5.427424e+01	-9.625458e+01	2.838739e+05	1.116878e+05	2.966207e+02	2.439973e-01	1.461036e+01	0.000000e+00	
6.896552e-02	1.028481e+00	1.311702e+00	5.427481e+01	-9.625490e+01	2.838740e+05	1.116878e+05	2.966203e+02	2.439984e-01	1.461037e+01	0.000000e+00	
6.896552e-02	9.968354e-01	1.311703e+00	5.427526e+01	-9.625513e+01	2.838740e+05	1.116878e+05	2.966200e+02	2.439992e-01	1.461039e+01	0.000000e+00	
6.896552e-02	9.651899e-01	1.311704e+00	5.427558e+01	-9.625533e+01	2.838741e+05	1.116878e+05	2.966198e+02	2.439998e-01	1.461042e+01	0.000000e+00	
6.896552e-02	9.335443e-01	1.311705e+00	5.427577e+01	-9.625552e+01	2.838742e+05	1.116878e+05	2.966196e+02	2.440002e-01	1.461044e+01	0.000000e+00	
6.896552e-02	9.018987e-01	1.311706e+00	5.427583e+01	-9.625566e+01	2.838742e+05	1.116878e+05	2.966196e+02	2.440005e-01	1.461047e+01	0.000000e+00	
6.896552e-02	8.702532e-01	1.311706e+00	5.427581e+01	-9.625575e+01	2.838743e+05	1.116879e+05	2.966195e+02	2.440006e-01	1.461049e+01	0.000000e+00	
6.896552e-02	8.386076e-01	1.311706e+00	5.427577e+01	-9.625579e+01	2.838743e+05	1.116879e+05	2.966195e+02	2.440006e-01	1.461052e+01	0.000000e+00	
6.896552e-02	8.069620e-01	1.311707e+00	5.427572e+01	-9.625581e+01	2.838744e+05	1.116879e+05	2.966195e+02	2.440006e-01	1.461054e+01	0.000000e+00	
6.896552e-02	7.753165e-01	1.311707e+00	5.427567e+01	-9.625582e+01	2.838744e+05	1.116879e+05	2.966196e+02	2.440005e-01	1.461057e+01	0.000000e+00	
6.896552e-02	7.436709e-01	1.311707e+00	5.427563e+01	-9.625582e+01	2.838745e+05	1.116879e+05	2.966196e+02	2.440004e-01	1.461059e+01	0.000000e+00	
6.896552e-02	7.120253e-01	1.311707e+00	5.427560e+01	-9.625581e+01	2.838745e+05	1.116879e+05	2.966196e+02	2.440004e-01	1.461062e+01	0.000000e+00	
6.896552e-02	6.803797e-01	1.311707e+00	5.427557e+01	-9.625581e+01	2.838745e+05	1.116880e+05	2.966197e+02	2.440003e-01	1.461064e+01	0.000000e+00	
6.896552e-02	6.487342e-01	1.311707e+00	5.427555e+01	-9.625580e+01	2.838746e+05	1.116880e+05	2.966197e+02	2.440003e-01	1.461066e+01	0.000000e+00	
6.896552e-02	6.170886e-01	1.311707e+00	5.427553e+01	-9.625580e+01	2.838746e+05	1.116880e+05	2.966198e+02	2.440002e-01	1.461067e+01	0.000000e+00	
6.896552e-02	5.854430e-01	1.311707e+00	5.427552e+01	-9.625579e+01	2.838746e+05	1.116880e+05	2.966198e+02	2.440002e-01	1.461069e+01	0.000000e+00	
6.896552e-02	5.537975e-01	1.311707e+00	5.427551e+01	-9.625579e+01	2.838746e+05	1.116880e+05	2.966198e+02	2.440001e-01	1.461070e+01	0.000000e+00	
6.896552e-02	5.221519e-01	1.311707e+00	5.427550e+01	-9.625579e+01	2.838747e+05	1.116880e+05	2.966198e+02	2.440001e-01	1.461072e+01	0.000000e+00	
6.896552e-02	4.905063e-01	1.311707e+00	5.427549e+01	-9.625578e+01	2.838747e+05	1.116880e+05	2.966198e+02	2.440001e-01	1.461073e+01	0.000000e+00	
6.896552e-02	4.588608e-01	1.311707e+00	5.427549e+01	-9.625578e+01	2.838747e+05	1.116880e+05	2.966198e+02	2.440001e-01	1.461074e+01	0.000000e+00	
6.896552e-02	4.272152e-01	1.311707e+00	5.427549e+01	-9.625578e+01	2.838747e+05	1.116880e+05	2.966199e+02	2.440000e-01	1.461075e+01	0.000000e+00	
6.896552e-02	3.955696e-01	1.311707e+00	5.427549e+01	-9.625577e+01	2.838747e+05	1.116881e+05	2.966199e+02	2.440000e-01	1.461076e+01	0.000000e+00	
6.896552e-02	3.639241e-01	1.311707e+00	5.427549e+01	-9.625577e+01	2.838748e+05	1.116881e+05	2.966199e+02	2.440000e-01	1.461078e+01	0.000000e+00	
6.896552e-02	3.322785e-01	1.311707e+00	5.427550e+01	-9.625577e+01	2.838748e+05	1.116881e+05	2.966199e+02	2.440000e-01	1.461078e+01	0.000000e+00	
6.896552e-02	3.006329e-01	1.311707e+00	5.427551e+01	-9.625576e+01	2.838748e+05	1.116881e+05	2.966199e+02	2.440000e-01	1.461079e+01	0.000000e+00	
6.896552e-02	2.689873e-01	1.311707e+00	5.427552e+01	-9.625576e+01	2.838748e+05	1.116881e+05	2.966199e+02	2.440000e-01	1.461080e+01	0.000000e+00	
6.896552e-02	2.373418e-01	1.311707e+00	5.427553e+01	-9.625576e+01	2.838748e+05	1.116881e+05	2.966199e+02	2.440000e-01	1.461081e+01	0.000000e+00	
6.896552e-02	2.056962e-01	1.311707e+00	5.427554e+01	-9.625575e+01	2.838748e+05	1.116881e+05	2.966199e+02	2.440000e-01	1.461082e+01	0.000000e+00	
6.896552e-02	1.740506e-01	1.311707e+00	5.427556e+01	-9.625574e+01	2.838749e+05	1.116881e+05	2.966199e+02	2.440000e-01	1.461083e+01	0.000000e+00	
6.896552e-02	1.424051e-01	1.311707e+00	5.427557e+01	-9.625573e+01	2.838749e+05	1.116881e+05	2.966199e+02	2.440000e-01	1.461083e+01	0.000000e+00	
6.896552e-02	1.107595e-01	1.311707e+00	5.427559e+01	-9.625573e+01	2.838749e+05	1.116881e+05	2.966199e+02	2.439999e-01	1.461084e+01	0.000000e+00	
6.896552e-02	7.911392e-02	1.311708e+00	5.427561e+01	-9.625572e+01	2.838749e+05	1.116881e+05	2.966199e+02	2.439999e-01	1.461085e+01	0.000000e+00	
6.896552e-02	4.746835e-02	1.311708e+00	5.427563e+01	-9.625571e+01	2.838749e+05	1.116881e+05	2.966199e+02	2.439999e-01	1.461085e+01	0.000000e+00	
6.896552e-02	1.582278e-02	1.311708e+00	5.427565e+01	-9.625569e+01	2.838749e+05	1.116881e+05	2.966199e+02	2.439999e-01	1.461086e+01	0.000000e+00	
6.896552e-02	-1.582278e-02	1.311708e+00	5.427567e+01	-9.625568e+01	2.838749e+05	1.116881e+05	2.966199e+02	2.439999e-01	1.461086e+01	0.000000e+00	
6.896552e-02	-4.746835e-02	1.311708e+00	5.427569e+01	-9.625567e+01	2.838749e+05	1.116881e+05	2.966199e+02	2.439999e-01	1.461087e+01	0.000000e+00	
6.896552e-02	-7.911392e-02	1.311708e+00	5.427571e+01	-9.625565e+01	2.838749e+05	1.116881e+05	2.966199e+02	2.439999e-01	1.461087e+01	0.000000e+00	
6.896552e-02	-1.107595e-01	1.311708e+00	5.427574e+01	-9.625564e+01	2.838749e+05	1.116881e+05	2.966199e+02	2.439999e-01	1.461088e+01	0.000000e+00	
6.896552e-02	-1.424051e-01	1.311708e+00	5.427576e+01	-9.625562e+01	2.838750e+05	1.116881e+05	2.966199e+02	2.439999e-01	1.461088e+01	0.000000e+00	
6.896552e-02	-1.740506e-01	1.311708e+00	5.427579e+01	-9.625560e+01	2.838750e+05	1.116881e+05	2.966199e+02	2.439999e-01	1.461089e+01	0.000000e+00	