TITLE = "SU2 Simulation"
VARIABLES = "Iteration","CL","CD","CSF","CMx","CMy","CMz","CFx","CFy","CFz","CL/CD","AoA","Custom_ObjFunc","Res_Flow[0]","Res_Flow[1]","Res_Flow[2]","Res_Flow[3]","Res_Flow[4]","Linear_Solver_Iterations","CFL_Number","Time(min)"
ZONE T= "Convergence history"
           0, 0.00000000e+00, 0.00000000e+00, 0.00000000e+00, 0.00000000e+00, 0.00000000e+00, 0.00000000e+00, 0.00000000e+00, 0.00000000e+00, 0.00000000e+00, 0.00000000e+00, 0.00000000e+00, 0.00000000e+00, -3.70734323e+00, -1.09757952e+00, -1.29867072e+01, 1.81212178e+00, 0.00000000e+00, 5.0000000000, 5.0000000000, 0.0012649667
           1, 0.00000000e+00, 0.00000000e+00, 0.00000000e+00, 0.00000000e+00, 0.00000000e+00, 0.00000000e+00, 0.00000000e+00, 0.00000000e+00, 0.00000000e+00, 0.00000000e+00, 0.00000000e+00, 0.00000000e+00, -3.99302781e+00, -1.36998898e+00, -3.48553279e+00, 1.54589397e+00, 0.00000000e+00, 5.0000000000, 5.0000000000, 0.0025493667
           2, 0.00000000e+00, 0.00000000e+00, 0.00000000e+00, 0.00000000e+00, 0.00000000e+00, 0.00000000e+00, 0.00000000e+00, 0.00000000e+00, 0.00000000e+00, 0.00000000e+00, 0.00000000e+00, 0.00000000e+00, -1.15286477e+00, 1.32036820e+00, -8.17024432e-01, 4.28545593e+00, 0.00000000e+00, 5.0000000000, 5.0000000000, 0.0037451333
           3, 0.00000000e+00, 0.00000000e+00, 0.00000000e+00, 0.00000000e+00, 0.00000000e+00, 0.00000000e+00, 0.00000000e+00, 0.00000000e+00, 0.00000000e+00, 0.00000000e+00, 0.00000000e+00, 0.00000000e+00, -1.00997445e+00, 1.44930818e+00, -4.10005025e-01, 4.42110325e+00, 0.00000000e+00, 5.0000000000, 5.0000000000, 0.0049221333
           4, 0.00000000e+00, 0.00000000e+00, 0.00000000e+00, 0.00000000e+00, 0.00000000e+00, 0.00000000e+00, 0.00000000e+00, 0.00000000e+00, 0.00000000e+00, 0.00000000e+00, 0.00000000e+00, 0.00000000e+00, -9.77475472e-01, 1.47161600e+00, -3.00356158e-01, 4.44796944e+00, 0.00000000e+00, 5.0000000000, 5.0000000000, 0.0061255500
           5, 0.00000000e+00, 0.00000000e+00, 0.00000000e+00, 0.00000000e+00, 0.00000000e+00, 0.00000000e+00, 0.00000000e+00, 0.00000000e+00, 0.00000000e+00, 0.00000000e+00, 0.00000000e+00, 0.00000000e+00, -9.76574245e-01, 1.46560697e+00, -3.19591593e-01, 4.44507046e+00, 0.00000000e+00, 5.0000000000, 5.0000000000, 0.0072918333
           6, 0.00000000e+00, 0.00000000e+00, 0.00000000e+00, 0.00000000e+00, 0.00000000e+00, 0.00000000e+00, 0.00000000e+00, 0.00000000e+00, 0.00000000e+00, 0.00000000e+00, 0.00000000e+00, 0.00000000e+00, -9.84006673e-01, 1.45348588e+00, -3.91751007e-01, 4.43496867e+00, 0.00000000e+00, 5.0000000000, 5.0000000000, 0.0084010333
           7, 0.00000000e+00, 0.00000000e+00, 0.00000000e+00, 0.00000000e+00, 0.00000000e+00, 0.00000000e+00, 0.00000000e+00, 0.00000000e+00, 0.00000000e+00, 0.00000000e+00, 0.00000000e+00, 0.00000000e+00, -9.92732837e-01, 1.44127080e+00, -4.50427200e-01, 4.42409204e+00, 0.00000000e+00, 5.0000000000, 5.0000000000, 0.0095598667
           8, 0.00000000e+00, 0.00000000e+00, 0.00000000e+00, 0.00000000e+00, 0.00000000e+00, 0.00000000e+00, 0.00000000e+00, 0.00000000e+00, 0.00000000e+00, 0.00000000e+00, 0.00000000e+00, 0.00000000e+00, -1.00118029e+00, 1.42992829e+00, -4.58909164e-01, 4.41384429e+00, 0.00000000e+00, 5.0000000000, 5.0000000000, 0.0109594667
           9, 0.00000000e+00, 0.00000000e+00, 0.00000000e+00, 0.00000000e+00, 0.00000000e+00, 0.00000000e+00, 0.00000000e+00, 0.00000000e+00, 0.00000000e+00, 0.00000000e+00, 0.00000000e+00, 0.00000000e+00, -1.00928319e+00, 1.41934854e+00, -4.41968440e-01, 4.40432227e+00, 0.00000000e+00, 5.0000000000, 5.0000000000, 0.0122552000
          10, 0.00000000e+00, 0.00000000e+00, 0.00000000e+00, 0.00000000e+00, 0.00000000e+00, 0.00000000e+00, 0.00000000e+00, 0.00000000e+00, 0.00000000e+00, 0.00000000e+00, 0.00000000e+00, 0.00000000e+00, -1.01718710e+00, 1.40943011e+00, -4.29104423e-01, 4.39540674e+00, 0.00000000e+00, 5.0000000000, 5.0000000000, 0.0134594667
          11, 0.00000000e+00, 0.00000000e+00, 0.00000000e+00, 0.00000000e+00, 0.00000000e+00, 0.00000000e+00, 0.00000000e+00, 0.00000000e+00, 0.00000000e+00, 0.00000000e+00, 0.00000000e+00, 0.00000000e+00, -1.02502684e+00, 1.40009438e+00, -4.27932613e-01, 4.38689444e+00, 0.00000000e+00, 5.0000000000, 5.0000000000, 0.0146046333
          12, 0.00000000e+00, 0.00000000e+00, 0.00000000e+00, 0.00000000e+00, 0.00000000e+00, 0.00000000e+00, 0.00000000e+00, 0.00000000e+00, 0.00000000e+00, 0.00000000e+00, 0.00000000e+00, 0.00000000e+00, -1.03279762e+00, 1.39130857e+00, -4.35792605e-01, 4.37867637e+00, 0.00000000e+00, 5.0000000000, 5.0000000000, 0.0157141333
          13, 0.00000000e+00, 0.00000000e+00, 0.00000000e+00, 0.00000000e+00, 0.00000000e+00, 0.00000000e+00, 0.00000000e+00, 0.00000000e+00, 0.00000000e+00, 0.00000000e+00, 0.00000000e+00, 0.00000000e+00, -1.04040908e+00, 1.38303435e+00, -4.47945859e-01, 4.37074782e+00, 0.00000000e+00, 5.0000000000, 5.0000000000, 0.0168031167
          14, 0.00000000e+00, 0.00000000e+00, 0.00000000e+00, 0.00000000e+00, 0.00000000e+00, 0.00000000e+00, 0.00000000e+00, 0.00000000e+00, 0.00000000e+00, 0.00000000e+00, 0.00000000e+00, 0.00000000e+00, -1.04778016e+00, 1.37519764e+00, -4.60838209e-01, 4.36312460e+00, 0.00000000e+00, 5.0000000000, 5.0000000000, 0.0178607500
          15, 0.00000000e+00, 0.00000000e+00, 0.00000000e+00, 0.00000000e+00, 0.00000000e+00, 0.00000000e+00, 0.00000000e+00, 0.00000000e+00, 0.00000000e+00, 0.00000000e+00, 0.00000000e+00, 0.00000000e+00, -1.05486247e+00, 1.36773868e+00, -4.72539601e-01, 4.35582261e+00, 0.00000000e+00, 5.0000000000, 5.0000000000, 0.0189570667
          16, 0.00000000e+00, 0.00000000e+00, 0.00000000e+00, 0.00000000e+00, 0.00000000e+00, 0.00000000e+00, 0.00000000e+00, 0.00000000e+00, 0.00000000e+00, 0.00000000e+00, 0.00000000e+00, 0.00000000e+00, -1.06165029e+00, 1.36060819e+00, -4.82807257e-01, 4.34883449e+00, 0.00000000e+00, 5.0000000000, 5.0000000000, 0.0200548167
          17, 0.00000000e+00, 0.00000000e+00, 0.00000000e+00, 0.00000000e+00, 0.00000000e+00, 0.00000000e+00, 0.00000000e+00, 0.00000000e+00, 0.00000000e+00, 0.00000000e+00, 0.00000000e+00, 0.00000000e+00, -1.06815760e+00, 1.35377435e+00, -4.92025163e-01, 4.34214516e+00, 0.00000000e+00, 5.0000000000, 5.0000000000, 0.0211724500
          18, 0.00000000e+00, 0.00000000e+00, 0.00000000e+00, 0.00000000e+00, 0.00000000e+00, 0.00000000e+00, 0.00000000e+00, 0.00000000e+00, 0.00000000e+00, 0.00000000e+00, 0.00000000e+00, 0.00000000e+00, -1.07440833e+00, 1.34721198e+00, -5.00546294e-01, 4.33573257e+00, 0.00000000e+00, 5.0000000000, 5.0000000000, 0.0222590500
          19, 0.00000000e+00, 0.00000000e+00, 0.00000000e+00, 0.00000000e+00, 0.00000000e+00, 0.00000000e+00, 0.00000000e+00, 0.00000000e+00, 0.00000000e+00, 0.00000000e+00, 0.00000000e+00, 0.00000000e+00, -1.08042656e+00, 1.34089902e+00, -5.08590507e-01, 4.32957287e+00, 0.00000000e+00, 5.0000000000, 5.0000000000, 0.0233885500
          20, 0.00000000e+00, 0.00000000e+00, 0.00000000e+00, 0.00000000e+00, 0.00000000e+00, 0.00000000e+00, 0.00000000e+00, 0.00000000e+00, 0.00000000e+00, 0.00000000e+00, 0.00000000e+00, 0.00000000e+00, -1.08623045e+00, 1.33482019e+00, -5.16314314e-01, 4.32364711e+00, 0.00000000e+00, 5.0000000000, 5.0000000000, 0.0245122000
          21, 0.00000000e+00, 0.00000000e+00, 0.00000000e+00, 0.00000000e+00, 0.00000000e+00, 0.00000000e+00, 0.00000000e+00, 0.00000000e+00, 0.00000000e+00, 0.00000000e+00, 0.00000000e+00, 0.00000000e+00, -1.09183637e+00, 1.32896042e+00, -5.23803767e-01, 4.31793546e+00, 0.00000000e+00, 5.0000000000, 5.0000000000, 0.0256103500
          22, 0.00000000e+00, 0.00000000e+00, 0.00000000e+00, 0.00000000e+00, 0.00000000e+00, 0.00000000e+00, 0.00000000e+00, 0.00000000e+00, 0.00000000e+00, 0.00000000e+00, 0.00000000e+00, 0.00000000e+00, -1.09725740e+00, 1.32330900e+00, -5.31104127e-01, 4.31242094e+00, 0.00000000e+00, 5.0000000000, 5.0000000000, 0.0266799667
          23, 0.00000000e+00, 0.00000000e+00, 0.00000000e+00, 0.00000000e+00, 0.00000000e+00, 0.00000000e+00, 0.00000000e+00, 0.00000000e+00, 0.00000000e+00, 0.00000000e+00, 0.00000000e+00, 0.00000000e+00, -1.10250635e+00, 1.31785711e+00, -5.38263418e-01, 4.30708688e+00, 0.00000000e+00, 5.0000000000, 5.0000000000, 0.0277536167
          24, 0.00000000e+00, 0.00000000e+00, 0.00000000e+00, 0.00000000e+00, 0.00000000e+00, 0.00000000e+00, 0.00000000e+00, 0.00000000e+00, 0.00000000e+00, 0.00000000e+00, 0.00000000e+00, 0.00000000e+00, -1.10759554e+00, 1.31259708e+00, -5.45315684e-01, 4.30191798e+00, 0.00000000e+00, 5.0000000000, 5.0000000000, 0.0290016333
          25, 0.00000000e+00, 0.00000000e+00, 0.00000000e+00, 0.00000000e+00, 0.00000000e+00, 0.00000000e+00, 0.00000000e+00, 0.00000000e+00, 0.00000000e+00, 0.00000000e+00, 0.00000000e+00, 0.00000000e+00, -1.11253675e+00, 1.30752171e+00, -5.52325079e-01, 4.29690076e+00, 0.00000000e+00, 5.0000000000, 5.0000000000, 0.0302174000
          26, 0.00000000e+00, 0.00000000e+00, 0.00000000e+00, 0.00000000e+00, 0.00000000e+00, 0.00000000e+00, 0.00000000e+00, 0.00000000e+00, 0.00000000e+00, 0.00000000e+00, 0.00000000e+00, 0.00000000e+00, -1.11734099e+00, 1.30262231e+00, -5.59356792e-01, 4.29202348e+00, 0.00000000e+00, 5.0000000000, 5.0000000000, 0.0313971333
          27, 0.00000000e+00, 0.00000000e+00, 0.00000000e+00, 0.00000000e+00, 0.00000000e+00, 0.00000000e+00, 0.00000000e+00, 0.00000000e+00, 0.00000000e+00, 0.00000000e+00, 0.00000000e+00, 0.00000000e+00, -1.12201755e+00, 1.29788889e+00, -5.66510261e-01, 4.28727712e+00, 0.00000000e+00, 5.0000000000, 5.0000000000, 0.0325428667
          28, 0.00000000e+00, 0.00000000e+00, 0.00000000e+00, 0.00000000e+00, 0.00000000e+00, 0.00000000e+00, 0.00000000e+00, 0.00000000e+00, 0.00000000e+00, 0.00000000e+00, 0.00000000e+00, 0.00000000e+00, -1.12657394e+00, 1.29330992e+00, -5.73894269e-01, 4.28265505e+00, 0.00000000e+00, 5.0000000000, 5.0000000000, 0.0336345167
          29, 0.00000000e+00, 0.00000000e+00, 0.00000000e+00, 0.00000000e+00, 0.00000000e+00, 0.00000000e+00, 0.00000000e+00, 0.00000000e+00, 0.00000000e+00, 0.00000000e+00, 0.00000000e+00, 0.00000000e+00, -1.13101617e+00, 1.28887257e+00, -5.81609160e-01, 4.27815206e+00, 0.00000000e+00, 5.0000000000, 5.0000000000, 0.0347139667
          30, 0.00000000e+00, 0.00000000e+00, 0.00000000e+00, 0.00000000e+00, 0.00000000e+00, 0.00000000e+00, 0.00000000e+00, 0.00000000e+00, 0.00000000e+00, 0.00000000e+00, 0.00000000e+00, 0.00000000e+00, -1.13534884e+00, 1.28456461e+00, -5.89734304e-01, 4.27376433e+00, 0.00000000e+00, 5.0000000000, 5.0000000000, 0.0358884000
          31, 0.00000000e+00, 0.00000000e+00, 0.00000000e+00, 0.00000000e+00, 0.00000000e+00, 0.00000000e+00, 0.00000000e+00, 0.00000000e+00, 0.00000000e+00, 0.00000000e+00, 0.00000000e+00, 0.00000000e+00, -1.13957630e+00, 1.28037513e+00, -5.98272458e-01, 4.26948775e+00, 0.00000000e+00, 5.0000000000, 5.0000000000, 0.0370443500
          32, 0.00000000e+00, 0.00000000e+00, 0.00000000e+00, 0.00000000e+00, 0.00000000e+00, 0.00000000e+00, 0.00000000e+00, 0.00000000e+00, 0.00000000e+00, 0.00000000e+00, 0.00000000e+00, 0.00000000e+00, -1.14370309e+00, 1.27629677e+00, -6.07140750e-01, 4.26531736e+00, 0.00000000e+00, 5.0000000000, 5.0000000000, 0.0381656667
          33, 0.00000000e+00, 0.00000000e+00, 0.00000000e+00, 0.00000000e+00, 0.00000000e+00, 0.00000000e+00, 0.00000000e+00, 0.00000000e+00, 0.00000000e+00, 0.00000000e+00, 0.00000000e+00, 0.00000000e+00, -1.14773485e+00, 1.27232774e+00, -6.16130825e-01, 4.26124629e+00, 0.00000000e+00, 5.0000000000, 5.0000000000, 0.0393009000
          34, 0.00000000e+00, 0.00000000e+00, 0.00000000e+00, 0.00000000e+00, 0.00000000e+00, 0.00000000e+00, 0.00000000e+00, 0.00000000e+00, 0.00000000e+00, 0.00000000e+00, 0.00000000e+00, 0.00000000e+00, -1.15167927e+00, 1.26847431e+00, -6.24920012e-01, 4.25726442e+00, 0.00000000e+00, 5.0000000000, 5.0000000000, 0.0404201000
          35, 0.00000000e+00, 0.00000000e+00, 0.00000000e+00, 0.00000000e+00, 0.00000000e+00, 0.00000000e+00, 0.00000000e+00, 0.00000000e+00, 0.00000000e+00, 0.00000000e+00, 0.00000000e+00, 0.00000000e+00, -1.15554651e+00, 1.26475492e+00, -6.33093137e-01, 4.25335757e+00, 0.00000000e+00, 5.0000000000, 5.0000000000, 0.0415272167
          36, 0.00000000e+00, 0.00000000e+00, 0.00000000e+00, 0.00000000e+00, 0.00000000e+00, 0.00000000e+00, 0.00000000e+00, 0.00000000e+00, 0.00000000e+00, 0.00000000e+00, 0.00000000e+00, 0.00000000e+00, -1.15935009e+00, 1.26120472e+00, -6.40213350e-01, 4.24950590e+00, 0.00000000e+00, 5.0000000000, 5.0000000000, 0.0426461833
          37, 0.00000000e+00, 0.00000000e+00, 0.00000000e+00, 0.00000000e+00, 0.00000000e+00, 0.00000000e+00, 0.00000000e+00, 0.00000000e+00, 0.00000000e+00, 0.00000000e+00, 0.00000000e+00, 0.00000000e+00, -1.16310715e+00, 1.25788198e+00, -6.45901403e-01, 4.24568278e+00, 0.00000000e+00, 5.0000000000, 5.0000000000, 0.0437419000
          38, 0.00000000e+00, 0.00000000e+00, 0.00000000e+00, 0.00000000e+00, 0.00000000e+00, 0.00000000e+00, 0.00000000e+00, 0.00000000e+00, 0.00000000e+00, 0.00000000e+00, 0.00000000e+00, 0.00000000e+00, -1.16683816e+00, 1.25487523e+00, -6.49933414e-01, 4.24185385e+00, 0.00000000e+00, 5.0000000000, 5.0000000000, 0.0448400667
          39, 0.00000000e+00, 0.00000000e+00, 0.00000000e+00, 0.00000000e+00, 0.00000000e+00, 0.00000000e+00, 0.00000000e+00, 0.00000000e+00, 0.00000000e+00, 0.00000000e+00, 0.00000000e+00, 0.00000000e+00, -1.17056578e+00, 1.25231035e+00, -6.52285636e-01, 4.23797700e+00, 0.00000000e+00, 5.0000000000, 5.0000000000, 0.0459815833
          40, 0.00000000e+00, 0.00000000e+00, 0.00000000e+00, 0.00000000e+00, 0.00000000e+00, 0.00000000e+00, 0.00000000e+00, 0.00000000e+00, 0.00000000e+00, 0.00000000e+00, 0.00000000e+00, 0.00000000e+00, -1.17431186e+00, 1.25035625e+00, -6.53138865e-01, 4.23400410e+00, 0.00000000e+00, 5.0000000000, 5.0000000000, 0.0470955833
          41, 0.00000000e+00, 0.00000000e+00, 0.00000000e+00, 0.00000000e+00, 0.00000000e+00, 0.00000000e+00, 0.00000000e+00, 0.00000000e+00, 0.00000000e+00, 0.00000000e+00, 0.00000000e+00, 0.00000000e+00, -1.17809276e+00, 1.24922609e+00, -6.52809480e-01, 4.22988497e+00, 0.00000000e+00, 5.0000000000, 5.0000000000, 0.0482076667
          42, 0.00000000e+00, 0.00000000e+00, 0.00000000e+00, 0.00000000e+00, 0.00000000e+00, 0.00000000e+00, 0.00000000e+00, 0.00000000e+00, 0.00000000e+00, 0.00000000e+00, 0.00000000e+00, 0.00000000e+00, -1.18191283e+00, 1.24917128e+00, -6.51649147e-01, 4.22557387e+00, 0.00000000e+00, 5.0000000000, 5.0000000000, 0.0493720500
          43, 0.00000000e+00, 0.00000000e+00, 0.00000000e+00, 0.00000000e+00, 0.00000000e+00, 0.00000000e+00, 0.00000000e+00, 0.00000000e+00, 0.00000000e+00, 0.00000000e+00, 0.00000000e+00, 0.00000000e+00, -1.18575727e+00, 1.25046525e+00, -6.49942896e-01, 4.22103820e+00, 0.00000000e+00, 5.0000000000, 5.0000000000, 0.0505350000
          44, 0.00000000e+00, 0.00000000e+00, 0.00000000e+00, 0.00000000e+00, 0.00000000e+00, 0.00000000e+00, 0.00000000e+00, 0.00000000e+00, 0.00000000e+00, 0.00000000e+00, 0.00000000e+00, 0.00000000e+00, -1.18958705e+00, 1.25337488e+00, -6.47818878e-01, 4.21626709e+00, 0.00000000e+00, 5.0000000000, 5.0000000000, 0.0516480833
          45, 0.00000000e+00, 0.00000000e+00, 0.00000000e+00, 0.00000000e+00, 0.00000000e+00, 0.00000000e+00, 0.00000000e+00, 0.00000000e+00, 0.00000000e+00, 0.00000000e+00, 0.00000000e+00, 0.00000000e+00, -1.19333979e+00, 1.25812089e+00, -6.45206426e-01, 4.21127696e+00, 0.00000000e+00, 5.0000000000, 5.0000000000, 0.0527691000
          46, 0.00000000e+00, 0.00000000e+00, 0.00000000e+00, 0.00000000e+00, 0.00000000e+00, 0.00000000e+00, 0.00000000e+00, 0.00000000e+00, 0.00000000e+00, 0.00000000e+00, 0.00000000e+00, 0.00000000e+00, -1.19694079e+00, 1.26483244e+00, -6.41844878e-01, 4.20610932e+00, 0.00000000e+00, 5.0000000000, 5.0000000000, 0.0539450333
          47, 0.00000000e+00, 0.00000000e+00, 0.00000000e+00, 0.00000000e+00, 0.00000000e+00, 0.00000000e+00, 0.00000000e+00, 0.00000000e+00, 0.00000000e+00, 0.00000000e+00, 0.00000000e+00, 0.00000000e+00, -1.20032676e+00, 1.27350527e+00, -6.37370416e-01, 4.20081738e+00, 0.00000000e+00, 5.0000000000, 5.0000000000, 0.0551039333
          48, 0.00000000e+00, 0.00000000e+00, 0.00000000e+00, 0.00000000e+00, 0.00000000e+00, 0.00000000e+00, 0.00000000e+00, 0.00000000e+00, 0.00000000e+00, 0.00000000e+00, 0.00000000e+00, 0.00000000e+00, -1.20348047e+00, 1.28397579e+00, -6.31451998e-01, 4.19543948e+00, 0.00000000e+00, 5.0000000000, 5.0000000000, 0.0562362833
          49, 0.00000000e+00, 0.00000000e+00, 0.00000000e+00, 0.00000000e+00, 0.00000000e+00, 0.00000000e+00, 0.00000000e+00, 0.00000000e+00, 0.00000000e+00, 0.00000000e+00, 0.00000000e+00, 0.00000000e+00, -1.20646605e+00, 1.29592144e+00, -6.23943747e-01, 4.18996563e+00, 0.00000000e+00, 5.0000000000, 5.0000000000, 0.0573410500
          50, 0.00000000e+00, 0.00000000e+00, 0.00000000e+00, 0.00000000e+00, 0.00000000e+00, 0.00000000e+00, 0.00000000e+00, 0.00000000e+00, 0.00000000e+00, 0.00000000e+00, 0.00000000e+00, 0.00000000e+00, -1.20944978e+00, 1.30889118e+00, -6.14976266e-01, 4.18430945e+00, 0.00000000e+00, 5.0000000000, 5.0000000000, 0.0584448500
          51, 0.00000000e+00, 0.00000000e+00, 0.00000000e+00, 0.00000000e+00, 0.00000000e+00, 0.00000000e+00, 0.00000000e+00, 0.00000000e+00, 0.00000000e+00, 0.00000000e+00, 0.00000000e+00, 0.00000000e+00, -1.21269156e+00, 1.32236109e+00, -6.04941099e-01, 4.17830134e+00, 0.00000000e+00, 5.0000000000, 5.0000000000, 0.0595934667
          52, 0.00000000e+00, 0.00000000e+00, 0.00000000e+00, 0.00000000e+00, 0.00000000e+00, 0.00000000e+00, 0.00000000e+00, 0.00000000e+00, 0.00000000e+00, 0.00000000e+00, 0.00000000e+00, 0.00000000e+00, -1.21650235e+00, 1.33580152e+00, -5.94374127e-01, 4.17171402e+00, 0.00000000e+00, 5.0000000000, 5.0000000000, 0.0607293167
          53, 0.00000000e+00, 0.00000000e+00, 0.00000000e+00, 0.00000000e+00, 0.00000000e+00, 0.00000000e+00, 0.00000000e+00, 0.00000000e+00, 0.00000000e+00, 0.00000000e+00, 0.00000000e+00, 0.00000000e+00, -1.22117740e+00, 1.34873916e+00, -5.83799777e-01, 4.16431867e+00, 0.00000000e+00, 5.0000000000, 5.0000000000, 0.0618639500
          54, 0.00000000e+00, 0.00000000e+00, 0.00000000e+00, 0.00000000e+00, 0.00000000e+00, 0.00000000e+00, 0.00000000e+00, 0.00000000e+00, 0.00000000e+00, 0.00000000e+00, 0.00000000e+00, 0.00000000e+00, -1.22692606e+00, 1.36080016e+00, -5.73605283e-01, 4.15595606e+00, 0.00000000e+00, 5.0000000000, 5.0000000000, 0.0629684000
          55, 0.00000000e+00, 0.00000000e+00, 0.00000000e+00, 0.00000000e+00, 0.00000000e+00, 0.00000000e+00, 0.00000000e+00, 0.00000000e+00, 0.00000000e+00, 0.00000000e+00, 0.00000000e+00, 0.00000000e+00, -1.23381846e+00, 1.37172746e+00, -5.64019822e-01, 4.14660167e+00, 0.00000000e+00, 5.0000000000, 5.0000000000, 0.0640743167
          56, 0.00000000e+00, 0.00000000e+00, 0.00000000e+00, 0.00000000e+00, 0.00000000e+00, 0.00000000e+00, 0.00000000e+00, 0.00000000e+00, 0.00000000e+00, 0.00000000e+00, 0.00000000e+00, 0.00000000e+00, -1.24176138e+00, 1.38137375e+00, -5.55149391e-01, 4.13640613e+00, 0.00000000e+00, 5.0000000000, 5.0000000000, 0.0651626167
          57, 0.00000000e+00, 0.00000000e+00, 0.00000000e+00, 0.00000000e+00, 0.00000000e+00, 0.00000000e+00, 0.00000000e+00, 0.00000000e+00, 0.00000000e+00, 0.00000000e+00, 0.00000000e+00, 0.00000000e+00, -1.25050199e+00, 1.38967810e+00, -5.47061215e-01, 4.12570574e+00, 0.00000000e+00, 5.0000000000, 5.0000000000, 0.0662465833
          58, 0.00000000e+00, 0.00000000e+00, 0.00000000e+00, 0.00000000e+00, 0.00000000e+00, 0.00000000e+00, 0.00000000e+00, 0.00000000e+00, 0.00000000e+00, 0.00000000e+00, 0.00000000e+00, 0.00000000e+00, -1.25964847e+00, 1.39663726e+00, -5.39863701e-01, 4.11501147e+00, 0.00000000e+00, 5.0000000000, 5.0000000000, 0.0673888333
          59, 0.00000000e+00, 0.00000000e+00, 0.00000000e+00, 0.00000000e+00, 0.00000000e+00, 0.00000000e+00, 0.00000000e+00, 0.00000000e+00, 0.00000000e+00, 0.00000000e+00, 0.00000000e+00, 0.00000000e+00, -1.26870736e+00, 1.40227815e+00, -5.33761422e-01, 4.10496554e+00, 0.00000000e+00, 5.0000000000, 5.0000000000, 0.0684800167
          60, 0.00000000e+00, 0.00000000e+00, 0.00000000e+00, 0.00000000e+00, 0.00000000e+00, 0.00000000e+00, 0.00000000e+00, 0.00000000e+00, 0.00000000e+00, 0.00000000e+00, 0.00000000e+00, 0.00000000e+00, -1.27712026e+00, 1.40663830e+00, -5.29048692e-01, 4.09628804e+00, 0.00000000e+00, 5.0000000000, 5.0000000000, 0.0695762833
          61, 0.00000000e+00, 0.00000000e+00, 0.00000000e+00, 0.00000000e+00, 0.00000000e+00, 0.00000000e+00, 0.00000000e+00, 0.00000000e+00, 0.00000000e+00, 0.00000000e+00, 0.00000000e+00, 0.00000000e+00, -1.28430301e+00, 1.40975253e+00, -5.26009807e-01, 4.08971592e+00, 0.00000000e+00, 5.0000000000, 5.0000000000, 0.0706802167
          62, 0.00000000e+00, 0.00000000e+00, 0.00000000e+00, 0.00000000e+00, 0.00000000e+00, 0.00000000e+00, 0.00000000e+00, 0.00000000e+00, 0.00000000e+00, 0.00000000e+00, 0.00000000e+00, 0.00000000e+00, -1.28969197e+00, 1.41164734e+00, -5.24896156e-01, 4.08592356e+00, 0.00000000e+00, 5.0000000000, 5.0000000000, 0.0718332667
          63, 0.00000000e+00, 0.00000000e+00, 0.00000000e+00, 0.00000000e+00, 0.00000000e+00, 0.00000000e+00, 0.00000000e+00, 0.00000000e+00, 0.00000000e+00, 0.00000000e+00, 0.00000000e+00, 0.00000000e+00, -1.29279599e+00, 1.41233781e+00, -5.25864990e-01, 4.08543491e+00, 0.00000000e+00, 5.0000000000, 5.0000000000, 0.0729551500
          64, 0.00000000e+00, 0.00000000e+00, 0.00000000e+00, 0.00000000e+00, 0.00000000e+00, 0.00000000e+00, 0.00000000e+00, 0.00000000e+00, 0.00000000e+00, 0.00000000e+00, 0.00000000e+00, 0.00000000e+00, -1.29324573e+00, 1.41182695e+00, -5.28997761e-01, 4.08855322e+00, 0.00000000e+00, 5.0000000000, 5.0000000000, 0.0740426667
          65, 0.00000000e+00, 0.00000000e+00, 0.00000000e+00, 0.00000000e+00, 0.00000000e+00, 0.00000000e+00, 0.00000000e+00, 0.00000000e+00, 0.00000000e+00, 0.00000000e+00, 0.00000000e+00, 0.00000000e+00, -1.29083419e+00, 1.41010555e+00, -5.34309014e-01, 4.09531845e+00, 0.00000000e+00, 5.0000000000, 5.0000000000, 0.0751398500
          66, 0.00000000e+00, 0.00000000e+00, 0.00000000e+00, 0.00000000e+00, 0.00000000e+00, 0.00000000e+00, 0.00000000e+00, 0.00000000e+00, 0.00000000e+00, 0.00000000e+00, 0.00000000e+00, 0.00000000e+00, -1.28553793e+00, 1.40715319e+00, -5.41782219e-01, 4.10551276e+00, 0.00000000e+00, 5.0000000000, 5.0000000000, 0.0762612000
          67, 0.00000000e+00, 0.00000000e+00, 0.00000000e+00, 0.00000000e+00, 0.00000000e+00, 0.00000000e+00, 0.00000000e+00, 0.00000000e+00, 0.00000000e+00, 0.00000000e+00, 0.00000000e+00, 0.00000000e+00, -1.27751290e+00, 1.40293992e+00, -5.51391129e-01, 4.11870748e+00, 0.00000000e+00, 5.0000000000, 5.0000000000, 0.0773694500
          68, 0.00000000e+00, 0.00000000e+00, 0.00000000e+00, 0.00000000e+00, 0.00000000e+00, 0.00000000e+00, 0.00000000e+00, 0.00000000e+00, 0.00000000e+00, 0.00000000e+00, 0.00000000e+00, 0.00000000e+00, -1.26706987e+00, 1.39742914e+00, -5.63146454e-01, 4.13433454e+00, 0.00000000e+00, 5.0000000000, 5.0000000000, 0.0785130667
          69, 0.00000000e+00, 0.00000000e+00, 0.00000000e+00, 0.00000000e+00, 0.00000000e+00, 0.00000000e+00, 0.00000000e+00, 0.00000000e+00, 0.00000000e+00, 0.00000000e+00, 0.00000000e+00, 0.00000000e+00, -1.25463075e+00, 1.39058200e+00, -5.77086091e-01, 4.15176433e+00, 0.00000000e+00, 5.0000000000, 5.0000000000, 0.0796264167
          70, 0.00000000e+00, 0.00000000e+00, 0.00000000e+00, 0.00000000e+00, 0.00000000e+00, 0.00000000e+00, 0.00000000e+00, 0.00000000e+00, 0.00000000e+00, 0.00000000e+00, 0.00000000e+00, 0.00000000e+00, -1.24068137e+00, 1.38236254e+00, -5.93293997e-01, 4.17036876e+00, 0.00000000e+00, 5.0000000000, 5.0000000000, 0.0807152167
          71, 0.00000000e+00, 0.00000000e+00, 0.00000000e+00, 0.00000000e+00, 0.00000000e+00, 0.00000000e+00, 0.00000000e+00, 0.00000000e+00, 0.00000000e+00, 0.00000000e+00, 0.00000000e+00, 0.00000000e+00, -1.22572399e+00, 1.37274490e+00, -6.11844431e-01, 4.18956830e+00, 0.00000000e+00, 5.0000000000, 5.0000000000, 0.0818330000
          72, 0.00000000e+00, 0.00000000e+00, 0.00000000e+00, 0.00000000e+00, 0.00000000e+00, 0.00000000e+00, 0.00000000e+00, 0.00000000e+00, 0.00000000e+00, 0.00000000e+00, 0.00000000e+00, 0.00000000e+00, -1.21024004e+00, 1.36172015e+00, -6.32805012e-01, 4.20885695e+00, 0.00000000e+00, 5.0000000000, 5.0000000000, 0.0829549333
          73, 0.00000000e+00, 0.00000000e+00, 0.00000000e+00, 0.00000000e+00, 0.00000000e+00, 0.00000000e+00, 0.00000000e+00, 0.00000000e+00, 0.00000000e+00, 0.00000000e+00, 0.00000000e+00, 0.00000000e+00, -1.19466272e+00, 1.34930500e+00, -6.56095508e-01, 4.22781446e+00, 0.00000000e+00, 5.0000000000, 5.0000000000, 0.0840635500
          74, 0.00000000e+00, 0.00000000e+00, 0.00000000e+00, 0.00000000e+00, 0.00000000e+00, 0.00000000e+00, 0.00000000e+00, 0.00000000e+00, 0.00000000e+00, 0.00000000e+00, 0.00000000e+00, 0.00000000e+00, -1.17935935e+00, 1.33554835e+00, -6.81451742e-01, 4.24610820e+00, 0.00000000e+00, 5.0000000000, 5.0000000000, 0.0852134667
          75, 0.00000000e+00, 0.00000000e+00, 0.00000000e+00, 0.00000000e+00, 0.00000000e+00, 0.00000000e+00, 0.00000000e+00, 0.00000000e+00, 0.00000000e+00, 0.00000000e+00, 0.00000000e+00, 0.00000000e+00, -1.16462378e+00, 1.32053871e+00, -7.08176876e-01, 4.26348923e+00, 0.00000000e+00, 5.0000000000, 5.0000000000, 0.0863652833
          76, 0.00000000e+00, 0.00000000e+00, 0.00000000e+00, 0.00000000e+00, 0.00000000e+00, 0.00000000e+00, 0.00000000e+00, 0.00000000e+00, 0.00000000e+00, 0.00000000e+00, 0.00000000e+00, 0.00000000e+00, -1.15067281e+00, 1.30440736e+00, -7.35026442e-01, 4.27978698e+00, 0.00000000e+00, 5.0000000000, 5.0000000000, 0.0875340167
          77, 0.00000000e+00, 0.00000000e+00, 0.00000000e+00, 0.00000000e+00, 0.00000000e+00, 0.00000000e+00, 0.00000000e+00, 0.00000000e+00, 0.00000000e+00, 0.00000000e+00, 0.00000000e+00, 0.00000000e+00, -1.13764967e+00, 1.28732975e+00, -7.59938520e-01, 4.29490106e+00, 0.00000000e+00, 5.0000000000, 5.0000000000, 0.0886643333
          78, 0.00000000e+00, 0.00000000e+00, 0.00000000e+00, 0.00000000e+00, 0.00000000e+00, 0.00000000e+00, 0.00000000e+00, 0.00000000e+00, 0.00000000e+00, 0.00000000e+00, 0.00000000e+00, 0.00000000e+00, -1.12562798e+00, 1.26952144e+00, -7.80121564e-01, 4.30879457e+00, 0.00000000e+00, 5.0000000000, 5.0000000000, 0.0897969167
          79, 0.00000000e+00, 0.00000000e+00, 0.00000000e+00, 0.00000000e+00, 0.00000000e+00, 0.00000000e+00, 0.00000000e+00, 0.00000000e+00, 0.00000000e+00, 0.00000000e+00, 0.00000000e+00, 0.00000000e+00, -1.11462025e+00, 1.25122764e+00, -7.92426390e-01, 4.32148486e+00, 0.00000000e+00, 5.0000000000, 5.0000000000, 0.0909255500
          80, 0.00000000e+00, 0.00000000e+00, 0.00000000e+00, 0.00000000e+00, 0.00000000e+00, 0.00000000e+00, 0.00000000e+00, 0.00000000e+00, 0.00000000e+00, 0.00000000e+00, 0.00000000e+00, 0.00000000e+00, -1.10458660e+00, 1.23270899e+00, -7.94431733e-01, 4.33303539e+00, 0.00000000e+00, 5.0000000000, 5.0000000000, 0.0920327500
          81, 0.00000000e+00, 0.00000000e+00, 0.00000000e+00, 0.00000000e+00, 0.00000000e+00, 0.00000000e+00, 0.00000000e+00, 0.00000000e+00, 0.00000000e+00, 0.00000000e+00, 0.00000000e+00, 0.00000000e+00, -1.09544618e+00, 1.21421729e+00, -7.85522221e-01, 4.34354512e+00, 0.00000000e+00, 5.0000000000, 5.0000000000, 0.0931681167
          82, 0.00000000e+00, 0.00000000e+00, 0.00000000e+00, 0.00000000e+00, 0.00000000e+00, 0.00000000e+00, 0.00000000e+00, 0.00000000e+00, 0.00000000e+00, 0.00000000e+00, 0.00000000e+00, 0.00000000e+00, -1.08708989e+00, 1.19597299e+00, -7.67288612e-01, 4.35313760e+00, 0.00000000e+00, 5.0000000000, 5.0000000000, 0.0942838667
          83, 0.00000000e+00, 0.00000000e+00, 0.00000000e+00, 0.00000000e+00, 0.00000000e+00, 0.00000000e+00, 0.00000000e+00, 0.00000000e+00, 0.00000000e+00, 0.00000000e+00, 0.00000000e+00, 0.00000000e+00, -1.07939426e+00, 1.17813526e+00, -7.42795213e-01, 4.36194817e+00, 0.00000000e+00, 5.0000000000, 5.0000000000, 0.0954821667
          84, 0.00000000e+00, 0.00000000e+00, 0.00000000e+00, 0.00000000e+00, 0.00000000e+00, 0.00000000e+00, 0.00000000e+00, 0.00000000e+00, 0.00000000e+00, 0.00000000e+00, 0.00000000e+00, 0.00000000e+00, -1.07223672e+00, 1.16078142e+00, -7.15377914e-01, 4.37011048e+00, 0.00000000e+00, 5.0000000000, 5.0000000000, 0.0966371667
          85, 0.00000000e+00, 0.00000000e+00, 0.00000000e+00, 0.00000000e+00, 0.00000000e+00, 0.00000000e+00, 0.00000000e+00, 0.00000000e+00, 0.00000000e+00, 0.00000000e+00, 0.00000000e+00, 0.00000000e+00, -1.06550971e+00, 1.14388814e+00, -6.87877137e-01, 4.37774306e+00, 0.00000000e+00, 5.0000000000, 5.0000000000, 0.0977809333
          86, 0.00000000e+00, 0.00000000e+00, 0.00000000e+00, 0.00000000e+00, 0.00000000e+00, 0.00000000e+00, 0.00000000e+00, 0.00000000e+00, 0.00000000e+00, 0.00000000e+00, 0.00000000e+00, 0.00000000e+00, -1.05913381e+00, 1.12732710e+00, -6.62322197e-01, 4.38493698e+00, 0.00000000e+00, 5.0000000000, 5.0000000000, 0.0989694500
          87, 0.00000000e+00, 0.00000000e+00, 0.00000000e+00, 0.00000000e+00, 0.00000000e+00, 0.00000000e+00, 0.00000000e+00, 0.00000000e+00, 0.00000000e+00, 0.00000000e+00, 0.00000000e+00, 0.00000000e+00, -1.05306619e+00, 1.11087002e+00, -6.40074219e-01, 4.39174701e+00, 0.00000000e+00, 5.0000000000, 5.0000000000, 0.1001484833
          88, 0.00000000e+00, 0.00000000e+00, 0.00000000e+00, 0.00000000e+00, 0.00000000e+00, 0.00000000e+00, 0.00000000e+00, 0.00000000e+00, 0.00000000e+00, 0.00000000e+00, 0.00000000e+00, 0.00000000e+00, -1.04730482e+00, 1.09420745e+00, -6.21964750e-01, 4.39818705e+00, 0.00000000e+00, 5.0000000000, 5.0000000000, 0.1013150000
          89, 0.00000000e+00, 0.00000000e+00, 0.00000000e+00, 0.00000000e+00, 0.00000000e+00, 0.00000000e+00, 0.00000000e+00, 0.00000000e+00, 0.00000000e+00, 0.00000000e+00, 0.00000000e+00, 0.00000000e+00, -1.04188572e+00, 1.07697826e+00, -6.08492280e-01, 4.40423151e+00, 0.00000000e+00, 5.0000000000, 5.0000000000, 0.1024343000