TITLE = "Visualization of the volumetric solution"
VARIABLES = "x","y","Density","Momentum_x","Momentum_y","Energy","Pressure","Temperature","Mach","C<sub>p</sub>","Roe_Dissipation"
ZONE NODES= 3200, ELEMENTS= 3081, DATAPACKING=POINT, ZONETYPE=FEQUADRILATERAL
-2.000000e+00	1.250000e+00	1.225086e+00	4.169676e+01	-9.603273e-12	2.540212e+05	1.013246e+05	2.881235e+02	1.000224e-01	-5.179183e-04	0.000000e+00	
-2.000000e+00	1.218354e+00	1.225086e+00	4.169676e+01	-6.629390e-10	2.540212e+05	1.013246e+05	2.881235e+02	1.000224e-01	-5.179184e-04	0.000000e+00	
-1.948718e+00	1.218354e+00	1.225086e+00	4.169676e+01	-1.103036e-09	2.540212e+05	1.013246e+05	2.881235e+02	1.000224e-01	-5.179195e-04	0.000000e+00	
-1.948718e+00	1.250000e+00	1.225086e+00	4.169676e+01	-1.690694e-10	2.540212e+05	1.013246e+05	2.881235e+02	1.000224e-01	-5.179194e-04	0.000000e+00	
-2.000000e+00	1.186709e+00	1.225086e+00	4.169676e+01	-6.430541e-10	2.540212e+05	1.013246e+05	2.881235e+02	1.000224e-01	-5.179185e-04	0.000000e+00	
-1.948718e+00	1.186709e+00	1.225086e+00	4.169676e+01	-1.279230e-09	2.540212e+05	1.013246e+05	2.881235e+02	1.000224e-01	-5.179195e-04	0.000000e+00	
-2.000000e+00	1.155063e+00	1.225086e+00	4.169676e+01	-3.975029e-10	2.540212e+05	1.013246e+05	2.881235e+02	1.000224e-01	-5.179185e-04	0.000000e+00	
-1.948718e+00	1.155063e+00	1.225086e+00	4.169676e+01	-1.145257e-09	2.540212e+05	1.013246e+05	2.881235e+02	1.000224e-01	-5.179195e-04	0.000000e+00	
-2.000000e+00	1.123418e+00	1.225086e+00	4.169676e+01	-1.624789e-10	2.540212e+05	1.013246e+05	2.881235e+02	1.000224e-01	-5.179185e-04	0.000000e+00	
-1.948718e+00	1.123418e+00	1.225086e+00	4.169676e+01	-8.764177e-10	2.540212e+05	1.013246e+05	2.881235e+02	1.000224e-01	-5.179195e-04	0.000000e+00	
-2.000000e+00	1.091772e+00	1.225086e+00	4.169676e+01	-4.070069e-11	2.540212e+05	1.013246e+05	2.881235e+02	1.000224e-01	-5.179186e-04	0.000000e+00	
-1.948718e+00	1.091772e+00	1.225086e+00	4.169676e+01	-6.881249e-10	2.540212e+05	1.013246e+05	2.881235e+02	1.000224e-01	-5.179195e-04	0.000000e+00	
-2.000000e+00	1.060127e+00	1.225086e+00	4.169676e+01	-2.714151e-12	2.540212e+05	1.013246e+05	2.881235e+02	1.000224e-01	-5.179186e-04	0.000000e+00	
-1.948718e+00	1.060127e+00	1.225086e+00	4.169676e+01	-5.793834e-10	2.540212e+05	1.013246e+05	2.881235e+02	1.000224e-01	-5.179196e-04	0.000000e+00	
-2.000000e+00	1.028481e+00	1.225086e+00	4.169676e+01	-2.675406e-12	2.540212e+05	1.013246e+05	2.881235e+02	1.000224e-01	-5.179186e-04	0.000000e+00	
-1.948718e+00	1.028481e+00	1.225086e+00	4.169676e+01	-5.292059e-10	2.540212e+05	1.013246e+05	2.881235e+02	1.000224e-01	-5.179196e-04	0.000000e+00	
-2.000000e+00	9.968354e-01	1.225086e+00	4.169676e+01	-7.144844e-12	2.540212e+05	1.013246e+05	2.881235e+02	1.000224e-01	-5.179186e-04	0.000000e+00	
-1.948718e+00	9.968354e-01	1.225086e+00	4.169676e+01	-4.942770e-10	2.540212e+05	1.013246e+05	2.881235e+02	1.000224e-01	-5.179196e-04	0.000000e+00	
-2.000000e+00	9.651899e-01	1.225086e+00	4.169676e+01	-7.797882e-12	2.540212e+05	1.013246e+05	2.881235e+02	1.000224e-01	-5.179186e-04	0.000000e+00	
-1.948718e+00	9.651899e-01	1.225086e+00	4.169676e+01	-4.613802e-10	2.540212e+05	1.013246e+05	2.881235e+02	1.000224e-01	-5.179196e-04	0.000000e+00	
-2.000000e+00	9.335443e-01	1.225086e+00	4.169676e+01	-4.980121e-12	2.540212e+05	1.013246e+05	2.881235e+02	1.000224e-01	-5.179186e-04	0.000000e+00	
-1.948718e+00	9.335443e-01	1.225086e+00	4.169676e+01	-4.254555e-10	2.540212e+05	1.013246e+05	2.881235e+02	1.000224e-01	-5.179196e-04	0.000000e+00	
-2.000000e+00	9.018987e-01	1.225086e+00	4.169676e+01	-2.382511e-12	2.540212e+05	1.013246e+05	2.881235e+02	1.000224e-01	-5.179187e-04	0.000000e+00	
-1.948718e+00	9.018987e-01	1.225086e+00	4.169676e+01	-3.905758e-10	2.540212e+05	1.013246e+05	2.881235e+02	1.000224e-01	-5.179196e-04	0.000000e+00	
-2.000000e+00	8.702532e-01	1.225086e+00	4.169676e+01	-1.283932e-12	2.540212e+05	1.013246e+05	2.881235e+02	1.000224e-01	-5.179187e-04	0.000000e+00	
-1.948718e+00	8.702532e-01	1.225086e+00	4.169676e+01	-3.579486e-10	2.540212e+05	1.013246e+05	2.881235e+02	1.000224e-01	-5.179196e-04	0.000000e+00	
-2.000000e+00	8.386076e-01	1.225086e+00	4.169676e+01	-1.529365e-12	2.540212e+05	1.013246e+05	2.881235e+02	1.000224e-01	-5.179187e-04	0.000000e+00	
-1.948718e+00	8.386076e-01	1.225086e+00	4.169676e+01	-3.284645e-10	2.540212e+05	1.013246e+05	2.881235e+02	1.000224e-01	-5.179197e-04	0.000000e+00	
-2.000000e+00	8.069620e-01	1.225086e+00	4.169676e+01	-2.314100e-12	2.540212e+05	1.013246e+05	2.881235e+02	1.000224e-01	-5.179187e-04	0.000000e+00	
-1.948718e+00	8.069620e-01	1.225086e+00	4.169676e+01	-3.011360e-10	2.540212e+05	1.013246e+05	2.881235e+02	1.000224e-01	-5.179197e-04	0.000000e+00	
-2.000000e+00	7.753165e-01	1.225086e+00	4.169676e+01	-2.884892e-12	2.540212e+05	1.013246e+05	2.881235e+02	1.000224e-01	-5.179187e-04	0.000000e+00	
-1.948718e+00	7.753165e-01	1.225086e+00	4.169676e+01	-2.750614e-10	2.540212e+05	1.013246e+05	2.881235e+02	1.000224e-01	-5.179197e-04	0.000000e+00	
-2.000000e+00	7.436709e-01	1.225086e+00	4.169676e+01	-3.139479e-12	2.540212e+05	1.013246e+05	2.881235e+02	1.000224e-01	-5.179187e-04	0.000000e+00	
-1.948718e+00	7.436709e-01	1.225086e+00	4.169676e+01	-2.498855e-10	2.540212e+05	1.013246e+05	2.881235e+02	1.000224e-01	-5.179197e-04	0.000000e+00	
-2.000000e+00	7.120253e-01	1.225086e+00	4.169676e+01	-3.511425e-12	2.540212e+05	1.013246e+05	2.881235e+02	1.000224e-01	-5.179187e-04	0.000000e+00	
-1.948718e+00	7.120253e-01	1.225086e+00	4.169676e+01	-2.253973e-10	2.540212e+05	1.013246e+05	2.881235e+02	1.000224e-01	-5.179197e-04	0.000000e+00	
-2.000000e+00	6.803797e-01	1.225086e+00	4.169676e+01	-3.579197e-12	2.540212e+05	1.013246e+05	2.881235e+02	1.000224e-01	-5.179187e-04	0.000000e+00	
-1.948718e+00	6.803797e-01	1.225086e+00	4.169676e+01	-2.014463e-10	2.540212e+05	1.013246e+05	2.881235e+02	1.000224e-01	-5.179197e-04	0.000000e+00	
-2.000000e+00	6.487342e-01	1.225086e+00	4.169676e+01	-3.825964e-12	2.540212e+05	1.013246e+05	2.881235e+02	1.000224e-01	-5.179187e-04	0.000000e+00	
-1.948718e+00	6.487342e-01	1.225086e+00	4.169676e+01	-1.783961e-10	2.540212e+05	1.013246e+05	2.881235e+02	1.000224e-01	-5.179197e-04	0.000000e+00	
-2.000000e+00	6.170886e-01	1.225086e+00	4.169676e+01	-3.973436e-12	2.540212e+05	1.013246e+05	2.881235e+02	1.000224e-01	-5.179187e-04	0.000000e+00	
-1.948718e+00	6.170886e-01	1.225086e+00	4.169676e+01	-1.558803e-10	2.540212e+05	1.013246e+05	2.881235e+02	1.000224e-01	-5.179197e-04	0.000000e+00	
-2.000000e+00	5.854430e-01	1.225086e+00	4.169676e+01	-3.975805e-12	2.540212e+05	1.013246e+05	2.881235e+02	1.000224e-01	-5.179187e-04	0.000000e+00	
-1.948718e+00	5.854430e-01	1.225086e+00	4.169676e+01	-1.339489e-10	2.540212e+05	1.013246e+05	2.881235e+02	1.000224e-01	-5.179197e-04	0.000000e+00	
-2.000000e+00	5.537975e-01	1.225086e+00	4.169676e+01	-4.066698e-12	2.540212e+05	1.013246e+05	2.881235e+02	1.000224e-01	-5.179187e-04	0.000000e+00	
-1.948718e+00	5.537975e-01	1.225086e+00	4.169676e+01	-1.126046e-10	2.540212e+05	1.013246e+05	2.881235e+02	1.000224e-01	-5.179197e-04	0.000000e+00	
-2.000000e+00	5.221519e-01	1.225086e+00	4.169676e+01	-4.220374e-12	2.540212e+05	1.013246e+05	2.881235e+02	1.000224e-01	-5.179187e-04	0.000000e+00	
-1.948718e+00	5.221519e-01	1.225086e+00	4.169676e+01	-9.188398e-11	2.540212e+05	1.013246e+05	2.881235e+02	1.000224e-01	-5.179197e-04	0.000000e+00	
-2.000000e+00	4.905063e-01	1.225086e+00	4.169676e+01	-4.348554e-12	2.540212e+05	1.013246e+05	2.881235e+02	1.000224e-01	-5.179187e-04	0.000000e+00	
-1.948718e+00	4.905063e-01	1.225086e+00	4.169676e+01	-7.192301e-11	2.540212e+05	1.013246e+05	2.881235e+02	1.000224e-01	-5.179197e-04	0.000000e+00	
-2.000000e+00	4.588608e-01	1.225086e+00	4.169676e+01	-4.248399e-12	2.540212e+05	1.013246e+05	2.881235e+02	1.000224e-01	-5.179187e-04	0.000000e+00	
-1.948718e+00	4.588608e-01	1.225086e+00	4.169676e+01	-5.225928e-11	2.540212e+05	1.013246e+05	2.881235e+02	1.000224e-01	-5.179197e-04	0.000000e+00	
-2.000000e+00	4.272152e-01	1.225086e+00	4.169676e+01	-4.377764e-12	2.540212e+05	1.013246e+05	2.881235e+02	1.000224e-01	-5.179187e-04	0.000000e+00	
-1.948718e+00	4.272152e-01	1.225086e+00	4.169676e+01	-3.344798e-11	2.540212e+05	1.013246e+05	2.881235e+02	1.000224e-01	-5.179197e-04	0.000000e+00	
-2.000000e+00	3.955696e-01	1.225086e+00	4.169676e+01	-4.396629e-12	2.540212e+05	1.013246e+05	2.881235e+02	1.000224e-01	-5.179187e-04	0.000000e+00	
-1.948718e+00	3.955696e-01	1.225086e+00	4.169676e+01	-1.508151e-11	2.540212e+05	1.013246e+05	2.881235e+02	1.000224e-01	-5.179197e-04	0.000000e+00	
-2.000000e+00	3.639241e-01	1.225086e+00	4.169676e+01	-4.305970e-12	2.540212e+05	1.013246e+05	2.881235e+02	1.000224e-01	-5.179187e-04	0.000000e+00	
-1.948718e+00	3.639241e-01	1.225086e+00	4.169676e+01	2.599259e-12	2.540212e+05	1.013246e+05	2.881235e+02	1.000224e-01	-5.179197e-04	0.000000e+00	
-2.000000e+00	3.322785e-01	1.225086e+00	4.169676e+01	-4.178741e-12	2.540212e+05	1.013246e+05	2.881235e+02	1.000224e-01	-5.179187e-04	0.000000e+00	
-1.948718e+00	3.322785e-01	1.225086e+00	4.169676e+01	1.984305e-11	2.540212e+05	1.013246e+05	2.881235e+02	1.000224e-01	-5.179197e-04	0.000000e+00	
-2.000000e+00	3.006329e-01	1.225086e+00	4.169676e+01	-4.138809e-12	2.540212e+05	1.013246e+05	2.881235e+02	1.000224e-01	-5.179187e-04	0.000000e+00	
-1.948718e+00	3.006329e-01	1.225086e+00	4.169676e+01	3.617843e-11	2.540212e+05	1.013246e+05	2.881235e+02	1.000224e-01	-5.179197e-04	0.000000e+00	
-2.000000e+00	2.689873e-01	1.225086e+00	4.169676e+01	-4.088358e-12	2.540212e+05	1.013246e+05	2.881235e+02	1.000224e-01	-5.179187e-04	0.000000e+00	
-1.948718e+00	2.689873e-01	1.225086e+00	4.169676e+01	5.192571e-11	2.540212e+05	1.013246e+05	2.881235e+02	1.000224e-01	-5.179197e-04	0.000000e+00	
-2.000000e+00	2.373418e-01	1.225086e+00	4.169676e+01	-4.138753e-12	2.540212e+05	1.013246e+05	2.881235e+02	1.000224e-01	-5.179187e-04	0.000000e+00	
-1.948718e+00	2.373418e-01	1.225086e+00	4.169676e+01	6.693365e-11	2.540212e+05	1.013246e+05	2.881235e+02	1.000224e-01	-5.179197e-04	0.000000e+00	
-2.000000e+00	2.056962e-01	1.225086e+00	4.169676e+01	-4.333473e-12	2.540212e+05	1.013246e+05	2.881235e+02	1.000224e-01	-5.179187e-04	0.000000e+00	
-1.948718e+00	2.056962e-01	1.225086e+00	4.169676e+01	8.103058e-11	2.540212e+05	1.013246e+05	2.881235e+02	1.000224e-01	-5.179197e-04	0.000000e+00	
-2.000000e+00	1.740506e-01	1.225086e+00	4.169676e+01	-4.279805e-12	2.540212e+05	1.013246e+05	2.881235e+02	1.000224e-01	-5.179187e-04	0.000000e+00	
-1.948718e+00	1.740506e-01	1.225086e+00	4.169676e+01	9.464281e-11	2.540212e+05	1.013246e+05	2.881235e+02	1.000224e-01	-5.179197e-04	0.000000e+00	
-2.000000e+00	1.424051e-01	1.225086e+00	4.169676e+01	-4.323154e-12	2.540212e+05	1.013246e+05	2.881235e+02	1.000224e-01	-5.179187e-04	0.000000e+00	
-1.948718e+00	1.424051e-01	1.225086e+00	4.169676e+01	1.073510e-10	2.540212e+05	1.013246e+05	2.881235e+02	1.000224e-01	-5.179197e-04	0.000000e+00	
-2.000000e+00	1.107595e-01	1.225086e+00	4.169676e+01	-4.295244e-12	2.540212e+05	1.013246e+05	2.881235e+02	1.000224e-01	-5.179187e-04	0.000000e+00	
-1.948718e+00	1.107595e-01	1.225086e+00	4.169676e+01	1.194947e-10	2.540212e+05	1.013246e+05	2.881235e+02	1.000224e-01	-5.179197e-04	0.000000e+00	
-2.000000e+00	7.911392e-02	1.225086e+00	4.169676e+01	-4.219622e-12	2.540212e+05	1.013246e+05	2.881235e+02	1.000224e-01	-5.179187e-04	0.000000e+00	
-1.948718e+00	7.911392e-02	1.225086e+00	4.169676e+01	1.307278e-10	2.540212e+05	1.013246e+05	2.881235e+02	1.000224e-01	-5.179197e-04	0.000000e+00	
-2.000000e+00	4.746835e-02	1.225086e+00	4.169676e+01	-4.002799e-12	2.540212e+05	1.013246e+05	2.881235e+02	1.000224e-01	-5.179187e-04	0.000000e+00	
-1.948718e+00	4.746835e-02	1.225086e+00	4.169676e+01	1.414420e-10	2.540212e+05	1.013246e+05	2.881235e+02	1.000224e-01	-5.179197e-04	0.000000e+00	
-2.000000e+00	1.582278e-02	1.225086e+00	4.169676e+01	-4.042612e-12	2.540212e+05	1.013246e+05	2.881235e+02	1.000224e-01	-5.179187e-04	0.000000e+00	
-1.948718e+00	1.582278e-02	1.225086e+00	4.169676e+01	1.511229e-10	2.540212e+05	1.013246e+05	2.881235e+02	1.000224e-01	-5.179197e-04	0.000000e+00	
-2.000000e+00	-1.582278e-02	1.225086e+00	4.169676e+01	-4.165318e-12	2.540212e+05	1.013246e+05	2.881235e+02	1.000224e-01	-5.179187e-04	0.000000e+00	
-1.948718e+00	-1.582278e-02	1.225086e+00	4.169676e+01	1.600070e-10	2.540212e+05	1.013246e+05	2.881235e+02	1.000224e-01	-5.179197e-04	0.000000e+00	
-2.000000e+00	-4.746835e-02	1.225086e+00	4.169676e+01	-4.225196e-12	2.540212e+05	1.013246e+05	2.881235e+02	1.000224e-01	-5.179187e-04	0.000000e+00	
-1.948718e+00	-4.746835e-02	1.225086e+00	4.169676e+01	1.680150e-10	2.540212e+05	1.013246e+05	2.881235e+02	1.000224e-01	-5.179197e-04	0.000000e+00	
-2.000000e+00	-7.911392e-02	1.225086e+00	4.169676e+01	-4.298594e-12	2.540212e+05	1.013246e+05	2.881235e+02	1.000224e-01	-5.179187e-04	0.000000e+00	
-1.948718e+00	-7.911392e-02	1.225086e+00	4.169676e+01	1.752697e-10	2.540212e+05	1.013246e+05	2.881235e+02	1.000224e-01	-5.179197e-04	0.000000e+00	
-2.000000e+00	-1.107595e-01	1.225086e+00	4.169676e+01	-4.171321e-12	2.540212e+05	1.013246e+05	2.881235e+02	1.000224e-01	-5.179187e-04	0.000000e+00	
-1.948718e+00	-1.107595e-01	1.225086e+00	4.169676e+01	1.818065e-10	2.540212e+05	1.013246e+05	2.881235e+02	1.000224e-01	-5.179197e-04	0.000000e+00	
-2.000000e+00	-1.424051e-01	1.225086e+00	4.169676e+01	-4.004846e-12	2.540212e+05	1.013246e+05	2.881235e+02	1.000224e-01	-5.179187e-04	0.000000e+00	
-1.948718e+00	-1.424051e-01	1.225086e+00	4.169676e+01	1.876062e-10	2.540212e+05	1.013246e+05	2.881235e+02	1.000224e-01	-5.179197e-04	0.000000e+00	
-2.000000e+00	-1.740506e-01	1.225086e+00	4.169676e+01	-4.034775e-12	2.540212e+05	1.013246e+05	2.881235e+02	1.000224e-01	-5.179187e-04	0.000000e+00	
-1.948718e+00	-1.740506e-01	1.225086e+00	4.169676e+01	1.924413e-10	2.540212e+05	1.013246e+05	2.881235e+02	1.000224e-01	-5.179197e-04	0.000000e+00	
-2.000000e+00	-2.056962e-01	1.225086e+00	4.169676e+01	-4.103163e-12	2.540212e+05	1.013246e+05	2.881235e+02	1.000224e-01	-5.179187e-04	0.000000e+00	
-1.948718e+00	-2.056962e-01	1.225086e+00	4.169676e+01	1.963541e-10	2.540212e+05	1.013246e+05	2.881235e+02	1.000224e-01	-5.179197e-04	0.000000e+00	
-2.000000e+00	-2.373418e-01	1.225086e+00	4.169676e+01	-4.230696e-12	2.540212e+05	1.013246e+05	2.881235e+02	1.000224e-01	-5.179187e-04	0.000000e+00	
-1.948718e+00	-2.373418e-01	1.225086e+00	4.169676e+01	1.994812e-10	2.540212e+05	1.013246e+05	2.881235e+02	1.000224e-01	-5.179197e-04	0.000000e+00	
-2.000000e+00	-2.689873e-01	1.225086e+00	4.169676e+01	-4.177246e-12	2.540212e+05	1.013246e+05	2.881235e+02	1.000224e-01	-5.179187e-04	0.000000e+00	
-1.948718e+00	-2.689873e-01	1.225086e+00	4.169676e+01	2.018024e-10	2.540212e+05	1.013246e+05	2.881235e+02	1.000224e-01	-5.179196e-04	0.000000e+00	
-2.000000e+00	-3.006329e-01	1.225086e+00	4.169676e+01	-4.220249e-12	2.540212e+05	1.013246e+05	2.881235e+02	1.000224e-01	-5.179187e-04	0.000000e+00	
-1.948718e+00	-3.006329e-01	1.225086e+00	4.169676e+01	2.033975e-10	2.540212e+05	1.013246e+05	2.881235e+02	1.000224e-01	-5.179196e-04	0.000000e+00	
-2.000000e+00	-3.322785e-01	1.225086e+00	4.169676e+01	-4.284700e-12	2.540212e+05	1.013246e+05	2.881235e+02	1.000224e-01	-5.179187e-04	0.000000e+00	
-1.948718e+00	-3.322785e-01	1.225086e+00	4.169676e+01	2.041966e-10	2.540212e+05	1.013246e+05	2.881235e+02	1.000224e-01	-5.179196e-04	0.000000e+00	
-2.000000e+00	-3.639241e-01	1.225086e+00	4.169676e+01	-4.368818e-12	2.540212e+05	1.013246e+05	2.881235e+02	1.000224e-01	-5.179186e-04	0.000000e+00	
-1.948718e+00	-3.639241e-01	1.225086e+00	4.169676e+01	2.041733e-10	2.540212e+05	1.013246e+05	2.881235e+02	1.000224e-01	-5.179196e-04	0.000000e+00	
-2.000000e+00	-3.955696e-01	1.225086e+00	4.169676e+01	-4.508089e-12	2.540212e+05	1.013246e+05	2.881235e+02	1.000224e-01	-5.179186e-04	0.000000e+00	
-1.948718e+00	-3.955696e-01	1.225086e+00	4.169676e+01	2.034349e-10	2.540212e+05	1.013246e+05	2.881235e+02	1.000224e-01	-5.179196e-04	0.000000e+00	
-2.000000e+00	-4.272152e-01	1.225086e+00	4.169676e+01	-4.753108e-12	2.540212e+05	1.013246e+05	2.881235e+02	1.000224e-01	-5.179186e-04	0.000000e+00	
-1.948718e+00	-4.272152e-01	1.225086e+00	4.169676e+01	2.020147e-10	2.540212e+05	1.013246e+05	2.881235e+02	1.000224e-01	-5.179196e-04	0.000000e+00	
-2.000000e+00	-4.588608e-01	1.225086e+00	4.169676e+01	-5.074793e-12	2.540212e+05	1.013246e+05	2.881235e+02	1.000224e-01	-5.179186e-04	0.000000e+00	
-1.948718e+00	-4.588608e-01	1.225086e+00	4.169676e+01	1.999978e-10	2.540212e+05	1.013246e+05	2.881235e+02	1.000224e-01	-5.179196e-04	0.000000e+00	
-2.000000e+00	-4.905063e-01	1.225086e+00	4.169676e+01	-5.138553e-12	2.540212e+05	1.013246e+05	2.881235e+02	1.000224e-01	-5.179186e-04	0.000000e+00	
-1.948718e+00	-4.905063e-01	1.225086e+00	4.169676e+01	1.976240e-10	2.540212e+05	1.013246e+05	2.881235e+02	1.000224e-01	-5.179196e-04	0.000000e+00	
-2.000000e+00	-5.221519e-01	1.225086e+00	4.169676e+01	-5.137931e-12	2.540212e+05	1.013246e+05	2.881235e+02	1.000224e-01	-5.179186e-04	0.000000e+00	
-1.948718e+00	-5.221519e-01	1.225086e+00	4.169676e+01	1.949300e-10	2.540212e+05	1.013246e+05	2.881235e+02	1.000224e-01	-5.179196e-04	0.000000e+00	
-2.000000e+00	-5.537975e-01	1.225086e+00	4.169676e+01	-5.373548e-12	2.540212e+05	1.013246e+05	2.881235e+02	1.000224e-01	-5.179186e-04	0.000000e+00	
-1.948718e+00	-5.537975e-01	1.225086e+00	4.169676e+01	1.918438e-10	2.540212e+05	1.013246e+05	2.881235e+02	1.000224e-01	-5.179196e-04	0.000000e+00	
-2.000000e+00	-5.854430e-01	1.225086e+00	4.169676e+01	-5.623931e-12	2.540212e+05	1.013246e+05	2.881235e+02	1.000224e-01	-5.179186e-04	0.000000e+00	
-1.948718e+00	-5.854430e-01	1.225086e+00	4.169676e+01	1.882662e-10	2.540212e+05	1.013246e+05	2.881235e+02	1.000224e-01	-5.179196e-04	0.000000e+00	
-2.000000e+00	-6.170886e-01	1.225086e+00	4.169676e+01	-6.155697e-12	2.540212e+05	1.013246e+05	2.881235e+02	1.000224e-01	-5.179186e-04	0.000000e+00	
-1.948718e+00	-6.170886e-01	1.225086e+00	4.169676e+01	1.847809e-10	2.540212e+05	1.013246e+05	2.881235e+02	1.000224e-01	-5.179196e-04	0.000000e+00	
-2.000000e+00	-6.487342e-01	1.225086e+00	4.169676e+01	-6.535327e-12	2.540212e+05	1.013246e+05	2.881235e+02	1.000224e-01	-5.179186e-04	0.000000e+00	
-1.948718e+00	-6.487342e-01	1.225086e+00	4.169676e+01	1.814158e-10	2.540212e+05	1.013246e+05	2.881235e+02	1.000224e-01	-5.179196e-04	0.000000e+00	
-2.000000e+00	-6.803797e-01	1.225086e+00	4.169676e+01	-6.854205e-12	2.540212e+05	1.013246e+05	2.881235e+02	1.000224e-01	-5.179186e-04	0.000000e+00	
-1.948718e+00	-6.803797e-01	1.225086e+00	4.169676e+01	1.785224e-10	2.540212e+05	1.013246e+05	2.881235e+02	1.000224e-01	-5.179196e-04	0.000000e+00	
-2.000000e+00	-7.120253e-01	1.225086e+00	4.169676e+01	-7.362432e-12	2.540212e+05	1.013246e+05	2.881235e+02	1.000224e-01	-5.179186e-04	0.000000e+00	
-1.948718e+00	-7.120253e-01	1.225086e+00	4.169676e+01	1.760472e-10	2.540212e+05	1.013246e+05	2.881235e+02	1.000224e-01	-5.179196e-04	0.000000e+00	
-2.000000e+00	-7.436709e-01	1.225086e+00	4.169676e+01	-8.099411e-12	2.540212e+05	1.013246e+05	2.881235e+02	1.000224e-01	-5.179186e-04	0.000000e+00	
-1.948718e+00	-7.436709e-01	1.225086e+00	4.169676e+01	1.741496e-10	2.540212e+05	1.013246e+05	2.881235e+02	1.000224e-01	-5.179196e-04	0.000000e+00	
-2.000000e+00	-7.753165e-01	1.225086e+00	4.169676e+01	-8.678935e-12	2.540212e+05	1.013246e+05	2.881235e+02	1.000224e-01	-5.179186e-04	0.000000e+00	
-1.948718e+00	-7.753165e-01	1.225086e+00	4.169676e+01	1.733623e-10	2.540212e+05	1.013246e+05	2.881235e+02	1.000224e-01	-5.179196e-04	0.000000e+00	
-2.000000e+00	-8.069620e-01	1.225086e+00	4.169676e+01	-9.573390e-12	2.540212e+05	1.013246e+05	2.881235e+02	1.000224e-01	-5.179186e-04	0.000000e+00	
-1.948718e+00	-8.069620e-01	1.225086e+00	4.169676e+01	1.739247e-10	2.540212e+05	1.013246e+05	2.881235e+02	1.000224e-01	-5.179196e-04	0.000000e+00	
-2.000000e+00	-8.386076e-01	1.225086e+00	4.169676e+01	-1.052943e-11	2.540212e+05	1.013246e+05	2.881235e+02	1.000224e-01	-5.179186e-04	0.000000e+00	
-1.948718e+00	-8.386076e-01	1.225086e+00	4.169676e+01	1.762905e-10	2.540212e+05	1.013246e+05	2.881235e+02	1.000224e-01	-5.179195e-04	0.000000e+00	
-2.000000e+00	-8.702532e-01	1.225086e+00	4.169676e+01	-1.091427e-11	2.540212e+05	1.013246e+05	2.881235e+02	1.000224e-01	-5.179186e-04	0.000000e+00	
-1.948718e+00	-8.702532e-01	1.225086e+00	4.169676e+01	1.818406e-10	2.540212e+05	1.013246e+05	2.881235e+02	1.000224e-01	-5.179195e-04	0.000000e+00	
-2.000000e+00	-9.018987e-01	1.225086e+00	4.169676e+01	-1.025774e-11	2.540212e+05	1.013246e+05	2.881235e+02	1.000224e-01	-5.179186e-04	0.000000e+00	
-1.948718e+00	-9.018987e-01	1.225086e+00	4.169676e+01	1.910665e-10	2.540212e+05	1.013246e+05	2.881235e+02	1.000224e-01	-5.179195e-04	0.000000e+00	
-2.000000e+00	-9.335443e-01	1.225086e+00	4.169676e+01	-7.904117e-12	2.540212e+05	1.013246e+05	2.881235e+02	1.000224e-01	-5.179185e-04	0.000000e+00	
-1.948718e+00	-9.335443e-01	1.225086e+00	4.169676e+01	2.041589e-10	2.540212e+05	1.013246e+05	2.881235e+02	1.000224e-01	-5.179195e-04	0.000000e+00	
-2.000000e+00	-9.651899e-01	1.225086e+00	4.169676e+01	-5.467620e-12	2.540212e+05	1.013246e+05	2.881235e+02	1.000224e-01	-5.179185e-04	0.000000e+00	
-1.948718e+00	-9.651899e-01	1.225086e+00	4.169676e+01	2.194979e-10	2.540212e+05	1.013246e+05	2.881235e+02	1.000224e-01	-5.179195e-04	0.000000e+00	
-2.000000e+00	-9.968354e-01	1.225086e+00	4.169676e+01	-6.207168e-12	2.540212e+05	1.013246e+05	2.881235e+02	1.000224e-01	-5.179185e-04	0.000000e+00	
-1.948718e+00	-9.968354e-01	1.225086e+00	4.169676e+01	2.337324e-10	2.540212e+05	1.013246e+05	2.881235e+02	1.000224e-01	-5.179195e-04	0.000000e+00	
-2.000000e+00	-1.028481e+00	1.225086e+00	4.169676e+01	-1.084611e-11	2.540212e+05	1.013246e+05	2.881235e+02	1.000224e-01	-5.179185e-04	0.000000e+00	
-1.948718e+00	-1.028481e+00	1.225086e+00	4.169676e+01	2.517588e-10	2.540212e+05	1.013246e+05	2.881235e+02	1.000224e-01	-5.179195e-04	0.000000e+00	
-2.000000e+00	-1.060127e+00	1.225086e+00	4.169676e+01	-1.070504e-11	2.540212e+05	1.013246e+05	2.881235e+02	1.000224e-01	-5.179185e-04	0.000000e+00	
-1.948718e+00	-1.060127e+00	1.225086e+00	4.169676e+01	2.871473e-10	2.540212e+05	1.013246e+05	2.881235e+02	1.000224e-01	-5.179195e-04	0.000000e+00	
-2.000000e+00	-1.091772e+00	1.225086e+00	4.169676e+01	2.713010e-11	2.540212e+05	1.013246e+05	2.881235e+02	1.000224e-01	-5.179185e-04	0.000000e+00	
-1.948718e+00	-1.091772e+00	1.225086e+00	4.169676e+01	3.827807e-10	2.540212e+05	1.013246e+05	2.881235e+02	1.000224e-01	-5.179195e-04	0.000000e+00	
-2.000000e+00	-1.123418e+00	1.225086e+00	4.169676e+01	1.487352e-10	2.540212e+05	1.013246e+05	2.881235e+02	1.000224e-01	-5.179185e-04	0.000000e+00	
-1.948718e+00	-1.123418e+00	1.225086e+00	4.169676e+01	5.601559e-10	2.540212e+05	1.013246e+05	2.881235e+02	1.000224e-01	-5.179195e-04	0.000000e+00	
-2.000000e+00	-1.155063e+00	1.225086e+00	4.169676e+01	3.827501e-10	2.540212e+05	1.013246e+05	2.881235e+02	1.000224e-01	-5.179185e-04	0.000000e+00	
-1.948718e+00	-1.155063e+00	1.225086e+00	4.169676e+01	8.193765e-10	2.540212e+05	1.013246e+05	2.881235e+02	1.000224e-01	-5.179195e-04	0.000000e+00	
-2.000000e+00	-1.186709e+00	1.225086e+00	4.169676e+01	6.266648e-10	2.540212e+05	1.013246e+05	2.881235e+02	1.000224e-01	-5.179184e-04	0.000000e+00	
-1.948718e+00	-1.186709e+00	1.225086e+00	4.169676e+01	9.461171e-10	2.540212e+05	1.013246e+05	2.881235e+02	1.000224e-01	-5.179195e-04	0.000000e+00	
-2.000000e+00	-1.218354e+00	1.225086e+00	4.169676e+01	6.453343e-10	2.540212e+05	1.013246e+05	2.881235e+02	1.000224e-01	-5.179184e-04	0.000000e+00	
-1.948718e+00	-1.218354e+00	1.225086e+00	4.169676e+01	7.641458e-10	2.540212e+05	1.013246e+05	2.881235e+02	1.000224e-01	-5.179195e-04	0.000000e+00	
-1.897436e+00	1.218354e+00	1.225086e+00	4.169676e+01	-1.445570e-09	2.540212e+05	1.013246e+05	2.881235e+02	1.000224e-01	-5.179203e-04	0.000000e+00	
-1.897436e+00	1.250000e+00	1.225086e+00	4.169676e+01	-3.339145e-10	2.540212e+05	1.013246e+05	2.881235e+02	1.000224e-01	-5.179202e-04	0.000000e+00	
-1.897436e+00	1.186709e+00	1.225086e+00	4.169676e+01	-1.869919e-09	2.540212e+05	1.013246e+05	2.881235e+02	1.000224e-01	-5.179203e-04	0.000000e+00	
-1.897436e+00	1.155063e+00	1.225086e+00	4.169676e+01	-1.854093e-09	2.540212e+05	1.013246e+05	2.881235e+02	1.000224e-01	-5.179203e-04	0.000000e+00	
-1.897436e+00	1.123418e+00	1.225086e+00	4.169676e+01	-1.576886e-09	2.540212e+05	1.013246e+05	2.881235e+02	1.000224e-01	-5.179203e-04	0.000000e+00	
-1.897436e+00	1.091772e+00	1.225086e+00	4.169676e+01	-1.322936e-09	2.540212e+05	1.013246e+05	2.881235e+02	1.000224e-01	-5.179203e-04	0.000000e+00	
-1.897436e+00	1.060127e+00	1.225086e+00	4.169676e+01	-1.139998e-09	2.540212e+05	1.013246e+05	2.881235e+02	1.000224e-01	-5.179203e-04	0.000000e+00	
-1.897436e+00	1.028481e+00	1.225086e+00	4.169676e+01	-1.035877e-09	2.540212e+05	1.013246e+05	2.881235e+02	1.000224e-01	-5.179203e-04	0.000000e+00	
-1.897436e+00	9.968354e-01	1.225086e+00	4.169676e+01	-9.621404e-10	2.540212e+05	1.013246e+05	2.881235e+02	1.000224e-01	-5.179204e-04	0.000000e+00	
-1.897436e+00	9.651899e-01	1.225086e+00	4.169676e+01	-8.990811e-10	2.540212e+05	1.013246e+05	2.881235e+02	1.000224e-01	-5.179204e-04	0.000000e+00	
-1.897436e+00	9.335443e-01	1.225086e+00	4.169676e+01	-8.337402e-10	2.540212e+05	1.013246e+05	2.881235e+02	1.000224e-01	-5.179204e-04	0.000000e+00	
-1.897436e+00	9.018987e-01	1.225086e+00	4.169676e+01	-7.693592e-10	2.540212e+05	1.013246e+05	2.881235e+02	1.000224e-01	-5.179204e-04	0.000000e+00	
-1.897436e+00	8.702532e-01	1.225086e+00	4.169676e+01	-7.070384e-10	2.540212e+05	1.013246e+05	2.881235e+02	1.000224e-01	-5.179204e-04	0.000000e+00	
-1.897436e+00	8.386076e-01	1.225086e+00	4.169676e+01	-6.490020e-10	2.540212e+05	1.013246e+05	2.881235e+02	1.000224e-01	-5.179204e-04	0.000000e+00	
-1.897436e+00	8.069620e-01	1.225086e+00	4.169676e+01	-5.942333e-10	2.540212e+05	1.013246e+05	2.881235e+02	1.000224e-01	-5.179204e-04	0.000000e+00	
-1.897436e+00	7.753165e-01	1.225086e+00	4.169676e+01	-5.422630e-10	2.540212e+05	1.013246e+05	2.881235e+02	1.000224e-01	-5.179204e-04	0.000000e+00	
-1.897436e+00	7.436709e-01	1.225086e+00	4.169676e+01	-4.919628e-10	2.540212e+05	1.013246e+05	2.881235e+02	1.000224e-01	-5.179204e-04	0.000000e+00	
-1.897436e+00	7.120253e-01	1.225086e+00	4.169676e+01	-4.431883e-10	2.540212e+05	1.013246e+05	2.881235e+02	1.000224e-01	-5.179204e-04	0.000000e+00	
-1.897436e+00	6.803797e-01	1.225086e+00	4.169676e+01	-3.956141e-10	2.540212e+05	1.013246e+05	2.881235e+02	1.000224e-01	-5.179204e-04	0.000000e+00	
-1.897436e+00	6.487342e-01	1.225086e+00	4.169676e+01	-3.493159e-10	2.540212e+05	1.013246e+05	2.881235e+02	1.000224e-01	-5.179205e-04	0.000000e+00	
-1.897436e+00	6.170886e-01	1.225086e+00	4.169676e+01	-3.043894e-10	2.540212e+05	1.013246e+05	2.881235e+02	1.000224e-01	-5.179205e-04	0.000000e+00	
-1.897436e+00	5.854430e-01	1.225086e+00	4.169676e+01	-2.605071e-10	2.540212e+05	1.013246e+05	2.881235e+02	1.000224e-01	-5.179205e-04	0.000000e+00	
-1.897436e+00	5.537975e-01	1.225086e+00	4.169676e+01	-2.178942e-10	2.540212e+05	1.013246e+05	2.881235e+02	1.000224e-01	-5.179205e-04	0.000000e+00	
-1.897436e+00	5.221519e-01	1.225086e+00	4.169676e+01	-1.763477e-10	2.540212e+05	1.013246e+05	2.881235e+02	1.000224e-01	-5.179205e-04	0.000000e+00	
-1.897436e+00	4.905063e-01	1.225086e+00	4.169676e+01	-1.360869e-10	2.540212e+05	1.013246e+05	2.881235e+02	1.000224e-01	-5.179205e-04	0.000000e+00	
-1.897436e+00	4.588608e-01	1.225086e+00	4.169676e+01	-9.688024e-11	2.540212e+05	1.013246e+05	2.881235e+02	1.000224e-01	-5.179205e-04	0.000000e+00	
-1.897436e+00	4.272152e-01	1.225086e+00	4.169676e+01	-5.908216e-11	2.540212e+05	1.013246e+05	2.881235e+02	1.000224e-01	-5.179205e-04	0.000000e+00	
-1.897436e+00	3.955696e-01	1.225086e+00	4.169676e+01	-2.227484e-11	2.540212e+05	1.013246e+05	2.881235e+02	1.000224e-01	-5.179205e-04	0.000000e+00	
-1.897436e+00	3.639241e-01	1.225086e+00	4.169676e+01	1.314694e-11	2.540212e+05	1.013246e+05	2.881235e+02	1.000224e-01	-5.179205e-04	0.000000e+00	
-1.897436e+00	3.322785e-01	1.225086e+00	4.169676e+01	4.739805e-11	2.540212e+05	1.013246e+05	2.881235e+02	1.000224e-01	-5.179205e-04	0.000000e+00	
-1.897436e+00	3.006329e-01	1.225086e+00	4.169676e+01	8.021552e-11	2.540212e+05	1.013246e+05	2.881235e+02	1.000224e-01	-5.179205e-04	0.000000e+00	
-1.897436e+00	2.689873e-01	1.225086e+00	4.169676e+01	1.117183e-10	2.540212e+05	1.013246e+05	2.881235e+02	1.000224e-01	-5.179205e-04	0.000000e+00	
-1.897436e+00	2.373418e-01	1.225086e+00	4.169676e+01	1.418134e-10	2.540212e+05	1.013246e+05	2.881235e+02	1.000224e-01	-5.179205e-04	0.000000e+00	
-1.897436e+00	2.056962e-01	1.225086e+00	4.169676e+01	1.702640e-10	2.540212e+05	1.013246e+05	2.881235e+02	1.000224e-01	-5.179205e-04	0.000000e+00	
-1.897436e+00	1.740506e-01	1.225086e+00	4.169676e+01	1.975452e-10	2.540212e+05	1.013246e+05	2.881235e+02	1.000224e-01	-5.179205e-04	0.000000e+00	
-1.897436e+00	1.424051e-01	1.225086e+00	4.169676e+01	2.230028e-10	2.540212e+05	1.013246e+05	2.881235e+02	1.000224e-01	-5.179205e-04	0.000000e+00	
-1.897436e+00	1.107595e-01	1.225086e+00	4.169676e+01	2.473015e-10	2.540212e+05	1.013246e+05	2.881235e+02	1.000224e-01	-5.179205e-04	0.000000e+00	
-1.897436e+00	7.911392e-02	1.225086e+00	4.169676e+01	2.697893e-10	2.540212e+05	1.013246e+05	2.881235e+02	1.000224e-01	-5.179205e-04	0.000000e+00	
-1.897436e+00	4.746835e-02	1.225086e+00	4.169676e+01	2.910490e-10	2.540212e+05	1.013246e+05	2.881235e+02	1.000224e-01	-5.179205e-04	0.000000e+00	
-1.897436e+00	1.582278e-02	1.225086e+00	4.169676e+01	3.103740e-10	2.540212e+05	1.013246e+05	2.881235e+02	1.000224e-01	-5.179204e-04	0.000000e+00	
-1.897436e+00	-1.582278e-02	1.225086e+00	4.169676e+01	3.283433e-10	2.540212e+05	1.013246e+05	2.881235e+02	1.000224e-01	-5.179204e-04	0.000000e+00	
-1.897436e+00	-4.746835e-02	1.225086e+00	4.169676e+01	3.445192e-10	2.540212e+05	1.013246e+05	2.881235e+02	1.000224e-01	-5.179204e-04	0.000000e+00	
-1.897436e+00	-7.911392e-02	1.225086e+00	4.169676e+01	3.591397e-10	2.540212e+05	1.013246e+05	2.881235e+02	1.000224e-01	-5.179204e-04	0.000000e+00	
-1.897436e+00	-1.107595e-01	1.225086e+00	4.169676e+01	3.721074e-10	2.540212e+05	1.013246e+05	2.881235e+02	1.000224e-01	-5.179204e-04	0.000000e+00	