VARIABLES = "x"
 "y"
 "Density"
 "Momentum_x"
 "Momentum_y"
 "Energy"
 "Pressure"
 "Temperature"
 "Mach"
 "C<sub>p</sub>"
 "Roe_Dissipation"
ZONE
DT=(DOUBLE,DOUBLE,DOUBLE,DOUBLE,DOUBLE,DOUBLE,DOUBLE,DOUBLE,DOUBLE,DOUBLE,DOUBLE)
                     -2                     0.6        1.22508597373962        41.6967582702637   -3.97471529603248E-12           254021.203125          101324.6015625        288.123504638672        0.10002239793539   -0.000517918728291988                       0 
      -1.99749874937469                     0.6        1.22508597373962        41.6967582702637   -1.08489765524849E-11           254021.203125          101324.6015625        288.123504638672        0.10002239793539   -0.000517918776555722                       0 
      -1.99499749874937                     0.6        1.22508597373962        41.6967582702637   -1.77232378089379E-11           254021.203125          101324.6015625        288.123504638672        0.10002239793539   -0.000517918824819456                       0 
      -1.99249624812406                     0.6        1.22508597373962        41.6967582702637   -2.45974990653903E-11           254021.203125          101324.6015625        288.123504638672        0.10002239793539    -0.00051791887308319                       0 
      -1.98999499749875                     0.6        1.22508597373962        41.6967582702637   -3.14717603218427E-11           254021.203125          101324.6015625        288.123504638672        0.10002239793539   -0.000517918921346923                       0 
      -1.98749374687344                     0.6        1.22508597373962        41.6967582702637   -3.83460215782951E-11           254021.203125          101324.6015625        288.123504638672        0.10002239793539   -0.000517918969610657                       0 
      -1.98499249624812                     0.6        1.22508597373962        41.6967582702637   -4.52202828347481E-11           254021.203125          101324.6015625        288.123504638672        0.10002239793539   -0.000517919017874391                       0 
      -1.98249124562281                     0.6        1.22508597373962        41.6967582702637   -5.20945440912005E-11           254021.203125          101324.6015625        288.123504638672        0.10002239793539   -0.000517919066138124                       0 
       -1.9799899949975                     0.6        1.22508597373962        41.6967582702637   -5.89688053476529E-11           254021.203125          101324.6015625        288.123504638672        0.10002239793539   -0.000517919114401858                       0 
      -1.97748874437219                     0.6        1.22508597373962        41.6967582702637   -6.58430666041059E-11           254021.203125          101324.6015625        288.123504638672        0.10002239793539   -0.000517919162665592                       0 
      -1.97498749374687                     0.6        1.22508597373962        41.6967582702637   -7.24130657556979E-11           254021.203125          101324.6015625        288.123504638672        0.10002239793539   -0.000517919210929326                       0 
      -1.97248624312156                     0.6        1.22508597373962        41.6967582702637   -7.87524238872989E-11           254021.203125          101324.6015625        288.123504638672        0.10002239793539   -0.000517919259193059                       0 
      -1.96998499249625                     0.6        1.22508597373962        41.6967582702637   -8.55885037085205E-11           254021.203125          101324.6015625        288.123504638672        0.10002239793539   -0.000517919307456793                       0 
      -1.96748374187094                     0.6        1.22508597373962        41.6967582702637   -9.24627649649729E-11           254021.203125          101324.6015625        288.123504638672        0.10002239793539   -0.000517919355720527                       0 
      -1.96498249124562                     0.6        1.22508597373962        41.6967582702637   -9.93370262214253E-11           254021.203125          101324.6015625        288.123504638672        0.10002239793539    -0.00051791940398426                       0 
      -1.96248124062031                     0.6        1.22508597373962        41.6967582702637   -1.06211287477878E-10           254021.203125          101324.6015625        288.123504638672        0.10002239793539   -0.000517919452247994                       0 
        -1.959979989995                     0.6        1.22508597373962        41.6967582702637   -1.13085548734331E-10           254021.203125          101324.6015625        288.123504638672        0.10002239793539   -0.000517919500511728                       0 
      -1.95747873936968                     0.6        1.22508597373962        41.6967582702637   -1.19959809990783E-10           254021.203125          101324.6015625        288.123504638672        0.10002239793539   -0.000517919548775462                       0 
      -1.95497748874437                     0.6        1.22508597373962        41.6967582702637   -1.26834071247236E-10           254021.203125          101324.6015625        288.123504638672        0.10002239793539   -0.000517919597039195                       0 
      -1.95247623811906                     0.6        1.22508597373962        41.6967582702637   -1.33708332503689E-10           254021.203125          101324.6015625        288.123504638672        0.10002239793539   -0.000517919645302929                       0 
      -1.94997498749375                     0.6        1.22508597373962        41.6967582702637   -1.40582593760141E-10           254021.203125          101324.6015625        288.123504638672        0.10002239793539   -0.000517919693566663                       0 
      -1.94747373686843                     0.6        1.22508597373962        41.6967582702637   -1.47374217921725E-10           254021.203125          101324.6015625        288.123504638672        0.10002239793539   -0.000517919736181457                       0 
      -1.94497248624312                     0.6        1.22508597373962        41.6967582702637   -1.54082353467747E-10           254021.203125          101324.6015625        288.123504638672        0.10002239793539   -0.000517919773089104                       0 
      -1.94247123561781                     0.6        1.22508597373962        41.6967582702637   -1.60790489013769E-10           254021.203125          101324.6015625        288.123504638672        0.10002239793539   -0.000517919809996751                       0 
       -1.9399699849925                     0.6        1.22508597373962        41.6967582702637   -1.67498624559791E-10           254021.203125          101324.6015625        288.123504638672        0.10002239793539   -0.000517919846904398                       0 
      -1.93746873436718                     0.6        1.22508597373962        41.6967582702637   -1.74206760105813E-10           254021.203125          101324.6015625        288.123504638672        0.10002239793539   -0.000517919883812045                       0 
      -1.93496748374187                     0.6        1.22508597373962        41.6967582702637   -1.80914895651835E-10           254021.203125          101324.6015625        288.123504638672        0.10002239793539   -0.000517919920719692                       0 
      -1.93246623311656                     0.6        1.22508597373962        41.6967582702637   -1.87623031197857E-10           254021.203125          101324.6015625        288.123504638672        0.10002239793539   -0.000517919957627339                       0 
      -1.92996498249125                     0.6        1.22508597373962        41.6967582702637   -1.94331166743879E-10           254021.203125          101324.6015625        288.123504638672        0.10002239793539   -0.000517919994534986                       0 
      -1.92746373186593                     0.6        1.22508597373962        41.6967582702637   -2.01039302289901E-10           254021.203125          101324.6015625        288.123504638672        0.10002239793539   -0.000517920031442633                       0 
      -1.92496248124062                     0.6        1.22508597373962        41.6967582702637   -2.07711958668087E-10           254021.203125          101324.6015625        288.123504638672        0.10002239793539   -0.000517920068350279                       0 
      -1.92246123061531                     0.6        1.22508597373962        41.6967582702637   -2.13884771765302E-10           254021.203125          101324.6015625        288.123504638672        0.10002239793539   -0.000517920105257926                       0 
      -1.91995997998999                     0.6        1.22508597373962        41.6967582702637   -2.20285676530063E-10           254021.203125          101324.6015625        288.123504638672        0.10002239793539   -0.000517920142165573                       0 
      -1.91745872936468                     0.6        1.22508597373962        41.6967582702637   -2.26993812076085E-10           254021.203125          101324.6015625        288.123504638672        0.10002239793539    -0.00051792017907322                       0 
      -1.91495747873937                     0.6        1.22508597373962        41.6967582702637   -2.33701947622107E-10           254021.203125          101324.6015625        288.123504638672        0.10002239793539   -0.000517920215980867                       0 
      -1.91245622811406                     0.6        1.22508597373962        41.6967582702637   -2.40410083168129E-10           254021.203125          101324.6015625        288.123504638672        0.10002239793539   -0.000517920252888514                       0 
      -1.90995497748874                     0.6        1.22508597373962        41.6967582702637   -2.47118218714151E-10           254021.203125          101324.6015625        288.123504638672        0.10002239793539   -0.000517920289796161                       0 
      -1.90745372686343                     0.6        1.22508597373962        41.6967582702637   -2.53826354260173E-10           254021.203125          101324.6015625        288.123504638672        0.10002239793539   -0.000517920326703808                       0 
      -1.90495247623812                     0.6        1.22508597373962        41.6967582702637   -2.60534489806195E-10           254021.203125          101324.6015625        288.123504638672        0.10002239793539   -0.000517920363611454                       0 
      -1.90245122561281                     0.6        1.22508597373962        41.6967582702637   -2.67242625352217E-10           254021.203125          101324.6015625        288.123504638672        0.10002239793539   -0.000517920400519101                       0 
      -1.89994997498749                     0.6        1.22508597373962        41.6967582702637   -2.73950760898239E-10           254021.203125          101324.6015625        288.123504638672        0.10002239793539   -0.000517920437426748                       0 
      -1.89744872436218                     0.6        1.22508597373962        41.6967582702637   -2.80658896444261E-10           254021.203125          101324.6015625        288.123504638672        0.10002239793539   -0.000517920474334395                       0 
      -1.89494747373687                     0.6        1.22508597373962        41.6967582702637   -2.87231910940832E-10           254021.203125          101324.6015625        288.123504638672        0.10002239793539   -0.000517920514066583                       0 
      -1.89244622311156                     0.6        1.22508597373962        41.6967582702637   -2.93804235776879E-10           254021.203125          101324.6015625        288.123504638672        0.10002239793539   -0.000517920553813187                       0 
      -1.88994497248624                     0.6        1.22508597373962        41.6967582702637   -3.00376560612926E-10           254021.203125          101324.6015625        288.123504638672        0.10002239793539   -0.000517920593559791                       0 
      -1.88744372186093                     0.6        1.22508597373962        41.6967582702637   -3.06948885448973E-10           254021.203125          101324.6015625        288.123504638672        0.10002239793539   -0.000517920633306395                       0 
      -1.88494247123562                     0.6        1.22508597373962        41.6967582702637    -3.1352121028502E-10           254021.203125          101324.6015625        288.123504638672        0.10002239793539      -0.000517920673053                       0 
      -1.88244122061031                     0.6        1.22508597373962        41.6967582702637   -3.20093535121067E-10           254021.203125          101324.6015625        288.123504638672        0.10002239793539   -0.000517920712799604                       0 
      -1.87993996998499                     0.6        1.22508597373962        41.6967582702637   -3.26665859957114E-10           254021.203125          101324.6015625        288.123504638672        0.10002239793539   -0.000517920752546208                       0 
      -1.87743871935968                     0.6        1.22508597373962        41.6967582702637   -3.33238184793161E-10           254021.203125          101324.6015625        288.123504638672        0.10002239793539   -0.000517920792292812                       0 
      -1.87493746873437                     0.6        1.22508597373962        41.6967582702637   -3.39810509629208E-10           254021.203125          101324.6015625        288.123504638672        0.10002239793539   -0.000517920832039417                       0 
      -1.87243621810905                     0.6        1.22508597373962        41.6967582702637    -3.4608159939319E-10           254021.203125          101324.6015625        288.123504638672        0.10002239793539   -0.000517920871786021                       0 
      -1.86993496748374                     0.6        1.22508597373962        41.6967582702637   -3.52119572317902E-10           254021.203125          101324.6015625        288.123504638672        0.10002239793539   -0.000517920911532625                       0 
      -1.86743371685843                     0.6        1.22508597373962        41.6967582702637    -3.5865104157133E-10           254021.203125          101324.6015625        288.123504638672        0.10002239793539   -0.000517920951279229                       0 
      -1.86493246623312                     0.6        1.22508597373962        41.6967582702637   -3.65223366407377E-10           254021.203125          101324.6015625        288.123504638672        0.10002239793539   -0.000517920991025834                       0 
       -1.8624312156078                     0.6        1.22508597373962        41.6967582702637   -3.71795691243424E-10           254021.203125          101324.6015625        288.123504638672        0.10002239793539   -0.000517921030772438                       0 
      -1.85992996498249                     0.6        1.22508597373962        41.6967582702637   -3.78368016079471E-10           254021.203125          101324.6015625        288.123504638672        0.10002239793539   -0.000517921070519042                       0 
      -1.85742871435718                     0.6        1.22508597373962        41.6967582702637   -3.84940340915518E-10           254021.203125          101324.6015625        288.123504638672        0.10002239793539   -0.000517921110265646                       0 
      -1.85492746373187                     0.6        1.22508597373962        41.6967582702637   -3.91512665751565E-10           254021.203125          101324.6015625        288.123504638672        0.10002239793539   -0.000517921150012251                       0 
      -1.85242621310655                     0.6        1.22508597373962        41.6967582702637   -3.98084990587612E-10           254021.203125          101324.6015625        288.123504638672        0.10002239793539   -0.000517921189758855                       0 
      -1.84992496248124                     0.6        1.22508597373962        41.6967582702637   -4.04657315423659E-10           254021.203125          101324.6015625        288.123504638672        0.10002239793539   -0.000517921229505459                       0 
      -1.84742371185593                     0.6        1.22508597373962        41.6967582702637   -4.11229640259706E-10           254021.203125          101324.6015625        288.123504638672        0.10002239793539   -0.000517921269252063                       0 
      -1.84492246123062                     0.6        1.22508597373962        41.6967582702637   -4.17671243496579E-10           254021.203125          101324.6015625        288.123504638672        0.10002239793539   -0.000517921308998713                       0 
       -1.8424212106053                     0.6        1.22508597373962        41.6967582702637   -4.23978067764325E-10           254021.203125          101324.6015625        288.123504638672        0.10002239793539    -0.00051792134874541                       0 
      -1.83991995997999                     0.6        1.22508597373962        41.6967582702637   -4.30284892032071E-10           254021.203125          101324.6015625        288.123504638672        0.10002239793539   -0.000517921388492106                       0 
      -1.83741870935468                     0.6        1.22508597373962        41.6967582702637   -4.36591716299817E-10           254021.203125          101324.6015625        288.123504638672        0.10002239793539   -0.000517921428238803                       0 
      -1.83491745872936                     0.6        1.22508597373962        41.6967582702637   -4.42898540567563E-10           254021.203125          101324.6015625        288.123504638672        0.10002239793539     -0.0005179214679855                       0 
      -1.83241620810405                     0.6        1.22508597373962        41.6967582702637   -4.49205364835309E-10           254021.203125          101324.6015625        288.123504638672        0.10002239793539   -0.000517921507732196                       0 
      -1.82991495747874                     0.6        1.22508597373962        41.6967582702637   -4.55512189103054E-10           254021.203125          101324.6015625        288.123504638672        0.10002239793539   -0.000517921547478893                       0 
      -1.82741370685343                     0.6        1.22508597373962        41.6967582702637   -4.61819013370801E-10           254021.203125          101324.6015625        288.123504638672        0.10002239793539    -0.00051792158722559                       0 
      -1.82491245622811                     0.6        1.22508597373962        41.6967582702637   -4.68125837638546E-10           254021.203125          101324.6015625        288.123504638672        0.10002239793539   -0.000517921626972286                       0 
       -1.8224112056028                     0.6        1.22508597373962        41.6967582702637   -4.74400160515307E-10           254021.203125          101324.6015625        288.123504638672        0.10002239793539   -0.000517921666718983                       0 
      -1.81990995497749                     0.6        1.22508597373962        41.6967582702637   -4.80175900293761E-10           254021.203125          101324.6015625        288.123504638672        0.10002239793539    -0.00051792170646568                       0 
      -1.81740870435218                     0.6        1.22508597373962        41.6967582702637   -4.86175229117506E-10           254021.203125          101324.6015625        288.123504638672        0.10002239793539   -0.000517921746212376                       0 
      -1.81490745372686                     0.6        1.22508597373962        41.6967582702637   -4.92482053385252E-10           254021.203125          101324.6015625        288.123504638672        0.10002239793539   -0.000517921785959073                       0 
      -1.81240620310155                     0.6        1.22508597373962        41.6967582702637   -4.98788877652997E-10           254021.203125          101324.6015625        288.123504638672        0.10002239793539   -0.000517921825705769                       0 
      -1.80990495247624                     0.6        1.22508597373962        41.6967582702637   -5.05095701920743E-10           254021.203125          101324.6015625        288.123504638672        0.10002239793539   -0.000517921865452466                       0 
      -1.80740370185093                     0.6        1.22508597373962        41.6967582702637   -5.11402526188489E-10           254021.203125          101324.6015625        288.123504638672        0.10002239793539   -0.000517921905199163                       0 
      -1.80490245122561                     0.6        1.22508597373962        41.6967582702637   -5.17709350456235E-10           254021.203125          101324.6015625        288.123504638672        0.10002239793539   -0.000517921944945859                       0 
       -1.8024012006003                     0.6        1.22508597373962        41.6967582702637   -5.24016174723981E-10           254021.203125          101324.6015625        288.123504638672        0.10002239793539   -0.000517921984692556                       0 
      -1.79989994997499                     0.6        1.22508597373962        41.6967582702637   -5.30322998991727E-10           254021.203125          101324.6015625        288.123504638672        0.10002239793539   -0.000517922024439253                       0 
      -1.79739869934967                     0.6        1.22508597373962        41.6967582702637   -5.36629823259472E-10           254021.203125          101324.6015625        288.123504638672        0.10002239793539   -0.000517922064185949                       0 
      -1.79489744872436                     0.6        1.22508597373962        41.6967582702637   -5.42936647527218E-10           254021.203125          101324.6015625        288.123504638672        0.10002239793539   -0.000517922103932646                       0 
      -1.79239619809905                     0.6        1.22508597373962        41.6967582702637   -5.48923108606752E-10           254021.203125          101324.6015625        288.123504638672        0.10002239793539    -0.00051792214648946                       0 
      -1.78989494747374                     0.6        1.22508597373962        41.6967582702637   -5.54906282628912E-10           254021.203125          101324.6015625        288.123504638672        0.10002239793539   -0.000517922189075108                       0 
      -1.78739369684842                     0.6        1.22508597373962        41.6967582702637   -5.60889456651072E-10           254021.203125          101324.6015625        288.123504638672        0.10002239793539   -0.000517922231660755                       0 
      -1.78489244622311                     0.6        1.22508597373962        41.6967582702637   -5.66872630673231E-10           254021.203125          101324.6015625        288.123504638672        0.10002239793539   -0.000517922274246402                       0 
       -1.7823911955978                     0.6        1.22508597373962        41.6967582702637   -5.72855804695391E-10           254021.203125          101324.6015625        288.123504638672        0.10002239793539    -0.00051792231683205                       0 
      -1.77988994497249                     0.6        1.22508597373962        41.6967582702637    -5.7883897871755E-10           254021.203125          101324.6015625        288.123504638672        0.10002239793539   -0.000517922359417697                       0 
      -1.77738869434717                     0.6        1.22508597373962        41.6967582702637   -5.84822152739711E-10           254021.203125          101324.6015625        288.123504638672        0.10002239793539   -0.000517922402003345                       0 
      -1.77488744372186                     0.6        1.22508597373962        41.6967582702637    -5.9080532676187E-10           254021.203125          101324.6015625        288.123504638672        0.10002239793539   -0.000517922444588992                       0 
      -1.77238619309655                     0.6        1.22508597373962        41.6967582702637    -5.9678850078403E-10           254021.203125          101324.6015625        288.123504638672        0.10002239793539    -0.00051792248717464                       0 
      -1.76988494247124                     0.6        1.22508597373962        41.6967582702637   -6.02471864124674E-10           254021.203125          101324.6015625        288.123504638672        0.10002239793539   -0.000517922529760287                       0 
      -1.76738369184592                     0.6        1.22508597373962        41.6967582702637   -6.07918378749408E-10           254021.203125          101324.6015625        288.123504638672        0.10002239793539   -0.000517922572345934                       0 
      -1.76488244122061                     0.6        1.22508597373962        41.6967582702637    -6.1385779555202E-10           254021.203125          101324.6015625        288.123504638672        0.10002239793539   -0.000517922614931582                       0 
       -1.7623811905953                     0.6        1.22508597373962        41.6967582702637    -6.1984096957418E-10           254021.203125          101324.6015625        288.123504638672        0.10002239793539   -0.000517922657517229                       0 
      -1.75987993996998                     0.6        1.22508597373962        41.6967582702637    -6.2582414359634E-10           254021.203125          101324.6015625        288.123504638672        0.10002239793539   -0.000517922700102877                       0 
      -1.75737868934467                     0.6        1.22508597373962        41.6967582702637     -6.318073176185E-10           254021.203125          101324.6015625        288.123504638672        0.10002239793539   -0.000517922742688524                       0 
      -1.75487743871936                     0.6        1.22508597373962        41.6967582702637   -6.37790491640659E-10           254021.203125          101324.6015625        288.123504638672        0.10002239793539   -0.000517922785274171                       0 
      -1.75237618809405                     0.6        1.22508597373962        41.6967582702637   -6.43773665662819E-10           254021.203125          101324.6015625        288.123504638672        0.10002239793539   -0.000517922827859819                       0 
      -1.74987493746873                     0.6        1.22508597373962        41.6967582702637   -6.49756839684979E-10           254021.203125          101324.6015625        288.123504638672        0.10002239793539   -0.000517922870445466                       0 
      -1.74737368684342                     0.6        1.22508597373962        41.6967582702637   -6.55740013707138E-10           254021.203125          101324.6015625        288.123504638672        0.10002239793539   -0.000517922913031113                       0 
      -1.74487243621811                     0.6        1.22508597373962        41.6967582702637   -6.61723187729298E-10           254021.203125          101324.6015625        288.123504638672        0.10002239793539   -0.000517922955616761                       0 
       -1.7423711855928                     0.6        1.22508597373962        41.6967582702637   -6.67544639007077E-10           254021.203125          101324.6015625        288.123504638672        0.10002239793539   -0.000517922996818997                       0 
      -1.73986993496748                     0.6        1.22508597373962        41.6967582702637   -6.73195924915658E-10           254021.203125          101324.6015625        288.123504638672        0.10002239793539   -0.000517923036565601                       0 
      -1.73736868434217                     0.6        1.22508597373962        41.6967582702637    -6.7884721082424E-10           254021.203125          101324.6015625        288.123504638672        0.10002239793539   -0.000517923076312205                       0 
      -1.73486743371686                     0.6        1.22508597373962        41.6967582702637   -6.84498496732822E-10           254021.203125          101324.6015625        288.123504638672        0.10002239793539   -0.000517923116058809                       0 
      -1.73236618309155                     0.6        1.22508597373962        41.6967582702637   -6.90149782641404E-10           254021.203125          101324.6015625        288.123504638672        0.10002239793539   -0.000517923155805414                       0 
      -1.72986493246623                     0.6        1.22508597373962        41.6967582702637   -6.95801068549985E-10           254021.203125          101324.6015625        288.123504638672        0.10002239793539   -0.000517923195552018                       0 
      -1.72736368184092                     0.6        1.22508597373962        41.6967582702637   -7.01452354458567E-10           254021.203125          101324.6015625        288.123504638672        0.10002239793539   -0.000517923235298622                       0 
      -1.72486243121561                     0.6        1.22508597373962        41.6967582702637   -7.07103640367149E-10           254021.203125          101324.6015625        288.123504638672        0.10002239793539   -0.000517923275045226                       0 
       -1.7223611805903                     0.6        1.22508597373962        41.6967582702637   -7.12754926275731E-10           254021.203125          101324.6015625        288.123504638672        0.10002239793539   -0.000517923314791831                       0 