TITLE = "Visualization of the volumetric solution"
VARIABLES = "x","y","Density","Momentum_x","Momentum_y","Energy","Pressure","Temperature","Mach","C<sub>p</sub>","Roe_Dissipation"
ZONE NODES= 2400, ELEMENTS= 2291, DATAPACKING=POINT, ZONETYPE=FEQUADRILATERAL
0.000000e+00	1.250000e+00	1.225091e+00	4.167981e+01	1.223801e-02	2.540221e+05	1.013252e+05	2.881240e+02	9.998128e-02	3.060731e-04	0.000000e+00	
0.000000e+00	1.218354e+00	1.225091e+00	4.167981e+01	1.218975e-02	2.540220e+05	1.013252e+05	2.881240e+02	9.998129e-02	3.018798e-04	0.000000e+00	
3.448276e-02	1.218354e+00	1.225091e+00	4.167979e+01	1.200455e-01	2.540221e+05	1.013252e+05	2.881240e+02	9.998164e-02	3.016685e-04	0.000000e+00	
3.448276e-02	1.250000e+00	1.225091e+00	4.167980e+01	1.200386e-01	2.540220e+05	1.013252e+05	2.881240e+02	9.998168e-02	2.994333e-04	0.000000e+00	
0.000000e+00	1.186709e+00	1.225091e+00	4.167982e+01	1.216896e-02	2.540221e+05	1.013252e+05	2.881240e+02	9.998130e-02	3.047692e-04	0.000000e+00	
3.448276e-02	1.186709e+00	1.225091e+00	4.167979e+01	1.200388e-01	2.540220e+05	1.013252e+05	2.881240e+02	9.998166e-02	3.003783e-04	0.000000e+00	
0.000000e+00	1.155063e+00	1.225091e+00	4.167981e+01	1.215714e-02	2.540221e+05	1.013252e+05	2.881240e+02	9.998129e-02	3.056183e-04	0.000000e+00	
3.448276e-02	1.155063e+00	1.225091e+00	4.167980e+01	1.200355e-01	2.540220e+05	1.013252e+05	2.881240e+02	9.998167e-02	3.001071e-04	0.000000e+00	
0.000000e+00	1.123418e+00	1.225091e+00	4.167981e+01	1.215156e-02	2.540221e+05	1.013252e+05	2.881240e+02	9.998128e-02	3.058368e-04	0.000000e+00	
3.448276e-02	1.123418e+00	1.225091e+00	4.167980e+01	1.200337e-01	2.540220e+05	1.013252e+05	2.881240e+02	9.998167e-02	2.997907e-04	0.000000e+00	
0.000000e+00	1.091772e+00	1.225091e+00	4.167981e+01	1.214921e-02	2.540221e+05	1.013252e+05	2.881240e+02	9.998128e-02	3.059732e-04	0.000000e+00	
3.448276e-02	1.091772e+00	1.225091e+00	4.167980e+01	1.200333e-01	2.540220e+05	1.013252e+05	2.881240e+02	9.998167e-02	2.997037e-04	0.000000e+00	
0.000000e+00	1.060127e+00	1.225091e+00	4.167981e+01	1.214790e-02	2.540221e+05	1.013252e+05	2.881240e+02	9.998128e-02	3.060058e-04	0.000000e+00	
3.448276e-02	1.060127e+00	1.225091e+00	4.167980e+01	1.200330e-01	2.540220e+05	1.013252e+05	2.881240e+02	9.998167e-02	2.995927e-04	0.000000e+00	
0.000000e+00	1.028481e+00	1.225091e+00	4.167981e+01	1.214710e-02	2.540221e+05	1.013252e+05	2.881240e+02	9.998128e-02	3.060369e-04	0.000000e+00	
3.448276e-02	1.028481e+00	1.225091e+00	4.167980e+01	1.200330e-01	2.540220e+05	1.013252e+05	2.881240e+02	9.998168e-02	2.995561e-04	0.000000e+00	
0.000000e+00	9.968354e-01	1.225091e+00	4.167981e+01	1.214658e-02	2.540221e+05	1.013252e+05	2.881240e+02	9.998128e-02	3.060490e-04	0.000000e+00	
3.448276e-02	9.968354e-01	1.225091e+00	4.167980e+01	1.200329e-01	2.540220e+05	1.013252e+05	2.881240e+02	9.998168e-02	2.995173e-04	0.000000e+00	
0.000000e+00	9.651899e-01	1.225091e+00	4.167981e+01	1.214628e-02	2.540221e+05	1.013252e+05	2.881240e+02	9.998128e-02	3.060602e-04	0.000000e+00	
3.448276e-02	9.651899e-01	1.225091e+00	4.167980e+01	1.200328e-01	2.540220e+05	1.013252e+05	2.881240e+02	9.998168e-02	2.995013e-04	0.000000e+00	
0.000000e+00	9.335443e-01	1.225091e+00	4.167981e+01	1.214610e-02	2.540221e+05	1.013252e+05	2.881240e+02	9.998128e-02	3.060641e-04	0.000000e+00	
3.448276e-02	9.335443e-01	1.225091e+00	4.167980e+01	1.200328e-01	2.540220e+05	1.013252e+05	2.881240e+02	9.998168e-02	2.994863e-04	0.000000e+00	
0.000000e+00	9.018987e-01	1.225091e+00	4.167981e+01	1.214601e-02	2.540221e+05	1.013252e+05	2.881240e+02	9.998128e-02	3.060669e-04	0.000000e+00	
3.448276e-02	9.018987e-01	1.225091e+00	4.167980e+01	1.200327e-01	2.540220e+05	1.013252e+05	2.881240e+02	9.998168e-02	2.994790e-04	0.000000e+00	
0.000000e+00	8.702532e-01	1.225091e+00	4.167981e+01	1.214595e-02	2.540221e+05	1.013252e+05	2.881240e+02	9.998128e-02	3.060673e-04	0.000000e+00	
3.448276e-02	8.702532e-01	1.225091e+00	4.167980e+01	1.200327e-01	2.540220e+05	1.013252e+05	2.881240e+02	9.998168e-02	2.994726e-04	0.000000e+00	
0.000000e+00	8.386076e-01	1.225091e+00	4.167981e+01	1.214592e-02	2.540221e+05	1.013252e+05	2.881240e+02	9.998128e-02	3.060676e-04	0.000000e+00	
3.448276e-02	8.386076e-01	1.225091e+00	4.167980e+01	1.200327e-01	2.540220e+05	1.013252e+05	2.881240e+02	9.998168e-02	2.994690e-04	0.000000e+00	
0.000000e+00	8.069620e-01	1.225091e+00	4.167981e+01	1.214590e-02	2.540221e+05	1.013252e+05	2.881240e+02	9.998128e-02	3.060673e-04	0.000000e+00	
3.448276e-02	8.069620e-01	1.225091e+00	4.167980e+01	1.200327e-01	2.540220e+05	1.013252e+05	2.881240e+02	9.998168e-02	2.994660e-04	0.000000e+00	
0.000000e+00	7.753165e-01	1.225091e+00	4.167981e+01	1.214588e-02	2.540221e+05	1.013252e+05	2.881240e+02	9.998128e-02	3.060670e-04	0.000000e+00	
3.448276e-02	7.753165e-01	1.225091e+00	4.167980e+01	1.200327e-01	2.540220e+05	1.013252e+05	2.881240e+02	9.998168e-02	2.994641e-04	0.000000e+00	
0.000000e+00	7.436709e-01	1.225091e+00	4.167981e+01	1.214587e-02	2.540221e+05	1.013252e+05	2.881240e+02	9.998128e-02	3.060665e-04	0.000000e+00	
3.448276e-02	7.436709e-01	1.225091e+00	4.167980e+01	1.200327e-01	2.540220e+05	1.013252e+05	2.881240e+02	9.998168e-02	2.994626e-04	0.000000e+00	
0.000000e+00	7.120253e-01	1.225091e+00	4.167981e+01	1.214587e-02	2.540221e+05	1.013252e+05	2.881240e+02	9.998128e-02	3.060662e-04	0.000000e+00	
3.448276e-02	7.120253e-01	1.225091e+00	4.167980e+01	1.200327e-01	2.540220e+05	1.013252e+05	2.881240e+02	9.998168e-02	2.994615e-04	0.000000e+00	
0.000000e+00	6.803797e-01	1.225091e+00	4.167981e+01	1.214587e-02	2.540221e+05	1.013252e+05	2.881240e+02	9.998128e-02	3.060658e-04	0.000000e+00	
3.448276e-02	6.803797e-01	1.225091e+00	4.167980e+01	1.200327e-01	2.540220e+05	1.013252e+05	2.881240e+02	9.998168e-02	2.994607e-04	0.000000e+00	
0.000000e+00	6.487342e-01	1.225091e+00	4.167981e+01	1.214587e-02	2.540221e+05	1.013252e+05	2.881240e+02	9.998128e-02	3.060655e-04	0.000000e+00	
3.448276e-02	6.487342e-01	1.225091e+00	4.167980e+01	1.200328e-01	2.540220e+05	1.013252e+05	2.881240e+02	9.998168e-02	2.994601e-04	0.000000e+00	
0.000000e+00	6.170886e-01	1.225091e+00	4.167981e+01	1.214587e-02	2.540221e+05	1.013252e+05	2.881240e+02	9.998128e-02	3.060652e-04	0.000000e+00	
3.448276e-02	6.170886e-01	1.225091e+00	4.167980e+01	1.200328e-01	2.540220e+05	1.013252e+05	2.881240e+02	9.998168e-02	2.994596e-04	0.000000e+00	
0.000000e+00	5.854430e-01	1.225091e+00	4.167981e+01	1.214587e-02	2.540221e+05	1.013252e+05	2.881240e+02	9.998128e-02	3.060649e-04	0.000000e+00	
3.448276e-02	5.854430e-01	1.225091e+00	4.167980e+01	1.200328e-01	2.540220e+05	1.013252e+05	2.881240e+02	9.998168e-02	2.994592e-04	0.000000e+00	
0.000000e+00	5.537975e-01	1.225091e+00	4.167981e+01	1.214587e-02	2.540221e+05	1.013252e+05	2.881240e+02	9.998128e-02	3.060647e-04	0.000000e+00	
3.448276e-02	5.537975e-01	1.225091e+00	4.167980e+01	1.200328e-01	2.540220e+05	1.013252e+05	2.881240e+02	9.998168e-02	2.994590e-04	0.000000e+00	
0.000000e+00	5.221519e-01	1.225091e+00	4.167981e+01	1.214587e-02	2.540221e+05	1.013252e+05	2.881240e+02	9.998128e-02	3.060645e-04	0.000000e+00	
3.448276e-02	5.221519e-01	1.225091e+00	4.167980e+01	1.200328e-01	2.540220e+05	1.013252e+05	2.881240e+02	9.998168e-02	2.994587e-04	0.000000e+00	
0.000000e+00	4.905063e-01	1.225091e+00	4.167981e+01	1.214587e-02	2.540221e+05	1.013252e+05	2.881240e+02	9.998128e-02	3.060644e-04	0.000000e+00	
3.448276e-02	4.905063e-01	1.225091e+00	4.167980e+01	1.200328e-01	2.540220e+05	1.013252e+05	2.881240e+02	9.998168e-02	2.994586e-04	0.000000e+00	
0.000000e+00	4.588608e-01	1.225091e+00	4.167981e+01	1.214588e-02	2.540221e+05	1.013252e+05	2.881240e+02	9.998128e-02	3.060643e-04	0.000000e+00	
3.448276e-02	4.588608e-01	1.225091e+00	4.167980e+01	1.200328e-01	2.540220e+05	1.013252e+05	2.881240e+02	9.998168e-02	2.994584e-04	0.000000e+00	
0.000000e+00	4.272152e-01	1.225091e+00	4.167981e+01	1.214588e-02	2.540221e+05	1.013252e+05	2.881240e+02	9.998128e-02	3.060642e-04	0.000000e+00	
3.448276e-02	4.272152e-01	1.225091e+00	4.167980e+01	1.200328e-01	2.540220e+05	1.013252e+05	2.881240e+02	9.998168e-02	2.994583e-04	0.000000e+00	
0.000000e+00	3.955696e-01	1.225091e+00	4.167981e+01	1.214588e-02	2.540221e+05	1.013252e+05	2.881240e+02	9.998128e-02	3.060641e-04	0.000000e+00	
3.448276e-02	3.955696e-01	1.225091e+00	4.167980e+01	1.200328e-01	2.540220e+05	1.013252e+05	2.881240e+02	9.998168e-02	2.994582e-04	0.000000e+00	
0.000000e+00	3.639241e-01	1.225091e+00	4.167981e+01	1.214588e-02	2.540221e+05	1.013252e+05	2.881240e+02	9.998128e-02	3.060641e-04	0.000000e+00	
3.448276e-02	3.639241e-01	1.225091e+00	4.167980e+01	1.200328e-01	2.540220e+05	1.013252e+05	2.881240e+02	9.998168e-02	2.994582e-04	0.000000e+00	
0.000000e+00	3.322785e-01	1.225091e+00	4.167981e+01	1.214588e-02	2.540221e+05	1.013252e+05	2.881240e+02	9.998128e-02	3.060640e-04	0.000000e+00	
3.448276e-02	3.322785e-01	1.225091e+00	4.167980e+01	1.200328e-01	2.540220e+05	1.013252e+05	2.881240e+02	9.998168e-02	2.994581e-04	0.000000e+00	
0.000000e+00	3.006329e-01	1.225091e+00	4.167981e+01	1.214588e-02	2.540221e+05	1.013252e+05	2.881240e+02	9.998128e-02	3.060640e-04	0.000000e+00	
3.448276e-02	3.006329e-01	1.225091e+00	4.167980e+01	1.200328e-01	2.540220e+05	1.013252e+05	2.881240e+02	9.998168e-02	2.994581e-04	0.000000e+00	
0.000000e+00	2.689873e-01	1.225091e+00	4.167981e+01	1.214588e-02	2.540221e+05	1.013252e+05	2.881240e+02	9.998128e-02	3.060640e-04	0.000000e+00	
3.448276e-02	2.689873e-01	1.225091e+00	4.167980e+01	1.200328e-01	2.540220e+05	1.013252e+05	2.881240e+02	9.998168e-02	2.994581e-04	0.000000e+00	
0.000000e+00	2.373418e-01	1.225091e+00	4.167981e+01	1.214588e-02	2.540221e+05	1.013252e+05	2.881240e+02	9.998128e-02	3.060639e-04	0.000000e+00	
3.448276e-02	2.373418e-01	1.225091e+00	4.167980e+01	1.200328e-01	2.540220e+05	1.013252e+05	2.881240e+02	9.998168e-02	2.994581e-04	0.000000e+00	
0.000000e+00	2.056962e-01	1.225091e+00	4.167981e+01	1.214589e-02	2.540221e+05	1.013252e+05	2.881240e+02	9.998128e-02	3.060639e-04	0.000000e+00	
3.448276e-02	2.056962e-01	1.225091e+00	4.167980e+01	1.200328e-01	2.540220e+05	1.013252e+05	2.881240e+02	9.998168e-02	2.994581e-04	0.000000e+00	
0.000000e+00	1.740506e-01	1.225091e+00	4.167981e+01	1.214589e-02	2.540221e+05	1.013252e+05	2.881240e+02	9.998128e-02	3.060639e-04	0.000000e+00	
3.448276e-02	1.740506e-01	1.225091e+00	4.167980e+01	1.200328e-01	2.540220e+05	1.013252e+05	2.881240e+02	9.998168e-02	2.994581e-04	0.000000e+00	
0.000000e+00	1.424051e-01	1.225091e+00	4.167981e+01	1.214589e-02	2.540221e+05	1.013252e+05	2.881240e+02	9.998128e-02	3.060639e-04	0.000000e+00	
3.448276e-02	1.424051e-01	1.225091e+00	4.167980e+01	1.200328e-01	2.540220e+05	1.013252e+05	2.881240e+02	9.998168e-02	2.994581e-04	0.000000e+00	
0.000000e+00	1.107595e-01	1.225091e+00	4.167981e+01	1.214589e-02	2.540221e+05	1.013252e+05	2.881240e+02	9.998128e-02	3.060639e-04	0.000000e+00	
3.448276e-02	1.107595e-01	1.225091e+00	4.167980e+01	1.200328e-01	2.540220e+05	1.013252e+05	2.881240e+02	9.998168e-02	2.994581e-04	0.000000e+00	
0.000000e+00	7.911392e-02	1.225091e+00	4.167981e+01	1.214589e-02	2.540221e+05	1.013252e+05	2.881240e+02	9.998128e-02	3.060639e-04	0.000000e+00	
3.448276e-02	7.911392e-02	1.225091e+00	4.167980e+01	1.200328e-01	2.540220e+05	1.013252e+05	2.881240e+02	9.998168e-02	2.994581e-04	0.000000e+00	
0.000000e+00	4.746835e-02	1.225091e+00	4.167981e+01	1.214589e-02	2.540221e+05	1.013252e+05	2.881240e+02	9.998128e-02	3.060639e-04	0.000000e+00	
3.448276e-02	4.746835e-02	1.225091e+00	4.167980e+01	1.200328e-01	2.540220e+05	1.013252e+05	2.881240e+02	9.998168e-02	2.994581e-04	0.000000e+00	
0.000000e+00	1.582278e-02	1.225091e+00	4.167981e+01	1.214589e-02	2.540221e+05	1.013252e+05	2.881240e+02	9.998128e-02	3.060639e-04	0.000000e+00	
3.448276e-02	1.582278e-02	1.225091e+00	4.167980e+01	1.200328e-01	2.540220e+05	1.013252e+05	2.881240e+02	9.998168e-02	2.994581e-04	0.000000e+00	
0.000000e+00	-1.582278e-02	1.225091e+00	4.167981e+01	1.214589e-02	2.540221e+05	1.013252e+05	2.881240e+02	9.998128e-02	3.060640e-04	0.000000e+00	
3.448276e-02	-1.582278e-02	1.225091e+00	4.167980e+01	1.200328e-01	2.540220e+05	1.013252e+05	2.881240e+02	9.998168e-02	2.994581e-04	0.000000e+00	
0.000000e+00	-4.746835e-02	1.225091e+00	4.167981e+01	1.214589e-02	2.540221e+05	1.013252e+05	2.881240e+02	9.998128e-02	3.060640e-04	0.000000e+00	
3.448276e-02	-4.746835e-02	1.225091e+00	4.167980e+01	1.200328e-01	2.540220e+05	1.013252e+05	2.881240e+02	9.998168e-02	2.994581e-04	0.000000e+00	
0.000000e+00	-7.911392e-02	1.225091e+00	4.167981e+01	1.214589e-02	2.540221e+05	1.013252e+05	2.881240e+02	9.998128e-02	3.060640e-04	0.000000e+00	
3.448276e-02	-7.911392e-02	1.225091e+00	4.167980e+01	1.200328e-01	2.540220e+05	1.013252e+05	2.881240e+02	9.998168e-02	2.994582e-04	0.000000e+00	
0.000000e+00	-1.107595e-01	1.225091e+00	4.167981e+01	1.214589e-02	2.540221e+05	1.013252e+05	2.881240e+02	9.998128e-02	3.060640e-04	0.000000e+00	
3.448276e-02	-1.107595e-01	1.225091e+00	4.167980e+01	1.200328e-01	2.540220e+05	1.013252e+05	2.881240e+02	9.998168e-02	2.994582e-04	0.000000e+00	
0.000000e+00	-1.424051e-01	1.225091e+00	4.167981e+01	1.214589e-02	2.540221e+05	1.013252e+05	2.881240e+02	9.998128e-02	3.060640e-04	0.000000e+00	
3.448276e-02	-1.424051e-01	1.225091e+00	4.167980e+01	1.200328e-01	2.540220e+05	1.013252e+05	2.881240e+02	9.998168e-02	2.994582e-04	0.000000e+00	
0.000000e+00	-1.740506e-01	1.225091e+00	4.167981e+01	1.214589e-02	2.540221e+05	1.013252e+05	2.881240e+02	9.998128e-02	3.060640e-04	0.000000e+00	
3.448276e-02	-1.740506e-01	1.225091e+00	4.167980e+01	1.200328e-01	2.540220e+05	1.013252e+05	2.881240e+02	9.998168e-02	2.994582e-04	0.000000e+00	
0.000000e+00	-2.056962e-01	1.225091e+00	4.167981e+01	1.214589e-02	2.540221e+05	1.013252e+05	2.881240e+02	9.998128e-02	3.060640e-04	0.000000e+00	
3.448276e-02	-2.056962e-01	1.225091e+00	4.167980e+01	1.200328e-01	2.540220e+05	1.013252e+05	2.881240e+02	9.998168e-02	2.994582e-04	0.000000e+00	
0.000000e+00	-2.373418e-01	1.225091e+00	4.167981e+01	1.214588e-02	2.540221e+05	1.013252e+05	2.881240e+02	9.998128e-02	3.060639e-04	0.000000e+00	
3.448276e-02	-2.373418e-01	1.225091e+00	4.167980e+01	1.200328e-01	2.540220e+05	1.013252e+05	2.881240e+02	9.998168e-02	2.994582e-04	0.000000e+00	
0.000000e+00	-2.689873e-01	1.225091e+00	4.167981e+01	1.214588e-02	2.540221e+05	1.013252e+05	2.881240e+02	9.998128e-02	3.060639e-04	0.000000e+00	
3.448276e-02	-2.689873e-01	1.225091e+00	4.167980e+01	1.200328e-01	2.540220e+05	1.013252e+05	2.881240e+02	9.998168e-02	2.994581e-04	0.000000e+00	
0.000000e+00	-3.006329e-01	1.225091e+00	4.167981e+01	1.214588e-02	2.540221e+05	1.013252e+05	2.881240e+02	9.998128e-02	3.060639e-04	0.000000e+00	
3.448276e-02	-3.006329e-01	1.225091e+00	4.167980e+01	1.200328e-01	2.540220e+05	1.013252e+05	2.881240e+02	9.998168e-02	2.994581e-04	0.000000e+00	
0.000000e+00	-3.322785e-01	1.225091e+00	4.167981e+01	1.214588e-02	2.540221e+05	1.013252e+05	2.881240e+02	9.998128e-02	3.060639e-04	0.000000e+00	
3.448276e-02	-3.322785e-01	1.225091e+00	4.167980e+01	1.200328e-01	2.540220e+05	1.013252e+05	2.881240e+02	9.998168e-02	2.994581e-04	0.000000e+00	
0.000000e+00	-3.639241e-01	1.225091e+00	4.167981e+01	1.214588e-02	2.540221e+05	1.013252e+05	2.881240e+02	9.998128e-02	3.060638e-04	0.000000e+00	
3.448276e-02	-3.639241e-01	1.225091e+00	4.167980e+01	1.200328e-01	2.540220e+05	1.013252e+05	2.881240e+02	9.998168e-02	2.994580e-04	0.000000e+00	
0.000000e+00	-3.955696e-01	1.225091e+00	4.167981e+01	1.214588e-02	2.540221e+05	1.013252e+05	2.881240e+02	9.998128e-02	3.060637e-04	0.000000e+00	
3.448276e-02	-3.955696e-01	1.225091e+00	4.167980e+01	1.200328e-01	2.540220e+05	1.013252e+05	2.881240e+02	9.998168e-02	2.994580e-04	0.000000e+00	
0.000000e+00	-4.272152e-01	1.225091e+00	4.167981e+01	1.214588e-02	2.540221e+05	1.013252e+05	2.881240e+02	9.998128e-02	3.060637e-04	0.000000e+00	
3.448276e-02	-4.272152e-01	1.225091e+00	4.167980e+01	1.200328e-01	2.540220e+05	1.013252e+05	2.881240e+02	9.998168e-02	2.994579e-04	0.000000e+00	
0.000000e+00	-4.588608e-01	1.225091e+00	4.167981e+01	1.214588e-02	2.540221e+05	1.013252e+05	2.881240e+02	9.998128e-02	3.060636e-04	0.000000e+00	
3.448276e-02	-4.588608e-01	1.225091e+00	4.167980e+01	1.200328e-01	2.540220e+05	1.013252e+05	2.881240e+02	9.998168e-02	2.994578e-04	0.000000e+00	
0.000000e+00	-4.905063e-01	1.225091e+00	4.167981e+01	1.214587e-02	2.540221e+05	1.013252e+05	2.881240e+02	9.998128e-02	3.060634e-04	0.000000e+00	
3.448276e-02	-4.905063e-01	1.225091e+00	4.167980e+01	1.200328e-01	2.540220e+05	1.013252e+05	2.881240e+02	9.998168e-02	2.994576e-04	0.000000e+00	
0.000000e+00	-5.221519e-01	1.225091e+00	4.167981e+01	1.214587e-02	2.540221e+05	1.013252e+05	2.881240e+02	9.998128e-02	3.060633e-04	0.000000e+00	
3.448276e-02	-5.221519e-01	1.225091e+00	4.167980e+01	1.200328e-01	2.540220e+05	1.013252e+05	2.881240e+02	9.998168e-02	2.994574e-04	0.000000e+00	
0.000000e+00	-5.537975e-01	1.225091e+00	4.167981e+01	1.214587e-02	2.540221e+05	1.013252e+05	2.881240e+02	9.998128e-02	3.060631e-04	0.000000e+00	
3.448276e-02	-5.537975e-01	1.225091e+00	4.167980e+01	1.200328e-01	2.540220e+05	1.013252e+05	2.881240e+02	9.998168e-02	2.994572e-04	0.000000e+00	
0.000000e+00	-5.854430e-01	1.225091e+00	4.167981e+01	1.214587e-02	2.540221e+05	1.013252e+05	2.881240e+02	9.998128e-02	3.060629e-04	0.000000e+00	
3.448276e-02	-5.854430e-01	1.225091e+00	4.167980e+01	1.200328e-01	2.540220e+05	1.013252e+05	2.881240e+02	9.998168e-02	2.994569e-04	0.000000e+00	
0.000000e+00	-6.170886e-01	1.225091e+00	4.167981e+01	1.214587e-02	2.540221e+05	1.013252e+05	2.881240e+02	9.998128e-02	3.060627e-04	0.000000e+00	
3.448276e-02	-6.170886e-01	1.225091e+00	4.167980e+01	1.200328e-01	2.540220e+05	1.013252e+05	2.881240e+02	9.998168e-02	2.994565e-04	0.000000e+00	
0.000000e+00	-6.487342e-01	1.225091e+00	4.167981e+01	1.214587e-02	2.540221e+05	1.013252e+05	2.881240e+02	9.998128e-02	3.060624e-04	0.000000e+00	
3.448276e-02	-6.487342e-01	1.225091e+00	4.167980e+01	1.200328e-01	2.540220e+05	1.013252e+05	2.881240e+02	9.998168e-02	2.994560e-04	0.000000e+00	
0.000000e+00	-6.803797e-01	1.225091e+00	4.167981e+01	1.214587e-02	2.540221e+05	1.013252e+05	2.881240e+02	9.998128e-02	3.060620e-04	0.000000e+00	
3.448276e-02	-6.803797e-01	1.225091e+00	4.167980e+01	1.200328e-01	2.540220e+05	1.013252e+05	2.881240e+02	9.998168e-02	2.994554e-04	0.000000e+00	
0.000000e+00	-7.120253e-01	1.225091e+00	4.167981e+01	1.214587e-02	2.540221e+05	1.013252e+05	2.881240e+02	9.998128e-02	3.060616e-04	0.000000e+00	
3.448276e-02	-7.120253e-01	1.225091e+00	4.167980e+01	1.200327e-01	2.540220e+05	1.013252e+05	2.881240e+02	9.998168e-02	2.994546e-04	0.000000e+00	
0.000000e+00	-7.436709e-01	1.225091e+00	4.167981e+01	1.214588e-02	2.540221e+05	1.013252e+05	2.881240e+02	9.998128e-02	3.060613e-04	0.000000e+00	
3.448276e-02	-7.436709e-01	1.225091e+00	4.167980e+01	1.200327e-01	2.540220e+05	1.013252e+05	2.881240e+02	9.998168e-02	2.994535e-04	0.000000e+00	
0.000000e+00	-7.753165e-01	1.225091e+00	4.167981e+01	1.214589e-02	2.540221e+05	1.013252e+05	2.881240e+02	9.998128e-02	3.060608e-04	0.000000e+00	
3.448276e-02	-7.753165e-01	1.225091e+00	4.167980e+01	1.200327e-01	2.540220e+05	1.013252e+05	2.881240e+02	9.998168e-02	2.994520e-04	0.000000e+00	
0.000000e+00	-8.069620e-01	1.225091e+00	4.167981e+01	1.214590e-02	2.540221e+05	1.013252e+05	2.881240e+02	9.998128e-02	3.060605e-04	0.000000e+00	
3.448276e-02	-8.069620e-01	1.225091e+00	4.167980e+01	1.200327e-01	2.540220e+05	1.013252e+05	2.881240e+02	9.998168e-02	2.994501e-04	0.000000e+00	
0.000000e+00	-8.386076e-01	1.225091e+00	4.167981e+01	1.214593e-02	2.540221e+05	1.013252e+05	2.881240e+02	9.998128e-02	3.060602e-04	0.000000e+00	
3.448276e-02	-8.386076e-01	1.225091e+00	4.167980e+01	1.200327e-01	2.540220e+05	1.013252e+05	2.881240e+02	9.998168e-02	2.994471e-04	0.000000e+00	
0.000000e+00	-8.702532e-01	1.225091e+00	4.167981e+01	1.214596e-02	2.540221e+05	1.013252e+05	2.881240e+02	9.998128e-02	3.060605e-04	0.000000e+00	
3.448276e-02	-8.702532e-01	1.225091e+00	4.167980e+01	1.200327e-01	2.540220e+05	1.013252e+05	2.881240e+02	9.998168e-02	2.994434e-04	0.000000e+00	
0.000000e+00	-9.018987e-01	1.225091e+00	4.167981e+01	1.214602e-02	2.540221e+05	1.013252e+05	2.881240e+02	9.998128e-02	3.060610e-04	0.000000e+00	
3.448276e-02	-9.018987e-01	1.225091e+00	4.167980e+01	1.200328e-01	2.540220e+05	1.013252e+05	2.881240e+02	9.998168e-02	2.994370e-04	0.000000e+00	
0.000000e+00	-9.335443e-01	1.225091e+00	4.167981e+01	1.214611e-02	2.540221e+05	1.013252e+05	2.881240e+02	9.998128e-02	3.060638e-04	0.000000e+00	
3.448276e-02	-9.335443e-01	1.225091e+00	4.167980e+01	1.200328e-01	2.540220e+05	1.013252e+05	2.881240e+02	9.998168e-02	2.994295e-04	0.000000e+00	
0.000000e+00	-9.651899e-01	1.225091e+00	4.167981e+01	1.214629e-02	2.540221e+05	1.013252e+05	2.881240e+02	9.998128e-02	3.060677e-04	0.000000e+00	
3.448276e-02	-9.651899e-01	1.225091e+00	4.167980e+01	1.200328e-01	2.540220e+05	1.013252e+05	2.881240e+02	9.998168e-02	2.994144e-04	0.000000e+00	
0.000000e+00	-9.968354e-01	1.225091e+00	4.167981e+01	1.214659e-02	2.540221e+05	1.013252e+05	2.881240e+02	9.998129e-02	3.060790e-04	0.000000e+00	
3.448276e-02	-9.968354e-01	1.225091e+00	4.167980e+01	1.200329e-01	2.540220e+05	1.013252e+05	2.881240e+02	9.998168e-02	2.993983e-04	0.000000e+00	
0.000000e+00	-1.028481e+00	1.225091e+00	4.167981e+01	1.214712e-02	2.540221e+05	1.013252e+05	2.881240e+02	9.998129e-02	3.060913e-04	0.000000e+00	
3.448276e-02	-1.028481e+00	1.225091e+00	4.167980e+01	1.200330e-01	2.540220e+05	1.013252e+05	2.881240e+02	9.998168e-02	2.993593e-04	0.000000e+00	
0.000000e+00	-1.060127e+00	1.225091e+00	4.167981e+01	1.214792e-02	2.540221e+05	1.013252e+05	2.881240e+02	9.998129e-02	3.061226e-04	0.000000e+00	
3.448276e-02	-1.060127e+00	1.225091e+00	4.167980e+01	1.200331e-01	2.540220e+05	1.013252e+05	2.881240e+02	9.998168e-02	2.993223e-04	0.000000e+00	
0.000000e+00	-1.091772e+00	1.225091e+00	4.167981e+01	1.214923e-02	2.540221e+05	1.013252e+05	2.881240e+02	9.998129e-02	3.061556e-04	0.000000e+00	
3.448276e-02	-1.091772e+00	1.225091e+00	4.167980e+01	1.200333e-01	2.540220e+05	1.013252e+05	2.881240e+02	9.998169e-02	2.992106e-04	0.000000e+00	
0.000000e+00	-1.123418e+00	1.225091e+00	4.167981e+01	1.215160e-02	2.540221e+05	1.013252e+05	2.881240e+02	9.998128e-02	3.062922e-04	0.000000e+00	
3.448276e-02	-1.123418e+00	1.225091e+00	4.167981e+01	1.200337e-01	2.540220e+05	1.013252e+05	2.881240e+02	9.998169e-02	2.991223e-04	0.000000e+00	
0.000000e+00	-1.155063e+00	1.225091e+00	4.167981e+01	1.215717e-02	2.540221e+05	1.013252e+05	2.881240e+02	9.998128e-02	3.065118e-04	0.000000e+00	
3.448276e-02	-1.155063e+00	1.225091e+00	4.167981e+01	1.200355e-01	2.540220e+05	1.013252e+05	2.881240e+02	9.998169e-02	2.988045e-04	0.000000e+00	
0.000000e+00	-1.186709e+00	1.225091e+00	4.167980e+01	1.216899e-02	2.540221e+05	1.013252e+05	2.881240e+02	9.998127e-02	3.073616e-04	0.000000e+00	
3.448276e-02	-1.186709e+00	1.225091e+00	4.167981e+01	1.200388e-01	2.540220e+05	1.013252e+05	2.881240e+02	9.998170e-02	2.985281e-04	0.000000e+00	
0.000000e+00	-1.218354e+00	1.225091e+00	4.167981e+01	1.218977e-02	2.540221e+05	1.013252e+05	2.881240e+02	9.998127e-02	3.102483e-04	0.000000e+00	
3.448276e-02	-1.218354e+00	1.225091e+00	4.167982e+01	1.200454e-01	2.540220e+05	1.013252e+05	2.881240e+02	9.998171e-02	2.972407e-04	0.000000e+00	
6.896552e-02	1.218354e+00	1.225091e+00	4.167980e+01	2.151678e-01	2.540220e+05	1.013252e+05	2.881240e+02	9.998261e-02	2.787104e-04	0.000000e+00	
6.896552e-02	1.250000e+00	1.225091e+00	4.167981e+01	2.151574e-01	2.540220e+05	1.013252e+05	2.881240e+02	9.998262e-02	2.779005e-04	0.000000e+00	
6.896552e-02	1.186709e+00	1.225091e+00	4.167980e+01	2.151693e-01	2.540220e+05	1.013252e+05	2.881240e+02	9.998261e-02	2.776975e-04	0.000000e+00	
6.896552e-02	1.155063e+00	1.225091e+00	4.167980e+01	2.151714e-01	2.540220e+05	1.013252e+05	2.881240e+02	9.998261e-02	2.779979e-04	0.000000e+00	
6.896552e-02	1.123418e+00	1.225091e+00	4.167980e+01	2.151713e-01	2.540220e+05	1.013252e+05	2.881240e+02	9.998261e-02	2.778451e-04	0.000000e+00	
6.896552e-02	1.091772e+00	1.225091e+00	4.167980e+01	2.151717e-01	2.540220e+05	1.013252e+05	2.881240e+02	9.998262e-02	2.779105e-04	0.000000e+00	
6.896552e-02	1.060127e+00	1.225091e+00	4.167980e+01	2.151717e-01	2.540220e+05	1.013252e+05	2.881240e+02	9.998262e-02	2.778767e-04	0.000000e+00	
6.896552e-02	1.028481e+00	1.225091e+00	4.167981e+01	2.151718e-01	2.540220e+05	1.013252e+05	2.881240e+02	9.998262e-02	2.778947e-04	0.000000e+00	
6.896552e-02	9.968354e-01	1.225091e+00	4.167981e+01	2.151718e-01	2.540220e+05	1.013252e+05	2.881240e+02	9.998262e-02	2.778849e-04	0.000000e+00	
6.896552e-02	9.651899e-01	1.225091e+00	4.167981e+01	2.151718e-01	2.540220e+05	1.013252e+05	2.881240e+02	9.998262e-02	2.778892e-04	0.000000e+00	
6.896552e-02	9.335443e-01	1.225091e+00	4.167981e+01	2.151718e-01	2.540220e+05	1.013252e+05	2.881240e+02	9.998262e-02	2.778854e-04	0.000000e+00	
6.896552e-02	9.018987e-01	1.225091e+00	4.167981e+01	2.151718e-01	2.540220e+05	1.013252e+05	2.881240e+02	9.998262e-02	2.778858e-04	0.000000e+00	
6.896552e-02	8.702532e-01	1.225091e+00	4.167981e+01	2.151718e-01	2.540220e+05	1.013252e+05	2.881240e+02	9.998262e-02	2.778839e-04	0.000000e+00	
6.896552e-02	8.386076e-01	1.225091e+00	4.167981e+01	2.151719e-01	2.540220e+05	1.013252e+05	2.881240e+02	9.998262e-02	2.778834e-04	0.000000e+00	
6.896552e-02	8.069620e-01	1.225091e+00	4.167981e+01	2.151719e-01	2.540220e+05	1.013252e+05	2.881240e+02	9.998262e-02	2.778822e-04	0.000000e+00	
6.896552e-02	7.753165e-01	1.225091e+00	4.167981e+01	2.151719e-01	2.540220e+05	1.013252e+05	2.881240e+02	9.998262e-02	2.778816e-04	0.000000e+00	
6.896552e-02	7.436709e-01	1.225091e+00	4.167981e+01	2.151719e-01	2.540220e+05	1.013252e+05	2.881240e+02	9.998262e-02	2.778808e-04	0.000000e+00	
6.896552e-02	7.120253e-01	1.225091e+00	4.167981e+01	2.151719e-01	2.540220e+05	1.013252e+05	2.881240e+02	9.998262e-02	2.778803e-04	0.000000e+00	
6.896552e-02	6.803797e-01	1.225091e+00	4.167981e+01	2.151719e-01	2.540220e+05	1.013252e+05	2.881240e+02	9.998262e-02	2.778798e-04	0.000000e+00	
6.896552e-02	6.487342e-01	1.225091e+00	4.167981e+01	2.151719e-01	2.540220e+05	1.013252e+05	2.881240e+02	9.998262e-02	2.778794e-04	0.000000e+00	
6.896552e-02	6.170886e-01	1.225091e+00	4.167981e+01	2.151719e-01	2.540220e+05	1.013252e+05	2.881240e+02	9.998262e-02	2.778791e-04	0.000000e+00	
6.896552e-02	5.854430e-01	1.225091e+00	4.167981e+01	2.151719e-01	2.540220e+05	1.013252e+05	2.881240e+02	9.998262e-02	2.778788e-04	0.000000e+00	
6.896552e-02	5.537975e-01	1.225091e+00	4.167981e+01	2.151719e-01	2.540220e+05	1.013252e+05	2.881240e+02	9.998262e-02	2.778786e-04	0.000000e+00	
6.896552e-02	5.221519e-01	1.225091e+00	4.167981e+01	2.151719e-01	2.540220e+05	1.013252e+05	2.881240e+02	9.998262e-02	2.778785e-04	0.000000e+00	
6.896552e-02	4.905063e-01	1.225091e+00	4.167981e+01	2.151719e-01	2.540220e+05	1.013252e+05	2.881240e+02	9.998262e-02	2.778783e-04	0.000000e+00	
6.896552e-02	4.588608e-01	1.225091e+00	4.167981e+01	2.151719e-01	2.540220e+05	1.013252e+05	2.881240e+02	9.998262e-02	2.778782e-04	0.000000e+00	
6.896552e-02	4.272152e-01	1.225091e+00	4.167981e+01	2.151719e-01	2.540220e+05	1.013252e+05	2.881240e+02	9.998262e-02	2.778782e-04	0.000000e+00	
6.896552e-02	3.955696e-01	1.225091e+00	4.167981e+01	2.151719e-01	2.540220e+05	1.013252e+05	2.881240e+02	9.998262e-02	2.778781e-04	0.000000e+00	
6.896552e-02	3.639241e-01	1.225091e+00	4.167981e+01	2.151719e-01	2.540220e+05	1.013252e+05	2.881240e+02	9.998262e-02	2.778781e-04	0.000000e+00	
6.896552e-02	3.322785e-01	1.225091e+00	4.167981e+01	2.151719e-01	2.540220e+05	1.013252e+05	2.881240e+02	9.998262e-02	2.778780e-04	0.000000e+00	
6.896552e-02	3.006329e-01	1.225091e+00	4.167981e+01	2.151719e-01	2.540220e+05	1.013252e+05	2.881240e+02	9.998262e-02	2.778780e-04	0.000000e+00	
6.896552e-02	2.689873e-01	1.225091e+00	4.167981e+01	2.151719e-01	2.540220e+05	1.013252e+05	2.881240e+02	9.998262e-02	2.778780e-04	0.000000e+00	
6.896552e-02	2.373418e-01	1.225091e+00	4.167981e+01	2.151719e-01	2.540220e+05	1.013252e+05	2.881240e+02	9.998262e-02	2.778780e-04	0.000000e+00	
6.896552e-02	2.056962e-01	1.225091e+00	4.167981e+01	2.151719e-01	2.540220e+05	1.013252e+05	2.881240e+02	9.998262e-02	2.778780e-04	0.000000e+00	
6.896552e-02	1.740506e-01	1.225091e+00	4.167981e+01	2.151719e-01	2.540220e+05	1.013252e+05	2.881240e+02	9.998262e-02	2.778780e-04	0.000000e+00	
6.896552e-02	1.424051e-01	1.225091e+00	4.167981e+01	2.151719e-01	2.540220e+05	1.013252e+05	2.881240e+02	9.998262e-02	2.778780e-04	0.000000e+00	
6.896552e-02	1.107595e-01	1.225091e+00	4.167981e+01	2.151719e-01	2.540220e+05	1.013252e+05	2.881240e+02	9.998262e-02	2.778780e-04	0.000000e+00	
6.896552e-02	7.911392e-02	1.225091e+00	4.167981e+01	2.151719e-01	2.540220e+05	1.013252e+05	2.881240e+02	9.998262e-02	2.778780e-04	0.000000e+00	
6.896552e-02	4.746835e-02	1.225091e+00	4.167981e+01	2.151719e-01	2.540220e+05	1.013252e+05	2.881240e+02	9.998262e-02	2.778781e-04	0.000000e+00	
6.896552e-02	1.582278e-02	1.225091e+00	4.167981e+01	2.151719e-01	2.540220e+05	1.013252e+05	2.881240e+02	9.998262e-02	2.778781e-04	0.000000e+00	
6.896552e-02	-1.582278e-02	1.225091e+00	4.167981e+01	2.151719e-01	2.540220e+05	1.013252e+05	2.881240e+02	9.998262e-02	2.778781e-04	0.000000e+00	
6.896552e-02	-4.746835e-02	1.225091e+00	4.167981e+01	2.151719e-01	2.540220e+05	1.013252e+05	2.881240e+02	9.998262e-02	2.778781e-04	0.000000e+00	
6.896552e-02	-7.911392e-02	1.225091e+00	4.167981e+01	2.151719e-01	2.540220e+05	1.013252e+05	2.881240e+02	9.998262e-02	2.778781e-04	0.000000e+00	
6.896552e-02	-1.107595e-01	1.225091e+00	4.167981e+01	2.151719e-01	2.540220e+05	1.013252e+05	2.881240e+02	9.998262e-02	2.778781e-04	0.000000e+00	
6.896552e-02	-1.424051e-01	1.225091e+00	4.167981e+01	2.151719e-01	2.540220e+05	1.013252e+05	2.881240e+02	9.998262e-02	2.778782e-04	0.000000e+00	
6.896552e-02	-1.740506e-01	1.225091e+00	4.167981e+01	2.151719e-01	2.540220e+05	1.013252e+05	2.881240e+02	9.998262e-02	2.778782e-04	0.000000e+00	
6.896552e-02	-2.056962e-01	1.225091e+00	4.167981e+01	2.151719e-01	2.540220e+05	1.013252e+05	2.881240e+02	9.998262e-02	2.778782e-04	0.000000e+00	