TITLE = "SU2 Simulation"
VARIABLES = "Iteration","CL","CD","CSF","CMx","CMy","CMz","CFx","CFy","CFz","CL/CD","AoA","Custom_ObjFunc","Res_Flow[0]","Res_Flow[1]","Res_Flow[2]","Res_Flow[3]","Res_Flow[4]","Linear_Solver_Iterations","CFL_Number","Time(min)"
ZONE T= "Convergence history"
           0, 0.00000000e+00, 0.00000000e+00, 0.00000000e+00, 0.00000000e+00, 0.00000000e+00, 0.00000000e+00, 0.00000000e+00, 0.00000000e+00, 0.00000000e+00, 0.00000000e+00, 0.00000000e+00, 0.00000000e+00, -1.62443716e+01, -1.32514528e+01, -8.78282705e-01, -1.09138774e+01, 0.00000000e+00, 5.0000000000, 5.0000000000, 0.0018862963
           1, 0.00000000e+00, 0.00000000e+00, 0.00000000e+00, 0.00000000e+00, 0.00000000e+00, 0.00000000e+00, 0.00000000e+00, 0.00000000e+00, 0.00000000e+00, 0.00000000e+00, 0.00000000e+00, 0.00000000e+00, -5.46982272e+00, -3.80832341e+00, -8.87097191e-01, -1.86343308e-02, 0.00000000e+00, 5.0000000000, 5.0000000000, 0.0041208741
           2, 0.00000000e+00, 0.00000000e+00, 0.00000000e+00, 0.00000000e+00, 0.00000000e+00, 0.00000000e+00, 0.00000000e+00, 0.00000000e+00, 0.00000000e+00, 0.00000000e+00, 0.00000000e+00, 0.00000000e+00, -5.37125953e+00, -3.60387724e+00, -8.95911526e-01, 7.43933077e-02, 0.00000000e+00, 5.0000000000, 5.0000000000, 0.0059826144
           3, 0.00000000e+00, 0.00000000e+00, 0.00000000e+00, 0.00000000e+00, 0.00000000e+00, 0.00000000e+00, 0.00000000e+00, 0.00000000e+00, 0.00000000e+00, 0.00000000e+00, 0.00000000e+00, 0.00000000e+00, -5.42788395e+00, -3.52745470e+00, -9.04715808e-01, 1.23177472e-02, 0.00000000e+00, 5.0000000000, 5.0000000000, 0.0080010854
           4, 0.00000000e+00, 0.00000000e+00, 0.00000000e+00, 0.00000000e+00, 0.00000000e+00, 0.00000000e+00, 0.00000000e+00, 0.00000000e+00, 0.00000000e+00, 0.00000000e+00, 0.00000000e+00, 0.00000000e+00, -5.53764443e+00, -3.49206894e+00, -9.13544255e-01, -9.86629606e-02, 0.00000000e+00, 5.0000000000, 5.0000000000, 0.0096582270
           5, 0.00000000e+00, 0.00000000e+00, 0.00000000e+00, 0.00000000e+00, 0.00000000e+00, 0.00000000e+00, 0.00000000e+00, 0.00000000e+00, 0.00000000e+00, 0.00000000e+00, 0.00000000e+00, 0.00000000e+00, -5.63150862e+00, -3.46855372e+00, -9.22405419e-01, -1.84155232e-01, 0.00000000e+00, 5.0000000000, 5.0000000000, 0.0113246461
           6, 0.00000000e+00, 0.00000000e+00, 0.00000000e+00, 0.00000000e+00, 0.00000000e+00, 0.00000000e+00, 0.00000000e+00, 0.00000000e+00, 0.00000000e+00, 0.00000000e+00, 0.00000000e+00, 0.00000000e+00, -5.68368129e+00, -3.44844548e+00, -9.31292254e-01, -2.25314964e-01, 0.00000000e+00, 5.0000000000, 5.0000000000, 0.0129939015
           7, 0.00000000e+00, 0.00000000e+00, 0.00000000e+00, 0.00000000e+00, 0.00000000e+00, 0.00000000e+00, 0.00000000e+00, 0.00000000e+00, 0.00000000e+00, 0.00000000e+00, 0.00000000e+00, 0.00000000e+00, -5.71757022e+00, -3.43067450e+00, -9.40197012e-01, -2.53358084e-01, 0.00000000e+00, 5.0000000000, 5.0000000000, 0.0146609815
           8, 0.00000000e+00, 0.00000000e+00, 0.00000000e+00, 0.00000000e+00, 0.00000000e+00, 0.00000000e+00, 0.00000000e+00, 0.00000000e+00, 0.00000000e+00, 0.00000000e+00, 0.00000000e+00, 0.00000000e+00, -5.74960503e+00, -3.41535961e+00, -9.49115425e-01, -2.83775749e-01, 0.00000000e+00, 5.0000000000, 5.0000000000, 0.0163253005
           9, 0.00000000e+00, 0.00000000e+00, 0.00000000e+00, 0.00000000e+00, 0.00000000e+00, 0.00000000e+00, 0.00000000e+00, 0.00000000e+00, 0.00000000e+00, 0.00000000e+00, 0.00000000e+00, 0.00000000e+00, -5.78018182e+00, -3.40255791e+00, -9.58046160e-01, -3.14684759e-01, 0.00000000e+00, 5.0000000000, 5.0000000000, 0.0183642311
          10, 0.00000000e+00, 0.00000000e+00, 0.00000000e+00, 0.00000000e+00, 0.00000000e+00, 0.00000000e+00, 0.00000000e+00, 0.00000000e+00, 0.00000000e+00, 0.00000000e+00, 0.00000000e+00, 0.00000000e+00, -5.80742867e+00, -3.39235820e+00, -9.66989654e-01, -3.42788033e-01, 0.00000000e+00, 5.0000000000, 5.0000000000, 0.0201872943
          11, 0.00000000e+00, 0.00000000e+00, 0.00000000e+00, 0.00000000e+00, 0.00000000e+00, 0.00000000e+00, 0.00000000e+00, 0.00000000e+00, 0.00000000e+00, 0.00000000e+00, 0.00000000e+00, 0.00000000e+00, -5.83141149e+00, -3.38483850e+00, -9.75947066e-01, -3.67453099e-01, 0.00000000e+00, 5.0000000000, 5.0000000000, 0.0219116082
          12, 0.00000000e+00, 0.00000000e+00, 0.00000000e+00, 0.00000000e+00, 0.00000000e+00, 0.00000000e+00, 0.00000000e+00, 0.00000000e+00, 0.00000000e+00, 0.00000000e+00, 0.00000000e+00, 0.00000000e+00, -5.85264492e+00, -3.37997315e+00, -9.84919497e-01, -3.89026245e-01, 0.00000000e+00, 5.0000000000, 5.0000000000, 0.0237794501
          13, 0.00000000e+00, 0.00000000e+00, 0.00000000e+00, 0.00000000e+00, 0.00000000e+00, 0.00000000e+00, 0.00000000e+00, 0.00000000e+00, 0.00000000e+00, 0.00000000e+00, 0.00000000e+00, 0.00000000e+00, -5.87127374e+00, -3.37764144e+00, -9.93907554e-01, -4.07762074e-01, 0.00000000e+00, 5.0000000000, 5.0000000000, 0.0257059574
          14, 0.00000000e+00, 0.00000000e+00, 0.00000000e+00, 0.00000000e+00, 0.00000000e+00, 0.00000000e+00, 0.00000000e+00, 0.00000000e+00, 0.00000000e+00, 0.00000000e+00, 0.00000000e+00, 0.00000000e+00, -5.88739920e+00, -3.37767977e+00, -1.00291126e+00, -4.23925334e-01, 0.00000000e+00, 5.0000000000, 5.0000000000, 0.0277521918
          15, 0.00000000e+00, 0.00000000e+00, 0.00000000e+00, 0.00000000e+00, 0.00000000e+00, 0.00000000e+00, 0.00000000e+00, 0.00000000e+00, 0.00000000e+00, 0.00000000e+00, 0.00000000e+00, 0.00000000e+00, -5.90132549e+00, -3.37990717e+00, -1.01193020e+00, -4.37920065e-01, 0.00000000e+00, 5.0000000000, 5.0000000000, 0.0297875220
          16, 0.00000000e+00, 0.00000000e+00, 0.00000000e+00, 0.00000000e+00, 0.00000000e+00, 0.00000000e+00, 0.00000000e+00, 0.00000000e+00, 0.00000000e+00, 0.00000000e+00, 0.00000000e+00, 0.00000000e+00, -5.91349592e+00, -3.38411657e+00, -1.02096369e+00, -4.50210951e-01, 0.00000000e+00, 5.0000000000, 5.0000000000, 0.0316190344
          17, 0.00000000e+00, 0.00000000e+00, 0.00000000e+00, 0.00000000e+00, 0.00000000e+00, 0.00000000e+00, 0.00000000e+00, 0.00000000e+00, 0.00000000e+00, 0.00000000e+00, 0.00000000e+00, 0.00000000e+00, -5.92439249e+00, -3.39004702e+00, -1.03001100e+00, -4.61257122e-01, 0.00000000e+00, 5.0000000000, 5.0000000000, 0.0332907991
          18, 0.00000000e+00, 0.00000000e+00, 0.00000000e+00, 0.00000000e+00, 0.00000000e+00, 0.00000000e+00, 0.00000000e+00, 0.00000000e+00, 0.00000000e+00, 0.00000000e+00, 0.00000000e+00, 0.00000000e+00, -5.93451015e+00, -3.39733508e+00, -1.03907146e+00, -4.71521244e-01, 0.00000000e+00, 5.0000000000, 5.0000000000, 0.0349542990
          19, 0.00000000e+00, 0.00000000e+00, 0.00000000e+00, 0.00000000e+00, 0.00000000e+00, 0.00000000e+00, 0.00000000e+00, 0.00000000e+00, 0.00000000e+00, 0.00000000e+00, 0.00000000e+00, 0.00000000e+00, -5.94435732e+00, -3.40541479e+00, -1.04814448e+00, -4.81485034e-01, 0.00000000e+00, 5.0000000000, 5.0000000000, 0.0366225400
          20, 0.00000000e+00, 0.00000000e+00, 0.00000000e+00, 0.00000000e+00, 0.00000000e+00, 0.00000000e+00, 0.00000000e+00, 0.00000000e+00, 0.00000000e+00, 0.00000000e+00, 0.00000000e+00, 0.00000000e+00, -5.95440550e+00, -3.41329946e+00, -1.05722962e+00, -4.91591387e-01, 0.00000000e+00, 5.0000000000, 5.0000000000, 0.0383076642
          21, 0.00000000e+00, 0.00000000e+00, 0.00000000e+00, 0.00000000e+00, 0.00000000e+00, 0.00000000e+00, 0.00000000e+00, 0.00000000e+00, 0.00000000e+00, 0.00000000e+00, 0.00000000e+00, 0.00000000e+00, -5.96487114e+00, -3.41913554e+00, -1.06632654e+00, -5.01993655e-01, 0.00000000e+00, 5.0000000000, 5.0000000000, 0.0399789385
          22, 0.00000000e+00, 0.00000000e+00, 0.00000000e+00, 0.00000000e+00, 0.00000000e+00, 0.00000000e+00, 0.00000000e+00, 0.00000000e+00, 0.00000000e+00, 0.00000000e+00, 0.00000000e+00, 0.00000000e+00, -5.97508434e+00, -3.41942852e+00, -1.07543518e+00, -5.11853415e-01, 0.00000000e+00, 5.0000000000, 5.0000000000, 0.0417475105
          23, 0.00000000e+00, 0.00000000e+00, 0.00000000e+00, 0.00000000e+00, 0.00000000e+00, 0.00000000e+00, 0.00000000e+00, 0.00000000e+00, 0.00000000e+00, 0.00000000e+00, 0.00000000e+00, 0.00000000e+00, -5.98201932e+00, -3.40817073e+00, -1.08455577e+00, -5.17752436e-01, 0.00000000e+00, 5.0000000000, 5.0000000000, 0.0438452675
          24, 0.00000000e+00, 0.00000000e+00, 0.00000000e+00, 0.00000000e+00, 0.00000000e+00, 0.00000000e+00, 0.00000000e+00, 0.00000000e+00, 0.00000000e+00, 0.00000000e+00, 0.00000000e+00, 0.00000000e+00, -5.97783277e+00, -3.37717658e+00, -1.09368909e+00, -5.11185237e-01, 0.00000000e+00, 5.0000000000, 5.0000000000, 0.0462959060
          25, 0.00000000e+00, 0.00000000e+00, 0.00000000e+00, 0.00000000e+00, 0.00000000e+00, 0.00000000e+00, 0.00000000e+00, 0.00000000e+00, 0.00000000e+00, 0.00000000e+00, 0.00000000e+00, 0.00000000e+00, -5.94886684e+00, -3.31973036e+00, -1.10283635e+00, -4.78098116e-01, 0.00000000e+00, 5.0000000000, 5.0000000000, 0.0480556561
          26, 0.00000000e+00, 0.00000000e+00, 0.00000000e+00, 0.00000000e+00, 0.00000000e+00, 0.00000000e+00, 0.00000000e+00, 0.00000000e+00, 0.00000000e+00, 0.00000000e+00, 0.00000000e+00, 0.00000000e+00, -5.88302427e+00, -3.23604712e+00, -1.11199826e+00, -4.07438413e-01, 0.00000000e+00, 5.0000000000, 5.0000000000, 0.0497313013
          27, 0.00000000e+00, 0.00000000e+00, 0.00000000e+00, 0.00000000e+00, 0.00000000e+00, 0.00000000e+00, 0.00000000e+00, 0.00000000e+00, 0.00000000e+00, 0.00000000e+00, 0.00000000e+00, 0.00000000e+00, -5.78283213e+00, -3.13381409e+00, -1.12117331e+00, -3.03628796e-01, 0.00000000e+00, 5.0000000000, 5.0000000000, 0.0514170075
          28, 0.00000000e+00, 0.00000000e+00, 0.00000000e+00, 0.00000000e+00, 0.00000000e+00, 0.00000000e+00, 0.00000000e+00, 0.00000000e+00, 0.00000000e+00, 0.00000000e+00, 0.00000000e+00, 0.00000000e+00, -5.66370966e+00, -3.02291135e+00, -1.13035817e+00, -1.82671039e-01, 0.00000000e+00, 5.0000000000, 5.0000000000, 0.0530921620
          29, 0.00000000e+00, 0.00000000e+00, 0.00000000e+00, 0.00000000e+00, 0.00000000e+00, 0.00000000e+00, 0.00000000e+00, 0.00000000e+00, 0.00000000e+00, 0.00000000e+00, 0.00000000e+00, 0.00000000e+00, -5.54047671e+00, -2.91105347e+00, -1.13955003e+00, -5.87943411e-02, 0.00000000e+00, 5.0000000000, 5.0000000000, 0.0547724963
          30, 0.00000000e+00, 0.00000000e+00, 0.00000000e+00, 0.00000000e+00, 0.00000000e+00, 0.00000000e+00, 0.00000000e+00, 0.00000000e+00, 0.00000000e+00, 0.00000000e+00, 0.00000000e+00, 0.00000000e+00, -5.42165040e+00, -2.80298005e+00, -1.14874758e+00, 6.01120656e-02, 0.00000000e+00, 5.0000000000, 5.0000000000, 0.0564427096
          31, 0.00000000e+00, 0.00000000e+00, 0.00000000e+00, 0.00000000e+00, 0.00000000e+00, 0.00000000e+00, 0.00000000e+00, 0.00000000e+00, 0.00000000e+00, 0.00000000e+00, 0.00000000e+00, 0.00000000e+00, -5.31100814e+00, -2.70127664e+00, -1.15795043e+00, 1.70615650e-01, 0.00000000e+00, 5.0000000000, 5.0000000000, 0.0581103212
          32, 0.00000000e+00, 0.00000000e+00, 0.00000000e+00, 0.00000000e+00, 0.00000000e+00, 0.00000000e+00, 0.00000000e+00, 0.00000000e+00, 0.00000000e+00, 0.00000000e+00, 0.00000000e+00, 0.00000000e+00, -5.20993980e+00, -2.60726904e+00, -1.16715854e+00, 2.71476853e-01, 0.00000000e+00, 5.0000000000, 5.0000000000, 0.0597817382
          33, 0.00000000e+00, 0.00000000e+00, 0.00000000e+00, 0.00000000e+00, 0.00000000e+00, 0.00000000e+00, 0.00000000e+00, 0.00000000e+00, 0.00000000e+00, 0.00000000e+00, 0.00000000e+00, 0.00000000e+00, -5.11880599e+00, -2.52160446e+00, -1.17637201e+00, 3.62392580e-01, 0.00000000e+00, 5.0000000000, 5.0000000000, 0.0614515034
          34, 0.00000000e+00, 0.00000000e+00, 0.00000000e+00, 0.00000000e+00, 0.00000000e+00, 0.00000000e+00, 0.00000000e+00, 0.00000000e+00, 0.00000000e+00, 0.00000000e+00, 0.00000000e+00, 0.00000000e+00, -5.03755932e+00, -2.44457317e+00, -1.18559091e+00, 4.43428684e-01, 0.00000000e+00, 5.0000000000, 5.0000000000, 0.0631230225
          35, 0.00000000e+00, 0.00000000e+00, 0.00000000e+00, 0.00000000e+00, 0.00000000e+00, 0.00000000e+00, 0.00000000e+00, 0.00000000e+00, 0.00000000e+00, 0.00000000e+00, 0.00000000e+00, 0.00000000e+00, -4.96600502e+00, -2.37627626e+00, -1.19481530e+00, 5.14782976e-01, 0.00000000e+00, 5.0000000000, 5.0000000000, 0.0653911251
          36, 0.00000000e+00, 0.00000000e+00, 0.00000000e+00, 0.00000000e+00, 0.00000000e+00, 0.00000000e+00, 0.00000000e+00, 0.00000000e+00, 0.00000000e+00, 0.00000000e+00, 0.00000000e+00, 0.00000000e+00, -4.90390396e+00, -2.31671075e+00, -1.20404523e+00, 5.76692054e-01, 0.00000000e+00, 5.0000000000, 5.0000000000, 0.0677106688
          37, 0.00000000e+00, 0.00000000e+00, 0.00000000e+00, 0.00000000e+00, 0.00000000e+00, 0.00000000e+00, 0.00000000e+00, 0.00000000e+00, 0.00000000e+00, 0.00000000e+00, 0.00000000e+00, 0.00000000e+00, -4.85100781e+00, -2.26581061e+00, -1.21328071e+00, 6.29399995e-01, 0.00000000e+00, 5.0000000000, 5.0000000000, 0.0695044301
          38, 0.00000000e+00, 0.00000000e+00, 0.00000000e+00, 0.00000000e+00, 0.00000000e+00, 0.00000000e+00, 0.00000000e+00, 0.00000000e+00, 0.00000000e+00, 0.00000000e+00, 0.00000000e+00, 0.00000000e+00, -4.80706368e+00, -2.22346247e+00, -1.22252175e+00, 6.73155325e-01, 0.00000000e+00, 5.0000000000, 5.0000000000, 0.0711895408
          39, 0.00000000e+00, 0.00000000e+00, 0.00000000e+00, 0.00000000e+00, 0.00000000e+00, 0.00000000e+00, 0.00000000e+00, 0.00000000e+00, 0.00000000e+00, 0.00000000e+00, 0.00000000e+00, 0.00000000e+00, -4.77180207e+00, -2.18950448e+00, -1.23176838e+00, 7.08223720e-01, 0.00000000e+00, 5.0000000000, 5.0000000000, 0.0728614356
          40, 0.00000000e+00, 0.00000000e+00, 0.00000000e+00, 0.00000000e+00, 0.00000000e+00, 0.00000000e+00, 0.00000000e+00, 0.00000000e+00, 0.00000000e+00, 0.00000000e+00, 0.00000000e+00, 0.00000000e+00, -4.74491179e+00, -2.16371022e+00, -1.24102062e+00, 7.34913433e-01, 0.00000000e+00, 5.0000000000, 5.0000000000, 0.0745457953
          41, 0.00000000e+00, 0.00000000e+00, 0.00000000e+00, 0.00000000e+00, 0.00000000e+00, 0.00000000e+00, 0.00000000e+00, 0.00000000e+00, 0.00000000e+00, 0.00000000e+00, 0.00000000e+00, 0.00000000e+00, -4.72600056e+00, -2.14575620e+00, -1.25027848e+00, 7.53615251e-01, 0.00000000e+00, 5.0000000000, 5.0000000000, 0.0762313067
          42, 0.00000000e+00, 0.00000000e+00, 0.00000000e+00, 0.00000000e+00, 0.00000000e+00, 0.00000000e+00, 0.00000000e+00, 0.00000000e+00, 0.00000000e+00, 0.00000000e+00, 0.00000000e+00, 0.00000000e+00, -4.71453687e+00, -2.13516875e+00, -1.25954199e+00, 7.64861403e-01, 0.00000000e+00, 5.0000000000, 5.0000000000, 0.0779130938
          43, 0.00000000e+00, 0.00000000e+00, 0.00000000e+00, 0.00000000e+00, 0.00000000e+00, 0.00000000e+00, 0.00000000e+00, 0.00000000e+00, 0.00000000e+00, 0.00000000e+00, 0.00000000e+00, 0.00000000e+00, -4.70976882e+00, -2.13124571e+00, -1.26881117e+00, 7.69408110e-01, 0.00000000e+00, 5.0000000000, 5.0000000000, 0.0795913400
          44, 0.00000000e+00, 0.00000000e+00, 0.00000000e+00, 0.00000000e+00, 0.00000000e+00, 0.00000000e+00, 0.00000000e+00, 0.00000000e+00, 0.00000000e+00, 0.00000000e+00, 0.00000000e+00, 0.00000000e+00, -4.71062019e+00, -2.13295232e+00, -1.27808596e+00, 7.68341447e-01, 0.00000000e+00, 5.0000000000, 5.0000000000, 0.0812711109
          45, 0.00000000e+00, 0.00000000e+00, 0.00000000e+00, 0.00000000e+00, 0.00000000e+00, 0.00000000e+00, 0.00000000e+00, 0.00000000e+00, 0.00000000e+00, 0.00000000e+00, 0.00000000e+00, 0.00000000e+00, -4.71558012e+00, -2.13880637e+00, -1.28736629e+00, 7.63189698e-01, 0.00000000e+00, 5.0000000000, 5.0000000000, 0.0829572407
          46, 0.00000000e+00, 0.00000000e+00, 0.00000000e+00, 0.00000000e+00, 0.00000000e+00, 0.00000000e+00, 0.00000000e+00, 0.00000000e+00, 0.00000000e+00, 0.00000000e+00, 0.00000000e+00, 0.00000000e+00, -4.72263743e+00, -2.14680256e+00, -1.29665198e+00, 7.55989708e-01, 0.00000000e+00, 5.0000000000, 5.0000000000, 0.0846276344
          47, 0.00000000e+00, 0.00000000e+00, 0.00000000e+00, 0.00000000e+00, 0.00000000e+00, 0.00000000e+00, 0.00000000e+00, 0.00000000e+00, 0.00000000e+00, 0.00000000e+00, 0.00000000e+00, 0.00000000e+00, -4.72935870e+00, -2.15447760e+00, -1.30594276e+00, 7.49204957e-01, 0.00000000e+00, 5.0000000000, 5.0000000000, 0.0863022642
          48, 0.00000000e+00, 0.00000000e+00, 0.00000000e+00, 0.00000000e+00, 0.00000000e+00, 0.00000000e+00, 0.00000000e+00, 0.00000000e+00, 0.00000000e+00, 0.00000000e+00, 0.00000000e+00, 0.00000000e+00, -4.73322569e+00, -2.15924220e+00, -1.31523825e+00, 7.45377125e-01, 0.00000000e+00, 5.0000000000, 5.0000000000, 0.0881405591
          49, 0.00000000e+00, 0.00000000e+00, 0.00000000e+00, 0.00000000e+00, 0.00000000e+00, 0.00000000e+00, 0.00000000e+00, 0.00000000e+00, 0.00000000e+00, 0.00000000e+00, 0.00000000e+00, 0.00000000e+00, -4.73223893e+00, -2.15900202e+00, -1.32453797e+00, 7.46507098e-01, 0.00000000e+00, 5.0000000000, 5.0000000000, 0.0899421354
          50, 0.00000000e+00, 0.00000000e+00, 0.00000000e+00, 0.00000000e+00, 0.00000000e+00, 0.00000000e+00, 0.00000000e+00, 0.00000000e+00, 0.00000000e+00, 0.00000000e+00, 0.00000000e+00, 0.00000000e+00, -4.72554177e+00, -2.15282365e+00, -1.33384131e+00, 7.53423059e-01, 0.00000000e+00, 5.0000000000, 5.0000000000, 0.0917606192
          51, 0.00000000e+00, 0.00000000e+00, 0.00000000e+00, 0.00000000e+00, 0.00000000e+00, 0.00000000e+00, 0.00000000e+00, 0.00000000e+00, 0.00000000e+00, 0.00000000e+00, 0.00000000e+00, 0.00000000e+00, -4.71365799e+00, -2.14121052e+00, -1.34314765e+00, 7.65552902e-01, 0.00000000e+00, 5.0000000000, 5.0000000000, 0.0934412218
          52, 0.00000000e+00, 0.00000000e+00, 0.00000000e+00, 0.00000000e+00, 0.00000000e+00, 0.00000000e+00, 0.00000000e+00, 0.00000000e+00, 0.00000000e+00, 0.00000000e+00, 0.00000000e+00, 0.00000000e+00, -4.69816209e+00, -2.12577496e+00, -1.35245644e+00, 7.81275637e-01, 0.00000000e+00, 5.0000000000, 5.0000000000, 0.0954814411
          53, 0.00000000e+00, 0.00000000e+00, 0.00000000e+00, 0.00000000e+00, 0.00000000e+00, 0.00000000e+00, 0.00000000e+00, 0.00000000e+00, 0.00000000e+00, 0.00000000e+00, 0.00000000e+00, 0.00000000e+00, -4.68103302e+00, -2.10856094e+00, -1.36176725e+00, 7.98583708e-01, 0.00000000e+00, 5.0000000000, 5.0000000000, 0.0972849678
          54, 0.00000000e+00, 0.00000000e+00, 0.00000000e+00, 0.00000000e+00, 0.00000000e+00, 0.00000000e+00, 0.00000000e+00, 0.00000000e+00, 0.00000000e+00, 0.00000000e+00, 0.00000000e+00, 0.00000000e+00, -4.66408962e+00, -2.09144785e+00, -1.37107974e+00, 8.15649761e-01, 0.00000000e+00, 5.0000000000, 5.0000000000, 0.0989528609
          55, 0.00000000e+00, 0.00000000e+00, 0.00000000e+00, 0.00000000e+00, 0.00000000e+00, 0.00000000e+00, 0.00000000e+00, 0.00000000e+00, 0.00000000e+00, 0.00000000e+00, 0.00000000e+00, 0.00000000e+00, -4.64870401e+00, -2.07584990e+00, -1.38039358e+00, 8.31106800e-01, 0.00000000e+00, 5.0000000000, 5.0000000000, 0.1006227542
          56, 0.00000000e+00, 0.00000000e+00, 0.00000000e+00, 0.00000000e+00, 0.00000000e+00, 0.00000000e+00, 0.00000000e+00, 0.00000000e+00, 0.00000000e+00, 0.00000000e+00, 0.00000000e+00, 0.00000000e+00, -4.63575705e+00, -2.06267171e+00, -1.38970835e+00, 8.44085240e-01, 0.00000000e+00, 5.0000000000, 5.0000000000, 0.1023009898
          57, 0.00000000e+00, 0.00000000e+00, 0.00000000e+00, 0.00000000e+00, 0.00000000e+00, 0.00000000e+00, 0.00000000e+00, 0.00000000e+00, 0.00000000e+00, 0.00000000e+00, 0.00000000e+00, 0.00000000e+00, -4.62571801e+00, -2.05239291e+00, -1.39902362e+00, 8.54128355e-01, 0.00000000e+00, 5.0000000000, 5.0000000000, 0.1039800935
          58, 0.00000000e+00, 0.00000000e+00, 0.00000000e+00, 0.00000000e+00, 0.00000000e+00, 0.00000000e+00, 0.00000000e+00, 0.00000000e+00, 0.00000000e+00, 0.00000000e+00, 0.00000000e+00, 0.00000000e+00, -4.61875518e+00, -2.04518377e+00, -1.40833891e+00, 8.61079274e-01, 0.00000000e+00, 5.0000000000, 5.0000000000, 0.1056671527
          59, 0.00000000e+00, 0.00000000e+00, 0.00000000e+00, 0.00000000e+00, 0.00000000e+00, 0.00000000e+00, 0.00000000e+00, 0.00000000e+00, 0.00000000e+00, 0.00000000e+00, 0.00000000e+00, 0.00000000e+00, -4.61483209e+00, -2.04100531e+00, -1.41765382e+00, 8.64984047e-01, 0.00000000e+00, 5.0000000000, 5.0000000000, 0.1073452491
          60, 0.00000000e+00, 0.00000000e+00, 0.00000000e+00, 0.00000000e+00, 0.00000000e+00, 0.00000000e+00, 0.00000000e+00, 0.00000000e+00, 0.00000000e+00, 0.00000000e+00, 0.00000000e+00, 0.00000000e+00, -4.61377570e+00, -2.03968019e+00, -1.42696796e+00, 8.66023354e-01, 0.00000000e+00, 5.0000000000, 5.0000000000, 0.1090174516
          61, 0.00000000e+00, 0.00000000e+00, 0.00000000e+00, 0.00000000e+00, 0.00000000e+00, 0.00000000e+00, 0.00000000e+00, 0.00000000e+00, 0.00000000e+00, 0.00000000e+00, 0.00000000e+00, 0.00000000e+00, -4.61531795e+00, -2.04093633e+00, -1.43628104e+00, 8.64471133e-01, 0.00000000e+00, 5.0000000000, 5.0000000000, 0.1109078954
          62, 0.00000000e+00, 0.00000000e+00, 0.00000000e+00, 0.00000000e+00, 0.00000000e+00, 0.00000000e+00, 0.00000000e+00, 0.00000000e+00, 0.00000000e+00, 0.00000000e+00, 0.00000000e+00, 0.00000000e+00, -4.61911700e+00, -2.04442963e+00, -1.44559290e+00, 8.60673569e-01, 0.00000000e+00, 5.0000000000, 5.0000000000, 0.1135367863
          63, 0.00000000e+00, 0.00000000e+00, 0.00000000e+00, 0.00000000e+00, 0.00000000e+00, 0.00000000e+00, 0.00000000e+00, 0.00000000e+00, 0.00000000e+00, 0.00000000e+00, 0.00000000e+00, 0.00000000e+00, -4.62476581e+00, -2.04975388e+00, -1.45490346e+00, 8.55040624e-01, 0.00000000e+00, 5.0000000000, 5.0000000000, 0.1155749211
          64, 0.00000000e+00, 0.00000000e+00, 0.00000000e+00, 0.00000000e+00, 0.00000000e+00, 0.00000000e+00, 0.00000000e+00, 0.00000000e+00, 0.00000000e+00, 0.00000000e+00, 0.00000000e+00, 0.00000000e+00, -4.63179642e+00, -2.05644610e+00, -1.46421278e+00, 8.48041739e-01, 0.00000000e+00, 5.0000000000, 5.0000000000, 0.1175863267
          65, 0.00000000e+00, 0.00000000e+00, 0.00000000e+00, 0.00000000e+00, 0.00000000e+00, 0.00000000e+00, 0.00000000e+00, 0.00000000e+00, 0.00000000e+00, 0.00000000e+00, 0.00000000e+00, 0.00000000e+00, -4.63968863e+00, -2.06399593e+00, -1.47352105e+00, 8.40197047e-01, 0.00000000e+00, 5.0000000000, 5.0000000000, 0.1196626785
          66, 0.00000000e+00, 0.00000000e+00, 0.00000000e+00, 0.00000000e+00, 0.00000000e+00, 0.00000000e+00, 0.00000000e+00, 0.00000000e+00, 0.00000000e+00, 0.00000000e+00, 0.00000000e+00, 0.00000000e+00, -4.64789125e+00, -2.07186684e+00, -1.48282858e+00, 8.32055919e-01, 0.00000000e+00, 5.0000000000, 5.0000000000, 0.1213641416
          67, 0.00000000e+00, 0.00000000e+00, 0.00000000e+00, 0.00000000e+00, 0.00000000e+00, 0.00000000e+00, 0.00000000e+00, 0.00000000e+00, 0.00000000e+00, 0.00000000e+00, 0.00000000e+00, 0.00000000e+00, -4.65586170e+00, -2.07953475e+00, -1.49213581e+00, 8.24157283e-01, 0.00000000e+00, 5.0000000000, 5.0000000000, 0.1232683572
          68, 0.00000000e+00, 0.00000000e+00, 0.00000000e+00, 0.00000000e+00, 0.00000000e+00, 0.00000000e+00, 0.00000000e+00, 0.00000000e+00, 0.00000000e+00, 0.00000000e+00, 0.00000000e+00, 0.00000000e+00, -4.66312373e+00, -2.08654328e+00, -1.50144327e+00, 8.16972039e-01, 0.00000000e+00, 5.0000000000, 5.0000000000, 0.1250118198
          69, 0.00000000e+00, 0.00000000e+00, 0.00000000e+00, 0.00000000e+00, 0.00000000e+00, 0.00000000e+00, 0.00000000e+00, 0.00000000e+00, 0.00000000e+00, 0.00000000e+00, 0.00000000e+00, 0.00000000e+00, -4.66933450e+00, -2.09256741e+00, -1.51075162e+00, 8.10836594e-01, 0.00000000e+00, 5.0000000000, 5.0000000000, 0.1266767733
          70, 0.00000000e+00, 0.00000000e+00, 0.00000000e+00, 0.00000000e+00, 0.00000000e+00, 0.00000000e+00, 0.00000000e+00, 0.00000000e+00, 0.00000000e+00, 0.00000000e+00, 0.00000000e+00, 0.00000000e+00, -4.67434384e+00, -2.09746899e+00, -1.52006161e+00, 8.05894591e-01, 0.00000000e+00, 5.0000000000, 5.0000000000, 0.1283489244
          71, 0.00000000e+00, 0.00000000e+00, 0.00000000e+00, 0.00000000e+00, 0.00000000e+00, 0.00000000e+00, 0.00000000e+00, 0.00000000e+00, 0.00000000e+00, 0.00000000e+00, 0.00000000e+00, 0.00000000e+00, -4.67822629e+00, -2.10132606e+00, -1.52937407e+00, 8.02066026e-01, 0.00000000e+00, 5.0000000000, 5.0000000000, 0.1300194261
          72, 0.00000000e+00, 0.00000000e+00, 0.00000000e+00, 0.00000000e+00, 0.00000000e+00, 0.00000000e+00, 0.00000000e+00, 0.00000000e+00, 0.00000000e+00, 0.00000000e+00, 0.00000000e+00, 0.00000000e+00, -4.68127373e+00, -2.10442486e+00, -1.53868990e+00, 7.99055597e-01, 0.00000000e+00, 5.0000000000, 5.0000000000, 0.1317046450
          73, 0.00000000e+00, 0.00000000e+00, 0.00000000e+00, 0.00000000e+00, 0.00000000e+00, 0.00000000e+00, 0.00000000e+00, 0.00000000e+00, 0.00000000e+00, 0.00000000e+00, 0.00000000e+00, 0.00000000e+00, -4.68395026e+00, -2.10721613e+00, -1.54801006e+00, 7.96398208e-01, 0.00000000e+00, 5.0000000000, 5.0000000000, 0.1335431321
          74, 0.00000000e+00, 0.00000000e+00, 0.00000000e+00, 0.00000000e+00, 0.00000000e+00, 0.00000000e+00, 0.00000000e+00, 0.00000000e+00, 0.00000000e+00, 0.00000000e+00, 0.00000000e+00, 0.00000000e+00, -4.68682408e+00, -2.11024984e+00, -1.55733548e+00, 7.93526875e-01, 0.00000000e+00, 5.0000000000, 5.0000000000, 0.1353609549
          75, 0.00000000e+00, 0.00000000e+00, 0.00000000e+00, 0.00000000e+00, 0.00000000e+00, 0.00000000e+00, 0.00000000e+00, 0.00000000e+00, 0.00000000e+00, 0.00000000e+00, 0.00000000e+00, 0.00000000e+00, -4.69049593e+00, -2.11410679e+00, -1.56666706e+00, 7.89843714e-01, 0.00000000e+00, 5.0000000000, 5.0000000000, 0.1372146755
          76, 0.00000000e+00, 0.00000000e+00, 0.00000000e+00, 0.00000000e+00, 0.00000000e+00, 0.00000000e+00, 0.00000000e+00, 0.00000000e+00, 0.00000000e+00, 0.00000000e+00, 0.00000000e+00, 0.00000000e+00, -4.69553942e+00, -2.11934216e+00, -1.57600557e+00, 7.84778802e-01, 0.00000000e+00, 5.0000000000, 5.0000000000, 0.1388944207
          77, 0.00000000e+00, 0.00000000e+00, 0.00000000e+00, 0.00000000e+00, 0.00000000e+00, 0.00000000e+00, 0.00000000e+00, 0.00000000e+00, 0.00000000e+00, 0.00000000e+00, 0.00000000e+00, 0.00000000e+00, -4.70246087e+00, -2.12644774e+00, -1.58535164e+00, 7.77829746e-01, 0.00000000e+00, 5.0000000000, 5.0000000000, 0.1405724170
          78, 0.00000000e+00, 0.00000000e+00, 0.00000000e+00, 0.00000000e+00, 0.00000000e+00, 0.00000000e+00, 0.00000000e+00, 0.00000000e+00, 0.00000000e+00, 0.00000000e+00, 0.00000000e+00, 0.00000000e+00, -4.71167856e+00, -2.13583286e+00, -1.59470579e+00, 7.68581857e-01, 0.00000000e+00, 5.0000000000, 5.0000000000, 0.1422511202
          79, 0.00000000e+00, 0.00000000e+00, 0.00000000e+00, 0.00000000e+00, 0.00000000e+00, 0.00000000e+00, 0.00000000e+00, 0.00000000e+00, 0.00000000e+00, 0.00000000e+00, 0.00000000e+00, 0.00000000e+00, -4.72351773e+00, -2.14781947e+00, -1.60406846e+00, 7.56713064e-01, 0.00000000e+00, 5.0000000000, 5.0000000000, 0.1439322840
          80, 0.00000000e+00, 0.00000000e+00, 0.00000000e+00, 0.00000000e+00, 0.00000000e+00, 0.00000000e+00, 0.00000000e+00, 0.00000000e+00, 0.00000000e+00, 0.00000000e+00, 0.00000000e+00, 0.00000000e+00, -4.73821529e+00, -2.16264629e+00, -1.61344006e+00, 7.41989083e-01, 0.00000000e+00, 5.0000000000, 5.0000000000, 0.1456093450
          81, 0.00000000e+00, 0.00000000e+00, 0.00000000e+00, 0.00000000e+00, 0.00000000e+00, 0.00000000e+00, 0.00000000e+00, 0.00000000e+00, 0.00000000e+00, 0.00000000e+00, 0.00000000e+00, 0.00000000e+00, -4.75592943e+00, -2.18047736e+00, -1.62282094e+00, 7.24253918e-01, 0.00000000e+00, 5.0000000000, 5.0000000000, 0.1472784731
          82, 0.00000000e+00, 0.00000000e+00, 0.00000000e+00, 0.00000000e+00, 0.00000000e+00, 0.00000000e+00, 0.00000000e+00, 0.00000000e+00, 0.00000000e+00, 0.00000000e+00, 0.00000000e+00, 0.00000000e+00, -4.77675024e+00, -2.20141206e+00, -1.63221144e+00, 7.03419313e-01, 0.00000000e+00, 5.0000000000, 5.0000000000, 0.1489491759
          83, 0.00000000e+00, 0.00000000e+00, 0.00000000e+00, 0.00000000e+00, 0.00000000e+00, 0.00000000e+00, 0.00000000e+00, 0.00000000e+00, 0.00000000e+00, 0.00000000e+00, 0.00000000e+00, 0.00000000e+00, -4.80070917e+00, -2.22549429e+00, -1.64161180e+00, 6.79455387e-01, 0.00000000e+00, 5.0000000000, 5.0000000000, 0.1506303917
          84, 0.00000000e+00, 0.00000000e+00, 0.00000000e+00, 0.00000000e+00, 0.00000000e+00, 0.00000000e+00, 0.00000000e+00, 0.00000000e+00, 0.00000000e+00, 0.00000000e+00, 0.00000000e+00, 0.00000000e+00, -4.82778590e+00, -2.25271976e+00, -1.65102225e+00, 6.52383798e-01, 0.00000000e+00, 5.0000000000, 5.0000000000, 0.1523147461
          85, 0.00000000e+00, 0.00000000e+00, 0.00000000e+00, 0.00000000e+00, 0.00000000e+00, 0.00000000e+00, 0.00000000e+00, 0.00000000e+00, 0.00000000e+00, 0.00000000e+00, 0.00000000e+00, 0.00000000e+00, -4.85791176e+00, -2.28304023e+00, -1.66044295e+00, 6.22274284e-01, 0.00000000e+00, 5.0000000000, 5.0000000000, 0.1540398224
          86, 0.00000000e+00, 0.00000000e+00, 0.00000000e+00, 0.00000000e+00, 0.00000000e+00, 0.00000000e+00, 0.00000000e+00, 0.00000000e+00, 0.00000000e+00, 0.00000000e+00, 0.00000000e+00, 0.00000000e+00, -4.89096888e+00, -2.31636414e+00, -1.66987400e+00, 5.89245440e-01, 0.00000000e+00, 5.0000000000, 5.0000000000, 0.1559244858
          87, 0.00000000e+00, 0.00000000e+00, 0.00000000e+00, 0.00000000e+00, 0.00000000e+00, 0.00000000e+00, 0.00000000e+00, 0.00000000e+00, 0.00000000e+00, 0.00000000e+00, 0.00000000e+00, 0.00000000e+00, -4.92678394e+00, -2.35255217e+00, -1.67931545e+00, 5.53470725e-01, 0.00000000e+00, 5.0000000000, 5.0000000000, 0.1577631783
          88, 0.00000000e+00, 0.00000000e+00, 0.00000000e+00, 0.00000000e+00, 0.00000000e+00, 0.00000000e+00, 0.00000000e+00, 0.00000000e+00, 0.00000000e+00, 0.00000000e+00, 0.00000000e+00, 0.00000000e+00, -4.96511527e+00, -2.39140648e+00, -1.68876734e+00, 5.15191057e-01, 0.00000000e+00, 5.0000000000, 5.0000000000, 0.1595475561