VARIABLES = "x"
 "y"
 "Density"
 "Momentum_x"
 "Momentum_y"
 "Energy"
 "Pressure"
 "Temperature"
 "Mach"
 "C<sub>p</sub>"
 "Roe_Dissipation"
ZONE
DT=(DOUBLE,DOUBLE,DOUBLE,DOUBLE,DOUBLE,DOUBLE,DOUBLE,DOUBLE,DOUBLE,DOUBLE,DOUBLE)
                     -2                    -0.6        1.22509098052979        41.6797981262207    6.73461527736413E-12                  254022           101325.203125        288.123992919922      0.0999812707304955    0.000303887052577904                       0 
      -1.99749874937469                    -0.6        1.22509098052979        41.6797981262207    1.92121307645478E-12                  254022           101325.203125        288.123992919922      0.0999812707304955    0.000303887098712355                       0 
      -1.99499749874937                    -0.6        1.22509098052979        41.6797981262207   -2.89218912445501E-12                  254022           101325.203125        288.123992919922      0.0999812707304955    0.000303887144846807                       0 
      -1.99249624812406                    -0.6        1.22509098052979        41.6797981262207   -7.70559132536436E-12                  254022           101325.203125        288.123992919922      0.0999812707304955    0.000303887190981258                       0 
      -1.98999499749875                    -0.6        1.22509098052979        41.6797981262207   -1.25189935262737E-11                  254022           101325.203125        288.123992919922      0.0999812707304955    0.000303887237115709                       0 
      -1.98749374687344                    -0.6        1.22509098052979        41.6797981262207   -1.73323957271831E-11                  254022           101325.203125        288.123992919922      0.0999812707304955    0.000303887283250161                       0 
      -1.98499249624812                    -0.6        1.22509098052979        41.6797981262207   -2.21457979280928E-11                  254022           101325.203125        288.123992919922      0.0999812707304955    0.000303887329384612                       0 
      -1.98249124562281                    -0.6        1.22509098052979        41.6797981262207   -2.69592001290022E-11                  254022           101325.203125        288.123992919922      0.0999812707304955    0.000303887375519063                       0 
       -1.9799899949975                    -0.6        1.22509098052979        41.6797981262207   -3.17726023299116E-11                  254022           101325.203125        288.123992919922      0.0999812707304955    0.000303887421653515                       0 
      -1.97748874437219                    -0.6        1.22509098052979        41.6797981262207   -3.65860045308213E-11                  254022           101325.203125        288.123992919922      0.0999812707304955    0.000303887467787966                       0 
      -1.97498749374687                    -0.6        1.22509098052979        41.6797981262207   -4.12452348615644E-11                  254022           101325.203125        288.123992919922      0.0999812707304955    0.000303887512711245                       0 
      -1.97248624312156                    -0.6        1.22509098052979        41.6797981262207    -4.5787597673083E-11                  254022           101325.203125        288.123992919922      0.0999812707304955    0.000303887556716414                       0 
      -1.96998499249625                    -0.6        1.22509098052979        41.6797981262207   -5.05816530569517E-11                  254022           101325.203125        288.123992919922      0.0999812707304955    0.000303887602698877                       0 
      -1.96748374187094                    -0.6        1.22509098052979        41.6797981262207   -5.53950552578611E-11                  254022           101325.203125        288.123992919922      0.0999812707304955    0.000303887648833328                       0 
      -1.96498249124562                    -0.6        1.22509098052979        41.6797981262207   -6.02084574587704E-11                  254022           101325.203125        288.123992919922      0.0999812707304955     0.00030388769496778                       0 
      -1.96248124062031                    -0.6        1.22509098052979        41.6797981262207   -6.50218596596798E-11                  254022           101325.203125        288.123992919922      0.0999812707304955    0.000303887741102231                       0 
        -1.959979989995                    -0.6        1.22509098052979        41.6797981262207   -6.98352618605896E-11                  254022           101325.203125        288.123992919922      0.0999812707304955    0.000303887787236682                       0 
      -1.95747873936968                    -0.6        1.22509098052979        41.6797981262207   -7.46486640614989E-11                  254022           101325.203125        288.123992919922      0.0999812707304955    0.000303887833371134                       0 
      -1.95497748874437                    -0.6        1.22509098052979        41.6797981262207   -7.94620662624083E-11                  254022           101325.203125        288.123992919922      0.0999812707304955    0.000303887879505585                       0 
      -1.95247623811906                    -0.6        1.22509098052979        41.6797981262207   -8.42754684633181E-11                  254022           101325.203125        288.123992919922      0.0999812707304955    0.000303887925640036                       0 
      -1.94997498749375                    -0.6        1.22509098052979        41.6797981262207   -8.90888706642274E-11                  254022           101325.203125        288.123992919922      0.0999812707304955    0.000303887971774488                       0 
      -1.94747373686843                    -0.6        1.22509098052979        41.6797981262207   -9.38436740565673E-11                  254022           101325.203125        288.123992919922      0.0999812707304955    0.000303888011906935                       0 
      -1.94497248624312                    -0.6        1.22509098052979        41.6797981262207   -9.85392748183118E-11                  254022           101325.203125        288.123992919922      0.0999812707304955    0.000303888045975532                       0 
      -1.94247123561781                    -0.6        1.22509098052979        41.6797981262207   -1.03234875580056E-10                  254022           101325.203125        288.123992919922      0.0999812707304955     0.00030388808004413                       0 
       -1.9399699849925                    -0.6        1.22509098052979        41.6797981262207     -1.079304763418E-10                  254022           101325.203125        288.123992919922      0.0999812707304955    0.000303888114112727                       0 
      -1.93746873436718                    -0.6        1.22509098052979        41.6797981262207   -1.12626077103544E-10                  254022           101325.203125        288.123992919922      0.0999812707304955    0.000303888148181324                       0 
      -1.93496748374187                    -0.6        1.22509098052979        41.6797981262207   -1.17321677865288E-10                  254022           101325.203125        288.123992919922      0.0999812707304955    0.000303888182249921                       0 
      -1.93246623311656                    -0.6        1.22509098052979        41.6797981262207   -1.22017278627032E-10                  254022           101325.203125        288.123992919922      0.0999812707304955    0.000303888216318518                       0 
      -1.92996498249125                    -0.6        1.22509098052979        41.6797981262207   -1.26712879388776E-10                  254022           101325.203125        288.123992919922      0.0999812707304955    0.000303888250387115                       0 
      -1.92746373186593                    -0.6        1.22509098052979        41.6797981262207   -1.31408480150521E-10                  254022           101325.203125        288.123992919922      0.0999812707304955    0.000303888284455712                       0 
      -1.92496248124062                    -0.6        1.22509098052979        41.6797981262207     -1.360866059086E-10                  254022           101325.203125        288.123992919922      0.0999812707304955    0.000303888318524309                       0 
      -1.92246123061531                    -0.6        1.22509098052979        41.6797981262207   -1.40518537527993E-10                  254022           101325.203125        288.123992919922      0.0999812707304955    0.000303888352592906                       0 
      -1.91995997998999                    -0.6        1.22509098052979        41.6797981262207   -1.45062814023813E-10                  254022           101325.203125        288.123992919922      0.0999812707304955    0.000303888386661504                       0 
      -1.91745872936468                    -0.6        1.22509098052979        41.6797981262207   -1.49758414785557E-10                  254022           101325.203125        288.123992919922      0.0999812707304955    0.000303888420730101                       0 
      -1.91495747873937                    -0.6        1.22509098052979        41.6797981262207   -1.54454015547301E-10                  254022           101325.203125        288.123992919922      0.0999812707304955    0.000303888454798698                       0 
      -1.91245622811406                    -0.6        1.22509098052979        41.6797981262207   -1.59149616309045E-10                  254022           101325.203125        288.123992919922      0.0999812707304955    0.000303888488867295                       0 
      -1.90995497748874                    -0.6        1.22509098052979        41.6797981262207   -1.63845217070789E-10                  254022           101325.203125        288.123992919922      0.0999812707304955    0.000303888522935892                       0 
      -1.90745372686343                    -0.6        1.22509098052979        41.6797981262207   -1.68540817832533E-10                  254022           101325.203125        288.123992919922      0.0999812707304955    0.000303888557004489                       0 
      -1.90495247623812                    -0.6        1.22509098052979        41.6797981262207   -1.73236418594277E-10                  254022           101325.203125        288.123992919922      0.0999812707304955    0.000303888591073086                       0 
      -1.90245122561281                    -0.6        1.22509098052979        41.6797981262207   -1.77932019356022E-10                  254022           101325.203125        288.123992919922      0.0999812707304955    0.000303888625141683                       0 
      -1.89994997498749                    -0.6        1.22509098052979        41.6797981262207   -1.82627620117766E-10                  254022           101325.203125        288.123992919922      0.0999812707304955    0.000303888659210281                       0 
      -1.89744872436218                    -0.6        1.22509098052979        41.6797981262207    -1.8732322087951E-10                  254022           101325.203125        288.123992919922      0.0999812707304955    0.000303888693278878                       0 
      -1.89494747373687                    -0.6        1.22509098052979        41.6797981262207   -1.91870263821805E-10                  254022           101325.203125        288.123992919922      0.0999812707304955    0.000303888732996648                       0 
      -1.89244622311156                    -0.6        1.22509098052979        41.6797981262207   -1.96416548522035E-10                  254022           101325.203125        288.123992919922      0.0999812707304955    0.000303888772743253                       0 
      -1.88994497248624                    -0.6        1.22509098052979        41.6797981262207   -2.00962833222266E-10                  254022           101325.203125        288.123992919922      0.0999812707304955    0.000303888812489857                       0 
      -1.88744372186093                    -0.6        1.22509098052979        41.6797981262207   -2.05509117922496E-10                  254022           101325.203125        288.123992919922      0.0999812707304955    0.000303888852236461                       0 
      -1.88494247123562                    -0.6        1.22509098052979        41.6797981262207   -2.10055402622726E-10                  254022           101325.203125        288.123992919922      0.0999812707304955    0.000303888891983065                       0 
      -1.88244122061031                    -0.6        1.22509098052979        41.6797981262207   -2.14601687322957E-10                  254022           101325.203125        288.123992919922      0.0999812707304955     0.00030388893172967                       0 
      -1.87993996998499                    -0.6        1.22509098052979        41.6797981262207   -2.19147972023187E-10                  254022           101325.203125        288.123992919922      0.0999812707304955    0.000303888971476274                       0 
      -1.87743871935968                    -0.6        1.22509098052979        41.6797981262207   -2.23694256723417E-10                  254022           101325.203125        288.123992919922      0.0999812707304955    0.000303889011222878                       0 
      -1.87493746873437                    -0.6        1.22509098052979        41.6797981262207   -2.28240541423647E-10                  254022           101325.203125        288.123992919922      0.0999812707304955    0.000303889050969482                       0 
      -1.87243621810905                    -0.6        1.22509098052979        41.6797981262207   -2.32640797518099E-10                  254022           101325.203125        288.123992919922      0.0999812707304955    0.000303889090716087                       0 
      -1.86993496748374                    -0.6        1.22509098052979        41.6797981262207   -2.36928046429193E-10                  254022           101325.203125        288.123992919922      0.0999812707304955    0.000303889130462691                       0 
      -1.86743371685843                    -0.6        1.22509098052979        41.6797981262207   -2.41454525720554E-10                  254022           101325.203125        288.123992919922      0.0999812707304955    0.000303889170209295                       0 
      -1.86493246623312                    -0.6        1.22509098052979        41.6797981262207   -2.46000810420784E-10                  254022           101325.203125        288.123992919922      0.0999812707304955    0.000303889209955899                       0 
       -1.8624312156078                    -0.6        1.22509098052979        41.6797981262207   -2.50547095121014E-10                  254022           101325.203125        288.123992919922      0.0999812707304955    0.000303889249702504                       0 
      -1.85992996498249                    -0.6        1.22509098052979        41.6797981262207   -2.55093379821244E-10                  254022           101325.203125        288.123992919922      0.0999812707304955    0.000303889289449108                       0 
      -1.85742871435718                    -0.6        1.22509098052979        41.6797981262207   -2.59639664521475E-10                  254022           101325.203125        288.123992919922      0.0999812707304955    0.000303889329195712                       0 
      -1.85492746373187                    -0.6        1.22509098052979        41.6797981262207   -2.64185949221705E-10                  254022           101325.203125        288.123992919922      0.0999812707304955    0.000303889368942316                       0 
      -1.85242621310655                    -0.6        1.22509098052979        41.6797981262207   -2.68732233921935E-10                  254022           101325.203125        288.123992919922      0.0999812707304955     0.00030388940868892                       0 
      -1.84992496248124                    -0.6        1.22509098052979        41.6797981262207   -2.73278518622165E-10                  254022           101325.203125        288.123992919922      0.0999812707304955    0.000303889448435525                       0 
      -1.84742371185593                    -0.6        1.22509098052979        41.6797981262207   -2.77824803322396E-10                  254022           101325.203125        288.123992919922      0.0999812707304955    0.000303889488182129                       0 
      -1.84492246123062                    -0.6        1.22509098052979        41.6797981262207   -2.82246460428872E-10                  254022           101325.203125        288.123992919922      0.0999812707304955    0.000303889527229863                       0 
       -1.8424212106053                    -0.6        1.22509098052979        41.6797981262207   -2.86539621718917E-10                  254022           101325.203125        288.123992919922      0.0999812707304955    0.000303889565557035                       0 
      -1.83991995997999                    -0.6        1.22509098052979        41.6797981262207   -2.90832783008961E-10                  254022           101325.203125        288.123992919922      0.0999812707304955    0.000303889603884206                       0 
      -1.83741870935468                    -0.6        1.22509098052979        41.6797981262207   -2.95125944299006E-10                  254022           101325.203125        288.123992919922      0.0999812707304955    0.000303889642211378                       0 
      -1.83491745872936                    -0.6        1.22509098052979        41.6797981262207   -2.99419105589052E-10                  254022           101325.203125        288.123992919922      0.0999812707304955     0.00030388968053855                       0 
      -1.83241620810405                    -0.6        1.22509098052979        41.6797981262207   -3.03712266879096E-10                  254022           101325.203125        288.123992919922      0.0999812707304955    0.000303889718865722                       0 
      -1.82991495747874                    -0.6        1.22509098052979        41.6797981262207   -3.08005428169141E-10                  254022           101325.203125        288.123992919922      0.0999812707304955    0.000303889757192893                       0 
      -1.82741370685343                    -0.6        1.22509098052979        41.6797981262207   -3.12298589459186E-10                  254022           101325.203125        288.123992919922      0.0999812707304955    0.000303889795520065                       0 
      -1.82491245622811                    -0.6        1.22509098052979        41.6797981262207   -3.16591750749231E-10                  254022           101325.203125        288.123992919922      0.0999812707304955    0.000303889833847237                       0 
       -1.8224112056028                    -0.6        1.22509098052979        41.6797981262207   -3.20869734928101E-10                  254022           101325.203125        288.123992919922      0.0999812707304955    0.000303889872174409                       0 
      -1.81990995497749                    -0.6        1.22509098052979        41.6797981262207    -3.2491489672973E-10                  254022           101325.203125        288.123992919922      0.0999812707304955     0.00030388991050158                       0 
      -1.81740870435218                    -0.6        1.22509098052979        41.6797981262207   -3.29064467471868E-10                  254022           101325.203125        288.123992919922      0.0999812707304955    0.000303889948828752                       0 
      -1.81490745372686                    -0.6        1.22509098052979        41.6797981262207   -3.33357628761912E-10                  254022           101325.203125        288.123992919922      0.0999812707304955    0.000303889987155924                       0 
      -1.81240620310155                    -0.6        1.22509098052979        41.6797981262207   -3.37650790051957E-10                  254022           101325.203125        288.123992919922      0.0999812707304955    0.000303890025483096                       0 
      -1.80990495247624                    -0.6        1.22509098052979        41.6797981262207   -3.41943951342002E-10                  254022           101325.203125        288.123992919922      0.0999812707304955    0.000303890063810267                       0 
      -1.80740370185093                    -0.6        1.22509098052979        41.6797981262207   -3.46237112632047E-10                  254022           101325.203125        288.123992919922      0.0999812707304955    0.000303890102137439                       0 
      -1.80490245122561                    -0.6        1.22509098052979        41.6797981262207   -3.50530273922092E-10                  254022           101325.203125        288.123992919922      0.0999812707304955    0.000303890140464611                       0 
       -1.8024012006003                    -0.6        1.22509098052979        41.6797981262207   -3.54823435212137E-10                  254022           101325.203125        288.123992919922      0.0999812707304955    0.000303890178791783                       0 
      -1.79989994997499                    -0.6        1.22509098052979        41.6797981262207   -3.59116596502182E-10                  254022           101325.203125        288.123992919922      0.0999812707304955    0.000303890217118955                       0 
      -1.79739869934967                    -0.6        1.22509098052979        41.6797981262207   -3.63409757792227E-10                  254022           101325.203125        288.123992919922      0.0999812707304955    0.000303890255446126                       0 
      -1.79489744872436                    -0.6        1.22509098052979        41.6797981262207   -3.67702919082271E-10                  254022           101325.203125        288.123992919922      0.0999812707304955    0.000303890293773298                       0 
      -1.79239619809905                    -0.6        1.22509098052979        41.6797981262207   -3.71697712757688E-10                  254022           101325.203125        288.123992919922      0.0999812707304955    0.000303890327885068                       0 
      -1.78989494747374                    -0.6        1.22509098052979        41.6797981262207   -3.75689445059314E-10                  254022           101325.203125        288.123992919922      0.0999812707304955    0.000303890361953586                       0 
      -1.78739369684842                    -0.6        1.22509098052979        41.6797981262207    -3.7968117736094E-10                  254022           101325.203125        288.123992919922      0.0999812707304955    0.000303890396022103                       0 
      -1.78489244622311                    -0.6        1.22509098052979        41.6797981262207   -3.83672909662565E-10                  254022           101325.203125        288.123992919922      0.0999812707304955    0.000303890430090621                       0 
       -1.7823911955978                    -0.6        1.22509098052979        41.6797981262207   -3.87664641964191E-10                  254022           101325.203125        288.123992919922      0.0999812707304955    0.000303890464159139                       0 
      -1.77988994497249                    -0.6        1.22509098052979        41.6797981262207   -3.91656374265817E-10                  254022           101325.203125        288.123992919922      0.0999812707304955    0.000303890498227657                       0 
      -1.77738869434717                    -0.6        1.22509098052979        41.6797981262207   -3.95648106567443E-10                  254022           101325.203125        288.123992919922      0.0999812707304955    0.000303890532296175                       0 
      -1.77488744372186                    -0.6        1.22509098052979        41.6797981262207   -3.99639838869069E-10                  254022           101325.203125        288.123992919922      0.0999812707304955    0.000303890566364693                       0 
      -1.77238619309655                    -0.6        1.22509098052979        41.6797981262207   -4.03631571170694E-10                  254022           101325.203125        288.123992919922      0.0999812707304955    0.000303890600433211                       0 
      -1.76988494247124                    -0.6        1.22509098052979        41.6797981262207   -4.07493390753966E-10                  254022           101325.203125        288.123992919922      0.0999812707304955    0.000303890634501729                       0 
      -1.76738369184592                    -0.6        1.22509098052979        41.6797981262207   -4.11252580036119E-10                  254022           101325.203125        288.123992919922      0.0999812707304955    0.000303890668570247                       0 
      -1.76488244122061                    -0.6        1.22509098052979        41.6797981262207   -4.15225351641247E-10                  254022           101325.203125        288.123992919922      0.0999812707304955    0.000303890702638765                       0 
       -1.7623811905953                    -0.6        1.22509098052979        41.6797981262207   -4.19217083942873E-10                  254022           101325.203125        288.123992919922      0.0999812707304955    0.000303890736707283                       0 
      -1.75987993996998                    -0.6        1.22509098052979        41.6797981262207   -4.23208816244499E-10                  254022           101325.203125        288.123992919922      0.0999812707304955    0.000303890770775801                       0 
      -1.75737868934467                    -0.6        1.22509098052979        41.6797981262207   -4.27200548546124E-10                  254022           101325.203125        288.123992919922      0.0999812707304955    0.000303890804844319                       0 
      -1.75487743871936                    -0.6        1.22509098052979        41.6797981262207    -4.3119228084775E-10                  254022           101325.203125        288.123992919922      0.0999812707304955    0.000303890838912837                       0 
      -1.75237618809405                    -0.6        1.22509098052979        41.6797981262207   -4.35184013149376E-10                  254022           101325.203125        288.123992919922      0.0999812707304955    0.000303890872981354                       0 
      -1.74987493746873                    -0.6        1.22509098052979        41.6797981262207   -4.39175745451002E-10                  254022           101325.203125        288.123992919922      0.0999812707304955    0.000303890907049872                       0 
      -1.74737368684342                    -0.6        1.22509098052979        41.6797981262207   -4.43167477752627E-10                  254022           101325.203125        288.123992919922      0.0999812707304955     0.00030389094111839                       0 
      -1.74487243621811                    -0.6        1.22509098052979        41.6797981262207   -4.47159210054253E-10                  254022           101325.203125        288.123992919922      0.0999812707304955    0.000303890975186908                       0 
       -1.7423711855928                    -0.6        1.22509098052979        41.6797981262207   -4.50939636774336E-10                  254022           101325.203125        288.123992919922      0.0999812707304955    0.000303891012022249                       0 
      -1.73986993496748                    -0.6        1.22509098052979        41.6797981262207   -4.54497726850094E-10                  254022           101325.203125        288.123992919922      0.0999812707304955    0.000303891051768853                       0 
      -1.73736868434217                    -0.6        1.22509098052979        41.6797981262207   -4.58055816925852E-10                  254022           101325.203125        288.123992919922      0.0999812707304955    0.000303891091515458                       0 
      -1.73486743371686                    -0.6        1.22509098052979        41.6797981262207    -4.6161390700161E-10                  254022           101325.203125        288.123992919922      0.0999812707304955    0.000303891131262062                       0 
      -1.73236618309155                    -0.6        1.22509098052979        41.6797981262207   -4.65171997077368E-10                  254022           101325.203125        288.123992919922      0.0999812707304955    0.000303891171008666                       0 
      -1.72986493246623                    -0.6        1.22509098052979        41.6797981262207   -4.68730087153126E-10                  254022           101325.203125        288.123992919922      0.0999812707304955     0.00030389121075527                       0 
      -1.72736368184092                    -0.6        1.22509098052979        41.6797981262207   -4.72288177228884E-10                  254022           101325.203125        288.123992919922      0.0999812707304955    0.000303891250501875                       0 
      -1.72486243121561                    -0.6        1.22509098052979        41.6797981262207   -4.75846267304642E-10                  254022           101325.203125        288.123992919922      0.0999812707304955    0.000303891290248479                       0 
       -1.7223611805903                    -0.6        1.22509098052979        41.6797981262207     -4.794043573804E-10                  254022           101325.203125        288.123992919922      0.0999812707304955    0.000303891329995083                       0 