VARIABLES = "x"
 "y"
 "Density"
 "Momentum_x"
 "Momentum_y"
 "Energy"
 "Pressure"
 "Temperature"
 "Mach"
 "C<sub>p</sub>"
 "Roe_Dissipation"
ZONE
DT=(DOUBLE,DOUBLE,DOUBLE,DOUBLE,DOUBLE,DOUBLE,DOUBLE,DOUBLE,DOUBLE,DOUBLE,DOUBLE)
                      2                    1.25        1.22509002685547        41.6798095703125       0.722653687000275           254021.703125                  101325        288.123809814453      0.0999964773654938   -3.20043547219484E-08                       0 
                      2        1.24874937468734        1.22509002685547        41.6798095703125       0.722653687000275           254021.703125                  101325        288.123809814453      0.0999964773654938   -3.20050233789641E-08                       0 
                      2        1.24749874937469        1.22509002685547        41.6798095703125       0.722653687000275           254021.703125                  101325        288.123809814453      0.0999964773654938   -3.20056920359797E-08                       0 
                      2        1.24624812406203        1.22509002685547        41.6798095703125       0.722653687000275           254021.703125                  101325        288.123809814453      0.0999964773654938   -3.20063606929953E-08                       0 
                      2        1.24499749874937        1.22509002685547        41.6798095703125       0.722653687000275           254021.703125                  101325        288.123809814453      0.0999964773654938    -3.2007029350011E-08                       0 
                      2        1.24374687343672        1.22509002685547        41.6798095703125       0.722653687000275           254021.703125                  101325        288.123809814453      0.0999964773654938   -3.20076980070266E-08                       0 
                      2        1.24249624812406        1.22509002685547        41.6798095703125       0.722653687000275           254021.703125                  101325        288.123809814453      0.0999964773654938   -3.20083666640423E-08                       0 
                      2        1.24124562281141        1.22509002685547        41.6798095703125       0.722653687000275           254021.703125                  101325        288.123809814453      0.0999964773654938   -3.20090353210579E-08                       0 
                      2        1.23999499749875        1.22509002685547        41.6798095703125       0.722653687000275           254021.703125                  101325        288.123809814453      0.0999964773654938   -3.20097039780736E-08                       0 
                      2        1.23874437218609        1.22509002685547        41.6798095703125       0.722653687000275           254021.703125                  101325        288.123809814453      0.0999964773654938   -3.20103726350892E-08                       0 
                      2        1.23749374687344        1.22509002685547        41.6798095703125       0.722653687000275           254021.703125                  101325        288.123809814453      0.0999964773654938   -3.20110412921049E-08                       0 
                      2        1.23624312156078        1.22509002685547        41.6798095703125       0.722653687000275           254021.703125                  101325        288.123809814453      0.0999964773654938   -3.20117099491205E-08                       0 
                      2        1.23499249624812        1.22509002685547        41.6798095703125       0.722653687000275           254021.703125                  101325        288.123809814453      0.0999964773654938   -3.20123786061362E-08                       0 
                      2        1.23374187093547        1.22509002685547        41.6798095703125       0.722653687000275           254021.703125                  101325        288.123809814453      0.0999964773654938   -3.20130472631518E-08                       0 
                      2        1.23249124562281        1.22509002685547        41.6798095703125       0.722653687000275           254021.703125                  101325        288.123809814453      0.0999964773654938   -3.20137159201675E-08                       0 
                      2        1.23124062031016        1.22509002685547        41.6798095703125       0.722653687000275           254021.703125                  101325        288.123809814453      0.0999964773654938   -3.20143845771831E-08                       0 
                      2         1.2299899949975        1.22509002685547        41.6798095703125       0.722653687000275           254021.703125                  101325        288.123809814453      0.0999964773654938   -3.20150532341988E-08                       0 
                      2        1.22873936968484        1.22509002685547        41.6798095703125       0.722653687000275           254021.703125                  101325        288.123809814453      0.0999964773654938   -3.20157218912144E-08                       0 
                      2        1.22748874437219        1.22509002685547        41.6798095703125       0.722653687000275           254021.703125                  101325        288.123809814453      0.0999964773654938   -3.20163905482301E-08                       0 
                      2        1.22623811905953        1.22509002685547        41.6798095703125       0.722653687000275           254021.703125                  101325        288.123809814453      0.0999964773654938   -3.20170592052457E-08                       0 
                      2        1.22498749374687        1.22509002685547        41.6798095703125       0.722653687000275           254021.703125                  101325        288.123809814453      0.0999964773654938   -3.20177278622614E-08                       0 
                      2        1.22373686843422        1.22509002685547        41.6798095703125       0.722653687000275           254021.703125                  101325        288.123809814453      0.0999964773654938    -3.2018396519277E-08                       0 
                      2        1.22248624312156        1.22509002685547        41.6798095703125       0.722653687000275           254021.703125                  101325        288.123809814453      0.0999964773654938   -3.20190651762927E-08                       0 
                      2         1.2212356178089        1.22509002685547        41.6798095703125       0.722653687000275           254021.703125                  101325        288.123809814453      0.0999964773654938   -3.20197338333083E-08                       0 
                      2        1.21998499249625        1.22509002685547        41.6798095703125       0.722653687000275           254021.703125                  101325        288.123809814453      0.0999964773654938   -3.20204024903239E-08                       0 
                      2        1.21873436718359        1.22509002685547        41.6798095703125       0.722653687000275           254021.703125                  101325        288.123809814453      0.0999964773654938   -3.20210711473396E-08                       0 
                      2        1.21748374187094        1.22509002685547        41.6798095703125       0.722653687000275           254021.703125                  101325        288.123809814453      0.0999964773654938   -3.20213980144496E-08                       0 
                      2        1.21623311655828        1.22509002685547        41.6798095703125       0.722653687000275           254021.703125                  101325        288.123809814453      0.0999964773654938   -3.20215754866013E-08                       0 
                      2        1.21498249124562        1.22509002685547        41.6798095703125       0.722653687000275           254021.703125                  101325        288.123809814453      0.0999964773654938   -3.20217529587531E-08                       0 
                      2        1.21373186593297        1.22509002685547        41.6798095703125       0.722653687000275           254021.703125                  101325        288.123809814453      0.0999964773654938   -3.20219304309048E-08                       0 
                      2        1.21248124062031        1.22509002685547        41.6798095703125       0.722653687000275           254021.703125                  101325        288.123809814453      0.0999964773654938   -3.20221079030566E-08                       0 
                      2        1.21123061530765        1.22509002685547        41.6798095703125       0.722653687000275           254021.703125                  101325        288.123809814453      0.0999964773654938   -3.20222853752083E-08                       0 
                      2          1.209979989995        1.22509002685547        41.6798095703125       0.722653687000275           254021.703125                  101325        288.123809814453      0.0999964773654938     -3.202246284736E-08                       0 
                      2        1.20872936468234        1.22509002685547        41.6798095703125       0.722653687000275           254021.703125                  101325        288.123809814453      0.0999964773654938   -3.20226403195118E-08                       0 
                      2        1.20747873936968        1.22509002685547        41.6798095703125       0.722653687000275           254021.703125                  101325        288.123809814453      0.0999964773654938   -3.20228177916635E-08                       0 
                      2        1.20622811405703        1.22509002685547        41.6798095703125       0.722653687000275           254021.703125                  101325        288.123809814453      0.0999964773654938   -3.20229952638153E-08                       0 
                      2        1.20497748874437        1.22509002685547        41.6798095703125       0.722653687000275           254021.703125                  101325        288.123809814453      0.0999964773654938    -3.2023172735967E-08                       0 
                      2        1.20372686343172        1.22509002685547        41.6798095703125       0.722653687000275           254021.703125                  101325        288.123809814453      0.0999964773654938   -3.20233502081187E-08                       0 
                      2        1.20247623811906        1.22509002685547        41.6798095703125       0.722653687000275           254021.703125                  101325        288.123809814453      0.0999964773654938   -3.20235276802705E-08                       0 
                      2         1.2012256128064        1.22509002685547        41.6798095703125       0.722653687000275           254021.703125                  101325        288.123809814453      0.0999964773654938   -3.20237051524222E-08                       0 
                      2        1.19997498749375        1.22509002685547        41.6798095703125       0.722653687000275           254021.703125                  101325        288.123809814453      0.0999964773654938    -3.2023882624574E-08                       0 
                      2        1.19872436218109        1.22509002685547        41.6798095703125       0.722653687000275           254021.703125                  101325        288.123809814453      0.0999964773654938   -3.20240600967257E-08                       0 
                      2        1.19747373686843        1.22509002685547        41.6798095703125       0.722653687000275           254021.703125                  101325        288.123809814453      0.0999964773654938   -3.20242375688775E-08                       0 
                      2        1.19622311155578        1.22509002685547        41.6798095703125       0.722653687000275           254021.703125                  101325        288.123809814453      0.0999964773654938   -3.20244150410292E-08                       0 
                      2        1.19497248624312        1.22509002685547        41.6798095703125       0.722653687000275           254021.703125                  101325        288.123809814453      0.0999964773654938   -3.20245925131809E-08                       0 
                      2        1.19372186093047        1.22509002685547        41.6798095703125       0.722653687000275           254021.703125                  101325        288.123809814453      0.0999964773654938   -3.20247699853327E-08                       0 
                      2        1.19247123561781        1.22509002685547        41.6798095703125       0.722653687000275           254021.703125                  101325        288.123809814453      0.0999964773654938   -3.20249474574844E-08                       0 
                      2        1.19122061030515        1.22509002685547        41.6798095703125       0.722653687000275           254021.703125                  101325        288.123809814453      0.0999964773654938   -3.20251249296362E-08                       0 
                      2         1.1899699849925        1.22509002685547        41.6798095703125       0.722653687000275           254021.703125                  101325        288.123809814453      0.0999964773654938   -3.20253024017879E-08                       0 
                      2        1.18871935967984        1.22509002685547        41.6798095703125       0.722653687000275           254021.703125                  101325        288.123809814453      0.0999964773654938   -3.20254798739397E-08                       0 
                      2        1.18746873436718        1.22509002685547        41.6798095703125       0.722653687000275           254021.703125                  101325        288.123809814453      0.0999964773654938   -3.20256573460914E-08                       0 
                      2        1.18621810905453        1.22509002685547        41.6798095703125       0.722653687000275           254021.703125                  101325        288.123809814453      0.0999964773654938   -3.20259784722782E-08                       0 
                      2        1.18496748374187        1.22509002685547        41.6798095703125       0.722653687000275           254021.703125                  101325        288.123809814453      0.0999964773654938   -3.20265218921163E-08                       0 
                      2        1.18371685842921        1.22509002685547        41.6798095703125       0.722653687000275           254021.703125                  101325        288.123809814453      0.0999964773654938   -3.20270653119544E-08                       0 
                      2        1.18246623311656        1.22509002685547        41.6798095703125       0.722653687000275           254021.703125                  101325        288.123809814453      0.0999964773654938   -3.20276087317926E-08                       0 
                      2         1.1812156078039        1.22509002685547        41.6798095703125       0.722653687000275           254021.703125                  101325        288.123809814453      0.0999964773654938   -3.20281521516307E-08                       0 
                      2        1.17996498249125        1.22509002685547        41.6798095703125       0.722653687000275           254021.703125                  101325        288.123809814453      0.0999964773654938   -3.20286955714688E-08                       0 
                      2        1.17871435717859        1.22509002685547        41.6798095703125       0.722653687000275           254021.703125                  101325        288.123809814453      0.0999964773654938   -3.20292389913069E-08                       0 
                      2        1.17746373186593        1.22509002685547        41.6798095703125       0.722653687000275           254021.703125                  101325        288.123809814453      0.0999964773654938   -3.20297824111451E-08                       0 
                      2        1.17621310655328        1.22509002685547        41.6798095703125       0.722653687000275           254021.703125                  101325        288.123809814453      0.0999964773654938   -3.20303258309832E-08                       0 
                      2        1.17496248124062        1.22509002685547        41.6798095703125       0.722653687000275           254021.703125                  101325        288.123809814453      0.0999964773654938   -3.20308692508213E-08                       0 
                      2        1.17371185592796        1.22509002685547        41.6798095703125       0.722653687000275           254021.703125                  101325        288.123809814453      0.0999964773654938   -3.20314126706594E-08                       0 
                      2        1.17246123061531        1.22509002685547        41.6798095703125       0.722653687000275           254021.703125                  101325        288.123809814453      0.0999964773654938   -3.20319560904975E-08                       0 
                      2        1.17121060530265        1.22509002685547        41.6798095703125       0.722653687000275           254021.703125                  101325        288.123809814453      0.0999964773654938   -3.20324995103357E-08                       0 
                      2        1.16995997998999        1.22509002685547        41.6798095703125       0.722653687000275           254021.703125                  101325        288.123809814453      0.0999964773654938   -3.20330429301738E-08                       0 
                      2        1.16870935467734        1.22509002685547        41.6798095703125       0.722653687000275           254021.703125                  101325        288.123809814453      0.0999964773654938   -3.20335863500119E-08                       0 
                      2        1.16745872936468        1.22509002685547        41.6798095703125       0.722653687000275           254021.703125                  101325        288.123809814453      0.0999964773654938     -3.203412976985E-08                       0 
                      2        1.16620810405203        1.22509002685547        41.6798095703125       0.722653687000275           254021.703125                  101325        288.123809814453      0.0999964773654938   -3.20346731896882E-08                       0 
                      2        1.16495747873937        1.22509002685547        41.6798095703125       0.722653687000275           254021.703125                  101325        288.123809814453      0.0999964773654938   -3.20352166095263E-08                       0 
                      2        1.16370685342671        1.22509002685547        41.6798095703125       0.722653687000275           254021.703125                  101325        288.123809814453      0.0999964773654938   -3.20357600293644E-08                       0 
                      2        1.16245622811406        1.22509002685547        41.6798095703125       0.722653687000275           254021.703125                  101325        288.123809814453      0.0999964773654938   -3.20363034492025E-08                       0 
                      2         1.1612056028014        1.22509002685547        41.6798095703125       0.722653687000275           254021.703125                  101325        288.123809814453      0.0999964773654938   -3.20368468690407E-08                       0 
                      2        1.15995497748874        1.22509002685547        41.6798095703125       0.722653687000275           254021.703125                  101325        288.123809814453      0.0999964773654938   -3.20373902888788E-08                       0 
                      2        1.15870435217609        1.22509002685547        41.6798095703125       0.722653687000275           254021.703125                  101325        288.123809814453      0.0999964773654938   -3.20379337087169E-08                       0 
                      2        1.15745372686343        1.22509002685547        41.6798095703125       0.722653687000275           254021.703125                  101325        288.123809814453      0.0999964773654938    -3.2038477128555E-08                       0 
                      2        1.15620310155078        1.22509002685547        41.6798095703125       0.722653687000275           254021.703125                  101325        288.123809814453      0.0999964773654938   -3.20390205483932E-08                       0 
                      2        1.15495247623812        1.22509002685547        41.6798095703125       0.722653687000275           254021.703125                  101325        288.123809814453      0.0999964773654938   -3.20395393878125E-08                       0 
                      2        1.15370185092546        1.22509002685547        41.6798095703125       0.722653687000275           254021.703125                  101325        288.123809814453      0.0999964773654938   -3.20398047526094E-08                       0 
                      2        1.15245122561281        1.22509002685547        41.6798095703125       0.722653687000275           254021.703125                  101325        288.123809814453      0.0999964773654938   -3.20400701174062E-08                       0 
                      2        1.15120060030015        1.22509002685547        41.6798095703125       0.722653687000275           254021.703125                  101325        288.123809814453      0.0999964773654938   -3.20403354822031E-08                       0 
                      2        1.14994997498749        1.22509002685547        41.6798095703125       0.722653687000275           254021.703125                  101325        288.123809814453      0.0999964773654938       -3.2040600847E-08                       0 
                      2        1.14869934967484        1.22509002685547        41.6798095703125       0.722653687000275           254021.703125                  101325        288.123809814453      0.0999964773654938   -3.20408662117968E-08                       0 
                      2        1.14744872436218        1.22509002685547        41.6798095703125       0.722653687000275           254021.703125                  101325        288.123809814453      0.0999964773654938   -3.20411315765937E-08                       0 
                      2        1.14619809904952        1.22509002685547        41.6798095703125       0.722653687000275           254021.703125                  101325        288.123809814453      0.0999964773654938   -3.20413969413905E-08                       0 
                      2        1.14494747373687        1.22509002685547        41.6798095703125       0.722653687000275           254021.703125                  101325        288.123809814453      0.0999964773654938   -3.20416623061874E-08                       0 
                      2        1.14369684842421        1.22509002685547        41.6798095703125       0.722653687000275           254021.703125                  101325        288.123809814453      0.0999964773654938   -3.20419276709843E-08                       0 
                      2        1.14244622311156        1.22509002685547        41.6798095703125       0.722653687000275           254021.703125                  101325        288.123809814453      0.0999964773654938   -3.20421930357811E-08                       0 
                      2         1.1411955977989        1.22509002685547        41.6798095703125       0.722653687000275           254021.703125                  101325        288.123809814453      0.0999964773654938    -3.2042458400578E-08                       0 
                      2        1.13994497248624        1.22509002685547        41.6798095703125       0.722653687000275           254021.703125                  101325        288.123809814453      0.0999964773654938   -3.20427237653749E-08                       0 
                      2        1.13869434717359        1.22509002685547        41.6798095703125       0.722653687000275           254021.703125                  101325        288.123809814453      0.0999964773654938   -3.20429891301717E-08                       0 
                      2        1.13744372186093        1.22509002685547        41.6798095703125       0.722653687000275           254021.703125                  101325        288.123809814453      0.0999964773654938   -3.20432544949686E-08                       0 
                      2        1.13619309654827        1.22509002685547        41.6798095703125       0.722653687000275           254021.703125                  101325        288.123809814453      0.0999964773654938   -3.20435198597654E-08                       0 
                      2        1.13494247123562        1.22509002685547        41.6798095703125       0.722653687000275           254021.703125                  101325        288.123809814453      0.0999964773654938   -3.20437852245623E-08                       0 
                      2        1.13369184592296        1.22509002685547        41.6798095703125       0.722653687000275           254021.703125                  101325        288.123809814453      0.0999964773654938   -3.20440505893592E-08                       0 
                      2        1.13244122061031        1.22509002685547        41.6798095703125       0.722653687000275           254021.703125                  101325        288.123809814453      0.0999964773654938    -3.2044315954156E-08                       0 
                      2        1.13119059529765        1.22509002685547        41.6798095703125       0.722653687000275           254021.703125                  101325        288.123809814453      0.0999964773654938   -3.20445813189529E-08                       0 
                      2        1.12993996998499        1.22509002685547        41.6798095703125       0.722653687000275           254021.703125                  101325        288.123809814453      0.0999964773654938   -3.20448466837497E-08                       0 
                      2        1.12868934467234        1.22509002685547        41.6798095703125       0.722653687000275           254021.703125                  101325        288.123809814453      0.0999964773654938   -3.20451120485466E-08                       0 
                      2        1.12743871935968        1.22509002685547        41.6798095703125       0.722653687000275           254021.703125                  101325        288.123809814453      0.0999964773654938   -3.20453774133435E-08                       0 
                      2        1.12618809404702        1.22509002685547        41.6798095703125       0.722653687000275           254021.703125                  101325        288.123809814453      0.0999964773654938   -3.20456427781403E-08                       0 
                      2        1.12493746873437        1.22509002685547        41.6798095703125       0.722653687000275           254021.703125                  101325        288.123809814453      0.0999964773654938   -3.20459081429372E-08                       0 
                      2        1.12368684342171        1.22509002685547        41.6798095703125       0.722653687000275           254021.703125                  101325        288.123809814453      0.0999964773654938    -3.2046173507734E-08                       0 
                      2        1.12243621810905        1.22509002685547        41.6798095703125       0.722653687000275           254021.703125                  101325        288.123809814453      0.0999964773654938   -3.20465733297298E-08                       0 
                      2         1.1211855927964        1.22509002685547        41.6798095703125       0.722653687000275           254021.703125                  101325        288.123809814453      0.0999964773654938   -3.20470099750461E-08                       0 
                      2        1.11993496748374        1.22509002685547        41.6798095703125       0.722653687000275           254021.703125                  101325        288.123809814453      0.0999964773654938   -3.20474466203623E-08                       0 
                      2        1.11868434217109        1.22509002685547        41.6798095703125       0.722653687000275           254021.703125                  101325        288.123809814453      0.0999964773654938   -3.20478832656786E-08                       0 
                      2        1.11743371685843        1.22509002685547        41.6798095703125       0.722653687000275           254021.703125                  101325        288.123809814453      0.0999964773654938   -3.20483199109948E-08                       0 
                      2        1.11618309154577        1.22509002685547        41.6798095703125       0.722653687000275           254021.703125                  101325        288.123809814453      0.0999964773654938   -3.20487565563111E-08                       0 
                      2        1.11493246623312        1.22509002685547        41.6798095703125       0.722653687000275           254021.703125                  101325        288.123809814453      0.0999964773654938   -3.20491932016273E-08                       0 
                      2        1.11368184092046        1.22509002685547        41.6798095703125       0.722653687000275           254021.703125                  101325        288.123809814453      0.0999964773654938   -3.20496298469436E-08                       0 
                      2         1.1124312156078        1.22509002685547        41.6798095703125       0.722653687000275           254021.703125                  101325        288.123809814453      0.0999964773654938   -3.20500664922599E-08                       0 
                      2        1.11118059029515        1.22509002685547        41.6798095703125       0.722653687000275           254021.703125                  101325        288.123809814453      0.0999964773654938   -3.20505031375761E-08                       0 