VARIABLES = "x"
 "y"
 "Density"
 "Momentum_x"
 "Momentum_y"
 "Energy"
 "Pressure"
 "Temperature"
 "Mach"
 "C<sub>p</sub>"
 "Roe_Dissipation"
ZONE
DT=(DOUBLE,DOUBLE,DOUBLE,DOUBLE,DOUBLE,DOUBLE,DOUBLE,DOUBLE,DOUBLE,DOUBLE,DOUBLE)
                     -1                    1.25        1.22509098052979        41.6798095703125   -2.78509817385271E-09                  254022           101325.203125        288.123992919922      0.0999812707304955    0.000303902503218976                       0 
                     -1        1.24874937468734        1.22509098052979        41.6798095703125   -2.75579693678121E-09                  254022           101325.203125        288.123992919922      0.0999812707304955    0.000303902503218977                       0 
                     -1        1.24749874937469        1.22509098052979        41.6798095703125   -2.72649569970972E-09                  254022           101325.203125        288.123992919922      0.0999812707304955    0.000303902503218976                       0 
                     -1        1.24624812406203        1.22509098052979        41.6798095703125   -2.69719446263822E-09                  254022           101325.203125        288.123992919922      0.0999812707304955    0.000303902503218976                       0 
                     -1        1.24499749874937        1.22509098052979        41.6798095703125   -2.66789322556672E-09                  254022           101325.203125        288.123992919922      0.0999812707304955    0.000303902503218977                       0 
                     -1        1.24374687343672        1.22509098052979        41.6798095703125   -2.63859198849522E-09                  254022           101325.203125        288.123992919922      0.0999812707304955    0.000303902503218976                       0 
                     -1        1.24249624812406        1.22509098052979        41.6798095703125   -2.60929075142372E-09                  254022           101325.203125        288.123992919922      0.0999812707304955    0.000303902503218976                       0 
                     -1        1.24124562281141        1.22509098052979        41.6798095703125   -2.57998951435223E-09                  254022           101325.203125        288.123992919922      0.0999812707304955    0.000303902503218976                       0 
                     -1        1.23999499749875        1.22509098052979        41.6798095703125   -2.55068827728073E-09                  254022           101325.203125        288.123992919922      0.0999812707304955    0.000303902503218976                       0 
                     -1        1.23874437218609        1.22509098052979        41.6798095703125   -2.52138704020923E-09                  254022           101325.203125        288.123992919922      0.0999812707304955    0.000303902503218976                       0 
                     -1        1.23749374687344        1.22509098052979        41.6798095703125   -2.49208580313774E-09                  254022           101325.203125        288.123992919922      0.0999812707304955    0.000303902503218976                       0 
                     -1        1.23624312156078        1.22509098052979        41.6798095703125   -2.46278456606623E-09                  254022           101325.203125        288.123992919922      0.0999812707304955    0.000303902503218976                       0 
                     -1        1.23499249624812        1.22509098052979        41.6798095703125   -2.43348332899474E-09                  254022           101325.203125        288.123992919922      0.0999812707304955    0.000303902503218976                       0 
                     -1        1.23374187093547        1.22509098052979        41.6798095703125   -2.40418210776752E-09                  254022           101325.203125        288.123992919922      0.0999812707304955    0.000303902503218976                       0 
                     -1        1.23249124562281        1.22509098052979        41.6798095703125   -2.37488087069602E-09                  254022           101325.203125        288.123992919922      0.0999812707304955    0.000303902503218976                       0 
                     -1        1.23124062031016        1.22509098052979        41.6798095703125   -2.34557963362453E-09                  254022           101325.203125        288.123992919922      0.0999812707304955    0.000303902503218976                       0 
                     -1         1.2299899949975        1.22509098052979        41.6798095703125   -2.31627839655303E-09                  254022           101325.203125        288.123992919922      0.0999812707304955    0.000303902503218976                       0 
                     -1        1.22873936968484        1.22509098052979        41.6798095703125   -2.28697715948153E-09                  254022           101325.203125        288.123992919922      0.0999812707304955    0.000303902503218976                       0 
                     -1        1.22748874437219        1.22509098052979        41.6798095703125   -2.25767592241003E-09                  254022           101325.203125        288.123992919922      0.0999812707304955    0.000303902503218976                       0 
                     -1        1.22623811905953        1.22509098052979        41.6798095703125   -2.22837468533853E-09                  254022           101325.203125        288.123992919922      0.0999812707304955    0.000303902503218976                       0 
                     -1        1.22498749374687        1.22509098052979        41.6798095703125   -2.19907344826704E-09                  254022           101325.203125        288.123992919922      0.0999812707304955    0.000303902503218977                       0 
                     -1        1.22373686843422        1.22509098052979        41.6798095703125   -2.16977221119554E-09                  254022           101325.203125        288.123992919922      0.0999812707304955    0.000303902503218976                       0 
                     -1        1.22248624312156        1.22509098052979        41.6798095703125   -2.14047097412404E-09                  254022           101325.203125        288.123992919922      0.0999812707304955    0.000303902503218976                       0 
                     -1         1.2212356178089        1.22509098052979        41.6798095703125   -2.11116973705254E-09                  254022           101325.203125        288.123992919922      0.0999812707304955    0.000303902503218976                       0 
                     -1        1.21998499249625        1.22509098052979        41.6798095703125   -2.08186849998104E-09                  254022           101325.203125        288.123992919922      0.0999812707304955    0.000303902503218976                       0 
                     -1        1.21873436718359        1.22509098052979        41.6798095703125   -2.05256726290955E-09                  254022           101325.203125        288.123992919922      0.0999812707304955    0.000303902503218976                       0 
                     -1        1.21748374187094        1.22509098052979        41.6798095703125   -2.02475472125016E-09                  254022           101325.203125        288.123992919922      0.0999812707304955    0.000303902503218976                       0 
                     -1        1.21623311655828        1.22509098052979        41.6798095703125   -1.99759288221611E-09                  254022           101325.203125        288.123992919922      0.0999812707304955    0.000303902503218976                       0 
                     -1        1.21498249124562        1.22509098052979        41.6798095703125   -1.97043104318206E-09                  254022           101325.203125        288.123992919922      0.0999812707304955    0.000303902503218976                       0 
                     -1        1.21373186593297        1.22509098052979        41.6798095703125   -1.94326920414801E-09                  254022           101325.203125        288.123992919922      0.0999812707304955    0.000303902503218976                       0 
                     -1        1.21248124062031        1.22509098052979        41.6798095703125   -1.91610736511396E-09                  254022           101325.203125        288.123992919922      0.0999812707304955    0.000303902503218976                       0 
                     -1        1.21123061530765        1.22509098052979        41.6798095703125   -1.88894552607991E-09                  254022           101325.203125        288.123992919922      0.0999812707304955    0.000303902503218976                       0 
                     -1          1.209979989995        1.22509098052979        41.6798095703125   -1.86178368704586E-09                  254022           101325.203125        288.123992919922      0.0999812707304955    0.000303902503218976                       0 
                     -1        1.20872936468234        1.22509098052979        41.6798095703125   -1.83462184801181E-09                  254022           101325.203125        288.123992919922      0.0999812707304955    0.000303902503218976                       0 
                     -1        1.20747873936968        1.22509098052979        41.6798095703125   -1.80746000897777E-09                  254022           101325.203125        288.123992919922      0.0999812707304955    0.000303902503218976                       0 
                     -1        1.20622811405703        1.22509098052979        41.6798095703125   -1.78029816994372E-09                  254022           101325.203125        288.123992919922      0.0999812707304955    0.000303902503218976                       0 
                     -1        1.20497748874437        1.22509098052979        41.6798095703125   -1.75313633090967E-09                  254022           101325.203125        288.123992919922      0.0999812707304955    0.000303902503218976                       0 
                     -1        1.20372686343172        1.22509098052979        41.6798095703125   -1.72597449187562E-09                  254022           101325.203125        288.123992919922      0.0999812707304955    0.000303902503218976                       0 
                     -1        1.20247623811906        1.22509098052979        41.6798095703125   -1.69881267416032E-09                  254022           101325.203125        288.123992919922      0.0999812707304955    0.000303902503218976                       0 
                     -1         1.2012256128064        1.22509098052979        41.6798095703125   -1.67165083512627E-09                  254022           101325.203125        288.123992919922      0.0999812707304955    0.000303902503218976                       0 
                     -1        1.19997498749375        1.22509098052979        41.6798095703125   -1.64448899609223E-09                  254022           101325.203125        288.123992919922      0.0999812707304955    0.000303902503218976                       0 
                     -1        1.19872436218109        1.22509098052979        41.6798095703125   -1.61732715705818E-09                  254022           101325.203125        288.123992919922      0.0999812707304955    0.000303902503218976                       0 
                     -1        1.19747373686843        1.22509098052979        41.6798095703125   -1.59016531802413E-09                  254022           101325.203125        288.123992919922      0.0999812707304955    0.000303902503218976                       0 
                     -1        1.19622311155578        1.22509098052979        41.6798095703125   -1.56300347899008E-09                  254022           101325.203125        288.123992919922      0.0999812707304955    0.000303902503218976                       0 
                     -1        1.19497248624312        1.22509098052979        41.6798095703125   -1.53584163995603E-09                  254022           101325.203125        288.123992919922      0.0999812707304955    0.000303902503218976                       0 
                     -1        1.19372186093047        1.22509098052979        41.6798095703125   -1.50867980092198E-09                  254022           101325.203125        288.123992919922      0.0999812707304955    0.000303902503218976                       0 
                     -1        1.19247123561781        1.22509098052979        41.6798095703125   -1.48151796188793E-09                  254022           101325.203125        288.123992919922      0.0999812707304955    0.000303902503218977                       0 
                     -1        1.19122061030515        1.22509098052979        41.6798095703125   -1.45435612285388E-09                  254022           101325.203125        288.123992919922      0.0999812707304955    0.000303902503218976                       0 
                     -1         1.1899699849925        1.22509098052979        41.6798095703125   -1.42719428381984E-09                  254022           101325.203125        288.123992919922      0.0999812707304955    0.000303902503218976                       0 
                     -1        1.18871935967984        1.22509098052979        41.6798095703125   -1.40003244478579E-09                  254022           101325.203125        288.123992919922      0.0999812707304955    0.000303902503218976                       0 
                     -1        1.18746873436718        1.22509098052979        41.6798095703125   -1.37287060575174E-09                  254022           101325.203125        288.123992919922      0.0999812707304955    0.000303902503218976                       0 
                     -1        1.18621810905453        1.22509098052979        41.6798095703125   -1.34817241826238E-09                  254022           101325.203125        288.123992919922      0.0999812707304955    0.000303902502315978                       0 
                     -1        1.18496748374187        1.22509098052979        41.6798095703125   -1.32728654344001E-09                  254022           101325.203125        288.123992919922      0.0999812707304955    0.000303902500015657                       0 
                     -1        1.18371685842921        1.22509098052979        41.6798095703125   -1.30640066861763E-09                  254022           101325.203125        288.123992919922      0.0999812707304955    0.000303902497715337                       0 
                     -1        1.18246623311656        1.22509098052979        41.6798095703125   -1.28551479379525E-09                  254022           101325.203125        288.123992919922      0.0999812707304955    0.000303902495415016                       0 
                     -1         1.1812156078039        1.22509098052979        41.6798095703125   -1.26462891897288E-09                  254022           101325.203125        288.123992919922      0.0999812707304955    0.000303902493114696                       0 
                     -1        1.17996498249125        1.22509098052979        41.6798095703125    -1.2437430441505E-09                  254022           101325.203125        288.123992919922      0.0999812707304955    0.000303902490814375                       0 
                     -1        1.17871435717859        1.22509098052979        41.6798095703125   -1.22285716932812E-09                  254022           101325.203125        288.123992919922      0.0999812707304955    0.000303902488514054                       0 
                     -1        1.17746373186593        1.22509098052979        41.6798095703125   -1.20197129450574E-09                  254022           101325.203125        288.123992919922      0.0999812707304955    0.000303902486213734                       0 
                     -1        1.17621310655328        1.22509098052979        41.6798095703125   -1.18108541968337E-09                  254022           101325.203125        288.123992919922      0.0999812707304955    0.000303902483913413                       0 
                     -1        1.17496248124062        1.22509098052979        41.6798095703125   -1.16019954486099E-09                  254022           101325.203125        288.123992919922      0.0999812707304955    0.000303902481613093                       0 
                     -1        1.17371185592796        1.22509098052979        41.6798095703125   -1.13931367003861E-09                  254022           101325.203125        288.123992919922      0.0999812707304955    0.000303902479312772                       0 
                     -1        1.17246123061531        1.22509098052979        41.6798095703125   -1.11842779521624E-09                  254022           101325.203125        288.123992919922      0.0999812707304955    0.000303902477012452                       0 
                     -1        1.17121060530265        1.22509098052979        41.6798095703125   -1.09754192039386E-09                  254022           101325.203125        288.123992919922      0.0999812707304955    0.000303902474712131                       0 
                     -1        1.16995997998999        1.22509098052979        41.6798095703125   -1.07665607030232E-09                  254022           101325.203125        288.123992919922      0.0999812707304955    0.000303902472411743                       0 
                     -1        1.16870935467734        1.22509098052979        41.6798095703125   -1.05577019547994E-09                  254022           101325.203125        288.123992919922      0.0999812707304955    0.000303902470111423                       0 
                     -1        1.16745872936468        1.22509098052979        41.6798095703125   -1.03488432065757E-09                  254022           101325.203125        288.123992919922      0.0999812707304955    0.000303902467811102                       0 
                     -1        1.16620810405203        1.22509098052979        41.6798095703125   -1.01399844583519E-09                  254022           101325.203125        288.123992919922      0.0999812707304955    0.000303902465510781                       0 
                     -1        1.16495747873937        1.22509098052979        41.6798095703125   -9.93112571012813E-10                  254022           101325.203125        288.123992919922      0.0999812707304955    0.000303902463210461                       0 
                     -1        1.16370685342671        1.22509098052979        41.6798095703125   -9.72226696190437E-10                  254022           101325.203125        288.123992919922      0.0999812707304955     0.00030390246091014                       0 
                     -1        1.16245622811406        1.22509098052979        41.6798095703125    -9.5134082136806E-10                  254022           101325.203125        288.123992919922      0.0999812707304955     0.00030390245860982                       0 
                     -1         1.1612056028014        1.22509098052979        41.6798095703125    -9.3045494654568E-10                  254022           101325.203125        288.123992919922      0.0999812707304955    0.000303902456309499                       0 
                     -1        1.15995497748874        1.22509098052979        41.6798095703125   -9.09569071723304E-10                  254022           101325.203125        288.123992919922      0.0999812707304955    0.000303902454009179                       0 
                     -1        1.15870435217609        1.22509098052979        41.6798095703125   -8.88683196900927E-10                  254022           101325.203125        288.123992919922      0.0999812707304955    0.000303902451708858                       0 
                     -1        1.15745372686343        1.22509098052979        41.6798095703125    -8.6779732207855E-10                  254022           101325.203125        288.123992919922      0.0999812707304955    0.000303902449408538                       0 
                     -1        1.15620310155078        1.22509098052979        41.6798095703125   -8.46911447256174E-10                  254022           101325.203125        288.123992919922      0.0999812707304955    0.000303902447108217                       0 
                     -1        1.15495247623812        1.22509098052979        41.6798095303308   -8.26571587211649E-10                  254022           101325.203125        288.123992919922      0.0999812707304955     0.00030390244485873                       0 
                     -1        1.15370185092546        1.22509098052979        41.6798090780558   -8.11862261418393E-10                  254022           101325.203125        288.123992919922      0.0999812707304955    0.000303902443133437                       0 
                     -1        1.15245122561281        1.22509098052979        41.6798086257807   -7.97152935625135E-10                  254022           101325.203125        288.123992919922      0.0999812707304955    0.000303902441408145                       0 
                     -1        1.15120060030015        1.22509098052979        41.6798081735057   -7.82443609831879E-10                  254022           101325.203125        288.123992919922      0.0999812707304955    0.000303902439682853                       0 
                     -1        1.14994997498749        1.22509098052979        41.6798077212306   -7.67734284038623E-10                  254022           101325.203125        288.123992919922      0.0999812707304955     0.00030390243795756                       0 
                     -1        1.14869934967484        1.22509098052979        41.6798072689556   -7.53024958245367E-10                  254022           101325.203125        288.123992919922      0.0999812707304955    0.000303902436232268                       0 
                     -1        1.14744872436218        1.22509098052979        41.6798068166805   -7.38315632452111E-10                  254022           101325.203125        288.123992919922      0.0999812707304955    0.000303902434506976                       0 
                     -1        1.14619809904952        1.22509098052979        41.6798063644055   -7.23606306658855E-10                  254022           101325.203125        288.123992919922      0.0999812707304955    0.000303902432781683                       0 
                     -1        1.14494747373687        1.22509098052979        41.6798059121304   -7.08896980865597E-10                  254022           101325.203125        288.123992919922      0.0999812707304955    0.000303902431056391                       0 
                     -1        1.14369684842421        1.22509098052979        41.6798054598554   -6.94187655072341E-10                  254022           101325.203125        288.123992919922      0.0999812707304955    0.000303902429331098                       0 
                     -1        1.14244622311156        1.22509098052979        41.6798050075803   -6.79478329279085E-10                  254022           101325.203125        288.123992919922      0.0999812707304955    0.000303902427605806                       0 
                     -1         1.1411955977989        1.22509098052979        41.6798045553053   -6.64769003485829E-10                  254022           101325.203125        288.123992919922      0.0999812707304955    0.000303902425880514                       0 
                     -1        1.13994497248624        1.22509098052979        41.6798041030302   -6.50059677692573E-10                  254022           101325.203125        288.123992919922      0.0999812707304955    0.000303902424155221                       0 
                     -1        1.13869434717359        1.22509098052979        41.6798036507552   -6.35350379438169E-10                  254022           101325.203125        288.123992919922      0.0999812707304955    0.000303902422429979                       0 
                     -1        1.13744372186093        1.22509098052979        41.6798031984801   -6.20641053644913E-10                  254022           101325.203125        288.123992919922      0.0999812707304955    0.000303902420704687                       0 
                     -1        1.13619309654827        1.22509098052979        41.6798027462051   -6.05931727851655E-10                  254022           101325.203125        288.123992919922      0.0999812707304955    0.000303902418979395                       0 
                     -1        1.13494247123562        1.22509098052979          41.67980229393   -5.91222402058399E-10                  254022           101325.203125        288.123992919922      0.0999812707304955    0.000303902417254102                       0 
                     -1        1.13369184592296        1.22509098052979         41.679801841655   -5.76513076265143E-10                  254022           101325.203125        288.123992919922      0.0999812707304955     0.00030390241552881                       0 
                     -1        1.13244122061031        1.22509098052979        41.6798013893799   -5.61803750471887E-10                  254022           101325.203125        288.123992919922      0.0999812707304955    0.000303902413803518                       0 
                     -1        1.13119059529765        1.22509098052979        41.6798009371049   -5.47094424678631E-10                  254022           101325.203125        288.123992919922      0.0999812707304955    0.000303902412078225                       0 
                     -1        1.12993996998499        1.22509098052979        41.6798004848298   -5.32385098885375E-10                  254022           101325.203125        288.123992919922      0.0999812707304955    0.000303902410352933                       0 
                     -1        1.12868934467234        1.22509098052979        41.6798000325548   -5.17675773092117E-10                  254022           101325.203125        288.123992919922      0.0999812707304955     0.00030390240862764                       0 
                     -1        1.12743871935968        1.22509098052979        41.6797995802797   -5.02966447298861E-10                  254022           101325.203125        288.123992919922      0.0999812707304955    0.000303902406902348                       0 
                     -1        1.12618809404702        1.22509098052979        41.6797991280047   -4.88257121505605E-10                  254022           101325.203125        288.123992919922      0.0999812707304955    0.000303902405177056                       0 
                     -1        1.12493746873437        1.22509098052979        41.6797986757296   -4.73547795712349E-10                  254022           101325.203125        288.123992919922      0.0999812707304955    0.000303902403451763                       0 
                     -1        1.12368684342171        1.22509098052979        41.6797982234546   -4.58838469919093E-10                  254022           101325.203125        288.123992919922      0.0999812707304955    0.000303902401726471                       0 
                     -1        1.12243621810905        1.22509098052979        41.6797981262207   -4.48882100712434E-10                  254022           101325.203125        288.123992919922      0.0999812707304955    0.000303902401355553                       0 
                     -1         1.1211855927964        1.22509098052979        41.6797981262207   -4.40227407020761E-10                  254022           101325.203125        288.123992919922      0.0999812707304955    0.000303902401355553                       0 
                     -1        1.11993496748374        1.22509098052979        41.6797981262207   -4.31572713329088E-10                  254022           101325.203125        288.123992919922      0.0999812707304955    0.000303902401355553                       0 
                     -1        1.11868434217109        1.22509098052979        41.6797981262207   -4.22918019637416E-10                  254022           101325.203125        288.123992919922      0.0999812707304955    0.000303902401355553                       0 
                     -1        1.11743371685843        1.22509098052979        41.6797981262207   -4.14263325945744E-10                  254022           101325.203125        288.123992919922      0.0999812707304955    0.000303902401355553                       0 
                     -1        1.11618309154577        1.22509098052979        41.6797981262207   -4.05608632254071E-10                  254022           101325.203125        288.123992919922      0.0999812707304955    0.000303902401355553                       0 
                     -1        1.11493246623312        1.22509098052979        41.6797981262207   -3.96953938562399E-10                  254022           101325.203125        288.123992919922      0.0999812707304955    0.000303902401355553                       0 
                     -1        1.11368184092046        1.22509098052979        41.6797981262207   -3.88299244870727E-10                  254022           101325.203125        288.123992919922      0.0999812707304955    0.000303902401355553                       0 
                     -1         1.1124312156078        1.22509098052979        41.6797981262207   -3.79644551179055E-10                  254022           101325.203125        288.123992919922      0.0999812707304955    0.000303902401355553                       0 
                     -1        1.11118059029515        1.22509098052979        41.6797981262207   -3.70989857487382E-10                  254022           101325.203125        288.123992919922      0.0999812707304955    0.000303902401355553                       0 