TITLE = "Visualization of the volumetric solution"
VARIABLES = "x","y","Density","Momentum_x","Momentum_y","Energy","Pressure","Temperature","Mach","C<sub>p</sub>","Roe_Dissipation"
ZONE NODES= 1720, ELEMENTS= 3288, DATAPACKING=POINT, ZONETYPE=FEQUADRILATERAL
1.040621e+00	-1.209117e+00	1.234086e+00	4.413673e+01	-2.757378e+01	2.570280e+05	1.023723e+05	2.889797e+02	1.237444e-01	1.476546e+00	0.000000e+00	
1.000000e+00	-1.190476e+00	1.234086e+00	4.413627e+01	-2.757540e+01	2.570281e+05	1.023723e+05	2.889798e+02	1.237455e-01	1.476566e+00	0.000000e+00	
1.049910e+00	-1.157894e+00	1.234087e+00	4.413658e+01	-2.757412e+01	2.570278e+05	1.023722e+05	2.889792e+02	1.237445e-01	1.476451e+00	0.000000e+00	
1.093743e+00	-1.191849e+00	1.234087e+00	4.413738e+01	-2.757237e+01	2.570279e+05	1.023722e+05	2.889793e+02	1.237439e-01	1.476501e+00	0.000000e+00	
1.000000e+00	-1.130952e+00	1.234086e+00	4.413629e+01	-2.757591e+01	2.570278e+05	1.023722e+05	2.889793e+02	1.237462e-01	1.476399e+00	0.000000e+00	
1.095476e+00	-1.132804e+00	1.234089e+00	4.413706e+01	-2.757295e+01	2.570277e+05	1.023722e+05	2.889787e+02	1.237440e-01	1.476379e+00	0.000000e+00	
1.048314e+00	-1.101041e+00	1.234089e+00	4.413683e+01	-2.757459e+01	2.570277e+05	1.023721e+05	2.889787e+02	1.237456e-01	1.476348e+00	0.000000e+00	
1.144982e+00	-1.160302e+00	1.234089e+00	4.413759e+01	-2.757159e+01	2.570278e+05	1.023722e+05	2.889786e+02	1.237433e-01	1.476416e+00	0.000000e+00	
1.000000e+00	-1.071429e+00	1.234088e+00	4.413688e+01	-2.757624e+01	2.570276e+05	1.023721e+05	2.889786e+02	1.237478e-01	1.476297e+00	0.000000e+00	
1.148009e+00	-1.206784e+00	1.234087e+00	4.413806e+01	-2.757108e+01	2.570278e+05	1.023722e+05	2.889791e+02	1.237437e-01	1.476429e+00	0.000000e+00	
1.095648e+00	-1.071244e+00	1.234091e+00	4.413721e+01	-2.757335e+01	2.570276e+05	1.023721e+05	2.889781e+02	1.237447e-01	1.476300e+00	0.000000e+00	
1.145729e+00	-1.102380e+00	1.234091e+00	4.413740e+01	-2.757193e+01	2.570276e+05	1.023721e+05	2.889781e+02	1.237433e-01	1.476319e+00	0.000000e+00	
1.049733e+00	-1.041321e+00	1.234090e+00	4.413721e+01	-2.757480e+01	2.570275e+05	1.023721e+05	2.889780e+02	1.237466e-01	1.476243e+00	0.000000e+00	
1.192761e+00	-1.192577e+00	1.234089e+00	4.413819e+01	-2.757046e+01	2.570277e+05	1.023722e+05	2.889787e+02	1.237431e-01	1.476402e+00	0.000000e+00	
1.195107e+00	-1.133762e+00	1.234091e+00	4.413775e+01	-2.757076e+01	2.570276e+05	1.023721e+05	2.889781e+02	1.237425e-01	1.476345e+00	0.000000e+00	
1.000000e+00	-1.011905e+00	1.234090e+00	4.413739e+01	-2.757623e+01	2.570275e+05	1.023720e+05	2.889780e+02	1.237488e-01	1.476198e+00	0.000000e+00	
1.094413e+00	-1.012480e+00	1.234092e+00	4.413724e+01	-2.757343e+01	2.570274e+05	1.023720e+05	2.889776e+02	1.237448e-01	1.476205e+00	0.000000e+00	
1.144800e+00	-1.042146e+00	1.234092e+00	4.413727e+01	-2.757209e+01	2.570275e+05	1.023721e+05	2.889776e+02	1.237432e-01	1.476247e+00	0.000000e+00	
1.194807e+00	-1.073419e+00	1.234092e+00	4.413740e+01	-2.757088e+01	2.570275e+05	1.023721e+05	2.889776e+02	1.237419e-01	1.476272e+00	0.000000e+00	
1.046483e+00	-9.824203e-01	1.234092e+00	4.413737e+01	-2.757478e+01	2.570274e+05	1.023720e+05	2.889775e+02	1.237468e-01	1.476160e+00	0.000000e+00	
1.243114e+00	-1.166395e+00	1.234091e+00	4.413818e+01	-2.756969e+01	2.570276e+05	1.023721e+05	2.889782e+02	1.237421e-01	1.476343e+00	0.000000e+00	
1.243982e+00	-1.104797e+00	1.234092e+00	4.413762e+01	-2.756983e+01	2.570275e+05	1.023721e+05	2.889777e+02	1.237410e-01	1.476296e+00	0.000000e+00	
1.000000e+00	-9.523810e-01	1.234092e+00	4.413755e+01	-2.757606e+01	2.570273e+05	1.023720e+05	2.889775e+02	1.237488e-01	1.476123e+00	0.000000e+00	
1.143063e+00	-9.807371e-01	1.234093e+00	4.413693e+01	-2.757195e+01	2.570273e+05	1.023720e+05	2.889773e+02	1.237423e-01	1.476168e+00	0.000000e+00	
1.092059e+00	-9.503938e-01	1.234093e+00	4.413704e+01	-2.757325e+01	2.570273e+05	1.023720e+05	2.889772e+02	1.237442e-01	1.476132e+00	0.000000e+00	
1.193442e+00	-1.011838e+00	1.234093e+00	4.413692e+01	-2.757075e+01	2.570273e+05	1.023720e+05	2.889773e+02	1.237408e-01	1.476207e+00	0.000000e+00	
1.243532e+00	-1.043138e+00	1.234093e+00	4.413700e+01	-2.756967e+01	2.570274e+05	1.023721e+05	2.889773e+02	1.237396e-01	1.476230e+00	0.000000e+00	
1.045466e+00	-9.241753e-01	1.234093e+00	4.413724e+01	-2.757453e+01	2.570272e+05	1.023719e+05	2.889772e+02	1.237463e-01	1.476084e+00	0.000000e+00	
1.292216e+00	-1.195962e+00	1.234091e+00	4.413880e+01	-2.756882e+01	2.570277e+05	1.023722e+05	2.889781e+02	1.237422e-01	1.476371e+00	0.000000e+00	
1.293053e+00	-1.132219e+00	1.234092e+00	4.413791e+01	-2.756887e+01	2.570275e+05	1.023721e+05	2.889777e+02	1.237404e-01	1.476296e+00	0.000000e+00	
1.293488e+00	-1.073063e+00	1.234093e+00	4.413714e+01	-2.756872e+01	2.570274e+05	1.023721e+05	2.889773e+02	1.237386e-01	1.476250e+00	0.000000e+00	
1.000000e+00	-8.928571e-01	1.234092e+00	4.413738e+01	-2.757575e+01	2.570272e+05	1.023719e+05	2.889771e+02	1.237481e-01	1.476039e+00	0.000000e+00	
1.139604e+00	-9.191736e-01	1.234093e+00	4.413641e+01	-2.757157e+01	2.570271e+05	1.023720e+05	2.889771e+02	1.237408e-01	1.476093e+00	0.000000e+00	
1.191101e+00	-9.499658e-01	1.234093e+00	4.413627e+01	-2.757037e+01	2.570272e+05	1.023720e+05	2.889771e+02	1.237390e-01	1.476134e+00	0.000000e+00	
1.086165e+00	-8.914965e-01	1.234093e+00	4.413666e+01	-2.757293e+01	2.570271e+05	1.023719e+05	2.889771e+02	1.237431e-01	1.476046e+00	0.000000e+00	
1.242086e+00	-9.812383e-01	1.234093e+00	4.413622e+01	-2.756929e+01	2.570272e+05	1.023720e+05	2.889772e+02	1.237375e-01	1.476170e+00	0.000000e+00	
1.292812e+00	-1.012013e+00	1.234094e+00	4.413625e+01	-2.756833e+01	2.570272e+05	1.023720e+05	2.889772e+02	1.237363e-01	1.476196e+00	0.000000e+00	
1.036811e+00	-8.675911e-01	1.234092e+00	4.413698e+01	-2.757435e+01	2.570271e+05	1.023719e+05	2.889771e+02	1.237456e-01	1.475999e+00	0.000000e+00	
1.341812e+00	-1.209973e+00	1.234091e+00	4.413900e+01	-2.756823e+01	2.570276e+05	1.023721e+05	2.889780e+02	1.237419e-01	1.476318e+00	0.000000e+00	
1.346003e+00	-1.158948e+00	1.234092e+00	4.413825e+01	-2.756809e+01	2.570275e+05	1.023721e+05	2.889777e+02	1.237401e-01	1.476290e+00	0.000000e+00	
1.344501e+00	-1.101571e+00	1.234093e+00	4.413730e+01	-2.756789e+01	2.570274e+05	1.023721e+05	2.889774e+02	1.237379e-01	1.476258e+00	0.000000e+00	
1.343694e+00	-1.041833e+00	1.234094e+00	4.413631e+01	-2.756748e+01	2.570273e+05	1.023720e+05	2.889772e+02	1.237354e-01	1.476212e+00	0.000000e+00	
1.000000e+00	-8.333333e-01	1.234092e+00	4.413705e+01	-2.757546e+01	2.570270e+05	1.023719e+05	2.889770e+02	1.237471e-01	1.475951e+00	0.000000e+00	
1.135849e+00	-8.580295e-01	1.234093e+00	4.413589e+01	-2.757107e+01	2.570270e+05	1.023719e+05	2.889771e+02	1.237392e-01	1.476025e+00	0.000000e+00	
1.188203e+00	-8.888722e-01	1.234093e+00	4.413561e+01	-2.756984e+01	2.570270e+05	1.023719e+05	2.889771e+02	1.237371e-01	1.476069e+00	0.000000e+00	
1.240135e+00	-9.198651e-01	1.234093e+00	4.413543e+01	-2.756876e+01	2.570271e+05	1.023720e+05	2.889771e+02	1.237353e-01	1.476109e+00	0.000000e+00	
1.060587e+00	-8.131532e-01	1.234092e+00	4.413640e+01	-2.757294e+01	2.570269e+05	1.023718e+05	2.889771e+02	1.237427e-01	1.475932e+00	0.000000e+00	
1.291525e+00	-9.506591e-01	1.234093e+00	4.413534e+01	-2.756781e+01	2.570271e+05	1.023720e+05	2.889771e+02	1.237339e-01	1.476142e+00	0.000000e+00	
1.342746e+00	-9.809885e-01	1.234094e+00	4.413532e+01	-2.756696e+01	2.570271e+05	1.023720e+05	2.889772e+02	1.237328e-01	1.476168e+00	0.000000e+00	
1.396074e+00	-1.192578e+00	1.234092e+00	4.413868e+01	-2.756746e+01	2.570275e+05	1.023721e+05	2.889777e+02	1.237402e-01	1.476314e+00	0.000000e+00	
1.395764e+00	-1.131440e+00	1.234093e+00	4.413751e+01	-2.756715e+01	2.570274e+05	1.023721e+05	2.889774e+02	1.237374e-01	1.476264e+00	0.000000e+00	
1.394808e+00	-1.071143e+00	1.234094e+00	4.413640e+01	-2.756673e+01	2.570273e+05	1.023721e+05	2.889772e+02	1.237346e-01	1.476227e+00	0.000000e+00	
1.393992e+00	-1.010751e+00	1.234094e+00	4.413533e+01	-2.756621e+01	2.570271e+05	1.023720e+05	2.889772e+02	1.237318e-01	1.476186e+00	0.000000e+00	
1.000000e+00	-7.738095e-01	1.234091e+00	4.413691e+01	-2.757506e+01	2.570268e+05	1.023718e+05	2.889770e+02	1.237464e-01	1.475840e+00	0.000000e+00	
1.136070e+00	-7.973420e-01	1.234092e+00	4.413555e+01	-2.757042e+01	2.570268e+05	1.023718e+05	2.889771e+02	1.237378e-01	1.475932e+00	0.000000e+00	
1.187499e+00	-8.298549e-01	1.234092e+00	4.413515e+01	-2.756925e+01	2.570269e+05	1.023719e+05	2.889772e+02	1.237354e-01	1.476006e+00	0.000000e+00	
1.238805e+00	-8.599060e-01	1.234092e+00	4.413486e+01	-2.756822e+01	2.570269e+05	1.023719e+05	2.889772e+02	1.237335e-01	1.476048e+00	0.000000e+00	
1.290245e+00	-8.900452e-01	1.234093e+00	4.413465e+01	-2.756729e+01	2.570270e+05	1.023720e+05	2.889772e+02	1.237319e-01	1.476089e+00	0.000000e+00	
1.341669e+00	-9.201922e-01	1.234093e+00	4.413453e+01	-2.756647e+01	2.570270e+05	1.023720e+05	2.889772e+02	1.237306e-01	1.476120e+00	0.000000e+00	
1.393077e+00	-9.501287e-01	1.234093e+00	4.413447e+01	-2.756573e+01	2.570270e+05	1.023720e+05	2.889772e+02	1.237296e-01	1.476145e+00	0.000000e+00	
1.043305e+00	-7.483473e-01	1.234091e+00	4.413651e+01	-2.757292e+01	2.570267e+05	1.023718e+05	2.889771e+02	1.237430e-01	1.475833e+00	0.000000e+00	
1.446081e+00	-1.157621e+00	1.234093e+00	4.413772e+01	-2.756653e+01	2.570274e+05	1.023721e+05	2.889774e+02	1.237370e-01	1.476261e+00	0.000000e+00	
1.450844e+00	-1.210365e+00	1.234093e+00	4.413873e+01	-2.756682e+01	2.570274e+05	1.023721e+05	2.889775e+02	1.237395e-01	1.476268e+00	0.000000e+00	
1.445809e+00	-1.099210e+00	1.234094e+00	4.413651e+01	-2.756608e+01	2.570273e+05	1.023721e+05	2.889772e+02	1.237340e-01	1.476229e+00	0.000000e+00	
1.091832e+00	-7.665481e-01	1.234091e+00	4.413598e+01	-2.757138e+01	2.570267e+05	1.023718e+05	2.889771e+02	1.237399e-01	1.475879e+00	0.000000e+00	
1.445317e+00	-1.039826e+00	1.234094e+00	4.413538e+01	-2.756556e+01	2.570272e+05	1.023720e+05	2.889772e+02	1.237311e-01	1.476199e+00	0.000000e+00	
1.444508e+00	-9.797257e-01	1.234093e+00	4.413446e+01	-2.756509e+01	2.570270e+05	1.023720e+05	2.889773e+02	1.237287e-01	1.476163e+00	0.000000e+00	
1.000000e+00	-7.142857e-01	1.234090e+00	4.413725e+01	-2.757453e+01	2.570266e+05	1.023717e+05	2.889770e+02	1.237466e-01	1.475724e+00	0.000000e+00	
1.188570e+00	-7.715395e-01	1.234091e+00	4.413514e+01	-2.756877e+01	2.570268e+05	1.023719e+05	2.889773e+02	1.237349e-01	1.475949e+00	0.000000e+00	
1.141157e+00	-7.415263e-01	1.234091e+00	4.413570e+01	-2.756981e+01	2.570267e+05	1.023718e+05	2.889772e+02	1.237374e-01	1.475880e+00	0.000000e+00	
1.238579e+00	-8.011049e-01	1.234091e+00	4.413474e+01	-2.756780e+01	2.570268e+05	1.023719e+05	2.889773e+02	1.237328e-01	1.475994e+00	0.000000e+00	
1.289445e+00	-8.304909e-01	1.234092e+00	4.413441e+01	-2.756692e+01	2.570269e+05	1.023719e+05	2.889773e+02	1.237310e-01	1.476039e+00	0.000000e+00	
1.340723e+00	-8.600896e-01	1.234092e+00	4.413419e+01	-2.756613e+01	2.570269e+05	1.023719e+05	2.889774e+02	1.237296e-01	1.476075e+00	0.000000e+00	
1.392142e+00	-8.897883e-01	1.234092e+00	4.413404e+01	-2.756542e+01	2.570269e+05	1.023720e+05	2.889774e+02	1.237284e-01	1.476105e+00	0.000000e+00	
1.443585e+00	-9.194397e-01	1.234092e+00	4.413397e+01	-2.756480e+01	2.570270e+05	1.023720e+05	2.889774e+02	1.237274e-01	1.476128e+00	0.000000e+00	
1.090456e+00	-7.145167e-01	1.234090e+00	4.413634e+01	-2.757099e+01	2.570266e+05	1.023718e+05	2.889772e+02	1.237402e-01	1.475824e+00	0.000000e+00	
1.039997e+00	-6.903901e-01	1.234090e+00	4.413708e+01	-2.757243e+01	2.570265e+05	1.023717e+05	2.889771e+02	1.237436e-01	1.475732e+00	0.000000e+00	
1.498196e+00	-1.126038e+00	1.234094e+00	4.413664e+01	-2.756548e+01	2.570273e+05	1.023721e+05	2.889772e+02	1.237335e-01	1.476236e+00	0.000000e+00	
1.510399e+00	-1.196264e+00	1.234093e+00	4.413795e+01	-2.756596e+01	2.570274e+05	1.023721e+05	2.889774e+02	1.237368e-01	1.476267e+00	0.000000e+00	
1.497132e+00	-1.068254e+00	1.234094e+00	4.413544e+01	-2.756499e+01	2.570272e+05	1.023720e+05	2.889772e+02	1.237305e-01	1.476206e+00	0.000000e+00	
1.496082e+00	-1.009007e+00	1.234093e+00	4.413449e+01	-2.756453e+01	2.570271e+05	1.023720e+05	2.889773e+02	1.237280e-01	1.476177e+00	0.000000e+00	
1.495030e+00	-9.489896e-01	1.234092e+00	4.413395e+01	-2.756425e+01	2.570270e+05	1.023720e+05	2.889775e+02	1.237267e-01	1.476147e+00	0.000000e+00	
1.000000e+00	-6.547619e-01	1.234089e+00	4.413826e+01	-2.757380e+01	2.570264e+05	1.023716e+05	2.889771e+02	1.237478e-01	1.475606e+00	0.000000e+00	
1.238355e+00	-7.426163e-01	1.234090e+00	4.413520e+01	-2.756757e+01	2.570267e+05	1.023718e+05	2.889775e+02	1.237336e-01	1.475940e+00	0.000000e+00	
1.188580e+00	-7.135674e-01	1.234090e+00	4.413574e+01	-2.756848e+01	2.570267e+05	1.023718e+05	2.889774e+02	1.237358e-01	1.475881e+00	0.000000e+00	
1.138284e+00	-6.855143e-01	1.234089e+00	4.413643e+01	-2.756949e+01	2.570266e+05	1.023718e+05	2.889774e+02	1.237385e-01	1.475814e+00	0.000000e+00	
1.288905e+00	-7.716261e-01	1.234090e+00	4.413477e+01	-2.756676e+01	2.570268e+05	1.023719e+05	2.889776e+02	1.237316e-01	1.475991e+00	0.000000e+00	
1.339977e+00	-8.007426e-01	1.234090e+00	4.413445e+01	-2.756602e+01	2.570268e+05	1.023719e+05	2.889776e+02	1.237301e-01	1.476031e+00	0.000000e+00	
1.391303e+00	-8.300433e-01	1.234091e+00	4.413422e+01	-2.756536e+01	2.570269e+05	1.023719e+05	2.889776e+02	1.237287e-01	1.476066e+00	0.000000e+00	
1.442698e+00	-8.594594e-01	1.234091e+00	4.413407e+01	-2.756477e+01	2.570269e+05	1.023720e+05	2.889777e+02	1.237277e-01	1.476094e+00	0.000000e+00	
1.494070e+00	-8.889202e-01	1.234091e+00	4.413399e+01	-2.756425e+01	2.570269e+05	1.023720e+05	2.889777e+02	1.237268e-01	1.476116e+00	0.000000e+00	
1.087729e+00	-6.605235e-01	1.234089e+00	4.413721e+01	-2.757072e+01	2.570265e+05	1.023717e+05	2.889773e+02	1.237417e-01	1.475719e+00	0.000000e+00	
1.036519e+00	-6.389016e-01	1.234089e+00	4.413802e+01	-2.757199e+01	2.570264e+05	1.023716e+05	2.889772e+02	1.237450e-01	1.475651e+00	0.000000e+00	
1.547027e+00	-1.151126e+00	1.234094e+00	4.413668e+01	-2.756501e+01	2.570272e+05	1.023721e+05	2.889772e+02	1.237330e-01	1.476228e+00	0.000000e+00	
1.549649e+00	-1.096695e+00	1.234094e+00	4.413555e+01	-2.756450e+01	2.570272e+05	1.023720e+05	2.889772e+02	1.237301e-01	1.476209e+00	0.000000e+00	
1.572311e+00	-1.200555e+00	1.234094e+00	4.413750e+01	-2.756514e+01	2.570273e+05	1.023721e+05	2.889772e+02	1.237348e-01	1.476245e+00	0.000000e+00	
1.547814e+00	-1.038373e+00	1.234093e+00	4.413454e+01	-2.756405e+01	2.570271e+05	1.023720e+05	2.889773e+02	1.237275e-01	1.476189e+00	0.000000e+00	
1.546431e+00	-9.785191e-01	1.234092e+00	4.413396e+01	-2.756377e+01	2.570270e+05	1.023720e+05	2.889775e+02	1.237261e-01	1.476160e+00	0.000000e+00	
1.545361e+00	-9.183948e-01	1.234091e+00	4.413396e+01	-2.756379e+01	2.570270e+05	1.023720e+05	2.889777e+02	1.237262e-01	1.476135e+00	0.000000e+00	
1.000000e+00	-5.952381e-01	1.234088e+00	4.413994e+01	-2.757267e+01	2.570262e+05	1.023715e+05	2.889772e+02	1.237499e-01	1.475498e+00	0.000000e+00	
1.236479e+00	-6.844404e-01	1.234088e+00	4.413630e+01	-2.756762e+01	2.570267e+05	1.023718e+05	2.889778e+02	1.237359e-01	1.475891e+00	0.000000e+00	
1.287827e+00	-7.131044e-01	1.234089e+00	4.413577e+01	-2.756687e+01	2.570268e+05	1.023719e+05	2.889778e+02	1.237339e-01	1.475946e+00	0.000000e+00	
1.184572e+00	-6.562751e-01	1.234088e+00	4.413697e+01	-2.756847e+01	2.570266e+05	1.023718e+05	2.889777e+02	1.237384e-01	1.475829e+00	0.000000e+00	
1.131451e+00	-6.297704e-01	1.234088e+00	4.413779e+01	-2.756948e+01	2.570265e+05	1.023717e+05	2.889776e+02	1.237414e-01	1.475746e+00	0.000000e+00	
1.339147e+00	-7.419103e-01	1.234089e+00	4.413536e+01	-2.756619e+01	2.570268e+05	1.023719e+05	2.889779e+02	1.237322e-01	1.475991e+00	0.000000e+00	
1.390516e+00	-7.708705e-01	1.234089e+00	4.413506e+01	-2.756559e+01	2.570268e+05	1.023719e+05	2.889779e+02	1.237308e-01	1.476029e+00	0.000000e+00	
1.441888e+00	-7.999823e-01	1.234089e+00	4.413484e+01	-2.756505e+01	2.570269e+05	1.023719e+05	2.889780e+02	1.237297e-01	1.476060e+00	0.000000e+00	
1.493214e+00	-8.292045e-01	1.234089e+00	4.413469e+01	-2.756456e+01	2.570269e+05	1.023720e+05	2.889780e+02	1.237287e-01	1.476087e+00	0.000000e+00	
1.544461e+00	-8.584941e-01	1.234089e+00	4.413461e+01	-2.756413e+01	2.570269e+05	1.023720e+05	2.889780e+02	1.237280e-01	1.476108e+00	0.000000e+00	
1.076336e+00	-6.075870e-01	1.234088e+00	4.413873e+01	-2.757069e+01	2.570265e+05	1.023717e+05	2.889775e+02	1.237448e-01	1.475678e+00	0.000000e+00	
1.600550e+00	-1.133089e+00	1.234094e+00	4.413587e+01	-2.756419e+01	2.570272e+05	1.023720e+05	2.889772e+02	1.237304e-01	1.476225e+00	0.000000e+00	
1.598755e+00	-1.069283e+00	1.234093e+00	4.413462e+01	-2.756363e+01	2.570271e+05	1.023720e+05	2.889773e+02	1.237272e-01	1.476188e+00	0.000000e+00	
1.634718e+00	-1.200848e+00	1.234094e+00	4.413682e+01	-2.756443e+01	2.570272e+05	1.023720e+05	2.889772e+02	1.237326e-01	1.476223e+00	0.000000e+00	
1.597484e+00	-1.008162e+00	1.234092e+00	4.413399e+01	-2.756338e+01	2.570270e+05	1.023720e+05	2.889775e+02	1.237257e-01	1.476173e+00	0.000000e+00	
1.596469e+00	-9.478281e-01	1.234091e+00	4.413396e+01	-2.756339e+01	2.570270e+05	1.023720e+05	2.889778e+02	1.237257e-01	1.476147e+00	0.000000e+00	
1.595591e+00	-8.877928e-01	1.234089e+00	4.413457e+01	-2.756376e+01	2.570270e+05	1.023720e+05	2.889781e+02	1.237275e-01	1.476125e+00	0.000000e+00	
1.069329e+00	-5.546983e-01	1.234086e+00	4.414075e+01	-2.757050e+01	2.570264e+05	1.023716e+05	2.889777e+02	1.237488e-01	1.475592e+00	0.000000e+00	
1.232605e+00	-6.269239e-01	1.234087e+00	4.413798e+01	-2.756786e+01	2.570267e+05	1.023718e+05	2.889781e+02	1.237398e-01	1.475845e+00	0.000000e+00	
1.285629e+00	-6.549535e-01	1.234087e+00	4.413736e+01	-2.756721e+01	2.570267e+05	1.023718e+05	2.889782e+02	1.237376e-01	1.475904e+00	0.000000e+00	
1.337846e+00	-6.834172e-01	1.234087e+00	4.413688e+01	-2.756662e+01	2.570268e+05	1.023719e+05	2.889782e+02	1.237359e-01	1.475954e+00	0.000000e+00	
1.178506e+00	-5.999571e-01	1.234087e+00	4.413875e+01	-2.756861e+01	2.570266e+05	1.023717e+05	2.889780e+02	1.237423e-01	1.475772e+00	0.000000e+00	
1.123578e+00	-5.753637e-01	1.234086e+00	4.413969e+01	-2.756946e+01	2.570265e+05	1.023717e+05	2.889779e+02	1.237453e-01	1.475686e+00	0.000000e+00	
1.389598e+00	-7.121037e-01	1.234087e+00	4.413651e+01	-2.756609e+01	2.570269e+05	1.023719e+05	2.889783e+02	1.237345e-01	1.475995e+00	0.000000e+00	
1.441092e+00	-7.409554e-01	1.234087e+00	4.413624e+01	-2.756560e+01	2.570269e+05	1.023719e+05	2.889783e+02	1.237333e-01	1.476030e+00	0.000000e+00	
1.492432e+00	-7.699347e-01	1.234088e+00	4.413603e+01	-2.756517e+01	2.570269e+05	1.023719e+05	2.889783e+02	1.237323e-01	1.476059e+00	0.000000e+00	
1.543664e+00	-7.990048e-01	1.234088e+00	4.413590e+01	-2.756478e+01	2.570270e+05	1.023719e+05	2.889784e+02	1.237315e-01	1.476083e+00	0.000000e+00	
1.594803e+00	-8.281254e-01	1.234088e+00	4.413582e+01	-2.756444e+01	2.570270e+05	1.023720e+05	2.889784e+02	1.237309e-01	1.476102e+00	0.000000e+00	
1.000000e+00	-5.357143e-01	1.234086e+00	4.414232e+01	-2.757172e+01	2.570261e+05	1.023715e+05	2.889775e+02	1.237536e-01	1.475403e+00	0.000000e+00	
1.648946e+00	-1.094829e+00	1.234093e+00	4.413471e+01	-2.756326e+01	2.570271e+05	1.023720e+05	2.889773e+02	1.237269e-01	1.476199e+00	0.000000e+00	
1.654747e+00	-1.149486e+00	1.234094e+00	4.413561e+01	-2.756363e+01	2.570272e+05	1.023720e+05	2.889772e+02	1.237291e-01	1.476219e+00	0.000000e+00	
1.648102e+00	-1.036534e+00	1.234092e+00	4.413404e+01	-2.756302e+01	2.570270e+05	1.023720e+05	2.889775e+02	1.237253e-01	1.476180e+00	0.000000e+00	
1.696459e+00	-1.196388e+00	1.234094e+00	4.413609e+01	-2.756358e+01	2.570272e+05	1.023721e+05	2.889772e+02	1.237300e-01	1.476226e+00	0.000000e+00	
1.647343e+00	-9.768803e-01	1.234091e+00	4.413399e+01	-2.756306e+01	2.570270e+05	1.023720e+05	2.889778e+02	1.237253e-01	1.476159e+00	0.000000e+00	
1.646583e+00	-9.169782e-01	1.234089e+00	4.413457e+01	-2.756343e+01	2.570270e+05	1.023720e+05	2.889781e+02	1.237270e-01	1.476139e+00	0.000000e+00	
1.645850e+00	-8.572406e-01	1.234088e+00	4.413579e+01	-2.756413e+01	2.570270e+05	1.023720e+05	2.889784e+02	1.237305e-01	1.476119e+00	0.000000e+00	
1.118466e+00	-5.207647e-01	1.234085e+00	4.414194e+01	-2.756943e+01	2.570265e+05	1.023716e+05	2.889782e+02	1.237499e-01	1.475646e+00	0.000000e+00	
1.067657e+00	-4.976080e-01	1.234084e+00	4.414323e+01	-2.757011e+01	2.570264e+05	1.023716e+05	2.889781e+02	1.237534e-01	1.475543e+00	0.000000e+00	
1.282527e+00	-5.972533e-01	1.234085e+00	4.413945e+01	-2.756771e+01	2.570268e+05	1.023718e+05	2.889785e+02	1.237426e-01	1.475869e+00	0.000000e+00	
1.227972e+00	-5.700864e-01	1.234085e+00	4.414011e+01	-2.756823e+01	2.570267e+05	1.023718e+05	2.889784e+02	1.237446e-01	1.475806e+00	0.000000e+00	
1.335955e+00	-6.252197e-01	1.234086e+00	4.413891e+01	-2.756724e+01	2.570268e+05	1.023718e+05	2.889785e+02	1.237409e-01	1.475921e+00	0.000000e+00	
1.388405e+00	-6.536085e-01	1.234086e+00	4.413849e+01	-2.756679e+01	2.570269e+05	1.023719e+05	2.889785e+02	1.237394e-01	1.475965e+00	0.000000e+00	
1.172776e+00	-5.443829e-01	1.234085e+00	4.414094e+01	-2.756880e+01	2.570266e+05	1.023717e+05	2.889783e+02	1.237470e-01	1.475731e+00	0.000000e+00	
1.440217e+00	-6.822398e-01	1.234086e+00	4.413816e+01	-2.756639e+01	2.570269e+05	1.023719e+05	2.889786e+02	1.237382e-01	1.476002e+00	0.000000e+00	
1.491668e+00	-7.110241e-01	1.234086e+00	4.413791e+01	-2.756602e+01	2.570270e+05	1.023719e+05	2.889786e+02	1.237372e-01	1.476033e+00	0.000000e+00	
1.542926e+00	-7.399089e-01	1.234086e+00	4.413773e+01	-2.756568e+01	2.570270e+05	1.023719e+05	2.889786e+02	1.237364e-01	1.476059e+00	0.000000e+00	
1.594075e+00	-7.688581e-01	1.234086e+00	4.413761e+01	-2.756537e+01	2.570270e+05	1.023719e+05	2.889786e+02	1.237358e-01	1.476081e+00	0.000000e+00	
1.645149e+00	-7.978403e-01	1.234087e+00	4.413754e+01	-2.756510e+01	2.570271e+05	1.023720e+05	2.889787e+02	1.237353e-01	1.476100e+00	0.000000e+00	
1.000000e+00	-4.761905e-01	1.234083e+00	4.414507e+01	-2.757075e+01	2.570261e+05	1.023714e+05	2.889779e+02	1.237581e-01	1.475363e+00	0.000000e+00	
1.699338e+00	-1.064432e+00	1.234092e+00	4.413413e+01	-2.756272e+01	2.570270e+05	1.023720e+05	2.889775e+02	1.237251e-01	1.476186e+00	0.000000e+00	
1.701258e+00	-1.122386e+00	1.234093e+00	4.413482e+01	-2.756295e+01	2.570271e+05	1.023720e+05	2.889773e+02	1.237267e-01	1.476189e+00	0.000000e+00	
1.698266e+00	-1.005530e+00	1.234091e+00	4.413404e+01	-2.756276e+01	2.570270e+05	1.023720e+05	2.889778e+02	1.237251e-01	1.476165e+00	0.000000e+00	
1.751835e+00	-1.208439e+00	1.234094e+00	4.413584e+01	-2.756315e+01	2.570271e+05	1.023720e+05	2.889772e+02	1.237290e-01	1.476201e+00	0.000000e+00	
1.697504e+00	-9.459863e-01	1.234089e+00	4.413461e+01	-2.756315e+01	2.570270e+05	1.023720e+05	2.889781e+02	1.237268e-01	1.476150e+00	0.000000e+00	
1.696824e+00	-8.863085e-01	1.234088e+00	4.413579e+01	-2.756387e+01	2.570270e+05	1.023720e+05	2.889784e+02	1.237301e-01	1.476131e+00	0.000000e+00	
1.696166e+00	-8.268316e-01	1.234087e+00	4.413752e+01	-2.756486e+01	2.570271e+05	1.023720e+05	2.889787e+02	1.237349e-01	1.476115e+00	0.000000e+00	
1.116174e+00	-4.640064e-01	1.234083e+00	4.414452e+01	-2.756932e+01	2.570265e+05	1.023716e+05	2.889785e+02	1.237551e-01	1.475613e+00	0.000000e+00	
1.168895e+00	-4.883350e-01	1.234083e+00	4.414342e+01	-2.756897e+01	2.570266e+05	1.023717e+05	2.889786e+02	1.237524e-01	1.475696e+00	0.000000e+00	
1.066592e+00	-4.393951e-01	1.234083e+00	4.414598e+01	-2.756960e+01	2.570264e+05	1.023715e+05	2.889784e+02	1.237584e-01	1.475514e+00	0.000000e+00	
1.751889e+00	-1.152379e+00	1.234093e+00	4.413494e+01	-2.756274e+01	2.570271e+05	1.023720e+05	2.889773e+02	1.237267e-01	1.476206e+00	0.000000e+00	
1.333726e+00	-5.672619e-01	1.234085e+00	4.414130e+01	-2.756796e+01	2.570269e+05	1.023718e+05	2.889787e+02	1.237467e-01	1.475894e+00	0.000000e+00	
1.279278e+00	-5.398617e-01	1.234084e+00	4.414186e+01	-2.756830e+01	2.570268e+05	1.023718e+05	2.889787e+02	1.237483e-01	1.475839e+00	0.000000e+00	
1.223918e+00	-5.134628e-01	1.234084e+00	4.414255e+01	-2.756863e+01	2.570267e+05	1.023717e+05	2.889786e+02	1.237501e-01	1.475775e+00	0.000000e+00	
1.386957e+00	-5.953011e-01	1.234085e+00	4.414084e+01	-2.756764e+01	2.570269e+05	1.023718e+05	2.889787e+02	1.237453e-01	1.475939e+00	0.000000e+00	
1.439218e+00	-6.237155e-01	1.234085e+00	4.414047e+01	-2.756733e+01	2.570270e+05	1.023719e+05	2.889788e+02	1.237441e-01	1.475978e+00	0.000000e+00	
1.490873e+00	-6.523436e-01	1.234085e+00	4.414018e+01	-2.756703e+01	2.570270e+05	1.023719e+05	2.889788e+02	1.237431e-01	1.476011e+00	0.000000e+00	
1.542206e+00	-6.810933e-01	1.234085e+00	4.413997e+01	-2.756675e+01	2.570271e+05	1.023719e+05	2.889788e+02	1.237423e-01	1.476039e+00	0.000000e+00	
1.593379e+00	-7.099137e-01	1.234086e+00	4.413981e+01	-2.756649e+01	2.570271e+05	1.023719e+05	2.889788e+02	1.237417e-01	1.476062e+00	0.000000e+00	
1.644471e+00	-7.387760e-01	1.234086e+00	4.413971e+01	-2.756626e+01	2.570271e+05	1.023719e+05	2.889788e+02	1.237412e-01	1.476082e+00	0.000000e+00	
1.695515e+00	-7.676637e-01	1.234086e+00	4.413966e+01	-2.756605e+01	2.570271e+05	1.023720e+05	2.889788e+02	1.237408e-01	1.476099e+00	0.000000e+00	
1.000000e+00	-4.166667e-01	1.234081e+00	4.414792e+01	-2.756971e+01	2.570262e+05	1.023714e+05	2.889784e+02	1.237626e-01	1.475344e+00	0.000000e+00	
1.750541e+00	-1.093258e+00	1.234092e+00	4.413423e+01	-2.756246e+01	2.570270e+05	1.023720e+05	2.889776e+02	1.237250e-01	1.476187e+00	0.000000e+00	
1.749304e+00	-1.034386e+00	1.234091e+00	4.413412e+01	-2.756251e+01	2.570270e+05	1.023720e+05	2.889778e+02	1.237249e-01	1.476173e+00	0.000000e+00	
1.748434e+00	-9.750108e-01	1.234089e+00	4.413466e+01	-2.756291e+01	2.570270e+05	1.023720e+05	2.889781e+02	1.237266e-01	1.476158e+00	0.000000e+00	
1.800221e+00	-1.182159e+00	1.234093e+00	4.413502e+01	-2.756258e+01	2.570271e+05	1.023720e+05	2.889773e+02	1.237267e-01	1.476202e+00	0.000000e+00	
1.747758e+00	-9.153829e-01	1.234088e+00	4.413582e+01	-2.756364e+01	2.570270e+05	1.023720e+05	2.889784e+02	1.237299e-01	1.476142e+00	0.000000e+00	
1.747140e+00	-8.558444e-01	1.234087e+00	4.413752e+01	-2.756465e+01	2.570271e+05	1.023720e+05	2.889787e+02	1.237347e-01	1.476127e+00	0.000000e+00	
1.746524e+00	-7.965773e-01	1.234086e+00	4.413964e+01	-2.756587e+01	2.570272e+05	1.023720e+05	2.889788e+02	1.237405e-01	1.476112e+00	0.000000e+00	
1.114880e+00	-4.060739e-01	1.234082e+00	4.414731e+01	-2.756919e+01	2.570266e+05	1.023716e+05	2.889787e+02	1.237606e-01	1.475606e+00	0.000000e+00	
1.166696e+00	-4.311516e-01	1.234083e+00	4.414613e+01	-2.756916e+01	2.570267e+05	1.023717e+05	2.889787e+02	1.237581e-01	1.475680e+00	0.000000e+00	
1.221074e+00	-4.564179e-01	1.234083e+00	4.414520e+01	-2.756906e+01	2.570268e+05	1.023717e+05	2.889787e+02	1.237560e-01	1.475756e+00	0.000000e+00	
1.065819e+00	-3.806343e-01	1.234082e+00	4.414882e+01	-2.756908e+01	2.570265e+05	1.023715e+05	2.889786e+02	1.237635e-01	1.475512e+00	0.000000e+00	
1.800616e+00	-1.123297e+00	1.234092e+00	4.413435e+01	-2.756226e+01	2.570270e+05	1.023720e+05	2.889776e+02	1.237250e-01	1.476188e+00	0.000000e+00	
1.849631e+00	-1.210478e+00	1.234093e+00	4.413507e+01	-2.756238e+01	2.570271e+05	1.023720e+05	2.889774e+02	1.237265e-01	1.476206e+00	0.000000e+00	
1.385424e+00	-5.370981e-01	1.234084e+00	4.414343e+01	-2.756856e+01	2.570270e+05	1.023718e+05	2.889788e+02	1.237517e-01	1.475919e+00	0.000000e+00	
1.331571e+00	-5.093972e-01	1.234084e+00	4.414391e+01	-2.756875e+01	2.570270e+05	1.023718e+05	2.889788e+02	1.237529e-01	1.475873e+00	0.000000e+00	
1.276546e+00	-4.824460e-01	1.234084e+00	4.414449e+01	-2.756892e+01	2.570269e+05	1.023718e+05	2.889787e+02	1.237544e-01	1.475819e+00	0.000000e+00	
1.438132e+00	-5.652974e-01	1.234085e+00	4.414304e+01	-2.756835e+01	2.570271e+05	1.023719e+05	2.889788e+02	1.237506e-01	1.475958e+00	0.000000e+00	
1.490036e+00	-5.937899e-01	1.234085e+00	4.414272e+01	-2.756813e+01	2.570271e+05	1.023719e+05	2.889788e+02	1.237497e-01	1.475992e+00	0.000000e+00	
1.541481e+00	-6.224415e-01	1.234085e+00	4.414247e+01	-2.756792e+01	2.570272e+05	1.023719e+05	2.889788e+02	1.237489e-01	1.476021e+00	0.000000e+00	
1.592697e+00	-6.511767e-01	1.234085e+00	4.414228e+01	-2.756772e+01	2.570272e+05	1.023719e+05	2.889788e+02	1.237482e-01	1.476045e+00	0.000000e+00	
1.643806e+00	-6.799565e-01	1.234086e+00	4.414215e+01	-2.756753e+01	2.570272e+05	1.023719e+05	2.889788e+02	1.237477e-01	1.476066e+00	0.000000e+00	
1.694866e+00	-7.087628e-01	1.234086e+00	4.414207e+01	-2.756736e+01	2.570272e+05	1.023719e+05	2.889788e+02	1.237473e-01	1.476084e+00	0.000000e+00	
1.745898e+00	-7.375912e-01	1.234086e+00	4.414203e+01	-2.756721e+01	2.570273e+05	1.023720e+05	2.889788e+02	1.237470e-01	1.476099e+00	0.000000e+00	
1.000000e+00	-3.571429e-01	1.234080e+00	4.415074e+01	-2.756866e+01	2.570263e+05	1.023714e+05	2.889786e+02	1.237670e-01	1.475368e+00	0.000000e+00	
1.799997e+00	-1.063912e+00	1.234091e+00	4.413421e+01	-2.756230e+01	2.570270e+05	1.023720e+05	2.889779e+02	1.237248e-01	1.476176e+00	0.000000e+00	
1.799274e+00	-1.004360e+00	1.234089e+00	4.413473e+01	-2.756270e+01	2.570270e+05	1.023720e+05	2.889782e+02	1.237264e-01	1.476164e+00	0.000000e+00	
1.798648e+00	-9.446210e-01	1.234088e+00	4.413587e+01	-2.756344e+01	2.570270e+05	1.023720e+05	2.889785e+02	1.237298e-01	1.476150e+00	0.000000e+00	
1.850071e+00	-1.152401e+00	1.234092e+00	4.413443e+01	-2.756208e+01	2.570270e+05	1.023720e+05	2.889776e+02	1.237249e-01	1.476187e+00	0.000000e+00	
1.798078e+00	-8.849494e-01	1.234087e+00	4.413756e+01	-2.756447e+01	2.570271e+05	1.023720e+05	2.889787e+02	1.237345e-01	1.476137e+00	0.000000e+00	
1.797506e+00	-8.255463e-01	1.234086e+00	4.413965e+01	-2.756571e+01	2.570272e+05	1.023720e+05	2.889788e+02	1.237403e-01	1.476124e+00	0.000000e+00	
1.796910e+00	-7.664523e-01	1.234086e+00	4.414202e+01	-2.756707e+01	2.570273e+05	1.023720e+05	2.889788e+02	1.237468e-01	1.476112e+00	0.000000e+00	
1.165428e+00	-3.731207e-01	1.234083e+00	4.414894e+01	-2.756933e+01	2.570268e+05	1.023717e+05	2.889787e+02	1.237640e-01	1.475679e+00	0.000000e+00	
1.114066e+00	-3.475137e-01	1.234082e+00	4.415012e+01	-2.756905e+01	2.570267e+05	1.023716e+05	2.889786e+02	1.237660e-01	1.475616e+00	0.000000e+00	