TITLE = "SU2 Simulation"
VARIABLES = "Iteration","CL","CD","CSF","CMx","CMy","CMz","CFx","CFy","CFz","CL/CD","AoA","Custom_ObjFunc","Res_Flow[0]","Res_Flow[1]","Res_Flow[2]","Res_Flow[3]","Res_Flow[4]","Linear_Solver_Iterations","CFL_Number","Time(min)"
ZONE T= "Convergence history"
           0, 0.00000000e+00, 0.00000000e+00, 0.00000000e+00, 0.00000000e+00, 0.00000000e+00, 0.00000000e+00, 0.00000000e+00, 0.00000000e+00, 0.00000000e+00, 0.00000000e+00, 0.00000000e+00, 0.00000000e+00, -1.56881189e+01, 1.67131849e+00, 1.48417803e+00, 3.20317665e+00, 0.00000000e+00, 5.0000000000, 5.0000000000, 0.0015872212
           1, 0.00000000e+00, 0.00000000e+00, 0.00000000e+00, 0.00000000e+00, 0.00000000e+00, 0.00000000e+00, 0.00000000e+00, 0.00000000e+00, 0.00000000e+00, 0.00000000e+00, 0.00000000e+00, 0.00000000e+00, -1.74563431e+00, 1.55851617e+00, 1.43897637e+00, 3.72747793e+00, 0.00000000e+00, 5.0000000000, 5.0000000000, 0.0032635494
           2, 0.00000000e+00, 0.00000000e+00, 0.00000000e+00, 0.00000000e+00, 0.00000000e+00, 0.00000000e+00, 0.00000000e+00, 0.00000000e+00, 0.00000000e+00, 0.00000000e+00, 0.00000000e+00, 0.00000000e+00, -1.58567932e+00, 1.43536140e+00, 1.38887448e+00, 3.87867203e+00, 0.00000000e+00, 5.0000000000, 5.0000000000, 0.0044936356
           3, 0.00000000e+00, 0.00000000e+00, 0.00000000e+00, 0.00000000e+00, 0.00000000e+00, 0.00000000e+00, 0.00000000e+00, 0.00000000e+00, 0.00000000e+00, 0.00000000e+00, 0.00000000e+00, 0.00000000e+00, -1.53565815e+00, 1.30145591e+00, 1.33683688e+00, 3.92672853e+00, 0.00000000e+00, 5.0000000000, 5.0000000000, 0.0058227676
           4, 0.00000000e+00, 0.00000000e+00, 0.00000000e+00, 0.00000000e+00, 0.00000000e+00, 0.00000000e+00, 0.00000000e+00, 0.00000000e+00, 0.00000000e+00, 0.00000000e+00, 0.00000000e+00, 0.00000000e+00, -1.52004589e+00, 1.15155694e+00, 1.28493068e+00, 3.94160280e+00, 0.00000000e+00, 5.0000000000, 5.0000000000, 0.0074396599
           5, 0.00000000e+00, 0.00000000e+00, 0.00000000e+00, 0.00000000e+00, 0.00000000e+00, 0.00000000e+00, 0.00000000e+00, 0.00000000e+00, 0.00000000e+00, 0.00000000e+00, 0.00000000e+00, 0.00000000e+00, -1.52121139e+00, 9.73461728e-01, 1.23469784e+00, 3.94009344e+00, 0.00000000e+00, 5.0000000000, 5.0000000000, 0.0089577341
           6, 0.00000000e+00, 0.00000000e+00, 0.00000000e+00, 0.00000000e+00, 0.00000000e+00, 0.00000000e+00, 0.00000000e+00, 0.00000000e+00, 0.00000000e+00, 0.00000000e+00, 0.00000000e+00, 0.00000000e+00, -1.53840602e+00, 7.46384470e-01, 1.18724663e+00, 3.92267755e+00, 0.00000000e+00, 5.0000000000, 5.0000000000, 0.0102129744
           7, 0.00000000e+00, 0.00000000e+00, 0.00000000e+00, 0.00000000e+00, 0.00000000e+00, 0.00000000e+00, 0.00000000e+00, 0.00000000e+00, 0.00000000e+00, 0.00000000e+00, 0.00000000e+00, 0.00000000e+00, -1.57581786e+00, 4.75460009e-01, 1.14328841e+00, 3.88503821e+00, 0.00000000e+00, 5.0000000000, 5.0000000000, 0.0113675169
           8, 0.00000000e+00, 0.00000000e+00, 0.00000000e+00, 0.00000000e+00, 0.00000000e+00, 0.00000000e+00, 0.00000000e+00, 0.00000000e+00, 0.00000000e+00, 0.00000000e+00, 0.00000000e+00, 0.00000000e+00, -1.63884466e+00, 4.53707335e-01, 1.10322088e+00, 3.82169355e+00, 0.00000000e+00, 5.0000000000, 5.0000000000, 0.0129824534
           9, 0.00000000e+00, 0.00000000e+00, 0.00000000e+00, 0.00000000e+00, 0.00000000e+00, 0.00000000e+00, 0.00000000e+00, 0.00000000e+00, 0.00000000e+00, 0.00000000e+00, 0.00000000e+00, 0.00000000e+00, -1.73427096e+00, 6.25961576e-01, 1.06721008e+00, 3.72578653e+00, 0.00000000e+00, 5.0000000000, 5.0000000000, 0.0142391813
          10, 0.00000000e+00, 0.00000000e+00, 0.00000000e+00, 0.00000000e+00, 0.00000000e+00, 0.00000000e+00, 0.00000000e+00, 0.00000000e+00, 0.00000000e+00, 0.00000000e+00, 0.00000000e+00, 0.00000000e+00, -1.87291624e+00, 7.41517112e-01, 1.03521934e+00, 3.58643331e+00, 0.00000000e+00, 5.0000000000, 5.0000000000, 0.0153591543
          11, 0.00000000e+00, 0.00000000e+00, 0.00000000e+00, 0.00000000e+00, 0.00000000e+00, 0.00000000e+00, 0.00000000e+00, 0.00000000e+00, 0.00000000e+00, 0.00000000e+00, 0.00000000e+00, 0.00000000e+00, -2.07609602e+00, 8.05901905e-01, 1.00698874e+00, 3.38244486e+00, 0.00000000e+00, 5.0000000000, 5.0000000000, 0.0165023233
          12, 0.00000000e+00, 0.00000000e+00, 0.00000000e+00, 0.00000000e+00, 0.00000000e+00, 0.00000000e+00, 0.00000000e+00, 0.00000000e+00, 0.00000000e+00, 0.00000000e+00, 0.00000000e+00, 0.00000000e+00, -2.37633669e+00, 8.37657560e-01, 9.82033299e-01, 3.08477417e+00, 0.00000000e+00, 5.0000000000, 5.0000000000, 0.0176498801
          13, 0.00000000e+00, 0.00000000e+00, 0.00000000e+00, 0.00000000e+00, 0.00000000e+00, 0.00000000e+00, 0.00000000e+00, 0.00000000e+00, 0.00000000e+00, 0.00000000e+00, 0.00000000e+00, 0.00000000e+00, -2.48421719e+00, 8.48253623e-01, 9.59695233e-01, 2.99097452e+00, 0.00000000e+00, 5.0000000000, 5.0000000000, 0.0188574918
          14, 0.00000000e+00, 0.00000000e+00, 0.00000000e+00, 0.00000000e+00, 0.00000000e+00, 0.00000000e+00, 0.00000000e+00, 0.00000000e+00, 0.00000000e+00, 0.00000000e+00, 0.00000000e+00, 0.00000000e+00, -2.24616224e+00, 8.44834442e-01, 9.39233505e-01, 3.22200414e+00, 0.00000000e+00, 5.0000000000, 5.0000000000, 0.0204489015
          15, 0.00000000e+00, 0.00000000e+00, 0.00000000e+00, 0.00000000e+00, 0.00000000e+00, 0.00000000e+00, 0.00000000e+00, 0.00000000e+00, 0.00000000e+00, 0.00000000e+00, 0.00000000e+00, 0.00000000e+00, -2.09327710e+00, 8.31934206e-01, 9.19953611e-01, 3.37082228e+00, 0.00000000e+00, 5.0000000000, 5.0000000000, 0.0220611691
          16, 0.00000000e+00, 0.00000000e+00, 0.00000000e+00, 0.00000000e+00, 0.00000000e+00, 0.00000000e+00, 0.00000000e+00, 0.00000000e+00, 0.00000000e+00, 0.00000000e+00, 0.00000000e+00, 0.00000000e+00, -2.00612970e+00, 8.12389246e-01, 9.01246432e-01, 3.45560601e+00, 0.00000000e+00, 5.0000000000, 5.0000000000, 0.0236457702
          17, 0.00000000e+00, 0.00000000e+00, 0.00000000e+00, 0.00000000e+00, 0.00000000e+00, 0.00000000e+00, 0.00000000e+00, 0.00000000e+00, 0.00000000e+00, 0.00000000e+00, 0.00000000e+00, 0.00000000e+00, -1.95721102e+00, 7.87924621e-01, 8.82636377e-01, 3.50276942e+00, 0.00000000e+00, 5.0000000000, 5.0000000000, 0.0252471032
          18, 0.00000000e+00, 0.00000000e+00, 0.00000000e+00, 0.00000000e+00, 0.00000000e+00, 0.00000000e+00, 0.00000000e+00, 0.00000000e+00, 0.00000000e+00, 0.00000000e+00, 0.00000000e+00, 0.00000000e+00, -1.93283446e+00, 7.59630032e-01, 8.63788480e-01, 3.52568998e+00, 0.00000000e+00, 5.0000000000, 5.0000000000, 0.0268001719
          19, 0.00000000e+00, 0.00000000e+00, 0.00000000e+00, 0.00000000e+00, 0.00000000e+00, 0.00000000e+00, 0.00000000e+00, 0.00000000e+00, 0.00000000e+00, 0.00000000e+00, 0.00000000e+00, 0.00000000e+00, -1.92562622e+00, 7.28305296e-01, 8.44494634e-01, 3.53165700e+00, 0.00000000e+00, 5.0000000000, 5.0000000000, 0.0279007317
          20, 0.00000000e+00, 0.00000000e+00, 0.00000000e+00, 0.00000000e+00, 0.00000000e+00, 0.00000000e+00, 0.00000000e+00, 0.00000000e+00, 0.00000000e+00, 0.00000000e+00, 0.00000000e+00, 0.00000000e+00, -1.93123349e+00, 6.94669239e-01, 8.24651866e-01, 3.52500933e+00, 0.00000000e+00, 5.0000000000, 5.0000000000, 0.0289522157
          21, 0.00000000e+00, 0.00000000e+00, 0.00000000e+00, 0.00000000e+00, 0.00000000e+00, 0.00000000e+00, 0.00000000e+00, 0.00000000e+00, 0.00000000e+00, 0.00000000e+00, 0.00000000e+00, 0.00000000e+00, -1.94687035e+00, 6.59463398e-01, 8.04238848e-01, 3.50853781e+00, 0.00000000e+00, 5.0000000000, 5.0000000000, 0.0300992531
          22, 0.00000000e+00, 0.00000000e+00, 0.00000000e+00, 0.00000000e+00, 0.00000000e+00, 0.00000000e+00, 0.00000000e+00, 0.00000000e+00, 0.00000000e+00, 0.00000000e+00, 0.00000000e+00, 0.00000000e+00, -1.97059144e+00, 6.23499987e-01, 7.83295185e-01, 3.48419212e+00, 0.00000000e+00, 5.0000000000, 5.0000000000, 0.0315572067
          23, 0.00000000e+00, 0.00000000e+00, 0.00000000e+00, 0.00000000e+00, 0.00000000e+00, 0.00000000e+00, 0.00000000e+00, 0.00000000e+00, 0.00000000e+00, 0.00000000e+00, 0.00000000e+00, 0.00000000e+00, -2.00088307e+00, 5.87687119e-01, 7.61905228e-01, 3.45348229e+00, 0.00000000e+00, 5.0000000000, 5.0000000000, 0.0327536510
          24, 0.00000000e+00, 0.00000000e+00, 0.00000000e+00, 0.00000000e+00, 0.00000000e+00, 0.00000000e+00, 0.00000000e+00, 0.00000000e+00, 0.00000000e+00, 0.00000000e+00, 0.00000000e+00, 0.00000000e+00, -2.03638933e+00, 5.53044715e-01, 7.40186603e-01, 3.41775019e+00, 0.00000000e+00, 5.0000000000, 5.0000000000, 0.0340031343
          25, 0.00000000e+00, 0.00000000e+00, 0.00000000e+00, 0.00000000e+00, 0.00000000e+00, 0.00000000e+00, 0.00000000e+00, 0.00000000e+00, 0.00000000e+00, 0.00000000e+00, 0.00000000e+00, 0.00000000e+00, -2.07567765e+00, 5.20701757e-01, 7.18282816e-01, 3.37840241e+00, 0.00000000e+00, 5.0000000000, 5.0000000000, 0.0351916912
          26, 0.00000000e+00, 0.00000000e+00, 0.00000000e+00, 0.00000000e+00, 0.00000000e+00, 0.00000000e+00, 0.00000000e+00, 0.00000000e+00, 0.00000000e+00, 0.00000000e+00, 0.00000000e+00, 0.00000000e+00, -2.11698215e+00, 4.91854389e-01, 6.96358477e-01, 3.33716370e+00, 0.00000000e+00, 5.0000000000, 5.0000000000, 0.0362895115
          27, 0.00000000e+00, 0.00000000e+00, 0.00000000e+00, 0.00000000e+00, 0.00000000e+00, 0.00000000e+00, 0.00000000e+00, 0.00000000e+00, 0.00000000e+00, 0.00000000e+00, 0.00000000e+00, 0.00000000e+00, -2.15791111e+00, 4.67661988e-01, 6.74595690e-01, 3.29636351e+00, 0.00000000e+00, 5.0000000000, 5.0000000000, 0.0373621394
          28, 0.00000000e+00, 0.00000000e+00, 0.00000000e+00, 0.00000000e+00, 0.00000000e+00, 0.00000000e+00, 0.00000000e+00, 0.00000000e+00, 0.00000000e+00, 0.00000000e+00, 0.00000000e+00, 0.00000000e+00, -2.19521938e+00, 4.49073507e-01, 6.53190227e-01, 3.25915920e+00, 0.00000000e+00, 5.0000000000, 5.0000000000, 0.0384335462
          29, 0.00000000e+00, 0.00000000e+00, 0.00000000e+00, 0.00000000e+00, 0.00000000e+00, 0.00000000e+00, 0.00000000e+00, 0.00000000e+00, 0.00000000e+00, 0.00000000e+00, 0.00000000e+00, 0.00000000e+00, -2.22495212e+00, 4.36615425e-01, 6.32346577e-01, 3.22940368e+00, 0.00000000e+00, 5.0000000000, 5.0000000000, 0.0398875246
          30, 0.00000000e+00, 0.00000000e+00, 0.00000000e+00, 0.00000000e+00, 0.00000000e+00, 0.00000000e+00, 0.00000000e+00, 0.00000000e+00, 0.00000000e+00, 0.00000000e+00, 0.00000000e+00, 0.00000000e+00, -2.24336690e+00, 4.30217679e-01, 6.12270245e-01, 3.21076668e+00, 0.00000000e+00, 5.0000000000, 5.0000000000, 0.0414175871
          31, 0.00000000e+00, 0.00000000e+00, 0.00000000e+00, 0.00000000e+00, 0.00000000e+00, 0.00000000e+00, 0.00000000e+00, 0.00000000e+00, 0.00000000e+00, 0.00000000e+00, 0.00000000e+00, 0.00000000e+00, -2.24853145e+00, 4.29167108e-01, 5.93157377e-01, 3.20519463e+00, 0.00000000e+00, 5.0000000000, 5.0000000000, 0.0429900830
          32, 0.00000000e+00, 0.00000000e+00, 0.00000000e+00, 0.00000000e+00, 0.00000000e+00, 0.00000000e+00, 0.00000000e+00, 0.00000000e+00, 0.00000000e+00, 0.00000000e+00, 0.00000000e+00, 0.00000000e+00, -2.24144948e+00, 4.32226723e-01, 5.75181866e-01, 3.21179086e+00, 0.00000000e+00, 5.0000000000, 5.0000000000, 0.0445225348
          33, 0.00000000e+00, 0.00000000e+00, 0.00000000e+00, 0.00000000e+00, 0.00000000e+00, 0.00000000e+00, 0.00000000e+00, 0.00000000e+00, 0.00000000e+00, 0.00000000e+00, 0.00000000e+00, 0.00000000e+00, -2.22556146e+00, 4.37874337e-01, 5.58480865e-01, 3.22724614e+00, 0.00000000e+00, 5.0000000000, 5.0000000000, 0.0456593273
          34, 0.00000000e+00, 0.00000000e+00, 0.00000000e+00, 0.00000000e+00, 0.00000000e+00, 0.00000000e+00, 0.00000000e+00, 0.00000000e+00, 0.00000000e+00, 0.00000000e+00, 0.00000000e+00, 0.00000000e+00, -2.20508931e+00, 4.44563493e-01, 5.43140774e-01, 3.24742406e+00, 0.00000000e+00, 5.0000000000, 5.0000000000, 0.0469198247
          35, 0.00000000e+00, 0.00000000e+00, 0.00000000e+00, 0.00000000e+00, 0.00000000e+00, 0.00000000e+00, 0.00000000e+00, 0.00000000e+00, 0.00000000e+00, 0.00000000e+00, 0.00000000e+00, 0.00000000e+00, -2.18362798e+00, 4.50925247e-01, 5.29186077e-01, 3.26875540e+00, 0.00000000e+00, 5.0000000000, 5.0000000000, 0.0482688095
          36, 0.00000000e+00, 0.00000000e+00, 0.00000000e+00, 0.00000000e+00, 0.00000000e+00, 0.00000000e+00, 0.00000000e+00, 0.00000000e+00, 0.00000000e+00, 0.00000000e+00, 0.00000000e+00, 0.00000000e+00, -2.16361124e+00, 4.55881045e-01, 5.16573454e-01, 3.28879468e+00, 0.00000000e+00, 5.0000000000, 5.0000000000, 0.0497997882
          37, 0.00000000e+00, 0.00000000e+00, 0.00000000e+00, 0.00000000e+00, 0.00000000e+00, 0.00000000e+00, 0.00000000e+00, 0.00000000e+00, 0.00000000e+00, 0.00000000e+00, 0.00000000e+00, 0.00000000e+00, -2.14639108e+00, 4.58676215e-01, 5.05192651e-01, 3.30616388e+00, 0.00000000e+00, 5.0000000000, 5.0000000000, 0.0514241311
          38, 0.00000000e+00, 0.00000000e+00, 0.00000000e+00, 0.00000000e+00, 0.00000000e+00, 0.00000000e+00, 0.00000000e+00, 0.00000000e+00, 0.00000000e+00, 0.00000000e+00, 0.00000000e+00, 0.00000000e+00, -2.13252489e+00, 4.58861362e-01, 4.94874459e-01, 3.32027726e+00, 0.00000000e+00, 5.0000000000, 5.0000000000, 0.0526797560
          39, 0.00000000e+00, 0.00000000e+00, 0.00000000e+00, 0.00000000e+00, 0.00000000e+00, 0.00000000e+00, 0.00000000e+00, 0.00000000e+00, 0.00000000e+00, 0.00000000e+00, 0.00000000e+00, 0.00000000e+00, -2.12205746e+00, 4.56245816e-01, 4.85404416e-01, 3.33106339e+00, 0.00000000e+00, 5.0000000000, 5.0000000000, 0.0540878155
          40, 0.00000000e+00, 0.00000000e+00, 0.00000000e+00, 0.00000000e+00, 0.00000000e+00, 0.00000000e+00, 0.00000000e+00, 0.00000000e+00, 0.00000000e+00, 0.00000000e+00, 0.00000000e+00, 0.00000000e+00, -2.11473949e+00, 4.50838285e-01, 4.76539854e-01, 3.33874711e+00, 0.00000000e+00, 5.0000000000, 5.0000000000, 0.0554516633
          41, 0.00000000e+00, 0.00000000e+00, 0.00000000e+00, 0.00000000e+00, 0.00000000e+00, 0.00000000e+00, 0.00000000e+00, 0.00000000e+00, 0.00000000e+00, 0.00000000e+00, 0.00000000e+00, 0.00000000e+00, -2.11018530e+00, 4.42782254e-01, 4.68027604e-01, 3.34369183e+00, 0.00000000e+00, 5.0000000000, 5.0000000000, 0.0565428408
          42, 0.00000000e+00, 0.00000000e+00, 0.00000000e+00, 0.00000000e+00, 0.00000000e+00, 0.00000000e+00, 0.00000000e+00, 0.00000000e+00, 0.00000000e+00, 0.00000000e+00, 0.00000000e+00, 0.00000000e+00, -2.10798169e+00, 4.32290130e-01, 4.59619547e-01, 3.34629119e+00, 0.00000000e+00, 5.0000000000, 5.0000000000, 0.0575611497
          43, 0.00000000e+00, 0.00000000e+00, 0.00000000e+00, 0.00000000e+00, 0.00000000e+00, 0.00000000e+00, 0.00000000e+00, 0.00000000e+00, 0.00000000e+00, 0.00000000e+00, 0.00000000e+00, 0.00000000e+00, -2.10775583e+00, 4.19578905e-01, 4.51084160e-01, 3.34690234e+00, 0.00000000e+00, 5.0000000000, 5.0000000000, 0.0585758835
          44, 0.00000000e+00, 0.00000000e+00, 0.00000000e+00, 0.00000000e+00, 0.00000000e+00, 0.00000000e+00, 0.00000000e+00, 0.00000000e+00, 0.00000000e+00, 0.00000000e+00, 0.00000000e+00, 0.00000000e+00, -2.10920621e+00, 4.04810940e-01, 4.42213479e-01, 3.34581662e+00, 0.00000000e+00, 5.0000000000, 5.0000000000, 0.0595908402
          45, 0.00000000e+00, 0.00000000e+00, 0.00000000e+00, 0.00000000e+00, 0.00000000e+00, 0.00000000e+00, 0.00000000e+00, 0.00000000e+00, 0.00000000e+00, 0.00000000e+00, 0.00000000e+00, 0.00000000e+00, -2.11210007e+00, 3.88043380e-01, 4.32825156e-01, 3.34326329e+00, 0.00000000e+00, 5.0000000000, 5.0000000000, 0.0606365037
          46, 0.00000000e+00, 0.00000000e+00, 0.00000000e+00, 0.00000000e+00, 0.00000000e+00, 0.00000000e+00, 0.00000000e+00, 0.00000000e+00, 0.00000000e+00, 0.00000000e+00, 0.00000000e+00, 0.00000000e+00, -2.11624335e+00, 3.69189823e-01, 4.22760299e-01, 3.33944014e+00, 0.00000000e+00, 5.0000000000, 5.0000000000, 0.0617265515
          47, 0.00000000e+00, 0.00000000e+00, 0.00000000e+00, 0.00000000e+00, 0.00000000e+00, 0.00000000e+00, 0.00000000e+00, 0.00000000e+00, 0.00000000e+00, 0.00000000e+00, 0.00000000e+00, 0.00000000e+00, -2.12143173e+00, 3.47997280e-01, 4.11878253e-01, 3.33456235e+00, 0.00000000e+00, 5.0000000000, 5.0000000000, 0.0629189419
          48, 0.00000000e+00, 0.00000000e+00, 0.00000000e+00, 0.00000000e+00, 0.00000000e+00, 0.00000000e+00, 0.00000000e+00, 0.00000000e+00, 0.00000000e+00, 0.00000000e+00, 0.00000000e+00, 0.00000000e+00, -2.12739241e+00, 3.24040264e-01, 4.00048707e-01, 3.32892016e+00, 0.00000000e+00, 5.0000000000, 5.0000000000, 0.0640239156
          49, 0.00000000e+00, 0.00000000e+00, 0.00000000e+00, 0.00000000e+00, 0.00000000e+00, 0.00000000e+00, 0.00000000e+00, 0.00000000e+00, 0.00000000e+00, 0.00000000e+00, 0.00000000e+00, 0.00000000e+00, -2.13372562e+00, 2.96736652e-01, 3.87142431e-01, 3.32293596e+00, 0.00000000e+00, 5.0000000000, 5.0000000000, 0.0651372542
          50, 0.00000000e+00, 0.00000000e+00, 0.00000000e+00, 0.00000000e+00, 0.00000000e+00, 0.00000000e+00, 0.00000000e+00, 0.00000000e+00, 0.00000000e+00, 0.00000000e+00, 0.00000000e+00, 0.00000000e+00, -2.13985587e+00, 2.65400479e-01, 3.73020975e-01, 3.31721104e+00, 0.00000000e+00, 5.0000000000, 5.0000000000, 0.0662427708
          51, 0.00000000e+00, 0.00000000e+00, 0.00000000e+00, 0.00000000e+00, 0.00000000e+00, 0.00000000e+00, 0.00000000e+00, 0.00000000e+00, 0.00000000e+00, 0.00000000e+00, 0.00000000e+00, 0.00000000e+00, -2.14500665e+00, 2.29374202e-01, 3.57525852e-01, 3.31254722e+00, 0.00000000e+00, 5.0000000000, 5.0000000000, 0.0673907825
          52, 0.00000000e+00, 0.00000000e+00, 0.00000000e+00, 0.00000000e+00, 0.00000000e+00, 0.00000000e+00, 0.00000000e+00, 0.00000000e+00, 0.00000000e+00, 0.00000000e+00, 0.00000000e+00, 0.00000000e+00, -2.14821773e+00, 1.88349954e-01, 3.40467130e-01, 3.30992395e+00, 0.00000000e+00, 5.0000000000, 5.0000000000, 0.0684648941
          53, 0.00000000e+00, 0.00000000e+00, 0.00000000e+00, 0.00000000e+00, 0.00000000e+00, 0.00000000e+00, 0.00000000e+00, 0.00000000e+00, 0.00000000e+00, 0.00000000e+00, 0.00000000e+00, 0.00000000e+00, -2.14842758e+00, 1.43130994e-01, 3.21611071e-01, 3.31040848e+00, 0.00000000e+00, 5.0000000000, 5.0000000000, 0.0700416628
          54, 0.00000000e+00, 0.00000000e+00, 0.00000000e+00, 0.00000000e+00, 0.00000000e+00, 0.00000000e+00, 0.00000000e+00, 0.00000000e+00, 0.00000000e+00, 0.00000000e+00, 0.00000000e+00, 0.00000000e+00, -2.14463242e+00, 9.72835432e-02, 3.00666062e-01, 3.31499008e+00, 0.00000000e+00, 5.0000000000, 5.0000000000, 0.0715878541
          55, 0.00000000e+00, 0.00000000e+00, 0.00000000e+00, 0.00000000e+00, 0.00000000e+00, 0.00000000e+00, 0.00000000e+00, 0.00000000e+00, 0.00000000e+00, 0.00000000e+00, 0.00000000e+00, 0.00000000e+00, -2.13610011e+00, 5.98255967e-02, 2.77265513e-01, 3.32436428e+00, 0.00000000e+00, 5.0000000000, 5.0000000000, 0.0731740967
          56, 0.00000000e+00, 0.00000000e+00, 0.00000000e+00, 0.00000000e+00, 0.00000000e+00, 0.00000000e+00, 0.00000000e+00, 0.00000000e+00, 0.00000000e+00, 0.00000000e+00, 0.00000000e+00, 0.00000000e+00, -2.12257165e+00, 4.61034278e-02, 2.50945834e-01, 3.33873833e+00, 0.00000000e+00, 5.0000000000, 5.0000000000, 0.0747495557
          57, 0.00000000e+00, 0.00000000e+00, 0.00000000e+00, 0.00000000e+00, 0.00000000e+00, 0.00000000e+00, 0.00000000e+00, 0.00000000e+00, 0.00000000e+00, 0.00000000e+00, 0.00000000e+00, 0.00000000e+00, -2.10436278e+00, 6.91881742e-02, 2.21116616e-01, 3.35774384e+00, 0.00000000e+00, 5.0000000000, 5.0000000000, 0.0763415052
          58, 0.00000000e+00, 0.00000000e+00, 0.00000000e+00, 0.00000000e+00, 0.00000000e+00, 0.00000000e+00, 0.00000000e+00, 0.00000000e+00, 0.00000000e+00, 0.00000000e+00, 0.00000000e+00, 0.00000000e+00, -2.08231574e+00, 1.26014018e-01, 1.87019023e-01, 3.38049955e+00, 0.00000000e+00, 5.0000000000, 5.0000000000, 0.0779625816
          59, 0.00000000e+00, 0.00000000e+00, 0.00000000e+00, 0.00000000e+00, 0.00000000e+00, 0.00000000e+00, 0.00000000e+00, 0.00000000e+00, 0.00000000e+00, 0.00000000e+00, 0.00000000e+00, 0.00000000e+00, -2.05762875e+00, 2.00797153e-01, 1.47666842e-01, 3.40578937e+00, 0.00000000e+00, 5.0000000000, 5.0000000000, 0.0792247565
          60, 0.00000000e+00, 0.00000000e+00, 0.00000000e+00, 0.00000000e+00, 0.00000000e+00, 0.00000000e+00, 0.00000000e+00, 0.00000000e+00, 0.00000000e+00, 0.00000000e+00, 0.00000000e+00, 0.00000000e+00, -2.03164481e+00, 2.79470381e-01, 1.01763123e-01, 3.43227217e+00, 0.00000000e+00, 5.0000000000, 5.0000000000, 0.0804651050
          61, 0.00000000e+00, 0.00000000e+00, 0.00000000e+00, 0.00000000e+00, 0.00000000e+00, 0.00000000e+00, 0.00000000e+00, 0.00000000e+00, 0.00000000e+00, 0.00000000e+00, 0.00000000e+00, 0.00000000e+00, -2.00567765e+00, 3.54649755e-01, 4.75912964e-02, 3.45864926e+00, 0.00000000e+00, 5.0000000000, 5.0000000000, 0.0817381032
          62, 0.00000000e+00, 0.00000000e+00, 0.00000000e+00, 0.00000000e+00, 0.00000000e+00, 0.00000000e+00, 0.00000000e+00, 0.00000000e+00, 0.00000000e+00, 0.00000000e+00, 0.00000000e+00, 0.00000000e+00, -1.98090886e+00, 4.23533082e-01, -1.70888413e-02, 3.48375997e+00, 0.00000000e+00, 5.0000000000, 5.0000000000, 0.0830002707
          63, 0.00000000e+00, 0.00000000e+00, 0.00000000e+00, 0.00000000e+00, 0.00000000e+00, 0.00000000e+00, 0.00000000e+00, 0.00000000e+00, 0.00000000e+00, 0.00000000e+00, 0.00000000e+00, 0.00000000e+00, -1.95835166e+00, 4.85464646e-01, -9.49487246e-02, 3.50661282e+00, 0.00000000e+00, 5.0000000000, 5.0000000000, 0.0844019779
          64, 0.00000000e+00, 0.00000000e+00, 0.00000000e+00, 0.00000000e+00, 0.00000000e+00, 0.00000000e+00, 0.00000000e+00, 0.00000000e+00, 0.00000000e+00, 0.00000000e+00, 0.00000000e+00, 0.00000000e+00, -1.93885884e+00, 5.40626170e-01, -1.87863424e-01, 3.52637513e+00, 0.00000000e+00, 5.0000000000, 5.0000000000, 0.0860151870
          65, 0.00000000e+00, 0.00000000e+00, 0.00000000e+00, 0.00000000e+00, 0.00000000e+00, 0.00000000e+00, 0.00000000e+00, 0.00000000e+00, 0.00000000e+00, 0.00000000e+00, 0.00000000e+00, 0.00000000e+00, -1.92315329e+00, 5.89466305e-01, -2.90443836e-01, 3.54234189e+00, 0.00000000e+00, 5.0000000000, 5.0000000000, 0.0873391830
          66, 0.00000000e+00, 0.00000000e+00, 0.00000000e+00, 0.00000000e+00, 0.00000000e+00, 0.00000000e+00, 0.00000000e+00, 0.00000000e+00, 0.00000000e+00, 0.00000000e+00, 0.00000000e+00, 0.00000000e+00, -1.91186685e+00, 6.32472917e-01, -3.67997469e-01, 3.55389755e+00, 0.00000000e+00, 5.0000000000, 5.0000000000, 0.0886246786
          67, 0.00000000e+00, 0.00000000e+00, 0.00000000e+00, 0.00000000e+00, 0.00000000e+00, 0.00000000e+00, 0.00000000e+00, 0.00000000e+00, 0.00000000e+00, 0.00000000e+00, 0.00000000e+00, 0.00000000e+00, -1.90558100e+00, 6.70088856e-01, -3.51655111e-01, 3.56047660e+00, 0.00000000e+00, 5.0000000000, 5.0000000000, 0.0899425644
          68, 0.00000000e+00, 0.00000000e+00, 0.00000000e+00, 0.00000000e+00, 0.00000000e+00, 0.00000000e+00, 0.00000000e+00, 0.00000000e+00, 0.00000000e+00, 0.00000000e+00, 0.00000000e+00, 0.00000000e+00, -1.90486774e+00, 7.02685621e-01, -2.48465429e-01, 3.56152433e+00, 0.00000000e+00, 5.0000000000, 5.0000000000, 0.0911811343
          69, 0.00000000e+00, 0.00000000e+00, 0.00000000e+00, 0.00000000e+00, 0.00000000e+00, 0.00000000e+00, 0.00000000e+00, 0.00000000e+00, 0.00000000e+00, 0.00000000e+00, 0.00000000e+00, 0.00000000e+00, -1.91033269e+00, 7.30559255e-01, -1.27318060e-01, 3.55645607e+00, 0.00000000e+00, 5.0000000000, 5.0000000000, 0.0926443161
          70, 0.00000000e+00, 0.00000000e+00, 0.00000000e+00, 0.00000000e+00, 0.00000000e+00, 0.00000000e+00, 0.00000000e+00, 0.00000000e+00, 0.00000000e+00, 0.00000000e+00, 0.00000000e+00, 0.00000000e+00, -1.92266452e+00, 7.53934308e-01, -1.80295632e-02, 3.54461100e+00, 0.00000000e+00, 5.0000000000, 5.0000000000, 0.0940767783
          71, 0.00000000e+00, 0.00000000e+00, 0.00000000e+00, 0.00000000e+00, 0.00000000e+00, 0.00000000e+00, 0.00000000e+00, 0.00000000e+00, 0.00000000e+00, 0.00000000e+00, 0.00000000e+00, 0.00000000e+00, -1.94269832e+00, 7.72970562e-01, 7.53730391e-02, 3.52519416e+00, 0.00000000e+00, 5.0000000000, 5.0000000000, 0.0955420902
          72, 0.00000000e+00, 0.00000000e+00, 0.00000000e+00, 0.00000000e+00, 0.00000000e+00, 0.00000000e+00, 0.00000000e+00, 0.00000000e+00, 0.00000000e+00, 0.00000000e+00, 0.00000000e+00, 0.00000000e+00, -1.97150393e+00, 7.87770014e-01, 1.54780158e-01, 3.49719739e+00, 0.00000000e+00, 5.0000000000, 5.0000000000, 0.0970155171
          73, 0.00000000e+00, 0.00000000e+00, 0.00000000e+00, 0.00000000e+00, 0.00000000e+00, 0.00000000e+00, 0.00000000e+00, 0.00000000e+00, 0.00000000e+00, 0.00000000e+00, 0.00000000e+00, 0.00000000e+00, -2.01051888e+00, 7.98382929e-01, 2.22599041e-01, 3.45928424e+00, 0.00000000e+00, 5.0000000000, 5.0000000000, 0.0984978221
          74, 0.00000000e+00, 0.00000000e+00, 0.00000000e+00, 0.00000000e+00, 0.00000000e+00, 0.00000000e+00, 0.00000000e+00, 0.00000000e+00, 0.00000000e+00, 0.00000000e+00, 0.00000000e+00, 0.00000000e+00, -2.06176000e+00, 8.04812571e-01, 2.80774519e-01, 3.40961496e+00, 0.00000000e+00, 5.0000000000, 5.0000000000, 0.0998594730
          75, 0.00000000e+00, 0.00000000e+00, 0.00000000e+00, 0.00000000e+00, 0.00000000e+00, 0.00000000e+00, 0.00000000e+00, 0.00000000e+00, 0.00000000e+00, 0.00000000e+00, 0.00000000e+00, 0.00000000e+00, -2.12817157e+00, 8.07018325e-01, 3.30745349e-01, 3.34558053e+00, 0.00000000e+00, 5.0000000000, 5.0000000000, 0.1012799046
          76, 0.00000000e+00, 0.00000000e+00, 0.00000000e+00, 0.00000000e+00, 0.00000000e+00, 0.00000000e+00, 0.00000000e+00, 0.00000000e+00, 0.00000000e+00, 0.00000000e+00, 0.00000000e+00, 0.00000000e+00, -2.21418278e+00, 8.04917069e-01, 3.73555204e-01, 3.26344534e+00, 0.00000000e+00, 5.0000000000, 5.0000000000, 0.1026271030
          77, 0.00000000e+00, 0.00000000e+00, 0.00000000e+00, 0.00000000e+00, 0.00000000e+00, 0.00000000e+00, 0.00000000e+00, 0.00000000e+00, 0.00000000e+00, 0.00000000e+00, 0.00000000e+00, 0.00000000e+00, -2.32633438e+00, 7.98382380e-01, 4.09960416e-01, 3.15823444e+00, 0.00000000e+00, 5.0000000000, 5.0000000000, 0.1041578420
          78, 0.00000000e+00, 0.00000000e+00, 0.00000000e+00, 0.00000000e+00, 0.00000000e+00, 0.00000000e+00, 0.00000000e+00, 0.00000000e+00, 0.00000000e+00, 0.00000000e+00, 0.00000000e+00, 0.00000000e+00, -2.47144051e+00, 7.87241403e-01, 4.40510980e-01, 3.02662499e+00, 0.00000000e+00, 5.0000000000, 5.0000000000, 0.1058055690
          79, 0.00000000e+00, 0.00000000e+00, 0.00000000e+00, 0.00000000e+00, 0.00000000e+00, 0.00000000e+00, 0.00000000e+00, 0.00000000e+00, 0.00000000e+00, 0.00000000e+00, 0.00000000e+00, 0.00000000e+00, -2.62973193e+00, 7.71268237e-01, 4.65608414e-01, 2.88990737e+00, 0.00000000e+00, 5.0000000000, 5.0000000000, 0.1074771828
          80, 0.00000000e+00, 0.00000000e+00, 0.00000000e+00, 0.00000000e+00, 0.00000000e+00, 0.00000000e+00, 0.00000000e+00, 0.00000000e+00, 0.00000000e+00, 0.00000000e+00, 0.00000000e+00, 0.00000000e+00, -2.65781950e+00, 7.50172838e-01, 4.85545573e-01, 2.85559958e+00, 0.00000000e+00, 5.0000000000, 5.0000000000, 0.1088623957
          81, 0.00000000e+00, 0.00000000e+00, 0.00000000e+00, 0.00000000e+00, 0.00000000e+00, 0.00000000e+00, 0.00000000e+00, 0.00000000e+00, 0.00000000e+00, 0.00000000e+00, 0.00000000e+00, 0.00000000e+00, -2.51743055e+00, 7.23588263e-01, 5.00532667e-01, 2.96554649e+00, 0.00000000e+00, 5.0000000000, 5.0000000000, 0.1100850638
          82, 0.00000000e+00, 0.00000000e+00, 0.00000000e+00, 0.00000000e+00, 0.00000000e+00, 0.00000000e+00, 0.00000000e+00, 0.00000000e+00, 0.00000000e+00, 0.00000000e+00, 0.00000000e+00, 0.00000000e+00, -2.37152494e+00, 6.91049623e-01, 5.10719042e-01, 3.09782143e+00, 0.00000000e+00, 5.0000000000, 5.0000000000, 0.1112871796
          83, 0.00000000e+00, 0.00000000e+00, 0.00000000e+00, 0.00000000e+00, 0.00000000e+00, 0.00000000e+00, 0.00000000e+00, 0.00000000e+00, 0.00000000e+00, 0.00000000e+00, 0.00000000e+00, 0.00000000e+00, -2.25867517e+00, 6.51956738e-01, 5.16208017e-01, 3.20589715e+00, 0.00000000e+00, 5.0000000000, 5.0000000000, 0.1124290449
          84, 0.00000000e+00, 0.00000000e+00, 0.00000000e+00, 0.00000000e+00, 0.00000000e+00, 0.00000000e+00, 0.00000000e+00, 0.00000000e+00, 0.00000000e+00, 0.00000000e+00, 0.00000000e+00, 0.00000000e+00, -2.17361002e+00, 6.05532082e-01, 5.17061804e-01, 3.28918990e+00, 0.00000000e+00, 5.0000000000, 5.0000000000, 0.1136341838
          85, 0.00000000e+00, 0.00000000e+00, 0.00000000e+00, 0.00000000e+00, 0.00000000e+00, 0.00000000e+00, 0.00000000e+00, 0.00000000e+00, 0.00000000e+00, 0.00000000e+00, 0.00000000e+00, 0.00000000e+00, -2.10930264e+00, 5.50765431e-01, 5.13304936e-01, 3.35283300e+00, 0.00000000e+00, 5.0000000000, 5.0000000000, 0.1148071096
          86, 0.00000000e+00, 0.00000000e+00, 0.00000000e+00, 0.00000000e+00, 0.00000000e+00, 0.00000000e+00, 0.00000000e+00, 0.00000000e+00, 0.00000000e+00, 0.00000000e+00, 0.00000000e+00, 0.00000000e+00, -2.06087760e+00, 4.86355099e-01, 5.04925177e-01, 3.40105758e+00, 0.00000000e+00, 5.0000000000, 5.0000000000, 0.1159472981
          87, 0.00000000e+00, 0.00000000e+00, 0.00000000e+00, 0.00000000e+00, 0.00000000e+00, 0.00000000e+00, 0.00000000e+00, 0.00000000e+00, 0.00000000e+00, 0.00000000e+00, 0.00000000e+00, 0.00000000e+00, -2.02510974e+00, 4.10697293e-01, 4.91871219e-01, 3.43684241e+00, 0.00000000e+00, 5.0000000000, 5.0000000000, 0.1170919528
          88, 0.00000000e+00, 0.00000000e+00, 0.00000000e+00, 0.00000000e+00, 0.00000000e+00, 0.00000000e+00, 0.00000000e+00, 0.00000000e+00, 0.00000000e+00, 0.00000000e+00, 0.00000000e+00, 0.00000000e+00, -1.99982041e+00, 3.22135028e-01, 4.74047258e-01, 3.46226281e+00, 0.00000000e+00, 5.0000000000, 5.0000000000, 0.1182825492
          89, 0.00000000e+00, 0.00000000e+00, 0.00000000e+00, 0.00000000e+00, 0.00000000e+00, 0.00000000e+00, 0.00000000e+00, 0.00000000e+00, 0.00000000e+00, 0.00000000e+00, 0.00000000e+00, 0.00000000e+00, -1.98349040e+00, 2.20280367e-01, 4.51303890e-01, 3.47879259e+00, 0.00000000e+00, 5.0000000000, 5.0000000000, 0.1194634269