TITLE = "Visualization of the volumetric solution"
VARIABLES = "x","y","Density","Momentum_x","Momentum_y","Energy","Pressure","Temperature","Mach","C<sub>p</sub>","Roe_Dissipation"
ZONE NODES= 2400, ELEMENTS= 2291, DATAPACKING=POINT, ZONETYPE=FEQUADRILATERAL
0.000000e+00	1.250000e+00	1.221120e+00	5.598348e+01	-6.591653e+00	2.538503e+05	1.010197e+05	2.881894e+02	1.356449e-01	-4.304865e-01	0.000000e+00	
0.000000e+00	1.218354e+00	1.221134e+00	5.598659e+01	-6.569766e+00	2.538505e+05	1.010198e+05	2.881862e+02	1.356453e-01	-4.303663e-01	0.000000e+00	
3.448276e-02	1.218354e+00	1.247773e+00	5.479905e+01	-3.296845e+01	2.614409e+05	1.039208e+05	2.901332e+02	1.500966e-01	3.659827e+00	0.000000e+00	
3.448276e-02	1.250000e+00	1.247745e+00	5.479782e+01	-3.297234e+01	2.614348e+05	1.039184e+05	2.901327e+02	1.501023e-01	3.656353e+00	0.000000e+00	
0.000000e+00	1.186709e+00	1.221134e+00	5.599300e+01	-6.559598e+00	2.538489e+05	1.010190e+05	2.881841e+02	1.356583e-01	-4.314229e-01	0.000000e+00	
3.448276e-02	1.186709e+00	1.247779e+00	5.479830e+01	-3.297051e+01	2.614418e+05	1.039212e+05	2.901328e+02	1.500970e-01	3.660315e+00	0.000000e+00	
0.000000e+00	1.155063e+00	1.221134e+00	5.599676e+01	-6.554900e+00	2.538484e+05	1.010188e+05	2.881834e+02	1.356661e-01	-4.317735e-01	0.000000e+00	
3.448276e-02	1.155063e+00	1.247786e+00	5.479873e+01	-3.297146e+01	2.614430e+05	1.039216e+05	2.901324e+02	1.500982e-01	3.660974e+00	0.000000e+00	
0.000000e+00	1.123418e+00	1.221133e+00	5.599778e+01	-6.552549e+00	2.538481e+05	1.010186e+05	2.881833e+02	1.356681e-01	-4.319394e-01	0.000000e+00	
3.448276e-02	1.123418e+00	1.247790e+00	5.479870e+01	-3.297237e+01	2.614436e+05	1.039219e+05	2.901322e+02	1.500989e-01	3.661307e+00	0.000000e+00	
0.000000e+00	1.091772e+00	1.221132e+00	5.599763e+01	-6.551031e+00	2.538479e+05	1.010186e+05	2.881834e+02	1.356674e-01	-4.320317e-01	0.000000e+00	
3.448276e-02	1.091772e+00	1.247792e+00	5.479832e+01	-3.297280e+01	2.614440e+05	1.039220e+05	2.901322e+02	1.500984e-01	3.661527e+00	0.000000e+00	
0.000000e+00	1.060127e+00	1.221131e+00	5.599746e+01	-6.549970e+00	2.538478e+05	1.010185e+05	2.881835e+02	1.356668e-01	-4.320820e-01	0.000000e+00	
3.448276e-02	1.060127e+00	1.247793e+00	5.479802e+01	-3.297293e+01	2.614442e+05	1.039221e+05	2.901322e+02	1.500978e-01	3.661678e+00	0.000000e+00	
0.000000e+00	1.028481e+00	1.221131e+00	5.599752e+01	-6.549294e+00	2.538478e+05	1.010185e+05	2.881836e+02	1.356668e-01	-4.321101e-01	0.000000e+00	
3.448276e-02	1.028481e+00	1.247793e+00	5.479793e+01	-3.297297e+01	2.614444e+05	1.039222e+05	2.901322e+02	1.500976e-01	3.661779e+00	0.000000e+00	
0.000000e+00	9.968354e-01	1.221130e+00	5.599768e+01	-6.548912e+00	2.538478e+05	1.010185e+05	2.881836e+02	1.356671e-01	-4.321236e-01	0.000000e+00	
3.448276e-02	9.968354e-01	1.247794e+00	5.479796e+01	-3.297302e+01	2.614445e+05	1.039223e+05	2.901323e+02	1.500977e-01	3.661847e+00	0.000000e+00	
0.000000e+00	9.651899e-01	1.221130e+00	5.599779e+01	-6.548716e+00	2.538478e+05	1.010185e+05	2.881836e+02	1.356673e-01	-4.321317e-01	0.000000e+00	
3.448276e-02	9.651899e-01	1.247794e+00	5.479800e+01	-3.297310e+01	2.614446e+05	1.039223e+05	2.901323e+02	1.500978e-01	3.661890e+00	0.000000e+00	
0.000000e+00	9.335443e-01	1.221130e+00	5.599779e+01	-6.548610e+00	2.538478e+05	1.010185e+05	2.881836e+02	1.356672e-01	-4.321362e-01	0.000000e+00	
3.448276e-02	9.335443e-01	1.247794e+00	5.479799e+01	-3.297317e+01	2.614447e+05	1.039223e+05	2.901323e+02	1.500978e-01	3.661917e+00	0.000000e+00	
0.000000e+00	9.018987e-01	1.221130e+00	5.599772e+01	-6.548538e+00	2.538477e+05	1.010185e+05	2.881836e+02	1.356671e-01	-4.321389e-01	0.000000e+00	
3.448276e-02	9.018987e-01	1.247794e+00	5.479793e+01	-3.297321e+01	2.614447e+05	1.039223e+05	2.901323e+02	1.500977e-01	3.661936e+00	0.000000e+00	
0.000000e+00	8.702532e-01	1.221130e+00	5.599765e+01	-6.548473e+00	2.538477e+05	1.010185e+05	2.881836e+02	1.356669e-01	-4.321399e-01	0.000000e+00	
3.448276e-02	8.702532e-01	1.247795e+00	5.479787e+01	-3.297323e+01	2.614447e+05	1.039223e+05	2.901323e+02	1.500976e-01	3.661951e+00	0.000000e+00	
0.000000e+00	8.386076e-01	1.221130e+00	5.599759e+01	-6.548413e+00	2.538477e+05	1.010185e+05	2.881836e+02	1.356667e-01	-4.321400e-01	0.000000e+00	
3.448276e-02	8.386076e-01	1.247795e+00	5.479782e+01	-3.297324e+01	2.614448e+05	1.039223e+05	2.901323e+02	1.500975e-01	3.661962e+00	0.000000e+00	
0.000000e+00	8.069620e-01	1.221130e+00	5.599756e+01	-6.548358e+00	2.538477e+05	1.010185e+05	2.881836e+02	1.356666e-01	-4.321397e-01	0.000000e+00	
3.448276e-02	8.069620e-01	1.247795e+00	5.479779e+01	-3.297323e+01	2.614448e+05	1.039223e+05	2.901323e+02	1.500974e-01	3.661971e+00	0.000000e+00	
0.000000e+00	7.753165e-01	1.221130e+00	5.599755e+01	-6.548310e+00	2.538477e+05	1.010185e+05	2.881836e+02	1.356666e-01	-4.321393e-01	0.000000e+00	
3.448276e-02	7.753165e-01	1.247795e+00	5.479777e+01	-3.297322e+01	2.614448e+05	1.039223e+05	2.901323e+02	1.500974e-01	3.661978e+00	0.000000e+00	
0.000000e+00	7.436709e-01	1.221130e+00	5.599754e+01	-6.548269e+00	2.538477e+05	1.010185e+05	2.881836e+02	1.356666e-01	-4.321390e-01	0.000000e+00	
3.448276e-02	7.436709e-01	1.247795e+00	5.479777e+01	-3.297321e+01	2.614448e+05	1.039224e+05	2.901323e+02	1.500973e-01	3.661983e+00	0.000000e+00	
0.000000e+00	7.120253e-01	1.221130e+00	5.599754e+01	-6.548233e+00	2.538477e+05	1.010185e+05	2.881836e+02	1.356666e-01	-4.321389e-01	0.000000e+00	
3.448276e-02	7.120253e-01	1.247795e+00	5.479776e+01	-3.297319e+01	2.614448e+05	1.039224e+05	2.901323e+02	1.500973e-01	3.661988e+00	0.000000e+00	
0.000000e+00	6.803797e-01	1.221130e+00	5.599754e+01	-6.548201e+00	2.538477e+05	1.010185e+05	2.881836e+02	1.356665e-01	-4.321389e-01	0.000000e+00	
3.448276e-02	6.803797e-01	1.247795e+00	5.479776e+01	-3.297318e+01	2.614448e+05	1.039224e+05	2.901323e+02	1.500973e-01	3.661991e+00	0.000000e+00	
0.000000e+00	6.487342e-01	1.221130e+00	5.599755e+01	-6.548172e+00	2.538477e+05	1.010185e+05	2.881836e+02	1.356665e-01	-4.321391e-01	0.000000e+00	
3.448276e-02	6.487342e-01	1.247795e+00	5.479776e+01	-3.297317e+01	2.614448e+05	1.039224e+05	2.901323e+02	1.500973e-01	3.661994e+00	0.000000e+00	
0.000000e+00	6.170886e-01	1.221130e+00	5.599755e+01	-6.548144e+00	2.538477e+05	1.010185e+05	2.881836e+02	1.356665e-01	-4.321393e-01	0.000000e+00	
3.448276e-02	6.170886e-01	1.247795e+00	5.479776e+01	-3.297315e+01	2.614448e+05	1.039224e+05	2.901323e+02	1.500973e-01	3.661996e+00	0.000000e+00	
0.000000e+00	5.854430e-01	1.221130e+00	5.599755e+01	-6.548117e+00	2.538477e+05	1.010185e+05	2.881836e+02	1.356666e-01	-4.321397e-01	0.000000e+00	
3.448276e-02	5.854430e-01	1.247795e+00	5.479777e+01	-3.297313e+01	2.614448e+05	1.039224e+05	2.901323e+02	1.500973e-01	3.661998e+00	0.000000e+00	
0.000000e+00	5.537975e-01	1.221130e+00	5.599756e+01	-6.548090e+00	2.538477e+05	1.010185e+05	2.881836e+02	1.356666e-01	-4.321403e-01	0.000000e+00	
3.448276e-02	5.537975e-01	1.247795e+00	5.479777e+01	-3.297312e+01	2.614448e+05	1.039224e+05	2.901323e+02	1.500972e-01	3.662000e+00	0.000000e+00	
0.000000e+00	5.221519e-01	1.221130e+00	5.599756e+01	-6.548064e+00	2.538477e+05	1.010185e+05	2.881836e+02	1.356666e-01	-4.321410e-01	0.000000e+00	
3.448276e-02	5.221519e-01	1.247795e+00	5.479778e+01	-3.297310e+01	2.614448e+05	1.039224e+05	2.901323e+02	1.500972e-01	3.662001e+00	0.000000e+00	
0.000000e+00	4.905063e-01	1.221130e+00	5.599757e+01	-6.548037e+00	2.538477e+05	1.010185e+05	2.881836e+02	1.356666e-01	-4.321419e-01	0.000000e+00	
3.448276e-02	4.905063e-01	1.247795e+00	5.479778e+01	-3.297308e+01	2.614448e+05	1.039224e+05	2.901323e+02	1.500972e-01	3.662003e+00	0.000000e+00	
0.000000e+00	4.588608e-01	1.221130e+00	5.599757e+01	-6.548010e+00	2.538477e+05	1.010185e+05	2.881836e+02	1.356666e-01	-4.321429e-01	0.000000e+00	
3.448276e-02	4.588608e-01	1.247795e+00	5.479779e+01	-3.297306e+01	2.614448e+05	1.039224e+05	2.901323e+02	1.500972e-01	3.662004e+00	0.000000e+00	
0.000000e+00	4.272152e-01	1.221130e+00	5.599758e+01	-6.547984e+00	2.538477e+05	1.010185e+05	2.881836e+02	1.356666e-01	-4.321440e-01	0.000000e+00	
3.448276e-02	4.272152e-01	1.247795e+00	5.479779e+01	-3.297305e+01	2.614448e+05	1.039224e+05	2.901323e+02	1.500972e-01	3.662004e+00	0.000000e+00	
0.000000e+00	3.955696e-01	1.221130e+00	5.599758e+01	-6.547957e+00	2.538477e+05	1.010185e+05	2.881836e+02	1.356666e-01	-4.321451e-01	0.000000e+00	
3.448276e-02	3.955696e-01	1.247795e+00	5.479779e+01	-3.297303e+01	2.614448e+05	1.039224e+05	2.901323e+02	1.500972e-01	3.662005e+00	0.000000e+00	
0.000000e+00	3.639241e-01	1.221130e+00	5.599759e+01	-6.547930e+00	2.538477e+05	1.010185e+05	2.881836e+02	1.356666e-01	-4.321464e-01	0.000000e+00	
3.448276e-02	3.639241e-01	1.247795e+00	5.479780e+01	-3.297301e+01	2.614448e+05	1.039224e+05	2.901323e+02	1.500971e-01	3.662006e+00	0.000000e+00	
0.000000e+00	3.322785e-01	1.221130e+00	5.599759e+01	-6.547904e+00	2.538477e+05	1.010185e+05	2.881836e+02	1.356666e-01	-4.321477e-01	0.000000e+00	
3.448276e-02	3.322785e-01	1.247795e+00	5.479780e+01	-3.297299e+01	2.614448e+05	1.039224e+05	2.901323e+02	1.500971e-01	3.662007e+00	0.000000e+00	
0.000000e+00	3.006329e-01	1.221130e+00	5.599759e+01	-6.547878e+00	2.538477e+05	1.010185e+05	2.881836e+02	1.356666e-01	-4.321490e-01	0.000000e+00	
3.448276e-02	3.006329e-01	1.247795e+00	5.479780e+01	-3.297297e+01	2.614448e+05	1.039224e+05	2.901323e+02	1.500971e-01	3.662007e+00	0.000000e+00	
0.000000e+00	2.689873e-01	1.221130e+00	5.599759e+01	-6.547852e+00	2.538477e+05	1.010185e+05	2.881836e+02	1.356666e-01	-4.321503e-01	0.000000e+00	
3.448276e-02	2.689873e-01	1.247795e+00	5.479780e+01	-3.297295e+01	2.614448e+05	1.039224e+05	2.901323e+02	1.500971e-01	3.662008e+00	0.000000e+00	
0.000000e+00	2.373418e-01	1.221130e+00	5.599759e+01	-6.547826e+00	2.538477e+05	1.010185e+05	2.881836e+02	1.356666e-01	-4.321516e-01	0.000000e+00	
3.448276e-02	2.373418e-01	1.247795e+00	5.479780e+01	-3.297293e+01	2.614448e+05	1.039224e+05	2.901323e+02	1.500971e-01	3.662009e+00	0.000000e+00	
0.000000e+00	2.056962e-01	1.221130e+00	5.599759e+01	-6.547801e+00	2.538477e+05	1.010185e+05	2.881836e+02	1.356666e-01	-4.321530e-01	0.000000e+00	
3.448276e-02	2.056962e-01	1.247795e+00	5.479780e+01	-3.297292e+01	2.614448e+05	1.039224e+05	2.901323e+02	1.500970e-01	3.662009e+00	0.000000e+00	
0.000000e+00	1.740506e-01	1.221130e+00	5.599759e+01	-6.547776e+00	2.538477e+05	1.010185e+05	2.881836e+02	1.356666e-01	-4.321543e-01	0.000000e+00	
3.448276e-02	1.740506e-01	1.247795e+00	5.479779e+01	-3.297290e+01	2.614448e+05	1.039224e+05	2.901323e+02	1.500970e-01	3.662010e+00	0.000000e+00	
0.000000e+00	1.424051e-01	1.221130e+00	5.599759e+01	-6.547752e+00	2.538477e+05	1.010185e+05	2.881836e+02	1.356665e-01	-4.321555e-01	0.000000e+00	
3.448276e-02	1.424051e-01	1.247795e+00	5.479779e+01	-3.297288e+01	2.614448e+05	1.039224e+05	2.901323e+02	1.500970e-01	3.662011e+00	0.000000e+00	
0.000000e+00	1.107595e-01	1.221130e+00	5.599758e+01	-6.547729e+00	2.538477e+05	1.010185e+05	2.881836e+02	1.356665e-01	-4.321568e-01	0.000000e+00	
3.448276e-02	1.107595e-01	1.247795e+00	5.479778e+01	-3.297287e+01	2.614448e+05	1.039224e+05	2.901323e+02	1.500969e-01	3.662011e+00	0.000000e+00	
0.000000e+00	7.911392e-02	1.221130e+00	5.599758e+01	-6.547706e+00	2.538477e+05	1.010185e+05	2.881836e+02	1.356665e-01	-4.321579e-01	0.000000e+00	
3.448276e-02	7.911392e-02	1.247795e+00	5.479778e+01	-3.297285e+01	2.614448e+05	1.039224e+05	2.901323e+02	1.500969e-01	3.662012e+00	0.000000e+00	
0.000000e+00	4.746835e-02	1.221130e+00	5.599757e+01	-6.547684e+00	2.538477e+05	1.010185e+05	2.881836e+02	1.356665e-01	-4.321590e-01	0.000000e+00	
3.448276e-02	4.746835e-02	1.247795e+00	5.479777e+01	-3.297284e+01	2.614448e+05	1.039224e+05	2.901323e+02	1.500969e-01	3.662013e+00	0.000000e+00	
0.000000e+00	1.582278e-02	1.221130e+00	5.599756e+01	-6.547663e+00	2.538477e+05	1.010185e+05	2.881836e+02	1.356665e-01	-4.321601e-01	0.000000e+00	
3.448276e-02	1.582278e-02	1.247795e+00	5.479776e+01	-3.297282e+01	2.614448e+05	1.039224e+05	2.901324e+02	1.500968e-01	3.662014e+00	0.000000e+00	
0.000000e+00	-1.582278e-02	1.221130e+00	5.599755e+01	-6.547643e+00	2.538477e+05	1.010185e+05	2.881836e+02	1.356664e-01	-4.321610e-01	0.000000e+00	
3.448276e-02	-1.582278e-02	1.247795e+00	5.479775e+01	-3.297281e+01	2.614448e+05	1.039224e+05	2.901324e+02	1.500968e-01	3.662015e+00	0.000000e+00	
0.000000e+00	-4.746835e-02	1.221130e+00	5.599754e+01	-6.547624e+00	2.538477e+05	1.010185e+05	2.881836e+02	1.356664e-01	-4.321619e-01	0.000000e+00	
3.448276e-02	-4.746835e-02	1.247795e+00	5.479774e+01	-3.297280e+01	2.614448e+05	1.039224e+05	2.901324e+02	1.500968e-01	3.662015e+00	0.000000e+00	
0.000000e+00	-7.911392e-02	1.221130e+00	5.599753e+01	-6.547607e+00	2.538477e+05	1.010185e+05	2.881836e+02	1.356664e-01	-4.321627e-01	0.000000e+00	
3.448276e-02	-7.911392e-02	1.247795e+00	5.479773e+01	-3.297279e+01	2.614448e+05	1.039224e+05	2.901324e+02	1.500967e-01	3.662016e+00	0.000000e+00	
0.000000e+00	-1.107595e-01	1.221130e+00	5.599752e+01	-6.547590e+00	2.538477e+05	1.010185e+05	2.881836e+02	1.356664e-01	-4.321634e-01	0.000000e+00	
3.448276e-02	-1.107595e-01	1.247795e+00	5.479772e+01	-3.297278e+01	2.614448e+05	1.039224e+05	2.901324e+02	1.500967e-01	3.662017e+00	0.000000e+00	
0.000000e+00	-1.424051e-01	1.221130e+00	5.599751e+01	-6.547574e+00	2.538477e+05	1.010185e+05	2.881836e+02	1.356663e-01	-4.321640e-01	0.000000e+00	
3.448276e-02	-1.424051e-01	1.247795e+00	5.479770e+01	-3.297277e+01	2.614448e+05	1.039224e+05	2.901324e+02	1.500967e-01	3.662018e+00	0.000000e+00	
0.000000e+00	-1.740506e-01	1.221130e+00	5.599750e+01	-6.547560e+00	2.538477e+05	1.010185e+05	2.881836e+02	1.356663e-01	-4.321646e-01	0.000000e+00	
3.448276e-02	-1.740506e-01	1.247795e+00	5.479769e+01	-3.297276e+01	2.614448e+05	1.039224e+05	2.901324e+02	1.500966e-01	3.662019e+00	0.000000e+00	
0.000000e+00	-2.056962e-01	1.221130e+00	5.599749e+01	-6.547547e+00	2.538477e+05	1.010185e+05	2.881836e+02	1.356663e-01	-4.321650e-01	0.000000e+00	
3.448276e-02	-2.056962e-01	1.247795e+00	5.479767e+01	-3.297276e+01	2.614448e+05	1.039224e+05	2.901324e+02	1.500966e-01	3.662020e+00	0.000000e+00	
0.000000e+00	-2.373418e-01	1.221130e+00	5.599747e+01	-6.547535e+00	2.538477e+05	1.010185e+05	2.881836e+02	1.356662e-01	-4.321653e-01	0.000000e+00	
3.448276e-02	-2.373418e-01	1.247795e+00	5.479766e+01	-3.297275e+01	2.614448e+05	1.039224e+05	2.901324e+02	1.500965e-01	3.662021e+00	0.000000e+00	
0.000000e+00	-2.689873e-01	1.221130e+00	5.599746e+01	-6.547524e+00	2.538477e+05	1.010185e+05	2.881836e+02	1.356662e-01	-4.321656e-01	0.000000e+00	
3.448276e-02	-2.689873e-01	1.247795e+00	5.479765e+01	-3.297275e+01	2.614448e+05	1.039224e+05	2.901324e+02	1.500965e-01	3.662022e+00	0.000000e+00	
0.000000e+00	-3.006329e-01	1.221130e+00	5.599745e+01	-6.547515e+00	2.538477e+05	1.010185e+05	2.881836e+02	1.356662e-01	-4.321658e-01	0.000000e+00	
3.448276e-02	-3.006329e-01	1.247795e+00	5.479763e+01	-3.297274e+01	2.614448e+05	1.039224e+05	2.901324e+02	1.500965e-01	3.662023e+00	0.000000e+00	
0.000000e+00	-3.322785e-01	1.221130e+00	5.599744e+01	-6.547507e+00	2.538477e+05	1.010185e+05	2.881836e+02	1.356661e-01	-4.321659e-01	0.000000e+00	
3.448276e-02	-3.322785e-01	1.247795e+00	5.479762e+01	-3.297274e+01	2.614448e+05	1.039224e+05	2.901324e+02	1.500964e-01	3.662024e+00	0.000000e+00	
0.000000e+00	-3.639241e-01	1.221130e+00	5.599742e+01	-6.547500e+00	2.538477e+05	1.010185e+05	2.881836e+02	1.356661e-01	-4.321659e-01	0.000000e+00	
3.448276e-02	-3.639241e-01	1.247795e+00	5.479760e+01	-3.297274e+01	2.614448e+05	1.039224e+05	2.901324e+02	1.500964e-01	3.662024e+00	0.000000e+00	
0.000000e+00	-3.955696e-01	1.221130e+00	5.599741e+01	-6.547494e+00	2.538477e+05	1.010185e+05	2.881836e+02	1.356661e-01	-4.321659e-01	0.000000e+00	
3.448276e-02	-3.955696e-01	1.247795e+00	5.479759e+01	-3.297274e+01	2.614448e+05	1.039224e+05	2.901324e+02	1.500964e-01	3.662025e+00	0.000000e+00	
0.000000e+00	-4.272152e-01	1.221130e+00	5.599740e+01	-6.547490e+00	2.538477e+05	1.010185e+05	2.881836e+02	1.356660e-01	-4.321658e-01	0.000000e+00	
3.448276e-02	-4.272152e-01	1.247795e+00	5.479758e+01	-3.297274e+01	2.614448e+05	1.039224e+05	2.901324e+02	1.500964e-01	3.662026e+00	0.000000e+00	
0.000000e+00	-4.588608e-01	1.221130e+00	5.599739e+01	-6.547487e+00	2.538477e+05	1.010185e+05	2.881836e+02	1.356660e-01	-4.321657e-01	0.000000e+00	
3.448276e-02	-4.588608e-01	1.247795e+00	5.479757e+01	-3.297274e+01	2.614448e+05	1.039224e+05	2.901324e+02	1.500963e-01	3.662027e+00	0.000000e+00	
0.000000e+00	-4.905063e-01	1.221130e+00	5.599738e+01	-6.547484e+00	2.538477e+05	1.010185e+05	2.881836e+02	1.356660e-01	-4.321656e-01	0.000000e+00	
3.448276e-02	-4.905063e-01	1.247795e+00	5.479755e+01	-3.297274e+01	2.614448e+05	1.039224e+05	2.901324e+02	1.500963e-01	3.662027e+00	0.000000e+00	
0.000000e+00	-5.221519e-01	1.221130e+00	5.599737e+01	-6.547483e+00	2.538477e+05	1.010185e+05	2.881836e+02	1.356660e-01	-4.321654e-01	0.000000e+00	
3.448276e-02	-5.221519e-01	1.247795e+00	5.479755e+01	-3.297274e+01	2.614448e+05	1.039224e+05	2.901324e+02	1.500963e-01	3.662028e+00	0.000000e+00	
0.000000e+00	-5.537975e-01	1.221130e+00	5.599737e+01	-6.547483e+00	2.538477e+05	1.010185e+05	2.881836e+02	1.356659e-01	-4.321653e-01	0.000000e+00	
3.448276e-02	-5.537975e-01	1.247795e+00	5.479754e+01	-3.297275e+01	2.614448e+05	1.039224e+05	2.901324e+02	1.500963e-01	3.662028e+00	0.000000e+00	
0.000000e+00	-5.854430e-01	1.221130e+00	5.599736e+01	-6.547485e+00	2.538477e+05	1.010185e+05	2.881836e+02	1.356659e-01	-4.321653e-01	0.000000e+00	
3.448276e-02	-5.854430e-01	1.247795e+00	5.479753e+01	-3.297275e+01	2.614448e+05	1.039224e+05	2.901324e+02	1.500963e-01	3.662028e+00	0.000000e+00	
0.000000e+00	-6.170886e-01	1.221130e+00	5.599736e+01	-6.547487e+00	2.538477e+05	1.010185e+05	2.881836e+02	1.356659e-01	-4.321653e-01	0.000000e+00	
3.448276e-02	-6.170886e-01	1.247795e+00	5.479753e+01	-3.297276e+01	2.614448e+05	1.039224e+05	2.901324e+02	1.500963e-01	3.662028e+00	0.000000e+00	
0.000000e+00	-6.487342e-01	1.221130e+00	5.599735e+01	-6.547491e+00	2.538477e+05	1.010185e+05	2.881836e+02	1.356659e-01	-4.321653e-01	0.000000e+00	
3.448276e-02	-6.487342e-01	1.247795e+00	5.479752e+01	-3.297276e+01	2.614448e+05	1.039224e+05	2.901324e+02	1.500963e-01	3.662027e+00	0.000000e+00	
0.000000e+00	-6.803797e-01	1.221130e+00	5.599736e+01	-6.547495e+00	2.538477e+05	1.010185e+05	2.881836e+02	1.356659e-01	-4.321654e-01	0.000000e+00	
3.448276e-02	-6.803797e-01	1.247795e+00	5.479752e+01	-3.297277e+01	2.614448e+05	1.039224e+05	2.901324e+02	1.500963e-01	3.662027e+00	0.000000e+00	
0.000000e+00	-7.120253e-01	1.221130e+00	5.599736e+01	-6.547499e+00	2.538477e+05	1.010185e+05	2.881836e+02	1.356659e-01	-4.321655e-01	0.000000e+00	
3.448276e-02	-7.120253e-01	1.247795e+00	5.479753e+01	-3.297278e+01	2.614448e+05	1.039224e+05	2.901324e+02	1.500963e-01	3.662026e+00	0.000000e+00	
0.000000e+00	-7.436709e-01	1.221130e+00	5.599737e+01	-6.547502e+00	2.538477e+05	1.010185e+05	2.881836e+02	1.356660e-01	-4.321656e-01	0.000000e+00	
3.448276e-02	-7.436709e-01	1.247795e+00	5.479754e+01	-3.297278e+01	2.614448e+05	1.039224e+05	2.901324e+02	1.500963e-01	3.662025e+00	0.000000e+00	
0.000000e+00	-7.753165e-01	1.221130e+00	5.599738e+01	-6.547503e+00	2.538477e+05	1.010185e+05	2.881836e+02	1.356660e-01	-4.321658e-01	0.000000e+00	
3.448276e-02	-7.753165e-01	1.247795e+00	5.479755e+01	-3.297279e+01	2.614448e+05	1.039224e+05	2.901324e+02	1.500964e-01	3.662023e+00	0.000000e+00	
0.000000e+00	-8.069620e-01	1.221130e+00	5.599741e+01	-6.547499e+00	2.538477e+05	1.010185e+05	2.881836e+02	1.356661e-01	-4.321660e-01	0.000000e+00	
3.448276e-02	-8.069620e-01	1.247795e+00	5.479758e+01	-3.297279e+01	2.614448e+05	1.039224e+05	2.901324e+02	1.500964e-01	3.662021e+00	0.000000e+00	
0.000000e+00	-8.386076e-01	1.221130e+00	5.599745e+01	-6.547493e+00	2.538477e+05	1.010185e+05	2.881836e+02	1.356662e-01	-4.321661e-01	0.000000e+00	
3.448276e-02	-8.386076e-01	1.247795e+00	5.479762e+01	-3.297280e+01	2.614448e+05	1.039224e+05	2.901324e+02	1.500965e-01	3.662018e+00	0.000000e+00	
0.000000e+00	-8.702532e-01	1.221130e+00	5.599753e+01	-6.547489e+00	2.538477e+05	1.010185e+05	2.881836e+02	1.356663e-01	-4.321663e-01	0.000000e+00	
3.448276e-02	-8.702532e-01	1.247795e+00	5.479768e+01	-3.297281e+01	2.614448e+05	1.039224e+05	2.901323e+02	1.500967e-01	3.662013e+00	0.000000e+00	
0.000000e+00	-9.018987e-01	1.221130e+00	5.599763e+01	-6.547499e+00	2.538477e+05	1.010185e+05	2.881836e+02	1.356666e-01	-4.321666e-01	0.000000e+00	
3.448276e-02	-9.018987e-01	1.247795e+00	5.479775e+01	-3.297285e+01	2.614448e+05	1.039224e+05	2.901323e+02	1.500969e-01	3.662005e+00	0.000000e+00	
0.000000e+00	-9.335443e-01	1.221130e+00	5.599774e+01	-6.547531e+00	2.538477e+05	1.010185e+05	2.881836e+02	1.356669e-01	-4.321683e-01	0.000000e+00	
3.448276e-02	-9.335443e-01	1.247795e+00	5.479782e+01	-3.297291e+01	2.614448e+05	1.039224e+05	2.901323e+02	1.500971e-01	3.661991e+00	0.000000e+00	
0.000000e+00	-9.651899e-01	1.221130e+00	5.599779e+01	-6.547591e+00	2.538477e+05	1.010185e+05	2.881836e+02	1.356670e-01	-4.321704e-01	0.000000e+00	
3.448276e-02	-9.651899e-01	1.247795e+00	5.479783e+01	-3.297301e+01	2.614448e+05	1.039223e+05	2.901323e+02	1.500973e-01	3.661974e+00	0.000000e+00	
0.000000e+00	-9.968354e-01	1.221130e+00	5.599772e+01	-6.547649e+00	2.538477e+05	1.010185e+05	2.881836e+02	1.356668e-01	-4.321744e-01	0.000000e+00	
3.448276e-02	-9.968354e-01	1.247795e+00	5.479775e+01	-3.297310e+01	2.614447e+05	1.039223e+05	2.901323e+02	1.500972e-01	3.661945e+00	0.000000e+00	
0.000000e+00	-1.028481e+00	1.221130e+00	5.599749e+01	-6.547663e+00	2.538477e+05	1.010185e+05	2.881836e+02	1.356663e-01	-4.321670e-01	0.000000e+00	
3.448276e-02	-1.028481e+00	1.247794e+00	5.479754e+01	-3.297320e+01	2.614447e+05	1.039223e+05	2.901323e+02	1.500969e-01	3.661922e+00	0.000000e+00	
0.000000e+00	-1.060127e+00	1.221130e+00	5.599734e+01	-6.547519e+00	2.538477e+05	1.010185e+05	2.881836e+02	1.356659e-01	-4.321477e-01	0.000000e+00	
3.448276e-02	-1.060127e+00	1.247794e+00	5.479738e+01	-3.297319e+01	2.614446e+05	1.039223e+05	2.901323e+02	1.500966e-01	3.661876e+00	0.000000e+00	
0.000000e+00	-1.091772e+00	1.221131e+00	5.599779e+01	-6.547238e+00	2.538478e+05	1.010185e+05	2.881836e+02	1.356668e-01	-4.320801e-01	0.000000e+00	
3.448276e-02	-1.091772e+00	1.247794e+00	5.479754e+01	-3.297332e+01	2.614446e+05	1.039223e+05	2.901323e+02	1.500971e-01	3.661856e+00	0.000000e+00	
0.000000e+00	-1.123418e+00	1.221131e+00	5.599965e+01	-6.546865e+00	2.538480e+05	1.010185e+05	2.881835e+02	1.356711e-01	-4.320633e-01	0.000000e+00	
3.448276e-02	-1.123418e+00	1.247793e+00	5.479831e+01	-3.297350e+01	2.614443e+05	1.039222e+05	2.901322e+02	1.500991e-01	3.661702e+00	0.000000e+00	
0.000000e+00	-1.155063e+00	1.221132e+00	5.600232e+01	-6.547801e+00	2.538481e+05	1.010186e+05	2.881834e+02	1.356777e-01	-4.320370e-01	0.000000e+00	
3.448276e-02	-1.155063e+00	1.247793e+00	5.479837e+01	-3.297502e+01	2.614442e+05	1.039221e+05	2.901321e+02	1.501011e-01	3.661593e+00	0.000000e+00	
0.000000e+00	-1.186709e+00	1.221125e+00	5.600332e+01	-6.551424e+00	2.538472e+05	1.010182e+05	2.881838e+02	1.356817e-01	-4.325889e-01	0.000000e+00	
3.448276e-02	-1.186709e+00	1.247786e+00	5.479474e+01	-3.297690e+01	2.614429e+05	1.039216e+05	2.901323e+02	1.500968e-01	3.660928e+00	0.000000e+00	
0.000000e+00	-1.218354e+00	1.221098e+00	5.599378e+01	-6.560382e+00	2.538431e+05	1.010167e+05	2.881859e+02	1.356640e-01	-4.347051e-01	0.000000e+00	
3.448276e-02	-1.218354e+00	1.247789e+00	5.478686e+01	-3.298455e+01	2.614440e+05	1.039221e+05	2.901329e+02	1.500897e-01	3.661634e+00	0.000000e+00	
6.896552e-02	1.218354e+00	1.257366e+00	5.536391e+01	-5.283682e+01	2.651106e+05	1.051126e+05	2.912215e+02	1.779145e-01	5.340144e+00	0.000000e+00	
6.896552e-02	1.250000e+00	1.257394e+00	5.535532e+01	-5.283064e+01	2.651156e+05	1.051149e+05	2.912214e+02	1.778862e-01	5.343332e+00	0.000000e+00	
6.896552e-02	1.186709e+00	1.257367e+00	5.536919e+01	-5.283679e+01	2.651111e+05	1.051127e+05	2.912217e+02	1.779232e-01	5.340297e+00	0.000000e+00	
6.896552e-02	1.155063e+00	1.257366e+00	5.537244e+01	-5.283760e+01	2.651109e+05	1.051126e+05	2.912215e+02	1.779301e-01	5.340096e+00	0.000000e+00	
6.896552e-02	1.123418e+00	1.257365e+00	5.537385e+01	-5.283824e+01	2.651108e+05	1.051125e+05	2.912213e+02	1.779336e-01	5.339949e+00	0.000000e+00	
6.896552e-02	1.091772e+00	1.257365e+00	5.537432e+01	-5.283852e+01	2.651107e+05	1.051124e+05	2.912212e+02	1.779349e-01	5.339869e+00	0.000000e+00	
6.896552e-02	1.060127e+00	1.257365e+00	5.537443e+01	-5.283857e+01	2.651106e+05	1.051124e+05	2.912211e+02	1.779352e-01	5.339829e+00	0.000000e+00	
6.896552e-02	1.028481e+00	1.257365e+00	5.537449e+01	-5.283855e+01	2.651106e+05	1.051124e+05	2.912211e+02	1.779353e-01	5.339810e+00	0.000000e+00	
6.896552e-02	9.968354e-01	1.257365e+00	5.537456e+01	-5.283854e+01	2.651105e+05	1.051124e+05	2.912211e+02	1.779354e-01	5.339800e+00	0.000000e+00	
6.896552e-02	9.651899e-01	1.257365e+00	5.537461e+01	-5.283856e+01	2.651105e+05	1.051124e+05	2.912211e+02	1.779355e-01	5.339793e+00	0.000000e+00	
6.896552e-02	9.335443e-01	1.257365e+00	5.537461e+01	-5.283860e+01	2.651105e+05	1.051124e+05	2.912211e+02	1.779356e-01	5.339789e+00	0.000000e+00	
6.896552e-02	9.018987e-01	1.257365e+00	5.537458e+01	-5.283863e+01	2.651105e+05	1.051124e+05	2.912211e+02	1.779356e-01	5.339788e+00	0.000000e+00	
6.896552e-02	8.702532e-01	1.257365e+00	5.537454e+01	-5.283864e+01	2.651105e+05	1.051124e+05	2.912211e+02	1.779356e-01	5.339788e+00	0.000000e+00	
6.896552e-02	8.386076e-01	1.257365e+00	5.537450e+01	-5.283865e+01	2.651105e+05	1.051124e+05	2.912212e+02	1.779355e-01	5.339790e+00	0.000000e+00	
6.896552e-02	8.069620e-01	1.257365e+00	5.537448e+01	-5.283865e+01	2.651105e+05	1.051124e+05	2.912212e+02	1.779355e-01	5.339792e+00	0.000000e+00	
6.896552e-02	7.753165e-01	1.257365e+00	5.537447e+01	-5.283865e+01	2.651105e+05	1.051124e+05	2.912212e+02	1.779355e-01	5.339795e+00	0.000000e+00	
6.896552e-02	7.436709e-01	1.257365e+00	5.537446e+01	-5.283865e+01	2.651105e+05	1.051124e+05	2.912212e+02	1.779354e-01	5.339798e+00	0.000000e+00	
6.896552e-02	7.120253e-01	1.257365e+00	5.537446e+01	-5.283864e+01	2.651105e+05	1.051124e+05	2.912212e+02	1.779354e-01	5.339801e+00	0.000000e+00	
6.896552e-02	6.803797e-01	1.257365e+00	5.537446e+01	-5.283864e+01	2.651105e+05	1.051124e+05	2.912212e+02	1.779354e-01	5.339803e+00	0.000000e+00	
6.896552e-02	6.487342e-01	1.257365e+00	5.537446e+01	-5.283863e+01	2.651106e+05	1.051124e+05	2.912212e+02	1.779354e-01	5.339805e+00	0.000000e+00	
6.896552e-02	6.170886e-01	1.257365e+00	5.537447e+01	-5.283862e+01	2.651106e+05	1.051124e+05	2.912212e+02	1.779354e-01	5.339807e+00	0.000000e+00	
6.896552e-02	5.854430e-01	1.257365e+00	5.537447e+01	-5.283861e+01	2.651106e+05	1.051124e+05	2.912212e+02	1.779354e-01	5.339809e+00	0.000000e+00	
6.896552e-02	5.537975e-01	1.257365e+00	5.537448e+01	-5.283860e+01	2.651106e+05	1.051124e+05	2.912212e+02	1.779354e-01	5.339811e+00	0.000000e+00	
6.896552e-02	5.221519e-01	1.257365e+00	5.537449e+01	-5.283859e+01	2.651106e+05	1.051124e+05	2.912212e+02	1.779354e-01	5.339813e+00	0.000000e+00	
6.896552e-02	4.905063e-01	1.257365e+00	5.537449e+01	-5.283858e+01	2.651106e+05	1.051124e+05	2.912212e+02	1.779354e-01	5.339814e+00	0.000000e+00	
6.896552e-02	4.588608e-01	1.257365e+00	5.537450e+01	-5.283857e+01	2.651106e+05	1.051124e+05	2.912212e+02	1.779354e-01	5.339816e+00	0.000000e+00	
6.896552e-02	4.272152e-01	1.257365e+00	5.537450e+01	-5.283855e+01	2.651106e+05	1.051124e+05	2.912212e+02	1.779353e-01	5.339817e+00	0.000000e+00	
6.896552e-02	3.955696e-01	1.257365e+00	5.537451e+01	-5.283854e+01	2.651106e+05	1.051124e+05	2.912212e+02	1.779353e-01	5.339818e+00	0.000000e+00	
6.896552e-02	3.639241e-01	1.257365e+00	5.537451e+01	-5.283853e+01	2.651106e+05	1.051124e+05	2.912212e+02	1.779353e-01	5.339820e+00	0.000000e+00	
6.896552e-02	3.322785e-01	1.257365e+00	5.537451e+01	-5.283851e+01	2.651106e+05	1.051124e+05	2.912212e+02	1.779353e-01	5.339821e+00	0.000000e+00	
6.896552e-02	3.006329e-01	1.257365e+00	5.537451e+01	-5.283850e+01	2.651106e+05	1.051124e+05	2.912212e+02	1.779353e-01	5.339822e+00	0.000000e+00	
6.896552e-02	2.689873e-01	1.257365e+00	5.537451e+01	-5.283849e+01	2.651106e+05	1.051124e+05	2.912212e+02	1.779353e-01	5.339824e+00	0.000000e+00	
6.896552e-02	2.373418e-01	1.257365e+00	5.537451e+01	-5.283848e+01	2.651106e+05	1.051124e+05	2.912212e+02	1.779352e-01	5.339825e+00	0.000000e+00	
6.896552e-02	2.056962e-01	1.257365e+00	5.537451e+01	-5.283846e+01	2.651106e+05	1.051124e+05	2.912212e+02	1.779352e-01	5.339826e+00	0.000000e+00	
6.896552e-02	1.740506e-01	1.257365e+00	5.537451e+01	-5.283845e+01	2.651106e+05	1.051124e+05	2.912212e+02	1.779352e-01	5.339828e+00	0.000000e+00	
6.896552e-02	1.424051e-01	1.257365e+00	5.537450e+01	-5.283844e+01	2.651106e+05	1.051124e+05	2.912212e+02	1.779352e-01	5.339829e+00	0.000000e+00	
6.896552e-02	1.107595e-01	1.257365e+00	5.537450e+01	-5.283843e+01	2.651106e+05	1.051124e+05	2.912212e+02	1.779351e-01	5.339830e+00	0.000000e+00	
6.896552e-02	7.911392e-02	1.257365e+00	5.537449e+01	-5.283842e+01	2.651106e+05	1.051124e+05	2.912212e+02	1.779351e-01	5.339832e+00	0.000000e+00	
6.896552e-02	4.746835e-02	1.257365e+00	5.537448e+01	-5.283842e+01	2.651106e+05	1.051124e+05	2.912212e+02	1.779351e-01	5.339833e+00	0.000000e+00	
6.896552e-02	1.582278e-02	1.257365e+00	5.537447e+01	-5.283841e+01	2.651106e+05	1.051124e+05	2.912212e+02	1.779350e-01	5.339835e+00	0.000000e+00	
6.896552e-02	-1.582278e-02	1.257365e+00	5.537446e+01	-5.283840e+01	2.651106e+05	1.051124e+05	2.912212e+02	1.779350e-01	5.339836e+00	0.000000e+00	
6.896552e-02	-4.746835e-02	1.257365e+00	5.537445e+01	-5.283840e+01	2.651106e+05	1.051124e+05	2.912212e+02	1.779350e-01	5.339838e+00	0.000000e+00	
6.896552e-02	-7.911392e-02	1.257365e+00	5.537444e+01	-5.283839e+01	2.651106e+05	1.051124e+05	2.912212e+02	1.779349e-01	5.339839e+00	0.000000e+00	
6.896552e-02	-1.107595e-01	1.257365e+00	5.537442e+01	-5.283839e+01	2.651106e+05	1.051124e+05	2.912212e+02	1.779349e-01	5.339840e+00	0.000000e+00	
6.896552e-02	-1.424051e-01	1.257365e+00	5.537441e+01	-5.283838e+01	2.651106e+05	1.051124e+05	2.912212e+02	1.779349e-01	5.339842e+00	0.000000e+00	