TITLE = "Visualization of the volumetric solution"
VARIABLES = "x","y","Density","Momentum_x","Momentum_y","Energy","Pressure","Temperature","Mach","C<sub>p</sub>","Roe_Dissipation"
ZONE NODES= 3200, ELEMENTS= 3081, DATAPACKING=POINT, ZONETYPE=FEQUADRILATERAL
1.000000e+00	1.250000e+00	1.275624e+00	5.519977e+01	-1.017021e+02	2.733828e+05	1.072537e+05	2.929004e+02	2.644017e-01	8.358822e+00	0.000000e+00	
1.000000e+00	1.218354e+00	1.275624e+00	5.519987e+01	-1.017020e+02	2.733828e+05	1.072537e+05	2.929004e+02	2.644016e-01	8.358842e+00	0.000000e+00	
1.051282e+00	1.218354e+00	1.275628e+00	5.519935e+01	-1.016999e+02	2.733836e+05	1.072541e+05	2.929007e+02	2.643959e-01	8.359407e+00	0.000000e+00	
1.051282e+00	1.250000e+00	1.275628e+00	5.519926e+01	-1.017001e+02	2.733836e+05	1.072541e+05	2.929007e+02	2.643961e-01	8.359375e+00	0.000000e+00	
1.000000e+00	1.186709e+00	1.275624e+00	5.519987e+01	-1.017019e+02	2.733828e+05	1.072537e+05	2.929004e+02	2.644014e-01	8.358846e+00	0.000000e+00	
1.051282e+00	1.186709e+00	1.275628e+00	5.519935e+01	-1.016999e+02	2.733836e+05	1.072541e+05	2.929007e+02	2.643958e-01	8.359404e+00	0.000000e+00	
1.000000e+00	1.155063e+00	1.275624e+00	5.519984e+01	-1.017018e+02	2.733828e+05	1.072537e+05	2.929004e+02	2.644012e-01	8.358851e+00	0.000000e+00	
1.051282e+00	1.155063e+00	1.275628e+00	5.519932e+01	-1.016998e+02	2.733836e+05	1.072541e+05	2.929007e+02	2.643956e-01	8.359411e+00	0.000000e+00	
1.000000e+00	1.123418e+00	1.275624e+00	5.519981e+01	-1.017018e+02	2.733828e+05	1.072537e+05	2.929005e+02	2.644010e-01	8.358856e+00	0.000000e+00	
1.051282e+00	1.123418e+00	1.275628e+00	5.519929e+01	-1.016997e+02	2.733836e+05	1.072541e+05	2.929007e+02	2.643954e-01	8.359417e+00	0.000000e+00	
1.000000e+00	1.091772e+00	1.275624e+00	5.519978e+01	-1.017017e+02	2.733828e+05	1.072537e+05	2.929005e+02	2.644008e-01	8.358862e+00	0.000000e+00	
1.051282e+00	1.091772e+00	1.275628e+00	5.519925e+01	-1.016996e+02	2.733836e+05	1.072541e+05	2.929007e+02	2.643952e-01	8.359424e+00	0.000000e+00	
1.000000e+00	1.060127e+00	1.275624e+00	5.519976e+01	-1.017016e+02	2.733828e+05	1.072537e+05	2.929005e+02	2.644006e-01	8.358869e+00	0.000000e+00	
1.051282e+00	1.060127e+00	1.275628e+00	5.519921e+01	-1.016995e+02	2.733836e+05	1.072541e+05	2.929007e+02	2.643949e-01	8.359430e+00	0.000000e+00	
1.000000e+00	1.028481e+00	1.275624e+00	5.519974e+01	-1.017016e+02	2.733829e+05	1.072537e+05	2.929005e+02	2.644005e-01	8.358875e+00	0.000000e+00	
1.051282e+00	1.028481e+00	1.275628e+00	5.519917e+01	-1.016995e+02	2.733836e+05	1.072541e+05	2.929007e+02	2.643948e-01	8.359436e+00	0.000000e+00	
1.000000e+00	9.968354e-01	1.275624e+00	5.519973e+01	-1.017015e+02	2.733829e+05	1.072537e+05	2.929005e+02	2.644004e-01	8.358882e+00	0.000000e+00	
1.051282e+00	9.968354e-01	1.275628e+00	5.519914e+01	-1.016994e+02	2.733836e+05	1.072541e+05	2.929007e+02	2.643946e-01	8.359442e+00	0.000000e+00	
1.000000e+00	9.651899e-01	1.275624e+00	5.519972e+01	-1.017015e+02	2.733829e+05	1.072538e+05	2.929005e+02	2.644003e-01	8.358889e+00	0.000000e+00	
1.051282e+00	9.651899e-01	1.275628e+00	5.519911e+01	-1.016993e+02	2.733836e+05	1.072541e+05	2.929007e+02	2.643944e-01	8.359448e+00	0.000000e+00	
1.000000e+00	9.335443e-01	1.275624e+00	5.519971e+01	-1.017015e+02	2.733829e+05	1.072538e+05	2.929005e+02	2.644003e-01	8.358896e+00	0.000000e+00	
1.051282e+00	9.335443e-01	1.275628e+00	5.519909e+01	-1.016993e+02	2.733837e+05	1.072542e+05	2.929007e+02	2.643943e-01	8.359454e+00	0.000000e+00	
1.000000e+00	9.018987e-01	1.275624e+00	5.519971e+01	-1.017015e+02	2.733829e+05	1.072538e+05	2.929005e+02	2.644002e-01	8.358903e+00	0.000000e+00	
1.051282e+00	9.018987e-01	1.275628e+00	5.519906e+01	-1.016993e+02	2.733837e+05	1.072542e+05	2.929007e+02	2.643942e-01	8.359459e+00	0.000000e+00	
1.000000e+00	8.702532e-01	1.275624e+00	5.519970e+01	-1.017015e+02	2.733829e+05	1.072538e+05	2.929005e+02	2.644002e-01	8.358909e+00	0.000000e+00	
1.051282e+00	8.702532e-01	1.275628e+00	5.519905e+01	-1.016992e+02	2.733837e+05	1.072542e+05	2.929007e+02	2.643941e-01	8.359465e+00	0.000000e+00	
1.000000e+00	8.386076e-01	1.275624e+00	5.519970e+01	-1.017015e+02	2.733829e+05	1.072538e+05	2.929005e+02	2.644002e-01	8.358916e+00	0.000000e+00	
1.051282e+00	8.386076e-01	1.275628e+00	5.519903e+01	-1.016992e+02	2.733837e+05	1.072542e+05	2.929007e+02	2.643941e-01	8.359470e+00	0.000000e+00	
1.000000e+00	8.069620e-01	1.275624e+00	5.519969e+01	-1.017015e+02	2.733829e+05	1.072538e+05	2.929005e+02	2.644002e-01	8.358922e+00	0.000000e+00	
1.051282e+00	8.069620e-01	1.275628e+00	5.519902e+01	-1.016992e+02	2.733837e+05	1.072542e+05	2.929007e+02	2.643940e-01	8.359475e+00	0.000000e+00	
1.000000e+00	7.753165e-01	1.275625e+00	5.519969e+01	-1.017015e+02	2.733829e+05	1.072538e+05	2.929005e+02	2.644002e-01	8.358927e+00	0.000000e+00	
1.051282e+00	7.753165e-01	1.275628e+00	5.519900e+01	-1.016992e+02	2.733837e+05	1.072542e+05	2.929007e+02	2.643940e-01	8.359480e+00	0.000000e+00	
1.000000e+00	7.436709e-01	1.275625e+00	5.519968e+01	-1.017015e+02	2.733829e+05	1.072538e+05	2.929005e+02	2.644003e-01	8.358933e+00	0.000000e+00	
1.051282e+00	7.436709e-01	1.275628e+00	5.519899e+01	-1.016992e+02	2.733837e+05	1.072542e+05	2.929007e+02	2.643940e-01	8.359484e+00	0.000000e+00	
1.000000e+00	7.120253e-01	1.275625e+00	5.519967e+01	-1.017016e+02	2.733830e+05	1.072538e+05	2.929005e+02	2.644003e-01	8.358938e+00	0.000000e+00	
1.051282e+00	7.120253e-01	1.275628e+00	5.519898e+01	-1.016992e+02	2.733837e+05	1.072542e+05	2.929007e+02	2.643940e-01	8.359488e+00	0.000000e+00	
1.000000e+00	6.803797e-01	1.275625e+00	5.519966e+01	-1.017016e+02	2.733830e+05	1.072538e+05	2.929005e+02	2.644003e-01	8.358942e+00	0.000000e+00	
1.051282e+00	6.803797e-01	1.275628e+00	5.519896e+01	-1.016993e+02	2.733837e+05	1.072542e+05	2.929007e+02	2.643940e-01	8.359492e+00	0.000000e+00	
1.000000e+00	6.487342e-01	1.275625e+00	5.519964e+01	-1.017016e+02	2.733830e+05	1.072538e+05	2.929005e+02	2.644004e-01	8.358947e+00	0.000000e+00	
1.051282e+00	6.487342e-01	1.275628e+00	5.519895e+01	-1.016993e+02	2.733837e+05	1.072542e+05	2.929007e+02	2.643941e-01	8.359496e+00	0.000000e+00	
1.000000e+00	6.170886e-01	1.275625e+00	5.519963e+01	-1.017016e+02	2.733830e+05	1.072538e+05	2.929005e+02	2.644004e-01	8.358951e+00	0.000000e+00	
1.051282e+00	6.170886e-01	1.275628e+00	5.519893e+01	-1.016993e+02	2.733837e+05	1.072542e+05	2.929007e+02	2.643941e-01	8.359500e+00	0.000000e+00	
1.000000e+00	5.854430e-01	1.275625e+00	5.519961e+01	-1.017017e+02	2.733830e+05	1.072538e+05	2.929005e+02	2.644004e-01	8.358955e+00	0.000000e+00	
1.051282e+00	5.854430e-01	1.275628e+00	5.519891e+01	-1.016993e+02	2.733837e+05	1.072542e+05	2.929007e+02	2.643941e-01	8.359503e+00	0.000000e+00	
1.000000e+00	5.537975e-01	1.275625e+00	5.519959e+01	-1.017017e+02	2.733830e+05	1.072538e+05	2.929005e+02	2.644004e-01	8.358958e+00	0.000000e+00	
1.051282e+00	5.537975e-01	1.275628e+00	5.519889e+01	-1.016994e+02	2.733837e+05	1.072542e+05	2.929007e+02	2.643942e-01	8.359507e+00	0.000000e+00	
1.000000e+00	5.221519e-01	1.275625e+00	5.519957e+01	-1.017017e+02	2.733830e+05	1.072538e+05	2.929005e+02	2.644005e-01	8.358962e+00	0.000000e+00	
1.051282e+00	5.221519e-01	1.275628e+00	5.519887e+01	-1.016994e+02	2.733837e+05	1.072542e+05	2.929007e+02	2.643942e-01	8.359510e+00	0.000000e+00	
1.000000e+00	4.905063e-01	1.275625e+00	5.519955e+01	-1.017017e+02	2.733830e+05	1.072538e+05	2.929005e+02	2.644005e-01	8.358965e+00	0.000000e+00	
1.051282e+00	4.905063e-01	1.275628e+00	5.519884e+01	-1.016994e+02	2.733838e+05	1.072542e+05	2.929007e+02	2.643942e-01	8.359513e+00	0.000000e+00	
1.000000e+00	4.588608e-01	1.275625e+00	5.519952e+01	-1.017018e+02	2.733830e+05	1.072538e+05	2.929005e+02	2.644005e-01	8.358968e+00	0.000000e+00	
1.051282e+00	4.588608e-01	1.275628e+00	5.519882e+01	-1.016995e+02	2.733838e+05	1.072542e+05	2.929007e+02	2.643943e-01	8.359515e+00	0.000000e+00	
1.000000e+00	4.272152e-01	1.275625e+00	5.519950e+01	-1.017018e+02	2.733830e+05	1.072538e+05	2.929005e+02	2.644005e-01	8.358971e+00	0.000000e+00	
1.051282e+00	4.272152e-01	1.275628e+00	5.519879e+01	-1.016995e+02	2.733838e+05	1.072542e+05	2.929007e+02	2.643943e-01	8.359518e+00	0.000000e+00	
1.000000e+00	3.955696e-01	1.275625e+00	5.519947e+01	-1.017018e+02	2.733830e+05	1.072538e+05	2.929005e+02	2.644006e-01	8.358973e+00	0.000000e+00	
1.051282e+00	3.955696e-01	1.275628e+00	5.519877e+01	-1.016995e+02	2.733838e+05	1.072542e+05	2.929007e+02	2.643943e-01	8.359520e+00	0.000000e+00	
1.000000e+00	3.639241e-01	1.275625e+00	5.519944e+01	-1.017019e+02	2.733830e+05	1.072538e+05	2.929005e+02	2.644006e-01	8.358976e+00	0.000000e+00	
1.051282e+00	3.639241e-01	1.275628e+00	5.519874e+01	-1.016996e+02	2.733838e+05	1.072542e+05	2.929007e+02	2.643944e-01	8.359522e+00	0.000000e+00	
1.000000e+00	3.322785e-01	1.275625e+00	5.519942e+01	-1.017019e+02	2.733830e+05	1.072538e+05	2.929005e+02	2.644006e-01	8.358978e+00	0.000000e+00	
1.051282e+00	3.322785e-01	1.275628e+00	5.519871e+01	-1.016996e+02	2.733838e+05	1.072542e+05	2.929007e+02	2.643944e-01	8.359525e+00	0.000000e+00	
1.000000e+00	3.006329e-01	1.275625e+00	5.519939e+01	-1.017019e+02	2.733830e+05	1.072538e+05	2.929005e+02	2.644006e-01	8.358980e+00	0.000000e+00	
1.051282e+00	3.006329e-01	1.275628e+00	5.519869e+01	-1.016996e+02	2.733838e+05	1.072542e+05	2.929007e+02	2.643945e-01	8.359526e+00	0.000000e+00	
1.000000e+00	2.689873e-01	1.275625e+00	5.519936e+01	-1.017019e+02	2.733830e+05	1.072538e+05	2.929005e+02	2.644007e-01	8.358982e+00	0.000000e+00	
1.051282e+00	2.689873e-01	1.275628e+00	5.519866e+01	-1.016997e+02	2.733838e+05	1.072542e+05	2.929008e+02	2.643945e-01	8.359528e+00	0.000000e+00	
1.000000e+00	2.373418e-01	1.275625e+00	5.519933e+01	-1.017020e+02	2.733831e+05	1.072538e+05	2.929005e+02	2.644007e-01	8.358983e+00	0.000000e+00	
1.051282e+00	2.373418e-01	1.275628e+00	5.519863e+01	-1.016997e+02	2.733838e+05	1.072542e+05	2.929008e+02	2.643945e-01	8.359530e+00	0.000000e+00	
1.000000e+00	2.056962e-01	1.275625e+00	5.519931e+01	-1.017020e+02	2.733831e+05	1.072538e+05	2.929005e+02	2.644007e-01	8.358985e+00	0.000000e+00	
1.051282e+00	2.056962e-01	1.275628e+00	5.519861e+01	-1.016997e+02	2.733838e+05	1.072542e+05	2.929008e+02	2.643946e-01	8.359531e+00	0.000000e+00	
1.000000e+00	1.740506e-01	1.275625e+00	5.519928e+01	-1.017020e+02	2.733831e+05	1.072538e+05	2.929005e+02	2.644007e-01	8.358986e+00	0.000000e+00	
1.051282e+00	1.740506e-01	1.275628e+00	5.519858e+01	-1.016998e+02	2.733838e+05	1.072542e+05	2.929008e+02	2.643946e-01	8.359532e+00	0.000000e+00	
1.000000e+00	1.424051e-01	1.275625e+00	5.519925e+01	-1.017021e+02	2.733831e+05	1.072538e+05	2.929005e+02	2.644008e-01	8.358987e+00	0.000000e+00	
1.051282e+00	1.424051e-01	1.275628e+00	5.519856e+01	-1.016998e+02	2.733838e+05	1.072542e+05	2.929008e+02	2.643946e-01	8.359533e+00	0.000000e+00	
1.000000e+00	1.107595e-01	1.275625e+00	5.519923e+01	-1.017021e+02	2.733831e+05	1.072538e+05	2.929005e+02	2.644008e-01	8.358988e+00	0.000000e+00	
1.051282e+00	1.107595e-01	1.275628e+00	5.519853e+01	-1.016998e+02	2.733838e+05	1.072542e+05	2.929008e+02	2.643947e-01	8.359534e+00	0.000000e+00	
1.000000e+00	7.911392e-02	1.275625e+00	5.519920e+01	-1.017021e+02	2.733831e+05	1.072538e+05	2.929005e+02	2.644008e-01	8.358989e+00	0.000000e+00	
1.051282e+00	7.911392e-02	1.275628e+00	5.519851e+01	-1.016999e+02	2.733838e+05	1.072542e+05	2.929008e+02	2.643947e-01	8.359535e+00	0.000000e+00	
1.000000e+00	4.746835e-02	1.275625e+00	5.519918e+01	-1.017021e+02	2.733831e+05	1.072538e+05	2.929005e+02	2.644008e-01	8.358989e+00	0.000000e+00	
1.051282e+00	4.746835e-02	1.275628e+00	5.519848e+01	-1.016999e+02	2.733838e+05	1.072542e+05	2.929008e+02	2.643948e-01	8.359535e+00	0.000000e+00	
1.000000e+00	1.582278e-02	1.275625e+00	5.519915e+01	-1.017022e+02	2.733831e+05	1.072538e+05	2.929005e+02	2.644009e-01	8.358989e+00	0.000000e+00	
1.051282e+00	1.582278e-02	1.275628e+00	5.519846e+01	-1.016999e+02	2.733838e+05	1.072542e+05	2.929008e+02	2.643948e-01	8.359535e+00	0.000000e+00	
1.000000e+00	-1.582278e-02	1.275625e+00	5.519913e+01	-1.017022e+02	2.733831e+05	1.072538e+05	2.929005e+02	2.644009e-01	8.358990e+00	0.000000e+00	
1.051282e+00	-1.582278e-02	1.275628e+00	5.519844e+01	-1.017000e+02	2.733838e+05	1.072542e+05	2.929008e+02	2.643948e-01	8.359536e+00	0.000000e+00	
1.000000e+00	-4.746835e-02	1.275625e+00	5.519911e+01	-1.017022e+02	2.733831e+05	1.072538e+05	2.929005e+02	2.644009e-01	8.358989e+00	0.000000e+00	
1.051282e+00	-4.746835e-02	1.275628e+00	5.519842e+01	-1.017000e+02	2.733838e+05	1.072542e+05	2.929008e+02	2.643949e-01	8.359535e+00	0.000000e+00	
1.000000e+00	-7.911392e-02	1.275625e+00	5.519908e+01	-1.017022e+02	2.733831e+05	1.072538e+05	2.929005e+02	2.644009e-01	8.358989e+00	0.000000e+00	
1.051282e+00	-7.911392e-02	1.275628e+00	5.519840e+01	-1.017000e+02	2.733838e+05	1.072542e+05	2.929008e+02	2.643949e-01	8.359535e+00	0.000000e+00	
1.000000e+00	-1.107595e-01	1.275625e+00	5.519906e+01	-1.017023e+02	2.733831e+05	1.072538e+05	2.929005e+02	2.644010e-01	8.358989e+00	0.000000e+00	
1.051282e+00	-1.107595e-01	1.275628e+00	5.519838e+01	-1.017000e+02	2.733838e+05	1.072542e+05	2.929008e+02	2.643949e-01	8.359535e+00	0.000000e+00	
1.000000e+00	-1.424051e-01	1.275625e+00	5.519904e+01	-1.017023e+02	2.733831e+05	1.072538e+05	2.929005e+02	2.644010e-01	8.358988e+00	0.000000e+00	
1.051282e+00	-1.424051e-01	1.275628e+00	5.519836e+01	-1.017001e+02	2.733838e+05	1.072542e+05	2.929008e+02	2.643950e-01	8.359534e+00	0.000000e+00	
1.000000e+00	-1.740506e-01	1.275625e+00	5.519902e+01	-1.017023e+02	2.733831e+05	1.072538e+05	2.929006e+02	2.644010e-01	8.358987e+00	0.000000e+00	
1.051282e+00	-1.740506e-01	1.275628e+00	5.519834e+01	-1.017001e+02	2.733838e+05	1.072542e+05	2.929008e+02	2.643950e-01	8.359533e+00	0.000000e+00	
1.000000e+00	-2.056962e-01	1.275625e+00	5.519900e+01	-1.017023e+02	2.733831e+05	1.072538e+05	2.929006e+02	2.644010e-01	8.358986e+00	0.000000e+00	
1.051282e+00	-2.056962e-01	1.275628e+00	5.519833e+01	-1.017001e+02	2.733838e+05	1.072542e+05	2.929008e+02	2.643950e-01	8.359532e+00	0.000000e+00	
1.000000e+00	-2.373418e-01	1.275625e+00	5.519898e+01	-1.017023e+02	2.733831e+05	1.072538e+05	2.929006e+02	2.644010e-01	8.358984e+00	0.000000e+00	
1.051282e+00	-2.373418e-01	1.275628e+00	5.519831e+01	-1.017001e+02	2.733838e+05	1.072542e+05	2.929008e+02	2.643950e-01	8.359530e+00	0.000000e+00	
1.000000e+00	-2.689873e-01	1.275624e+00	5.519897e+01	-1.017023e+02	2.733831e+05	1.072538e+05	2.929006e+02	2.644010e-01	8.358983e+00	0.000000e+00	
1.051282e+00	-2.689873e-01	1.275628e+00	5.519830e+01	-1.017001e+02	2.733838e+05	1.072542e+05	2.929008e+02	2.643951e-01	8.359529e+00	0.000000e+00	
1.000000e+00	-3.006329e-01	1.275624e+00	5.519895e+01	-1.017023e+02	2.733831e+05	1.072538e+05	2.929006e+02	2.644010e-01	8.358981e+00	0.000000e+00	
1.051282e+00	-3.006329e-01	1.275628e+00	5.519828e+01	-1.017002e+02	2.733838e+05	1.072542e+05	2.929008e+02	2.643951e-01	8.359527e+00	0.000000e+00	
1.000000e+00	-3.322785e-01	1.275624e+00	5.519894e+01	-1.017023e+02	2.733831e+05	1.072538e+05	2.929006e+02	2.644011e-01	8.358979e+00	0.000000e+00	
1.051282e+00	-3.322785e-01	1.275628e+00	5.519827e+01	-1.017002e+02	2.733838e+05	1.072542e+05	2.929008e+02	2.643951e-01	8.359525e+00	0.000000e+00	
1.000000e+00	-3.639241e-01	1.275624e+00	5.519892e+01	-1.017023e+02	2.733831e+05	1.072538e+05	2.929007e+02	2.644011e-01	8.358976e+00	0.000000e+00	
1.051282e+00	-3.639241e-01	1.275628e+00	5.519826e+01	-1.017002e+02	2.733838e+05	1.072542e+05	2.929008e+02	2.643951e-01	8.359523e+00	0.000000e+00	
1.000000e+00	-3.955696e-01	1.275624e+00	5.519891e+01	-1.017024e+02	2.733831e+05	1.072538e+05	2.929007e+02	2.644011e-01	8.358974e+00	0.000000e+00	
1.051282e+00	-3.955696e-01	1.275628e+00	5.519825e+01	-1.017002e+02	2.733838e+05	1.072542e+05	2.929009e+02	2.643952e-01	8.359520e+00	0.000000e+00	
1.000000e+00	-4.272152e-01	1.275624e+00	5.519891e+01	-1.017024e+02	2.733830e+05	1.072538e+05	2.929007e+02	2.644011e-01	8.358971e+00	0.000000e+00	
1.051282e+00	-4.272152e-01	1.275628e+00	5.519825e+01	-1.017002e+02	2.733838e+05	1.072542e+05	2.929009e+02	2.643952e-01	8.359518e+00	0.000000e+00	
1.000000e+00	-4.588608e-01	1.275624e+00	5.519890e+01	-1.017024e+02	2.733830e+05	1.072538e+05	2.929007e+02	2.644011e-01	8.358968e+00	0.000000e+00	
1.051282e+00	-4.588608e-01	1.275628e+00	5.519824e+01	-1.017002e+02	2.733838e+05	1.072542e+05	2.929009e+02	2.643952e-01	8.359515e+00	0.000000e+00	
1.000000e+00	-4.905063e-01	1.275624e+00	5.519890e+01	-1.017024e+02	2.733830e+05	1.072538e+05	2.929007e+02	2.644011e-01	8.358965e+00	0.000000e+00	
1.051282e+00	-4.905063e-01	1.275628e+00	5.519824e+01	-1.017002e+02	2.733838e+05	1.072542e+05	2.929009e+02	2.643952e-01	8.359512e+00	0.000000e+00	
1.000000e+00	-5.221519e-01	1.275624e+00	5.519890e+01	-1.017024e+02	2.733830e+05	1.072538e+05	2.929007e+02	2.644012e-01	8.358961e+00	0.000000e+00	
1.051282e+00	-5.221519e-01	1.275628e+00	5.519824e+01	-1.017002e+02	2.733838e+05	1.072542e+05	2.929009e+02	2.643953e-01	8.359509e+00	0.000000e+00	
1.000000e+00	-5.537975e-01	1.275624e+00	5.519890e+01	-1.017024e+02	2.733830e+05	1.072538e+05	2.929007e+02	2.644012e-01	8.358957e+00	0.000000e+00	
1.051282e+00	-5.537975e-01	1.275628e+00	5.519824e+01	-1.017002e+02	2.733838e+05	1.072542e+05	2.929009e+02	2.643953e-01	8.359505e+00	0.000000e+00	
1.000000e+00	-5.854430e-01	1.275624e+00	5.519890e+01	-1.017024e+02	2.733830e+05	1.072538e+05	2.929007e+02	2.644012e-01	8.358953e+00	0.000000e+00	
1.051282e+00	-5.854430e-01	1.275628e+00	5.519824e+01	-1.017002e+02	2.733838e+05	1.072542e+05	2.929009e+02	2.643953e-01	8.359501e+00	0.000000e+00	
1.000000e+00	-6.170886e-01	1.275624e+00	5.519890e+01	-1.017024e+02	2.733830e+05	1.072538e+05	2.929006e+02	2.644012e-01	8.358949e+00	0.000000e+00	
1.051282e+00	-6.170886e-01	1.275628e+00	5.519824e+01	-1.017003e+02	2.733838e+05	1.072542e+05	2.929009e+02	2.643953e-01	8.359498e+00	0.000000e+00	
1.000000e+00	-6.487342e-01	1.275624e+00	5.519891e+01	-1.017024e+02	2.733830e+05	1.072538e+05	2.929006e+02	2.644012e-01	8.358945e+00	0.000000e+00	
1.051282e+00	-6.487342e-01	1.275628e+00	5.519825e+01	-1.017003e+02	2.733838e+05	1.072542e+05	2.929009e+02	2.643954e-01	8.359494e+00	0.000000e+00	
1.000000e+00	-6.803797e-01	1.275624e+00	5.519892e+01	-1.017024e+02	2.733830e+05	1.072538e+05	2.929006e+02	2.644013e-01	8.358940e+00	0.000000e+00	
1.051282e+00	-6.803797e-01	1.275628e+00	5.519826e+01	-1.017003e+02	2.733838e+05	1.072542e+05	2.929009e+02	2.643954e-01	8.359489e+00	0.000000e+00	
1.000000e+00	-7.120253e-01	1.275624e+00	5.519893e+01	-1.017024e+02	2.733830e+05	1.072538e+05	2.929006e+02	2.644013e-01	8.358935e+00	0.000000e+00	
1.051282e+00	-7.120253e-01	1.275628e+00	5.519827e+01	-1.017003e+02	2.733838e+05	1.072542e+05	2.929009e+02	2.643954e-01	8.359485e+00	0.000000e+00	
1.000000e+00	-7.436709e-01	1.275624e+00	5.519894e+01	-1.017024e+02	2.733830e+05	1.072538e+05	2.929005e+02	2.644013e-01	8.358930e+00	0.000000e+00	
1.051282e+00	-7.436709e-01	1.275628e+00	5.519828e+01	-1.017003e+02	2.733837e+05	1.072542e+05	2.929008e+02	2.643954e-01	8.359480e+00	0.000000e+00	
1.000000e+00	-7.753165e-01	1.275624e+00	5.519895e+01	-1.017024e+02	2.733830e+05	1.072538e+05	2.929005e+02	2.644013e-01	8.358925e+00	0.000000e+00	
1.051282e+00	-7.753165e-01	1.275628e+00	5.519830e+01	-1.017003e+02	2.733837e+05	1.072542e+05	2.929008e+02	2.643955e-01	8.359476e+00	0.000000e+00	
1.000000e+00	-8.069620e-01	1.275624e+00	5.519896e+01	-1.017024e+02	2.733830e+05	1.072538e+05	2.929005e+02	2.644013e-01	8.358920e+00	0.000000e+00	
1.051282e+00	-8.069620e-01	1.275628e+00	5.519831e+01	-1.017003e+02	2.733837e+05	1.072542e+05	2.929008e+02	2.643955e-01	8.359471e+00	0.000000e+00	
1.000000e+00	-8.386076e-01	1.275624e+00	5.519898e+01	-1.017024e+02	2.733830e+05	1.072538e+05	2.929005e+02	2.644014e-01	8.358915e+00	0.000000e+00	
1.051282e+00	-8.386076e-01	1.275628e+00	5.519832e+01	-1.017003e+02	2.733837e+05	1.072542e+05	2.929008e+02	2.643955e-01	8.359466e+00	0.000000e+00	
1.000000e+00	-8.702532e-01	1.275624e+00	5.519899e+01	-1.017024e+02	2.733829e+05	1.072538e+05	2.929005e+02	2.644014e-01	8.358909e+00	0.000000e+00	
1.051282e+00	-8.702532e-01	1.275628e+00	5.519834e+01	-1.017003e+02	2.733837e+05	1.072542e+05	2.929008e+02	2.643955e-01	8.359462e+00	0.000000e+00	
1.000000e+00	-9.018987e-01	1.275624e+00	5.519900e+01	-1.017024e+02	2.733829e+05	1.072538e+05	2.929004e+02	2.644014e-01	8.358904e+00	0.000000e+00	
1.051282e+00	-9.018987e-01	1.275628e+00	5.519836e+01	-1.017003e+02	2.733837e+05	1.072542e+05	2.929007e+02	2.643955e-01	8.359457e+00	0.000000e+00	
1.000000e+00	-9.335443e-01	1.275624e+00	5.519901e+01	-1.017024e+02	2.733829e+05	1.072538e+05	2.929004e+02	2.644014e-01	8.358899e+00	0.000000e+00	
1.051282e+00	-9.335443e-01	1.275628e+00	5.519837e+01	-1.017003e+02	2.733837e+05	1.072542e+05	2.929007e+02	2.643955e-01	8.359452e+00	0.000000e+00	
1.000000e+00	-9.651899e-01	1.275624e+00	5.519902e+01	-1.017024e+02	2.733829e+05	1.072538e+05	2.929004e+02	2.644014e-01	8.358894e+00	0.000000e+00	
1.051282e+00	-9.651899e-01	1.275628e+00	5.519839e+01	-1.017003e+02	2.733837e+05	1.072541e+05	2.929007e+02	2.643956e-01	8.359448e+00	0.000000e+00	
1.000000e+00	-9.968354e-01	1.275624e+00	5.519904e+01	-1.017024e+02	2.733829e+05	1.072538e+05	2.929004e+02	2.644014e-01	8.358888e+00	0.000000e+00	
1.051282e+00	-9.968354e-01	1.275628e+00	5.519841e+01	-1.017003e+02	2.733837e+05	1.072541e+05	2.929007e+02	2.643956e-01	8.359442e+00	0.000000e+00	
1.000000e+00	-1.028481e+00	1.275624e+00	5.519905e+01	-1.017024e+02	2.733829e+05	1.072537e+05	2.929004e+02	2.644013e-01	8.358884e+00	0.000000e+00	
1.051282e+00	-1.028481e+00	1.275628e+00	5.519842e+01	-1.017003e+02	2.733837e+05	1.072541e+05	2.929007e+02	2.643956e-01	8.359439e+00	0.000000e+00	
1.000000e+00	-1.060127e+00	1.275624e+00	5.519906e+01	-1.017024e+02	2.733829e+05	1.072537e+05	2.929004e+02	2.644013e-01	8.358878e+00	0.000000e+00	
1.051282e+00	-1.060127e+00	1.275628e+00	5.519844e+01	-1.017002e+02	2.733837e+05	1.072541e+05	2.929007e+02	2.643955e-01	8.359433e+00	0.000000e+00	
1.000000e+00	-1.091772e+00	1.275624e+00	5.519908e+01	-1.017023e+02	2.733829e+05	1.072537e+05	2.929004e+02	2.644013e-01	8.358876e+00	0.000000e+00	
1.051282e+00	-1.091772e+00	1.275628e+00	5.519846e+01	-1.017002e+02	2.733837e+05	1.072541e+05	2.929007e+02	2.643955e-01	8.359432e+00	0.000000e+00	
1.000000e+00	-1.123418e+00	1.275624e+00	5.519911e+01	-1.017023e+02	2.733829e+05	1.072537e+05	2.929004e+02	2.644013e-01	8.358868e+00	0.000000e+00	
1.051282e+00	-1.123418e+00	1.275628e+00	5.519849e+01	-1.017002e+02	2.733836e+05	1.072541e+05	2.929007e+02	2.643955e-01	8.359422e+00	0.000000e+00	
1.000000e+00	-1.155063e+00	1.275624e+00	5.519912e+01	-1.017023e+02	2.733829e+05	1.072537e+05	2.929004e+02	2.644013e-01	8.358869e+00	0.000000e+00	
1.051282e+00	-1.155063e+00	1.275628e+00	5.519853e+01	-1.017002e+02	2.733837e+05	1.072541e+05	2.929007e+02	2.643956e-01	8.359429e+00	0.000000e+00	
1.000000e+00	-1.186709e+00	1.275624e+00	5.519905e+01	-1.017022e+02	2.733828e+05	1.072537e+05	2.929004e+02	2.644011e-01	8.358853e+00	0.000000e+00	
1.051282e+00	-1.186709e+00	1.275628e+00	5.519845e+01	-1.017001e+02	2.733836e+05	1.072541e+05	2.929007e+02	2.643953e-01	8.359404e+00	0.000000e+00	
1.000000e+00	-1.218354e+00	1.275624e+00	5.519907e+01	-1.017023e+02	2.733829e+05	1.072537e+05	2.929004e+02	2.644012e-01	8.358884e+00	0.000000e+00	
1.051282e+00	-1.218354e+00	1.275628e+00	5.519839e+01	-1.017002e+02	2.733837e+05	1.072541e+05	2.929007e+02	2.643954e-01	8.359442e+00	0.000000e+00	
1.102564e+00	1.218354e+00	1.275631e+00	5.519901e+01	-1.016981e+02	2.733843e+05	1.072545e+05	2.929009e+02	2.643912e-01	8.359886e+00	0.000000e+00	
1.102564e+00	1.250000e+00	1.275630e+00	5.519888e+01	-1.016982e+02	2.733843e+05	1.072544e+05	2.929009e+02	2.643913e-01	8.359855e+00	0.000000e+00	
1.102564e+00	1.186709e+00	1.275631e+00	5.519901e+01	-1.016981e+02	2.733843e+05	1.072545e+05	2.929009e+02	2.643911e-01	8.359878e+00	0.000000e+00	
1.102564e+00	1.155063e+00	1.275631e+00	5.519899e+01	-1.016980e+02	2.733843e+05	1.072545e+05	2.929009e+02	2.643909e-01	8.359888e+00	0.000000e+00	
1.102564e+00	1.123418e+00	1.275631e+00	5.519897e+01	-1.016979e+02	2.733843e+05	1.072545e+05	2.929009e+02	2.643908e-01	8.359892e+00	0.000000e+00	
1.102564e+00	1.091772e+00	1.275631e+00	5.519893e+01	-1.016978e+02	2.733843e+05	1.072545e+05	2.929009e+02	2.643906e-01	8.359897e+00	0.000000e+00	
1.102564e+00	1.060127e+00	1.275631e+00	5.519889e+01	-1.016978e+02	2.733843e+05	1.072545e+05	2.929010e+02	2.643904e-01	8.359903e+00	0.000000e+00	
1.102564e+00	1.028481e+00	1.275631e+00	5.519885e+01	-1.016977e+02	2.733843e+05	1.072545e+05	2.929010e+02	2.643901e-01	8.359908e+00	0.000000e+00	
1.102564e+00	9.968354e-01	1.275631e+00	5.519881e+01	-1.016976e+02	2.733843e+05	1.072545e+05	2.929010e+02	2.643899e-01	8.359914e+00	0.000000e+00	
1.102564e+00	9.651899e-01	1.275631e+00	5.519876e+01	-1.016975e+02	2.733843e+05	1.072545e+05	2.929010e+02	2.643897e-01	8.359919e+00	0.000000e+00	
1.102564e+00	9.335443e-01	1.275631e+00	5.519872e+01	-1.016975e+02	2.733843e+05	1.072545e+05	2.929010e+02	2.643895e-01	8.359924e+00	0.000000e+00	
1.102564e+00	9.018987e-01	1.275631e+00	5.519868e+01	-1.016974e+02	2.733843e+05	1.072545e+05	2.929010e+02	2.643894e-01	8.359930e+00	0.000000e+00	
1.102564e+00	8.702532e-01	1.275631e+00	5.519864e+01	-1.016974e+02	2.733843e+05	1.072545e+05	2.929010e+02	2.643892e-01	8.359935e+00	0.000000e+00	
1.102564e+00	8.386076e-01	1.275631e+00	5.519861e+01	-1.016973e+02	2.733843e+05	1.072545e+05	2.929010e+02	2.643891e-01	8.359940e+00	0.000000e+00	
1.102564e+00	8.069620e-01	1.275631e+00	5.519858e+01	-1.016973e+02	2.733843e+05	1.072545e+05	2.929010e+02	2.643890e-01	8.359945e+00	0.000000e+00	
1.102564e+00	7.753165e-01	1.275631e+00	5.519855e+01	-1.016973e+02	2.733843e+05	1.072545e+05	2.929010e+02	2.643889e-01	8.359949e+00	0.000000e+00	
1.102564e+00	7.436709e-01	1.275631e+00	5.519852e+01	-1.016973e+02	2.733843e+05	1.072545e+05	2.929010e+02	2.643889e-01	8.359954e+00	0.000000e+00	
1.102564e+00	7.120253e-01	1.275631e+00	5.519850e+01	-1.016973e+02	2.733843e+05	1.072545e+05	2.929010e+02	2.643888e-01	8.359958e+00	0.000000e+00	
1.102564e+00	6.803797e-01	1.275631e+00	5.519847e+01	-1.016973e+02	2.733844e+05	1.072545e+05	2.929010e+02	2.643888e-01	8.359962e+00	0.000000e+00	
1.102564e+00	6.487342e-01	1.275631e+00	5.519845e+01	-1.016973e+02	2.733844e+05	1.072545e+05	2.929010e+02	2.643888e-01	8.359966e+00	0.000000e+00	
1.102564e+00	6.170886e-01	1.275631e+00	5.519843e+01	-1.016973e+02	2.733844e+05	1.072545e+05	2.929010e+02	2.643888e-01	8.359969e+00	0.000000e+00	
1.102564e+00	5.854430e-01	1.275631e+00	5.519840e+01	-1.016973e+02	2.733844e+05	1.072545e+05	2.929010e+02	2.643888e-01	8.359973e+00	0.000000e+00	
1.102564e+00	5.537975e-01	1.275631e+00	5.519838e+01	-1.016973e+02	2.733844e+05	1.072545e+05	2.929010e+02	2.643888e-01	8.359976e+00	0.000000e+00	
1.102564e+00	5.221519e-01	1.275631e+00	5.519835e+01	-1.016974e+02	2.733844e+05	1.072545e+05	2.929010e+02	2.643889e-01	8.359979e+00	0.000000e+00	
1.102564e+00	4.905063e-01	1.275631e+00	5.519833e+01	-1.016974e+02	2.733844e+05	1.072545e+05	2.929010e+02	2.643889e-01	8.359982e+00	0.000000e+00	
1.102564e+00	4.588608e-01	1.275631e+00	5.519830e+01	-1.016974e+02	2.733844e+05	1.072545e+05	2.929010e+02	2.643889e-01	8.359984e+00	0.000000e+00	
1.102564e+00	4.272152e-01	1.275631e+00	5.519828e+01	-1.016975e+02	2.733844e+05	1.072545e+05	2.929010e+02	2.643890e-01	8.359987e+00	0.000000e+00	
1.102564e+00	3.955696e-01	1.275631e+00	5.519825e+01	-1.016975e+02	2.733844e+05	1.072545e+05	2.929010e+02	2.643890e-01	8.359989e+00	0.000000e+00	
1.102564e+00	3.639241e-01	1.275631e+00	5.519822e+01	-1.016976e+02	2.733844e+05	1.072545e+05	2.929010e+02	2.643891e-01	8.359991e+00	0.000000e+00	
1.102564e+00	3.322785e-01	1.275631e+00	5.519820e+01	-1.016976e+02	2.733844e+05	1.072545e+05	2.929010e+02	2.643891e-01	8.359993e+00	0.000000e+00	
1.102564e+00	3.006329e-01	1.275631e+00	5.519817e+01	-1.016976e+02	2.733844e+05	1.072545e+05	2.929010e+02	2.643892e-01	8.359995e+00	0.000000e+00	
1.102564e+00	2.689873e-01	1.275631e+00	5.519814e+01	-1.016977e+02	2.733844e+05	1.072545e+05	2.929010e+02	2.643892e-01	8.359997e+00	0.000000e+00	
1.102564e+00	2.373418e-01	1.275631e+00	5.519812e+01	-1.016977e+02	2.733844e+05	1.072545e+05	2.929010e+02	2.643893e-01	8.359998e+00	0.000000e+00	
1.102564e+00	2.056962e-01	1.275631e+00	5.519809e+01	-1.016978e+02	2.733844e+05	1.072545e+05	2.929010e+02	2.643893e-01	8.359999e+00	0.000000e+00	
1.102564e+00	1.740506e-01	1.275631e+00	5.519806e+01	-1.016978e+02	2.733844e+05	1.072545e+05	2.929010e+02	2.643894e-01	8.360001e+00	0.000000e+00	
1.102564e+00	1.424051e-01	1.275631e+00	5.519804e+01	-1.016978e+02	2.733844e+05	1.072545e+05	2.929010e+02	2.643894e-01	8.360001e+00	0.000000e+00	
1.102564e+00	1.107595e-01	1.275631e+00	5.519802e+01	-1.016979e+02	2.733845e+05	1.072545e+05	2.929010e+02	2.643895e-01	8.360002e+00	0.000000e+00	
1.102564e+00	7.911392e-02	1.275631e+00	5.519799e+01	-1.016979e+02	2.733845e+05	1.072545e+05	2.929010e+02	2.643895e-01	8.360003e+00	0.000000e+00	
1.102564e+00	4.746835e-02	1.275631e+00	5.519797e+01	-1.016979e+02	2.733845e+05	1.072545e+05	2.929010e+02	2.643896e-01	8.360003e+00	0.000000e+00	
1.102564e+00	1.582278e-02	1.275631e+00	5.519795e+01	-1.016980e+02	2.733845e+05	1.072545e+05	2.929010e+02	2.643896e-01	8.360003e+00	0.000000e+00	
1.102564e+00	-1.582278e-02	1.275631e+00	5.519793e+01	-1.016980e+02	2.733845e+05	1.072545e+05	2.929010e+02	2.643897e-01	8.360003e+00	0.000000e+00	
1.102564e+00	-4.746835e-02	1.275631e+00	5.519791e+01	-1.016980e+02	2.733845e+05	1.072545e+05	2.929010e+02	2.643897e-01	8.360003e+00	0.000000e+00	
1.102564e+00	-7.911392e-02	1.275631e+00	5.519789e+01	-1.016981e+02	2.733845e+05	1.072545e+05	2.929010e+02	2.643897e-01	8.360003e+00	0.000000e+00	
1.102564e+00	-1.107595e-01	1.275631e+00	5.519788e+01	-1.016981e+02	2.733845e+05	1.072545e+05	2.929010e+02	2.643898e-01	8.360002e+00	0.000000e+00	
1.102564e+00	-1.424051e-01	1.275631e+00	5.519786e+01	-1.016981e+02	2.733845e+05	1.072545e+05	2.929010e+02	2.643898e-01	8.360002e+00	0.000000e+00	
1.102564e+00	-1.740506e-01	1.275631e+00	5.519785e+01	-1.016982e+02	2.733845e+05	1.072545e+05	2.929010e+02	2.643899e-01	8.360001e+00	0.000000e+00	