TITLE = "SU2 Simulation"
VARIABLES = "Iteration","CL","CD","CSF","CMx","CMy","CMz","CFx","CFy","CFz","CL/CD","AoA","Custom_ObjFunc","Res_Flow[0]","Res_Flow[1]","Res_Flow[2]","Res_Flow[3]","Res_Flow[4]","Linear_Solver_Iterations","CFL_Number","Time(min)"
ZONE T= "Convergence history"
           0, 0.00000000e+00, 0.00000000e+00, 0.00000000e+00, 0.00000000e+00, 0.00000000e+00, 0.00000000e+00, 0.00000000e+00, 0.00000000e+00, 0.00000000e+00, 0.00000000e+00, 0.00000000e+00, 0.00000000e+00, -1.62443716e+01, -1.32514527e+01, -1.32295822e+01, -1.09138774e+01, 0.00000000e+00, 5.0000000000, 5.0000000000, 0.0012533000
           1, 0.00000000e+00, 0.00000000e+00, 0.00000000e+00, 0.00000000e+00, 0.00000000e+00, 0.00000000e+00, 0.00000000e+00, 0.00000000e+00, 0.00000000e+00, 0.00000000e+00, 0.00000000e+00, 0.00000000e+00, -1.59563381e+01, 2.12835088e+00, 1.64018042e+00, 3.66020904e+00, 0.00000000e+00, 5.0000000000, 5.0000000000, 0.0025482833
           2, 0.00000000e+00, 0.00000000e+00, 0.00000000e+00, 0.00000000e+00, 0.00000000e+00, 0.00000000e+00, 0.00000000e+00, 0.00000000e+00, 0.00000000e+00, 0.00000000e+00, 0.00000000e+00, 0.00000000e+00, -1.45014337e+00, 2.03500188e+00, 1.69593302e+00, 4.05518200e+00, 0.00000000e+00, 5.0000000000, 5.0000000000, 0.0037386667
           3, 0.00000000e+00, 0.00000000e+00, 0.00000000e+00, 0.00000000e+00, 0.00000000e+00, 0.00000000e+00, 0.00000000e+00, 0.00000000e+00, 0.00000000e+00, 0.00000000e+00, 0.00000000e+00, 0.00000000e+00, -1.27360071e+00, 1.93421378e+00, 1.70771764e+00, 4.20627726e+00, 0.00000000e+00, 5.0000000000, 5.0000000000, 0.0049206500
           4, 0.00000000e+00, 0.00000000e+00, 0.00000000e+00, 0.00000000e+00, 0.00000000e+00, 0.00000000e+00, 0.00000000e+00, 0.00000000e+00, 0.00000000e+00, 0.00000000e+00, 0.00000000e+00, 0.00000000e+00, -1.20996170e+00, 1.82799549e+00, 1.69603255e+00, 4.26230336e+00, 0.00000000e+00, 5.0000000000, 5.0000000000, 0.0060427500
           5, 0.00000000e+00, 0.00000000e+00, 0.00000000e+00, 0.00000000e+00, 0.00000000e+00, 0.00000000e+00, 0.00000000e+00, 0.00000000e+00, 0.00000000e+00, 0.00000000e+00, 0.00000000e+00, 0.00000000e+00, -1.18444439e+00, 1.71704334e+00, 1.67066494e+00, 4.28388483e+00, 0.00000000e+00, 5.0000000000, 5.0000000000, 0.0071823667
           6, 0.00000000e+00, 0.00000000e+00, 0.00000000e+00, 0.00000000e+00, 0.00000000e+00, 0.00000000e+00, 0.00000000e+00, 0.00000000e+00, 0.00000000e+00, 0.00000000e+00, 0.00000000e+00, 0.00000000e+00, -1.17466539e+00, 1.60069930e+00, 1.63708842e+00, 4.29124309e+00, 0.00000000e+00, 5.0000000000, 5.0000000000, 0.0083192167
           7, 0.00000000e+00, 0.00000000e+00, 0.00000000e+00, 0.00000000e+00, 0.00000000e+00, 0.00000000e+00, 0.00000000e+00, 0.00000000e+00, 0.00000000e+00, 0.00000000e+00, 0.00000000e+00, 0.00000000e+00, -1.17239644e+00, 1.47734056e+00, 1.59869661e+00, 4.29199093e+00, 0.00000000e+00, 5.0000000000, 5.0000000000, 0.0093454500
           8, 0.00000000e+00, 0.00000000e+00, 0.00000000e+00, 0.00000000e+00, 0.00000000e+00, 0.00000000e+00, 0.00000000e+00, 0.00000000e+00, 0.00000000e+00, 0.00000000e+00, 0.00000000e+00, 0.00000000e+00, -1.17449844e+00, 1.34474217e+00, 1.55774861e+00, 4.28898694e+00, 0.00000000e+00, 5.0000000000, 5.0000000000, 0.0106940500
           9, 0.00000000e+00, 0.00000000e+00, 0.00000000e+00, 0.00000000e+00, 0.00000000e+00, 0.00000000e+00, 0.00000000e+00, 0.00000000e+00, 0.00000000e+00, 0.00000000e+00, 0.00000000e+00, 0.00000000e+00, -1.17976316e+00, 1.20108082e+00, 1.51582015e+00, 4.28325427e+00, 0.00000000e+00, 5.0000000000, 5.0000000000, 0.0119566167
          10, 0.00000000e+00, 0.00000000e+00, 0.00000000e+00, 0.00000000e+00, 0.00000000e+00, 0.00000000e+00, 0.00000000e+00, 0.00000000e+00, 0.00000000e+00, 0.00000000e+00, 0.00000000e+00, 0.00000000e+00, -1.18793092e+00, 1.05029285e+00, 1.47402419e+00, 4.27491002e+00, 0.00000000e+00, 5.0000000000, 5.0000000000, 0.0131883333
          11, 0.00000000e+00, 0.00000000e+00, 0.00000000e+00, 0.00000000e+00, 0.00000000e+00, 0.00000000e+00, 0.00000000e+00, 0.00000000e+00, 0.00000000e+00, 0.00000000e+00, 0.00000000e+00, 0.00000000e+00, -1.19951300e+00, 9.22615221e-01, 1.43315545e+00, 4.26331843e+00, 0.00000000e+00, 5.0000000000, 5.0000000000, 0.0143238500
          12, 0.00000000e+00, 0.00000000e+00, 0.00000000e+00, 0.00000000e+00, 0.00000000e+00, 0.00000000e+00, 0.00000000e+00, 0.00000000e+00, 0.00000000e+00, 0.00000000e+00, 0.00000000e+00, 0.00000000e+00, -1.21572577e+00, 8.88737363e-01, 1.39376032e+00, 4.24715464e+00, 0.00000000e+00, 5.0000000000, 5.0000000000, 0.0154236667
          13, 0.00000000e+00, 0.00000000e+00, 0.00000000e+00, 0.00000000e+00, 0.00000000e+00, 0.00000000e+00, 0.00000000e+00, 0.00000000e+00, 0.00000000e+00, 0.00000000e+00, 0.00000000e+00, 0.00000000e+00, -1.23837411e+00, 9.53512076e-01, 1.35616032e+00, 4.22452016e+00, 0.00000000e+00, 5.0000000000, 5.0000000000, 0.0164474833
          14, 0.00000000e+00, 0.00000000e+00, 0.00000000e+00, 0.00000000e+00, 0.00000000e+00, 0.00000000e+00, 0.00000000e+00, 0.00000000e+00, 0.00000000e+00, 0.00000000e+00, 0.00000000e+00, 0.00000000e+00, -1.26973115e+00, 1.04418028e+00, 1.32050508e+00, 4.19305875e+00, 0.00000000e+00, 5.0000000000, 5.0000000000, 0.0174923000
          15, 0.00000000e+00, 0.00000000e+00, 0.00000000e+00, 0.00000000e+00, 0.00000000e+00, 0.00000000e+00, 0.00000000e+00, 0.00000000e+00, 0.00000000e+00, 0.00000000e+00, 0.00000000e+00, 0.00000000e+00, -1.31248365e+00, 1.12483678e+00, 1.28682719e+00, 4.15000753e+00, 0.00000000e+00, 5.0000000000, 5.0000000000, 0.0185935667
          16, 0.00000000e+00, 0.00000000e+00, 0.00000000e+00, 0.00000000e+00, 0.00000000e+00, 0.00000000e+00, 0.00000000e+00, 0.00000000e+00, 0.00000000e+00, 0.00000000e+00, 0.00000000e+00, 0.00000000e+00, -1.36983561e+00, 1.18922089e+00, 1.25510579e+00, 4.09208844e+00, 0.00000000e+00, 5.0000000000, 5.0000000000, 0.0196040167
          17, 0.00000000e+00, 0.00000000e+00, 0.00000000e+00, 0.00000000e+00, 0.00000000e+00, 0.00000000e+00, 0.00000000e+00, 0.00000000e+00, 0.00000000e+00, 0.00000000e+00, 0.00000000e+00, 0.00000000e+00, -1.44581058e+00, 1.23829836e+00, 1.22531680e+00, 4.01519324e+00, 0.00000000e+00, 5.0000000000, 5.0000000000, 0.0206732000
          18, 0.00000000e+00, 0.00000000e+00, 0.00000000e+00, 0.00000000e+00, 0.00000000e+00, 0.00000000e+00, 0.00000000e+00, 0.00000000e+00, 0.00000000e+00, 0.00000000e+00, 0.00000000e+00, 0.00000000e+00, -1.54570143e+00, 1.27400610e+00, 1.19746036e+00, 3.91393933e+00, 0.00000000e+00, 5.0000000000, 5.0000000000, 0.0217020833
          19, 0.00000000e+00, 0.00000000e+00, 0.00000000e+00, 0.00000000e+00, 0.00000000e+00, 0.00000000e+00, 0.00000000e+00, 0.00000000e+00, 0.00000000e+00, 0.00000000e+00, 0.00000000e+00, 0.00000000e+00, -1.67578170e+00, 1.29813559e+00, 1.17156502e+00, 3.78212205e+00, 0.00000000e+00, 5.0000000000, 5.0000000000, 0.0228042500
          20, 0.00000000e+00, 0.00000000e+00, 0.00000000e+00, 0.00000000e+00, 0.00000000e+00, 0.00000000e+00, 0.00000000e+00, 0.00000000e+00, 0.00000000e+00, 0.00000000e+00, 0.00000000e+00, 0.00000000e+00, -1.83488826e+00, 1.31226483e+00, 1.14766920e+00, 3.62243907e+00, 0.00000000e+00, 5.0000000000, 5.0000000000, 0.0239133000
          21, 0.00000000e+00, 0.00000000e+00, 0.00000000e+00, 0.00000000e+00, 0.00000000e+00, 0.00000000e+00, 0.00000000e+00, 0.00000000e+00, 0.00000000e+00, 0.00000000e+00, 0.00000000e+00, 0.00000000e+00, -1.96034462e+00, 1.31783889e+00, 1.12579043e+00, 3.50465001e+00, 0.00000000e+00, 5.0000000000, 5.0000000000, 0.0250034167
          22, 0.00000000e+00, 0.00000000e+00, 0.00000000e+00, 0.00000000e+00, 0.00000000e+00, 0.00000000e+00, 0.00000000e+00, 0.00000000e+00, 0.00000000e+00, 0.00000000e+00, 0.00000000e+00, 0.00000000e+00, -1.91782695e+00, 1.31622707e+00, 1.10589394e+00, 3.55704855e+00, 0.00000000e+00, 5.0000000000, 5.0000000000, 0.0261352667
          23, 0.00000000e+00, 0.00000000e+00, 0.00000000e+00, 0.00000000e+00, 0.00000000e+00, 0.00000000e+00, 0.00000000e+00, 0.00000000e+00, 0.00000000e+00, 0.00000000e+00, 0.00000000e+00, 0.00000000e+00, -1.79232578e+00, 1.30872809e+00, 1.08787294e+00, 3.68234908e+00, 0.00000000e+00, 5.0000000000, 5.0000000000, 0.0272514833
          24, 0.00000000e+00, 0.00000000e+00, 0.00000000e+00, 0.00000000e+00, 0.00000000e+00, 0.00000000e+00, 0.00000000e+00, 0.00000000e+00, 0.00000000e+00, 0.00000000e+00, 0.00000000e+00, 0.00000000e+00, -1.68537345e+00, 1.29653557e+00, 1.07154732e+00, 3.78682762e+00, 0.00000000e+00, 5.0000000000, 5.0000000000, 0.0285609833
          25, 0.00000000e+00, 0.00000000e+00, 0.00000000e+00, 0.00000000e+00, 0.00000000e+00, 0.00000000e+00, 0.00000000e+00, 0.00000000e+00, 0.00000000e+00, 0.00000000e+00, 0.00000000e+00, 0.00000000e+00, -1.60782519e+00, 1.28068464e+00, 1.05667779e+00, 3.86206081e+00, 0.00000000e+00, 5.0000000000, 5.0000000000, 0.0300164500
          26, 0.00000000e+00, 0.00000000e+00, 0.00000000e+00, 0.00000000e+00, 0.00000000e+00, 0.00000000e+00, 0.00000000e+00, 0.00000000e+00, 0.00000000e+00, 0.00000000e+00, 0.00000000e+00, 0.00000000e+00, -1.55338518e+00, 1.26200697e+00, 1.04299100e+00, 3.91444382e+00, 0.00000000e+00, 5.0000000000, 5.0000000000, 0.0314638667
          27, 0.00000000e+00, 0.00000000e+00, 0.00000000e+00, 0.00000000e+00, 0.00000000e+00, 0.00000000e+00, 0.00000000e+00, 0.00000000e+00, 0.00000000e+00, 0.00000000e+00, 0.00000000e+00, 0.00000000e+00, -1.51595610e+00, 1.24111974e+00, 1.03020642e+00, 3.94993934e+00, 0.00000000e+00, 5.0000000000, 5.0000000000, 0.0327386333
          28, 0.00000000e+00, 0.00000000e+00, 0.00000000e+00, 0.00000000e+00, 0.00000000e+00, 0.00000000e+00, 0.00000000e+00, 0.00000000e+00, 0.00000000e+00, 0.00000000e+00, 0.00000000e+00, 0.00000000e+00, -1.49109363e+00, 1.21845664e+00, 1.01805888e+00, 3.97289025e+00, 0.00000000e+00, 5.0000000000, 5.0000000000, 0.0340171833
          29, 0.00000000e+00, 0.00000000e+00, 0.00000000e+00, 0.00000000e+00, 0.00000000e+00, 0.00000000e+00, 0.00000000e+00, 0.00000000e+00, 0.00000000e+00, 0.00000000e+00, 0.00000000e+00, 0.00000000e+00, -1.47561636e+00, 1.19433128e+00, 1.00631415e+00, 3.98642526e+00, 0.00000000e+00, 5.0000000000, 5.0000000000, 0.0352691167
          30, 0.00000000e+00, 0.00000000e+00, 0.00000000e+00, 0.00000000e+00, 0.00000000e+00, 0.00000000e+00, 0.00000000e+00, 0.00000000e+00, 0.00000000e+00, 0.00000000e+00, 0.00000000e+00, 0.00000000e+00, -1.46720060e+00, 1.16900987e+00, 9.94778088e-01, 3.99285388e+00, 0.00000000e+00, 5.0000000000, 5.0000000000, 0.0365651333
          31, 0.00000000e+00, 0.00000000e+00, 0.00000000e+00, 0.00000000e+00, 0.00000000e+00, 0.00000000e+00, 0.00000000e+00, 0.00000000e+00, 0.00000000e+00, 0.00000000e+00, 0.00000000e+00, 0.00000000e+00, -1.46411016e+00, 1.14277059e+00, 9.83300758e-01, 3.99392631e+00, 0.00000000e+00, 5.0000000000, 5.0000000000, 0.0377921500
          32, 0.00000000e+00, 0.00000000e+00, 0.00000000e+00, 0.00000000e+00, 0.00000000e+00, 0.00000000e+00, 0.00000000e+00, 0.00000000e+00, 0.00000000e+00, 0.00000000e+00, 0.00000000e+00, 0.00000000e+00, -1.46502775e+00, 1.11593534e+00, 9.71776520e-01, 3.99099452e+00, 0.00000000e+00, 5.0000000000, 5.0000000000, 0.0388996167
          33, 0.00000000e+00, 0.00000000e+00, 0.00000000e+00, 0.00000000e+00, 0.00000000e+00, 0.00000000e+00, 0.00000000e+00, 0.00000000e+00, 0.00000000e+00, 0.00000000e+00, 0.00000000e+00, 0.00000000e+00, -1.46895592e+00, 1.08887028e+00, 9.60140825e-01, 3.98510406e+00, 0.00000000e+00, 5.0000000000, 5.0000000000, 0.0399522333
          34, 0.00000000e+00, 0.00000000e+00, 0.00000000e+00, 0.00000000e+00, 0.00000000e+00, 0.00000000e+00, 0.00000000e+00, 0.00000000e+00, 0.00000000e+00, 0.00000000e+00, 0.00000000e+00, 0.00000000e+00, -1.47516204e+00, 1.06195988e+00, 9.48363876e-01, 3.97704234e+00, 0.00000000e+00, 5.0000000000, 5.0000000000, 0.0410412167
          35, 0.00000000e+00, 0.00000000e+00, 0.00000000e+00, 0.00000000e+00, 0.00000000e+00, 0.00000000e+00, 0.00000000e+00, 0.00000000e+00, 0.00000000e+00, 0.00000000e+00, 0.00000000e+00, 0.00000000e+00, -1.48314771e+00, 1.03556415e+00, 9.36443360e-01, 3.96736286e+00, 0.00000000e+00, 5.0000000000, 5.0000000000, 0.0421272167
          36, 0.00000000e+00, 0.00000000e+00, 0.00000000e+00, 0.00000000e+00, 0.00000000e+00, 0.00000000e+00, 0.00000000e+00, 0.00000000e+00, 0.00000000e+00, 0.00000000e+00, 0.00000000e+00, 0.00000000e+00, -1.49262714e+00, 1.00997074e+00, 9.24395242e-01, 3.95640119e+00, 0.00000000e+00, 5.0000000000, 5.0000000000, 0.0431712500
          37, 0.00000000e+00, 0.00000000e+00, 0.00000000e+00, 0.00000000e+00, 0.00000000e+00, 0.00000000e+00, 0.00000000e+00, 0.00000000e+00, 0.00000000e+00, 0.00000000e+00, 0.00000000e+00, 0.00000000e+00, -1.50350224e+00, 9.85355656e-01, 9.12245868e-01, 3.94429596e+00, 0.00000000e+00, 5.0000000000, 5.0000000000, 0.0441422667
          38, 0.00000000e+00, 0.00000000e+00, 0.00000000e+00, 0.00000000e+00, 0.00000000e+00, 0.00000000e+00, 0.00000000e+00, 0.00000000e+00, 0.00000000e+00, 0.00000000e+00, 0.00000000e+00, 0.00000000e+00, -1.51582717e+00, 9.61765304e-01, 9.00026704e-01, 3.93102278e+00, 0.00000000e+00, 5.0000000000, 5.0000000000, 0.0451357000
          39, 0.00000000e+00, 0.00000000e+00, 0.00000000e+00, 0.00000000e+00, 0.00000000e+00, 0.00000000e+00, 0.00000000e+00, 0.00000000e+00, 0.00000000e+00, 0.00000000e+00, 0.00000000e+00, 0.00000000e+00, -1.52976040e+00, 9.39127918e-01, 8.87768789e-01, 3.91644273e+00, 0.00000000e+00, 5.0000000000, 5.0000000000, 0.0462347500
          40, 0.00000000e+00, 0.00000000e+00, 0.00000000e+00, 0.00000000e+00, 0.00000000e+00, 0.00000000e+00, 0.00000000e+00, 0.00000000e+00, 0.00000000e+00, 0.00000000e+00, 0.00000000e+00, 0.00000000e+00, -1.54550581e+00, 9.17296220e-01, 8.75504862e-01, 3.90036486e+00, 0.00000000e+00, 5.0000000000, 5.0000000000, 0.0474770167
          41, 0.00000000e+00, 0.00000000e+00, 0.00000000e+00, 0.00000000e+00, 0.00000000e+00, 0.00000000e+00, 0.00000000e+00, 0.00000000e+00, 0.00000000e+00, 0.00000000e+00, 0.00000000e+00, 0.00000000e+00, -1.56324533e+00, 8.96114576e-01, 8.63273489e-01, 3.88261796e+00, 0.00000000e+00, 5.0000000000, 5.0000000000, 0.0486072333
          42, 0.00000000e+00, 0.00000000e+00, 0.00000000e+00, 0.00000000e+00, 0.00000000e+00, 0.00000000e+00, 0.00000000e+00, 0.00000000e+00, 0.00000000e+00, 0.00000000e+00, 0.00000000e+00, 0.00000000e+00, -1.58306482e+00, 8.75499674e-01, 8.51125469e-01, 3.86312924e+00, 0.00000000e+00, 5.0000000000, 5.0000000000, 0.0496999500
          43, 0.00000000e+00, 0.00000000e+00, 0.00000000e+00, 0.00000000e+00, 0.00000000e+00, 0.00000000e+00, 0.00000000e+00, 0.00000000e+00, 0.00000000e+00, 0.00000000e+00, 0.00000000e+00, 0.00000000e+00, -1.60487307e+00, 8.55519685e-01, 8.39130203e-01, 3.84200883e+00, 0.00000000e+00, 5.0000000000, 5.0000000000, 0.0508118167
          44, 0.00000000e+00, 0.00000000e+00, 0.00000000e+00, 0.00000000e+00, 0.00000000e+00, 0.00000000e+00, 0.00000000e+00, 0.00000000e+00, 0.00000000e+00, 0.00000000e+00, 0.00000000e+00, 0.00000000e+00, -1.62831507e+00, 8.36454876e-01, 8.27380035e-01, 3.81963691e+00, 0.00000000e+00, 5.0000000000, 5.0000000000, 0.0518132167
          45, 0.00000000e+00, 0.00000000e+00, 0.00000000e+00, 0.00000000e+00, 0.00000000e+00, 0.00000000e+00, 0.00000000e+00, 0.00000000e+00, 0.00000000e+00, 0.00000000e+00, 0.00000000e+00, 0.00000000e+00, -1.65268740e+00, 8.18819617e-01, 8.15990706e-01, 3.79674302e+00, 0.00000000e+00, 5.0000000000, 5.0000000000, 0.0527719667
          46, 0.00000000e+00, 0.00000000e+00, 0.00000000e+00, 0.00000000e+00, 0.00000000e+00, 0.00000000e+00, 0.00000000e+00, 0.00000000e+00, 0.00000000e+00, 0.00000000e+00, 0.00000000e+00, 0.00000000e+00, -1.67687975e+00, 8.03323368e-01, 8.05096591e-01, 3.77445010e+00, 0.00000000e+00, 5.0000000000, 5.0000000000, 0.0537996667
          47, 0.00000000e+00, 0.00000000e+00, 0.00000000e+00, 0.00000000e+00, 0.00000000e+00, 0.00000000e+00, 0.00000000e+00, 0.00000000e+00, 0.00000000e+00, 0.00000000e+00, 0.00000000e+00, 0.00000000e+00, -1.69939194e+00, 7.90754643e-01, 7.94840810e-01, 3.75423260e+00, 0.00000000e+00, 5.0000000000, 5.0000000000, 0.0547964667
          48, 0.00000000e+00, 0.00000000e+00, 0.00000000e+00, 0.00000000e+00, 0.00000000e+00, 0.00000000e+00, 0.00000000e+00, 0.00000000e+00, 0.00000000e+00, 0.00000000e+00, 0.00000000e+00, 0.00000000e+00, -1.71849411e+00, 7.81795940e-01, 7.85360893e-01, 3.73772782e+00, 0.00000000e+00, 5.0000000000, 5.0000000000, 0.0558642500
          49, 0.00000000e+00, 0.00000000e+00, 0.00000000e+00, 0.00000000e+00, 0.00000000e+00, 0.00000000e+00, 0.00000000e+00, 0.00000000e+00, 0.00000000e+00, 0.00000000e+00, 0.00000000e+00, 0.00000000e+00, -1.73257031e+00, 7.76818747e-01, 7.76772001e-01, 3.72638093e+00, 0.00000000e+00, 5.0000000000, 5.0000000000, 0.0569309500
          50, 0.00000000e+00, 0.00000000e+00, 0.00000000e+00, 0.00000000e+00, 0.00000000e+00, 0.00000000e+00, 0.00000000e+00, 0.00000000e+00, 0.00000000e+00, 0.00000000e+00, 0.00000000e+00, 0.00000000e+00, -1.74057560e+00, 7.75739474e-01, 7.69150463e-01, 3.72101724e+00, 0.00000000e+00, 5.0000000000, 5.0000000000, 0.0579185333
          51, 0.00000000e+00, 0.00000000e+00, 0.00000000e+00, 0.00000000e+00, 0.00000000e+00, 0.00000000e+00, 0.00000000e+00, 0.00000000e+00, 0.00000000e+00, 0.00000000e+00, 0.00000000e+00, 0.00000000e+00, -1.74239520e+00, 7.78004161e-01, 7.62520670e-01, 3.72155150e+00, 0.00000000e+00, 5.0000000000, 5.0000000000, 0.0589722000
          52, 0.00000000e+00, 0.00000000e+00, 0.00000000e+00, 0.00000000e+00, 0.00000000e+00, 0.00000000e+00, 0.00000000e+00, 0.00000000e+00, 0.00000000e+00, 0.00000000e+00, 0.00000000e+00, 0.00000000e+00, -1.73887942e+00, 7.82711829e-01, 7.56848535e-01, 3.72701871e+00, 0.00000000e+00, 5.0000000000, 5.0000000000, 0.0599693833
          53, 0.00000000e+00, 0.00000000e+00, 0.00000000e+00, 0.00000000e+00, 0.00000000e+00, 0.00000000e+00, 0.00000000e+00, 0.00000000e+00, 0.00000000e+00, 0.00000000e+00, 0.00000000e+00, 0.00000000e+00, -1.73153267e+00, 7.88814043e-01, 7.52042961e-01, 3.73590305e+00, 0.00000000e+00, 5.0000000000, 5.0000000000, 0.0610660333
          54, 0.00000000e+00, 0.00000000e+00, 0.00000000e+00, 0.00000000e+00, 0.00000000e+00, 0.00000000e+00, 0.00000000e+00, 0.00000000e+00, 0.00000000e+00, 0.00000000e+00, 0.00000000e+00, 0.00000000e+00, -1.72205604e+00, 7.95309071e-01, 7.47965283e-01, 3.74656433e+00, 0.00000000e+00, 5.0000000000, 5.0000000000, 0.0620828000
          55, 0.00000000e+00, 0.00000000e+00, 0.00000000e+00, 0.00000000e+00, 0.00000000e+00, 0.00000000e+00, 0.00000000e+00, 0.00000000e+00, 0.00000000e+00, 0.00000000e+00, 0.00000000e+00, 0.00000000e+00, -1.71197454e+00, 8.01377041e-01, 7.44444713e-01, 3.75756437e+00, 0.00000000e+00, 5.0000000000, 5.0000000000, 0.0631659833
          56, 0.00000000e+00, 0.00000000e+00, 0.00000000e+00, 0.00000000e+00, 0.00000000e+00, 0.00000000e+00, 0.00000000e+00, 0.00000000e+00, 0.00000000e+00, 0.00000000e+00, 0.00000000e+00, 0.00000000e+00, -1.70244705e+00, 8.06444561e-01, 7.41296641e-01, 3.76782353e+00, 0.00000000e+00, 5.0000000000, 5.0000000000, 0.0642214000
          57, 0.00000000e+00, 0.00000000e+00, 0.00000000e+00, 0.00000000e+00, 0.00000000e+00, 0.00000000e+00, 0.00000000e+00, 0.00000000e+00, 0.00000000e+00, 0.00000000e+00, 0.00000000e+00, 0.00000000e+00, -1.69423112e+00, 8.10192401e-01, 7.38340417e-01, 3.77664193e+00, 0.00000000e+00, 5.0000000000, 5.0000000000, 0.0652706000
          58, 0.00000000e+00, 0.00000000e+00, 0.00000000e+00, 0.00000000e+00, 0.00000000e+00, 0.00000000e+00, 0.00000000e+00, 0.00000000e+00, 0.00000000e+00, 0.00000000e+00, 0.00000000e+00, 0.00000000e+00, -1.68773324e+00, 8.12526804e-01, 7.35413880e-01, 3.78364854e+00, 0.00000000e+00, 5.0000000000, 5.0000000000, 0.0663843167
          59, 0.00000000e+00, 0.00000000e+00, 0.00000000e+00, 0.00000000e+00, 0.00000000e+00, 0.00000000e+00, 0.00000000e+00, 0.00000000e+00, 0.00000000e+00, 0.00000000e+00, 0.00000000e+00, 0.00000000e+00, -1.68308861e+00, 8.13530683e-01, 7.32383096e-01, 3.78872629e+00, 0.00000000e+00, 5.0000000000, 5.0000000000, 0.0675038500
          60, 0.00000000e+00, 0.00000000e+00, 0.00000000e+00, 0.00000000e+00, 0.00000000e+00, 0.00000000e+00, 0.00000000e+00, 0.00000000e+00, 0.00000000e+00, 0.00000000e+00, 0.00000000e+00, 0.00000000e+00, -1.68024050e+00, 8.13405348e-01, 7.29146995e-01, 3.79193853e+00, 0.00000000e+00, 5.0000000000, 5.0000000000, 0.0686420000
          61, 0.00000000e+00, 0.00000000e+00, 0.00000000e+00, 0.00000000e+00, 0.00000000e+00, 0.00000000e+00, 0.00000000e+00, 0.00000000e+00, 0.00000000e+00, 0.00000000e+00, 0.00000000e+00, 0.00000000e+00, -1.67900771e+00, 8.12410150e-01, 7.25637616e-01, 3.79346665e+00, 0.00000000e+00, 5.0000000000, 5.0000000000, 0.0697881000
          62, 0.00000000e+00, 0.00000000e+00, 0.00000000e+00, 0.00000000e+00, 0.00000000e+00, 0.00000000e+00, 0.00000000e+00, 0.00000000e+00, 0.00000000e+00, 0.00000000e+00, 0.00000000e+00, 0.00000000e+00, -1.67913749e+00, 8.10806523e-01, 7.21817020e-01, 3.79356080e+00, 0.00000000e+00, 5.0000000000, 5.0000000000, 0.0709211833
          63, 0.00000000e+00, 0.00000000e+00, 0.00000000e+00, 0.00000000e+00, 0.00000000e+00, 0.00000000e+00, 0.00000000e+00, 0.00000000e+00, 0.00000000e+00, 0.00000000e+00, 0.00000000e+00, 0.00000000e+00, -1.68034560e+00, 8.08812632e-01, 7.17672191e-01, 3.79250243e+00, 0.00000000e+00, 5.0000000000, 5.0000000000, 0.0719302833
          64, 0.00000000e+00, 0.00000000e+00, 0.00000000e+00, 0.00000000e+00, 0.00000000e+00, 0.00000000e+00, 0.00000000e+00, 0.00000000e+00, 0.00000000e+00, 0.00000000e+00, 0.00000000e+00, 0.00000000e+00, -1.68234519e+00, 8.06574046e-01, 7.13209024e-01, 3.79057704e+00, 0.00000000e+00, 5.0000000000, 5.0000000000, 0.0730056167
          65, 0.00000000e+00, 0.00000000e+00, 0.00000000e+00, 0.00000000e+00, 0.00000000e+00, 0.00000000e+00, 0.00000000e+00, 0.00000000e+00, 0.00000000e+00, 0.00000000e+00, 0.00000000e+00, 0.00000000e+00, -1.68486702e+00, 8.04152819e-01, 7.08446070e-01, 3.78805494e+00, 0.00000000e+00, 5.0000000000, 5.0000000000, 0.0740066000
          66, 0.00000000e+00, 0.00000000e+00, 0.00000000e+00, 0.00000000e+00, 0.00000000e+00, 0.00000000e+00, 0.00000000e+00, 0.00000000e+00, 0.00000000e+00, 0.00000000e+00, 0.00000000e+00, 0.00000000e+00, -1.68767282e+00, 8.01533155e-01, 7.03408703e-01, 3.78517817e+00, 0.00000000e+00, 5.0000000000, 5.0000000000, 0.0749942667
          67, 0.00000000e+00, 0.00000000e+00, 0.00000000e+00, 0.00000000e+00, 0.00000000e+00, 0.00000000e+00, 0.00000000e+00, 0.00000000e+00, 0.00000000e+00, 0.00000000e+00, 0.00000000e+00, 0.00000000e+00, -1.69056325e+00, 7.98638597e-01, 6.98123854e-01, 3.78215234e+00, 0.00000000e+00, 5.0000000000, 5.0000000000, 0.0761084167
          68, 0.00000000e+00, 0.00000000e+00, 0.00000000e+00, 0.00000000e+00, 0.00000000e+00, 0.00000000e+00, 0.00000000e+00, 0.00000000e+00, 0.00000000e+00, 0.00000000e+00, 0.00000000e+00, 0.00000000e+00, -1.69338160e+00, 7.95353687e-01, 6.92615643e-01, 3.77914238e+00, 0.00000000e+00, 5.0000000000, 5.0000000000, 0.0772234167
          69, 0.00000000e+00, 0.00000000e+00, 0.00000000e+00, 0.00000000e+00, 0.00000000e+00, 0.00000000e+00, 0.00000000e+00, 0.00000000e+00, 0.00000000e+00, 0.00000000e+00, 0.00000000e+00, 0.00000000e+00, -1.69601356e+00, 7.91543775e-01, 6.86901877e-01, 3.77627185e+00, 0.00000000e+00, 5.0000000000, 5.0000000000, 0.0783502333
          70, 0.00000000e+00, 0.00000000e+00, 0.00000000e+00, 0.00000000e+00, 0.00000000e+00, 0.00000000e+00, 0.00000000e+00, 0.00000000e+00, 0.00000000e+00, 0.00000000e+00, 0.00000000e+00, 0.00000000e+00, -1.69838368e+00, 7.87068709e-01, 6.80991578e-01, 3.77362571e+00, 0.00000000e+00, 5.0000000000, 5.0000000000, 0.0794718667
          71, 0.00000000e+00, 0.00000000e+00, 0.00000000e+00, 0.00000000e+00, 0.00000000e+00, 0.00000000e+00, 0.00000000e+00, 0.00000000e+00, 0.00000000e+00, 0.00000000e+00, 0.00000000e+00, 0.00000000e+00, -1.70044877e+00, 7.81788691e-01, 6.74883436e-01, 3.77125621e+00, 0.00000000e+00, 5.0000000000, 5.0000000000, 0.0806061667
          72, 0.00000000e+00, 0.00000000e+00, 0.00000000e+00, 0.00000000e+00, 0.00000000e+00, 0.00000000e+00, 0.00000000e+00, 0.00000000e+00, 0.00000000e+00, 0.00000000e+00, 0.00000000e+00, 0.00000000e+00, -1.70218909e+00, 7.75562886e-01, 6.68565248e-01, 3.76919133e+00, 0.00000000e+00, 5.0000000000, 5.0000000000, 0.0816200667
          73, 0.00000000e+00, 0.00000000e+00, 0.00000000e+00, 0.00000000e+00, 0.00000000e+00, 0.00000000e+00, 0.00000000e+00, 0.00000000e+00, 0.00000000e+00, 0.00000000e+00, 0.00000000e+00, 0.00000000e+00, -1.70359813e+00, 7.68242688e-01, 6.62014246e-01, 3.76744509e+00, 0.00000000e+00, 5.0000000000, 5.0000000000, 0.0826661333
          74, 0.00000000e+00, 0.00000000e+00, 0.00000000e+00, 0.00000000e+00, 0.00000000e+00, 0.00000000e+00, 0.00000000e+00, 0.00000000e+00, 0.00000000e+00, 0.00000000e+00, 0.00000000e+00, 0.00000000e+00, -1.70467243e+00, 7.59662209e-01, 6.55198179e-01, 3.76602809e+00, 0.00000000e+00, 5.0000000000, 5.0000000000, 0.0837571333
          75, 0.00000000e+00, 0.00000000e+00, 0.00000000e+00, 0.00000000e+00, 0.00000000e+00, 0.00000000e+00, 0.00000000e+00, 0.00000000e+00, 0.00000000e+00, 0.00000000e+00, 0.00000000e+00, 0.00000000e+00, -1.70540259e+00, 7.49628528e-01, 6.48077071e-01, 3.76495715e+00, 0.00000000e+00, 5.0000000000, 5.0000000000, 0.0848851833
          76, 0.00000000e+00, 0.00000000e+00, 0.00000000e+00, 0.00000000e+00, 0.00000000e+00, 0.00000000e+00, 0.00000000e+00, 0.00000000e+00, 0.00000000e+00, 0.00000000e+00, 0.00000000e+00, 0.00000000e+00, -1.70576670e+00, 7.37913957e-01, 6.40605374e-01, 3.76426267e+00, 0.00000000e+00, 5.0000000000, 5.0000000000, 0.0859959000
          77, 0.00000000e+00, 0.00000000e+00, 0.00000000e+00, 0.00000000e+00, 0.00000000e+00, 0.00000000e+00, 0.00000000e+00, 0.00000000e+00, 0.00000000e+00, 0.00000000e+00, 0.00000000e+00, 0.00000000e+00, -1.70572685e+00, 7.24252283e-01, 6.32734340e-01, 3.76399262e+00, 0.00000000e+00, 5.0000000000, 5.0000000000, 0.0871327833
          78, 0.00000000e+00, 0.00000000e+00, 0.00000000e+00, 0.00000000e+00, 0.00000000e+00, 0.00000000e+00, 0.00000000e+00, 0.00000000e+00, 0.00000000e+00, 0.00000000e+00, 0.00000000e+00, 0.00000000e+00, -1.70522909e+00, 7.08341061e-01, 6.24414462e-01, 3.76421288e+00, 0.00000000e+00, 5.0000000000, 5.0000000000, 0.0881843333
          79, 0.00000000e+00, 0.00000000e+00, 0.00000000e+00, 0.00000000e+00, 0.00000000e+00, 0.00000000e+00, 0.00000000e+00, 0.00000000e+00, 0.00000000e+00, 0.00000000e+00, 0.00000000e+00, 0.00000000e+00, -1.70420640e+00, 6.89853015e-01, 6.15597978e-01, 3.76500412e+00, 0.00000000e+00, 5.0000000000, 5.0000000000, 0.0892039167
          80, 0.00000000e+00, 0.00000000e+00, 0.00000000e+00, 0.00000000e+00, 0.00000000e+00, 0.00000000e+00, 0.00000000e+00, 0.00000000e+00, 0.00000000e+00, 0.00000000e+00, 0.00000000e+00, 0.00000000e+00, -1.70258421e+00, 6.68462229e-01, 6.06241353e-01, 3.76645552e+00, 0.00000000e+00, 5.0000000000, 5.0000000000, 0.0902546667
          81, 0.00000000e+00, 0.00000000e+00, 0.00000000e+00, 0.00000000e+00, 0.00000000e+00, 0.00000000e+00, 0.00000000e+00, 0.00000000e+00, 0.00000000e+00, 0.00000000e+00, 0.00000000e+00, 0.00000000e+00, -1.70028747e+00, 6.43896366e-01, 5.96307659e-01, 3.76865649e+00, 0.00000000e+00, 5.0000000000, 5.0000000000, 0.0913254500
          82, 0.00000000e+00, 0.00000000e+00, 0.00000000e+00, 0.00000000e+00, 0.00000000e+00, 0.00000000e+00, 0.00000000e+00, 0.00000000e+00, 0.00000000e+00, 0.00000000e+00, 0.00000000e+00, 0.00000000e+00, -1.69724811e+00, 6.16036779e-01, 5.85768937e-01, 3.77168765e+00, 0.00000000e+00, 5.0000000000, 5.0000000000, 0.0924390000
          83, 0.00000000e+00, 0.00000000e+00, 0.00000000e+00, 0.00000000e+00, 0.00000000e+00, 0.00000000e+00, 0.00000000e+00, 0.00000000e+00, 0.00000000e+00, 0.00000000e+00, 0.00000000e+00, 0.00000000e+00, -1.69341198e+00, 5.85105961e-01, 5.74608424e-01, 3.77561222e+00, 0.00000000e+00, 5.0000000000, 5.0000000000, 0.0934779167
          84, 0.00000000e+00, 0.00000000e+00, 0.00000000e+00, 0.00000000e+00, 0.00000000e+00, 0.00000000e+00, 0.00000000e+00, 0.00000000e+00, 0.00000000e+00, 0.00000000e+00, 0.00000000e+00, 0.00000000e+00, -1.68874422e+00, 5.52003514e-01, 5.62822707e-01, 3.78046909e+00, 0.00000000e+00, 5.0000000000, 5.0000000000, 0.0945730833
          85, 0.00000000e+00, 0.00000000e+00, 0.00000000e+00, 0.00000000e+00, 0.00000000e+00, 0.00000000e+00, 0.00000000e+00, 0.00000000e+00, 0.00000000e+00, 0.00000000e+00, 0.00000000e+00, 0.00000000e+00, -1.68323293e+00, 5.18847358e-01, 5.50423715e-01, 3.78626826e+00, 0.00000000e+00, 5.0000000000, 5.0000000000, 0.0956785167
          86, 0.00000000e+00, 0.00000000e+00, 0.00000000e+00, 0.00000000e+00, 0.00000000e+00, 0.00000000e+00, 0.00000000e+00, 0.00000000e+00, 0.00000000e+00, 0.00000000e+00, 0.00000000e+00, 0.00000000e+00, -1.67689102e+00, 4.89634666e-01, 5.37440468e-01, 3.79298878e+00, 0.00000000e+00, 5.0000000000, 5.0000000000, 0.0968340000
          87, 0.00000000e+00, 0.00000000e+00, 0.00000000e+00, 0.00000000e+00, 0.00000000e+00, 0.00000000e+00, 0.00000000e+00, 0.00000000e+00, 0.00000000e+00, 0.00000000e+00, 0.00000000e+00, 0.00000000e+00, -1.66975656e+00, 4.70444742e-01, 5.23920475e-01, 3.80057896e+00, 0.00000000e+00, 5.0000000000, 5.0000000000, 0.0979026667
          88, 0.00000000e+00, 0.00000000e+00, 0.00000000e+00, 0.00000000e+00, 0.00000000e+00, 0.00000000e+00, 0.00000000e+00, 0.00000000e+00, 0.00000000e+00, 0.00000000e+00, 0.00000000e+00, 0.00000000e+00, -1.66189236e+00, 4.67934182e-01, 5.09930599e-01, 3.80895809e+00, 0.00000000e+00, 5.0000000000, 5.0000000000, 0.0990097833
          89, 0.00000000e+00, 0.00000000e+00, 0.00000000e+00, 0.00000000e+00, 0.00000000e+00, 0.00000000e+00, 0.00000000e+00, 0.00000000e+00, 0.00000000e+00, 0.00000000e+00, 0.00000000e+00, 0.00000000e+00, -1.65338515e+00, 4.85728861e-01, 4.95557245e-01, 3.81801905e+00, 0.00000000e+00, 5.0000000000, 5.0000000000, 0.1000875333