TITLE = "SU2 Simulation"
VARIABLES = "Iteration","CL","CD","CSF","CMx","CMy","CMz","CFx","CFy","CFz","CL/CD","AoA","Custom_ObjFunc","Res_Flow[0]","Res_Flow[1]","Res_Flow[2]","Res_Flow[3]","Res_Flow[4]","Linear_Solver_Iterations","CFL_Number","Time(min)"
ZONE T= "Convergence history"
           0, 0.00000000e+00, 0.00000000e+00, 0.00000000e+00, 0.00000000e+00, 0.00000000e+00, 0.00000000e+00, 0.00000000e+00, 0.00000000e+00, 0.00000000e+00, 0.00000000e+00, 0.00000000e+00, 0.00000000e+00, -3.70734323e+00, -1.09757952e+00, -1.29867072e+01, 1.81212178e+00, 0.00000000e+00, 5.0000000000, 5.0000000000, 0.0012533000
           1, 0.00000000e+00, 0.00000000e+00, 0.00000000e+00, 0.00000000e+00, 0.00000000e+00, 0.00000000e+00, 0.00000000e+00, 0.00000000e+00, 0.00000000e+00, 0.00000000e+00, 0.00000000e+00, 0.00000000e+00, -3.99302781e+00, -1.36998898e+00, -3.48553279e+00, 1.54589397e+00, 0.00000000e+00, 5.0000000000, 5.0000000000, 0.0025482833
           2, 0.00000000e+00, 0.00000000e+00, 0.00000000e+00, 0.00000000e+00, 0.00000000e+00, 0.00000000e+00, 0.00000000e+00, 0.00000000e+00, 0.00000000e+00, 0.00000000e+00, 0.00000000e+00, 0.00000000e+00, -1.57710806e+00, 9.04307618e-01, -1.49868764e+00, 3.86534166e+00, 0.00000000e+00, 5.0000000000, 5.0000000000, 0.0037386667
           3, 0.00000000e+00, 0.00000000e+00, 0.00000000e+00, 0.00000000e+00, 0.00000000e+00, 0.00000000e+00, 0.00000000e+00, 0.00000000e+00, 0.00000000e+00, 0.00000000e+00, 0.00000000e+00, 0.00000000e+00, -1.39688030e+00, 1.07735875e+00, -9.97199997e-01, 4.04257720e+00, 0.00000000e+00, 5.0000000000, 5.0000000000, 0.0049206500
           4, 0.00000000e+00, 0.00000000e+00, 0.00000000e+00, 0.00000000e+00, 0.00000000e+00, 0.00000000e+00, 0.00000000e+00, 0.00000000e+00, 0.00000000e+00, 0.00000000e+00, 0.00000000e+00, 0.00000000e+00, -1.33404204e+00, 1.13520379e+00, -7.86926859e-01, 4.10293270e+00, 0.00000000e+00, 5.0000000000, 5.0000000000, 0.0060427500
           5, 0.00000000e+00, 0.00000000e+00, 0.00000000e+00, 0.00000000e+00, 0.00000000e+00, 0.00000000e+00, 0.00000000e+00, 0.00000000e+00, 0.00000000e+00, 0.00000000e+00, 0.00000000e+00, 0.00000000e+00, -1.31130251e+00, 1.15501510e+00, -7.16482703e-01, 4.12370344e+00, 0.00000000e+00, 5.0000000000, 5.0000000000, 0.0071823667
           6, 0.00000000e+00, 0.00000000e+00, 0.00000000e+00, 0.00000000e+00, 0.00000000e+00, 0.00000000e+00, 0.00000000e+00, 0.00000000e+00, 0.00000000e+00, 0.00000000e+00, 0.00000000e+00, 0.00000000e+00, -1.30395530e+00, 1.16059583e+00, -7.15123650e-01, 4.12943427e+00, 0.00000000e+00, 5.0000000000, 5.0000000000, 0.0083192167
           7, 0.00000000e+00, 0.00000000e+00, 0.00000000e+00, 0.00000000e+00, 0.00000000e+00, 0.00000000e+00, 0.00000000e+00, 0.00000000e+00, 0.00000000e+00, 0.00000000e+00, 0.00000000e+00, 0.00000000e+00, -1.30235350e+00, 1.16067525e+00, -7.36320503e-01, 4.12964158e+00, 0.00000000e+00, 5.0000000000, 5.0000000000, 0.0093454500
           8, 0.00000000e+00, 0.00000000e+00, 0.00000000e+00, 0.00000000e+00, 0.00000000e+00, 0.00000000e+00, 0.00000000e+00, 0.00000000e+00, 0.00000000e+00, 0.00000000e+00, 0.00000000e+00, 0.00000000e+00, -1.30293520e+00, 1.15843725e+00, -7.47352156e-01, 4.12786293e+00, 0.00000000e+00, 5.0000000000, 5.0000000000, 0.0106940500
           9, 0.00000000e+00, 0.00000000e+00, 0.00000000e+00, 0.00000000e+00, 0.00000000e+00, 0.00000000e+00, 0.00000000e+00, 0.00000000e+00, 0.00000000e+00, 0.00000000e+00, 0.00000000e+00, 0.00000000e+00, -1.30457449e+00, 1.15510555e+00, -7.42033885e-01, 4.12524625e+00, 0.00000000e+00, 5.0000000000, 5.0000000000, 0.0119566167
          10, 0.00000000e+00, 0.00000000e+00, 0.00000000e+00, 0.00000000e+00, 0.00000000e+00, 0.00000000e+00, 0.00000000e+00, 0.00000000e+00, 0.00000000e+00, 0.00000000e+00, 0.00000000e+00, 0.00000000e+00, -1.30693410e+00, 1.15124927e+00, -7.32017560e-01, 4.12213520e+00, 0.00000000e+00, 5.0000000000, 5.0000000000, 0.0131883333
          11, 0.00000000e+00, 0.00000000e+00, 0.00000000e+00, 0.00000000e+00, 0.00000000e+00, 0.00000000e+00, 0.00000000e+00, 0.00000000e+00, 0.00000000e+00, 0.00000000e+00, 0.00000000e+00, 0.00000000e+00, -1.30985948e+00, 1.14715494e+00, -7.26034599e-01, 4.11865364e+00, 0.00000000e+00, 5.0000000000, 5.0000000000, 0.0143238500
          12, 0.00000000e+00, 0.00000000e+00, 0.00000000e+00, 0.00000000e+00, 0.00000000e+00, 0.00000000e+00, 0.00000000e+00, 0.00000000e+00, 0.00000000e+00, 0.00000000e+00, 0.00000000e+00, 0.00000000e+00, -1.31320237e+00, 1.14297288e+00, -7.25679142e-01, 4.11489711e+00, 0.00000000e+00, 5.0000000000, 5.0000000000, 0.0154236667
          13, 0.00000000e+00, 0.00000000e+00, 0.00000000e+00, 0.00000000e+00, 0.00000000e+00, 0.00000000e+00, 0.00000000e+00, 0.00000000e+00, 0.00000000e+00, 0.00000000e+00, 0.00000000e+00, 0.00000000e+00, -1.31681147e+00, 1.13877055e+00, -7.29003132e-01, 4.11097110e+00, 0.00000000e+00, 5.0000000000, 5.0000000000, 0.0164474833
          14, 0.00000000e+00, 0.00000000e+00, 0.00000000e+00, 0.00000000e+00, 0.00000000e+00, 0.00000000e+00, 0.00000000e+00, 0.00000000e+00, 0.00000000e+00, 0.00000000e+00, 0.00000000e+00, 0.00000000e+00, -1.32057285e+00, 1.13456677e+00, -7.33739686e-01, 4.10695740e+00, 0.00000000e+00, 5.0000000000, 5.0000000000, 0.0174923000
          15, 0.00000000e+00, 0.00000000e+00, 0.00000000e+00, 0.00000000e+00, 0.00000000e+00, 0.00000000e+00, 0.00000000e+00, 0.00000000e+00, 0.00000000e+00, 0.00000000e+00, 0.00000000e+00, 0.00000000e+00, -1.32441432e+00, 1.13036794e+00, -7.38561696e-01, 4.10290883e+00, 0.00000000e+00, 5.0000000000, 5.0000000000, 0.0185935667
          16, 0.00000000e+00, 0.00000000e+00, 0.00000000e+00, 0.00000000e+00, 0.00000000e+00, 0.00000000e+00, 0.00000000e+00, 0.00000000e+00, 0.00000000e+00, 0.00000000e+00, 0.00000000e+00, 0.00000000e+00, -1.32829198e+00, 1.12618298e+00, -7.43211871e-01, 4.09885882e+00, 0.00000000e+00, 5.0000000000, 5.0000000000, 0.0196040167
          17, 0.00000000e+00, 0.00000000e+00, 0.00000000e+00, 0.00000000e+00, 0.00000000e+00, 0.00000000e+00, 0.00000000e+00, 0.00000000e+00, 0.00000000e+00, 0.00000000e+00, 0.00000000e+00, 0.00000000e+00, -1.33217788e+00, 1.12202080e+00, -7.47755712e-01, 4.09482893e+00, 0.00000000e+00, 5.0000000000, 5.0000000000, 0.0206732000
          18, 0.00000000e+00, 0.00000000e+00, 0.00000000e+00, 0.00000000e+00, 0.00000000e+00, 0.00000000e+00, 0.00000000e+00, 0.00000000e+00, 0.00000000e+00, 0.00000000e+00, 0.00000000e+00, 0.00000000e+00, -1.33605023e+00, 1.11789114e+00, -7.52306781e-01, 4.09083606e+00, 0.00000000e+00, 5.0000000000, 5.0000000000, 0.0217020833
          19, 0.00000000e+00, 0.00000000e+00, 0.00000000e+00, 0.00000000e+00, 0.00000000e+00, 0.00000000e+00, 0.00000000e+00, 0.00000000e+00, 0.00000000e+00, 0.00000000e+00, 0.00000000e+00, 0.00000000e+00, -1.33989051e+00, 1.11380429e+00, -7.56899978e-01, 4.08689452e+00, 0.00000000e+00, 5.0000000000, 5.0000000000, 0.0228042500
          20, 0.00000000e+00, 0.00000000e+00, 0.00000000e+00, 0.00000000e+00, 0.00000000e+00, 0.00000000e+00, 0.00000000e+00, 0.00000000e+00, 0.00000000e+00, 0.00000000e+00, 0.00000000e+00, 0.00000000e+00, -1.34368542e+00, 1.10976920e+00, -7.61535526e-01, 4.08301347e+00, 0.00000000e+00, 5.0000000000, 5.0000000000, 0.0239133000
          21, 0.00000000e+00, 0.00000000e+00, 0.00000000e+00, 0.00000000e+00, 0.00000000e+00, 0.00000000e+00, 0.00000000e+00, 0.00000000e+00, 0.00000000e+00, 0.00000000e+00, 0.00000000e+00, 0.00000000e+00, -1.34742712e+00, 1.10579497e+00, -7.66191624e-01, 4.07919706e+00, 0.00000000e+00, 5.0000000000, 5.0000000000, 0.0250034167
          22, 0.00000000e+00, 0.00000000e+00, 0.00000000e+00, 0.00000000e+00, 0.00000000e+00, 0.00000000e+00, 0.00000000e+00, 0.00000000e+00, 0.00000000e+00, 0.00000000e+00, 0.00000000e+00, 0.00000000e+00, -1.35111377e+00, 1.10189076e+00, -7.70864300e-01, 4.07544396e+00, 0.00000000e+00, 5.0000000000, 5.0000000000, 0.0261352667
          23, 0.00000000e+00, 0.00000000e+00, 0.00000000e+00, 0.00000000e+00, 0.00000000e+00, 0.00000000e+00, 0.00000000e+00, 0.00000000e+00, 0.00000000e+00, 0.00000000e+00, 0.00000000e+00, 0.00000000e+00, -1.35474886e+00, 1.09806497e+00, -7.75535422e-01, 4.07174817e+00, 0.00000000e+00, 5.0000000000, 5.0000000000, 0.0272514833
          24, 0.00000000e+00, 0.00000000e+00, 0.00000000e+00, 0.00000000e+00, 0.00000000e+00, 0.00000000e+00, 0.00000000e+00, 0.00000000e+00, 0.00000000e+00, 0.00000000e+00, 0.00000000e+00, 0.00000000e+00, -1.35833895e+00, 1.09432486e+00, -7.80220336e-01, 4.06810129e+00, 0.00000000e+00, 5.0000000000, 5.0000000000, 0.0285609833
          25, 0.00000000e+00, 0.00000000e+00, 0.00000000e+00, 0.00000000e+00, 0.00000000e+00, 0.00000000e+00, 0.00000000e+00, 0.00000000e+00, 0.00000000e+00, 0.00000000e+00, 0.00000000e+00, 0.00000000e+00, -1.36189129e+00, 1.09067538e+00, -7.84940884e-01, 4.06449500e+00, 0.00000000e+00, 5.0000000000, 5.0000000000, 0.0300164500
          26, 0.00000000e+00, 0.00000000e+00, 0.00000000e+00, 0.00000000e+00, 0.00000000e+00, 0.00000000e+00, 0.00000000e+00, 0.00000000e+00, 0.00000000e+00, 0.00000000e+00, 0.00000000e+00, 0.00000000e+00, -1.36541122e+00, 1.08711815e+00, -7.89742956e-01, 4.06092345e+00, 0.00000000e+00, 5.0000000000, 5.0000000000, 0.0314638667
          27, 0.00000000e+00, 0.00000000e+00, 0.00000000e+00, 0.00000000e+00, 0.00000000e+00, 0.00000000e+00, 0.00000000e+00, 0.00000000e+00, 0.00000000e+00, 0.00000000e+00, 0.00000000e+00, 0.00000000e+00, -1.36889952e+00, 1.08365186e+00, -7.94681577e-01, 4.05738582e+00, 0.00000000e+00, 5.0000000000, 5.0000000000, 0.0327386333
          28, 0.00000000e+00, 0.00000000e+00, 0.00000000e+00, 0.00000000e+00, 0.00000000e+00, 0.00000000e+00, 0.00000000e+00, 0.00000000e+00, 0.00000000e+00, 0.00000000e+00, 0.00000000e+00, 0.00000000e+00, -1.37235023e+00, 1.08027382e+00, -7.99813595e-01, 4.05388817e+00, 0.00000000e+00, 5.0000000000, 5.0000000000, 0.0340171833
          29, 0.00000000e+00, 0.00000000e+00, 0.00000000e+00, 0.00000000e+00, 0.00000000e+00, 0.00000000e+00, 0.00000000e+00, 0.00000000e+00, 0.00000000e+00, 0.00000000e+00, 0.00000000e+00, 0.00000000e+00, -1.37574886e+00, 1.07698287e+00, -8.05155899e-01, 4.05044471e+00, 0.00000000e+00, 5.0000000000, 5.0000000000, 0.0352691167
          30, 0.00000000e+00, 0.00000000e+00, 0.00000000e+00, 0.00000000e+00, 0.00000000e+00, 0.00000000e+00, 0.00000000e+00, 0.00000000e+00, 0.00000000e+00, 0.00000000e+00, 0.00000000e+00, 0.00000000e+00, -1.37907044e+00, 1.07378394e+00, -8.10661784e-01, 4.04707931e+00, 0.00000000e+00, 5.0000000000, 5.0000000000, 0.0365651333
          31, 0.00000000e+00, 0.00000000e+00, 0.00000000e+00, 0.00000000e+00, 0.00000000e+00, 0.00000000e+00, 0.00000000e+00, 0.00000000e+00, 0.00000000e+00, 0.00000000e+00, 0.00000000e+00, 0.00000000e+00, -1.38227757e+00, 1.07069319e+00, -8.16178256e-01, 4.04382696e+00, 0.00000000e+00, 5.0000000000, 5.0000000000, 0.0377921500
          32, 0.00000000e+00, 0.00000000e+00, 0.00000000e+00, 0.00000000e+00, 0.00000000e+00, 0.00000000e+00, 0.00000000e+00, 0.00000000e+00, 0.00000000e+00, 0.00000000e+00, 0.00000000e+00, 0.00000000e+00, -1.38531857e+00, 1.06774325e+00, -8.21419791e-01, 4.04073520e+00, 0.00000000e+00, 5.0000000000, 5.0000000000, 0.0388996167
          33, 0.00000000e+00, 0.00000000e+00, 0.00000000e+00, 0.00000000e+00, 0.00000000e+00, 0.00000000e+00, 0.00000000e+00, 0.00000000e+00, 0.00000000e+00, 0.00000000e+00, 0.00000000e+00, 0.00000000e+00, -1.38812598e+00, 1.06498798e+00, -8.25972343e-01, 4.03786541e+00, 0.00000000e+00, 5.0000000000, 5.0000000000, 0.0399522333
          34, 0.00000000e+00, 0.00000000e+00, 0.00000000e+00, 0.00000000e+00, 0.00000000e+00, 0.00000000e+00, 0.00000000e+00, 0.00000000e+00, 0.00000000e+00, 0.00000000e+00, 0.00000000e+00, 0.00000000e+00, -1.39061672e+00, 1.06250604e+00, -8.29331212e-01, 4.03529279e+00, 0.00000000e+00, 5.0000000000, 5.0000000000, 0.0410412167
          35, 0.00000000e+00, 0.00000000e+00, 0.00000000e+00, 0.00000000e+00, 0.00000000e+00, 0.00000000e+00, 0.00000000e+00, 0.00000000e+00, 0.00000000e+00, 0.00000000e+00, 0.00000000e+00, 0.00000000e+00, -1.39269551e+00, 1.06040209e+00, -8.30988137e-01, 4.03310333e+00, 0.00000000e+00, 5.0000000000, 5.0000000000, 0.0421272167
          36, 0.00000000e+00, 0.00000000e+00, 0.00000000e+00, 0.00000000e+00, 0.00000000e+00, 0.00000000e+00, 0.00000000e+00, 0.00000000e+00, 0.00000000e+00, 0.00000000e+00, 0.00000000e+00, 0.00000000e+00, -1.39426293e+00, 1.05880506e+00, -8.30544697e-01, 4.03138657e+00, 0.00000000e+00, 5.0000000000, 5.0000000000, 0.0431712500
          37, 0.00000000e+00, 0.00000000e+00, 0.00000000e+00, 0.00000000e+00, 0.00000000e+00, 0.00000000e+00, 0.00000000e+00, 0.00000000e+00, 0.00000000e+00, 0.00000000e+00, 0.00000000e+00, 0.00000000e+00, -1.39522939e+00, 1.05786245e+00, -8.27836593e-01, 4.03022293e+00, 0.00000000e+00, 5.0000000000, 5.0000000000, 0.0441422667
          38, 0.00000000e+00, 0.00000000e+00, 0.00000000e+00, 0.00000000e+00, 0.00000000e+00, 0.00000000e+00, 0.00000000e+00, 0.00000000e+00, 0.00000000e+00, 0.00000000e+00, 0.00000000e+00, 0.00000000e+00, -1.39553451e+00, 1.05773000e+00, -8.22997744e-01, 4.02966565e+00, 0.00000000e+00, 5.0000000000, 5.0000000000, 0.0451357000
          39, 0.00000000e+00, 0.00000000e+00, 0.00000000e+00, 0.00000000e+00, 0.00000000e+00, 0.00000000e+00, 0.00000000e+00, 0.00000000e+00, 0.00000000e+00, 0.00000000e+00, 0.00000000e+00, 0.00000000e+00, -1.39516934e+00, 1.05855740e+00, -8.16458251e-01, 4.02971970e+00, 0.00000000e+00, 5.0000000000, 5.0000000000, 0.0462347500
          40, 0.00000000e+00, 0.00000000e+00, 0.00000000e+00, 0.00000000e+00, 0.00000000e+00, 0.00000000e+00, 0.00000000e+00, 0.00000000e+00, 0.00000000e+00, 0.00000000e+00, 0.00000000e+00, 0.00000000e+00, -1.39419666e+00, 1.06047196e+00, -8.08858442e-01, 4.03032176e+00, 0.00000000e+00, 5.0000000000, 5.0000000000, 0.0474770167
          41, 0.00000000e+00, 0.00000000e+00, 0.00000000e+00, 0.00000000e+00, 0.00000000e+00, 0.00000000e+00, 0.00000000e+00, 0.00000000e+00, 0.00000000e+00, 0.00000000e+00, 0.00000000e+00, 0.00000000e+00, -1.39276382e+00, 1.06356328e+00, -8.00926936e-01, 4.03132677e+00, 0.00000000e+00, 5.0000000000, 5.0000000000, 0.0486072333
          42, 0.00000000e+00, 0.00000000e+00, 0.00000000e+00, 0.00000000e+00, 0.00000000e+00, 0.00000000e+00, 0.00000000e+00, 0.00000000e+00, 0.00000000e+00, 0.00000000e+00, 0.00000000e+00, 0.00000000e+00, -1.39110294e+00, 1.06787274e+00, -7.93360276e-01, 4.03250577e+00, 0.00000000e+00, 5.0000000000, 5.0000000000, 0.0496999500
          43, 0.00000000e+00, 0.00000000e+00, 0.00000000e+00, 0.00000000e+00, 0.00000000e+00, 0.00000000e+00, 0.00000000e+00, 0.00000000e+00, 0.00000000e+00, 0.00000000e+00, 0.00000000e+00, 0.00000000e+00, -1.38951708e+00, 1.07339082e+00, -7.86735562e-01, 4.03355737e+00, 0.00000000e+00, 5.0000000000, 5.0000000000, 0.0508118167
          44, 0.00000000e+00, 0.00000000e+00, 0.00000000e+00, 0.00000000e+00, 0.00000000e+00, 0.00000000e+00, 0.00000000e+00, 0.00000000e+00, 0.00000000e+00, 0.00000000e+00, 0.00000000e+00, 0.00000000e+00, -1.38835474e+00, 1.08006200e+00, -7.81452543e-01, 4.03413095e+00, 0.00000000e+00, 5.0000000000, 5.0000000000, 0.0518132167
          45, 0.00000000e+00, 0.00000000e+00, 0.00000000e+00, 0.00000000e+00, 0.00000000e+00, 0.00000000e+00, 0.00000000e+00, 0.00000000e+00, 0.00000000e+00, 0.00000000e+00, 0.00000000e+00, 0.00000000e+00, -1.38797841e+00, 1.08779504e+00, -7.77702092e-01, 4.03385680e+00, 0.00000000e+00, 5.0000000000, 5.0000000000, 0.0527719667
          46, 0.00000000e+00, 0.00000000e+00, 0.00000000e+00, 0.00000000e+00, 0.00000000e+00, 0.00000000e+00, 0.00000000e+00, 0.00000000e+00, 0.00000000e+00, 0.00000000e+00, 0.00000000e+00, 0.00000000e+00, -1.38873394e+00, 1.09647373e+00, -7.75458967e-01, 4.03237672e+00, 0.00000000e+00, 5.0000000000, 5.0000000000, 0.0537996667
          47, 0.00000000e+00, 0.00000000e+00, 0.00000000e+00, 0.00000000e+00, 0.00000000e+00, 0.00000000e+00, 0.00000000e+00, 0.00000000e+00, 0.00000000e+00, 0.00000000e+00, 0.00000000e+00, 0.00000000e+00, -1.39092570e+00, 1.10596434e+00, -7.74490768e-01, 4.02937010e+00, 0.00000000e+00, 5.0000000000, 5.0000000000, 0.0547964667
          48, 0.00000000e+00, 0.00000000e+00, 0.00000000e+00, 0.00000000e+00, 0.00000000e+00, 0.00000000e+00, 0.00000000e+00, 0.00000000e+00, 0.00000000e+00, 0.00000000e+00, 0.00000000e+00, 0.00000000e+00, -1.39479996e+00, 1.11611752e+00, -7.74387047e-01, 4.02457279e+00, 0.00000000e+00, 5.0000000000, 5.0000000000, 0.0558642500
          49, 0.00000000e+00, 0.00000000e+00, 0.00000000e+00, 0.00000000e+00, 0.00000000e+00, 0.00000000e+00, 0.00000000e+00, 0.00000000e+00, 0.00000000e+00, 0.00000000e+00, 0.00000000e+00, 0.00000000e+00, -1.40053616e+00, 1.12676616e+00, -7.74614085e-01, 4.01778849e+00, 0.00000000e+00, 5.0000000000, 5.0000000000, 0.0569309500
          50, 0.00000000e+00, 0.00000000e+00, 0.00000000e+00, 0.00000000e+00, 0.00000000e+00, 0.00000000e+00, 0.00000000e+00, 0.00000000e+00, 0.00000000e+00, 0.00000000e+00, 0.00000000e+00, 0.00000000e+00, -1.40824279e+00, 1.13772237e+00, -7.74591660e-01, 4.00889606e+00, 0.00000000e+00, 5.0000000000, 5.0000000000, 0.0579185333
          51, 0.00000000e+00, 0.00000000e+00, 0.00000000e+00, 0.00000000e+00, 0.00000000e+00, 0.00000000e+00, 0.00000000e+00, 0.00000000e+00, 0.00000000e+00, 0.00000000e+00, 0.00000000e+00, 0.00000000e+00, -1.41795441e+00, 1.14877728e+00, -7.73778959e-01, 3.99785632e+00, 0.00000000e+00, 5.0000000000, 5.0000000000, 0.0589722000
          52, 0.00000000e+00, 0.00000000e+00, 0.00000000e+00, 0.00000000e+00, 0.00000000e+00, 0.00000000e+00, 0.00000000e+00, 0.00000000e+00, 0.00000000e+00, 0.00000000e+00, 0.00000000e+00, 0.00000000e+00, -1.42962688e+00, 1.15970519e+00, -7.71763882e-01, 3.98472139e+00, 0.00000000e+00, 5.0000000000, 5.0000000000, 0.0599693833
          53, 0.00000000e+00, 0.00000000e+00, 0.00000000e+00, 0.00000000e+00, 0.00000000e+00, 0.00000000e+00, 0.00000000e+00, 0.00000000e+00, 0.00000000e+00, 0.00000000e+00, 0.00000000e+00, 0.00000000e+00, -1.44312684e+00, 1.17027211e+00, -7.68321453e-01, 3.96965185e+00, 0.00000000e+00, 5.0000000000, 5.0000000000, 0.0610660333
          54, 0.00000000e+00, 0.00000000e+00, 0.00000000e+00, 0.00000000e+00, 0.00000000e+00, 0.00000000e+00, 0.00000000e+00, 0.00000000e+00, 0.00000000e+00, 0.00000000e+00, 0.00000000e+00, 0.00000000e+00, -1.45821466e+00, 1.18024656e+00, -7.63437277e-01, 3.95294265e+00, 0.00000000e+00, 5.0000000000, 5.0000000000, 0.0620828000
          55, 0.00000000e+00, 0.00000000e+00, 0.00000000e+00, 0.00000000e+00, 0.00000000e+00, 0.00000000e+00, 0.00000000e+00, 0.00000000e+00, 0.00000000e+00, 0.00000000e+00, 0.00000000e+00, 0.00000000e+00, -1.47452025e+00, 1.18940999e+00, -7.57294267e-01, 3.93505869e+00, 0.00000000e+00, 5.0000000000, 5.0000000000, 0.0631659833
          56, 0.00000000e+00, 0.00000000e+00, 0.00000000e+00, 0.00000000e+00, 0.00000000e+00, 0.00000000e+00, 0.00000000e+00, 0.00000000e+00, 0.00000000e+00, 0.00000000e+00, 0.00000000e+00, 0.00000000e+00, -1.49151352e+00, 1.19756493e+00, -7.50224783e-01, 3.91667729e+00, 0.00000000e+00, 5.0000000000, 5.0000000000, 0.0642214000
          57, 0.00000000e+00, 0.00000000e+00, 0.00000000e+00, 0.00000000e+00, 0.00000000e+00, 0.00000000e+00, 0.00000000e+00, 0.00000000e+00, 0.00000000e+00, 0.00000000e+00, 0.00000000e+00, 0.00000000e+00, -1.50847739e+00, 1.20453948e+00, -7.42659463e-01, 3.89872378e+00, 0.00000000e+00, 5.0000000000, 5.0000000000, 0.0652706000
          58, 0.00000000e+00, 0.00000000e+00, 0.00000000e+00, 0.00000000e+00, 0.00000000e+00, 0.00000000e+00, 0.00000000e+00, 0.00000000e+00, 0.00000000e+00, 0.00000000e+00, 0.00000000e+00, 0.00000000e+00, -1.52449527e+00, 1.21018830e+00, -7.35076326e-01, 3.88237960e+00, 0.00000000e+00, 5.0000000000, 5.0000000000, 0.0663843167
          59, 0.00000000e+00, 0.00000000e+00, 0.00000000e+00, 0.00000000e+00, 0.00000000e+00, 0.00000000e+00, 0.00000000e+00, 0.00000000e+00, 0.00000000e+00, 0.00000000e+00, 0.00000000e+00, 0.00000000e+00, -1.53847511e+00, 1.21439054e+00, -7.27964509e-01, 3.86902558e+00, 0.00000000e+00, 5.0000000000, 5.0000000000, 0.0675038500
          60, 0.00000000e+00, 0.00000000e+00, 0.00000000e+00, 0.00000000e+00, 0.00000000e+00, 0.00000000e+00, 0.00000000e+00, 0.00000000e+00, 0.00000000e+00, 0.00000000e+00, 0.00000000e+00, 0.00000000e+00, -1.54923443e+00, 1.21704566e+00, -7.21801229e-01, 3.86008583e+00, 0.00000000e+00, 5.0000000000, 5.0000000000, 0.0686420000
          61, 0.00000000e+00, 0.00000000e+00, 0.00000000e+00, 0.00000000e+00, 0.00000000e+00, 0.00000000e+00, 0.00000000e+00, 0.00000000e+00, 0.00000000e+00, 0.00000000e+00, 0.00000000e+00, 0.00000000e+00, -1.55565909e+00, 1.21806817e+00, -7.17039352e-01, 3.85677014e+00, 0.00000000e+00, 5.0000000000, 5.0000000000, 0.0697881000
          62, 0.00000000e+00, 0.00000000e+00, 0.00000000e+00, 0.00000000e+00, 0.00000000e+00, 0.00000000e+00, 0.00000000e+00, 0.00000000e+00, 0.00000000e+00, 0.00000000e+00, 0.00000000e+00, 0.00000000e+00, -1.55691409e+00, 1.21738212e+00, -7.14104046e-01, 3.85978277e+00, 0.00000000e+00, 5.0000000000, 5.0000000000, 0.0709211833
          63, 0.00000000e+00, 0.00000000e+00, 0.00000000e+00, 0.00000000e+00, 0.00000000e+00, 0.00000000e+00, 0.00000000e+00, 0.00000000e+00, 0.00000000e+00, 0.00000000e+00, 0.00000000e+00, 0.00000000e+00, -1.55263834e+00, 1.21491609e+00, -7.13393716e-01, 3.86912663e+00, 0.00000000e+00, 5.0000000000, 5.0000000000, 0.0719302833
          64, 0.00000000e+00, 0.00000000e+00, 0.00000000e+00, 0.00000000e+00, 0.00000000e+00, 0.00000000e+00, 0.00000000e+00, 0.00000000e+00, 0.00000000e+00, 0.00000000e+00, 0.00000000e+00, 0.00000000e+00, -1.54303660e+00, 1.21059932e+00, -7.15285824e-01, 3.88411082e+00, 0.00000000e+00, 5.0000000000, 5.0000000000, 0.0730056167
          65, 0.00000000e+00, 0.00000000e+00, 0.00000000e+00, 0.00000000e+00, 0.00000000e+00, 0.00000000e+00, 0.00000000e+00, 0.00000000e+00, 0.00000000e+00, 0.00000000e+00, 0.00000000e+00, 0.00000000e+00, -1.52882109e+00, 1.20435915e+00, -7.20151308e-01, 3.90355606e+00, 0.00000000e+00, 5.0000000000, 5.0000000000, 0.0740066000
          66, 0.00000000e+00, 0.00000000e+00, 0.00000000e+00, 0.00000000e+00, 0.00000000e+00, 0.00000000e+00, 0.00000000e+00, 0.00000000e+00, 0.00000000e+00, 0.00000000e+00, 0.00000000e+00, 0.00000000e+00, -1.51103398e+00, 1.19612025e+00, -7.28363149e-01, 3.92608485e+00, 0.00000000e+00, 5.0000000000, 5.0000000000, 0.0749942667
          67, 0.00000000e+00, 0.00000000e+00, 0.00000000e+00, 0.00000000e+00, 0.00000000e+00, 0.00000000e+00, 0.00000000e+00, 0.00000000e+00, 0.00000000e+00, 0.00000000e+00, 0.00000000e+00, 0.00000000e+00, -1.49083356e+00, 1.18580566e+00, -7.40309425e-01, 3.95037029e+00, 0.00000000e+00, 5.0000000000, 5.0000000000, 0.0761084167
          68, 0.00000000e+00, 0.00000000e+00, 0.00000000e+00, 0.00000000e+00, 0.00000000e+00, 0.00000000e+00, 0.00000000e+00, 0.00000000e+00, 0.00000000e+00, 0.00000000e+00, 0.00000000e+00, 0.00000000e+00, -1.46932029e+00, 1.17333970e+00, -7.56403229e-01, 3.97528237e+00, 0.00000000e+00, 5.0000000000, 5.0000000000, 0.0772234167
          69, 0.00000000e+00, 0.00000000e+00, 0.00000000e+00, 0.00000000e+00, 0.00000000e+00, 0.00000000e+00, 0.00000000e+00, 0.00000000e+00, 0.00000000e+00, 0.00000000e+00, 0.00000000e+00, 0.00000000e+00, -1.44743505e+00, 1.15865298e+00, -7.77085797e-01, 3.99993770e+00, 0.00000000e+00, 5.0000000000, 5.0000000000, 0.0783502333
          70, 0.00000000e+00, 0.00000000e+00, 0.00000000e+00, 0.00000000e+00, 0.00000000e+00, 0.00000000e+00, 0.00000000e+00, 0.00000000e+00, 0.00000000e+00, 0.00000000e+00, 0.00000000e+00, 0.00000000e+00, -1.42592245e+00, 1.14168934e+00, -8.02820405e-01, 4.02368887e+00, 0.00000000e+00, 5.0000000000, 5.0000000000, 0.0794718667
          71, 0.00000000e+00, 0.00000000e+00, 0.00000000e+00, 0.00000000e+00, 0.00000000e+00, 0.00000000e+00, 0.00000000e+00, 0.00000000e+00, 0.00000000e+00, 0.00000000e+00, 0.00000000e+00, 0.00000000e+00, -1.40533628e+00, 1.12241506e+00, -8.34058505e-01, 4.04608697e+00, 0.00000000e+00, 5.0000000000, 5.0000000000, 0.0806061667
          72, 0.00000000e+00, 0.00000000e+00, 0.00000000e+00, 0.00000000e+00, 0.00000000e+00, 0.00000000e+00, 0.00000000e+00, 0.00000000e+00, 0.00000000e+00, 0.00000000e+00, 0.00000000e+00, 0.00000000e+00, -1.38606455e+00, 1.10083052e+00, -8.71154333e-01, 4.06683951e+00, 0.00000000e+00, 5.0000000000, 5.0000000000, 0.0816200667
          73, 0.00000000e+00, 0.00000000e+00, 0.00000000e+00, 0.00000000e+00, 0.00000000e+00, 0.00000000e+00, 0.00000000e+00, 0.00000000e+00, 0.00000000e+00, 0.00000000e+00, 0.00000000e+00, 0.00000000e+00, -1.36835963e+00, 1.07698486e+00, -9.14162648e-01, 4.08577337e+00, 0.00000000e+00, 5.0000000000, 5.0000000000, 0.0826661333
          74, 0.00000000e+00, 0.00000000e+00, 0.00000000e+00, 0.00000000e+00, 0.00000000e+00, 0.00000000e+00, 0.00000000e+00, 0.00000000e+00, 0.00000000e+00, 0.00000000e+00, 0.00000000e+00, 0.00000000e+00, -1.35236658e+00, 1.05099420e+00, -9.62392937e-01, 4.10280533e+00, 0.00000000e+00, 5.0000000000, 5.0000000000, 0.0837571333
          75, 0.00000000e+00, 0.00000000e+00, 0.00000000e+00, 0.00000000e+00, 0.00000000e+00, 0.00000000e+00, 0.00000000e+00, 0.00000000e+00, 0.00000000e+00, 0.00000000e+00, 0.00000000e+00, 0.00000000e+00, -1.33814666e+00, 1.02306364e+00, -1.01351843e+00, 4.11792014e+00, 0.00000000e+00, 5.0000000000, 5.0000000000, 0.0848851833
          76, 0.00000000e+00, 0.00000000e+00, 0.00000000e+00, 0.00000000e+00, 0.00000000e+00, 0.00000000e+00, 0.00000000e+00, 0.00000000e+00, 0.00000000e+00, 0.00000000e+00, 0.00000000e+00, 0.00000000e+00, -1.32569626e+00, 9.93512748e-01, -1.06213221e+00, 4.13115424e+00, 0.00000000e+00, 5.0000000000, 5.0000000000, 0.0859959000
          77, 0.00000000e+00, 0.00000000e+00, 0.00000000e+00, 0.00000000e+00, 0.00000000e+00, 0.00000000e+00, 0.00000000e+00, 0.00000000e+00, 0.00000000e+00, 0.00000000e+00, 0.00000000e+00, 0.00000000e+00, -1.31496201e+00, 9.62802216e-01, -1.09864843e+00, 4.14258340e+00, 0.00000000e+00, 5.0000000000, 5.0000000000, 0.0871327833
          78, 0.00000000e+00, 0.00000000e+00, 0.00000000e+00, 0.00000000e+00, 0.00000000e+00, 0.00000000e+00, 0.00000000e+00, 0.00000000e+00, 0.00000000e+00, 0.00000000e+00, 0.00000000e+00, 0.00000000e+00, -1.30585304e+00, 9.31556140e-01, -1.11181477e+00, 4.15231295e+00, 0.00000000e+00, 5.0000000000, 5.0000000000, 0.0881843333
          79, 0.00000000e+00, 0.00000000e+00, 0.00000000e+00, 0.00000000e+00, 0.00000000e+00, 0.00000000e+00, 0.00000000e+00, 0.00000000e+00, 0.00000000e+00, 0.00000000e+00, 0.00000000e+00, 0.00000000e+00, -1.29825138e+00, 9.00569124e-01, -1.09672665e+00, 4.16046959e+00, 0.00000000e+00, 5.0000000000, 5.0000000000, 0.0892039167
          80, 0.00000000e+00, 0.00000000e+00, 0.00000000e+00, 0.00000000e+00, 0.00000000e+00, 0.00000000e+00, 0.00000000e+00, 0.00000000e+00, 0.00000000e+00, 0.00000000e+00, 0.00000000e+00, 0.00000000e+00, -1.29202126e+00, 8.70782694e-01, -1.05966193e+00, 4.16719392e+00, 0.00000000e+00, 5.0000000000, 5.0000000000, 0.0902546667
          81, 0.00000000e+00, 0.00000000e+00, 0.00000000e+00, 0.00000000e+00, 0.00000000e+00, 0.00000000e+00, 0.00000000e+00, 0.00000000e+00, 0.00000000e+00, 0.00000000e+00, 0.00000000e+00, 0.00000000e+00, -1.28701775e+00, 8.43214389e-01, -1.01211437e+00, 4.17263328e+00, 0.00000000e+00, 5.0000000000, 5.0000000000, 0.0913254500
          82, 0.00000000e+00, 0.00000000e+00, 0.00000000e+00, 0.00000000e+00, 0.00000000e+00, 0.00000000e+00, 0.00000000e+00, 0.00000000e+00, 0.00000000e+00, 0.00000000e+00, 0.00000000e+00, 0.00000000e+00, -1.28309491e+00, 8.18833494e-01, -9.63254230e-01, 4.17693486e+00, 0.00000000e+00, 5.0000000000, 5.0000000000, 0.0924390000
          83, 0.00000000e+00, 0.00000000e+00, 0.00000000e+00, 0.00000000e+00, 0.00000000e+00, 0.00000000e+00, 0.00000000e+00, 0.00000000e+00, 0.00000000e+00, 0.00000000e+00, 0.00000000e+00, 0.00000000e+00, -1.28011351e+00, 7.98402396e-01, -9.18109780e-01, 4.18023889e+00, 0.00000000e+00, 5.0000000000, 5.0000000000, 0.0934779167
          84, 0.00000000e+00, 0.00000000e+00, 0.00000000e+00, 0.00000000e+00, 0.00000000e+00, 0.00000000e+00, 0.00000000e+00, 0.00000000e+00, 0.00000000e+00, 0.00000000e+00, 0.00000000e+00, 0.00000000e+00, -1.27794819e+00, 7.82333857e-01, -8.78837654e-01, 4.18267223e+00, 0.00000000e+00, 5.0000000000, 5.0000000000, 0.0945730833
          85, 0.00000000e+00, 0.00000000e+00, 0.00000000e+00, 0.00000000e+00, 0.00000000e+00, 0.00000000e+00, 0.00000000e+00, 0.00000000e+00, 0.00000000e+00, 0.00000000e+00, 0.00000000e+00, 0.00000000e+00, -1.27649371e+00, 7.70626182e-01, -8.46110421e-01, 4.18434254e+00, 0.00000000e+00, 5.0000000000, 5.0000000000, 0.0956785167
          86, 0.00000000e+00, 0.00000000e+00, 0.00000000e+00, 0.00000000e+00, 0.00000000e+00, 0.00000000e+00, 0.00000000e+00, 0.00000000e+00, 0.00000000e+00, 0.00000000e+00, 0.00000000e+00, 0.00000000e+00, -1.27566991e+00, 7.62911205e-01, -8.19936970e-01, 4.18533348e+00, 0.00000000e+00, 5.0000000000, 5.0000000000, 0.0968340000
          87, 0.00000000e+00, 0.00000000e+00, 0.00000000e+00, 0.00000000e+00, 0.00000000e+00, 0.00000000e+00, 0.00000000e+00, 0.00000000e+00, 0.00000000e+00, 0.00000000e+00, 0.00000000e+00, 0.00000000e+00, -1.27542504e+00, 7.58596362e-01, -8.00063684e-01, 4.18570137e+00, 0.00000000e+00, 5.0000000000, 5.0000000000, 0.0979026667
          88, 0.00000000e+00, 0.00000000e+00, 0.00000000e+00, 0.00000000e+00, 0.00000000e+00, 0.00000000e+00, 0.00000000e+00, 0.00000000e+00, 0.00000000e+00, 0.00000000e+00, 0.00000000e+00, 0.00000000e+00, -1.27573723e+00, 7.57042038e-01, -7.86152650e-01, 4.18547341e+00, 0.00000000e+00, 5.0000000000, 5.0000000000, 0.0990097833
          89, 0.00000000e+00, 0.00000000e+00, 0.00000000e+00, 0.00000000e+00, 0.00000000e+00, 0.00000000e+00, 0.00000000e+00, 0.00000000e+00, 0.00000000e+00, 0.00000000e+00, 0.00000000e+00, 0.00000000e+00, -1.27661399e+00, 7.57712978e-01, -7.77854029e-01, 4.18464781e+00, 0.00000000e+00, 5.0000000000, 5.0000000000, 0.1000875333