TITLE = "SU2 Simulation"
VARIABLES = "Iteration","CL","CD","CSF","CMx","CMy","CMz","CFx","CFy","CFz","CL/CD","AoA","Custom_ObjFunc","Res_Flow[0]","Res_Flow[1]","Res_Flow[2]","Res_Flow[3]","Res_Flow[4]","Linear_Solver_Iterations","CFL_Number","Time(min)"
ZONE T= "Convergence history"
           0, 0.00000000e+00, 0.00000000e+00, 0.00000000e+00, 0.00000000e+00, 0.00000000e+00, 0.00000000e+00, 0.00000000e+00, 0.00000000e+00, 0.00000000e+00, 0.00000000e+00, 0.00000000e+00, 0.00000000e+00, -4.33814661e+00, -1.85205615e+00, -1.27610698e+01, 1.10667880e+00, 0.00000000e+00, 5.0000000000, 5.0000000000, 0.0005709167
           1, 0.00000000e+00, 0.00000000e+00, 0.00000000e+00, 0.00000000e+00, 0.00000000e+00, 0.00000000e+00, 0.00000000e+00, 0.00000000e+00, 0.00000000e+00, 0.00000000e+00, 0.00000000e+00, 0.00000000e+00, -4.55924927e+00, -2.07697750e+00, -3.70225072e+00, 8.86570211e-01, 0.00000000e+00, 5.0000000000, 5.0000000000, 0.0011176000
           2, 0.00000000e+00, 0.00000000e+00, 0.00000000e+00, 0.00000000e+00, 0.00000000e+00, 0.00000000e+00, 0.00000000e+00, 0.00000000e+00, 0.00000000e+00, 0.00000000e+00, 0.00000000e+00, 0.00000000e+00, -4.67729620e+00, -2.18873808e+00, -1.99245810e+00, 7.70575760e-01, 0.00000000e+00, 5.0000000000, 5.0000000000, 0.0016570333
           3, 0.00000000e+00, 0.00000000e+00, 0.00000000e+00, 0.00000000e+00, 0.00000000e+00, 0.00000000e+00, 0.00000000e+00, 0.00000000e+00, 0.00000000e+00, 0.00000000e+00, 0.00000000e+00, 0.00000000e+00, -4.71190846e+00, -2.21563247e+00, -1.70696919e+00, 7.37253588e-01, 0.00000000e+00, 5.0000000000, 5.0000000000, 0.0021705500
           4, 0.00000000e+00, 0.00000000e+00, 0.00000000e+00, 0.00000000e+00, 0.00000000e+00, 0.00000000e+00, 0.00000000e+00, 0.00000000e+00, 0.00000000e+00, 0.00000000e+00, 0.00000000e+00, 0.00000000e+00, -4.73155763e+00, -2.22916721e+00, -1.54908436e+00, 7.17722595e-01, 0.00000000e+00, 5.0000000000, 5.0000000000, 0.0027602000
           5, 0.00000000e+00, 0.00000000e+00, 0.00000000e+00, 0.00000000e+00, 0.00000000e+00, 0.00000000e+00, 0.00000000e+00, 0.00000000e+00, 0.00000000e+00, 0.00000000e+00, 0.00000000e+00, 0.00000000e+00, -4.75888244e+00, -2.24879481e+00, -1.44189334e+00, 6.89419156e-01, 0.00000000e+00, 5.0000000000, 5.0000000000, 0.0034668167
           6, 0.00000000e+00, 0.00000000e+00, 0.00000000e+00, 0.00000000e+00, 0.00000000e+00, 0.00000000e+00, 0.00000000e+00, 0.00000000e+00, 0.00000000e+00, 0.00000000e+00, 0.00000000e+00, 0.00000000e+00, -4.79028152e+00, -2.27152308e+00, -1.36190014e+00, 6.56796495e-01, 0.00000000e+00, 5.0000000000, 5.0000000000, 0.0042318833
           7, 0.00000000e+00, 0.00000000e+00, 0.00000000e+00, 0.00000000e+00, 0.00000000e+00, 0.00000000e+00, 0.00000000e+00, 0.00000000e+00, 0.00000000e+00, 0.00000000e+00, 0.00000000e+00, 0.00000000e+00, -4.81763510e+00, -2.29221802e+00, -1.29889533e+00, 6.28820069e-01, 0.00000000e+00, 5.0000000000, 5.0000000000, 0.0050011667
           8, 0.00000000e+00, 0.00000000e+00, 0.00000000e+00, 0.00000000e+00, 0.00000000e+00, 0.00000000e+00, 0.00000000e+00, 0.00000000e+00, 0.00000000e+00, 0.00000000e+00, 0.00000000e+00, 0.00000000e+00, -4.83492871e+00, -2.30747725e+00, -1.24824843e+00, 6.11993485e-01, 0.00000000e+00, 5.0000000000, 5.0000000000, 0.0061893333
           9, 0.00000000e+00, 0.00000000e+00, 0.00000000e+00, 0.00000000e+00, 0.00000000e+00, 0.00000000e+00, 0.00000000e+00, 0.00000000e+00, 0.00000000e+00, 0.00000000e+00, 0.00000000e+00, 0.00000000e+00, -4.84107220e+00, -2.31531912e+00, -1.20642208e+00, 6.07324614e-01, 0.00000000e+00, 5.0000000000, 5.0000000000, 0.0076416833
          10, 0.00000000e+00, 0.00000000e+00, 0.00000000e+00, 0.00000000e+00, 0.00000000e+00, 0.00000000e+00, 0.00000000e+00, 0.00000000e+00, 0.00000000e+00, 0.00000000e+00, 0.00000000e+00, 0.00000000e+00, -4.84009442e+00, -2.31611074e+00, -1.17112215e+00, 6.10220634e-01, 0.00000000e+00, 5.0000000000, 5.0000000000, 0.0085362333
          11, 0.00000000e+00, 0.00000000e+00, 0.00000000e+00, 0.00000000e+00, 0.00000000e+00, 0.00000000e+00, 0.00000000e+00, 0.00000000e+00, 0.00000000e+00, 0.00000000e+00, 0.00000000e+00, 0.00000000e+00, -4.83641900e+00, -2.31136405e+00, -1.14087572e+00, 6.15811780e-01, 0.00000000e+00, 5.0000000000, 5.0000000000, 0.0095376000
          12, 0.00000000e+00, 0.00000000e+00, 0.00000000e+00, 0.00000000e+00, 0.00000000e+00, 0.00000000e+00, 0.00000000e+00, 0.00000000e+00, 0.00000000e+00, 0.00000000e+00, 0.00000000e+00, 0.00000000e+00, -4.83161938e+00, -2.30254084e+00, -1.11464991e+00, 6.22427480e-01, 0.00000000e+00, 5.0000000000, 5.0000000000, 0.0105689500
          13, 0.00000000e+00, 0.00000000e+00, 0.00000000e+00, 0.00000000e+00, 0.00000000e+00, 0.00000000e+00, 0.00000000e+00, 0.00000000e+00, 0.00000000e+00, 0.00000000e+00, 0.00000000e+00, 0.00000000e+00, -4.82506797e+00, -2.29076579e+00, -1.09167755e+00, 6.30752285e-01, 0.00000000e+00, 5.0000000000, 5.0000000000, 0.0117171333
          14, 0.00000000e+00, 0.00000000e+00, 0.00000000e+00, 0.00000000e+00, 0.00000000e+00, 0.00000000e+00, 0.00000000e+00, 0.00000000e+00, 0.00000000e+00, 0.00000000e+00, 0.00000000e+00, 0.00000000e+00, -4.81621219e+00, -2.27710562e+00, -1.07140617e+00, 6.41335569e-01, 0.00000000e+00, 5.0000000000, 5.0000000000, 0.0123621500
          15, 0.00000000e+00, 0.00000000e+00, 0.00000000e+00, 0.00000000e+00, 0.00000000e+00, 0.00000000e+00, 0.00000000e+00, 0.00000000e+00, 0.00000000e+00, 0.00000000e+00, 0.00000000e+00, 0.00000000e+00, -4.80577088e+00, -2.26270836e+00, -1.05345681e+00, 6.53365800e-01, 0.00000000e+00, 5.0000000000, 5.0000000000, 0.0130860500
          16, 0.00000000e+00, 0.00000000e+00, 0.00000000e+00, 0.00000000e+00, 0.00000000e+00, 0.00000000e+00, 0.00000000e+00, 0.00000000e+00, 0.00000000e+00, 0.00000000e+00, 0.00000000e+00, 0.00000000e+00, -4.79511333e+00, -2.24855609e+00, -1.03753027e+00, 6.65387057e-01, 0.00000000e+00, 5.0000000000, 5.0000000000, 0.0146533667
          17, 0.00000000e+00, 0.00000000e+00, 0.00000000e+00, 0.00000000e+00, 0.00000000e+00, 0.00000000e+00, 0.00000000e+00, 0.00000000e+00, 0.00000000e+00, 0.00000000e+00, 0.00000000e+00, 0.00000000e+00, -4.78517123e+00, -2.23525312e+00, -1.02336716e+00, 6.76448205e-01, 0.00000000e+00, 5.0000000000, 5.0000000000, 0.0153302667
          18, 0.00000000e+00, 0.00000000e+00, 0.00000000e+00, 0.00000000e+00, 0.00000000e+00, 0.00000000e+00, 0.00000000e+00, 0.00000000e+00, 0.00000000e+00, 0.00000000e+00, 0.00000000e+00, 0.00000000e+00, -4.77605287e+00, -2.22302134e+00, -1.01074433e+00, 6.86478108e-01, 0.00000000e+00, 5.0000000000, 5.0000000000, 0.0159936000
          19, 0.00000000e+00, 0.00000000e+00, 0.00000000e+00, 0.00000000e+00, 0.00000000e+00, 0.00000000e+00, 0.00000000e+00, 0.00000000e+00, 0.00000000e+00, 0.00000000e+00, 0.00000000e+00, 0.00000000e+00, -4.76737491e+00, -2.21182063e+00, -9.99470355e-01, 6.95918022e-01, 0.00000000e+00, 5.0000000000, 5.0000000000, 0.0166370167
          20, 0.00000000e+00, 0.00000000e+00, 0.00000000e+00, 0.00000000e+00, 0.00000000e+00, 0.00000000e+00, 0.00000000e+00, 0.00000000e+00, 0.00000000e+00, 0.00000000e+00, 0.00000000e+00, 0.00000000e+00, -4.75877843e+00, -2.20150166e+00, -9.89380024e-01, 7.05177971e-01, 0.00000000e+00, 5.0000000000, 5.0000000000, 0.0175818333
          21, 0.00000000e+00, 0.00000000e+00, 0.00000000e+00, 0.00000000e+00, 0.00000000e+00, 0.00000000e+00, 0.00000000e+00, 0.00000000e+00, 0.00000000e+00, 0.00000000e+00, 0.00000000e+00, 0.00000000e+00, -4.75019364e+00, -2.19192508e+00, -9.80330385e-01, 7.14360719e-01, 0.00000000e+00, 5.0000000000, 5.0000000000, 0.0181576000
          22, 0.00000000e+00, 0.00000000e+00, 0.00000000e+00, 0.00000000e+00, 0.00000000e+00, 0.00000000e+00, 0.00000000e+00, 0.00000000e+00, 0.00000000e+00, 0.00000000e+00, 0.00000000e+00, 0.00000000e+00, -4.74177761e+00, -2.18302501e+00, -9.72197635e-01, 7.23324869e-01, 0.00000000e+00, 5.0000000000, 5.0000000000, 0.0188030667
          23, 0.00000000e+00, 0.00000000e+00, 0.00000000e+00, 0.00000000e+00, 0.00000000e+00, 0.00000000e+00, 0.00000000e+00, 0.00000000e+00, 0.00000000e+00, 0.00000000e+00, 0.00000000e+00, 0.00000000e+00, -4.73371511e+00, -2.17482839e+00, -9.64874630e-01, 7.31889953e-01, 0.00000000e+00, 5.0000000000, 5.0000000000, 0.0193367500
          24, 0.00000000e+00, 0.00000000e+00, 0.00000000e+00, 0.00000000e+00, 0.00000000e+00, 0.00000000e+00, 0.00000000e+00, 0.00000000e+00, 0.00000000e+00, 0.00000000e+00, 0.00000000e+00, 0.00000000e+00, -4.72608124e+00, -2.16745137e+00, -9.58269153e-01, 7.39979391e-01, 0.00000000e+00, 5.0000000000, 5.0000000000, 0.0199209167
          25, 0.00000000e+00, 0.00000000e+00, 0.00000000e+00, 0.00000000e+00, 0.00000000e+00, 0.00000000e+00, 0.00000000e+00, 0.00000000e+00, 0.00000000e+00, 0.00000000e+00, 0.00000000e+00, 0.00000000e+00, -4.71882583e+00, -2.16108605e+00, -9.52302090e-01, 7.47639885e-01, 0.00000000e+00, 5.0000000000, 5.0000000000, 0.0204260333
          26, 0.00000000e+00, 0.00000000e+00, 0.00000000e+00, 0.00000000e+00, 0.00000000e+00, 0.00000000e+00, 0.00000000e+00, 0.00000000e+00, 0.00000000e+00, 0.00000000e+00, 0.00000000e+00, 0.00000000e+00, -4.71182013e+00, -2.15598495e+00, -9.46905655e-01, 7.54996709e-01, 0.00000000e+00, 5.0000000000, 5.0000000000, 0.0209312833
          27, 0.00000000e+00, 0.00000000e+00, 0.00000000e+00, 0.00000000e+00, 0.00000000e+00, 0.00000000e+00, 0.00000000e+00, 0.00000000e+00, 0.00000000e+00, 0.00000000e+00, 0.00000000e+00, 0.00000000e+00, -4.70490136e+00, -2.15244311e+00, -9.42021559e-01, 7.62210204e-01, 0.00000000e+00, 5.0000000000, 5.0000000000, 0.0214182000
          28, 0.00000000e+00, 0.00000000e+00, 0.00000000e+00, 0.00000000e+00, 0.00000000e+00, 0.00000000e+00, 0.00000000e+00, 0.00000000e+00, 0.00000000e+00, 0.00000000e+00, 0.00000000e+00, 0.00000000e+00, -4.69789068e+00, -2.15077721e+00, -9.37599447e-01, 7.69458215e-01, 0.00000000e+00, 5.0000000000, 5.0000000000, 0.0219404500
          29, 0.00000000e+00, 0.00000000e+00, 0.00000000e+00, 0.00000000e+00, 0.00000000e+00, 0.00000000e+00, 0.00000000e+00, 0.00000000e+00, 0.00000000e+00, 0.00000000e+00, 0.00000000e+00, 0.00000000e+00, -4.69060246e+00, -2.15130177e+00, -9.33595428e-01, 7.76927195e-01, 0.00000000e+00, 5.0000000000, 5.0000000000, 0.0224824833
          30, 0.00000000e+00, 0.00000000e+00, 0.00000000e+00, 0.00000000e+00, 0.00000000e+00, 0.00000000e+00, 0.00000000e+00, 0.00000000e+00, 0.00000000e+00, 0.00000000e+00, 0.00000000e+00, 0.00000000e+00, -4.68286941e+00, -2.15430423e+00, -9.29970788e-01, 7.84787388e-01, 0.00000000e+00, 5.0000000000, 5.0000000000, 0.0229503833
          31, 0.00000000e+00, 0.00000000e+00, 0.00000000e+00, 0.00000000e+00, 0.00000000e+00, 0.00000000e+00, 0.00000000e+00, 0.00000000e+00, 0.00000000e+00, 0.00000000e+00, 0.00000000e+00, 0.00000000e+00, -4.67458707e+00, -2.16001952e+00, -9.26690929e-01, 7.93148887e-01, 0.00000000e+00, 5.0000000000, 5.0000000000, 0.0234000833
          32, 0.00000000e+00, 0.00000000e+00, 0.00000000e+00, 0.00000000e+00, 0.00000000e+00, 0.00000000e+00, 0.00000000e+00, 0.00000000e+00, 0.00000000e+00, 0.00000000e+00, 0.00000000e+00, 0.00000000e+00, -4.66575844e+00, -2.16860469e+00, -9.23724573e-01, 8.02017167e-01, 0.00000000e+00, 5.0000000000, 5.0000000000, 0.0238305167
          33, 0.00000000e+00, 0.00000000e+00, 0.00000000e+00, 0.00000000e+00, 0.00000000e+00, 0.00000000e+00, 0.00000000e+00, 0.00000000e+00, 0.00000000e+00, 0.00000000e+00, 0.00000000e+00, 0.00000000e+00, -4.65651452e+00, -2.18011330e+00, -9.21043237e-01, 8.11272070e-01, 0.00000000e+00, 5.0000000000, 5.0000000000, 0.0243117500
          34, 0.00000000e+00, 0.00000000e+00, 0.00000000e+00, 0.00000000e+00, 0.00000000e+00, 0.00000000e+00, 0.00000000e+00, 0.00000000e+00, 0.00000000e+00, 0.00000000e+00, 0.00000000e+00, 0.00000000e+00, -4.64709967e+00, -2.19446935e+00, -9.18620922e-01, 8.20681455e-01, 0.00000000e+00, 5.0000000000, 5.0000000000, 0.0247661833
          35, 0.00000000e+00, 0.00000000e+00, 0.00000000e+00, 0.00000000e+00, 0.00000000e+00, 0.00000000e+00, 0.00000000e+00, 0.00000000e+00, 0.00000000e+00, 0.00000000e+00, 0.00000000e+00, 0.00000000e+00, -4.63782959e+00, -2.21143853e+00, -9.16433981e-01, 8.29941847e-01, 0.00000000e+00, 5.0000000000, 5.0000000000, 0.0253496833
          36, 0.00000000e+00, 0.00000000e+00, 0.00000000e+00, 0.00000000e+00, 0.00000000e+00, 0.00000000e+00, 0.00000000e+00, 0.00000000e+00, 0.00000000e+00, 0.00000000e+00, 0.00000000e+00, 0.00000000e+00, -4.62903997e+00, -2.23059661e+00, -9.14460985e-01, 8.38728698e-01, 0.00000000e+00, 5.0000000000, 5.0000000000, 0.0258966500
          37, 0.00000000e+00, 0.00000000e+00, 0.00000000e+00, 0.00000000e+00, 0.00000000e+00, 0.00000000e+00, 0.00000000e+00, 0.00000000e+00, 0.00000000e+00, 0.00000000e+00, 0.00000000e+00, 0.00000000e+00, -4.62104165e+00, -2.25129755e+00, -9.12682655e-01, 8.46740414e-01, 0.00000000e+00, 5.0000000000, 5.0000000000, 0.0264221167
          38, 0.00000000e+00, 0.00000000e+00, 0.00000000e+00, 0.00000000e+00, 0.00000000e+00, 0.00000000e+00, 0.00000000e+00, 0.00000000e+00, 0.00000000e+00, 0.00000000e+00, 0.00000000e+00, 0.00000000e+00, -4.61409318e+00, -2.27264512e+00, -9.11081882e-01, 8.53725598e-01, 0.00000000e+00, 5.0000000000, 5.0000000000, 0.0268899500
          39, 0.00000000e+00, 0.00000000e+00, 0.00000000e+00, 0.00000000e+00, 0.00000000e+00, 0.00000000e+00, 0.00000000e+00, 0.00000000e+00, 0.00000000e+00, 0.00000000e+00, 0.00000000e+00, 0.00000000e+00, -4.60839080e+00, -2.29348077e+00, -9.09643521e-01, 8.59493200e-01, 0.00000000e+00, 5.0000000000, 5.0000000000, 0.0274415000
          40, 0.00000000e+00, 0.00000000e+00, 0.00000000e+00, 0.00000000e+00, 0.00000000e+00, 0.00000000e+00, 0.00000000e+00, 0.00000000e+00, 0.00000000e+00, 0.00000000e+00, 0.00000000e+00, 0.00000000e+00, -4.60407215e+00, -2.31241112e+00, -9.08354345e-01, 8.63909229e-01, 0.00000000e+00, 5.0000000000, 5.0000000000, 0.0279550333
          41, 0.00000000e+00, 0.00000000e+00, 0.00000000e+00, 0.00000000e+00, 0.00000000e+00, 0.00000000e+00, 0.00000000e+00, 0.00000000e+00, 0.00000000e+00, 0.00000000e+00, 0.00000000e+00, 0.00000000e+00, -4.60122814e+00, -2.32790953e+00, -9.07203614e-01, 8.66885300e-01, 0.00000000e+00, 5.0000000000, 5.0000000000, 0.0285502500
          42, 0.00000000e+00, 0.00000000e+00, 0.00000000e+00, 0.00000000e+00, 0.00000000e+00, 0.00000000e+00, 0.00000000e+00, 0.00000000e+00, 0.00000000e+00, 0.00000000e+00, 0.00000000e+00, 0.00000000e+00, -4.59991806e+00, -2.33851599e+00, -9.06183474e-01, 8.68364068e-01, 0.00000000e+00, 5.0000000000, 5.0000000000, 0.0291111167
          43, 0.00000000e+00, 0.00000000e+00, 0.00000000e+00, 0.00000000e+00, 0.00000000e+00, 0.00000000e+00, 0.00000000e+00, 0.00000000e+00, 0.00000000e+00, 0.00000000e+00, 0.00000000e+00, 0.00000000e+00, -4.60018303e+00, -2.34311528e+00, -9.05287206e-01, 8.68306143e-01, 0.00000000e+00, 5.0000000000, 5.0000000000, 0.0297592333
          44, 0.00000000e+00, 0.00000000e+00, 0.00000000e+00, 0.00000000e+00, 0.00000000e+00, 0.00000000e+00, 0.00000000e+00, 0.00000000e+00, 0.00000000e+00, 0.00000000e+00, 0.00000000e+00, 0.00000000e+00, -4.60205403e+00, -2.34119857e+00, -9.04504273e-01, 8.66682864e-01, 0.00000000e+00, 5.0000000000, 5.0000000000, 0.0303801333
          45, 0.00000000e+00, 0.00000000e+00, 0.00000000e+00, 0.00000000e+00, 0.00000000e+00, 0.00000000e+00, 0.00000000e+00, 0.00000000e+00, 0.00000000e+00, 0.00000000e+00, 0.00000000e+00, 0.00000000e+00, -4.60555382e+00, -2.33300114e+00, -9.03821944e-01, 8.63474841e-01, 0.00000000e+00, 5.0000000000, 5.0000000000, 0.0309160000
          46, 0.00000000e+00, 0.00000000e+00, 0.00000000e+00, 0.00000000e+00, 0.00000000e+00, 0.00000000e+00, 0.00000000e+00, 0.00000000e+00, 0.00000000e+00, 0.00000000e+00, 0.00000000e+00, 0.00000000e+00, -4.61069414e+00, -2.31943812e+00, -9.03230095e-01, 8.58674262e-01, 0.00000000e+00, 5.0000000000, 5.0000000000, 0.0315226667
          47, 0.00000000e+00, 0.00000000e+00, 0.00000000e+00, 0.00000000e+00, 0.00000000e+00, 0.00000000e+00, 0.00000000e+00, 0.00000000e+00, 0.00000000e+00, 0.00000000e+00, 0.00000000e+00, 0.00000000e+00, -4.61746799e+00, -2.30185447e+00, -9.02720843e-01, 8.52292179e-01, 0.00000000e+00, 5.0000000000, 5.0000000000, 0.0319992000
          48, 0.00000000e+00, 0.00000000e+00, 0.00000000e+00, 0.00000000e+00, 0.00000000e+00, 0.00000000e+00, 0.00000000e+00, 0.00000000e+00, 0.00000000e+00, 0.00000000e+00, 0.00000000e+00, 0.00000000e+00, -4.62583867e+00, -2.28172099e+00, -9.02287472e-01, 8.44369135e-01, 0.00000000e+00, 5.0000000000, 5.0000000000, 0.0325271167
          49, 0.00000000e+00, 0.00000000e+00, 0.00000000e+00, 0.00000000e+00, 0.00000000e+00, 0.00000000e+00, 0.00000000e+00, 0.00000000e+00, 0.00000000e+00, 0.00000000e+00, 0.00000000e+00, 0.00000000e+00, -4.63572802e+00, -2.26039580e+00, -9.01923908e-01, 8.34986203e-01, 0.00000000e+00, 5.0000000000, 5.0000000000, 0.0330557167
          50, 0.00000000e+00, 0.00000000e+00, 0.00000000e+00, 0.00000000e+00, 0.00000000e+00, 0.00000000e+00, 0.00000000e+00, 0.00000000e+00, 0.00000000e+00, 0.00000000e+00, 0.00000000e+00, 0.00000000e+00, -4.64700671e+00, -2.23899439e+00, -9.01624555e-01, 8.24273885e-01, 0.00000000e+00, 5.0000000000, 5.0000000000, 0.0335882833
          51, 0.00000000e+00, 0.00000000e+00, 0.00000000e+00, 0.00000000e+00, 0.00000000e+00, 0.00000000e+00, 0.00000000e+00, 0.00000000e+00, 0.00000000e+00, 0.00000000e+00, 0.00000000e+00, 0.00000000e+00, -4.65948848e+00, -2.21835205e+00, -9.01384252e-01, 8.12416763e-01, 0.00000000e+00, 5.0000000000, 5.0000000000, 0.0342671667
          52, 0.00000000e+00, 0.00000000e+00, 0.00000000e+00, 0.00000000e+00, 0.00000000e+00, 0.00000000e+00, 0.00000000e+00, 0.00000000e+00, 0.00000000e+00, 0.00000000e+00, 0.00000000e+00, 0.00000000e+00, -4.67293046e+00, -2.19904184e+00, -9.01198220e-01, 7.99652065e-01, 0.00000000e+00, 5.0000000000, 5.0000000000, 0.0351548333
          53, 0.00000000e+00, 0.00000000e+00, 0.00000000e+00, 0.00000000e+00, 0.00000000e+00, 0.00000000e+00, 0.00000000e+00, 0.00000000e+00, 0.00000000e+00, 0.00000000e+00, 0.00000000e+00, 0.00000000e+00, -4.68704126e+00, -2.18141645e+00, -9.01062042e-01, 7.86260712e-01, 0.00000000e+00, 5.0000000000, 5.0000000000, 0.0359264500
          54, 0.00000000e+00, 0.00000000e+00, 0.00000000e+00, 0.00000000e+00, 0.00000000e+00, 0.00000000e+00, 0.00000000e+00, 0.00000000e+00, 0.00000000e+00, 0.00000000e+00, 0.00000000e+00, 0.00000000e+00, -4.70149770e+00, -2.16565485e+00, -9.00971623e-01, 7.72550177e-01, 0.00000000e+00, 5.0000000000, 5.0000000000, 0.0372144000
          55, 0.00000000e+00, 0.00000000e+00, 0.00000000e+00, 0.00000000e+00, 0.00000000e+00, 0.00000000e+00, 0.00000000e+00, 0.00000000e+00, 0.00000000e+00, 0.00000000e+00, 0.00000000e+00, 0.00000000e+00, -4.71597018e+00, -2.15180504e+00, -9.00923158e-01, 7.58829665e-01, 0.00000000e+00, 5.0000000000, 5.0000000000, 0.0379464500
          56, 0.00000000e+00, 0.00000000e+00, 0.00000000e+00, 0.00000000e+00, 0.00000000e+00, 0.00000000e+00, 0.00000000e+00, 0.00000000e+00, 0.00000000e+00, 0.00000000e+00, 0.00000000e+00, 0.00000000e+00, -4.73015456e+00, -2.13981994e+00, -9.00913107e-01, 7.45379950e-01, 0.00000000e+00, 5.0000000000, 5.0000000000, 0.0388164833
          57, 0.00000000e+00, 0.00000000e+00, 0.00000000e+00, 0.00000000e+00, 0.00000000e+00, 0.00000000e+00, 0.00000000e+00, 0.00000000e+00, 0.00000000e+00, 0.00000000e+00, 0.00000000e+00, 0.00000000e+00, -4.74380630e+00, -2.12958678e+00, -9.00938158e-01, 7.32422034e-01, 0.00000000e+00, 5.0000000000, 5.0000000000, 0.0396808833
          58, 0.00000000e+00, 0.00000000e+00, 0.00000000e+00, 0.00000000e+00, 0.00000000e+00, 0.00000000e+00, 0.00000000e+00, 0.00000000e+00, 0.00000000e+00, 0.00000000e+00, 0.00000000e+00, 0.00000000e+00, -4.75677094e+00, -2.12095067e+00, -9.00995232e-01, 7.20090168e-01, 0.00000000e+00, 5.0000000000, 5.0000000000, 0.0402410500
          59, 0.00000000e+00, 0.00000000e+00, 0.00000000e+00, 0.00000000e+00, 0.00000000e+00, 0.00000000e+00, 0.00000000e+00, 0.00000000e+00, 0.00000000e+00, 0.00000000e+00, 0.00000000e+00, 0.00000000e+00, -4.76900465e+00, -2.11373354e+00, -9.01081464e-01, 7.08414581e-01, 0.00000000e+00, 5.0000000000, 5.0000000000, 0.0407726333
          60, 0.00000000e+00, 0.00000000e+00, 0.00000000e+00, 0.00000000e+00, 0.00000000e+00, 0.00000000e+00, 0.00000000e+00, 0.00000000e+00, 0.00000000e+00, 0.00000000e+00, 0.00000000e+00, 0.00000000e+00, -4.78058060e+00, -2.10774918e+00, -9.01194182e-01, 6.97317302e-01, 0.00000000e+00, 5.0000000000, 5.0000000000, 0.0413218833
          61, 0.00000000e+00, 0.00000000e+00, 0.00000000e+00, 0.00000000e+00, 0.00000000e+00, 0.00000000e+00, 0.00000000e+00, 0.00000000e+00, 0.00000000e+00, 0.00000000e+00, 0.00000000e+00, 0.00000000e+00, -4.79168035e+00, -2.10281498e+00, -9.01330919e-01, 6.86621221e-01, 0.00000000e+00, 5.0000000000, 5.0000000000, 0.0418744333
          62, 0.00000000e+00, 0.00000000e+00, 0.00000000e+00, 0.00000000e+00, 0.00000000e+00, 0.00000000e+00, 0.00000000e+00, 0.00000000e+00, 0.00000000e+00, 0.00000000e+00, 0.00000000e+00, 0.00000000e+00, -4.80257331e+00, -2.09876063e+00, -9.01489407e-01, 6.76069414e-01, 0.00000000e+00, 5.0000000000, 5.0000000000, 0.0424338833
          63, 0.00000000e+00, 0.00000000e+00, 0.00000000e+00, 0.00000000e+00, 0.00000000e+00, 0.00000000e+00, 0.00000000e+00, 0.00000000e+00, 0.00000000e+00, 0.00000000e+00, 0.00000000e+00, 0.00000000e+00, -4.81358954e+00, -2.09543404e+00, -9.01667568e-01, 6.65349766e-01, 0.00000000e+00, 5.0000000000, 5.0000000000, 0.0428727000
          64, 0.00000000e+00, 0.00000000e+00, 0.00000000e+00, 0.00000000e+00, 0.00000000e+00, 0.00000000e+00, 0.00000000e+00, 0.00000000e+00, 0.00000000e+00, 0.00000000e+00, 0.00000000e+00, 0.00000000e+00, -4.82509186e+00, -2.09270472e+00, -9.01863505e-01, 6.54119839e-01, 0.00000000e+00, 5.0000000000, 5.0000000000, 0.0433764500
          65, 0.00000000e+00, 0.00000000e+00, 0.00000000e+00, 0.00000000e+00, 0.00000000e+00, 0.00000000e+00, 0.00000000e+00, 0.00000000e+00, 0.00000000e+00, 0.00000000e+00, 0.00000000e+00, 0.00000000e+00, -4.83745144e+00, -2.09046503e+00, -9.02075499e-01, 6.42028313e-01, 0.00000000e+00, 5.0000000000, 5.0000000000, 0.0438852333
          66, 0.00000000e+00, 0.00000000e+00, 0.00000000e+00, 0.00000000e+00, 0.00000000e+00, 0.00000000e+00, 0.00000000e+00, 0.00000000e+00, 0.00000000e+00, 0.00000000e+00, 0.00000000e+00, 0.00000000e+00, -4.85102883e+00, -2.08862982e+00, -9.02301997e-01, 6.28731352e-01, 0.00000000e+00, 5.0000000000, 5.0000000000, 0.0443930167
          67, 0.00000000e+00, 0.00000000e+00, 0.00000000e+00, 0.00000000e+00, 0.00000000e+00, 0.00000000e+00, 0.00000000e+00, 0.00000000e+00, 0.00000000e+00, 0.00000000e+00, 0.00000000e+00, 0.00000000e+00, -4.86616010e+00, -2.08713497e+00, -9.02541598e-01, 6.13904224e-01, 0.00000000e+00, 5.0000000000, 5.0000000000, 0.0448712667
          68, 0.00000000e+00, 0.00000000e+00, 0.00000000e+00, 0.00000000e+00, 0.00000000e+00, 0.00000000e+00, 0.00000000e+00, 0.00000000e+00, 0.00000000e+00, 0.00000000e+00, 0.00000000e+00, 0.00000000e+00, -4.88314583e+00, -2.08593555e+00, -9.02793044e-01, 5.97250057e-01, 0.00000000e+00, 5.0000000000, 5.0000000000, 0.0454062833
          69, 0.00000000e+00, 0.00000000e+00, 0.00000000e+00, 0.00000000e+00, 0.00000000e+00, 0.00000000e+00, 0.00000000e+00, 0.00000000e+00, 0.00000000e+00, 0.00000000e+00, 0.00000000e+00, 0.00000000e+00, -4.90223922e+00, -2.08500435e+00, -9.03055200e-01, 5.78508805e-01, 0.00000000e+00, 5.0000000000, 5.0000000000, 0.0458792333
          70, 0.00000000e+00, 0.00000000e+00, 0.00000000e+00, 0.00000000e+00, 0.00000000e+00, 0.00000000e+00, 0.00000000e+00, 0.00000000e+00, 0.00000000e+00, 0.00000000e+00, 0.00000000e+00, 0.00000000e+00, -4.92362821e+00, -2.08433094e+00, -9.03327049e-01, 5.57470740e-01, 0.00000000e+00, 5.0000000000, 5.0000000000, 0.0463847167
          71, 0.00000000e+00, 0.00000000e+00, 0.00000000e+00, 0.00000000e+00, 0.00000000e+00, 0.00000000e+00, 0.00000000e+00, 0.00000000e+00, 0.00000000e+00, 0.00000000e+00, 0.00000000e+00, 0.00000000e+00, -4.94740429e+00, -2.08392197e+00, -9.03607664e-01, 5.34000455e-01, 0.00000000e+00, 5.0000000000, 5.0000000000, 0.0468403667
          72, 0.00000000e+00, 0.00000000e+00, 0.00000000e+00, 0.00000000e+00, 0.00000000e+00, 0.00000000e+00, 0.00000000e+00, 0.00000000e+00, 0.00000000e+00, 0.00000000e+00, 0.00000000e+00, 0.00000000e+00, -4.97350808e+00, -2.08380241e+00, -9.03896206e-01, 5.08080010e-01, 0.00000000e+00, 5.0000000000, 5.0000000000, 0.0473586333
          73, 0.00000000e+00, 0.00000000e+00, 0.00000000e+00, 0.00000000e+00, 0.00000000e+00, 0.00000000e+00, 0.00000000e+00, 0.00000000e+00, 0.00000000e+00, 0.00000000e+00, 0.00000000e+00, 0.00000000e+00, -5.00163804e+00, -2.08401755e+00, -9.04191898e-01, 4.79883453e-01, 0.00000000e+00, 5.0000000000, 5.0000000000, 0.0478087333
          74, 0.00000000e+00, 0.00000000e+00, 0.00000000e+00, 0.00000000e+00, 0.00000000e+00, 0.00000000e+00, 0.00000000e+00, 0.00000000e+00, 0.00000000e+00, 0.00000000e+00, 0.00000000e+00, 0.00000000e+00, -5.03110841e+00, -2.08463529e+00, -9.04494025e-01, 4.49898028e-01, 0.00000000e+00, 5.0000000000, 5.0000000000, 0.0483664667
          75, 0.00000000e+00, 0.00000000e+00, 0.00000000e+00, 0.00000000e+00, 0.00000000e+00, 0.00000000e+00, 0.00000000e+00, 0.00000000e+00, 0.00000000e+00, 0.00000000e+00, 0.00000000e+00, 0.00000000e+00, -5.06065349e+00, -2.08574791e+00, -9.04801911e-01, 4.19104021e-01, 0.00000000e+00, 5.0000000000, 5.0000000000, 0.0487945500
          76, 0.00000000e+00, 0.00000000e+00, 0.00000000e+00, 0.00000000e+00, 0.00000000e+00, 0.00000000e+00, 0.00000000e+00, 0.00000000e+00, 0.00000000e+00, 0.00000000e+00, 0.00000000e+00, 0.00000000e+00, -5.08822088e+00, -2.08747269e+00, -9.05114920e-01, 3.89198996e-01, 0.00000000e+00, 5.0000000000, 5.0000000000, 0.0492371667
          77, 0.00000000e+00, 0.00000000e+00, 0.00000000e+00, 0.00000000e+00, 0.00000000e+00, 0.00000000e+00, 0.00000000e+00, 0.00000000e+00, 0.00000000e+00, 0.00000000e+00, 0.00000000e+00, 0.00000000e+00, -5.11090035e+00, -2.08995091e+00, -9.05432452e-01, 3.62773790e-01, 0.00000000e+00, 5.0000000000, 5.0000000000, 0.0496872833
          78, 0.00000000e+00, 0.00000000e+00, 0.00000000e+00, 0.00000000e+00, 0.00000000e+00, 0.00000000e+00, 0.00000000e+00, 0.00000000e+00, 0.00000000e+00, 0.00000000e+00, 0.00000000e+00, 0.00000000e+00, -5.12526607e+00, -2.09334485e+00, -9.05753928e-01, 3.43206024e-01, 0.00000000e+00, 5.0000000000, 5.0000000000, 0.0501643167
          79, 0.00000000e+00, 0.00000000e+00, 0.00000000e+00, 0.00000000e+00, 0.00000000e+00, 0.00000000e+00, 0.00000000e+00, 0.00000000e+00, 0.00000000e+00, 0.00000000e+00, 0.00000000e+00, 0.00000000e+00, -5.12834869e+00, -2.09783293e+00, -9.06078790e-01, 3.33957037e-01, 0.00000000e+00, 5.0000000000, 5.0000000000, 0.0506127833
          80, 0.00000000e+00, 0.00000000e+00, 0.00000000e+00, 0.00000000e+00, 0.00000000e+00, 0.00000000e+00, 0.00000000e+00, 0.00000000e+00, 0.00000000e+00, 0.00000000e+00, 0.00000000e+00, 0.00000000e+00, -5.11891847e+00, -2.10360310e+00, -9.06406498e-01, 3.37276235e-01, 0.00000000e+00, 5.0000000000, 5.0000000000, 0.0511540667
          81, 0.00000000e+00, 0.00000000e+00, 0.00000000e+00, 0.00000000e+00, 0.00000000e+00, 0.00000000e+00, 0.00000000e+00, 0.00000000e+00, 0.00000000e+00, 0.00000000e+00, 0.00000000e+00, 0.00000000e+00, -5.09812738e+00, -2.11084486e+00, -9.06736532e-01, 3.53080196e-01, 0.00000000e+00, 5.0000000000, 5.0000000000, 0.0516119833
          82, 0.00000000e+00, 0.00000000e+00, 0.00000000e+00, 0.00000000e+00, 0.00000000e+00, 0.00000000e+00, 0.00000000e+00, 0.00000000e+00, 0.00000000e+00, 0.00000000e+00, 0.00000000e+00, 0.00000000e+00, -5.06890826e+00, -2.11974028e+00, -9.07068385e-01, 3.79000779e-01, 0.00000000e+00, 5.0000000000, 5.0000000000, 0.0519911500
          83, 0.00000000e+00, 0.00000000e+00, 0.00000000e+00, 0.00000000e+00, 0.00000000e+00, 0.00000000e+00, 0.00000000e+00, 0.00000000e+00, 0.00000000e+00, 0.00000000e+00, 0.00000000e+00, 0.00000000e+00, -5.03469697e+00, -2.13045384e+00, -9.07401575e-01, 4.11554356e-01, 0.00000000e+00, 5.0000000000, 5.0000000000, 0.0524025500
          84, 0.00000000e+00, 0.00000000e+00, 0.00000000e+00, 0.00000000e+00, 0.00000000e+00, 0.00000000e+00, 0.00000000e+00, 0.00000000e+00, 0.00000000e+00, 0.00000000e+00, 0.00000000e+00, 0.00000000e+00, -4.99844002e+00, -2.14312111e+00, -9.07735639e-01, 4.47409554e-01, 0.00000000e+00, 5.0000000000, 5.0000000000, 0.0528271333
          85, 0.00000000e+00, 0.00000000e+00, 0.00000000e+00, 0.00000000e+00, 0.00000000e+00, 0.00000000e+00, 0.00000000e+00, 0.00000000e+00, 0.00000000e+00, 0.00000000e+00, 0.00000000e+00, 0.00000000e+00, -4.96223426e+00, -2.15783517e+00, -9.08070140e-01, 4.84038528e-01, 0.00000000e+00, 5.0000000000, 5.0000000000, 0.0532619333
          86, 0.00000000e+00, 0.00000000e+00, 0.00000000e+00, 0.00000000e+00, 0.00000000e+00, 0.00000000e+00, 0.00000000e+00, 0.00000000e+00, 0.00000000e+00, 0.00000000e+00, 0.00000000e+00, 0.00000000e+00, -4.92739218e+00, -2.17462963e+00, -9.08404670e-01, 5.19789344e-01, 0.00000000e+00, 5.0000000000, 5.0000000000, 0.0536645000
          87, 0.00000000e+00, 0.00000000e+00, 0.00000000e+00, 0.00000000e+00, 0.00000000e+00, 0.00000000e+00, 0.00000000e+00, 0.00000000e+00, 0.00000000e+00, 0.00000000e+00, 0.00000000e+00, 0.00000000e+00, -4.89465202e+00, -2.19345662e+00, -9.08738878e-01, 5.53696736e-01, 0.00000000e+00, 5.0000000000, 5.0000000000, 0.0542388333
          88, 0.00000000e+00, 0.00000000e+00, 0.00000000e+00, 0.00000000e+00, 0.00000000e+00, 0.00000000e+00, 0.00000000e+00, 0.00000000e+00, 0.00000000e+00, 0.00000000e+00, 0.00000000e+00, 0.00000000e+00, -4.86438117e+00, -2.21415789e+00, -9.09072460e-01, 5.85254225e-01, 0.00000000e+00, 5.0000000000, 5.0000000000, 0.0548569667
          89, 0.00000000e+00, 0.00000000e+00, 0.00000000e+00, 0.00000000e+00, 0.00000000e+00, 0.00000000e+00, 0.00000000e+00, 0.00000000e+00, 0.00000000e+00, 0.00000000e+00, 0.00000000e+00, 0.00000000e+00, -4.83672687e+00, -2.23642756e+00, -9.09405113e-01, 6.14233397e-01, 0.00000000e+00, 5.0000000000, 5.0000000000, 0.0552804000