VARIABLES = "x"
 "y"
 "Density"
 "Momentum_x"
 "Momentum_y"
 "Energy"
 "Pressure"
 "Temperature"
 "Mach"
 "C<sub>p</sub>"
 "Roe_Dissipation"
ZONE
DT=(DOUBLE,DOUBLE,DOUBLE,DOUBLE,DOUBLE,DOUBLE,DOUBLE,DOUBLE,DOUBLE,DOUBLE,DOUBLE)
                     -2                     0.6        1.22505295276642        41.8097686767578   -2.22130589820512E-12           254015.296875           101320.703125        288.120300292969       0.100296802818775    -0.00600319122895598                       0 
      -1.99749874937469                     0.6        1.22505295276642        41.8097686767578    -5.2690080379624E-12           254015.296875           101320.703125        288.120300292969       0.100296802818775    -0.00600319127438068                       0 
      -1.99499749874937                     0.6        1.22505295276642        41.8097686767578   -8.31671017771994E-12           254015.296875           101320.703125        288.120300292969       0.100296802818775    -0.00600319131980536                       0 
      -1.99249624812406                     0.6        1.22505295276642        41.8097686767578   -1.13644123174772E-11           254015.296875           101320.703125        288.120300292969       0.100296802818775    -0.00600319136523006                       0 
      -1.98999499749875                     0.6        1.22505295276642        41.8097686767578   -1.44121144572345E-11           254015.296875           101320.703125        288.120300292969       0.100296802818775    -0.00600319141065475                       0 
      -1.98749374687344                     0.6        1.22505295276642        41.8097686767578   -1.74598165969918E-11           254015.296875           101320.703125        288.120300292969       0.100296802818775    -0.00600319145607944                       0 
      -1.98499249624812                     0.6        1.22505295276642        41.8097686767578   -2.05075187367493E-11           254015.296875           101320.703125        288.120300292969       0.100296802818775    -0.00600319150150413                       0 
      -1.98249124562281                     0.6        1.22505295276642        41.8097686767578   -2.35552208765066E-11           254015.296875           101320.703125        288.120300292969       0.100296802818775    -0.00600319154692882                       0 
       -1.9799899949975                     0.6        1.22505295276642        41.8097686767578   -2.66029230162639E-11           254015.296875           101320.703125        288.120300292969       0.100296802818775    -0.00600319159235351                       0 
      -1.97748874437219                     0.6        1.22505295276642        41.8097686767578   -2.96506251560214E-11           254015.296875           101320.703125        288.120300292969       0.100296802818775     -0.0060031916377782                       0 
      -1.97498749374687                     0.6        1.22505295276642        41.8097686767578   -3.25557521064622E-11           254015.296875           101320.703125        288.120300292969       0.100296802818775    -0.00600319168320289                       0 
      -1.97248624312156                     0.6        1.22505295276642        41.8097686767578   -3.53528022160342E-11           254015.296875           101320.703125        288.120300292969       0.100296802818775    -0.00600319172862758                       0 
      -1.96998499249625                     0.6        1.22505295276642        41.8097686767578   -3.83826127903634E-11           254015.296875           101320.703125        288.120300292969       0.100296802818775    -0.00600319177405227                       0 
      -1.96748374187094                     0.6        1.22505295276642        41.8097686767578   -4.14303149301206E-11           254015.296875           101320.703125        288.120300292969       0.100296802818775    -0.00600319181947696                       0 
      -1.96498249124562                     0.6        1.22505295276642        41.8097686767578   -4.44780170698779E-11           254015.296875           101320.703125        288.120300292969       0.100296802818775    -0.00600319186490165                       0 
      -1.96248124062031                     0.6        1.22505295276642        41.8097686767578   -4.75257192096352E-11           254015.296875           101320.703125        288.120300292969       0.100296802818775    -0.00600319191032634                       0 
        -1.959979989995                     0.6        1.22505295276642        41.8097686767578   -5.05734213493927E-11           254015.296875           101320.703125        288.120300292969       0.100296802818775    -0.00600319195575103                       0 
      -1.95747873936968                     0.6        1.22505295276642        41.8097686767578     -5.362112348915E-11           254015.296875           101320.703125        288.120300292969       0.100296802818775    -0.00600319200117572                       0 
      -1.95497748874437                     0.6        1.22505295276642        41.8097686767578   -5.66688256289073E-11           254015.296875           101320.703125        288.120300292969       0.100296802818775    -0.00600319204660041                       0 
      -1.95247623811906                     0.6        1.22505295276642        41.8097686767578   -5.97165277686648E-11           254015.296875           101320.703125        288.120300292969       0.100296802818775     -0.0060031920920251                       0 
      -1.94997498749375                     0.6        1.22505295276642        41.8097686767578   -6.27642299084221E-11           254015.296875           101320.703125        288.120300292969       0.100296802818775     -0.0060031921374498                       0 
      -1.94747373686843                     0.6        1.22505295276642        41.8097686767578   -6.57685883194899E-11           254015.296875           101320.703125        288.120300292969       0.100296802818775    -0.00600319218287454                       0 
      -1.94497248624312                     0.6        1.22505295276642        41.8097686767578   -6.87291563733664E-11           254015.296875           101320.703125        288.120300292969       0.100296802818775    -0.00600319222829934                       0 
      -1.94247123561781                     0.6        1.22505295276642        41.8097686767578   -7.16897244272427E-11           254015.296875           101320.703125        288.120300292969       0.100296802818775    -0.00600319227372413                       0 
       -1.9399699849925                     0.6        1.22505295276642        41.8097686767578    -7.4650292481119E-11           254015.296875           101320.703125        288.120300292969       0.100296802818775    -0.00600319231914893                       0 
      -1.93746873436718                     0.6        1.22505295276642        41.8097686767578   -7.76108605349953E-11           254015.296875           101320.703125        288.120300292969       0.100296802818775    -0.00600319236457372                       0 
      -1.93496748374187                     0.6        1.22505295276642        41.8097686767578   -8.05714285888719E-11           254015.296875           101320.703125        288.120300292969       0.100296802818775    -0.00600319240999852                       0 
      -1.93246623311656                     0.6        1.22505295276642        41.8097686767578   -8.35319966427482E-11           254015.296875           101320.703125        288.120300292969       0.100296802818775    -0.00600319245542332                       0 
      -1.92996498249125                     0.6        1.22505295276642        41.8097686767578   -8.64925646966245E-11           254015.296875           101320.703125        288.120300292969       0.100296802818775    -0.00600319250084811                       0 
      -1.92746373186593                     0.6        1.22505295276642        41.8097686767578    -8.9453132750501E-11           254015.296875           101320.703125        288.120300292969       0.100296802818775    -0.00600319254627291                       0 
      -1.92496248124062                     0.6        1.22505295276642        41.8097686767578   -9.23973126422462E-11           254015.296875           101320.703125        288.120300292969       0.100296802818775     -0.0060031925916977                       0 
      -1.92246123061531                     0.6        1.22505295276642        41.8097686767578   -9.51106102098461E-11           254015.296875           101320.703125        288.120300292969       0.100296802818775     -0.0060031926371225                       0 
      -1.91995997998999                     0.6        1.22505295276642        41.8097686767578   -9.79292654691992E-11           254015.296875           101320.703125        288.120300292969       0.100296802818775     -0.0060031926825473                       0 
      -1.91745872936468                     0.6        1.22505295276642        41.8097686767578   -1.00889833523075E-10           254015.296875           101320.703125        288.120300292969       0.100296802818775    -0.00600319272797209                       0 
      -1.91495747873937                     0.6        1.22505295276642        41.8097686767578   -1.03850401576952E-10           254015.296875           101320.703125        288.120300292969       0.100296802818775    -0.00600319277339689                       0 
      -1.91245622811406                     0.6        1.22505295276642        41.8097686767578   -1.06810969630828E-10           254015.296875           101320.703125        288.120300292969       0.100296802818775    -0.00600319281882169                       0 
      -1.90995497748874                     0.6        1.22505295276642        41.8097686767578   -1.09771537684705E-10           254015.296875           101320.703125        288.120300292969       0.100296802818775    -0.00600319286424648                       0 
      -1.90745372686343                     0.6        1.22505295276642        41.8097686767578   -1.12732105738581E-10           254015.296875           101320.703125        288.120300292969       0.100296802818775    -0.00600319290967128                       0 
      -1.90495247623812                     0.6        1.22505295276642        41.8097686767578   -1.15692673792457E-10           254015.296875           101320.703125        288.120300292969       0.100296802818775    -0.00600319295509607                       0 
      -1.90245122561281                     0.6        1.22505295276642        41.8097686767578   -1.18653241846334E-10           254015.296875           101320.703125        288.120300292969       0.100296802818775    -0.00600319300052087                       0 
      -1.89994997498749                     0.6        1.22505295276642        41.8097686767578    -1.2161380990021E-10           254015.296875           101320.703125        288.120300292969       0.100296802818775    -0.00600319304594567                       0 
      -1.89744872436218                     0.6        1.22505295276642        41.8097686767578   -1.24574377954086E-10           254015.296875           101320.703125        288.120300292969       0.100296802818775    -0.00600319309137046                       0 
      -1.89494747373687                     0.6        1.22505295276642        41.8097686767578   -1.27538052152798E-10           254015.296875           101320.703125        288.120300292969       0.100296802818775    -0.00600319313679515                       0 
      -1.89244622311156                     0.6        1.22505295276642        41.8097686767578   -1.30501742205334E-10           254015.296875           101320.703125        288.120300292969       0.100296802818775    -0.00600319318221984                       0 
      -1.88994497248624                     0.6        1.22505295276642        41.8097686767578   -1.33465432257871E-10           254015.296875           101320.703125        288.120300292969       0.100296802818775    -0.00600319322764453                       0 
      -1.88744372186093                     0.6        1.22505295276642        41.8097686767578   -1.36429122310407E-10           254015.296875           101320.703125        288.120300292969       0.100296802818775    -0.00600319327306923                       0 
      -1.88494247123562                     0.6        1.22505295276642        41.8097686767578   -1.39392812362944E-10           254015.296875           101320.703125        288.120300292969       0.100296802818775    -0.00600319331849392                       0 
      -1.88244122061031                     0.6        1.22505295276642        41.8097686767578    -1.4235650241548E-10           254015.296875           101320.703125        288.120300292969       0.100296802818775    -0.00600319336391861                       0 
      -1.87993996998499                     0.6        1.22505295276642        41.8097686767578   -1.45320192468016E-10           254015.296875           101320.703125        288.120300292969       0.100296802818775     -0.0060031934093433                       0 
      -1.87743871935968                     0.6        1.22505295276642        41.8097686767578   -1.48283882520553E-10           254015.296875           101320.703125        288.120300292969       0.100296802818775    -0.00600319345476799                       0 
      -1.87493746873437                     0.6        1.22505295276642        41.8097686767578   -1.51247572573089E-10           254015.296875           101320.703125        288.120300292969       0.100296802818775    -0.00600319350019268                       0 
      -1.87243621810905                     0.6        1.22505295276642        41.8097686767578     -1.540735474016E-10           254015.296875           101320.703125        288.120300292969       0.100296802818775    -0.00600319354561737                       0 
      -1.86993496748374                     0.6        1.22505295276642        41.8097686767578   -1.56792948524983E-10           254015.296875           101320.703125        288.120300292969       0.100296802818775    -0.00600319359104206                       0 
      -1.86743371685843                     0.6        1.22505295276642        41.8097686767578   -1.59737960686945E-10           254015.296875           101320.703125        288.120300292969       0.100296802818775    -0.00600319363646675                       0 
      -1.86493246623312                     0.6        1.22505295276642        41.8097686767578   -1.62701650739482E-10           254015.296875           101320.703125        288.120300292969       0.100296802818775    -0.00600319368189144                       0 
       -1.8624312156078                     0.6        1.22505295276642        41.8097686767578   -1.65665340792018E-10           254015.296875           101320.703125        288.120300292969       0.100296802818775    -0.00600319372731613                       0 
      -1.85992996498249                     0.6        1.22505295276642        41.8097686767578   -1.68629030844555E-10           254015.296875           101320.703125        288.120300292969       0.100296802818775    -0.00600319377274082                       0 
      -1.85742871435718                     0.6        1.22505295276642        41.8097686767578   -1.71592720897091E-10           254015.296875           101320.703125        288.120300292969       0.100296802818775    -0.00600319381816551                       0 
      -1.85492746373187                     0.6        1.22505295276642        41.8097686767578   -1.74556410949627E-10           254015.296875           101320.703125        288.120300292969       0.100296802818775     -0.0060031938635902                       0 
      -1.85242621310655                     0.6        1.22505295276642        41.8097686767578   -1.77520101002164E-10           254015.296875           101320.703125        288.120300292969       0.100296802818775    -0.00600319390901489                       0 
      -1.84992496248124                     0.6        1.22505295276642        41.8097686767578     -1.804837910547E-10           254015.296875           101320.703125        288.120300292969       0.100296802818775    -0.00600319395443958                       0 
      -1.84742371185593                     0.6        1.22505295276642        41.8097686767578   -1.83447481107237E-10           254015.296875           101320.703125        288.120300292969       0.100296802818775    -0.00600319399986427                       0 
      -1.84492246123062                     0.6        1.22505295276642        41.8097686767578   -1.86375983838558E-10           254015.296875           101320.703125        288.120300292969       0.100296802818775    -0.00600319402292371                       0 
       -1.8424212106053                     0.6        1.22505295276642        41.8097686767578   -1.89268207095717E-10           254015.296875           101320.703125        288.120300292969       0.100296802818775    -0.00600319402292371                       0 
      -1.83991995997999                     0.6        1.22505295276642        41.8097686767578   -1.92160430352876E-10           254015.296875           101320.703125        288.120300292969       0.100296802818775    -0.00600319402292371                       0 
      -1.83741870935468                     0.6        1.22505295276642        41.8097686767578   -1.95052653610034E-10           254015.296875           101320.703125        288.120300292969       0.100296802818775    -0.00600319402292371                       0 
      -1.83491745872936                     0.6        1.22505295276642        41.8097686767578   -1.97944876867193E-10           254015.296875           101320.703125        288.120300292969       0.100296802818775    -0.00600319402292371                       0 
      -1.83241620810405                     0.6        1.22505295276642        41.8097686767578   -2.00837100124352E-10           254015.296875           101320.703125        288.120300292969       0.100296802818775    -0.00600319402292371                       0 
      -1.82991495747874                     0.6        1.22505295276642        41.8097686767578   -2.03729323381511E-10           254015.296875           101320.703125        288.120300292969       0.100296802818775    -0.00600319402292371                       0 
      -1.82741370685343                     0.6        1.22505295276642        41.8097686767578   -2.06621546638669E-10           254015.296875           101320.703125        288.120300292969       0.100296802818775    -0.00600319402292371                       0 
      -1.82491245622811                     0.6        1.22505295276642        41.8097686767578   -2.09513769895828E-10           254015.296875           101320.703125        288.120300292969       0.100296802818775    -0.00600319402292371                       0 
       -1.8224112056028                     0.6        1.22505295276642        41.8097686767578   -2.12391437421662E-10           254015.296875           101320.703125        288.120300292969       0.100296802818775    -0.00600319402292371                       0 
      -1.81990995497749                     0.6        1.22505295276642        41.8097686767578   -2.15045814761992E-10           254015.296875           101320.703125        288.120300292969       0.100296802818775    -0.00600319402292371                       0 
      -1.81740870435218                     0.6        1.22505295276642        41.8097686767578   -2.17800326341868E-10           254015.296875           101320.703125        288.120300292969       0.100296802818775    -0.00600319402292371                       0 
      -1.81490745372686                     0.6        1.22505295276642        41.8097686767578   -2.20692549599026E-10           254015.296875           101320.703125        288.120300292969       0.100296802818775    -0.00600319402292371                       0 
      -1.81240620310155                     0.6        1.22505295276642        41.8097686767578   -2.23584772856185E-10           254015.296875           101320.703125        288.120300292969       0.100296802818775    -0.00600319402292371                       0 
      -1.80990495247624                     0.6        1.22505295276642        41.8097686767578   -2.26476996113344E-10           254015.296875           101320.703125        288.120300292969       0.100296802818775    -0.00600319402292371                       0 
      -1.80740370185093                     0.6        1.22505295276642        41.8097686767578   -2.29369219370503E-10           254015.296875           101320.703125        288.120300292969       0.100296802818775    -0.00600319402292371                       0 
      -1.80490245122561                     0.6        1.22505295276642        41.8097686767578   -2.32261442627661E-10           254015.296875           101320.703125        288.120300292969       0.100296802818775    -0.00600319402292371                       0 
       -1.8024012006003                     0.6        1.22505295276642        41.8097686767578    -2.3515366588482E-10           254015.296875           101320.703125        288.120300292969       0.100296802818775    -0.00600319402292371                       0 
      -1.79989994997499                     0.6        1.22505295276642        41.8097686767578   -2.38045889141979E-10           254015.296875           101320.703125        288.120300292969       0.100296802818775    -0.00600319402292371                       0 
      -1.79739869934967                     0.6        1.22505295276642        41.8097686767578   -2.40938112399138E-10           254015.296875           101320.703125        288.120300292969       0.100296802818775    -0.00600319402292371                       0 
      -1.79489744872436                     0.6        1.22505295276642        41.8097686767578   -2.43830335656296E-10           254015.296875           101320.703125        288.120300292969       0.100296802818775    -0.00600319402292371                       0 
      -1.79239619809905                     0.6        1.22505295276642        41.8097686767578   -2.46612277964616E-10           254015.296875           101320.703125        288.120300292969       0.100296802818775    -0.00600319406788706                       0 
      -1.78989494747374                     0.6        1.22505295276642        41.8097686767578   -2.49393088745285E-10           254015.296875           101320.703125        288.120300292969       0.100296802818775    -0.00600319411331175                       0 
      -1.78739369684842                     0.6        1.22505295276642        41.8097686767578   -2.52173899525953E-10           254015.296875           101320.703125        288.120300292969       0.100296802818775    -0.00600319415873644                       0 
      -1.78489244622311                     0.6        1.22505295276642        41.8097686767578   -2.54954710306621E-10           254015.296875           101320.703125        288.120300292969       0.100296802818775    -0.00600319420416113                       0 
       -1.7823911955978                     0.6        1.22505295276642        41.8097686767578   -2.57735521087289E-10           254015.296875           101320.703125        288.120300292969       0.100296802818775    -0.00600319424958582                       0 
      -1.77988994497249                     0.6        1.22505295276642        41.8097686767578   -2.60516331867957E-10           254015.296875           101320.703125        288.120300292969       0.100296802818775    -0.00600319429501051                       0 
      -1.77738869434717                     0.6        1.22505295276642        41.8097686767578   -2.63297142648626E-10           254015.296875           101320.703125        288.120300292969       0.100296802818775     -0.0060031943404352                       0 
      -1.77488744372186                     0.6        1.22505295276642        41.8097686767578   -2.66077953429294E-10           254015.296875           101320.703125        288.120300292969       0.100296802818775    -0.00600319438585989                       0 
      -1.77238619309655                     0.6        1.22505295276642        41.8097686767578   -2.68858764209962E-10           254015.296875           101320.703125        288.120300292969       0.100296802818775    -0.00600319443128458                       0 
      -1.76988494247124                     0.6        1.22505295276642        41.8097686767578   -2.71508876672256E-10           254015.296875           101320.703125        288.120300292969       0.100296802818775    -0.00600319447670927                       0 
      -1.76738369184592                     0.6        1.22505295276642        41.8097686767578    -2.7405573821393E-10           254015.296875           101320.703125        288.120300292969       0.100296802818775    -0.00600319452213396                       0 
      -1.76488244122061                     0.6        1.22505295276642        41.8097686767578   -2.76817473640169E-10           254015.296875           101320.703125        288.120300292969       0.100296802818775    -0.00600319456755865                       0 
       -1.7623811905953                     0.6        1.22505295276642        41.8097686767578   -2.79598284420837E-10           254015.296875           101320.703125        288.120300292969       0.100296802818775    -0.00600319461298334                       0 
      -1.75987993996998                     0.6        1.22505295276642        41.8097686767578   -2.82379095201506E-10           254015.296875           101320.703125        288.120300292969       0.100296802818775    -0.00600319465840803                       0 
      -1.75737868934467                     0.6        1.22505295276642        41.8097686767578   -2.85159905982174E-10           254015.296875           101320.703125        288.120300292969       0.100296802818775    -0.00600319470383272                       0 
      -1.75487743871936                     0.6        1.22505295276642        41.8097686767578   -2.87940716762842E-10           254015.296875           101320.703125        288.120300292969       0.100296802818775    -0.00600319474925741                       0 
      -1.75237618809405                     0.6        1.22505295276642        41.8097686767578    -2.9072152754351E-10           254015.296875           101320.703125        288.120300292969       0.100296802818775     -0.0060031947946821                       0 
      -1.74987493746873                     0.6        1.22505295276642        41.8097686767578   -2.93502338324178E-10           254015.296875           101320.703125        288.120300292969       0.100296802818775     -0.0060031948401068                       0 
      -1.74737368684342                     0.6        1.22505295276642        41.8097686767578   -2.96283149104846E-10           254015.296875           101320.703125        288.120300292969       0.100296802818775    -0.00600319488553148                       0 
      -1.74487243621811                     0.6        1.22505295276642        41.8097686767578   -2.99063959885515E-10           254015.296875           101320.703125        288.120300292969       0.100296802818775    -0.00600319493095618                       0 
       -1.7423711855928                     0.6        1.22505295276642        41.8097686767578   -3.01762146841952E-10           254015.296875           101320.703125        288.120300292969       0.100296802818775    -0.00600319497638087                       0 
      -1.73986993496748                     0.6        1.22505295276642        41.8097686767578   -3.04373396654151E-10           254015.296875           101320.703125        288.120300292969       0.100296802818775    -0.00600319502180556                       0 
      -1.73736868434217                     0.6        1.22505295276642        41.8097686767578    -3.0698464646635E-10           254015.296875           101320.703125        288.120300292969       0.100296802818775    -0.00600319506723025                       0 
      -1.73486743371686                     0.6        1.22505295276642        41.8097686767578    -3.0959589627855E-10           254015.296875           101320.703125        288.120300292969       0.100296802818775    -0.00600319511265494                       0 
      -1.73236618309155                     0.6        1.22505295276642        41.8097686767578   -3.12207146090749E-10           254015.296875           101320.703125        288.120300292969       0.100296802818775    -0.00600319515807963                       0 
      -1.72986493246623                     0.6        1.22505295276642        41.8097686767578   -3.14818395902948E-10           254015.296875           101320.703125        288.120300292969       0.100296802818775    -0.00600319520350432                       0 
      -1.72736368184092                     0.6        1.22505295276642        41.8097686767578   -3.17429645715147E-10           254015.296875           101320.703125        288.120300292969       0.100296802818775    -0.00600319524892901                       0 
      -1.72486243121561                     0.6        1.22505295276642        41.8097686767578   -3.20040895527347E-10           254015.296875           101320.703125        288.120300292969       0.100296802818775     -0.0060031952943537                       0 
       -1.7223611805903                     0.6        1.22505295276642        41.8097686767578   -3.22652145339546E-10           254015.296875           101320.703125        288.120300292969       0.100296802818775    -0.00600319533977839                       0 