VARIABLES = "x"
 "y"
 "Density"
 "Momentum_x"
 "Momentum_y"
 "Energy"
 "Pressure"
 "Temperature"
 "Mach"
 "C<sub>p</sub>"
 "Roe_Dissipation"
ZONE
DT=(DOUBLE,DOUBLE,DOUBLE,DOUBLE,DOUBLE,DOUBLE,DOUBLE,DOUBLE,DOUBLE,DOUBLE,DOUBLE)
                     -2                    -0.6        1.22505295276642        41.8097686767578   -3.31474490597192E-12           254015.296875           101320.703125        288.120300292969       0.100296802818775    -0.00600319122895598                       0 
      -1.99749874937469                    -0.6        1.22505295276642        41.8097686767578    1.00640757599121E-12           254015.296875           101320.703125        288.120300292969       0.100296802818775    -0.00600319127438068                       0 
      -1.99499749874937                    -0.6        1.22505295276642        41.8097686767578    5.32756005795473E-12           254015.296875           101320.703125        288.120300292969       0.100296802818775    -0.00600319131980536                       0 
      -1.99249624812406                    -0.6        1.22505295276642        41.8097686767578    9.64871253991787E-12           254015.296875           101320.703125        288.120300292969       0.100296802818775    -0.00600319136523006                       0 
      -1.98999499749875                    -0.6        1.22505295276642        41.8097686767578     1.3969865021881E-11           254015.296875           101320.703125        288.120300292969       0.100296802818775    -0.00600319141065475                       0 
      -1.98749374687344                    -0.6        1.22505295276642        41.8097686767578    1.82910175038441E-11           254015.296875           101320.703125        288.120300292969       0.100296802818775    -0.00600319145607944                       0 
      -1.98499249624812                    -0.6        1.22505295276642        41.8097686767578    2.26121699858077E-11           254015.296875           101320.703125        288.120300292969       0.100296802818775    -0.00600319150150413                       0 
      -1.98249124562281                    -0.6        1.22505295276642        41.8097686767578    2.69333224677708E-11           254015.296875           101320.703125        288.120300292969       0.100296802818775    -0.00600319154692882                       0 
       -1.9799899949975                    -0.6        1.22505295276642        41.8097686767578    3.12544749497339E-11           254015.296875           101320.703125        288.120300292969       0.100296802818775    -0.00600319159235351                       0 
      -1.97748874437219                    -0.6        1.22505295276642        41.8097686767578    3.55756274316975E-11           254015.296875           101320.703125        288.120300292969       0.100296802818775     -0.0060031916377782                       0 
      -1.97498749374687                    -0.6        1.22505295276642        41.8097686767578    3.98941028992673E-11           254015.296875           101320.703125        288.120300292969       0.100296802818775    -0.00600319168320289                       0 
      -1.97248624312156                    -0.6        1.22505295276642        41.8097686767578    4.42105490989121E-11           254015.296875           101320.703125        288.120300292969       0.100296802818775    -0.00600319172862758                       0 
      -1.96998499249625                    -0.6        1.22505295276642        41.8097686767578    4.85313656460023E-11           254015.296875           101320.703125        288.120300292969       0.100296802818775    -0.00600319177405227                       0 
      -1.96748374187094                    -0.6        1.22505295276642        41.8097686767578    5.28525181279654E-11           254015.296875           101320.703125        288.120300292969       0.100296802818775    -0.00600319181947696                       0 
      -1.96498249124562                    -0.6        1.22505295276642        41.8097686767578    5.71736706099286E-11           254015.296875           101320.703125        288.120300292969       0.100296802818775    -0.00600319186490165                       0 
      -1.96248124062031                    -0.6        1.22505295276642        41.8097686767578    6.14948230918917E-11           254015.296875           101320.703125        288.120300292969       0.100296802818775    -0.00600319191032634                       0 
        -1.959979989995                    -0.6        1.22505295276642        41.8097686767578    6.58159755738552E-11           254015.296875           101320.703125        288.120300292969       0.100296802818775    -0.00600319195575103                       0 
      -1.95747873936968                    -0.6        1.22505295276642        41.8097686767578    7.01371280558183E-11           254015.296875           101320.703125        288.120300292969       0.100296802818775    -0.00600319200117572                       0 
      -1.95497748874437                    -0.6        1.22505295276642        41.8097686767578    7.44582805377815E-11           254015.296875           101320.703125        288.120300292969       0.100296802818775    -0.00600319204660041                       0 
      -1.95247623811906                    -0.6        1.22505295276642        41.8097686767578     7.8779433019745E-11           254015.296875           101320.703125        288.120300292969       0.100296802818775     -0.0060031920920251                       0 
      -1.94997498749375                    -0.6        1.22505295276642        41.8097686767578    8.31005855017081E-11           254015.296875           101320.703125        288.120300292969       0.100296802818775     -0.0060031921374498                       0 
      -1.94747373686843                    -0.6        1.22505295276642        41.8097686767578     8.7391297080625E-11           254015.296875           101320.703125        288.120300292969       0.100296802818775    -0.00600319218287454                       0 
      -1.94497248624312                    -0.6        1.22505295276642        41.8097686767578    9.16512540830918E-11           254015.296875           101320.703125        288.120300292969       0.100296802818775    -0.00600319222829934                       0 
      -1.94247123561781                    -0.6        1.22505295276642        41.8097686767578    9.59112110855583E-11           254015.296875           101320.703125        288.120300292969       0.100296802818775    -0.00600319227372413                       0 
       -1.9399699849925                    -0.6        1.22505295276642        41.8097686767578    1.00171168088025E-10           254015.296875           101320.703125        288.120300292969       0.100296802818775    -0.00600319231914893                       0 
      -1.93746873436718                    -0.6        1.22505295276642        41.8097686767578    1.04431125090491E-10           254015.296875           101320.703125        288.120300292969       0.100296802818775    -0.00600319236457372                       0 
      -1.93496748374187                    -0.6        1.22505295276642        41.8097686767578    1.08691082092958E-10           254015.296875           101320.703125        288.120300292969       0.100296802818775    -0.00600319240999852                       0 
      -1.93246623311656                    -0.6        1.22505295276642        41.8097686767578    1.12951039095424E-10           254015.296875           101320.703125        288.120300292969       0.100296802818775    -0.00600319245542332                       0 
      -1.92996498249125                    -0.6        1.22505295276642        41.8097686767578    1.17210996097891E-10           254015.296875           101320.703125        288.120300292969       0.100296802818775    -0.00600319250084811                       0 
      -1.92746373186593                    -0.6        1.22505295276642        41.8097686767578    1.21470953100358E-10           254015.296875           101320.703125        288.120300292969       0.100296802818775    -0.00600319254627291                       0 
      -1.92496248124062                    -0.6        1.22505295276642        41.8097686767578    1.25731253122919E-10           254015.296875           101320.703125        288.120300292969       0.100296802818775     -0.0060031925916977                       0 
      -1.92246123061531                    -0.6        1.22505295276642        41.8097686767578    1.29996385735981E-10           254015.296875           101320.703125        288.120300292969       0.100296802818775     -0.0060031926371225                       0 
      -1.91995997998999                    -0.6        1.22505295276642        41.8097686767578    1.34259313110587E-10           254015.296875           101320.703125        288.120300292969       0.100296802818775     -0.0060031926825473                       0 
      -1.91745872936468                    -0.6        1.22505295276642        41.8097686767578    1.38519270113053E-10           254015.296875           101320.703125        288.120300292969       0.100296802818775    -0.00600319272797209                       0 
      -1.91495747873937                    -0.6        1.22505295276642        41.8097686767578     1.4277922711552E-10           254015.296875           101320.703125        288.120300292969       0.100296802818775    -0.00600319277339689                       0 
      -1.91245622811406                    -0.6        1.22505295276642        41.8097686767578    1.47039184117986E-10           254015.296875           101320.703125        288.120300292969       0.100296802818775    -0.00600319281882169                       0 
      -1.90995497748874                    -0.6        1.22505295276642        41.8097686767578    1.51299141120453E-10           254015.296875           101320.703125        288.120300292969       0.100296802818775    -0.00600319286424648                       0 
      -1.90745372686343                    -0.6        1.22505295276642        41.8097686767578    1.55559098122919E-10           254015.296875           101320.703125        288.120300292969       0.100296802818775    -0.00600319290967128                       0 
      -1.90495247623812                    -0.6        1.22505295276642        41.8097686767578    1.59819055125386E-10           254015.296875           101320.703125        288.120300292969       0.100296802818775    -0.00600319295509607                       0 
      -1.90245122561281                    -0.6        1.22505295276642        41.8097686767578    1.64079012127853E-10           254015.296875           101320.703125        288.120300292969       0.100296802818775    -0.00600319300052087                       0 
      -1.89994997498749                    -0.6        1.22505295276642        41.8097686767578    1.68338969130319E-10           254015.296875           101320.703125        288.120300292969       0.100296802818775    -0.00600319304594567                       0 
      -1.89744872436218                    -0.6        1.22505295276642        41.8097686767578    1.72598926132785E-10           254015.296875           101320.703125        288.120300292969       0.100296802818775    -0.00600319309137046                       0 
      -1.89494747373687                    -0.6        1.22505295276642        41.8097686767578    1.76733765183049E-10           254015.296875           101320.703125        288.120300292969       0.100296802818775    -0.00600319313679515                       0 
      -1.89244622311156                    -0.6        1.22505295276642        41.8097686767578    1.80867965628796E-10           254015.296875           101320.703125        288.120300292969       0.100296802818775    -0.00600319318221984                       0 
      -1.88994497248624                    -0.6        1.22505295276642        41.8097686767578    1.85002166074544E-10           254015.296875           101320.703125        288.120300292969       0.100296802818775    -0.00600319322764453                       0 
      -1.88744372186093                    -0.6        1.22505295276642        41.8097686767578    1.89136366520291E-10           254015.296875           101320.703125        288.120300292969       0.100296802818775    -0.00600319327306923                       0 
      -1.88494247123562                    -0.6        1.22505295276642        41.8097686767578    1.93270566966038E-10           254015.296875           101320.703125        288.120300292969       0.100296802818775    -0.00600319331849392                       0 
      -1.88244122061031                    -0.6        1.22505295276642        41.8097686767578    1.97404767411785E-10           254015.296875           101320.703125        288.120300292969       0.100296802818775    -0.00600319336391861                       0 
      -1.87993996998499                    -0.6        1.22505295276642        41.8097686767578    2.01538967857532E-10           254015.296875           101320.703125        288.120300292969       0.100296802818775     -0.0060031934093433                       0 
      -1.87743871935968                    -0.6        1.22505295276642        41.8097686767578     2.0567316830328E-10           254015.296875           101320.703125        288.120300292969       0.100296802818775    -0.00600319345476799                       0 
      -1.87493746873437                    -0.6        1.22505295276642        41.8097686767578    2.09807368749027E-10           254015.296875           101320.703125        288.120300292969       0.100296802818775    -0.00600319350019268                       0 
      -1.87243621810905                    -0.6        1.22505295276642        41.8097686767578    2.13949490689668E-10           254015.296875           101320.703125        288.120300292969       0.100296802818775    -0.00600319354561737                       0 
      -1.86993496748374                    -0.6        1.22505295276642        41.8097686767578    2.18097742838984E-10           254015.296875           101320.703125        288.120300292969       0.100296802818775    -0.00600319359104206                       0 
      -1.86743371685843                    -0.6        1.22505295276642        41.8097686767578    2.22233017652622E-10           254015.296875           101320.703125        288.120300292969       0.100296802818775    -0.00600319363646675                       0 
      -1.86493246623312                    -0.6        1.22505295276642        41.8097686767578    2.26367218098369E-10           254015.296875           101320.703125        288.120300292969       0.100296802818775    -0.00600319368189144                       0 
       -1.8624312156078                    -0.6        1.22505295276642        41.8097686767578    2.30501418544116E-10           254015.296875           101320.703125        288.120300292969       0.100296802818775    -0.00600319372731613                       0 
      -1.85992996498249                    -0.6        1.22505295276642        41.8097686767578    2.34635618989864E-10           254015.296875           101320.703125        288.120300292969       0.100296802818775    -0.00600319377274082                       0 
      -1.85742871435718                    -0.6        1.22505295276642        41.8097686767578    2.38769819435611E-10           254015.296875           101320.703125        288.120300292969       0.100296802818775    -0.00600319381816551                       0 
      -1.85492746373187                    -0.6        1.22505295276642        41.8097686767578    2.42904019881358E-10           254015.296875           101320.703125        288.120300292969       0.100296802818775     -0.0060031938635902                       0 
      -1.85242621310655                    -0.6        1.22505295276642        41.8097686767578    2.47038220327105E-10           254015.296875           101320.703125        288.120300292969       0.100296802818775    -0.00600319390901489                       0 
      -1.84992496248124                    -0.6        1.22505295276642        41.8097686767578    2.51172420772853E-10           254015.296875           101320.703125        288.120300292969       0.100296802818775    -0.00600319395443958                       0 
      -1.84742371185593                    -0.6        1.22505295276642        41.8097686767578      2.553066212186E-10           254015.296875           101320.703125        288.120300292969       0.100296802818775    -0.00600319399986427                       0 
      -1.84492246123062                    -0.6        1.22505295276642        41.8097686767578    2.59366377254051E-10           254015.296875           101320.703125        288.120300292969       0.100296802818775    -0.00600319402292371                       0 
       -1.8424212106053                    -0.6        1.22505295276642        41.8097686767578     2.6334937825483E-10           254015.296875           101320.703125        288.120300292969       0.100296802818775    -0.00600319402292371                       0 
      -1.83991995997999                    -0.6        1.22505295276642        41.8097686767578    2.67332379255609E-10           254015.296875           101320.703125        288.120300292969       0.100296802818775    -0.00600319402292371                       0 
      -1.83741870935468                    -0.6        1.22505295276642        41.8097686767578    2.71315380256389E-10           254015.296875           101320.703125        288.120300292969       0.100296802818775    -0.00600319402292371                       0 
      -1.83491745872936                    -0.6        1.22505295276642        41.8097686767578    2.75298381257168E-10           254015.296875           101320.703125        288.120300292969       0.100296802818775    -0.00600319402292371                       0 
      -1.83241620810405                    -0.6        1.22505295276642        41.8097686767578    2.79281382257947E-10           254015.296875           101320.703125        288.120300292969       0.100296802818775    -0.00600319402292371                       0 
      -1.82991495747874                    -0.6        1.22505295276642        41.8097686767578    2.83264383258726E-10           254015.296875           101320.703125        288.120300292969       0.100296802818775    -0.00600319402292371                       0 
      -1.82741370685343                    -0.6        1.22505295276642        41.8097686767578    2.87247384259506E-10           254015.296875           101320.703125        288.120300292969       0.100296802818775    -0.00600319402292371                       0 
      -1.82491245622811                    -0.6        1.22505295276642        41.8097686767578    2.91230385260285E-10           254015.296875           101320.703125        288.120300292969       0.100296802818775    -0.00600319402292371                       0 
       -1.8224112056028                    -0.6        1.22505295276642        41.8097686767578    2.95215137085418E-10           254015.296875           101320.703125        288.120300292969       0.100296802818775    -0.00600319402292371                       0 
      -1.81990995497749                    -0.6        1.22505295276642        41.8097686767578    2.99226747189674E-10           254015.296875           101320.703125        288.120300292969       0.100296802818775    -0.00600319402292371                       0 
      -1.81740870435218                    -0.6        1.22505295276642        41.8097686767578    3.03226312728024E-10           254015.296875           101320.703125        288.120300292969       0.100296802818775    -0.00600319402292371                       0 
      -1.81490745372686                    -0.6        1.22505295276642        41.8097686767578    3.07209313728803E-10           254015.296875           101320.703125        288.120300292969       0.100296802818775    -0.00600319402292371                       0 
      -1.81240620310155                    -0.6        1.22505295276642        41.8097686767578    3.11192314729582E-10           254015.296875           101320.703125        288.120300292969       0.100296802818775    -0.00600319402292371                       0 
      -1.80990495247624                    -0.6        1.22505295276642        41.8097686767578    3.15175315730361E-10           254015.296875           101320.703125        288.120300292969       0.100296802818775    -0.00600319402292371                       0 
      -1.80740370185093                    -0.6        1.22505295276642        41.8097686767578    3.19158316731141E-10           254015.296875           101320.703125        288.120300292969       0.100296802818775    -0.00600319402292371                       0 
      -1.80490245122561                    -0.6        1.22505295276642        41.8097686767578     3.2314131773192E-10           254015.296875           101320.703125        288.120300292969       0.100296802818775    -0.00600319402292371                       0 
       -1.8024012006003                    -0.6        1.22505295276642        41.8097686767578    3.27124318732699E-10           254015.296875           101320.703125        288.120300292969       0.100296802818775    -0.00600319402292371                       0 
      -1.79989994997499                    -0.6        1.22505295276642        41.8097686767578    3.31107319733478E-10           254015.296875           101320.703125        288.120300292969       0.100296802818775    -0.00600319402292371                       0 
      -1.79739869934967                    -0.6        1.22505295276642        41.8097686767578    3.35090320734257E-10           254015.296875           101320.703125        288.120300292969       0.100296802818775    -0.00600319402292371                       0 
      -1.79489744872436                    -0.6        1.22505295276642        41.8097686767578    3.39073321735036E-10           254015.296875           101320.703125        288.120300292969       0.100296802818775    -0.00600319402292371                       0 
      -1.79239619809905                    -0.6        1.22505295276642        41.8097686767578    3.42940717418679E-10           254015.296875           101320.703125        288.120300292969       0.100296802818775    -0.00600319406788706                       0 
      -1.78989494747374                    -0.6        1.22505295276642        41.8097686767578    3.46806926944472E-10           254015.296875           101320.703125        288.120300292969       0.100296802818775    -0.00600319411331175                       0 
      -1.78739369684842                    -0.6        1.22505295276642        41.8097686767578    3.50673136470265E-10           254015.296875           101320.703125        288.120300292969       0.100296802818775    -0.00600319415873644                       0 
      -1.78489244622311                    -0.6        1.22505295276642        41.8097686767578    3.54539345996058E-10           254015.296875           101320.703125        288.120300292969       0.100296802818775    -0.00600319420416113                       0 
       -1.7823911955978                    -0.6        1.22505295276642        41.8097686767578    3.58405555521852E-10           254015.296875           101320.703125        288.120300292969       0.100296802818775    -0.00600319424958582                       0 
      -1.77988994497249                    -0.6        1.22505295276642        41.8097686767578    3.62271765047645E-10           254015.296875           101320.703125        288.120300292969       0.100296802818775    -0.00600319429501051                       0 
      -1.77738869434717                    -0.6        1.22505295276642        41.8097686767578    3.66137974573438E-10           254015.296875           101320.703125        288.120300292969       0.100296802818775     -0.0060031943404352                       0 
      -1.77488744372186                    -0.6        1.22505295276642        41.8097686767578    3.70004184099231E-10           254015.296875           101320.703125        288.120300292969       0.100296802818775    -0.00600319438585989                       0 
      -1.77238619309655                    -0.6        1.22505295276642        41.8097686767578    3.73870393625024E-10           254015.296875           101320.703125        288.120300292969       0.100296802818775    -0.00600319443128458                       0 
      -1.76988494247124                    -0.6        1.22505295276642        41.8097686767578    3.77763824427844E-10           254015.296875           101320.703125        288.120300292969       0.100296802818775    -0.00600319447670927                       0 
      -1.76738369184592                    -0.6        1.22505295276642        41.8097686767578     3.8167875988312E-10           254015.296875           101320.703125        288.120300292969       0.100296802818775    -0.00600319452213396                       0 
      -1.76488244122061                    -0.6        1.22505295276642        41.8097686767578    3.85548942340728E-10           254015.296875           101320.703125        288.120300292969       0.100296802818775    -0.00600319456755865                       0 
       -1.7623811905953                    -0.6        1.22505295276642        41.8097686767578    3.89415151866521E-10           254015.296875           101320.703125        288.120300292969       0.100296802818775    -0.00600319461298334                       0 
      -1.75987993996998                    -0.6        1.22505295276642        41.8097686767578    3.93281361392315E-10           254015.296875           101320.703125        288.120300292969       0.100296802818775    -0.00600319465840803                       0 
      -1.75737868934467                    -0.6        1.22505295276642        41.8097686767578    3.97147570918108E-10           254015.296875           101320.703125        288.120300292969       0.100296802818775    -0.00600319470383272                       0 
      -1.75487743871936                    -0.6        1.22505295276642        41.8097686767578    4.01013780443901E-10           254015.296875           101320.703125        288.120300292969       0.100296802818775    -0.00600319474925741                       0 
      -1.75237618809405                    -0.6        1.22505295276642        41.8097686767578    4.04879989969694E-10           254015.296875           101320.703125        288.120300292969       0.100296802818775     -0.0060031947946821                       0 
      -1.74987493746873                    -0.6        1.22505295276642        41.8097686767578    4.08746199495487E-10           254015.296875           101320.703125        288.120300292969       0.100296802818775     -0.0060031948401068                       0 
      -1.74737368684342                    -0.6        1.22505295276642        41.8097686767578     4.1261240902128E-10           254015.296875           101320.703125        288.120300292969       0.100296802818775    -0.00600319488553148                       0 
      -1.74487243621811                    -0.6        1.22505295276642        41.8097686767578    4.16478618547074E-10           254015.296875           101320.703125        288.120300292969       0.100296802818775    -0.00600319493095618                       0 
       -1.7423711855928                    -0.6        1.22505295276642        41.8097686767578    4.20301692442599E-10           254015.296875           101320.703125        288.120300292969       0.100296802818775    -0.00600319497638087                       0 
      -1.73986993496748                    -0.6        1.22505295276642        41.8097686767578      4.240793788419E-10           254015.296875           101320.703125        288.120300292969       0.100296802818775    -0.00600319502180556                       0 
      -1.73736868434217                    -0.6        1.22505295276642        41.8097686767578    4.27857065241201E-10           254015.296875           101320.703125        288.120300292969       0.100296802818775    -0.00600319506723025                       0 
      -1.73486743371686                    -0.6        1.22505295276642        41.8097686767578    4.31634751640501E-10           254015.296875           101320.703125        288.120300292969       0.100296802818775    -0.00600319511265494                       0 
      -1.73236618309155                    -0.6        1.22505295276642        41.8097686767578    4.35412438039802E-10           254015.296875           101320.703125        288.120300292969       0.100296802818775    -0.00600319515807963                       0 
      -1.72986493246623                    -0.6        1.22505295276642        41.8097686767578    4.39190124439102E-10           254015.296875           101320.703125        288.120300292969       0.100296802818775    -0.00600319520350432                       0 
      -1.72736368184092                    -0.6        1.22505295276642        41.8097686767578    4.42967810838403E-10           254015.296875           101320.703125        288.120300292969       0.100296802818775    -0.00600319524892901                       0 
      -1.72486243121561                    -0.6        1.22505295276642        41.8097686767578    4.46745497237704E-10           254015.296875           101320.703125        288.120300292969       0.100296802818775     -0.0060031952943537                       0 
       -1.7223611805903                    -0.6        1.22505295276642        41.8097686767578    4.50523183637004E-10           254015.296875           101320.703125        288.120300292969       0.100296802818775    -0.00600319533977839                       0 