VARIABLES = "x"
 "y"
 "Density"
 "Momentum_x"
 "Momentum_y"
 "Energy"
 "Pressure"
 "Temperature"
 "Mach"
 "C<sub>p</sub>"
 "Roe_Dissipation"
ZONE
DT=(DOUBLE,DOUBLE,DOUBLE,DOUBLE,DOUBLE,DOUBLE,DOUBLE,DOUBLE,DOUBLE,DOUBLE,DOUBLE)
                     -2                       0        1.22467398643494        43.0617218017578    3.24598801171296E-07           253949.296875          101276.8984375        288.084686279297       0.103338398039341     -0.0677968934178352                       0 
      -1.99749874937469                       0        1.22467398643494        43.0617218017578    1.03103671720465E-07           253949.296875          101276.8984375        288.084686279297       0.103338398039341     -0.0677968962991765                       0 
      -1.99499749874937                       0        1.22467398643494        43.0617218017578   -1.18391457730498E-07           253949.296875          101276.8984375        288.084686279297       0.103338398039341     -0.0677968991805177                       0 
      -1.99249624812406                       0        1.22467398643494        43.0617218017578   -3.39886587181441E-07           253949.296875          101276.8984375        288.084686279297       0.103338398039341     -0.0677969020618589                       0 
      -1.98999499749875                       0        1.22467398643494        43.0617218017578   -5.61381716632384E-07           253949.296875          101276.8984375        288.084686279297       0.103338398039341     -0.0677969049432001                       0 
      -1.98749374687344                       0        1.22467398643494        43.0617218017578   -7.82876846083326E-07           253949.296875          101276.8984375        288.084686279297       0.103338398039341     -0.0677969078245414                       0 
      -1.98499249624812                       0        1.22467398643494        43.0617218017578   -1.00437197553429E-06           253949.296875          101276.8984375        288.084686279297       0.103338398039341     -0.0677969107058826                       0 
      -1.98249124562281                       0        1.22467398643494        43.0617218017578   -1.22586710498523E-06           253949.296875          101276.8984375        288.084686279297       0.103338398039341     -0.0677969135872238                       0 
       -1.9799899949975                       0        1.22467398643494        43.0617218017578   -1.44736223443617E-06           253949.296875          101276.8984375        288.084686279297       0.103338398039341     -0.0677969164685651                       0 
      -1.97748874437219                       0        1.22467398643494        43.0617218017578   -1.66885736388714E-06           253949.296875          101276.8984375        288.084686279297       0.103338398039341     -0.0677969193499063                       0 
      -1.97498749374687                       0        1.22467398643494        43.0617218017578   -1.89035249333808E-06           253949.296875          101276.8984375        288.084686279297       0.103338398039341     -0.0677969222312475                       0 
      -1.97248624312156                       0        1.22467398643494        43.0617218017578   -2.11184762278902E-06           253949.296875          101276.8984375        288.084686279297       0.103338398039341     -0.0677969251125888                       0 
      -1.96998499249625                       0        1.22467398643494        43.0617218017578   -2.33334275223999E-06           253949.296875          101276.8984375        288.084686279297       0.103338398039341       -0.06779692799393                       0 
      -1.96748374187094                       0        1.22467398643494        43.0617218017578   -2.55483788169093E-06           253949.296875          101276.8984375        288.084686279297       0.103338398039341     -0.0677969308752712                       0 
      -1.96498249124562                       0        1.22467398643494        43.0617218017578   -2.77633301114187E-06           253949.296875          101276.8984375        288.084686279297       0.103338398039341     -0.0677969337566124                       0 
      -1.96248124062031                       0        1.22467398643494        43.0617218017578   -2.99782814059281E-06           253949.296875          101276.8984375        288.084686279297       0.103338398039341     -0.0677969366379537                       0 
        -1.959979989995                       0        1.22467398643494        43.0617218017578   -3.21932327004378E-06           253949.296875          101276.8984375        288.084686279297       0.103338398039341     -0.0677969395192949                       0 
      -1.95747873936968                       0        1.22467398643494        43.0617218017578   -3.44081839949472E-06           253949.296875          101276.8984375        288.084686279297       0.103338398039341     -0.0677969424006361                       0 
      -1.95497748874437                       0        1.22467398643494        43.0617218017578   -3.66231352894566E-06           253949.296875          101276.8984375        288.084686279297       0.103338398039341     -0.0677969452819774                       0 
      -1.95247623811906                       0        1.22467398643494        43.0617218714232   -3.87786710804843E-06           253949.296875          101276.8984375        288.084686279297       0.103338398039341     -0.0677969489220335                       0 
      -1.94997498749375                       0        1.22467398643494        43.0617222000836    -4.0713317777555E-06           253949.296875          101276.8984375        288.084686279297       0.103338398039341     -0.0677969553827653                       0 
      -1.94747373686843                       0        1.22467398643494        43.0617225287441   -4.26479644746256E-06           253949.296875          101276.8984375        288.084686279297       0.103338398039341      -0.067796961843497                       0 
      -1.94497248624312                       0        1.22467398643494        43.0617228574045   -4.45826111716965E-06           253949.296875          101276.8984375        288.084686279297       0.103338398039341     -0.0677969683042287                       0 
      -1.94247123561781                       0        1.22467398643494         43.061723186065   -4.65172578687671E-06           253949.296875          101276.8984375        288.084686279297       0.103338398039341     -0.0677969747649605                       0 
       -1.9399699849925                       0        1.22467398643494        43.0617235147254   -4.84519045658378E-06           253949.296875          101276.8984375        288.084686279297       0.103338398039341     -0.0677969812256922                       0 
      -1.93746873436718                       0        1.22467398643494        43.0617238433859   -5.03865512629085E-06           253949.296875          101276.8984375        288.084686279297       0.103338398039341     -0.0677969876864239                       0 
      -1.93496748374187                       0        1.22467398643494        43.0617241720463   -5.23211979599793E-06           253949.296875          101276.8984375        288.084686279297       0.103338398039341     -0.0677969941471556                       0 
      -1.93246623311656                       0        1.22467398643494        43.0617245007068     -5.425584465705E-06           253949.296875          101276.8984375        288.084686279297       0.103338398039341     -0.0677970006078874                       0 
      -1.92996498249125                       0        1.22467398643494        43.0617248293672   -5.61904913541207E-06           253949.296875          101276.8984375        288.084686279297       0.103338398039341     -0.0677970070686191                       0 
      -1.92746373186593                       0        1.22467398643494        43.0617251580277   -5.81251380511915E-06           253949.296875          101276.8984375        288.084686279297       0.103338398039341     -0.0677970135293508                       0 
      -1.92496248124062                       0        1.22467398643494        43.0617254866881   -6.00597847482622E-06           253949.296875          101276.8984375        288.084686279297       0.103338398039341     -0.0677970199900826                       0 
      -1.92246123061531                       0        1.22467398643494        43.0617258153485   -6.19944314453328E-06           253949.296875          101276.8984375        288.084686279297       0.103338398039341     -0.0677970264508143                       0 
      -1.91995997998999                       0        1.22467398643494         43.061726144009   -6.39290781424037E-06           253949.296875          101276.8984375        288.084686279297       0.103338398039341      -0.067797032911546                       0 
      -1.91745872936468                       0        1.22467398643494        43.0617264726694   -6.58637248394744E-06           253949.296875          101276.8984375        288.084686279297       0.103338398039341     -0.0677970393722778                       0 
      -1.91495747873937                       0        1.22467398643494        43.0617268013299    -6.7798371536545E-06           253949.296875          101276.8984375        288.084686279297       0.103338398039341     -0.0677970458330095                       0 
      -1.91245622811406                       0        1.22467398643494        43.0617271299903   -6.97330182336157E-06           253949.296875          101276.8984375        288.084686279297       0.103338398039341     -0.0677970522937412                       0 
      -1.90995497748874                       0        1.22467398643494        43.0617274586508   -7.16676649306865E-06           253949.296875          101276.8984375        288.084686279297       0.103338398039341      -0.067797058754473                       0 
      -1.90745372686343                       0        1.22467398643494        43.0617277873112   -7.36023116277572E-06           253949.296875          101276.8984375        288.084686279297       0.103338398039341     -0.0677970652152047                       0 
      -1.90495247623812                       0        1.22467398643494        43.0617281159717   -7.55369583248279E-06           253949.296875          101276.8984375        288.084686279297       0.103338398039341     -0.0677970716759364                       0 
      -1.90245122561281                       0        1.22467398643494        43.0617284446321   -7.74716050218987E-06           253949.296875          101276.8984375        288.084686279297       0.103338398039341     -0.0677970781366682                       0 
      -1.89994997498749                       0        1.22467398643494        43.0617287732926   -7.94062517189694E-06           253949.296875          101276.8984375        288.084686279297       0.103338398039341     -0.0677970845973999                       0 
      -1.89744872436218                       0        1.22467398643494         43.061729101953   -8.13408984160401E-06           253949.296875          101276.8984375        288.084686279297       0.103338398039341     -0.0677970910581316                       0 
      -1.89494747373687                       0        1.22467398643494        43.0617292900762   -8.39059565298153E-06           253949.296875          101276.8984375        288.084686279297       0.103338398039341     -0.0677970958437376                       0 
      -1.89244622311156                       0        1.22467398643494        43.0617294668997   -8.66270717832085E-06           253949.296875          101276.8984375        288.084686279297       0.103338402647974     -0.0677971169571874                       0 
      -1.88994497248624                       0        1.22467398643494        43.0617297155162   -8.86574785830558E-06           253949.296875          101276.8984375        288.084686279297       0.103338407280669     -0.0677971365275516                       0 
      -1.88744372186093                       0        1.22467398643494        43.0617299641327   -9.06878853829031E-06           253949.296875          101276.8984375        288.084686279297       0.103338411913365     -0.0677971560979157                       0 
      -1.88494247123562                       0        1.22467398643494        43.0617302127492   -9.27182921827507E-06           253949.296875          101276.8984375        288.084686279297       0.103338416546061     -0.0677971756682799                       0 
      -1.88244122061031                       0        1.22467398643494        43.0617304613656    -9.4748698982598E-06           253949.296875          101276.8984375        288.084686279297       0.103338421178757      -0.067797195238644                       0 
      -1.87993996998499                       0        1.22467398643494        43.0617307099821   -9.67791057824453E-06           253949.296875          101276.8984375        288.084686279297       0.103338425811453     -0.0677972148090082                       0 
      -1.87743871935968                       0        1.22467398643494        43.0617309585986   -9.88095125822928E-06           253949.296875          101276.8984375        288.084686279297       0.103338430444149     -0.0677972343793723                       0 
      -1.87493746873437                       0        1.22467398643494        43.0617312072151    -1.0083991938214E-05           253949.296875          101276.8984375        288.084686279297       0.103338435076844     -0.0677972539497365                       0 
      -1.87243621810905                       0        1.22467398643494        43.0617314558316   -1.02870326181987E-05           253949.296875          101276.8984375        288.084686279297        0.10333843970954     -0.0677972735201007                       0 
      -1.86993496748374                       0        1.22467398643494        43.0617317044481   -1.04900732981835E-05           253949.296875          101276.8984375        288.084686279297       0.103338444342236     -0.0677972930904648                       0 
      -1.86743371685843                       0        1.22467398643494        43.0617319530646   -1.06931139781682E-05           253949.296875          101276.8984375        288.084686279297       0.103338448974932      -0.067797312660829                       0 
      -1.86493246623312                       0        1.22467398643494        43.0617322016811    -1.0896154658153E-05           253949.296875          101276.8984375        288.084686279297       0.103338453607628     -0.0677973322311931                       0 
       -1.8624312156078                       0        1.22467398643494        43.0617324502975   -1.10991953381377E-05           253949.296875          101276.8984375        288.084686279297       0.103338458240324     -0.0677973518015573                       0 
      -1.85992996498249                       0        1.22467398643494         43.061732698914   -1.13022360181224E-05           253949.296875          101276.8984375        288.084686279297       0.103338462873019     -0.0677973713719215                       0 
      -1.85742871435718                       0        1.22467398643494        43.0617329475305   -1.15052766981072E-05           253949.296875          101276.8984375        288.084686279297       0.103338467505715     -0.0677973909422856                       0 
      -1.85492746373187                       0        1.22467398643494         43.061733196147   -1.17083173780919E-05           253949.296875          101276.8984375        288.084686279297       0.103338472138411     -0.0677974105126498                       0 
      -1.85242621310655                       0        1.22467398643494        43.0617334447635   -1.19113580580767E-05           253949.296875          101276.8984375        288.084686279297       0.103338476771107     -0.0677974300830139                       0 
      -1.84992496248124                       0        1.22467398643494          43.06173369338   -1.21143987380614E-05           253949.296875          101276.8984375        288.084686279297       0.103338481403803     -0.0677974496533781                       0 
      -1.84742371185593                       0        1.22467398643494        43.0617339419965   -1.23174394180461E-05           253949.296875          101276.8984375        288.084686279297       0.103338486036498     -0.0677974692237423                       0 
      -1.84492246123062                       0        1.22467398643494         43.061734190613   -1.25204800980309E-05           253949.296875          101276.8984375        288.084686279297       0.103338490669194     -0.0677974887941064                       0 
       -1.8424212106053                       0        1.22467398643494        43.0617344392294   -1.27235207780156E-05           253949.296875          101276.8984375        288.084686279297        0.10333849530189     -0.0677975083644706                       0 
      -1.83991995997999                       0        1.22467398643494        43.0617346878459   -1.29265614580003E-05           253949.296875          101276.8984375        288.084686279297       0.103338499934586     -0.0677975279348347                       0 
      -1.83741870935468                       0        1.22467398643494        43.0617351088804   -1.31358592152534E-05           253949.296875          101276.8984375        288.084686279297       0.103338502347469     -0.0677975501367069                       0 
      -1.83491745872936                       0        1.22467398643494        43.0617357173292   -1.33519582672907E-05           253949.296875          101276.8984375        288.084686279297       0.103338502347469     -0.0677975751989658                       0 
      -1.83241620810405                       0        1.22467398643494         43.061736325778   -1.35680573193279E-05           253949.296875          101276.8984375        288.084686279297       0.103338502347469     -0.0677976002612248                       0 
      -1.82991495747874                       0        1.22467398643494        43.0617369342268   -1.37841563713652E-05           253949.296875          101276.8984375        288.084686279297       0.103338502347469     -0.0677976253234837                       0 
      -1.82741370685343                       0        1.22467398643494        43.0617375426756   -1.40002554234024E-05           253949.296875          101276.8984375        288.084686279297       0.103338502347469     -0.0677976503857427                       0 
      -1.82491245622811                       0        1.22467398643494        43.0617381511244   -1.42163544754397E-05           253949.296875          101276.8984375        288.084686279297       0.103338502347469     -0.0677976754480016                       0 
       -1.8224112056028                       0        1.22467398643494        43.0617387595732   -1.44324535274769E-05           253949.296875          101276.8984375        288.084686279297       0.103338502347469     -0.0677977005102605                       0 
      -1.81990995497749                       0        1.22467398643494         43.061739368022   -1.46485525795142E-05           253949.296875          101276.8984375        288.084686279297       0.103338502347469     -0.0677977255725195                       0 
      -1.81740870435218                       0        1.22467398643494        43.0617399764708   -1.48646516315514E-05           253949.296875          101276.8984375        288.084686279297       0.103338502347469     -0.0677977506347784                       0 
      -1.81490745372686                       0        1.22467398643494        43.0617405849195   -1.50807506835887E-05           253949.296875          101276.8984375        288.084686279297       0.103338502347469     -0.0677977756970374                       0 
      -1.81240620310155                       0        1.22467398643494        43.0617411933683   -1.52968497356259E-05           253949.296875          101276.8984375        288.084686279297       0.103338502347469     -0.0677978007592963                       0 
      -1.80990495247624                       0        1.22467398643494        43.0617418018171   -1.55129487876632E-05           253949.296875          101276.8984375        288.084686279297       0.103338502347469     -0.0677978258215553                       0 
      -1.80740370185093                       0        1.22467398643494        43.0617424102659   -1.57290478397004E-05           253949.296875          101276.8984375        288.084686279297       0.103338502347469     -0.0677978508838142                       0 
      -1.80490245122561                       0        1.22467398643494        43.0617430187147   -1.59451468917377E-05           253949.296875          101276.8984375        288.084686279297       0.103338502347469     -0.0677978759460732                       0 
       -1.8024012006003                       0        1.22467398643494        43.0617436271635   -1.61612459437749E-05           253949.296875          101276.8984375        288.084686279297       0.103338502347469     -0.0677979010083321                       0 
      -1.79989994997499                       0        1.22467398643494        43.0617442356123   -1.63773449958122E-05           253949.296875          101276.8984375        288.084686279297       0.103338502347469     -0.0677979260705911                       0 
      -1.79739869934967                       0        1.22467398643494        43.0617448440611   -1.65934440478494E-05           253949.296875          101276.8984375        288.084686279297       0.103338502347469       -0.06779795113285                       0 
      -1.79489744872436                       0        1.22467398643494        43.0617454525099   -1.68095430998866E-05           253949.296875          101276.8984375        288.084686279297       0.103338502347469      -0.067797976195109                       0 
      -1.79239619809905                       0        1.22467398643494        43.0617460609587   -1.70256421519239E-05           253949.296875          101276.8984375        288.084686279297       0.103338502347469     -0.0677980012573679                       0 
      -1.78989494747374                       0        1.22467398643494        43.0617466694075   -1.72417412039611E-05           253949.296875          101276.8984375        288.084686279297       0.103338502347469     -0.0677980263196269                       0 
      -1.78739369684842                       0        1.22467398643494        43.0617473150555   -1.74922335385157E-05           253949.296875          101276.8984375        288.084686279297       0.103338502347469     -0.0677980503272776                       0 
      -1.78489244622311                       0        1.22467398643494        43.0617480116383   -1.77898186051485E-05           253949.296875          101276.8984375        288.084686279297       0.103338502347469     -0.0677980728909142                       0 
       -1.7823911955978                       0        1.22467398643494        43.0617487240436   -1.81054903186742E-05           253949.296875          101276.8984375        288.084686279297       0.103338502347469     -0.0677981044438696                       0 
      -1.77988994497249                       0        1.22467398643494         43.061749440662   -1.84270168010121E-05           253949.296875          101276.8984375        288.084686279297       0.103338502347469     -0.0677981393347817                       0 
      -1.77738869434717                       0        1.22467398643494        43.0617499826942   -1.86560533421271E-05           253949.296875          101276.8984375        288.084686279297       0.103338502347469     -0.0677981723795103                       0 
      -1.77488744372186                       0        1.22467398643494        43.0617505247264   -1.88850898832421E-05           253949.296875          101276.8984375        288.084686279297       0.103338502347469     -0.0677982054242389                       0 
      -1.77238619309655                       0        1.22467398643494        43.0617510667586   -1.91141264243571E-05           253949.296875          101276.8984375        288.084686279297       0.103338502347469     -0.0677982384689674                       0 
      -1.76988494247124                       0        1.22467398643494        43.0617516087908   -1.93431629654722E-05           253949.296875          101276.8984375        288.084686279297       0.103338502347469      -0.067798271513696                       0 
      -1.76738369184592                       0        1.22467398643494         43.061752150823   -1.95721995065872E-05           253949.296875          101276.8984375        288.084686279297       0.103338502347469     -0.0677983045584246                       0 
      -1.76488244122061                       0        1.22467398643494        43.0617526928552   -1.98012360477022E-05           253949.296875          101276.8984375        288.084686279297       0.103338502347469     -0.0677983376031531                       0 
       -1.7623811905953                       0        1.22467398643494        43.0617532348874   -2.00302725888172E-05           253949.296875          101276.8984375        288.084686279297       0.103338502347469     -0.0677983706478817                       0 
      -1.75987993996998                       0        1.22467398643494        43.0617537769196   -2.02593091299322E-05           253949.296875          101276.8984375        288.084686279297       0.103338502347469     -0.0677984036926103                       0 
      -1.75737868934467                       0        1.22467398643494        43.0617543189518   -2.04883456710472E-05           253949.296875          101276.8984375        288.084686279297       0.103338502347469     -0.0677984367373388                       0 
      -1.75487743871936                       0        1.22467398643494         43.061754860984   -2.07173822121623E-05           253949.296875          101276.8984375        288.084686279297       0.103338502347469     -0.0677984697820674                       0 
      -1.75237618809405                       0        1.22467398643494        43.0617554030162   -2.09464187532773E-05           253949.296875          101276.8984375        288.084686279297       0.103338502347469     -0.0677985028267959                       0 
      -1.74987493746873                       0        1.22467398643494        43.0617559450484   -2.11754552943923E-05           253949.296875          101276.8984375        288.084686279297       0.103338502347469     -0.0677985358715245                       0 
      -1.74737368684342                       0        1.22467398643494        43.0617564870806   -2.14044918355073E-05           253949.296875          101276.8984375        288.084686279297       0.103338502347469     -0.0677985689162531                       0 
      -1.74487243621811                       0        1.22467398643494        43.0617570291128   -2.16335283766223E-05           253949.296875          101276.8984375        288.084686279297       0.103338502347469     -0.0677986019609816                       0 
       -1.7423711855928                       0        1.22467398643494         43.061757571145   -2.18625649177374E-05           253949.296875          101276.8984375        288.084686279297       0.103338502347469     -0.0677986350057102                       0 
      -1.73986993496748                       0        1.22467398643494        43.0617581131772   -2.20916014588524E-05           253949.296875          101276.8984375        288.084686279297       0.103338502347469     -0.0677986680504388                       0 
      -1.73736868434217                       0        1.22467398643494        43.0617586552094   -2.23206379999674E-05           253949.296875          101276.8984375        288.084686279297       0.103338502347469     -0.0677987010951673                       0 
      -1.73486743371686                       0        1.22467398643494        43.0617591972416   -2.25496745410824E-05           253949.296875          101276.8984375        288.084686279297       0.103338502347469     -0.0677987341398959                       0 
      -1.73236618309155                       0        1.22467398643494        43.0617597392738   -2.27787110821974E-05           253949.296875          101276.8984375        288.084686279297       0.103338502347469     -0.0677987671846245                       0 
      -1.72986493246623                       0        1.22467398643494        43.0617605144217   -2.30219401833695E-05           253949.296875          101276.8984375        288.084686279297        0.10333850522012     -0.0677988063938965                       0 
      -1.72736368184092                       0        1.22467398643494        43.0617614363861   -2.32741077825575E-05           253949.296875          101276.8984375        288.084686279297       0.103338509901971     -0.0677988494856084                       0 
      -1.72486243121561                       0        1.22467398643494        43.0617623583506   -2.35262753817455E-05           253949.296875          101276.8984375        288.084686279297       0.103338514583821     -0.0677988925773203                       0 
       -1.7223611805903                       0        1.22467398643494         43.061763280315   -2.37784429809335E-05           253949.296875          101276.8984375        288.084686279297       0.103338519265672     -0.0677989356690321                       0 