VARIABLES = "x"
 "y"
 "Density"
 "Momentum_x"
 "Momentum_y"
 "Energy"
 "Pressure"
 "Temperature"
 "Mach"
 "C<sub>p</sub>"
 "Roe_Dissipation"
ZONE
DT=(DOUBLE,DOUBLE,DOUBLE,DOUBLE,DOUBLE,DOUBLE,DOUBLE,DOUBLE,DOUBLE,DOUBLE,DOUBLE)
                     -2                       0        1.22474896907806        42.8167495727539   -3.58177398851486E-09            253962.40625          101285.6015625           288.091796875       0.102742999792099     -0.0555572807788849                       0 
      -1.99749874937469                       0        1.22474896907806        42.8167495727539   -1.71189859431464E-09            253962.40625          101285.6015625           288.091796875       0.102742999792099     -0.0555572809799787                       0 
      -1.99499749874937                       0        1.22474896907806        42.8167495727539    1.57976799883196E-10            253962.40625          101285.6015625           288.091796875       0.102742999792099     -0.0555572811810726                       0 
      -1.99249624812406                       0        1.22474896907806        42.8167495727539    2.02785219408087E-09            253962.40625          101285.6015625           288.091796875       0.102742999792099     -0.0555572813821664                       0 
      -1.98999499749875                       0        1.22474896907806        42.8167495727539    3.89772758827854E-09            253962.40625          101285.6015625           288.091796875       0.102742999792099     -0.0555572815832603                       0 
      -1.98749374687344                       0        1.22474896907806        42.8167495727539    5.76760298247621E-09            253962.40625          101285.6015625           288.091796875       0.102742999792099     -0.0555572817843541                       0 
      -1.98499249624812                       0        1.22474896907806        42.8167495727539    7.63747837667404E-09            253962.40625          101285.6015625           288.091796875       0.102742999792099     -0.0555572819854479                       0 
      -1.98249124562281                       0        1.22474896907806        42.8167495727539    9.50735377087171E-09            253962.40625          101285.6015625           288.091796875       0.102742999792099     -0.0555572821865418                       0 
       -1.9799899949975                       0        1.22474896907806        42.8167495727539    1.13772291650694E-08            253962.40625          101285.6015625           288.091796875       0.102742999792099     -0.0555572823876356                       0 
      -1.97748874437219                       0        1.22474896907806        42.8167495727539    1.32471045592672E-08            253962.40625          101285.6015625           288.091796875       0.102742999792099     -0.0555572825887295                       0 
      -1.97498749374687                       0        1.22474896907806        42.8167495727539    1.51169799534649E-08            253962.40625          101285.6015625           288.091796875       0.102742999792099     -0.0555572827898233                       0 
      -1.97248624312156                       0        1.22474896907806        42.8167495727539    1.69868553476626E-08            253962.40625          101285.6015625           288.091796875       0.102742999792099     -0.0555572829909172                       0 
      -1.96998499249625                       0        1.22474896907806        42.8167495727539    1.88567307418604E-08            253962.40625          101285.6015625           288.091796875       0.102742999792099      -0.055557283192011                       0 
      -1.96748374187094                       0        1.22474896907806        42.8167495727539    2.07266061360581E-08            253962.40625          101285.6015625           288.091796875       0.102742999792099     -0.0555572833931049                       0 
      -1.96498249124562                       0        1.22474896907806        42.8167495727539    2.25964815302557E-08            253962.40625          101285.6015625           288.091796875       0.102742999792099     -0.0555572835941987                       0 
      -1.96248124062031                       0        1.22474896907806        42.8167495727539    2.44663569244534E-08            253962.40625          101285.6015625           288.091796875       0.102742999792099     -0.0555572837952925                       0 
        -1.959979989995                       0        1.22474896907806        42.8167495727539    2.63362323186512E-08            253962.40625          101285.6015625           288.091796875       0.102742999792099     -0.0555572839963864                       0 
      -1.95747873936968                       0        1.22474896907806        42.8167495727539    2.82061077128489E-08            253962.40625          101285.6015625           288.091796875       0.102742999792099     -0.0555572841974802                       0 
      -1.95497748874437                       0        1.22474896907806        42.8167495727539    3.00759831070466E-08            253962.40625          101285.6015625           288.091796875       0.102742999792099     -0.0555572843985741                       0 
      -1.95247623811906                       0        1.22474896907806        42.8167495727539    3.19001703388088E-08            253962.40625          101285.6015625           288.091796875       0.102742999792099     -0.0555572845918225                       0 
      -1.94997498749375                       0        1.22474896907806        42.8167495727539    3.35545026301342E-08            253962.40625          101285.6015625           288.091796875       0.102742999792099     -0.0555572847559042                       0 
      -1.94747373686843                       0        1.22474896907806        42.8167495727539    3.52088349214596E-08            253962.40625          101285.6015625           288.091796875       0.102742999792099     -0.0555572849199858                       0 
      -1.94497248624312                       0        1.22474896907806        42.8167495727539    3.68631672127851E-08            253962.40625          101285.6015625           288.091796875       0.102742999792099     -0.0555572850840675                       0 
      -1.94247123561781                       0        1.22474896907806        42.8167495727539    3.85174995041105E-08            253962.40625          101285.6015625           288.091796875       0.102742999792099     -0.0555572852481491                       0 
       -1.9399699849925                       0        1.22474896907806        42.8167495727539    4.01718317954359E-08            253962.40625          101285.6015625           288.091796875       0.102742999792099     -0.0555572854122308                       0 
      -1.93746873436718                       0        1.22474896907806        42.8167495727539    4.18261640867613E-08            253962.40625          101285.6015625           288.091796875       0.102742999792099     -0.0555572855763125                       0 
      -1.93496748374187                       0        1.22474896907806        42.8167495727539    4.34804963780868E-08            253962.40625          101285.6015625           288.091796875       0.102742999792099     -0.0555572857403941                       0 
      -1.93246623311656                       0        1.22474896907806        42.8167495727539    4.51348286694122E-08            253962.40625          101285.6015625           288.091796875       0.102742999792099     -0.0555572859044757                       0 
      -1.92996498249125                       0        1.22474896907806        42.8167495727539    4.67891609607376E-08            253962.40625          101285.6015625           288.091796875       0.102742999792099     -0.0555572860685574                       0 
      -1.92746373186593                       0        1.22474896907806        42.8167495727539    4.84434932520631E-08            253962.40625          101285.6015625           288.091796875       0.102742999792099     -0.0555572862326391                       0 
      -1.92496248124062                       0        1.22474896907806        42.8167495727539    5.00978255433885E-08            253962.40625          101285.6015625           288.091796875       0.102742999792099     -0.0555572863967207                       0 
      -1.92246123061531                       0        1.22474896907806        42.8167495727539    5.17521578347139E-08            253962.40625          101285.6015625           288.091796875       0.102742999792099     -0.0555572865608024                       0 
      -1.91995997998999                       0        1.22474896907806        42.8167495727539    5.34064901260394E-08            253962.40625          101285.6015625           288.091796875       0.102742999792099      -0.055557286724884                       0 
      -1.91745872936468                       0        1.22474896907806        42.8167495727539    5.50608224173648E-08            253962.40625          101285.6015625           288.091796875       0.102742999792099     -0.0555572868889657                       0 
      -1.91495747873937                       0        1.22474896907806        42.8167495727539    5.67151547086902E-08            253962.40625          101285.6015625           288.091796875       0.102742999792099     -0.0555572870530473                       0 
      -1.91245622811406                       0        1.22474896907806        42.8167495727539    5.83694870000156E-08            253962.40625          101285.6015625           288.091796875       0.102742999792099      -0.055557287217129                       0 
      -1.90995497748874                       0        1.22474896907806        42.8167495727539    6.00238192913411E-08            253962.40625          101285.6015625           288.091796875       0.102742999792099     -0.0555572873812106                       0 
      -1.90745372686343                       0        1.22474896907806        42.8167495727539    6.16781515826665E-08            253962.40625          101285.6015625           288.091796875       0.102742999792099     -0.0555572875452923                       0 
      -1.90495247623812                       0        1.22474896907806        42.8167495727539    6.33324838739919E-08            253962.40625          101285.6015625           288.091796875       0.102742999792099     -0.0555572877093739                       0 
      -1.90245122561281                       0        1.22474896907806        42.8167495727539    6.49868161653174E-08            253962.40625          101285.6015625           288.091796875       0.102742999792099     -0.0555572878734556                       0 
      -1.89994997498749                       0        1.22474896907806        42.8167495727539    6.66411484566428E-08            253962.40625          101285.6015625           288.091796875       0.102742999792099     -0.0555572880375372                       0 
      -1.89744872436218                       0        1.22474896907806        42.8167495727539    6.82954807479682E-08            253962.40625          101285.6015625           288.091796875       0.102742999792099     -0.0555572882016189                       0 
      -1.89494747373687                       0        1.22474896907806        42.8167495727539    6.84406210374964E-08            253962.40625          101285.6015625           288.091796875       0.102742999792099     -0.0555572882294655                       0 
      -1.89244622311156                       0        1.22474896907806        42.8167495727539    6.86046972240127E-08            253962.40625          101285.6015625           288.091796875       0.102742999792099     -0.0555572887232476                       0 
      -1.88994497248624                       0        1.22474896907806        42.8167495727539    7.03102848363803E-08            253962.40625          101285.6015625           288.091796875       0.102742999792099     -0.0555572892196078                       0 
      -1.88744372186093                       0        1.22474896907806        42.8167495727539    7.20158724487478E-08            253962.40625          101285.6015625           288.091796875       0.102742999792099     -0.0555572897159681                       0 
      -1.88494247123562                       0        1.22474896907806        42.8167495727539    7.37214600611155E-08            253962.40625          101285.6015625           288.091796875       0.102742999792099     -0.0555572902123284                       0 
      -1.88244122061031                       0        1.22474896907806        42.8167495727539    7.54270476734831E-08            253962.40625          101285.6015625           288.091796875       0.102742999792099     -0.0555572907086886                       0 
      -1.87993996998499                       0        1.22474896907806        42.8167495727539    7.71326352858507E-08            253962.40625          101285.6015625           288.091796875       0.102742999792099     -0.0555572912050489                       0 
      -1.87743871935968                       0        1.22474896907806        42.8167495727539    7.88382228982184E-08            253962.40625          101285.6015625           288.091796875       0.102742999792099     -0.0555572917014092                       0 
      -1.87493746873437                       0        1.22474896907806        42.8167495727539    8.05438105105859E-08            253962.40625          101285.6015625           288.091796875       0.102742999792099     -0.0555572921977694                       0 
      -1.87243621810905                       0        1.22474896907806        42.8167495727539    8.22493981229535E-08            253962.40625          101285.6015625           288.091796875       0.102742999792099     -0.0555572926941297                       0 
      -1.86993496748374                       0        1.22474896907806        42.8167495727539    8.39549857353212E-08            253962.40625          101285.6015625           288.091796875       0.102742999792099       -0.05555729319049                       0 
      -1.86743371685843                       0        1.22474896907806        42.8167495727539    8.56605733476888E-08            253962.40625          101285.6015625           288.091796875       0.102742999792099     -0.0555572936868502                       0 
      -1.86493246623312                       0        1.22474896907806        42.8167495727539    8.73661609600563E-08            253962.40625          101285.6015625           288.091796875       0.102742999792099     -0.0555572941832105                       0 
       -1.8624312156078                       0        1.22474896907806        42.8167495727539    8.90717485724239E-08            253962.40625          101285.6015625           288.091796875       0.102742999792099     -0.0555572946795708                       0 
      -1.85992996498249                       0        1.22474896907806        42.8167495727539    9.07773361847916E-08            253962.40625          101285.6015625           288.091796875       0.102742999792099      -0.055557295175931                       0 
      -1.85742871435718                       0        1.22474896907806        42.8167495727539    9.24829237971592E-08            253962.40625          101285.6015625           288.091796875       0.102742999792099     -0.0555572956722913                       0 
      -1.85492746373187                       0        1.22474896907806        42.8167495727539    9.41885114095267E-08            253962.40625          101285.6015625           288.091796875       0.102742999792099     -0.0555572961686516                       0 
      -1.85242621310655                       0        1.22474896907806        42.8167495727539    9.58940990218944E-08            253962.40625          101285.6015625           288.091796875       0.102742999792099     -0.0555572966650118                       0 
      -1.84992496248124                       0        1.22474896907806        42.8167495727539     9.7599686634262E-08            253962.40625          101285.6015625           288.091796875       0.102742999792099     -0.0555572971613721                       0 
      -1.84742371185593                       0        1.22474896907806        42.8167495727539    9.93052742466296E-08            253962.40625          101285.6015625           288.091796875       0.102742999792099     -0.0555572976577324                       0 
      -1.84492246123062                       0        1.22474896907806        42.8167495727539    1.01010861858997E-07            253962.40625          101285.6015625           288.091796875       0.102742999792099     -0.0555572981540926                       0 
       -1.8424212106053                       0        1.22474896907806        42.8167495727539    1.02716449471365E-07            253962.40625          101285.6015625           288.091796875       0.102742999792099     -0.0555572986504529                       0 
      -1.83991995997999                       0        1.22474896907806        42.8167495727539    1.04422037083732E-07            253962.40625          101285.6015625           288.091796875       0.102742999792099     -0.0555572991468132                       0 
      -1.83741870935468                       0        1.22474896907806        42.8167495727539    1.06213302241971E-07            253962.40625          101285.6015625           288.091796875       0.102742999792099     -0.0555572996515597                       0 
      -1.83491745872936                       0        1.22474896907806        42.8167495727539    1.08097696863195E-07            253962.40625          101285.6015625           288.091796875       0.102742999792099     -0.0555573001654218                       0 
      -1.83241620810405                       0        1.22474896907806        42.8167495727539    1.09982091484418E-07            253962.40625          101285.6015625           288.091796875       0.102742999792099      -0.055557300679284                       0 
      -1.82991495747874                       0        1.22474896907806        42.8167495727539    1.11866486105641E-07            253962.40625          101285.6015625           288.091796875       0.102742999792099     -0.0555573011931461                       0 
      -1.82741370685343                       0        1.22474896907806        42.8167495727539    1.13750880726864E-07            253962.40625          101285.6015625           288.091796875       0.102742999792099     -0.0555573017070083                       0 
      -1.82491245622811                       0        1.22474896907806        42.8167495727539    1.15635275348088E-07            253962.40625          101285.6015625           288.091796875       0.102742999792099     -0.0555573022208704                       0 
       -1.8224112056028                       0        1.22474896907806        42.8167495727539    1.17519669969311E-07            253962.40625          101285.6015625           288.091796875       0.102742999792099     -0.0555573027347326                       0 
      -1.81990995497749                       0        1.22474896907806        42.8167495727539    1.19404064590534E-07            253962.40625          101285.6015625           288.091796875       0.102742999792099     -0.0555573032485947                       0 
      -1.81740870435218                       0        1.22474896907806        42.8167495727539    1.21288459211757E-07            253962.40625          101285.6015625           288.091796875       0.102742999792099     -0.0555573037624569                       0 
      -1.81490745372686                       0        1.22474896907806        42.8167495727539    1.23172853832981E-07            253962.40625          101285.6015625           288.091796875       0.102742999792099     -0.0555573042763191                       0 
      -1.81240620310155                       0        1.22474896907806        42.8167495727539    1.25057248454204E-07            253962.40625          101285.6015625           288.091796875       0.102742999792099     -0.0555573047901812                       0 
      -1.80990495247624                       0        1.22474896907806        42.8167495727539    1.26941643075427E-07            253962.40625          101285.6015625           288.091796875       0.102742999792099     -0.0555573053040434                       0 
      -1.80740370185093                       0        1.22474896907806        42.8167495727539     1.2882603769665E-07            253962.40625          101285.6015625           288.091796875       0.102742999792099     -0.0555573058179055                       0 
      -1.80490245122561                       0        1.22474896907806        42.8167495727539    1.30710432317874E-07            253962.40625          101285.6015625           288.091796875       0.102742999792099     -0.0555573063317677                       0 
       -1.8024012006003                       0        1.22474896907806        42.8167495727539    1.32594826939097E-07            253962.40625          101285.6015625           288.091796875       0.102742999792099     -0.0555573068456298                       0 
      -1.79989994997499                       0        1.22474896907806        42.8167495727539     1.3447922156032E-07            253962.40625          101285.6015625           288.091796875       0.102742999792099      -0.055557307359492                       0 
      -1.79739869934967                       0        1.22474896907806        42.8167495727539    1.36363616181543E-07            253962.40625          101285.6015625           288.091796875       0.102742999792099     -0.0555573078733541                       0 
      -1.79489744872436                       0        1.22474896907806        42.8167495727539    1.38248010802767E-07            253962.40625          101285.6015625           288.091796875       0.102742999792099     -0.0555573083872163                       0 
      -1.79239619809905                       0        1.22474896907806        42.8167495727539     1.4013240542399E-07            253962.40625          101285.6015625           288.091796875       0.102742999792099     -0.0555573089010784                       0 
      -1.78989494747374                       0        1.22474896907806        42.8167495727539    1.42016800045213E-07            253962.40625          101285.6015625           288.091796875       0.102742999792099     -0.0555573094149406                       0 
      -1.78739369684842                       0        1.22474896907806        42.8167495727539    1.43049846872239E-07            253962.40625          101285.6015625           288.091796875       0.102742999792099     -0.0555573099285177                       0 
      -1.78489244622311                       0        1.22474896907806        42.8167495727539    1.42917192415668E-07            253962.40625          101285.6015625           288.091796875       0.102742999792099     -0.0555573104417046                       0 
       -1.7823911955978                       0        1.22474896907806        42.8167495727539     1.4282101634336E-07            253962.40625          101285.6015625           288.091796875       0.102742999792099     -0.0555573112231228                       0 
      -1.77988994497249                       0        1.22474896907806        42.8167495727539    1.42757777837451E-07            253962.40625          101285.6015625           288.091796875       0.102742999792099     -0.0555573121046828                       0 
      -1.77738869434717                       0        1.22474896907806        42.8167495727539    1.44685946447511E-07            253962.40625          101285.6015625           288.091796875       0.102742999792099     -0.0555573129868966                       0 
      -1.77488744372186                       0        1.22474896907806        42.8167495727539    1.46614115057571E-07            253962.40625          101285.6015625           288.091796875       0.102742999792099     -0.0555573138691105                       0 
      -1.77238619309655                       0        1.22474896907806        42.8167495727539     1.4854228366763E-07            253962.40625          101285.6015625           288.091796875       0.102742999792099     -0.0555573147513244                       0 
      -1.76988494247124                       0        1.22474896907806        42.8167495727539     1.5047045227769E-07            253962.40625          101285.6015625           288.091796875       0.102742999792099     -0.0555573156335382                       0 
      -1.76738369184592                       0        1.22474896907806        42.8167495727539     1.5239862088775E-07            253962.40625          101285.6015625           288.091796875       0.102742999792099     -0.0555573165157521                       0 
      -1.76488244122061                       0        1.22474896907806        42.8167495727539    1.54326789497809E-07            253962.40625          101285.6015625           288.091796875       0.102742999792099      -0.055557317397966                       0 
       -1.7623811905953                       0        1.22474896907806        42.8167495727539    1.56254958107869E-07            253962.40625          101285.6015625           288.091796875       0.102742999792099     -0.0555573182801798                       0 
      -1.75987993996998                       0        1.22474896907806        42.8167495727539    1.58183126717928E-07            253962.40625          101285.6015625           288.091796875       0.102742999792099     -0.0555573191623937                       0 
      -1.75737868934467                       0        1.22474896907806        42.8167495727539    1.60111295327988E-07            253962.40625          101285.6015625           288.091796875       0.102742999792099     -0.0555573200446076                       0 
      -1.75487743871936                       0        1.22474896907806        42.8167495727539    1.62039463938048E-07            253962.40625          101285.6015625           288.091796875       0.102742999792099     -0.0555573209268214                       0 
      -1.75237618809405                       0        1.22474896907806        42.8167495727539    1.63967632548107E-07            253962.40625          101285.6015625           288.091796875       0.102742999792099     -0.0555573218090353                       0 
      -1.74987493746873                       0        1.22474896907806        42.8167495727539    1.65895801158167E-07            253962.40625          101285.6015625           288.091796875       0.102742999792099     -0.0555573226912492                       0 
      -1.74737368684342                       0        1.22474896907806        42.8167495727539    1.67823969768227E-07            253962.40625          101285.6015625           288.091796875       0.102742999792099      -0.055557323573463                       0 
      -1.74487243621811                       0        1.22474896907806        42.8167495727539    1.69752138378286E-07            253962.40625          101285.6015625           288.091796875       0.102742999792099     -0.0555573244556769                       0 
       -1.7423711855928                       0        1.22474896907806        42.8167495727539    1.71680306988346E-07            253962.40625          101285.6015625           288.091796875       0.102742999792099     -0.0555573253378908                       0 
      -1.73986993496748                       0        1.22474896907806        42.8167495727539    1.73608475598405E-07            253962.40625          101285.6015625           288.091796875       0.102742999792099     -0.0555573262201047                       0 
      -1.73736868434217                       0        1.22474896907806        42.8167495727539    1.75536644208465E-07            253962.40625          101285.6015625           288.091796875       0.102742999792099     -0.0555573271023185                       0 
      -1.73486743371686                       0        1.22474896907806        42.8167495727539    1.77464812818525E-07            253962.40625          101285.6015625           288.091796875       0.102742999792099     -0.0555573279845324                       0 
      -1.73236618309155                       0        1.22474896907806        42.8167495727539    1.79392981428584E-07            253962.40625          101285.6015625           288.091796875       0.102742999792099     -0.0555573288667463                       0 
      -1.72986493246623                       0        1.22474896907806        42.8167495727539    1.81467423879347E-07            253962.40625          101285.6015625           288.091796875       0.102742999792099     -0.0555573298705781                       0 
      -1.72736368184092                       0        1.22474896907806        42.8167495727539    1.83633989839163E-07            253962.40625          101285.6015625           288.091796875       0.102742999792099     -0.0555573309510052                       0 
      -1.72486243121561                       0        1.22474896907806        42.8167495727539    1.85800555798978E-07            253962.40625          101285.6015625           288.091796875       0.102742999792099     -0.0555573320314323                       0 
       -1.7223611805903                       0        1.22474896907806        42.8167495727539    1.87967121758794E-07            253962.40625          101285.6015625           288.091796875       0.102742999792099     -0.0555573331118594                       0 