VARIABLES = "x"
 "y"
 "Density"
 "Momentum_x"
 "Momentum_y"
 "Energy"
 "Pressure"
 "Temperature"
 "Mach"
 "C<sub>p</sub>"
 "Roe_Dissipation"
ZONE
DT=(DOUBLE,DOUBLE,DOUBLE,DOUBLE,DOUBLE,DOUBLE,DOUBLE,DOUBLE,DOUBLE,DOUBLE,DOUBLE)
                     -2                       0        1.22418200969696        44.6354103088379    4.96725022003348E-07                253863.5          101219.8984375        288.038391113281       0.107166603207588       -0.14814330637455                       0 
      -1.99749874937469                       0        1.22418200969696        44.6354106090738    1.29192056179552E-07                253863.5          101219.8984375        288.038391113281       0.107166603207588      -0.148143316538786                       0 
      -1.99499749874937                       0        1.22418200969696        44.6354109093097   -2.38340909644616E-07                253863.5          101219.8984375        288.038391113281       0.107166603207588      -0.148143326703022                       0 
      -1.99249624812406                       0        1.22418200969696        44.6354112095456   -6.05873875468751E-07                253863.5          101219.8984375        288.038391113281       0.107166603207588      -0.148143336867258                       0 
      -1.98999499749875                       0        1.22418200969696        44.6354115097815   -9.73406841292886E-07                253863.5          101219.8984375        288.038391113281       0.107166603207588      -0.148143347031494                       0 
      -1.98749374687344                       0        1.22418200969696        44.6354118100174   -1.34093980711702E-06                253863.5          101219.8984375        288.038391113281       0.107166603207588       -0.14814335719573                       0 
      -1.98499249624812                       0        1.22418200969696        44.6354121102532   -1.70847277294119E-06                253863.5          101219.8984375        288.038391113281       0.107166603207588      -0.148143367359966                       0 
      -1.98249124562281                       0        1.22418200969696        44.6354124104891   -2.07600573876532E-06                253863.5          101219.8984375        288.038391113281       0.107166603207588      -0.148143377524201                       0 
       -1.9799899949975                       0        1.22418200969696         44.635412710725   -2.44353870458946E-06                253863.5          101219.8984375        288.038391113281       0.107166603207588      -0.148143387688437                       0 
      -1.97748874437219                       0        1.22418200969696        44.6354130109609   -2.81107167041363E-06                253863.5          101219.8984375        288.038391113281       0.107166603207588      -0.148143397852673                       0 
      -1.97498749374687                       0        1.22418200969696        44.6354133111968   -3.17860463623776E-06                253863.5          101219.8984375        288.038391113281       0.107166603207588      -0.148143408016909                       0 
      -1.97248624312156                       0        1.22418200969696        44.6354136114327    -3.5461376020619E-06                253863.5          101219.8984375        288.038391113281       0.107166603207588      -0.148143418181145                       0 
      -1.96998499249625                       0        1.22418200969696        44.6354139116686   -3.91367056788606E-06                253863.5          101219.8984375        288.038391113281       0.107166603207588      -0.148143428345381                       0 
      -1.96748374187094                       0        1.22418200969696        44.6354142119045    -4.2812035337102E-06                253863.5          101219.8984375        288.038391113281       0.107166603207588      -0.148143438509617                       0 
      -1.96498249124562                       0        1.22418200969696        44.6354145121404   -4.64873649953433E-06                253863.5          101219.8984375        288.038391113281       0.107166603207588      -0.148143448673853                       0 
      -1.96248124062031                       0        1.22418200969696        44.6354148123763   -5.01626946535847E-06                253863.5          101219.8984375        288.038391113281       0.107166603207588      -0.148143458838089                       0 
        -1.959979989995                       0        1.22418200969696        44.6354151126122   -5.38380243118263E-06                253863.5          101219.8984375        288.038391113281       0.107166603207588      -0.148143469002325                       0 
      -1.95747873936968                       0        1.22418200969696        44.6354154128481   -5.75133539700677E-06                253863.5          101219.8984375        288.038391113281       0.107166603207588      -0.148143479166561                       0 
      -1.95497748874437                       0        1.22418200969696         44.635415713084    -6.1188683628309E-06                253863.5          101219.8984375        288.038391113281       0.107166603207588      -0.148143489330797                       0 
      -1.95247623811906                       0        1.22418200969696        44.6354160704209   -6.47651045965504E-06                253863.5          101219.8984375        288.038391113281       0.107166604092012      -0.148143501927048                       0 
      -1.94997498749375                       0        1.22418200969696        44.6354166400426   -6.79738126003584E-06                253863.5          101219.8984375        288.038391113281       0.107166608264459      -0.148143523564804                       0 
      -1.94747373686843                       0        1.22418200969696        44.6354172096643   -7.11825206041664E-06                253863.5          101219.8984375        288.038391113281       0.107166612436906       -0.14814354520256                       0 
      -1.94497248624312                       0        1.22418200969696         44.635417779286   -7.43912286079747E-06                253863.5          101219.8984375        288.038391113281       0.107166616609353      -0.148143566840316                       0 
      -1.94247123561781                       0        1.22418200969696        44.6354183489077   -7.75999366117827E-06                253863.5          101219.8984375        288.038391113281         0.1071666207818      -0.148143588478072                       0 
       -1.9399699849925                       0        1.22418200969696        44.6354189185294   -8.08086446155908E-06                253863.5          101219.8984375        288.038391113281       0.107166624954247      -0.148143610115828                       0 
      -1.93746873436718                       0        1.22418200969696        44.6354194881511   -8.40173526193988E-06                253863.5          101219.8984375        288.038391113281       0.107166629126694      -0.148143631753583                       0 
      -1.93496748374187                       0        1.22418200969696        44.6354200577728   -8.72260606232071E-06                253863.5          101219.8984375        288.038391113281       0.107166633299141      -0.148143653391339                       0 
      -1.93246623311656                       0        1.22418200969696        44.6354206273945   -9.04347686270151E-06                253863.5          101219.8984375        288.038391113281       0.107166637471589      -0.148143675029095                       0 
      -1.92996498249125                       0        1.22418200969696        44.6354211970162   -9.36434766308231E-06                253863.5          101219.8984375        288.038391113281       0.107166641644036      -0.148143696666851                       0 
      -1.92746373186593                       0        1.22418200969696        44.6354217666379   -9.68521846346314E-06                253863.5          101219.8984375        288.038391113281       0.107166645816483      -0.148143718304607                       0 
      -1.92496248124062                       0        1.22418200969696        44.6354223362596   -1.00060892638439E-05                253863.5          101219.8984375        288.038391113281        0.10716664998893      -0.148143739942363                       0 
      -1.92246123061531                       0        1.22418200969696        44.6354229058813   -1.03269600642247E-05                253863.5          101219.8984375        288.038391113281       0.107166654161377      -0.148143761580119                       0 
      -1.91995997998999                       0        1.22418200969696         44.635423475503   -1.06478308646056E-05                253863.5          101219.8984375        288.038391113281       0.107166658333824      -0.148143783217875                       0 
      -1.91745872936468                       0        1.22418200969696        44.6354240451247   -1.09687016649864E-05                253863.5          101219.8984375        288.038391113281       0.107166662506271      -0.148143804855631                       0 
      -1.91495747873937                       0        1.22418200969696        44.6354246147464   -1.12895724653672E-05                253863.5          101219.8984375        288.038391113281       0.107166666678718      -0.148143826493387                       0 
      -1.91245622811406                       0        1.22418200969696        44.6354251843681    -1.1610443265748E-05                253863.5          101219.8984375        288.038391113281       0.107166670851165      -0.148143848131143                       0 
      -1.90995497748874                       0        1.22418200969696        44.6354257539898   -1.19313140661288E-05                253863.5          101219.8984375        288.038391113281       0.107166675023612      -0.148143869768899                       0 
      -1.90745372686343                       0        1.22418200969696        44.6354263236115   -1.22521848665096E-05                253863.5          101219.8984375        288.038391113281       0.107166679196059      -0.148143891406655                       0 
      -1.90495247623812                       0        1.22418200969696        44.6354268932332   -1.25730556668904E-05                253863.5          101219.8984375        288.038391113281       0.107166683368506      -0.148143913044411                       0 
      -1.90245122561281                       0        1.22418200969696        44.6354274628549   -1.28939264672712E-05                253863.5          101219.8984375        288.038391113281       0.107166687540953      -0.148143934682167                       0 
      -1.89994997498749                       0        1.22418200969696        44.6354280324766    -1.3214797267652E-05                253863.5          101219.8984375        288.038391113281       0.107166691713401      -0.148143956319923                       0 
      -1.89744872436218                       0        1.22418200969696        44.6354286020983   -1.35356680680328E-05                253863.5          101219.8984375        288.038391113281       0.107166695885848      -0.148143977957679                       0 
      -1.89494747373687                       0        1.22418200969696        44.6354292394664   -1.40511359809009E-05                253863.5          101219.8984375        288.038391113281       0.107166698274131       -0.14814399377878                       0 
      -1.89244622311156                       0        1.22418200969696         44.635430260793   -1.45982828717213E-05                253863.5          101219.8984375        288.038391113281       0.107166700065136      -0.148144060655956                       0 
      -1.88994497248624                       0        1.22418200969696         44.635431356531   -1.49369269453448E-05                253863.5          101219.8984375        288.038391113281       0.107166700065136      -0.148144122341475                       0 
      -1.88744372186093                       0        1.22418200969696         44.635432452269   -1.52755710189683E-05                253863.5          101219.8984375        288.038391113281       0.107166700065136      -0.148144184026993                       0 
      -1.88494247123562                       0        1.22418200969696         44.635433548007   -1.56142150925918E-05                253863.5          101219.8984375        288.038391113281       0.107166700065136      -0.148144245712512                       0 
      -1.88244122061031                       0        1.22418200969696         44.635434643745   -1.59528591662153E-05                253863.5          101219.8984375        288.038391113281       0.107166700065136       -0.14814430739803                       0 
      -1.87993996998499                       0        1.22418200969696         44.635435739483   -1.62915032398388E-05                253863.5          101219.8984375        288.038391113281       0.107166700065136      -0.148144369083549                       0 
      -1.87743871935968                       0        1.22418200969696         44.635436835221   -1.66301473134623E-05                253863.5          101219.8984375        288.038391113281       0.107166700065136      -0.148144430769067                       0 
      -1.87493746873437                       0        1.22418200969696         44.635437930959   -1.69687913870858E-05                253863.5          101219.8984375        288.038391113281       0.107166700065136      -0.148144492454586                       0 
      -1.87243621810905                       0        1.22418200969696         44.635439026697   -1.73074354607093E-05                253863.5          101219.8984375        288.038391113281       0.107166700065136      -0.148144554140104                       0 
      -1.86993496748374                       0        1.22418200969696        44.6354401224351   -1.76460795343328E-05                253863.5          101219.8984375        288.038391113281       0.107166700065136      -0.148144615825623                       0 
      -1.86743371685843                       0        1.22418200969696        44.6354412181731   -1.79847236079563E-05                253863.5          101219.8984375        288.038391113281       0.107166700065136      -0.148144677511141                       0 
      -1.86493246623312                       0        1.22418200969696        44.6354423139111   -1.83233676815798E-05                253863.5          101219.8984375        288.038391113281       0.107166700065136       -0.14814473919666                       0 
       -1.8624312156078                       0        1.22418200969696        44.6354434096491   -1.86620117552033E-05                253863.5          101219.8984375        288.038391113281       0.107166700065136      -0.148144800882178                       0 
      -1.85992996498249                       0        1.22418200969696        44.6354445053871   -1.90006558288269E-05                253863.5          101219.8984375        288.038391113281       0.107166700065136      -0.148144862567697                       0 
      -1.85742871435718                       0        1.22418200969696        44.6354456011251   -1.93392999024504E-05                253863.5          101219.8984375        288.038391113281       0.107166700065136      -0.148144924253215                       0 
      -1.85492746373187                       0        1.22418200969696        44.6354466968631   -1.96779439760739E-05                253863.5          101219.8984375        288.038391113281       0.107166700065136      -0.148144985938734                       0 
      -1.85242621310655                       0        1.22418200969696        44.6354477926011   -2.00165880496974E-05                253863.5          101219.8984375        288.038391113281       0.107166700065136      -0.148145047624252                       0 
      -1.84992496248124                       0        1.22418200969696        44.6354488883391   -2.03552321233209E-05                253863.5          101219.8984375        288.038391113281       0.107166700065136      -0.148145109309771                       0 
      -1.84742371185593                       0        1.22418200969696        44.6354499840771   -2.06938761969444E-05                253863.5          101219.8984375        288.038391113281       0.107166700065136      -0.148145170995289                       0 
      -1.84492246123062                       0        1.22418200969696        44.6354510798151   -2.10325202705679E-05                253863.5          101219.8984375        288.038391113281       0.107166700065136      -0.148145232680808                       0 
       -1.8424212106053                       0        1.22418200969696        44.6354521755532   -2.13711643441914E-05                253863.5          101219.8984375        288.038391113281       0.107166700065136      -0.148145294366326                       0 
      -1.83991995997999                       0        1.22418200969696        44.6354532712912   -2.17098084178149E-05                253863.5          101219.8984375        288.038391113281       0.107166700065136      -0.148145356051845                       0 
      -1.83741870935468                       0        1.22418200969696        44.6354546378039   -2.20581374776415E-05                253863.5          101219.8984375        288.038391113281       0.107166702199071      -0.148145427648145                       0 
      -1.83491745872936                       0        1.22418200969696        44.6354562986424   -2.24169938880703E-05                253863.5          101219.8984375        288.038391113281       0.107166706652543      -0.148145510017232                       0 
      -1.83241620810405                       0        1.22418200969696        44.6354579594809    -2.2775850298499E-05                253863.5          101219.8984375        288.038391113281       0.107166711106015      -0.148145592386319                       0 
      -1.82991495747874                       0        1.22418200969696        44.6354596203194   -2.31347067089276E-05                253863.5          101219.8984375        288.038391113281       0.107166715559487      -0.148145674755406                       0 
      -1.82741370685343                       0        1.22418200969696        44.6354612811579   -2.34935631193564E-05                253863.5          101219.8984375        288.038391113281       0.107166720012959      -0.148145757124493                       0 
      -1.82491245622811                       0        1.22418200969696        44.6354629419963    -2.3852419529785E-05                253863.5          101219.8984375        288.038391113281       0.107166724466431       -0.14814583949358                       0 
       -1.8224112056028                       0        1.22418200969696        44.6354646028348   -2.42112759402137E-05                253863.5          101219.8984375        288.038391113281       0.107166728919903      -0.148145921862667                       0 
      -1.81990995497749                       0        1.22418200969696        44.6354662636733   -2.45701323506425E-05                253863.5          101219.8984375        288.038391113281       0.107166733373375      -0.148146004231754                       0 
      -1.81740870435218                       0        1.22418200969696        44.6354679245118   -2.49289887610711E-05                253863.5          101219.8984375        288.038391113281       0.107166737826847       -0.14814608660084                       0 
      -1.81490745372686                       0        1.22418200969696        44.6354695853503   -2.52878451714998E-05                253863.5          101219.8984375        288.038391113281       0.107166742280319      -0.148146168969927                       0 
      -1.81240620310155                       0        1.22418200969696        44.6354712461888   -2.56467015819285E-05                253863.5          101219.8984375        288.038391113281       0.107166746733791      -0.148146251339014                       0 
      -1.80990495247624                       0        1.22418200969696        44.6354729070272   -2.60055579923572E-05                253863.5          101219.8984375        288.038391113281       0.107166751187263      -0.148146333708101                       0 
      -1.80740370185093                       0        1.22418200969696        44.6354745678657   -2.63644144027859E-05                253863.5          101219.8984375        288.038391113281       0.107166755640735      -0.148146416077188                       0 
      -1.80490245122561                       0        1.22418200969696        44.6354762287042   -2.67232708132146E-05                253863.5          101219.8984375        288.038391113281       0.107166760094207      -0.148146498446275                       0 
       -1.8024012006003                       0        1.22418200969696        44.6354778895427   -2.70821272236433E-05                253863.5          101219.8984375        288.038391113281       0.107166764547679      -0.148146580815361                       0 
      -1.79989994997499                       0        1.22418200969696        44.6354795503812    -2.7440983634072E-05                253863.5          101219.8984375        288.038391113281       0.107166769001151      -0.148146663184448                       0 
      -1.79739869934967                       0        1.22418200969696        44.6354812112197   -2.77998400445007E-05                253863.5          101219.8984375        288.038391113281       0.107166773454623      -0.148146745553535                       0 
      -1.79489744872436                       0        1.22418200969696        44.6354828720581   -2.81586964549294E-05                253863.5          101219.8984375        288.038391113281       0.107166777908095      -0.148146827922622                       0 
      -1.79239619809905                       0        1.22418200969696        44.6354845328966   -2.85175528653581E-05                253863.5          101219.8984375        288.038391113281       0.107166782361567      -0.148146910291709                       0 
      -1.78989494747374                       0        1.22418200969696        44.6354861937351   -2.88764092757868E-05                253863.5          101219.8984375        288.038391113281       0.107166786815039      -0.148146992660796                       0 
      -1.78739369684842                       0        1.22418200969696        44.6354877776996   -2.93424193074795E-05                253863.5          101219.8984375        288.038391113281       0.107166791266041      -0.148147071131797                       0 
      -1.78489244622311                       0        1.22418200969696        44.6354892564049   -2.99551485938653E-05                253863.5          101219.8984375        288.038391113281        0.10716679571366      -0.148147144265374                       0 
       -1.7823911955978                       0        1.22418200969696         44.635491031725    -3.0604454362445E-05                253863.5          101219.8984375        288.038391113281       0.107166800517411      -0.148147243195784                       0 
      -1.77988994497249                       0        1.22418200969696        44.6354929152441   -3.12647387937498E-05                253863.5          101219.8984375        288.038391113281       0.107166805454146      -0.148147351691173                       0 
      -1.77738869434717                       0        1.22418200969696        44.6354945377421   -3.16491918635773E-05                253863.5          101219.8984375        288.038391113281       0.107166810394544      -0.148147453443156                       0 
      -1.77488744372186                       0        1.22418200969696        44.6354961602402   -3.20336449334048E-05                253863.5          101219.8984375        288.038391113281       0.107166815334942      -0.148147555195139                       0 
      -1.77238619309655                       0        1.22418200969696        44.6354977827382   -3.24180980032323E-05                253863.5          101219.8984375        288.038391113281       0.107166820275339      -0.148147656947122                       0 
      -1.76988494247124                       0        1.22418200969696        44.6354994052362   -3.28025510730598E-05                253863.5          101219.8984375        288.038391113281       0.107166825215737      -0.148147758699105                       0 
      -1.76738369184592                       0        1.22418200969696        44.6355010277342   -3.31870041428873E-05                253863.5          101219.8984375        288.038391113281       0.107166830156135      -0.148147860451088                       0 
      -1.76488244122061                       0        1.22418200969696        44.6355026502322   -3.35714572127149E-05                253863.5          101219.8984375        288.038391113281       0.107166835096532      -0.148147962203071                       0 
       -1.7623811905953                       0        1.22418200969696        44.6355042727302   -3.39559102825423E-05                253863.5          101219.8984375        288.038391113281        0.10716684003693      -0.148148063955054                       0 
      -1.75987993996998                       0        1.22418200969696        44.6355058952282   -3.43403633523699E-05                253863.5          101219.8984375        288.038391113281       0.107166844977328      -0.148148165707037                       0 
      -1.75737868934467                       0        1.22418200969696        44.6355075177263   -3.47248164221974E-05                253863.5          101219.8984375        288.038391113281       0.107166849917725      -0.148148267459019                       0 
      -1.75487743871936                       0        1.22418200969696        44.6355091402243   -3.51092694920249E-05                253863.5          101219.8984375        288.038391113281       0.107166854858123      -0.148148369211002                       0 
      -1.75237618809405                       0        1.22418200969696        44.6355107627223   -3.54937225618524E-05                253863.5          101219.8984375        288.038391113281       0.107166859798521      -0.148148470962985                       0 
      -1.74987493746873                       0        1.22418200969696        44.6355123852203   -3.58781756316799E-05                253863.5          101219.8984375        288.038391113281       0.107166864738918      -0.148148572714968                       0 
      -1.74737368684342                       0        1.22418200969696        44.6355140077183   -3.62626287015074E-05                253863.5          101219.8984375        288.038391113281       0.107166869679316      -0.148148674466951                       0 
      -1.74487243621811                       0        1.22418200969696        44.6355156302163   -3.66470817713349E-05                253863.5          101219.8984375        288.038391113281       0.107166874619714      -0.148148776218934                       0 
       -1.7423711855928                       0        1.22418200969696        44.6355172527143   -3.70315348411625E-05                253863.5          101219.8984375        288.038391113281       0.107166879560111      -0.148148877970917                       0 
      -1.73986993496748                       0        1.22418200969696        44.6355188752123     -3.741598791099E-05                253863.5          101219.8984375        288.038391113281       0.107166884500509        -0.1481489797229                       0 
      -1.73736868434217                       0        1.22418200969696        44.6355204977104   -3.78004409808175E-05                253863.5          101219.8984375        288.038391113281       0.107166889440907      -0.148149081474883                       0 
      -1.73486743371686                       0        1.22418200969696        44.6355221202084    -3.8184894050645E-05                253863.5          101219.8984375        288.038391113281       0.107166894381304      -0.148149183226865                       0 
      -1.73236618309155                       0        1.22418200969696        44.6355237427064   -3.85693471204725E-05                253863.5          101219.8984375        288.038391113281       0.107166899321702      -0.148149284978848                       0 
      -1.72986493246623                       0        1.22418200969696         44.635525951433   -3.89781849462816E-05                253863.5          101219.8984375        288.038391113281       0.107166904103463      -0.148149408790383                       0 
      -1.72736368184092                       0        1.22418200969696        44.6355285293673   -3.94023803321137E-05                253863.5          101219.8984375        288.038391113281       0.107166908785313       -0.14814954649506                       0 
      -1.72486243121561                       0        1.22418200969696        44.6355311073017   -3.98265757179459E-05                253863.5          101219.8984375        288.038391113281       0.107166913467164      -0.148149684199738                       0 
       -1.7223611805903                       0        1.22418200969696         44.635533685236   -4.02507711037781E-05                253863.5          101219.8984375        288.038391113281       0.107166918149015      -0.148149821904415                       0 