VARIABLES = "x"
 "y"
 "Density"
 "Momentum_x"
 "Momentum_y"
 "Energy"
 "Pressure"
 "Temperature"
 "Mach"
 "C<sub>p</sub>"
 "Roe_Dissipation"
ZONE
DT=(DOUBLE,DOUBLE,DOUBLE,DOUBLE,DOUBLE,DOUBLE,DOUBLE,DOUBLE,DOUBLE,DOUBLE,DOUBLE)
                     -2                    -1.1        1.22433602809906        44.1487046814026     -4.972146320823E-07            253890.40625           101237.796875        288.052886962891       0.105982052385891      -0.122975421548689                       0 
      -1.99749874937469                    -1.1        1.22433602809906        44.1487044681425    3.06932980630811E-07            253890.40625           101237.796875        288.052886962891       0.105982049470225      -0.122975414731329                       0 
      -1.99499749874937                    -1.1        1.22433602809906        44.1487042548824    1.11108059334399E-06            253890.40625           101237.796875        288.052886962891        0.10598204655456      -0.122975407913968                       0 
      -1.99249624812406                    -1.1        1.22433602809906        44.1487040416223     1.9152282060571E-06            253890.40625           101237.796875        288.052886962891       0.105982043638894      -0.122975401096607                       0 
      -1.98999499749875                    -1.1        1.22433602809906        44.1487038283622    2.71937581877021E-06            253890.40625           101237.796875        288.052886962891       0.105982040723229      -0.122975394279246                       0 
      -1.98749374687344                    -1.1        1.22433602809906        44.1487036151021    3.52352343148333E-06            253890.40625           101237.796875        288.052886962891       0.105982037807564      -0.122975387461885                       0 
      -1.98499249624812                    -1.1        1.22433602809906         44.148703401842    4.32767104419651E-06            253890.40625           101237.796875        288.052886962891       0.105982034891898      -0.122975380644525                       0 
      -1.98249124562281                    -1.1        1.22433602809906        44.1487031885819    5.13181865690962E-06            253890.40625           101237.796875        288.052886962891       0.105982031976233      -0.122975373827164                       0 
       -1.9799899949975                    -1.1        1.22433602809906        44.1487029753218    5.93596626962273E-06            253890.40625           101237.796875        288.052886962891       0.105982029060567      -0.122975367009803                       0 
      -1.97748874437219                    -1.1        1.22433602809906        44.1487027620617    6.74011388233591E-06            253890.40625           101237.796875        288.052886962891       0.105982026144902      -0.122975360192442                       0 
      -1.97498749374687                    -1.1        1.22433602809906        44.1487025488016    7.54426149504902E-06            253890.40625           101237.796875        288.052886962891       0.105982023229237      -0.122975353375081                       0 
      -1.97248624312156                    -1.1        1.22433602809906        44.1487023355415    8.34840910776213E-06            253890.40625           101237.796875        288.052886962891       0.105982020313571      -0.122975346557721                       0 
      -1.96998499249625                    -1.1        1.22433602809906        44.1487021222814    9.15255672047531E-06            253890.40625           101237.796875        288.052886962891       0.105982017397906       -0.12297533974036                       0 
      -1.96748374187094                    -1.1        1.22433602809906        44.1487019090213    9.95670433318843E-06            253890.40625           101237.796875        288.052886962891        0.10598201448224      -0.122975332922999                       0 
      -1.96498249124562                    -1.1        1.22433602809906        44.1487016957612    1.07608519459015E-05            253890.40625           101237.796875        288.052886962891       0.105982011566575      -0.122975326105638                       0 
      -1.96248124062031                    -1.1        1.22433602809906        44.1487014825011    1.15649995586146E-05            253890.40625           101237.796875        288.052886962891       0.105982008650909      -0.122975319288277                       0 
        -1.959979989995                    -1.1        1.22433602809906         44.148701269241    1.23691471713278E-05            253890.40625           101237.796875        288.052886962891       0.105982005735244      -0.122975312470916                       0 
      -1.95747873936968                    -1.1        1.22433602809906        44.1487010559809    1.31732947840409E-05            253890.40625           101237.796875        288.052886962891       0.105982002819579      -0.122975305653556                       0 
      -1.95497748874437                    -1.1        1.22433602809906        44.1487008427208    1.39774423967541E-05            253890.40625           101237.796875        288.052886962891       0.105981999903913      -0.122975298836195                       0 
      -1.95247623811906                    -1.1        1.22433602809906        44.1487006254322    1.47308839444362E-05            253890.40625           101237.796875        288.052886962891        0.10598199852114      -0.122975290280974                       0 
      -1.94997498749375                    -1.1        1.22433602809906        44.1487005272384    1.54846389010389E-05            253890.40625           101237.796875        288.052886962891       0.105982001044028      -0.122975277974393                       0 
      -1.94747373686843                    -1.1        1.22433602809906        44.1487004290445    1.62383938576416E-05            253890.40625           101237.796875        288.052886962891       0.105982003566916      -0.122975265667811                       0 
      -1.94497248624312                    -1.1        1.22433602809906        44.1487003308507    1.69921488142443E-05            253890.40625           101237.796875        288.052886962891       0.105982006089803      -0.122975253361229                       0 
      -1.94247123561781                    -1.1        1.22433602809906        44.1487002326569     1.7745903770847E-05            253890.40625           101237.796875        288.052886962891       0.105982008612691      -0.122975241054648                       0 
       -1.9399699849925                    -1.1        1.22433602809906        44.1487001344631    1.84996587274497E-05            253890.40625           101237.796875        288.052886962891       0.105982011135578      -0.122975228748066                       0 
      -1.93746873436718                    -1.1        1.22433602809906        44.1487000362692    1.92534136840524E-05            253890.40625           101237.796875        288.052886962891       0.105982013658466      -0.122975216441484                       0 
      -1.93496748374187                    -1.1        1.22433602809906        44.1486999380754    2.00071686406551E-05            253890.40625           101237.796875        288.052886962891       0.105982016181353      -0.122975204134903                       0 
      -1.93246623311656                    -1.1        1.22433602809906        44.1486998398816    2.07609235972578E-05            253890.40625           101237.796875        288.052886962891       0.105982018704241      -0.122975191828321                       0 
      -1.92996498249125                    -1.1        1.22433602809906        44.1486997416878    2.15146785538605E-05            253890.40625           101237.796875        288.052886962891       0.105982021227129      -0.122975179521739                       0 
      -1.92746373186593                    -1.1        1.22433602809906        44.1486996434939    2.22684335104633E-05            253890.40625           101237.796875        288.052886962891       0.105982023750016      -0.122975167215158                       0 
      -1.92496248124062                    -1.1        1.22433602809906        44.1486995453001     2.3022188467066E-05            253890.40625           101237.796875        288.052886962891       0.105982026272904      -0.122975154908576                       0 
      -1.92246123061531                    -1.1        1.22433602809906        44.1486994471063    2.37759434236686E-05            253890.40625           101237.796875        288.052886962891       0.105982028795791      -0.122975142601994                       0 
      -1.91995997998999                    -1.1        1.22433602809906        44.1486993489124    2.45296983802714E-05            253890.40625           101237.796875        288.052886962891       0.105982031318679      -0.122975130295413                       0 
      -1.91745872936468                    -1.1        1.22433602809906        44.1486992507186    2.52834533368741E-05            253890.40625           101237.796875        288.052886962891       0.105982033841567      -0.122975117988831                       0 
      -1.91495747873937                    -1.1        1.22433602809906        44.1486991525248    2.60372082934768E-05            253890.40625           101237.796875        288.052886962891       0.105982036364454      -0.122975105682249                       0 
      -1.91245622811406                    -1.1        1.22433602809906        44.1486990543309    2.67909632500795E-05            253890.40625           101237.796875        288.052886962891       0.105982038887342      -0.122975093375668                       0 
      -1.90995497748874                    -1.1        1.22433602809906        44.1486989561371    2.75447182066822E-05            253890.40625           101237.796875        288.052886962891       0.105982041410229      -0.122975081069086                       0 
      -1.90745372686343                    -1.1        1.22433602809906        44.1486988579433    2.82984731632849E-05            253890.40625           101237.796875        288.052886962891       0.105982043933117      -0.122975068762504                       0 
      -1.90495247623812                    -1.1        1.22433602809906        44.1486987597495    2.90522281198876E-05            253890.40625           101237.796875        288.052886962891       0.105982046456004      -0.122975056455922                       0 
      -1.90245122561281                    -1.1        1.22433602809906        44.1486986615556    2.98059830764904E-05            253890.40625           101237.796875        288.052886962891       0.105982048978892      -0.122975044149341                       0 
      -1.89994997498749                    -1.1        1.22433602809906        44.1486982643839    3.05807539306432E-05            253890.40625           101237.796875        288.052886962891        0.10598204733351      -0.122975004662138                       0 
      -1.89744872436218                    -1.1        1.22433602809906        44.1486978050555    3.13598939245104E-05            253890.40625           101237.796875        288.052886962891       0.105982044821558       -0.12297495952417                       0 
      -1.89494747373687                    -1.1        1.22433602809906        44.1486973457272    3.21390339183776E-05            253890.40625           101237.796875        288.052886962891       0.105982042309606      -0.122974914386201                       0 
      -1.89244622311156                    -1.1        1.22433602809906        44.1486968863988    3.29181739122448E-05            253890.40625           101237.796875        288.052886962891       0.105982039797654      -0.122974869248232                       0 
      -1.88994497248624                    -1.1        1.22433602809906        44.1486964270704    3.36973139061119E-05            253890.40625           101237.796875        288.052886962891       0.105982037285702      -0.122974824110263                       0 
      -1.88744372186093                    -1.1        1.22433602809906        44.1486959677421    3.44764538999791E-05            253890.40625           101237.796875        288.052886962891        0.10598203477375      -0.122974778972295                       0 
      -1.88494247123562                    -1.1        1.22433602809906        44.1486955084137    3.52555938938463E-05            253890.40625           101237.796875        288.052886962891       0.105982032261799      -0.122974733834326                       0 
      -1.88244122061031                    -1.1        1.22433602809906        44.1486950490854    3.60347338877135E-05            253890.40625           101237.796875        288.052886962891       0.105982029749847      -0.122974688696357                       0 
      -1.87993996998499                    -1.1        1.22433602809906         44.148694589757    3.68138738815806E-05            253890.40625           101237.796875        288.052886962891       0.105982027237895      -0.122974643558388                       0 
      -1.87743871935968                    -1.1        1.22433602809906        44.1486941304286    3.75930138754479E-05            253890.40625           101237.796875        288.052886962891       0.105982024725943       -0.12297459842042                       0 
      -1.87493746873437                    -1.1        1.22433602809906        44.1486936711003     3.8372153869315E-05            253890.40625           101237.796875        288.052886962891       0.105982022213991      -0.122974553282451                       0 
      -1.87243621810905                    -1.1        1.22433602809906        44.1486932117719    3.91512938631822E-05            253890.40625           101237.796875        288.052886962891       0.105982019702039      -0.122974508144482                       0 
      -1.86993496748374                    -1.1        1.22433602809906        44.1486927524436    3.99304338570494E-05            253890.40625           101237.796875        288.052886962891       0.105982017190087      -0.122974463006513                       0 
      -1.86743371685843                    -1.1        1.22433602809906        44.1486922931152    4.07095738509166E-05            253890.40625           101237.796875        288.052886962891       0.105982014678135      -0.122974417868545                       0 
      -1.86493246623312                    -1.1        1.22433602809906        44.1486918337869    4.14887138447837E-05            253890.40625           101237.796875        288.052886962891       0.105982012166183      -0.122974372730576                       0 
       -1.8624312156078                    -1.1        1.22433602809906        44.1486913744585    4.22678538386509E-05            253890.40625           101237.796875        288.052886962891       0.105982009654231      -0.122974327592607                       0 
      -1.85992996498249                    -1.1        1.22433602809906        44.1486909151301    4.30469938325181E-05            253890.40625           101237.796875        288.052886962891       0.105982007142279      -0.122974282454638                       0 
      -1.85742871435718                    -1.1        1.22433602809906        44.1486904558018    4.38261338263852E-05            253890.40625           101237.796875        288.052886962891       0.105982004630327       -0.12297423731667                       0 
      -1.85492746373187                    -1.1        1.22433602809906        44.1486899964734    4.46052738202524E-05            253890.40625           101237.796875        288.052886962891       0.105982002118375      -0.122974192178701                       0 
      -1.85242621310655                    -1.1        1.22433602809906        44.1486895371451    4.53844138141196E-05            253890.40625           101237.796875        288.052886962891       0.105981999606423      -0.122974147040732                       0 
      -1.84992496248124                    -1.1        1.22433602809906        44.1486890731778    4.61112704498997E-05            253890.40625           101237.796875        288.052886962891        0.10598199814558      -0.122974109944638                       0 
      -1.84742371185593                    -1.1        1.22433602809906        44.1486885310747    4.67703991156981E-05            253890.40625           101237.796875        288.052886962891        0.10598199739841       -0.12297408215949                       0 
      -1.84492246123062                    -1.1        1.22433602809906        44.1486876545127    4.74525563989018E-05            253890.40625           101237.796875        288.052886962891       0.105981993165358      -0.122974045669854                       0 
       -1.8424212106053                    -1.1        1.22433602809906        44.1486867967842    4.82939625337369E-05            253890.40625           101237.796875        288.052886962891       0.105981990804616       -0.12297402002569                       0 
      -1.83991995997999                    -1.1        1.22433602809906        44.1486859411806    4.91533369782294E-05            253890.40625           101237.796875        288.052886962891        0.10598198865513      -0.122973995605238                       0 
      -1.83741870935468                    -1.1        1.22433602809906        44.1486850855771     5.0012711422722E-05            253890.40625           101237.796875        288.052886962891       0.105981986505644      -0.122973971184787                       0 
      -1.83491745872936                    -1.1        1.22433602809906        44.1486842299735    5.08720858672146E-05            253890.40625           101237.796875        288.052886962891       0.105981984356158      -0.122973946764335                       0 
      -1.83241620810405                    -1.1        1.22433602809906          44.14868337437    5.17314603117071E-05            253890.40625           101237.796875        288.052886962891       0.105981982206672      -0.122973922343884                       0 
      -1.82991495747874                    -1.1        1.22433602809906        44.1486825187664    5.25908347561997E-05            253890.40625           101237.796875        288.052886962891       0.105981980057185      -0.122973897923432                       0 
      -1.82741370685343                    -1.1        1.22433602809906        44.1486816631628    5.34502092006923E-05            253890.40625           101237.796875        288.052886962891       0.105981977907699      -0.122973873502981                       0 
      -1.82491245622811                    -1.1        1.22433602809906        44.1486808075593    5.43095836451848E-05            253890.40625           101237.796875        288.052886962891       0.105981975758213      -0.122973849082529                       0 
       -1.8224112056028                    -1.1        1.22433602809906        44.1486799519557    5.51689580896774E-05            253890.40625           101237.796875        288.052886962891       0.105981973608727      -0.122973824662077                       0 
      -1.81990995497749                    -1.1        1.22433602809906        44.1486790963522      5.602833253417E-05            253890.40625           101237.796875        288.052886962891       0.105981971459241      -0.122973800241626                       0 
      -1.81740870435218                    -1.1        1.22433602809906        44.1486782407486    5.68877069786625E-05            253890.40625           101237.796875        288.052886962891       0.105981969309755      -0.122973775821174                       0 
      -1.81490745372686                    -1.1        1.22433602809906         44.148677385145    5.77470814231551E-05            253890.40625           101237.796875        288.052886962891       0.105981967160269      -0.122973751400723                       0 
      -1.81240620310155                    -1.1        1.22433602809906        44.1486765295415    5.86064558676476E-05            253890.40625           101237.796875        288.052886962891       0.105981965010783      -0.122973726980271                       0 
      -1.80990495247624                    -1.1        1.22433602809906        44.1486756739379    5.94658303121403E-05            253890.40625           101237.796875        288.052886962891       0.105981962861297       -0.12297370255982                       0 
      -1.80740370185093                    -1.1        1.22433602809906        44.1486748183344    6.03252047566328E-05            253890.40625           101237.796875        288.052886962891        0.10598196071181      -0.122973678139368                       0 
      -1.80490245122561                    -1.1        1.22433602809906        44.1486739627308    6.11845792011253E-05            253890.40625           101237.796875        288.052886962891       0.105981958562324      -0.122973653718916                       0 
       -1.8024012006003                    -1.1        1.22433602809906        44.1486731071272     6.2043953645618E-05            253890.40625           101237.796875        288.052886962891       0.105981956412838      -0.122973629298465                       0 
      -1.79989994997499                    -1.1        1.22433602809906        44.1486722515237    6.29033280901105E-05            253890.40625           101237.796875        288.052886962891       0.105981954263352      -0.122973604878013                       0 
      -1.79739869934967                    -1.1        1.22433602809906        44.1486713959201     6.3762702534603E-05            253890.40625           101237.796875        288.052886962891       0.105981952113866      -0.122973580457562                       0 
      -1.79489744872436                    -1.1        1.22433602809906        44.1486705403166    6.46220769790956E-05            253890.40625           101237.796875        288.052886962891        0.10598194996438       -0.12297355603711                       0 
      -1.79239619809905                    -1.1        1.22433602809906        44.1486695774068    6.54871376963278E-05            253890.40625           101237.796875        288.052886962891       0.105981947771962      -0.122973523657874                       0 
      -1.78989494747374                    -1.1        1.22433602809906        44.1486681237866    6.63782016946923E-05            253890.40625           101237.796875        288.052886962891       0.105981945383217      -0.122973454883178                       0 
      -1.78739369684842                    -1.1        1.22433602809906        44.1486666701665    6.72692656930569E-05            253890.40625           101237.796875        288.052886962891       0.105981942994472      -0.122973386108482                       0 
      -1.78489244622311                    -1.1        1.22433602809906        44.1486652165463    6.81603296914214E-05            253890.40625           101237.796875        288.052886962891       0.105981940605727      -0.122973317333786                       0 
       -1.7823911955978                    -1.1        1.22433602809906        44.1486637629262     6.9051393689786E-05            253890.40625           101237.796875        288.052886962891       0.105981938216982       -0.12297324855909                       0 
      -1.77988994497249                    -1.1        1.22433602809906         44.148662309306    6.99424576881505E-05            253890.40625           101237.796875        288.052886962891       0.105981935828237      -0.122973179784394                       0 
      -1.77738869434717                    -1.1        1.22433602809906        44.1486608556858    7.08335216865151E-05            253890.40625           101237.796875        288.052886962891       0.105981933439492      -0.122973111009698                       0 
      -1.77488744372186                    -1.1        1.22433602809906        44.1486594020657    7.17245856848796E-05            253890.40625           101237.796875        288.052886962891       0.105981931050748      -0.122973042235002                       0 
      -1.77238619309655                    -1.1        1.22433602809906        44.1486579484455    7.26156496832441E-05            253890.40625           101237.796875        288.052886962891       0.105981928662003      -0.122972973460306                       0 
      -1.76988494247124                    -1.1        1.22433602809906        44.1486564948253    7.35067136816087E-05            253890.40625           101237.796875        288.052886962891       0.105981926273258       -0.12297290468561                       0 
      -1.76738369184592                    -1.1        1.22433602809906        44.1486550412052    7.43977776799732E-05            253890.40625           101237.796875        288.052886962891       0.105981923884513      -0.122972835910914                       0 
      -1.76488244122061                    -1.1        1.22433602809906         44.148653587585    7.52888416783377E-05            253890.40625           101237.796875        288.052886962891       0.105981921495768      -0.122972767136218                       0 
       -1.7623811905953                    -1.1        1.22433602809906        44.1486521339648    7.61799056767023E-05            253890.40625           101237.796875        288.052886962891       0.105981919107023      -0.122972698361522                       0 
      -1.75987993996998                    -1.1        1.22433602809906        44.1486506803447    7.70709696750669E-05            253890.40625           101237.796875        288.052886962891       0.105981916718278      -0.122972629586826                       0 
      -1.75737868934467                    -1.1        1.22433602809906        44.1486492267245    7.79620336734314E-05            253890.40625           101237.796875        288.052886962891       0.105981914329533       -0.12297256081213                       0 
      -1.75487743871936                    -1.1        1.22433602809906        44.1486477731044    7.88530976717959E-05            253890.40625           101237.796875        288.052886962891       0.105981911940788      -0.122972492037434                       0 
      -1.75237618809405                    -1.1        1.22433602809906        44.1486463194842    7.97441616701605E-05            253890.40625           101237.796875        288.052886962891       0.105981909552043      -0.122972423262738                       0 
      -1.74987493746873                    -1.1        1.22433602809906         44.148644865864     8.0635225668525E-05            253890.40625           101237.796875        288.052886962891       0.105981907163298      -0.122972354488042                       0 
      -1.74737368684342                    -1.1        1.22433602809906        44.1486434122439    8.15262896668895E-05            253890.40625           101237.796875        288.052886962891       0.105981904774553      -0.122972285713346                       0 
      -1.74487243621811                    -1.1        1.22433602809906        44.1486419586237    8.24173536652541E-05            253890.40625           101237.796875        288.052886962891       0.105981902385808       -0.12297221693865                       0 
       -1.7423711855928                    -1.1        1.22433602809906        44.1486405689539    8.32087438987851E-05            253890.40625           101237.796875        288.052886962891       0.105981901288033      -0.122972150209626                       0 
      -1.73986993496748                    -1.1        1.22433602809906        44.1486392336642    8.39153765207298E-05            253890.40625           101237.796875        288.052886962891       0.105981901288033       -0.12297208522014                       0 
      -1.73736868434217                    -1.1        1.22433602809906        44.1486378680774    8.46888134676658E-05            253890.40625           101237.796875        288.052886962891       0.105981897963638      -0.122972008904584                       0 
      -1.73486743371686                    -1.1        1.22433602809906        44.1486364861537     8.5498272900028E-05            253890.40625           101237.796875        288.052886962891       0.105981892846652      -0.122971926481741                       0 
      -1.73236618309155                    -1.1        1.22433602809906         44.148635259421     8.6448177285899E-05            253890.40625           101237.796875        288.052886962891       0.105981889797515      -0.122971858062747                       0 
      -1.72986493246623                    -1.1        1.22433602809906        44.1486340754195    8.74367526563391E-05            253890.40625           101237.796875        288.052886962891       0.105981887317754       -0.12297179349966                       0 
      -1.72736368184092                    -1.1        1.22433602809906        44.1486328914181    8.84253280267793E-05            253890.40625           101237.796875        288.052886962891       0.105981884837992      -0.122971728936573                       0 
      -1.72486243121561                    -1.1        1.22433602809906        44.1486317074166    8.94139033972195E-05            253890.40625           101237.796875        288.052886962891        0.10598188235823      -0.122971664373486                       0 
       -1.7223611805903                    -1.1        1.22433602809906        44.1486305234152    9.04024787676596E-05            253890.40625           101237.796875        288.052886962891       0.105981879878468      -0.122971599810399                       0 