VARIABLES = "x"
 "y"
 "Density"
 "Momentum_x"
 "Momentum_y"
 "Energy"
 "Pressure"
 "Temperature"
 "Mach"
 "C<sub>p</sub>"
 "Roe_Dissipation"
ZONE
DT=(DOUBLE,DOUBLE,DOUBLE,DOUBLE,DOUBLE,DOUBLE,DOUBLE,DOUBLE,DOUBLE,DOUBLE,DOUBLE)
                     -2                     1.1        1.22433602809906        44.1486991882477    2.05374387293906E-06            253890.40625           101237.796875        288.052886962891       0.105982052385891      -0.122975019217337                       0 
      -1.99749874937469                     1.1        1.22433602809906        44.1486992658182    1.22794975254789E-06            253890.40625           101237.796875        288.052886962891       0.105982049364349      -0.122975012448153                       0 
      -1.99499749874937                     1.1        1.22433602809906        44.1486993433887    4.02155632156645E-07            253890.40625           101237.796875        288.052886962891       0.105982046342808      -0.122975005678969                       0 
      -1.99249624812406                     1.1        1.22433602809906        44.1486994209593   -4.23638488234526E-07            253890.40625           101237.796875        288.052886962891       0.105982043321267      -0.122974998909785                       0 
      -1.98999499749875                     1.1        1.22433602809906        44.1486994985298    -1.2494326086257E-06            253890.40625           101237.796875        288.052886962891       0.105982040299726      -0.122974992140601                       0 
      -1.98749374687344                     1.1        1.22433602809906        44.1486995761003   -2.07522672901687E-06            253890.40625           101237.796875        288.052886962891       0.105982037278184      -0.122974985371418                       0 
      -1.98499249624812                     1.1        1.22433602809906        44.1486996536708   -2.90102084940811E-06            253890.40625           101237.796875        288.052886962891       0.105982034256643      -0.122974978602234                       0 
      -1.98249124562281                     1.1        1.22433602809906        44.1486997312413   -3.72681496979928E-06            253890.40625           101237.796875        288.052886962891       0.105982031235102       -0.12297497183305                       0 
       -1.9799899949975                     1.1        1.22433602809906        44.1486998088119   -4.55260909019046E-06            253890.40625           101237.796875        288.052886962891        0.10598202821356      -0.122974965063866                       0 
      -1.97748874437219                     1.1        1.22433602809906        44.1486998863824    -5.3784032105817E-06            253890.40625           101237.796875        288.052886962891       0.105982025192019      -0.122974958294682                       0 
      -1.97498749374687                     1.1        1.22433602809906        44.1486999639529   -6.20419733097287E-06            253890.40625           101237.796875        288.052886962891       0.105982022170478      -0.122974951525498                       0 
      -1.97248624312156                     1.1        1.22433602809906        44.1487000415234   -7.02999145136404E-06            253890.40625           101237.796875        288.052886962891       0.105982019148937      -0.122974944756314                       0 
      -1.96998499249625                     1.1        1.22433602809906         44.148700119094   -7.85578557175529E-06            253890.40625           101237.796875        288.052886962891       0.105982016127395       -0.12297493798713                       0 
      -1.96748374187094                     1.1        1.22433602809906        44.1487001966645   -8.68157969214646E-06            253890.40625           101237.796875        288.052886962891       0.105982013105854      -0.122974931217946                       0 
      -1.96498249124562                     1.1        1.22433602809906         44.148700274235   -9.50737381253763E-06            253890.40625           101237.796875        288.052886962891       0.105982010084313      -0.122974924448762                       0 
      -1.96248124062031                     1.1        1.22433602809906        44.1487003518055   -1.03331679329288E-05            253890.40625           101237.796875        288.052886962891       0.105982007062771      -0.122974917679578                       0 
        -1.959979989995                     1.1        1.22433602809906         44.148700429376     -1.115896205332E-05            253890.40625           101237.796875        288.052886962891        0.10598200404123      -0.122974910910394                       0 
      -1.95747873936968                     1.1        1.22433602809906        44.1487005069466   -1.19847561737112E-05            253890.40625           101237.796875        288.052886962891       0.105982001019689       -0.12297490414121                       0 
      -1.95497748874437                     1.1        1.22433602809906        44.1487005945126   -1.28010515511087E-05            253890.40625           101237.796875        288.052886962891        0.10598199814558      -0.122974897909927                       0 
      -1.95247623811906                     1.1        1.22433602809906        44.1487002523843   -1.34012419047196E-05            253890.40625           101237.796875        288.052886962891        0.10598199814558      -0.122974891908874                       0 
      -1.94997498749375                     1.1        1.22433602809906        44.1486998340598   -1.40371474981843E-05            253890.40625           101237.796875        288.052886962891        0.10598199814558      -0.122974884336629                       0 
      -1.94747373686843                     1.1        1.22433602809906        44.1486994157352    -1.4673053091649E-05            253890.40625           101237.796875        288.052886962891        0.10598199814558      -0.122974876764383                       0 
      -1.94497248624312                     1.1        1.22433602809906        44.1486989974107   -1.53089586851138E-05            253890.40625           101237.796875        288.052886962891        0.10598199814558      -0.122974869192137                       0 
      -1.94247123561781                     1.1        1.22433602809906        44.1486985790861   -1.59448642785785E-05            253890.40625           101237.796875        288.052886962891        0.10598199814558      -0.122974861619892                       0 
       -1.9399699849925                     1.1        1.22433602809906        44.1486981607616   -1.65807698720432E-05            253890.40625           101237.796875        288.052886962891        0.10598199814558      -0.122974854047646                       0 
      -1.93746873436718                     1.1        1.22433602809906         44.148697742437   -1.72166754655079E-05            253890.40625           101237.796875        288.052886962891        0.10598199814558        -0.1229748464754                       0 
      -1.93496748374187                     1.1        1.22433602809906        44.1486973241125   -1.78525810589726E-05            253890.40625           101237.796875        288.052886962891        0.10598199814558      -0.122974838903154                       0 
      -1.93246623311656                     1.1        1.22433602809906        44.1486969057879   -1.84884866524373E-05            253890.40625           101237.796875        288.052886962891        0.10598199814558      -0.122974831330909                       0 
      -1.92996498249125                     1.1        1.22433602809906        44.1486964874634    -1.9124392245902E-05            253890.40625           101237.796875        288.052886962891        0.10598199814558      -0.122974823758663                       0 
      -1.92746373186593                     1.1        1.22433602809906        44.1486960691388   -1.97602978393667E-05            253890.40625           101237.796875        288.052886962891        0.10598199814558      -0.122974816186417                       0 
      -1.92496248124062                     1.1        1.22433602809906        44.1486956508143   -2.03962034328314E-05            253890.40625           101237.796875        288.052886962891        0.10598199814558      -0.122974808614172                       0 
      -1.92246123061531                     1.1        1.22433602809906        44.1486952324897   -2.10321090262961E-05            253890.40625           101237.796875        288.052886962891        0.10598199814558      -0.122974801041926                       0 
      -1.91995997998999                     1.1        1.22433602809906        44.1486948141652   -2.16680146197609E-05            253890.40625           101237.796875        288.052886962891        0.10598199814558       -0.12297479346968                       0 
      -1.91745872936468                     1.1        1.22433602809906        44.1486943958406   -2.23039202132256E-05            253890.40625           101237.796875        288.052886962891        0.10598199814558      -0.122974785897435                       0 
      -1.91495747873937                     1.1        1.22433602809906        44.1486939775161   -2.29398258066903E-05            253890.40625           101237.796875        288.052886962891        0.10598199814558      -0.122974778325189                       0 
      -1.91245622811406                     1.1        1.22433602809906        44.1486935591915    -2.3575731400155E-05            253890.40625           101237.796875        288.052886962891        0.10598199814558      -0.122974770752943                       0 
      -1.90995497748874                     1.1        1.22433602809906         44.148693140867   -2.42116369936197E-05            253890.40625           101237.796875        288.052886962891        0.10598199814558      -0.122974763180697                       0 
      -1.90745372686343                     1.1        1.22433602809906        44.1486927225424   -2.48475425870844E-05            253890.40625           101237.796875        288.052886962891        0.10598199814558      -0.122974755608452                       0 
      -1.90495247623812                     1.1        1.22433602809906        44.1486923042179   -2.54834481805491E-05            253890.40625           101237.796875        288.052886962891        0.10598199814558      -0.122974748036206                       0 
      -1.90245122561281                     1.1        1.22433602809906        44.1486918858933   -2.61193537740139E-05            253890.40625           101237.796875        288.052886962891        0.10598199814558       -0.12297474046396                       0 
      -1.89994997498749                     1.1        1.22433602809906        44.1486914675688   -2.67552593674785E-05            253890.40625           101237.796875        288.052886962891        0.10598199814558      -0.122974732891715                       0 
      -1.89744872436218                     1.1        1.22433602809906        44.1486910492442   -2.73911649609432E-05            253890.40625           101237.796875        288.052886962891        0.10598199814558      -0.122974725319469                       0 
      -1.89494747373687                     1.1        1.22433602809906        44.1486906309197    -2.8027070554408E-05            253890.40625           101237.796875        288.052886962891        0.10598199814558      -0.122974717747223                       0 
      -1.89244622311156                     1.1        1.22433602809906        44.1486902125951   -2.86629761478727E-05            253890.40625           101237.796875        288.052886962891        0.10598199814558      -0.122974710174978                       0 
      -1.88994497248624                     1.1        1.22433602809906        44.1486897942515   -2.92989770728948E-05            253890.40625           101237.796875        288.052886962891        0.10598199814558      -0.122974702570514                       0 
      -1.88744372186093                     1.1        1.22433602809906        44.1486893584841    -3.0021983030751E-05            253890.40625           101237.796875        288.052886962891        0.10598199814558      -0.122974665562228                       0 
      -1.88494247123562                     1.1        1.22433602809906        44.1486889227167   -3.07449889886073E-05            253890.40625           101237.796875        288.052886962891        0.10598199814558      -0.122974628553942                       0 
      -1.88244122061031                     1.1        1.22433602809906        44.1486884869493   -3.14679949464635E-05            253890.40625           101237.796875        288.052886962891        0.10598199814558      -0.122974591545656                       0 
      -1.87993996998499                     1.1        1.22433602809906        44.1486880511818   -3.21910009043197E-05            253890.40625           101237.796875        288.052886962891        0.10598199814558       -0.12297455453737                       0 
      -1.87743871935968                     1.1        1.22433602809906        44.1486876154144    -3.2914006862176E-05            253890.40625           101237.796875        288.052886962891        0.10598199814558      -0.122974517529083                       0 
      -1.87493746873437                     1.1        1.22433602809906         44.148687179647   -3.36370128200322E-05            253890.40625           101237.796875        288.052886962891        0.10598199814558      -0.122974480520797                       0 
      -1.87243621810905                     1.1        1.22433602809906        44.1486867438796   -3.43600187778884E-05            253890.40625           101237.796875        288.052886962891        0.10598199814558      -0.122974443512511                       0 
      -1.86993496748374                     1.1        1.22433602809906        44.1486863081122   -3.50830247357447E-05            253890.40625           101237.796875        288.052886962891        0.10598199814558      -0.122974406504225                       0 
      -1.86743371685843                     1.1        1.22433602809906        44.1486858723448   -3.58060306936009E-05            253890.40625           101237.796875        288.052886962891        0.10598199814558      -0.122974369495939                       0 
      -1.86493246623312                     1.1        1.22433602809906        44.1486854365774   -3.65290366514571E-05            253890.40625           101237.796875        288.052886962891        0.10598199814558      -0.122974332487653                       0 
       -1.8624312156078                     1.1        1.22433602809906        44.1486850008099   -3.72520426093134E-05            253890.40625           101237.796875        288.052886962891        0.10598199814558      -0.122974295479367                       0 
      -1.85992996498249                     1.1        1.22433602809906        44.1486845650425   -3.79750485671696E-05            253890.40625           101237.796875        288.052886962891        0.10598199814558      -0.122974258471081                       0 
      -1.85742871435718                     1.1        1.22433602809906        44.1486841292751   -3.86980545250259E-05            253890.40625           101237.796875        288.052886962891        0.10598199814558      -0.122974221462795                       0 
      -1.85492746373187                     1.1        1.22433602809906        44.1486836935077   -3.94210604828821E-05            253890.40625           101237.796875        288.052886962891        0.10598199814558      -0.122974184454508                       0 
      -1.85242621310655                     1.1        1.22433602809906        44.1486832577403   -4.01440664407383E-05            253890.40625           101237.796875        288.052886962891        0.10598199814558      -0.122974147446222                       0 
      -1.84992496248124                     1.1        1.22433602809906        44.1486828219729   -4.08670723985946E-05            253890.40625           101237.796875        288.052886962891        0.10598199814558      -0.122974110437936                       0 
      -1.84742371185593                     1.1        1.22433602809906        44.1486823862054   -4.15900783564508E-05            253890.40625           101237.796875        288.052886962891        0.10598199814558       -0.12297407342965                       0 
      -1.84492246123062                     1.1        1.22433602809906         44.148681950438    -4.2313084314307E-05            253890.40625           101237.796875        288.052886962891        0.10598199814558      -0.122974036421364                       0 
       -1.8424212106053                     1.1        1.22433602809906        44.1486814942039    -4.2978190222288E-05            253890.40625           101237.796875        288.052886962891        0.10598199752596      -0.122973997069882                       0 
      -1.83991995997999                     1.1        1.22433602809906        44.1486809876272   -4.35008779759519E-05            253890.40625           101237.796875        288.052886962891       0.105981995382243      -0.122973951954783                       0 
      -1.83741870935468                     1.1        1.22433602809906        44.1486804810505   -4.40235657296159E-05            253890.40625           101237.796875        288.052886962891       0.105981993238527      -0.122973906839684                       0 
      -1.83491745872936                     1.1        1.22433602809906        44.1486799744738   -4.45462534832799E-05            253890.40625           101237.796875        288.052886962891        0.10598199109481      -0.122973861724586                       0 
      -1.83241620810405                     1.1        1.22433602809906        44.1486794678972   -4.50689412369439E-05            253890.40625           101237.796875        288.052886962891       0.105981988951094      -0.122973816609487                       0 
      -1.82991495747874                     1.1        1.22433602809906        44.1486789613205   -4.55916289906079E-05            253890.40625           101237.796875        288.052886962891       0.105981986807378      -0.122973771494389                       0 
      -1.82741370685343                     1.1        1.22433602809906        44.1486781501767   -4.62194957301809E-05            253890.40625           101237.796875        288.052886962891       0.105981984581063      -0.122973728147811                       0 
      -1.82491245622811                     1.1        1.22433602809906         44.148677285103   -4.68659866248496E-05            253890.40625           101237.796875        288.052886962891       0.105981982340122      -0.122973685114388                       0 
       -1.8224112056028                     1.1        1.22433602809906        44.1486764200292   -4.75124775195182E-05            253890.40625           101237.796875        288.052886962891       0.105981980099181      -0.122973642080965                       0 
      -1.81990995497749                     1.1        1.22433602809906        44.1486755549554   -4.81589684141869E-05            253890.40625           101237.796875        288.052886962891       0.105981977858241      -0.122973599047541                       0 
      -1.81740870435218                     1.1        1.22433602809906        44.1486746898817   -4.88054593088556E-05            253890.40625           101237.796875        288.052886962891         0.1059819756173      -0.122973556014118                       0 
      -1.81490745372686                     1.1        1.22433602809906        44.1486738194146   -4.94592821238944E-05            253890.40625           101237.796875        288.052886962891       0.105981973377205       -0.12297351301007                       0 
      -1.81240620310155                     1.1        1.22433602809906        44.1486728804585   -5.02062125667369E-05            253890.40625           101237.796875        288.052886962891       0.105981971147859      -0.122973470379064                       0 
      -1.80990495247624                     1.1        1.22433602809906        44.1486719415024   -5.09531430095796E-05            253890.40625           101237.796875        288.052886962891       0.105981968918512      -0.122973427748058                       0 
      -1.80740370185093                     1.1        1.22433602809906        44.1486710025463   -5.17000734524221E-05            253890.40625           101237.796875        288.052886962891       0.105981966689165      -0.122973385117051                       0 
      -1.80490245122561                     1.1        1.22433602809906        44.1486700635902   -5.24470038952647E-05            253890.40625           101237.796875        288.052886962891       0.105981964459818      -0.122973342486045                       0 
       -1.8024012006003                     1.1        1.22433602809906        44.1486691246341   -5.31939343381073E-05            253890.40625           101237.796875        288.052886962891       0.105981962230472      -0.122973299855039                       0 
      -1.79989994997499                     1.1        1.22433602809906        44.1486681856779   -5.39408647809499E-05            253890.40625           101237.796875        288.052886962891       0.105981960001125      -0.122973257224032                       0 
      -1.79739869934967                     1.1        1.22433602809906        44.1486672467218   -5.46877952237924E-05            253890.40625           101237.796875        288.052886962891       0.105981957771778      -0.122973214593026                       0 
      -1.79489744872436                     1.1        1.22433602809906        44.1486663077657    -5.5434725666635E-05            253890.40625           101237.796875        288.052886962891       0.105981955542431       -0.12297317196202                       0 
      -1.79239619809905                     1.1        1.22433602809906        44.1486653688096   -5.61816561094776E-05            253890.40625           101237.796875        288.052886962891       0.105981953313085      -0.122973129331013                       0 
      -1.78989494747374                     1.1        1.22433602809906        44.1486644298535   -5.69285865523201E-05            253890.40625           101237.796875        288.052886962891       0.105981951083738      -0.122973086700007                       0 
      -1.78739369684842                     1.1        1.22433602809906        44.1486634908974   -5.76755169951628E-05            253890.40625           101237.796875        288.052886962891       0.105981948854391      -0.122973044069001                       0 
      -1.78489244622311                     1.1        1.22433602809906        44.1486625519413   -5.84224474380053E-05            253890.40625           101237.796875        288.052886962891       0.105981946625044      -0.122973001437994                       0 
       -1.7823911955978                     1.1        1.22433602809906        44.1486616129852   -5.91693778808479E-05            253890.40625           101237.796875        288.052886962891       0.105981944395698      -0.122972958806988                       0 
      -1.77988994497249                     1.1        1.22433602809906         44.148660674029   -5.99163083236904E-05            253890.40625           101237.796875        288.052886962891       0.105981942166351      -0.122972916175982                       0 
      -1.77738869434717                     1.1        1.22433602809906        44.1486597350729   -6.06632387665331E-05            253890.40625           101237.796875        288.052886962891       0.105981939937004      -0.122972873544975                       0 
      -1.77488744372186                     1.1        1.22433602809906        44.1486587961168   -6.14101692093756E-05            253890.40625           101237.796875        288.052886962891       0.105981937707657      -0.122972830913969                       0 
      -1.77238619309655                     1.1        1.22433602809906        44.1486578571607   -6.21570996522182E-05            253890.40625           101237.796875        288.052886962891       0.105981935478311      -0.122972788282963                       0 
      -1.76988494247124                     1.1        1.22433602809906        44.1486563359639   -6.30228038288778E-05            253890.40625           101237.796875        288.052886962891       0.105981933149687      -0.122972719923455                       0 
      -1.76738369184592                     1.1        1.22433602809906        44.1486548132971   -6.38888078831713E-05            253890.40625           101237.796875        288.052886962891       0.105981930820812      -0.122972651498989                       0 
      -1.76488244122061                     1.1        1.22433602809906        44.1486532906303   -6.47548119374647E-05            253890.40625           101237.796875        288.052886962891       0.105981928491938      -0.122972583074523                       0 
       -1.7623811905953                     1.1        1.22433602809906        44.1486517679634   -6.56208159917581E-05            253890.40625           101237.796875        288.052886962891       0.105981926163064      -0.122972514650056                       0 
      -1.75987993996998                     1.1        1.22433602809906        44.1486502452966   -6.64868200460517E-05            253890.40625           101237.796875        288.052886962891       0.105981923834189       -0.12297244622559                       0 
      -1.75737868934467                     1.1        1.22433602809906        44.1486487226298   -6.73528241003451E-05            253890.40625           101237.796875        288.052886962891       0.105981921505315      -0.122972377801123                       0 
      -1.75487743871936                     1.1        1.22433602809906         44.148647199963   -6.82188281546385E-05            253890.40625           101237.796875        288.052886962891       0.105981919176441      -0.122972309376657                       0 
      -1.75237618809405                     1.1        1.22433602809906        44.1486456772961    -6.9084832208932E-05            253890.40625           101237.796875        288.052886962891       0.105981916847566      -0.122972240952191                       0 
      -1.74987493746873                     1.1        1.22433602809906        44.1486441546293   -6.99508362632254E-05            253890.40625           101237.796875        288.052886962891       0.105981914518692      -0.122972172527724                       0 
      -1.74737368684342                     1.1        1.22433602809906        44.1486426319625   -7.08168403175189E-05            253890.40625           101237.796875        288.052886962891       0.105981912189818      -0.122972104103258                       0 
      -1.74487243621811                     1.1        1.22433602809906        44.1486411092957   -7.16828443718123E-05            253890.40625           101237.796875        288.052886962891       0.105981909860943      -0.122972035678791                       0 
       -1.7423711855928                     1.1        1.22433602809906        44.1486395866289   -7.25488484261058E-05            253890.40625           101237.796875        288.052886962891       0.105981907532069      -0.122971967254325                       0 
      -1.73986993496748                     1.1        1.22433602809906         44.148638063962   -7.34148524803993E-05            253890.40625           101237.796875        288.052886962891       0.105981905203195      -0.122971898829859                       0 
      -1.73736868434217                     1.1        1.22433602809906        44.1486365412952   -7.42808565346927E-05            253890.40625           101237.796875        288.052886962891        0.10598190287432      -0.122971830405392                       0 
      -1.73486743371686                     1.1        1.22433602809906        44.1486350268893   -7.50964614942639E-05            253890.40625           101237.796875        288.052886962891       0.105981900502263      -0.122971763139037                       0 
      -1.73236618309155                     1.1        1.22433602809906          44.14863353013   -7.58044056633114E-05            253890.40625           101237.796875        288.052886962891       0.105981898037959      -0.122971698346598                       0 
      -1.72986493246623                     1.1        1.22433602809906        44.1486320333708   -7.65123498323589E-05            253890.40625           101237.796875        288.052886962891       0.105981895573655       -0.12297163355416                       0 
      -1.72736368184092                     1.1        1.22433602809906        44.1486305366115   -7.72202940014064E-05            253890.40625           101237.796875        288.052886962891       0.105981893109351      -0.122971568761721                       0 
      -1.72486243121561                     1.1        1.22433602809906        44.1486290398522   -7.79282381704539E-05            253890.40625           101237.796875        288.052886962891       0.105981890645047      -0.122971503969283                       0 
       -1.7223611805903                     1.1        1.22433602809906         44.148627543093   -7.86361823395014E-05            253890.40625           101237.796875        288.052886962891       0.105981888180743      -0.122971439176844                       0 