VARIABLES = "x"
 "y"
 "Density"
 "Momentum_x"
 "Momentum_y"
 "Energy"
 "Pressure"
 "Temperature"
 "Mach"
 "C<sub>p</sub>"
 "Roe_Dissipation"
ZONE
DT=(DOUBLE,DOUBLE,DOUBLE,DOUBLE,DOUBLE,DOUBLE,DOUBLE,DOUBLE,DOUBLE,DOUBLE,DOUBLE)
                     -2                       0        1.22429203987122        44.2877616882324   -1.32515450002035E-10           253882.796875           101232.703125        288.048797607422       0.106320403516293      -0.130136698484421                       0 
      -1.99749874937469                       0        1.22429203987122        44.2877616882324   -3.05513170568069E-10           253882.796875           101232.703125        288.048797607422       0.106320403516293      -0.130136706181064                       0 
      -1.99499749874937                       0        1.22429203987122        44.2877616882324   -4.78510891134118E-10           253882.796875           101232.703125        288.048797607422       0.106320403516293      -0.130136713877707                       0 
      -1.99249624812406                       0        1.22429203987122        44.2877616882324   -6.51508611700152E-10           253882.796875           101232.703125        288.048797607422       0.106320403516293       -0.13013672157435                       0 
      -1.98999499749875                       0        1.22429203987122        44.2877616882324   -8.24506332266186E-10           253882.796875           101232.703125        288.048797607422       0.106320403516293      -0.130136729270993                       0 
      -1.98749374687344                       0        1.22429203987122        44.2877616882324    -9.9750405283222E-10           253882.796875           101232.703125        288.048797607422       0.106320403516293      -0.130136736967635                       0 
      -1.98499249624812                       0        1.22429203987122        44.2877616882324   -1.17050177339827E-09           253882.796875           101232.703125        288.048797607422       0.106320403516293      -0.130136744664278                       0 
      -1.98249124562281                       0        1.22429203987122        44.2877616882324    -1.3434994939643E-09           253882.796875           101232.703125        288.048797607422       0.106320403516293      -0.130136752360921                       0 
       -1.9799899949975                       0        1.22429203987122        44.2877616882324   -1.51649721453034E-09           253882.796875           101232.703125        288.048797607422       0.106320403516293      -0.130136760057564                       0 
      -1.97748874437219                       0        1.22429203987122        44.2877616882324   -1.68949493509639E-09           253882.796875           101232.703125        288.048797607422       0.106320403516293      -0.130136767754207                       0 
      -1.97498749374687                       0        1.22429203987122        44.2877616882324   -1.86249265566242E-09           253882.796875           101232.703125        288.048797607422       0.106320403516293       -0.13013677545085                       0 
      -1.97248624312156                       0        1.22429203987122        44.2877616882324   -2.03549037622845E-09           253882.796875           101232.703125        288.048797607422       0.106320403516293      -0.130136783147493                       0 
      -1.96998499249625                       0        1.22429203987122        44.2877616882324    -2.2084880967945E-09           253882.796875           101232.703125        288.048797607422       0.106320403516293      -0.130136790844136                       0 
      -1.96748374187094                       0        1.22429203987122        44.2877616882324   -2.38148581736054E-09           253882.796875           101232.703125        288.048797607422       0.106320403516293      -0.130136798540779                       0 
      -1.96498249124562                       0        1.22429203987122        44.2877616882324   -2.55502045800198E-09           253882.796875           101232.703125        288.048797607422       0.106320403516293      -0.130136802792549                       0 
      -1.96248124062031                       0        1.22429203987122        44.2877616882324   -2.72921778224174E-09           253882.796875           101232.703125        288.048797607422       0.106320403516293      -0.130136802792549                       0 
        -1.959979989995                       0        1.22429203987122        44.2877616882324   -2.90341510648151E-09           253882.796875           101232.703125        288.048797607422       0.106320403516293      -0.130136802792549                       0 
      -1.95747873936968                       0        1.22429203987122        44.2877616882324   -3.07761243072127E-09           253882.796875           101232.703125        288.048797607422       0.106320403516293      -0.130136802792549                       0 
      -1.95497748874437                       0        1.22429203987122        44.2877616882324   -3.25180975496103E-09           253882.796875           101232.703125        288.048797607422       0.106320403516293      -0.130136802792549                       0 
      -1.95247623811906                       0        1.22429203987122        44.2877616882324    -3.4260070792008E-09           253882.796875           101232.703125        288.048797607422       0.106320403516293      -0.130136802792549                       0 
      -1.94997498749375                       0        1.22429203987122        44.2877616882324   -3.60020440344056E-09           253882.796875           101232.703125        288.048797607422       0.106320403516293      -0.130136802792549                       0 
      -1.94747373686843                       0        1.22429203987122        44.2877616882324   -3.77440172768031E-09           253882.796875           101232.703125        288.048797607422       0.106320403516293      -0.130136802792549                       0 
      -1.94497248624312                       0        1.22429203987122        44.2877616882324   -3.94859905192009E-09           253882.796875           101232.703125        288.048797607422       0.106320403516293      -0.130136802792549                       0 
      -1.94247123561781                       0        1.22429203987122        44.2877616882324   -4.12279637615984E-09           253882.796875           101232.703125        288.048797607422       0.106320403516293      -0.130136802792549                       0 
       -1.9399699849925                       0        1.22429203987122        44.2877616882324    -4.2969937003996E-09           253882.796875           101232.703125        288.048797607422       0.106320403516293      -0.130136802792549                       0 
      -1.93746873436718                       0        1.22429203987122        44.2877616882324   -4.47119102463936E-09           253882.796875           101232.703125        288.048797607422       0.106320403516293      -0.130136802792549                       0 
      -1.93496748374187                       0        1.22429203987122        44.2877616882324   -4.64538834887913E-09           253882.796875           101232.703125        288.048797607422       0.106320403516293      -0.130136802792549                       0 
      -1.93246623311656                       0        1.22429203987122        44.2877616882324   -4.81958567311889E-09           253882.796875           101232.703125        288.048797607422       0.106320403516293      -0.130136802792549                       0 
      -1.92996498249125                       0        1.22429203987122        44.2877616882324   -5.00023186499755E-09           253882.796875           101232.703125        288.048797607422       0.106320403516293      -0.130136802792549                       0 
      -1.92746373186593                       0        1.22429203987122        44.2877616882324   -5.18163639019845E-09           253882.796875           101232.703125        288.048797607422       0.106320403516293      -0.130136802792549                       0 
      -1.92496248124062                       0        1.22429203987122        44.2877616882324   -5.36304091539933E-09           253882.796875           101232.703125        288.048797607422       0.106320403516293      -0.130136802792549                       0 
      -1.92246123061531                       0        1.22429203987122        44.2877616882324   -5.54444544060021E-09           253882.796875           101232.703125        288.048797607422       0.106320403516293      -0.130136802792549                       0 
      -1.91995997998999                       0        1.22429203987122        44.2877616882324   -5.72584996580111E-09           253882.796875           101232.703125        288.048797607422       0.106320403516293      -0.130136802792549                       0 
      -1.91745872936468                       0        1.22429203987122        44.2877616882324   -5.90725449100199E-09           253882.796875           101232.703125        288.048797607422       0.106320403516293      -0.130136802792549                       0 
      -1.91495747873937                       0        1.22429203987122        44.2877616882324   -6.08865901620288E-09           253882.796875           101232.703125        288.048797607422       0.106320403516293      -0.130136802792549                       0 
      -1.91245622811406                       0        1.22429203987122        44.2877616882324   -6.27006354140376E-09           253882.796875           101232.703125        288.048797607422       0.106320403516293      -0.130136802792549                       0 
      -1.90995497748874                       0        1.22429203987122        44.2877616882324   -6.45146806660466E-09           253882.796875           101232.703125        288.048797607422       0.106320403516293      -0.130136802792549                       0 
      -1.90745372686343                       0        1.22429203987122        44.2877616882324   -6.63287259180554E-09           253882.796875           101232.703125        288.048797607422       0.106320403516293      -0.130136802792549                       0 
      -1.90495247623812                       0        1.22429203987122        44.2877616882324   -6.81427711700642E-09           253882.796875           101232.703125        288.048797607422       0.106320403516293      -0.130136802792549                       0 
      -1.90245122561281                       0        1.22429203987122        44.2877616882324   -6.99568164220732E-09           253882.796875           101232.703125        288.048797607422       0.106320403516293      -0.130136802792549                       0 
      -1.89994997498749                       0        1.22429203987122        44.2877616882324    -7.1770861674082E-09           253882.796875           101232.703125        288.048797607422       0.106320403516293      -0.130136802792549                       0 
      -1.89744872436218                       0        1.22429203987122        44.2877616882324   -7.36219461396734E-09           253882.796875           101232.703125        288.048797607422       0.106320403516293      -0.130136802792549                       0 
      -1.89494747373687                       0        1.22429203987122        44.2877616882324   -7.55441785516722E-09           253882.796875           101232.703125        288.048797607422       0.106320403516293      -0.130136802792549                       0 
      -1.89244622311156                       0        1.22429203987122        44.2877616882324   -7.74664109636708E-09           253882.796875           101232.703125        288.048797607422       0.106320403516293      -0.130136802792549                       0 
      -1.88994497248624                       0        1.22429203987122        44.2877616882324   -7.93886433756695E-09           253882.796875           101232.703125        288.048797607422       0.106320403516293      -0.130136802792549                       0 
      -1.88744372186093                       0        1.22429203987122        44.2877616882324   -8.13108757876682E-09           253882.796875           101232.703125        288.048797607422       0.106320403516293      -0.130136802792549                       0 
      -1.88494247123562                       0        1.22429203987122        44.2877616882324    -8.3233108199667E-09           253882.796875           101232.703125        288.048797607422       0.106320403516293      -0.130136802792549                       0 
      -1.88244122061031                       0        1.22429203987122        44.2877616882324   -8.51553406116656E-09           253882.796875           101232.703125        288.048797607422       0.106320403516293      -0.130136802792549                       0 
      -1.87993996998499                       0        1.22429203987122        44.2877616882324   -8.70775730236643E-09           253882.796875           101232.703125        288.048797607422       0.106320403516293      -0.130136802792549                       0 
      -1.87743871935968                       0        1.22429203987122        44.2877616882324   -8.89998054356631E-09           253882.796875           101232.703125        288.048797607422       0.106320403516293      -0.130136802792549                       0 
      -1.87493746873437                       0        1.22429203987122        44.2877616882324   -9.09220378476617E-09           253882.796875           101232.703125        288.048797607422       0.106320403516293      -0.130136802792549                       0 
      -1.87243621810905                       0        1.22429203987122        44.2877616882324   -9.28442702596604E-09           253882.796875           101232.703125        288.048797607422       0.106320403516293      -0.130136802792549                       0 
      -1.86993496748374                       0        1.22429203987122        44.2877616882324   -9.47665026716592E-09           253882.796875           101232.703125        288.048797607422       0.106320403516293      -0.130136802792549                       0 
      -1.86743371685843                       0        1.22429203987122        44.2877616882324   -9.66887350836578E-09           253882.796875           101232.703125        288.048797607422       0.106320403516293      -0.130136802792549                       0 
      -1.86493246623312                       0        1.22429203987122        44.2877616882324   -9.86109674956565E-09           253882.796875           101232.703125        288.048797607422       0.106320403516293      -0.130136802792549                       0 
       -1.8624312156078                       0        1.22429203987122        44.2877616882324   -1.00625046820295E-08           253882.796875           101232.703125        288.048797607422       0.106320403516293      -0.130136802792549                       0 
      -1.85992996498249                       0        1.22429203987122        44.2877616882324   -1.02663556463266E-08           253882.796875           101232.703125        288.048797607422       0.106320403516293      -0.130136802792549                       0 
      -1.85742871435718                       0        1.22429203987122        44.2877616882324   -1.04702066106238E-08           253882.796875           101232.703125        288.048797607422       0.106320403516293      -0.130136802792549                       0 
      -1.85492746373187                       0        1.22429203987122        44.2877616882324   -1.06740575749209E-08           253882.796875           101232.703125        288.048797607422       0.106320403516293      -0.130136802792549                       0 
      -1.85242621310655                       0        1.22429203987122        44.2877616882324   -1.08779085392181E-08           253882.796875           101232.703125        288.048797607422       0.106320403516293      -0.130136802792549                       0 
      -1.84992496248124                       0        1.22429203987122        44.2877616882324   -1.10817595035152E-08           253882.796875           101232.703125        288.048797607422       0.106320403516293      -0.130136802792549                       0 
      -1.84742371185593                       0        1.22429203987122        44.2877616882324   -1.12856104678123E-08           253882.796875           101232.703125        288.048797607422       0.106320403516293      -0.130136802792549                       0 
      -1.84492246123062                       0        1.22429203987122        44.2877616882324   -1.14894614321095E-08           253882.796875           101232.703125        288.048797607422       0.106320403516293      -0.130136802792549                       0 
       -1.8424212106053                       0        1.22429203987122        44.2877616882324   -1.16933123964066E-08           253882.796875           101232.703125        288.048797607422       0.106320403516293      -0.130136802792549                       0 
      -1.83991995997999                       0        1.22429203987122        44.2877616882324   -1.18971633607038E-08           253882.796875           101232.703125        288.048797607422       0.106320403516293      -0.130136802792549                       0 
      -1.83741870935468                       0        1.22429203987122        44.2877616882324   -1.21010143250009E-08           253882.796875           101232.703125        288.048797607422       0.106320403516293      -0.130136802792549                       0 
      -1.83491745872936                       0        1.22429203987122        44.2877616882324   -1.23048652892981E-08           253882.796875           101232.703125        288.048797607422       0.106320403516293      -0.130136802792549                       0 
      -1.83241620810405                       0        1.22429203987122        44.2877616882324   -1.25087162535952E-08           253882.796875           101232.703125        288.048797607422       0.106320403516293      -0.130136802792549                       0 
      -1.82991495747874                       0        1.22429203987122        44.2877616882324   -1.27154247371349E-08           253882.796875           101232.703125        288.048797607422       0.106320403516293      -0.130136804617391                       0 
      -1.82741370685343                       0        1.22429203987122        44.2877616882324   -1.29313278688354E-08           253882.796875           101232.703125        288.048797607422       0.106320403516293      -0.130136812314034                       0 
      -1.82491245622811                       0        1.22429203987122        44.2877616882324   -1.31472310005359E-08           253882.796875           101232.703125        288.048797607422       0.106320403516293      -0.130136820010677                       0 
       -1.8224112056028                       0        1.22429203987122        44.2877616882324   -1.33631341322364E-08           253882.796875           101232.703125        288.048797607422       0.106320403516293       -0.13013682770732                       0 
      -1.81990995497749                       0        1.22429203987122        44.2877616882324    -1.3579037263937E-08           253882.796875           101232.703125        288.048797607422       0.106320403516293      -0.130136835403963                       0 
      -1.81740870435218                       0        1.22429203987122        44.2877616882324   -1.37949403956375E-08           253882.796875           101232.703125        288.048797607422       0.106320403516293      -0.130136843100606                       0 
      -1.81490745372686                       0        1.22429203987122        44.2877616882324    -1.4010843527338E-08           253882.796875           101232.703125        288.048797607422       0.106320403516293      -0.130136850797249                       0 
      -1.81240620310155                       0        1.22429203987122        44.2877616882324   -1.42267466590385E-08           253882.796875           101232.703125        288.048797607422       0.106320403516293      -0.130136858493892                       0 
      -1.80990495247624                       0        1.22429203987122        44.2877616882324   -1.44426497907391E-08           253882.796875           101232.703125        288.048797607422       0.106320403516293      -0.130136866190535                       0 
      -1.80740370185093                       0        1.22429203987122        44.2877616882324   -1.46585529224396E-08           253882.796875           101232.703125        288.048797607422       0.106320403516293      -0.130136873887178                       0 
      -1.80490245122561                       0        1.22429203987122        44.2877616882324   -1.48744560541401E-08           253882.796875           101232.703125        288.048797607422       0.106320403516293      -0.130136881583821                       0 
       -1.8024012006003                       0        1.22429203987122        44.2877616882324   -1.50903591858406E-08           253882.796875           101232.703125        288.048797607422       0.106320403516293      -0.130136889280464                       0 
      -1.79989994997499                       0        1.22429203987122        44.2877616882324   -1.53062623175412E-08           253882.796875           101232.703125        288.048797607422       0.106320403516293      -0.130136896977107                       0 
      -1.79739869934967                       0        1.22429203987122        44.2877616882324   -1.55221654492417E-08           253882.796875           101232.703125        288.048797607422       0.106320403516293       -0.13013690467375                       0 
      -1.79489744872436                       0        1.22429203987122        44.2877616882324   -1.57462297385295E-08           253882.796875           101232.703125        288.048797607422       0.106320403516293      -0.130136907100677                       0 
      -1.79239619809905                       0        1.22429203987122        44.2877616882324   -1.59740525876927E-08           253882.796875           101232.703125        288.048797607422       0.106320403516293      -0.130136907100677                       0 
      -1.78989494747374                       0        1.22429203987122        44.2877616882324   -1.62018754368558E-08           253882.796875           101232.703125        288.048797607422       0.106320403516293      -0.130136907100677                       0 
      -1.78739369684842                       0        1.22429203987122        44.2877616882324    -1.6429698286019E-08           253882.796875           101232.703125        288.048797607422       0.106320403516293      -0.130136907100677                       0 
      -1.78489244622311                       0        1.22429203987122        44.2877616882324   -1.66575211351821E-08           253882.796875           101232.703125        288.048797607422       0.106320403516293      -0.130136907100677                       0 
       -1.7823911955978                       0        1.22429203987122        44.2877616882324   -1.68853439843452E-08           253882.796875           101232.703125        288.048797607422       0.106320403516293      -0.130136907100677                       0 
      -1.77988994497249                       0        1.22429203987122        44.2877616882324   -1.71131668335084E-08           253882.796875           101232.703125        288.048797607422       0.106320403516293      -0.130136907100677                       0 
      -1.77738869434717                       0        1.22429203987122        44.2877616882324   -1.73409896826716E-08           253882.796875           101232.703125        288.048797607422       0.106320403516293      -0.130136907100677                       0 
      -1.77488744372186                       0        1.22429203987122        44.2877616882324   -1.75688125318347E-08           253882.796875           101232.703125        288.048797607422       0.106320403516293      -0.130136907100677                       0 
      -1.77238619309655                       0        1.22429203987122        44.2877616882324   -1.77966353809978E-08           253882.796875           101232.703125        288.048797607422       0.106320403516293      -0.130136907100677                       0 
      -1.76988494247124                       0        1.22429203987122        44.2877616882324    -1.8024458230161E-08           253882.796875           101232.703125        288.048797607422       0.106320403516293      -0.130136907100677                       0 
      -1.76738369184592                       0        1.22429203987122        44.2877616882324   -1.82522810793241E-08           253882.796875           101232.703125        288.048797607422       0.106320403516293      -0.130136907100677                       0 
      -1.76488244122061                       0        1.22429203987122        44.2877616882324   -1.84801039284873E-08           253882.796875           101232.703125        288.048797607422       0.106320403516293      -0.130136907100677                       0 
       -1.7623811905953                       0        1.22429203987122        44.2877616882324   -1.87094591752758E-08           253882.796875           101232.703125        288.048797607422       0.106320403516293      -0.130136907100677                       0 
      -1.75987993996998                       0        1.22429203987122        44.2877616882324   -1.89488684231401E-08           253882.796875           101232.703125        288.048797607422       0.106320403516293      -0.130136907100677                       0 
      -1.75737868934467                       0        1.22429203987122        44.2877616882324   -1.91882776710044E-08           253882.796875           101232.703125        288.048797607422       0.106320403516293      -0.130136907100677                       0 
      -1.75487743871936                       0        1.22429203987122        44.2877616882324   -1.94276869188688E-08           253882.796875           101232.703125        288.048797607422       0.106320403516293      -0.130136907100677                       0 
      -1.75237618809405                       0        1.22429203987122        44.2877616882324   -1.96670961667331E-08           253882.796875           101232.703125        288.048797607422       0.106320403516293      -0.130136907100677                       0 
      -1.74987493746873                       0        1.22429203987122        44.2877616882324   -1.99065054145974E-08           253882.796875           101232.703125        288.048797607422       0.106320403516293      -0.130136907100677                       0 
      -1.74737368684342                       0        1.22429203987122        44.2877616882324   -2.01459146624617E-08           253882.796875           101232.703125        288.048797607422       0.106320403516293      -0.130136907100677                       0 
      -1.74487243621811                       0        1.22429203987122        44.2877616882324    -2.0385323910326E-08           253882.796875           101232.703125        288.048797607422       0.106320403516293      -0.130136907100677                       0 
       -1.7423711855928                       0        1.22429203987122        44.2877616882324   -2.06247331581903E-08           253882.796875           101232.703125        288.048797607422       0.106320403516293      -0.130136907100677                       0 
      -1.73986993496748                       0        1.22429203987122        44.2877616882324   -2.08641424060546E-08           253882.796875           101232.703125        288.048797607422       0.106320403516293      -0.130136907100677                       0 
      -1.73736868434217                       0        1.22429203987122        44.2877616882324    -2.1103551653919E-08           253882.796875           101232.703125        288.048797607422       0.106320403516293      -0.130136907100677                       0 
      -1.73486743371686                       0        1.22429203987122        44.2877616882324   -2.13429609017833E-08           253882.796875           101232.703125        288.048797607422       0.106320403516293      -0.130136907100677                       0 
      -1.73236618309155                       0        1.22429203987122        44.2877616882324   -2.15823701496476E-08           253882.796875           101232.703125        288.048797607422       0.106320403516293      -0.130136907100677                       0 
      -1.72986493246623                       0        1.22429203987122        44.2877616882324   -2.18217793975119E-08           253882.796875           101232.703125        288.048797607422       0.106320403516293      -0.130136907100677                       0 
      -1.72736368184092                       0        1.22429203987122        44.2877616882324   -2.20675118632133E-08           253882.796875           101232.703125        288.048797607422       0.106320403516293      -0.130136907100677                       0 
      -1.72486243121561                       0        1.22429203987122        44.2877616882324   -2.23178262277627E-08           253882.796875           101232.703125        288.048797607422       0.106320403516293      -0.130136907100677                       0 
       -1.7223611805903                       0        1.22429203987122        44.2877616882324    -2.2568140592312E-08           253882.796875           101232.703125        288.048797607422       0.106320403516293      -0.130136907100677                       0 