VARIABLES = "x"
 "y"
 "Density"
 "Momentum_x"
 "Momentum_y"
 "Energy"
 "Pressure"
 "Temperature"
 "Mach"
 "C<sub>p</sub>"
 "Roe_Dissipation"
ZONE
DT=(DOUBLE,DOUBLE,DOUBLE,DOUBLE,DOUBLE,DOUBLE,DOUBLE,DOUBLE,DOUBLE,DOUBLE,DOUBLE)
                     -2                    0.55        1.22433602809906        44.1490196228226    4.34313159552672E-06            253890.40625           101237.796875        288.052886962891       0.105982777774388      -0.122991673351483                       0 
      -1.99749874937469                    0.55        1.22433602809906        44.1490195691052    2.16826591043045E-06            253890.40625           101237.796875        288.052886962891        0.10598278048958      -0.122991670245945                       0 
      -1.99499749874937                    0.55        1.22433602809906        44.1490195153878   -6.59977466602136E-09            253890.40625           101237.796875        288.052886962891       0.105982783204771      -0.122991667140408                       0 
      -1.99249624812406                    0.55        1.22433602809906        44.1490194616704    -2.1814654597623E-06            253890.40625           101237.796875        288.052886962891       0.105982785919962      -0.122991664034871                       0 
      -1.98999499749875                    0.55        1.22433602809906         44.149019407953   -4.35633114485857E-06            253890.40625           101237.796875        288.052886962891       0.105982788635154      -0.122991660929333                       0 
      -1.98749374687344                    0.55        1.22433602809906        44.1490193542356   -6.53119682995484E-06            253890.40625           101237.796875        288.052886962891       0.105982791350345      -0.122991657823796                       0 
      -1.98499249624812                    0.55        1.22433602809906        44.1490193005182   -8.70606251505131E-06            253890.40625           101237.796875        288.052886962891       0.105982794065536      -0.122991654718259                       0 
      -1.98249124562281                    0.55        1.22433602809906        44.1490192468008   -1.08809282001476E-05            253890.40625           101237.796875        288.052886962891       0.105982796780728      -0.122991651612722                       0 
       -1.9799899949975                    0.55        1.22433602809906        44.1490191930834   -1.30557938852439E-05            253890.40625           101237.796875        288.052886962891       0.105982799495919      -0.122991648507184                       0 
      -1.97748874437219                    0.55        1.22433602809906         44.149019139366   -1.52306595703403E-05            253890.40625           101237.796875        288.052886962891        0.10598280221111      -0.122991645401647                       0 
      -1.97498749374687                    0.55        1.22433602809906        44.1490191647002   -1.73762842084714E-05            253890.40625           101237.796875        288.052886962891       0.105982804775492      -0.122991642235778                       0 
      -1.97248624312156                    0.55        1.22433602809906         44.149019212323   -1.95136643388041E-05            253890.40625           101237.796875        288.052886962891       0.105982807297352      -0.122991639052899                       0 
      -1.96998499249625                    0.55        1.22433602809906        44.1490192599458    -2.1651044469137E-05            253890.40625           101237.796875        288.052886962891       0.105982809819213      -0.122991635870019                       0 
      -1.96748374187094                    0.55        1.22433602809906        44.1490193075686   -2.37884245994697E-05            253890.40625           101237.796875        288.052886962891       0.105982812341073       -0.12299163268714                       0 
      -1.96498249124562                    0.55        1.22433602809906        44.1490193551913   -2.59258047298023E-05            253890.40625           101237.796875        288.052886962891       0.105982814862934      -0.122991629504261                       0 
      -1.96248124062031                    0.55        1.22433602809906        44.1490194028141    -2.8063184860135E-05            253890.40625           101237.796875        288.052886962891       0.105982817384795      -0.122991626321381                       0 
        -1.959979989995                    0.55        1.22433602809906        44.1490194504369   -3.02005649904679E-05            253890.40625           101237.796875        288.052886962891       0.105982819906655      -0.122991623138502                       0 
      -1.95747873936968                    0.55        1.22433602809906        44.1490194980597   -3.23379451208006E-05            253890.40625           101237.796875        288.052886962891       0.105982822428516      -0.122991619955622                       0 
      -1.95497748874437                    0.55        1.22433602809906        44.1490195456825   -3.44753252511333E-05            253890.40625           101237.796875        288.052886962891       0.105982824950376      -0.122991616772743                       0 
      -1.95247623811906                    0.55        1.22433602809906        44.1490197819842   -3.63384630318455E-05            253890.40625           101237.796875        288.052886962891       0.105982826901219      -0.122991618286558                       0 
      -1.94997498749375                    0.55        1.22433602809906         44.149020077144     -3.811605119898E-05            253890.40625           101237.796875        288.052886962891       0.105982828673934      -0.122991621265502                       0 
      -1.94747373686843                    0.55        1.22433602809906        44.1490203723039   -3.98936393661145E-05            253890.40625           101237.796875        288.052886962891       0.105982830446648      -0.122991624244447                       0 
      -1.94497248624312                    0.55        1.22433602809906        44.1490206674637   -4.16712275332491E-05            253890.40625           101237.796875        288.052886962891       0.105982832219363      -0.122991627223391                       0 
      -1.94247123561781                    0.55        1.22433602809906        44.1490209626236   -4.34488157003836E-05            253890.40625           101237.796875        288.052886962891       0.105982833992077      -0.122991630202335                       0 
       -1.9399699849925                    0.55        1.22433602809906        44.1490212577834   -4.52264038675181E-05            253890.40625           101237.796875        288.052886962891       0.105982835764792      -0.122991633181279                       0 
      -1.93746873436718                    0.55        1.22433602809906        44.1490215529433   -4.70039920346526E-05            253890.40625           101237.796875        288.052886962891       0.105982837537506      -0.122991636160224                       0 
      -1.93496748374187                    0.55        1.22433602809906        44.1490218481032   -4.87815802017872E-05            253890.40625           101237.796875        288.052886962891       0.105982839310221      -0.122991639139168                       0 
      -1.93246623311656                    0.55        1.22433602809906         44.149022143263   -5.05591683689217E-05            253890.40625           101237.796875        288.052886962891       0.105982841082935      -0.122991642118112                       0 
      -1.92996498249125                    0.55        1.22433602809906        44.1490224384229   -5.23367565360561E-05            253890.40625           101237.796875        288.052886962891        0.10598284285565      -0.122991645097056                       0 
      -1.92746373186593                    0.55        1.22433602809906        44.1490226318049   -5.41221661535039E-05            253890.40625           101237.796875        288.052886962891       0.105982843271276      -0.122991646676211                       0 
      -1.92496248124062                    0.55        1.22433602809906        44.1490227452867   -5.59137159587586E-05            253890.40625           101237.796875        288.052886962891       0.105982842621529      -0.122991647156469                       0 
      -1.92246123061531                    0.55        1.22433602809906        44.1490228587686   -5.77052657640133E-05            253890.40625           101237.796875        288.052886962891       0.105982841971781      -0.122991647636727                       0 
      -1.91995997998999                    0.55        1.22433602809906        44.1490229722504   -5.94968155692682E-05            253890.40625           101237.796875        288.052886962891       0.105982841322034      -0.122991648116984                       0 
      -1.91745872936468                    0.55        1.22433602809906        44.1490230857323   -6.12883653745228E-05            253890.40625           101237.796875        288.052886962891       0.105982840672286      -0.122991648597242                       0 
      -1.91495747873937                    0.55        1.22433602809906        44.1490231992141   -6.30799151797776E-05            253890.40625           101237.796875        288.052886962891       0.105982840022539        -0.1229916490775                       0 
      -1.91245622811406                    0.55        1.22433602809906         44.149023312696   -6.48714649850323E-05            253890.40625           101237.796875        288.052886962891       0.105982839372791      -0.122991649557757                       0 
      -1.90995497748874                    0.55        1.22433602809906        44.1490234261778   -6.66630147902871E-05            253890.40625           101237.796875        288.052886962891       0.105982838723044      -0.122991650038015                       0 
      -1.90745372686343                    0.55        1.22433602809906        44.1490235396597   -6.84545645955418E-05            253890.40625           101237.796875        288.052886962891       0.105982838073296      -0.122991650518273                       0 
      -1.90495247623812                    0.55        1.22433602809906        44.1490236531415   -7.02461144007965E-05            253890.40625           101237.796875        288.052886962891       0.105982837423549       -0.12299165099853                       0 
      -1.90245122561281                    0.55        1.22433602809906        44.1490237666234   -7.20376642060514E-05            253890.40625           101237.796875        288.052886962891       0.105982836773801      -0.122991651478788                       0 
      -1.89994997498749                    0.55        1.22433602809906        44.1490238801052   -7.38292140113061E-05            253890.40625           101237.796875        288.052886962891       0.105982836124054      -0.122991651959046                       0 
      -1.89744872436218                    0.55        1.22433602809906        44.1490239935871   -7.56207638165608E-05            253890.40625           101237.796875        288.052886962891       0.105982835474307      -0.122991652439303                       0 
      -1.89494747373687                    0.55        1.22433602809906         44.149024107069   -7.74123136218156E-05            253890.40625           101237.796875        288.052886962891       0.105982834824559      -0.122991652919561                       0 
      -1.89244622311156                    0.55        1.22433602809906        44.1490242360632   -7.92681055490254E-05            253890.40625           101237.796875        288.052886962891        0.10598283438154      -0.122991658527312                       0 
      -1.88994497248624                    0.55        1.22433602809906        44.1490243792033   -8.11824807591932E-05            253890.40625           101237.796875        288.052886962891       0.105982834127039      -0.122991668810896                       0 
      -1.88744372186093                    0.55        1.22433602809906        44.1490245223435   -8.30968559693609E-05            253890.40625           101237.796875        288.052886962891       0.105982833872539      -0.122991679094479                       0 
      -1.88494247123562                    0.55        1.22433602809906        44.1490246654836   -8.50112311795289E-05            253890.40625           101237.796875        288.052886962891       0.105982833618038      -0.122991689378063                       0 
      -1.88244122061031                    0.55        1.22433602809906        44.1490248086238   -8.69256063896966E-05            253890.40625           101237.796875        288.052886962891       0.105982833363537      -0.122991699661646                       0 
      -1.87993996998499                    0.55        1.22433602809906        44.1490249517639   -8.88399815998643E-05            253890.40625           101237.796875        288.052886962891       0.105982833109036       -0.12299170994523                       0 
      -1.87743871935968                    0.55        1.22433602809906        44.1490250949041   -9.07543568100323E-05            253890.40625           101237.796875        288.052886962891       0.105982832854536      -0.122991720228813                       0 
      -1.87493746873437                    0.55        1.22433602809906        44.1490252380443   -9.26687320202001E-05            253890.40625           101237.796875        288.052886962891       0.105982832600035      -0.122991730512397                       0 
      -1.87243621810905                    0.55        1.22433602809906        44.1490253811844   -9.45831072303678E-05            253890.40625           101237.796875        288.052886962891       0.105982832345534       -0.12299174079598                       0 
      -1.86993496748374                    0.55        1.22433602809906        44.1490255243246   -9.64974824405358E-05            253890.40625           101237.796875        288.052886962891       0.105982832091034      -0.122991751079564                       0 
      -1.86743371685843                    0.55        1.22433602809906        44.1490256674647   -9.84118576507035E-05            253890.40625           101237.796875        288.052886962891       0.105982831836533      -0.122991761363147                       0 
      -1.86493246623312                    0.55        1.22433602809906        44.1490258106049   -0.000100326232860871            253890.40625           101237.796875        288.052886962891       0.105982831582032      -0.122991771646731                       0 
       -1.8624312156078                    0.55        1.22433602809906         44.149025953745   -0.000102240608071039            253890.40625           101237.796875        288.052886962891       0.105982831327532      -0.122991781930314                       0 
      -1.85992996498249                    0.55        1.22433602809906        44.1490260968852   -0.000104154983281207            253890.40625           101237.796875        288.052886962891       0.105982831073031      -0.122991792213898                       0 
      -1.85742871435718                    0.55        1.22433602809906        44.1490262400253   -0.000106069358491375            253890.40625           101237.796875        288.052886962891        0.10598283081853      -0.122991802497482                       0 
      -1.85492746373187                    0.55        1.22433602809906        44.1490263831655   -0.000107983733701542            253890.40625           101237.796875        288.052886962891        0.10598283056403      -0.122991812781065                       0 
      -1.85242621310655                    0.55        1.22433602809906        44.1490265263057    -0.00010989810891171            253890.40625           101237.796875        288.052886962891       0.105982830309529      -0.122991823064649                       0 
      -1.84992496248124                    0.55        1.22433602809906        44.1490264935994    -0.00011177519111365            253890.40625           101237.796875        288.052886962891       0.105982828434707       -0.12299183361996                       0 
      -1.84742371185593                    0.55        1.22433602809906        44.1490264178459   -0.000113643143980555            253890.40625           101237.796875        288.052886962891        0.10598282616323       -0.12299184424179                       0 
      -1.84492246123062                    0.55        1.22433602809906        44.1490263420924    -0.00011551109684746            253890.40625           101237.796875        288.052886962891       0.105982823891753      -0.122991854863621                       0 
       -1.8424212106053                    0.55        1.22433602809906        44.1490262663389   -0.000117379049714365            253890.40625           101237.796875        288.052886962891       0.105982821620276      -0.122991865485451                       0 
      -1.83991995997999                    0.55        1.22433602809906        44.1490261905854    -0.00011924700258127            253890.40625           101237.796875        288.052886962891       0.105982819348799      -0.122991876107281                       0 
      -1.83741870935468                    0.55        1.22433602809906        44.1490261148319   -0.000121114955448175            253890.40625           101237.796875        288.052886962891       0.105982817077322      -0.122991886729111                       0 
      -1.83491745872936                    0.55        1.22433602809906        44.1490261463934   -0.000123010476644978            253890.40625           101237.796875        288.052886962891       0.105982815673294      -0.122991896766117                       0 
      -1.83241620810405                    0.55        1.22433602809906        44.1490266025643   -0.000125015076473539            253890.40625           101237.796875        288.052886962891       0.105982817701467      -0.122991904489168                       0 
      -1.82991495747874                    0.55        1.22433602809906        44.1490270587351   -0.000127019676302099            253890.40625           101237.796875        288.052886962891       0.105982819729641       -0.12299191221222                       0 
      -1.82741370685343                    0.55        1.22433602809906         44.149027514906   -0.000129024276130659            253890.40625           101237.796875        288.052886962891       0.105982821757814      -0.122991919935271                       0 
      -1.82491245622811                    0.55        1.22433602809906        44.1490279710768   -0.000131028875959219            253890.40625           101237.796875        288.052886962891       0.105982823785988      -0.122991927658322                       0 
       -1.8224112056028                    0.55        1.22433602809906        44.1490284272477    -0.00013303347578778            253890.40625           101237.796875        288.052886962891       0.105982825814161      -0.122991935381373                       0 
      -1.81990995497749                    0.55        1.22433602809906        44.1490285746924   -0.000135036989421335            253890.40625           101237.796875        288.052886962891       0.105982827834883      -0.122991938938274                       0 
      -1.81740870435218                    0.55        1.22433602809906        44.1490286616792   -0.000137040290345148            253890.40625           101237.796875        288.052886962891       0.105982829854146      -0.122991941679318                       0 
      -1.81490745372686                    0.55        1.22433602809906         44.149028748666   -0.000139043591268961            253890.40625           101237.796875        288.052886962891        0.10598283187341      -0.122991944420362                       0 
      -1.81240620310155                    0.55        1.22433602809906        44.1490288356528   -0.000141046892192774            253890.40625           101237.796875        288.052886962891       0.105982833892673      -0.122991947161405                       0 
      -1.80990495247624                    0.55        1.22433602809906        44.1490289226396   -0.000143050193116588            253890.40625           101237.796875        288.052886962891       0.105982835911936      -0.122991949902449                       0 
      -1.80740370185093                    0.55        1.22433602809906        44.1490290096264   -0.000145053494040401            253890.40625           101237.796875        288.052886962891       0.105982837931199      -0.122991952643493                       0 
      -1.80490245122561                    0.55        1.22433602809906        44.1490290966132   -0.000147056794964214            253890.40625           101237.796875        288.052886962891       0.105982839950462      -0.122991955384536                       0 
       -1.8024012006003                    0.55        1.22433602809906        44.1490291836001   -0.000149060095888027            253890.40625           101237.796875        288.052886962891       0.105982841969725       -0.12299195812558                       0 
      -1.79989994997499                    0.55        1.22433602809906        44.1490292705869    -0.00015106339681184            253890.40625           101237.796875        288.052886962891       0.105982843988988      -0.122991960866624                       0 
      -1.79739869934967                    0.55        1.22433602809906        44.1490293575737   -0.000153066697735653            253890.40625           101237.796875        288.052886962891       0.105982846008251      -0.122991963607667                       0 
      -1.79489744872436                    0.55        1.22433602809906        44.1490294445605   -0.000155069998659466            253890.40625           101237.796875        288.052886962891       0.105982848027514      -0.122991966348711                       0 
      -1.79239619809905                    0.55        1.22433602809906        44.1490295315473   -0.000157073299583279            253890.40625           101237.796875        288.052886962891       0.105982850046777      -0.122991969089755                       0 
      -1.78989494747374                    0.55        1.22433602809906        44.1490296185341   -0.000159076600507092            253890.40625           101237.796875        288.052886962891        0.10598285206604      -0.122991971830798                       0 
      -1.78739369684842                    0.55        1.22433602809906         44.149029705521   -0.000161079901430905            253890.40625           101237.796875        288.052886962891       0.105982854085303      -0.122991974571842                       0 
      -1.78489244622311                    0.55        1.22433602809906        44.1490297925078   -0.000163083202354718            253890.40625           101237.796875        288.052886962891       0.105982856104566      -0.122991977312886                       0 
       -1.7823911955978                    0.55        1.22433602809906        44.1490298794946   -0.000165086503278531            253890.40625           101237.796875        288.052886962891       0.105982858123829      -0.122991980053929                       0 
      -1.77988994497249                    0.55        1.22433602809906        44.1490299664814   -0.000167089804202344            253890.40625           101237.796875        288.052886962891       0.105982860143092      -0.122991982794973                       0 
      -1.77738869434717                    0.55        1.22433602809906        44.1490300817941   -0.000169258057241208            253890.40625           101237.796875        288.052886962891       0.105982858169764      -0.122991995356254                       0 
      -1.77488744372186                    0.55        1.22433602809906        44.1490301999108   -0.000171442638997808            253890.40625           101237.796875        288.052886962891       0.105982855801206      -0.122992008889647                       0 
      -1.77238619309655                    0.55        1.22433602809906        44.1490303180275   -0.000173627220754408            253890.40625           101237.796875        288.052886962891       0.105982853432648       -0.12299202242304                       0 
      -1.76988494247124                    0.55        1.22433602809906        44.1490304361442   -0.000175811802511008            253890.40625           101237.796875        288.052886962891        0.10598285106409      -0.122992035956433                       0 
      -1.76738369184592                    0.55        1.22433602809906        44.1490305542609   -0.000177996384267608            253890.40625           101237.796875        288.052886962891       0.105982848695532      -0.122992049489826                       0 
      -1.76488244122061                    0.55        1.22433602809906        44.1490306723776   -0.000180180966024208            253890.40625           101237.796875        288.052886962891       0.105982846326974      -0.122992063023219                       0 
       -1.7623811905953                    0.55        1.22433602809906        44.1490307904943   -0.000182365547780808            253890.40625           101237.796875        288.052886962891       0.105982843958416      -0.122992076556612                       0 
      -1.75987993996998                    0.55        1.22433602809906         44.149030908611   -0.000184550129537408            253890.40625           101237.796875        288.052886962891       0.105982841589858      -0.122992090090005                       0 
      -1.75737868934467                    0.55        1.22433602809906        44.1490310267277   -0.000186734711294008            253890.40625           101237.796875        288.052886962891         0.1059828392213      -0.122992103623397                       0 
      -1.75487743871936                    0.55        1.22433602809906        44.1490311448444   -0.000188919293050609            253890.40625           101237.796875        288.052886962891       0.105982836852742       -0.12299211715679                       0 
      -1.75237618809405                    0.55        1.22433602809906         44.149031262961   -0.000191103874807209            253890.40625           101237.796875        288.052886962891       0.105982834484184      -0.122992130690183                       0 
      -1.74987493746873                    0.55        1.22433602809906        44.1490313810777   -0.000193288456563809            253890.40625           101237.796875        288.052886962891       0.105982832115626      -0.122992144223576                       0 
      -1.74737368684342                    0.55        1.22433602809906        44.1490314991945   -0.000195473038320409            253890.40625           101237.796875        288.052886962891       0.105982829747068      -0.122992157756969                       0 
      -1.74487243621811                    0.55        1.22433602809906        44.1490316173111   -0.000197657620077009            253890.40625           101237.796875        288.052886962891        0.10598282737851      -0.122992171290362                       0 
       -1.7423711855928                    0.55        1.22433602809906        44.1490317354278   -0.000199842201833609            253890.40625           101237.796875        288.052886962891       0.105982825009952      -0.122992184823755                       0 
      -1.73986993496748                    0.55        1.22433602809906        44.1490318535445   -0.000202026783590209            253890.40625           101237.796875        288.052886962891       0.105982822641394      -0.122992198357148                       0 
      -1.73736868434217                    0.55        1.22433602809906        44.1490319716612    -0.00020421136534681            253890.40625           101237.796875        288.052886962891       0.105982820272837      -0.122992211890541                       0 
      -1.73486743371686                    0.55        1.22433602809906        44.1490320897779    -0.00020639594710341            253890.40625           101237.796875        288.052886962891       0.105982817904279      -0.122992225423934                       0 
      -1.73236618309155                    0.55        1.22433602809906        44.1490321561641   -0.000208532405503424            253890.40625           101237.796875        288.052886962891       0.105982816879726      -0.122992240358969                       0 
      -1.72986493246623                    0.55        1.22433602809906        44.1490321912348   -0.000210639732166163            253890.40625           101237.796875        288.052886962891       0.105982816668774      -0.122992256142497                       0 
      -1.72736368184092                    0.55        1.22433602809906        44.1490322263056   -0.000212747058828902            253890.40625           101237.796875        288.052886962891       0.105982816457823      -0.122992271926025                       0 
      -1.72486243121561                    0.55        1.22433602809906        44.1490323584127   -0.000214959388205647            253890.40625           101237.796875        288.052886962891        0.10598281627585      -0.122992288347496                       0 
       -1.7223611805903                    0.55        1.22433602809906        44.1490325943912   -0.000217284116525995            253890.40625           101237.796875        288.052886962891       0.105982816124897      -0.122992305451847                       0 