VARIABLES = "x"
 "y"
 "Density"
 "Momentum_x"
 "Momentum_y"
 "Energy"
 "Pressure"
 "Temperature"
 "Mach"
 "C<sub>p</sub>"
 "Roe_Dissipation"
ZONE
DT=(DOUBLE,DOUBLE,DOUBLE,DOUBLE,DOUBLE,DOUBLE,DOUBLE,DOUBLE,DOUBLE,DOUBLE,DOUBLE)
                     -2                   -0.55        1.22433602809906        44.1490415954808   -2.17773912791345E-06            253890.40625           101237.796875        288.052886962891       0.105982876420071      -0.122992770374966                       0 
      -1.99749874937469                   -0.55        1.22433602809906        44.1490414710208   -1.70878623331091E-07            253890.40625           101237.796875        288.052886962891       0.105982873839664      -0.122992774298373                       0 
      -1.99499749874937                   -0.55        1.22433602809906        44.1490413465608    1.83598188125144E-06            253890.40625           101237.796875        288.052886962891       0.105982871259257      -0.122992778221781                       0 
      -1.99249624812406                   -0.55        1.22433602809906        44.1490412221007     3.8428423858338E-06            253890.40625           101237.796875        288.052886962891        0.10598286867885      -0.122992782145188                       0 
      -1.98999499749875                   -0.55        1.22433602809906        44.1490410976407    5.84970289041615E-06            253890.40625           101237.796875        288.052886962891       0.105982866098443      -0.122992786068596                       0 
      -1.98749374687344                   -0.55        1.22433602809906        44.1490409731807    7.85656339499851E-06            253890.40625           101237.796875        288.052886962891       0.105982863518036      -0.122992789992004                       0 
      -1.98499249624812                   -0.55        1.22433602809906        44.1490408487206    9.86342389958104E-06            253890.40625           101237.796875        288.052886962891       0.105982860937629      -0.122992793915411                       0 
      -1.98249124562281                   -0.55        1.22433602809906        44.1490407242606    1.18702844041634E-05            253890.40625           101237.796875        288.052886962891       0.105982858357222      -0.122992797838819                       0 
       -1.9799899949975                   -0.55        1.22433602809906        44.1490405998006    1.38771449087457E-05            253890.40625           101237.796875        288.052886962891       0.105982855776815      -0.122992801762226                       0 
      -1.97748874437219                   -0.55        1.22433602809906        44.1490404753405    1.58840054133283E-05            253890.40625           101237.796875        288.052886962891       0.105982853196408      -0.122992805685634                       0 
      -1.97498749374687                   -0.55        1.22433602809906        44.1490403519945    1.78686829191248E-05            253890.40625           101237.796875        288.052886962891       0.105982850617456      -0.122992809672471                       0 
      -1.97248624312156                   -0.55        1.22433602809906        44.1490402294969    1.98364629344904E-05            253890.40625           101237.796875        288.052886962891       0.105982848039613      -0.122992813707626                       0 
      -1.96998499249625                   -0.55        1.22433602809906        44.1490401069994    2.18042429498562E-05            253890.40625           101237.796875        288.052886962891        0.10598284546177       -0.12299281774278                       0 
      -1.96748374187094                   -0.55        1.22433602809906        44.1490399845018    2.37720229652218E-05            253890.40625           101237.796875        288.052886962891       0.105982842883927      -0.122992821777934                       0 
      -1.96498249124562                   -0.55        1.22433602809906        44.1490398620043    2.57398029805873E-05            253890.40625           101237.796875        288.052886962891       0.105982840306084      -0.122992825813088                       0 
      -1.96248124062031                   -0.55        1.22433602809906        44.1490397395068    2.77075829959529E-05            253890.40625           101237.796875        288.052886962891        0.10598283772824      -0.122992829848242                       0 
        -1.959979989995                   -0.55        1.22433602809906        44.1490396170092    2.96753630113187E-05            253890.40625           101237.796875        288.052886962891       0.105982835150397      -0.122992833883396                       0 
      -1.95747873936968                   -0.55        1.22433602809906        44.1490394945117    3.16431430266842E-05            253890.40625           101237.796875        288.052886962891       0.105982832572554       -0.12299283791855                       0 
      -1.95497748874437                   -0.55        1.22433602809906        44.1490393720141    3.36109230420498E-05            253890.40625           101237.796875        288.052886962891       0.105982829994711      -0.122992841953704                       0 
      -1.95247623811906                   -0.55        1.22433602809906        44.1490392495166    3.55787030574156E-05            253890.40625           101237.796875        288.052886962891       0.105982827416868      -0.122992845988858                       0 
      -1.94997498749375                   -0.55        1.22433602809906        44.1490395192578    3.74152966108547E-05            253890.40625           101237.796875        288.052886962891       0.105982828561729      -0.122992847610297                       0 
      -1.94747373686843                   -0.55        1.22433602809906        44.1490398815096    3.92209494651478E-05            253890.40625           101237.796875        288.052886962891         0.1059828305846      -0.122992848662453                       0 
      -1.94497248624312                   -0.55        1.22433602809906        44.1490402437614    4.10266023194411E-05            253890.40625           101237.796875        288.052886962891       0.105982832607471       -0.12299284971461                       0 
      -1.94247123561781                   -0.55        1.22433602809906        44.1490406060132    4.28322551737342E-05            253890.40625           101237.796875        288.052886962891       0.105982834630342      -0.122992850766767                       0 
       -1.9399699849925                   -0.55        1.22433602809906        44.1490409682651    4.46379080280273E-05            253890.40625           101237.796875        288.052886962891       0.105982836653213      -0.122992851818924                       0 
      -1.93746873436718                   -0.55        1.22433602809906        44.1490413305169    4.64435608823204E-05            253890.40625           101237.796875        288.052886962891       0.105982838676084      -0.122992852871081                       0 
      -1.93496748374187                   -0.55        1.22433602809906        44.1490416927687    4.82492137366137E-05            253890.40625           101237.796875        288.052886962891       0.105982840698956      -0.122992853923237                       0 
      -1.93246623311656                   -0.55        1.22433602809906        44.1490420550205    5.00548665909068E-05            253890.40625           101237.796875        288.052886962891       0.105982842721827      -0.122992854975394                       0 
      -1.92996498249125                   -0.55        1.22433602809906        44.1490424172723    5.18605194451999E-05            253890.40625           101237.796875        288.052886962891       0.105982844744698      -0.122992856027551                       0 
      -1.92746373186593                   -0.55        1.22433602809906        44.1490427795241    5.36661722994931E-05            253890.40625           101237.796875        288.052886962891       0.105982846767569      -0.122992857079708                       0 
      -1.92496248124062                   -0.55        1.22433602809906        44.1490430563703    5.54830082118739E-05            253890.40625           101237.796875        288.052886962891       0.105982848787286      -0.122992856868057                       0 
      -1.92246123061531                   -0.55        1.22433602809906        44.1490432294696    5.73134287739008E-05            253890.40625           101237.796875        288.052886962891       0.105982850803173      -0.122992855121192                       0 
      -1.91995997998999                   -0.55        1.22433602809906        44.1490434025689    5.91438493359278E-05            253890.40625           101237.796875        288.052886962891       0.105982852819059      -0.122992853374328                       0 
      -1.91745872936468                   -0.55        1.22433602809906        44.1490435756682    6.09742698979546E-05            253890.40625           101237.796875        288.052886962891       0.105982854834946      -0.122992851627463                       0 
      -1.91495747873937                   -0.55        1.22433602809906        44.1490437487675    6.28046904599815E-05            253890.40625           101237.796875        288.052886962891       0.105982856850832      -0.122992849880598                       0 
      -1.91245622811406                   -0.55        1.22433602809906        44.1490439218668    6.46351110220083E-05            253890.40625           101237.796875        288.052886962891       0.105982858866719      -0.122992848133734                       0 
      -1.90995497748874                   -0.55        1.22433602809906        44.1490440949662    6.64655315840353E-05            253890.40625           101237.796875        288.052886962891       0.105982860882605      -0.122992846386869                       0 
      -1.90745372686343                   -0.55        1.22433602809906        44.1490442680655    6.82959521460622E-05            253890.40625           101237.796875        288.052886962891       0.105982862898492      -0.122992844640004                       0 
      -1.90495247623812                   -0.55        1.22433602809906        44.1490444411648    7.01263727080891E-05            253890.40625           101237.796875        288.052886962891       0.105982864914378       -0.12299284289314                       0 
      -1.90245122561281                   -0.55        1.22433602809906        44.1490446142641     7.1956793270116E-05            253890.40625           101237.796875        288.052886962891       0.105982866930265      -0.122992841146275                       0 
      -1.89994997498749                   -0.55        1.22433602809906        44.1490447873634    7.37872138321429E-05            253890.40625           101237.796875        288.052886962891       0.105982868946151       -0.12299283939941                       0 
      -1.89744872436218                   -0.55        1.22433602809906        44.1490449604627    7.56176343941698E-05            253890.40625           101237.796875        288.052886962891       0.105982870962038      -0.122992837652546                       0 
      -1.89494747373687                   -0.55        1.22433602809906        44.1490451508177    7.75090864775826E-05            253890.40625           101237.796875        288.052886962891       0.105982873032444      -0.122992841948907                       0 
      -1.89244622311156                   -0.55        1.22433602809906        44.1490453536895    7.94448092238593E-05            253890.40625           101237.796875        288.052886962891       0.105982875142396      -0.122992850628867                       0 
      -1.88994497248624                   -0.55        1.22433602809906        44.1490455565613     8.1380531970136E-05            253890.40625           101237.796875        288.052886962891       0.105982877252349      -0.122992859308826                       0 
      -1.88744372186093                   -0.55        1.22433602809906        44.1490457594331    8.33162547164126E-05            253890.40625           101237.796875        288.052886962891       0.105982879362302      -0.122992867988786                       0 
      -1.88494247123562                   -0.55        1.22433602809906        44.1490459623049    8.52519774626895E-05            253890.40625           101237.796875        288.052886962891       0.105982881472254      -0.122992876668745                       0 
      -1.88244122061031                   -0.55        1.22433602809906        44.1490461651767    8.71877002089661E-05            253890.40625           101237.796875        288.052886962891       0.105982883582207      -0.122992885348705                       0 
      -1.87993996998499                   -0.55        1.22433602809906        44.1490463680485    8.91234229552428E-05            253890.40625           101237.796875        288.052886962891        0.10598288569216      -0.122992894028664                       0 
      -1.87743871935968                   -0.55        1.22433602809906        44.1490465709203    9.10591457015196E-05            253890.40625           101237.796875        288.052886962891       0.105982887802112      -0.122992902708624                       0 
      -1.87493746873437                   -0.55        1.22433602809906        44.1490467737921    9.29948684477963E-05            253890.40625           101237.796875        288.052886962891       0.105982889912065      -0.122992911388583                       0 
      -1.87243621810905                   -0.55        1.22433602809906        44.1490469766639     9.4930591194073E-05            253890.40625           101237.796875        288.052886962891       0.105982892022018      -0.122992920068542                       0 
      -1.86993496748374                   -0.55        1.22433602809906        44.1490471795357    9.68663139403498E-05            253890.40625           101237.796875        288.052886962891       0.105982894131971      -0.122992928748502                       0 
      -1.86743371685843                   -0.55        1.22433602809906        44.1490473824075    9.88020366866265E-05            253890.40625           101237.796875        288.052886962891       0.105982896241923      -0.122992937428461                       0 
      -1.86493246623312                   -0.55        1.22433602809906        44.1490475852793    0.000100737759432903            253890.40625           101237.796875        288.052886962891       0.105982898351876      -0.122992946108421                       0 
       -1.8624312156078                   -0.55        1.22433602809906        44.1490476953695      0.0001026504107257            253890.40625           101237.796875        288.052886962891       0.105982900463621      -0.122992955655361                       0 
      -1.85992996498249                   -0.55        1.22433602809906        44.1490476523045    0.000104524977799651            253890.40625           101237.796875        288.052886962891       0.105982902578325      -0.122992966633432                       0 
      -1.85742871435718                   -0.55        1.22433602809906        44.1490476092395    0.000106399544873602            253890.40625           101237.796875        288.052886962891        0.10598290469303      -0.122992977611504                       0 
      -1.85492746373187                   -0.55        1.22433602809906        44.1490475661745    0.000108274111947553            253890.40625           101237.796875        288.052886962891       0.105982906807734      -0.122992988589575                       0 
      -1.85242621310655                   -0.55        1.22433602809906        44.1490475231096    0.000110148679021504            253890.40625           101237.796875        288.052886962891       0.105982908922438      -0.122992999567647                       0 
      -1.84992496248124                   -0.55        1.22433602809906        44.1490474800446    0.000112023246095455            253890.40625           101237.796875        288.052886962891       0.105982911037143      -0.122993010545719                       0 
      -1.84742371185593                   -0.55        1.22433602809906        44.1490474369796    0.000113897813169406            253890.40625           101237.796875        288.052886962891       0.105982913151847       -0.12299302152379                       0 
      -1.84492246123062                   -0.55        1.22433602809906        44.1490473939146    0.000115772380243357            253890.40625           101237.796875        288.052886962891       0.105982915266551      -0.122993032501862                       0 
       -1.8424212106053                   -0.55        1.22433602809906        44.1490473508496    0.000117646947317309            253890.40625           101237.796875        288.052886962891       0.105982917381256      -0.122993043479933                       0 
      -1.83991995997999                   -0.55        1.22433602809906        44.1490477695173    0.000119631954566916            253890.40625           101237.796875        288.052886962891        0.10598291581465       -0.12299305606256                       0 
      -1.83741870935468                   -0.55        1.22433602809906        44.1490482847702    0.000121640063676341            253890.40625           101237.796875        288.052886962891       0.105982913477988      -0.122993068980828                       0 
      -1.83491745872936                   -0.55        1.22433602809906        44.1490488000231    0.000123648172785766            253890.40625           101237.796875        288.052886962891       0.105982911141326      -0.122993081899096                       0 
      -1.83241620810405                   -0.55        1.22433602809906         44.149049315276     0.00012565628189519            253890.40625           101237.796875        288.052886962891       0.105982908804665      -0.122993094817364                       0 
      -1.82991495747874                   -0.55        1.22433602809906        44.1490498305289    0.000127664391004615            253890.40625           101237.796875        288.052886962891       0.105982906468003      -0.122993107735632                       0 
      -1.82741370685343                   -0.55        1.22433602809906        44.1490503457818     0.00012967250011404            253890.40625           101237.796875        288.052886962891       0.105982904131341        -0.1229931206539                       0 
      -1.82491245622811                   -0.55        1.22433602809906        44.1490508610347    0.000131680609223465            253890.40625           101237.796875        288.052886962891        0.10598290179468      -0.122993133572168                       0 
       -1.8224112056028                   -0.55        1.22433602809906        44.1490513514872    0.000133689203531167            253890.40625           101237.796875        288.052886962891       0.105982899457214      -0.122993146254013                       0 
      -1.81990995497749                   -0.55        1.22433602809906        44.1490515878859    0.000135702768202498            253890.40625           101237.796875        288.052886962891       0.105982897111507      -0.122993156513944                       0 
      -1.81740870435218                   -0.55        1.22433602809906        44.1490518242846    0.000137716332873829            253890.40625           101237.796875        288.052886962891         0.1059828947658      -0.122993166773875                       0 
      -1.81490745372686                   -0.55        1.22433602809906        44.1490520606833     0.00013972989754516            253890.40625           101237.796875        288.052886962891       0.105982892420094      -0.122993177033806                       0 
      -1.81240620310155                   -0.55        1.22433602809906        44.1490522970819    0.000141743462216491            253890.40625           101237.796875        288.052886962891       0.105982890074387      -0.122993187293738                       0 
      -1.80990495247624                   -0.55        1.22433602809906        44.1490525334806    0.000143757026887822            253890.40625           101237.796875        288.052886962891        0.10598288772868      -0.122993197553669                       0 
      -1.80740370185093                   -0.55        1.22433602809906        44.1490527698793    0.000145770591559154            253890.40625           101237.796875        288.052886962891       0.105982885382974        -0.1229932078136                       0 
      -1.80490245122561                   -0.55        1.22433602809906         44.149053006278    0.000147784156230485            253890.40625           101237.796875        288.052886962891       0.105982883037267      -0.122993218073531                       0 
       -1.8024012006003                   -0.55        1.22433602809906        44.1490532426767    0.000149797720901816            253890.40625           101237.796875        288.052886962891        0.10598288069156      -0.122993228333462                       0 
      -1.79989994997499                   -0.55        1.22433602809906        44.1490534790753    0.000151811285573147            253890.40625           101237.796875        288.052886962891       0.105982878345854      -0.122993238593393                       0 
      -1.79739869934967                   -0.55        1.22433602809906         44.149053715474    0.000153824850244478            253890.40625           101237.796875        288.052886962891       0.105982876000147      -0.122993248853325                       0 
      -1.79489744872436                   -0.55        1.22433602809906        44.1490539518727    0.000155838414915809            253890.40625           101237.796875        288.052886962891        0.10598287365444      -0.122993259113256                       0 
      -1.79239619809905                   -0.55        1.22433602809906        44.1490541882714     0.00015785197958714            253890.40625           101237.796875        288.052886962891       0.105982871308734      -0.122993269373187                       0 
      -1.78989494747374                   -0.55        1.22433602809906        44.1490544246701    0.000159865544258471            253890.40625           101237.796875        288.052886962891       0.105982868963027      -0.122993279633118                       0 
      -1.78739369684842                   -0.55        1.22433602809906        44.1490546780978    0.000161986064900698            253890.40625           101237.796875        288.052886962891       0.105982869343863      -0.122993293459162                       0 
      -1.78489244622311                   -0.55        1.22433602809906        44.1490549435618    0.000164182182053483            253890.40625           101237.796875        288.052886962891       0.105982871651821      -0.122993309805737                       0 
       -1.7823911955978                   -0.55        1.22433602809906        44.1490552090258    0.000166378299206267            253890.40625           101237.796875        288.052886962891       0.105982873959779      -0.122993326152311                       0 
      -1.77988994497249                   -0.55        1.22433602809906        44.1490554744897    0.000168574416359051            253890.40625           101237.796875        288.052886962891       0.105982876267737      -0.122993342498885                       0 
      -1.77738869434717                   -0.55        1.22433602809906        44.1490557399537    0.000170770533511836            253890.40625           101237.796875        288.052886962891       0.105982878575695      -0.122993358845459                       0 
      -1.77488744372186                   -0.55        1.22433602809906        44.1490560054177     0.00017296665066462            253890.40625           101237.796875        288.052886962891       0.105982880883653      -0.122993375192033                       0 
      -1.77238619309655                   -0.55        1.22433602809906        44.1490562708816    0.000175162767817405            253890.40625           101237.796875        288.052886962891       0.105982883191611      -0.122993391538607                       0 
      -1.76988494247124                   -0.55        1.22433602809906        44.1490565363456    0.000177358884970189            253890.40625           101237.796875        288.052886962891       0.105982885499569      -0.122993407885181                       0 
      -1.76738369184592                   -0.55        1.22433602809906        44.1490568018096    0.000179555002122974            253890.40625           101237.796875        288.052886962891       0.105982887807527      -0.122993424231755                       0 
      -1.76488244122061                   -0.55        1.22433602809906        44.1490570672735    0.000181751119275758            253890.40625           101237.796875        288.052886962891       0.105982890115485      -0.122993440578329                       0 
       -1.7623811905953                   -0.55        1.22433602809906        44.1490573327375    0.000183947236428543            253890.40625           101237.796875        288.052886962891       0.105982892423443      -0.122993456924903                       0 
      -1.75987993996998                   -0.55        1.22433602809906        44.1490575982014    0.000186143353581327            253890.40625           101237.796875        288.052886962891       0.105982894731401      -0.122993473271477                       0 
      -1.75737868934467                   -0.55        1.22433602809906        44.1490578636654    0.000188339470734112            253890.40625           101237.796875        288.052886962891       0.105982897039359      -0.122993489618051                       0 
      -1.75487743871936                   -0.55        1.22433602809906        44.1490581291294    0.000190535587886896            253890.40625           101237.796875        288.052886962891       0.105982899347317      -0.122993505964625                       0 
      -1.75237618809405                   -0.55        1.22433602809906         44.149058395933    0.000192651556506152            253890.40625           101237.796875        288.052886962891       0.105982901656836      -0.122993524368092                       0 
      -1.74987493746873                   -0.55        1.22433602809906        44.1490586629511    0.000194754693114175            253890.40625           101237.796875        288.052886962891       0.105982903966604      -0.122993543100874                       0 
      -1.74737368684342                   -0.55        1.22433602809906        44.1490589299693    0.000196857829722198            253890.40625           101237.796875        288.052886962891       0.105982906276373      -0.122993561833656                       0 
      -1.74487243621811                   -0.55        1.22433602809906        44.1490591969874    0.000198960966330222            253890.40625           101237.796875        288.052886962891       0.105982908586142      -0.122993580566438                       0 
       -1.7423711855928                   -0.55        1.22433602809906        44.1490594640055    0.000201064102938245            253890.40625           101237.796875        288.052886962891        0.10598291089591      -0.122993599299219                       0 
      -1.73986993496748                   -0.55        1.22433602809906        44.1490597310236    0.000203167239546268            253890.40625           101237.796875        288.052886962891       0.105982913205679      -0.122993618032001                       0 
      -1.73736868434217                   -0.55        1.22433602809906        44.1490599980417    0.000205270376154291            253890.40625           101237.796875        288.052886962891       0.105982915515448      -0.122993636764783                       0 
      -1.73486743371686                   -0.55        1.22433602809906        44.1490605630915    0.000207545462686031            253890.40625           101237.796875        288.052886962891       0.105982917872623      -0.122993659913703                       0 
      -1.73236618309155                   -0.55        1.22433602809906         44.149061220595    0.000209873890530403            253890.40625           101237.796875        288.052886962891       0.105982920244505      -0.122993684432572                       0 
      -1.72986493246623                   -0.55        1.22433602809906        44.1490618780985    0.000212202318374775            253890.40625           101237.796875        288.052886962891       0.105982922616387      -0.122993708951441                       0 
      -1.72736368184092                   -0.55        1.22433602809906        44.1490625356019    0.000214530746219148            253890.40625           101237.796875        288.052886962891       0.105982924988269       -0.12299373347031                       0 
      -1.72486243121561                   -0.55        1.22433602809906        44.1490631931053     0.00021685917406352            253890.40625           101237.796875        288.052886962891       0.105982927360151      -0.122993757989179                       0 
       -1.7223611805903                   -0.55        1.22433602809906        44.1490638506088    0.000219187601907893            253890.40625           101237.796875        288.052886962891       0.105982929732033      -0.122993782508048                       0 