VARIABLES = "x"
 "y"
 "Density"
 "Momentum_x"
 "Momentum_y"
 "Energy"
 "Pressure"
 "Temperature"
 "Mach"
 "C<sub>p</sub>"
 "Roe_Dissipation"
ZONE
DT=(DOUBLE,DOUBLE,DOUBLE,DOUBLE,DOUBLE,DOUBLE,DOUBLE,DOUBLE,DOUBLE,DOUBLE,DOUBLE)
                     -2                       0        1.22256195545197        49.4474716186523   -4.33356888152109E-07           253581.203125                101032.5        287.885894775391       0.118908800184727      -0.412407398223877                       0 
      -1.99749874937469                       0        1.22256195545197        49.4474718245724   -2.77720266329027E-07           253581.203125                101032.5        287.885894775391       0.118908800184727      -0.412407430820579                       0 
      -1.99499749874937                       0        1.22256195545197        49.4474720304925   -1.22083644506756E-07           253581.203125                101032.5        287.885894775391       0.118908800184727      -0.412407463417281                       0 
      -1.99249624812406                       0        1.22256195545197        49.4474722364126    3.35529773155013E-08           253581.203125                101032.5        287.885894775391       0.118908800184727      -0.412407496013983                       0 
      -1.98999499749875                       0        1.22256195545197        49.4474724423327    1.89189599137758E-07           253581.203125                101032.5        287.885894775391       0.118908800184727      -0.412407528610685                       0 
      -1.98749374687344                       0        1.22256195545197        49.4474726482528    3.44826220960016E-07           253581.203125                101032.5        287.885894775391       0.118908800184727      -0.412407561207388                       0 
      -1.98499249624812                       0        1.22256195545197        49.4474728541729    5.00462842782286E-07           253581.203125                101032.5        287.885894775391       0.118908800184727       -0.41240759380409                       0 
      -1.98249124562281                       0        1.22256195545197         49.447473060093    6.56099464604544E-07           253581.203125                101032.5        287.885894775391       0.118908800184727      -0.412407626400792                       0 
       -1.9799899949975                       0        1.22256195545197        49.4474732660131    8.11736086426801E-07           253581.203125                101032.5        287.885894775391       0.118908800184727      -0.412407658997494                       0 
      -1.97748874437219                       0        1.22256195545197        49.4474734719332    9.67372708249072E-07           253581.203125                101032.5        287.885894775391       0.118908800184727      -0.412407691594196                       0 
      -1.97498749374687                       0        1.22256195545197        49.4474736778533    1.12300933007133E-06           253581.203125                101032.5        287.885894775391       0.118908800184727      -0.412407724190898                       0 
      -1.97248624312156                       0        1.22256195545197        49.4474738837734    1.27864595189359E-06           253581.203125                101032.5        287.885894775391       0.118908800184727        -0.4124077567876                       0 
      -1.96998499249625                       0        1.22256195545197        49.4474740896935    1.43428257371586E-06           253581.203125                101032.5        287.885894775391       0.118908800184727      -0.412407789384302                       0 
      -1.96748374187094                       0        1.22256195545197        49.4474742956136    1.58991919553812E-06           253581.203125                101032.5        287.885894775391       0.118908800184727      -0.412407821981005                       0 
      -1.96498249124562                       0        1.22256195545197        49.4474745015337    1.74555581736037E-06           253581.203125                101032.5        287.885894775391       0.118908800184727      -0.412407854577707                       0 
      -1.96248124062031                       0        1.22256195545197        49.4474747074538    1.90119243918263E-06           253581.203125                101032.5        287.885894775391       0.118908800184727      -0.412407887174409                       0 
        -1.959979989995                       0        1.22256195545197        49.4474749133739     2.0568290610049E-06           253581.203125                101032.5        287.885894775391       0.118908800184727      -0.412407919771111                       0 
      -1.95747873936968                       0        1.22256195545197         49.447475119294    2.21246568282716E-06           253581.203125                101032.5        287.885894775391       0.118908800184727      -0.412407952367813                       0 
      -1.95497748874437                       0        1.22256195545197        49.4474753252141    2.36810230464941E-06           253581.203125                101032.5        287.885894775391       0.118908800184727      -0.412407984964515                       0 
      -1.95247623811906                       0        1.22256195545197         49.447475801762    2.52063011949494E-06           253581.203125                101032.5        287.885894775391        0.11890880106915      -0.412408022510827                       0 
      -1.94997498749375                       0        1.22256195545197        49.4474772844234    2.66160031863181E-06           253581.203125                101032.5        287.885894775391       0.118908805241598      -0.412408078458308                       0 
      -1.94747373686843                       0        1.22256195545197        49.4474787670848    2.80257051776868E-06           253581.203125                101032.5        287.885894775391       0.118908809414045      -0.412408134405789                       0 
      -1.94497248624312                       0        1.22256195545197        49.4474802497462    2.94354071690557E-06           253581.203125                101032.5        287.885894775391       0.118908813586492       -0.41240819035327                       0 
      -1.94247123561781                       0        1.22256195545197        49.4474817324076    3.08451091604244E-06           253581.203125                101032.5        287.885894775391       0.118908817758939      -0.412408246300751                       0 
       -1.9399699849925                       0        1.22256195545197         49.447483215069    3.22548111517931E-06           253581.203125                101032.5        287.885894775391       0.118908821931386      -0.412408302248232                       0 
      -1.93746873436718                       0        1.22256195545197        49.4474846977304    3.36645131431618E-06           253581.203125                101032.5        287.885894775391       0.118908826103833      -0.412408358195713                       0 
      -1.93496748374187                       0        1.22256195545197        49.4474861803918    3.50742151345307E-06           253581.203125                101032.5        287.885894775391        0.11890883027628      -0.412408414143194                       0 
      -1.93246623311656                       0        1.22256195545197        49.4474876630532    3.64839171258994E-06           253581.203125                101032.5        287.885894775391       0.118908834448727      -0.412408470090675                       0 
      -1.92996498249125                       0        1.22256195545197        49.4474891457146    3.78936191172681E-06           253581.203125                101032.5        287.885894775391       0.118908838621174      -0.412408526038156                       0 
      -1.92746373186593                       0        1.22256195545197         49.447490628376     3.9303321108637E-06           253581.203125                101032.5        287.885894775391       0.118908842793621      -0.412408581985638                       0 
      -1.92496248124062                       0        1.22256195545197        49.4474921110374    4.07130231000057E-06           253581.203125                101032.5        287.885894775391       0.118908846966068      -0.412408637933119                       0 
      -1.92246123061531                       0        1.22256195545197        49.4474935936988    4.21227250913744E-06           253581.203125                101032.5        287.885894775391       0.118908851138515        -0.4124086938806                       0 
      -1.91995997998999                       0        1.22256195545197        49.4474950763602    4.35324270827432E-06           253581.203125                101032.5        287.885894775391       0.118908855310962      -0.412408749828081                       0 
      -1.91745872936468                       0        1.22256195545197        49.4474965590216     4.4942129074112E-06           253581.203125                101032.5        287.885894775391        0.11890885948341      -0.412408805775562                       0 
      -1.91495747873937                       0        1.22256195545197         49.447498041683    4.63518310654807E-06           253581.203125                101032.5        287.885894775391       0.118908863655857      -0.412408861723043                       0 
      -1.91245622811406                       0        1.22256195545197        49.4474995243444    4.77615330568494E-06           253581.203125                101032.5        287.885894775391       0.118908867828304      -0.412408917670524                       0 
      -1.90995497748874                       0        1.22256195545197        49.4475010070058    4.91712350482182E-06           253581.203125                101032.5        287.885894775391       0.118908872000751      -0.412408973618005                       0 
      -1.90745372686343                       0        1.22256195545197        49.4475024896672     5.0580937039587E-06           253581.203125                101032.5        287.885894775391       0.118908876173198      -0.412409029565486                       0 
      -1.90495247623812                       0        1.22256195545197        49.4475039723286    5.19906390309557E-06           253581.203125                101032.5        287.885894775391       0.118908880345645      -0.412409085512967                       0 
      -1.90245122561281                       0        1.22256195545197          49.44750545499    5.34003410223245E-06           253581.203125                101032.5        287.885894775391       0.118908884518092      -0.412409141460448                       0 
      -1.89994997498749                       0        1.22256195545197        49.4475069376514    5.48100430136932E-06           253581.203125                101032.5        287.885894775391       0.118908888690539      -0.412409197407929                       0 
      -1.89744872436218                       0        1.22256195545197        49.4475084203128     5.6219745005062E-06           253581.203125                101032.5        287.885894775391       0.118908892862986      -0.412409253355411                       0 
      -1.89494747373687                       0        1.22256195545197        49.4475095510414    5.27751734893557E-06           253581.203125                101032.5        287.885894775391       0.118908897027195      -0.412409294458143                       0 
      -1.89244622311156                       0        1.22256195545197        49.4475124623335    4.91056757260266E-06           253581.203125                101032.5        287.885894775391       0.118908905627803      -0.412409477415402                       0 
      -1.88994497248624                       0        1.22256195545197        49.4475151731224    5.04799980542544E-06           253581.203125                101032.5        287.885894775391       0.118908912458111      -0.412409646278518                       0 
      -1.88744372186093                       0        1.22256195545197        49.4475178839112    5.18543203824823E-06           253581.203125                101032.5        287.885894775391        0.11890891928842      -0.412409815141633                       0 
      -1.88494247123562                       0        1.22256195545197        49.4475205947001    5.32286427107103E-06           253581.203125                101032.5        287.885894775391       0.118908926118729      -0.412409984004748                       0 
      -1.88244122061031                       0        1.22256195545197         49.447523305489    5.46029650389381E-06           253581.203125                101032.5        287.885894775391       0.118908932949038      -0.412410152867863                       0 
      -1.87993996998499                       0        1.22256195545197        49.4475260162778     5.5977287367166E-06           253581.203125                101032.5        287.885894775391       0.118908939779347      -0.412410321730978                       0 
      -1.87743871935968                       0        1.22256195545197        49.4475287270667    5.73516096953939E-06           253581.203125                101032.5        287.885894775391       0.118908946609655      -0.412410490594093                       0 
      -1.87493746873437                       0        1.22256195545197        49.4475314378556    5.87259320236218E-06           253581.203125                101032.5        287.885894775391       0.118908953439964      -0.412410659457208                       0 
      -1.87243621810905                       0        1.22256195545197        49.4475341486444    6.01002543518496E-06           253581.203125                101032.5        287.885894775391       0.118908960270273      -0.412410828320323                       0 
      -1.86993496748374                       0        1.22256195545197        49.4475368594333    6.14745766800776E-06           253581.203125                101032.5        287.885894775391       0.118908967100582      -0.412410997183438                       0 
      -1.86743371685843                       0        1.22256195545197        49.4475395702222    6.28488990083055E-06           253581.203125                101032.5        287.885894775391       0.118908973930891      -0.412411166046553                       0 
      -1.86493246623312                       0        1.22256195545197         49.447542281011    6.42232213365333E-06           253581.203125                101032.5        287.885894775391       0.118908980761199      -0.412411334909668                       0 
       -1.8624312156078                       0        1.22256195545197        49.4475449917999    6.55975436647612E-06           253581.203125                101032.5        287.885894775391       0.118908987591508      -0.412411503772783                       0 
      -1.85992996498249                       0        1.22256195545197        49.4475477025888    6.69718659929891E-06           253581.203125                101032.5        287.885894775391       0.118908994421817      -0.412411672635898                       0 
      -1.85742871435718                       0        1.22256195545197        49.4475504133776     6.8346188321217E-06           253581.203125                101032.5        287.885894775391       0.118909001252126      -0.412411841499013                       0 
      -1.85492746373187                       0        1.22256195545197        49.4475531241665    6.97205106494448E-06           253581.203125                101032.5        287.885894775391       0.118909008082435      -0.412412010362128                       0 
      -1.85242621310655                       0        1.22256195545197        49.4475558349554    7.10948329776728E-06           253581.203125                101032.5        287.885894775391       0.118909014912743      -0.412412179225243                       0 
      -1.84992496248124                       0        1.22256195545197        49.4475585457443    7.24691553059007E-06           253581.203125                101032.5        287.885894775391       0.118909021743052      -0.412412348088358                       0 
      -1.84742371185593                       0        1.22256195545197        49.4475612565331    7.38434776341286E-06           253581.203125                101032.5        287.885894775391       0.118909028573361      -0.412412516951473                       0 
      -1.84492246123062                       0        1.22256195545197         49.447563967322    7.52177999623564E-06           253581.203125                101032.5        287.885894775391        0.11890903540367      -0.412412685814588                       0 
       -1.8424212106053                       0        1.22256195545197        49.4475666781109    7.65921222905844E-06           253581.203125                101032.5        287.885894775391       0.118909042233978      -0.412412854677703                       0 
      -1.83991995997999                       0        1.22256195545197        49.4475693888997    7.79664446188122E-06           253581.203125                101032.5        287.885894775391       0.118909049064287      -0.412413023540818                       0 
      -1.83741870935468                       0        1.22256195545197        49.4475725657097    7.94338020298644E-06           253581.203125                101032.5        287.885894775391        0.11890905814284      -0.412413216922251                       0 
      -1.83491745872936                       0        1.22256195545197        49.4475762490737    8.10022863722964E-06           253581.203125                101032.5        287.885894775391        0.11890906966518      -0.412413436954515                       0 
      -1.83241620810405                       0        1.22256195545197        49.4475799324376    8.25707707147284E-06           253581.203125                101032.5        287.885894775391       0.118909081187521      -0.412413656986778                       0 
      -1.82991495747874                       0        1.22256195545197        49.4475836158015    8.41392550571603E-06           253581.203125                101032.5        287.885894775391       0.118909092709861      -0.412413877019042                       0 
      -1.82741370685343                       0        1.22256195545197        49.4475872991654    8.57077393995924E-06           253581.203125                101032.5        287.885894775391       0.118909104232202      -0.412414097051305                       0 
      -1.82491245622811                       0        1.22256195545197        49.4475909825293    8.72762237420244E-06           253581.203125                101032.5        287.885894775391       0.118909115754542      -0.412414317083569                       0 
       -1.8224112056028                       0        1.22256195545197        49.4475946658933    8.88447080844563E-06           253581.203125                101032.5        287.885894775391       0.118909127276882      -0.412414537115833                       0 
      -1.81990995497749                       0        1.22256195545197        49.4475983492572    9.04131924268884E-06           253581.203125                101032.5        287.885894775391       0.118909138799223      -0.412414757148096                       0 
      -1.81740870435218                       0        1.22256195545197        49.4476020326211    9.19816767693204E-06           253581.203125                101032.5        287.885894775391       0.118909150321563       -0.41241497718036                       0 
      -1.81490745372686                       0        1.22256195545197         49.447605715985    9.35501611117524E-06           253581.203125                101032.5        287.885894775391       0.118909161843904      -0.412415197212624                       0 
      -1.81240620310155                       0        1.22256195545197         49.447609399349    9.51186454541843E-06           253581.203125                101032.5        287.885894775391       0.118909173366244      -0.412415417244887                       0 
      -1.80990495247624                       0        1.22256195545197        49.4476130827129    9.66871297966164E-06           253581.203125                101032.5        287.885894775391       0.118909184888585      -0.412415637277151                       0 
      -1.80740370185093                       0        1.22256195545197        49.4476167660768    9.82556141390484E-06           253581.203125                101032.5        287.885894775391       0.118909196410925      -0.412415857309414                       0 
      -1.80490245122561                       0        1.22256195545197        49.4476204494408    9.98240984814803E-06           253581.203125                101032.5        287.885894775391       0.118909207933266      -0.412416077341678                       0 
       -1.8024012006003                       0        1.22256195545197        49.4476241328047    1.01392582823912E-05           253581.203125                101032.5        287.885894775391       0.118909219455606      -0.412416297373942                       0 
      -1.79989994997499                       0        1.22256195545197        49.4476278161686    1.02961067166344E-05           253581.203125                101032.5        287.885894775391       0.118909230977946      -0.412416517406205                       0 
      -1.79739869934967                       0        1.22256195545197        49.4476314995325    1.04529551508776E-05           253581.203125                101032.5        287.885894775391       0.118909242500287      -0.412416737438469                       0 
      -1.79489744872436                       0        1.22256195545197        49.4476351828965    1.06098035851208E-05           253581.203125                101032.5        287.885894775391       0.118909254022627      -0.412416957470733                       0 
      -1.79239619809905                       0        1.22256195545197        49.4476388662604     1.0766652019364E-05           253581.203125                101032.5        287.885894775391       0.118909265544968      -0.412417177502996                       0 
      -1.78989494747374                       0        1.22256195545197        49.4476425496243    1.09235004536072E-05           253581.203125                101032.5        287.885894775391       0.118909277067308       -0.41241739753526                       0 
      -1.78739369684842                       0        1.22256195545197        49.4476461174556     1.0808997302467E-05           253581.203125                101032.5        287.885894775391       0.118909286664692      -0.412417608584449                       0 
      -1.78489244622311                       0        1.22256195545197        49.4476495270948    1.03229481233189E-05           253581.203125                101032.5        287.885894775391       0.118909293626343      -0.412417807333635                       0 
       -1.7823911955978                       0        1.22256195545197        49.4476544594066    9.81161304332106E-06           253581.203125                101032.5        287.885894775391       0.118909304084788      -0.412418083468075                       0 
      -1.77988994497249                       0        1.22256195545197        49.4476599550973     9.2972148713849E-06           253581.203125                101032.5        287.885894775391       0.118909315827162      -0.412418388274857                       0 
      -1.77738869434717                       0        1.22256195545197        49.4476649291237    9.44009603492544E-06           253581.203125                101032.5        287.885894775391       0.118909325355072      -0.412418670723865                       0 
      -1.77488744372186                       0        1.22256195545197        49.4476699031501    9.58297719846597E-06           253581.203125                101032.5        287.885894775391       0.118909334882982      -0.412418953172873                       0 
      -1.77238619309655                       0        1.22256195545197        49.4476748771765    9.72585836200649E-06           253581.203125                101032.5        287.885894775391       0.118909344410891       -0.41241923562188                       0 
      -1.76988494247124                       0        1.22256195545197        49.4476798512029    9.86873952554703E-06           253581.203125                101032.5        287.885894775391       0.118909353938801      -0.412419518070888                       0 
      -1.76738369184592                       0        1.22256195545197        49.4476848252293    1.00116206890876E-05           253581.203125                101032.5        287.885894775391       0.118909363466711      -0.412419800519896                       0 
      -1.76488244122061                       0        1.22256195545197        49.4476897992557    1.01545018526281E-05           253581.203125                101032.5        287.885894775391       0.118909372994621      -0.412420082968903                       0 
       -1.7623811905953                       0        1.22256195545197        49.4476947732821    1.02973830161686E-05           253581.203125                101032.5        287.885894775391        0.11890938252253      -0.412420365417911                       0 
      -1.75987993996998                       0        1.22256195545197        49.4476997473084    1.04402641797091E-05           253581.203125                101032.5        287.885894775391        0.11890939205044      -0.412420647866919                       0 
      -1.75737868934467                       0        1.22256195545197        49.4477047213349    1.05831453432497E-05           253581.203125                101032.5        287.885894775391        0.11890940157835      -0.412420930315927                       0 
      -1.75487743871936                       0        1.22256195545197        49.4477096953612    1.07260265067902E-05           253581.203125                101032.5        287.885894775391        0.11890941110626      -0.412421212764934                       0 
      -1.75237618809405                       0        1.22256195545197        49.4477146693876    1.08689076703307E-05           253581.203125                101032.5        287.885894775391        0.11890942063417      -0.412421495213942                       0 
      -1.74987493746873                       0        1.22256195545197         49.447719643414    1.10117888338713E-05           253581.203125                101032.5        287.885894775391       0.118909430162079       -0.41242177766295                       0 
      -1.74737368684342                       0        1.22256195545197        49.4477246174404    1.11546699974118E-05           253581.203125                101032.5        287.885894775391       0.118909439689989      -0.412422060111957                       0 
      -1.74487243621811                       0        1.22256195545197        49.4477295914668    1.12975511609523E-05           253581.203125                101032.5        287.885894775391       0.118909449217899      -0.412422342560965                       0 
       -1.7423711855928                       0        1.22256195545197        49.4477345654932    1.14404323244928E-05           253581.203125                101032.5        287.885894775391       0.118909458745809      -0.412422625009973                       0 
      -1.73986993496748                       0        1.22256195545197        49.4477395395196    1.15833134880334E-05           253581.203125                101032.5        287.885894775391       0.118909468273718      -0.412422907458981                       0 
      -1.73736868434217                       0        1.22256195545197         49.447744513546    1.17261946515739E-05           253581.203125                101032.5        287.885894775391       0.118909477801628      -0.412423189907988                       0 
      -1.73486743371686                       0        1.22256195545197        49.4477494875724    1.18690758151144E-05           253581.203125                101032.5        287.885894775391       0.118909487329538      -0.412423472356996                       0 
      -1.73236618309155                       0        1.22256195545197        49.4477544615987     1.2011956978655E-05           253581.203125                101032.5        287.885894775391       0.118909496857448      -0.412423754806004                       0 
      -1.72986493246623                       0        1.22256195545197        49.4477604033935    1.21621883701318E-05           253581.203125                101032.5        287.885894775391       0.118909509378228      -0.412424091198168                       0 
      -1.72736368184092                       0        1.22256195545197        49.4477669546903    1.23170489474328E-05           253581.203125                101032.5        287.885894775391       0.118909523783922      -0.412424461563822                       0 
      -1.72486243121561                       0        1.22256195545197        49.4477735059871    1.24719095247339E-05           253581.203125                101032.5        287.885894775391       0.118909538189617      -0.412424831929476                       0 
       -1.7223611805903                       0        1.22256195545197         49.447780057284    1.26267701020349E-05           253581.203125                101032.5        287.885894775391       0.118909552595312       -0.41242520229513                       0 