VARIABLES = "x"
 "y"
 "Density"
 "Momentum_x"
 "Momentum_y"
 "Energy"
 "Pressure"
 "Temperature"
 "Mach"
 "C<sub>p</sub>"
 "Roe_Dissipation"
ZONE
DT=(DOUBLE,DOUBLE,DOUBLE,DOUBLE,DOUBLE,DOUBLE,DOUBLE,DOUBLE,DOUBLE,DOUBLE,DOUBLE)
                     -2                       0        1.22455894947052        43.4364204406738    -4.4049571101828E-08           253929.203125                101263.5        288.073791503906       0.104249402880669     -0.0866570323705673                       0 
      -1.99749874937469                       0        1.22455894947052        43.4364204406738   -2.62159668993586E-08           253929.203125                101263.5        288.073791503906       0.104249402880669     -0.0866570343589947                       0 
      -1.99499749874937                       0        1.22455894947052        43.4364204406738   -8.38236269695328E-09           253929.203125                101263.5        288.073791503906       0.104249402880669      -0.086657036347422                       0 
      -1.99249624812406                       0        1.22455894947052        43.4364204406738    9.45124150545044E-09           253929.203125                101263.5        288.073791503906       0.104249402880669     -0.0866570383358494                       0 
      -1.98999499749875                       0        1.22455894947052        43.4364204406738    2.72848457078541E-08           253929.203125                101263.5        288.073791503906       0.104249402880669     -0.0866570403242768                       0 
      -1.98749374687344                       0        1.22455894947052        43.4364204406738    4.51184499102579E-08           253929.203125                101263.5        288.073791503906       0.104249402880669     -0.0866570423127041                       0 
      -1.98499249624812                       0        1.22455894947052        43.4364204406738    6.29520541126631E-08           253929.203125                101263.5        288.073791503906       0.104249402880669     -0.0866570443011315                       0 
      -1.98249124562281                       0        1.22455894947052        43.4364204406738    8.07856583150668E-08           253929.203125                101263.5        288.073791503906       0.104249402880669     -0.0866570462895589                       0 
       -1.9799899949975                       0        1.22455894947052        43.4364204406738    9.86192625174706E-08           253929.203125                101263.5        288.073791503906       0.104249402880669     -0.0866570482779862                       0 
      -1.97748874437219                       0        1.22455894947052        43.4364204406738    1.16452866719876E-07           253929.203125                101263.5        288.073791503906       0.104249402880669     -0.0866570502664136                       0 
      -1.97498749374687                       0        1.22455894947052        43.4364204406738     1.3428647092228E-07           253929.203125                101263.5        288.073791503906       0.104249402880669     -0.0866570522548409                       0 
      -1.97248624312156                       0        1.22455894947052        43.4364204406738    1.52120075124683E-07           253929.203125                101263.5        288.073791503906       0.104249402880669     -0.0866570542432683                       0 
      -1.96998499249625                       0        1.22455894947052        43.4364204406738    1.69953679327089E-07           253929.203125                101263.5        288.073791503906       0.104249402880669     -0.0866570562316957                       0 
      -1.96748374187094                       0        1.22455894947052        43.4364204406738    1.87787283529492E-07           253929.203125                101263.5        288.073791503906       0.104249402880669     -0.0866570582201231                       0 
      -1.96498249124562                       0        1.22455894947052        43.4364204406738    2.05620887731896E-07           253929.203125                101263.5        288.073791503906       0.104249402880669     -0.0866570602085504                       0 
      -1.96248124062031                       0        1.22455894947052        43.4364204406738      2.234544919343E-07           253929.203125                101263.5        288.073791503906       0.104249402880669     -0.0866570621969778                       0 
        -1.959979989995                       0        1.22455894947052        43.4364204406738    2.41288096136705E-07           253929.203125                101263.5        288.073791503906       0.104249402880669     -0.0866570641854051                       0 
      -1.95747873936968                       0        1.22455894947052        43.4364204406738    2.59121700339109E-07           253929.203125                101263.5        288.073791503906       0.104249402880669     -0.0866570661738325                       0 
      -1.95497748874437                       0        1.22455894947052        43.4364204406738    2.76955304541512E-07           253929.203125                101263.5        288.073791503906       0.104249402880669     -0.0866570681622599                       0 
      -1.95247623811906                       0        1.22455894947052        43.4364204406738    2.94392550227487E-07           253929.203125                101263.5        288.073791503906       0.104249402880669     -0.0866570705471235                       0 
      -1.94997498749375                       0        1.22455894947052        43.4364204406738    3.10356253345516E-07           253929.203125                101263.5        288.073791503906       0.104249402880669      -0.086657074405819                       0 
      -1.94747373686843                       0        1.22455894947052        43.4364204406738    3.26319956463544E-07           253929.203125                101263.5        288.073791503906       0.104249402880669     -0.0866570782645145                       0 
      -1.94497248624312                       0        1.22455894947052        43.4364204406738    3.42283659581575E-07           253929.203125                101263.5        288.073791503906       0.104249402880669     -0.0866570821232099                       0 
      -1.94247123561781                       0        1.22455894947052        43.4364204406738    3.58247362699604E-07           253929.203125                101263.5        288.073791503906       0.104249402880669     -0.0866570859819053                       0 
       -1.9399699849925                       0        1.22455894947052        43.4364204406738    3.74211065817632E-07           253929.203125                101263.5        288.073791503906       0.104249402880669     -0.0866570898406008                       0 
      -1.93746873436718                       0        1.22455894947052        43.4364204406738    3.90174768935661E-07           253929.203125                101263.5        288.073791503906       0.104249402880669     -0.0866570936992963                       0 
      -1.93496748374187                       0        1.22455894947052        43.4364204406738    4.06138472053691E-07           253929.203125                101263.5        288.073791503906       0.104249402880669     -0.0866570975579917                       0 
      -1.93246623311656                       0        1.22455894947052        43.4364204406738     4.2210217517172E-07           253929.203125                101263.5        288.073791503906       0.104249402880669     -0.0866571014166871                       0 
      -1.92996498249125                       0        1.22455894947052        43.4364204406738    4.38065878289749E-07           253929.203125                101263.5        288.073791503906       0.104249402880669     -0.0866571052753826                       0 
      -1.92746373186593                       0        1.22455894947052        43.4364204406738    4.54029581407779E-07           253929.203125                101263.5        288.073791503906       0.104249402880669      -0.086657109134078                       0 
      -1.92496248124062                       0        1.22455894947052        43.4364204406738    4.69993284525808E-07           253929.203125                101263.5        288.073791503906       0.104249402880669     -0.0866571129927735                       0 
      -1.92246123061531                       0        1.22455894947052        43.4364204406738    4.85956987643837E-07           253929.203125                101263.5        288.073791503906       0.104249402880669     -0.0866571168514689                       0 
      -1.91995997998999                       0        1.22455894947052        43.4364204406738    5.01920690761867E-07           253929.203125                101263.5        288.073791503906       0.104249402880669     -0.0866571207101644                       0 
      -1.91745872936468                       0        1.22455894947052        43.4364204406738    5.17884393879896E-07           253929.203125                101263.5        288.073791503906       0.104249402880669     -0.0866571245688598                       0 
      -1.91495747873937                       0        1.22455894947052        43.4364204406738    5.33848096997925E-07           253929.203125                101263.5        288.073791503906       0.104249402880669     -0.0866571284275552                       0 
      -1.91245622811406                       0        1.22455894947052        43.4364204406738    5.49811800115954E-07           253929.203125                101263.5        288.073791503906       0.104249402880669     -0.0866571322862507                       0 
      -1.90995497748874                       0        1.22455894947052        43.4364204406738    5.65775503233984E-07           253929.203125                101263.5        288.073791503906       0.104249402880669     -0.0866571361449462                       0 
      -1.90745372686343                       0        1.22455894947052        43.4364204406738    5.81739206352013E-07           253929.203125                101263.5        288.073791503906       0.104249402880669     -0.0866571400036416                       0 
      -1.90495247623812                       0        1.22455894947052        43.4364204406738    5.97702909470042E-07           253929.203125                101263.5        288.073791503906       0.104249402880669     -0.0866571438623371                       0 
      -1.90245122561281                       0        1.22455894947052        43.4364204406738    6.13666612588072E-07           253929.203125                101263.5        288.073791503906       0.104249402880669     -0.0866571477210325                       0 
      -1.89994997498749                       0        1.22455894947052        43.4364204406738    6.29630315706101E-07           253929.203125                101263.5        288.073791503906       0.104249402880669      -0.086657151579728                       0 
      -1.89744872436218                       0        1.22455894947052        43.4364204406738     6.4559401882413E-07           253929.203125                101263.5        288.073791503906       0.104249402880669     -0.0866571554384234                       0 
      -1.89494747373687                       0        1.22455894947052        43.4364204406738    6.23023052178075E-07           253929.203125                101263.5        288.073791503906       0.104249402880669     -0.0866571583346296                       0 
      -1.89244622311156                       0        1.22455894947052        43.4364209463067    5.99114188934983E-07           253929.203125                101263.5        288.073791503906       0.104249402880669     -0.0866571708346612                       0 
      -1.88994497248624                       0        1.22455894947052        43.4364214545796    6.15092611020346E-07           253929.203125                101263.5        288.073791503906       0.104249402880669     -0.0866571824235882                       0 
      -1.88744372186093                       0        1.22455894947052        43.4364219628525    6.31071033105709E-07           253929.203125                101263.5        288.073791503906       0.104249402880669     -0.0866571940125152                       0 
      -1.88494247123562                       0        1.22455894947052        43.4364224711254    6.47049455191074E-07           253929.203125                101263.5        288.073791503906       0.104249402880669     -0.0866572056014422                       0 
      -1.88244122061031                       0        1.22455894947052        43.4364229793983    6.63027877276436E-07           253929.203125                101263.5        288.073791503906       0.104249402880669     -0.0866572171903692                       0 
      -1.87993996998499                       0        1.22455894947052        43.4364234876712    6.79006299361799E-07           253929.203125                101263.5        288.073791503906       0.104249402880669     -0.0866572287792962                       0 
      -1.87743871935968                       0        1.22455894947052        43.4364239959441    6.94984721447164E-07           253929.203125                101263.5        288.073791503906       0.104249402880669     -0.0866572403682232                       0 
      -1.87493746873437                       0        1.22455894947052        43.4364245042171    7.10963143532527E-07           253929.203125                101263.5        288.073791503906       0.104249402880669     -0.0866572519571502                       0 
      -1.87243621810905                       0        1.22455894947052          43.43642501249     7.2694156561789E-07           253929.203125                101263.5        288.073791503906       0.104249402880669     -0.0866572635460773                       0 
      -1.86993496748374                       0        1.22455894947052        43.4364255207629    7.42919987703254E-07           253929.203125                101263.5        288.073791503906       0.104249402880669     -0.0866572751350042                       0 
      -1.86743371685843                       0        1.22455894947052        43.4364260290358    7.58898409788617E-07           253929.203125                101263.5        288.073791503906       0.104249402880669     -0.0866572867239313                       0 
      -1.86493246623312                       0        1.22455894947052        43.4364265373087     7.7487683187398E-07           253929.203125                101263.5        288.073791503906       0.104249402880669     -0.0866572983128583                       0 
       -1.8624312156078                       0        1.22455894947052        43.4364270455816    7.90855253959343E-07           253929.203125                101263.5        288.073791503906       0.104249402880669     -0.0866573099017853                       0 
      -1.85992996498249                       0        1.22455894947052        43.4364275538545    8.06833676044708E-07           253929.203125                101263.5        288.073791503906       0.104249402880669     -0.0866573214907123                       0 
      -1.85742871435718                       0        1.22455894947052        43.4364280621274    8.22812098130071E-07           253929.203125                101263.5        288.073791503906       0.104249402880669     -0.0866573330796393                       0 
      -1.85492746373187                       0        1.22455894947052        43.4364285704004    8.38790520215434E-07           253929.203125                101263.5        288.073791503906       0.104249402880669     -0.0866573446685663                       0 
      -1.85242621310655                       0        1.22455894947052        43.4364290786733    8.54768942300798E-07           253929.203125                101263.5        288.073791503906       0.104249402880669     -0.0866573562574933                       0 
      -1.84992496248124                       0        1.22455894947052        43.4364295869462    8.70747364386161E-07           253929.203125                101263.5        288.073791503906       0.104249402880669     -0.0866573678464203                       0 
      -1.84742371185593                       0        1.22455894947052        43.4364300952191    8.86725786471524E-07           253929.203125                101263.5        288.073791503906       0.104249402880669     -0.0866573794353474                       0 
      -1.84492246123062                       0        1.22455894947052         43.436430603492    9.02704208556887E-07           253929.203125                101263.5        288.073791503906       0.104249402880669     -0.0866573910242743                       0 
       -1.8424212106053                       0        1.22455894947052        43.4364311117649    9.18682630642252E-07           253929.203125                101263.5        288.073791503906       0.104249402880669     -0.0866574026132014                       0 
      -1.83991995997999                       0        1.22455894947052        43.4364316200378    9.34661052727615E-07           253929.203125                101263.5        288.073791503906       0.104249402880669     -0.0866574142021284                       0 
      -1.83741870935468                       0        1.22455894947052        43.4364318847656    9.51677758622866E-07           253929.203125                101263.5        288.073791503906       0.104249405014604     -0.0866574274640274                       0 
      -1.83491745872936                       0        1.22455894947052        43.4364318847656    9.69823054426441E-07           253929.203125                101263.5        288.073791503906       0.104249409468076     -0.0866574425444074                       0 
      -1.83241620810405                       0        1.22455894947052        43.4364318847656    9.87968350230015E-07           253929.203125                101263.5        288.073791503906       0.104249413921548     -0.0866574576247873                       0 
      -1.82991495747874                       0        1.22455894947052        43.4364318847656    1.00611364603359E-06           253929.203125                101263.5        288.073791503906        0.10424941837502     -0.0866574727051673                       0 
      -1.82741370685343                       0        1.22455894947052        43.4364318847656    1.02425894183716E-06           253929.203125                101263.5        288.073791503906       0.104249422828492     -0.0866574877855473                       0 
      -1.82491245622811                       0        1.22455894947052        43.4364318847656    1.04240423764074E-06           253929.203125                101263.5        288.073791503906       0.104249427281964     -0.0866575028659273                       0 
       -1.8224112056028                       0        1.22455894947052        43.4364318847656    1.06054953344431E-06           253929.203125                101263.5        288.073791503906       0.104249431735436     -0.0866575179463072                       0 
      -1.81990995497749                       0        1.22455894947052        43.4364318847656    1.07869482924789E-06           253929.203125                101263.5        288.073791503906       0.104249436188908     -0.0866575330266872                       0 
      -1.81740870435218                       0        1.22455894947052        43.4364318847656    1.09684012505146E-06           253929.203125                101263.5        288.073791503906        0.10424944064238     -0.0866575481070672                       0 
      -1.81490745372686                       0        1.22455894947052        43.4364318847656    1.11498542085503E-06           253929.203125                101263.5        288.073791503906       0.104249445095852     -0.0866575631874471                       0 
      -1.81240620310155                       0        1.22455894947052        43.4364318847656    1.13313071665861E-06           253929.203125                101263.5        288.073791503906       0.104249449549324     -0.0866575782678271                       0 
      -1.80990495247624                       0        1.22455894947052        43.4364318847656    1.15127601246218E-06           253929.203125                101263.5        288.073791503906       0.104249454002796     -0.0866575933482071                       0 
      -1.80740370185093                       0        1.22455894947052        43.4364318847656    1.16942130826576E-06           253929.203125                101263.5        288.073791503906       0.104249458456268     -0.0866576084285871                       0 
      -1.80490245122561                       0        1.22455894947052        43.4364318847656    1.18756660406933E-06           253929.203125                101263.5        288.073791503906        0.10424946290974      -0.086657623508967                       0 
       -1.8024012006003                       0        1.22455894947052        43.4364318847656     1.2057118998729E-06           253929.203125                101263.5        288.073791503906       0.104249467363212      -0.086657638589347                       0 
      -1.79989994997499                       0        1.22455894947052        43.4364318847656    1.22385719567648E-06           253929.203125                101263.5        288.073791503906       0.104249471816684      -0.086657653669727                       0 
      -1.79739869934967                       0        1.22455894947052        43.4364318847656    1.24200249148005E-06           253929.203125                101263.5        288.073791503906       0.104249476270156      -0.086657668750107                       0 
      -1.79489744872436                       0        1.22455894947052        43.4364318847656    1.26014778728363E-06           253929.203125                101263.5        288.073791503906       0.104249480723628     -0.0866576838304869                       0 
      -1.79239619809905                       0        1.22455894947052        43.4364318847656     1.2782930830872E-06           253929.203125                101263.5        288.073791503906         0.1042494851771     -0.0866576989108669                       0 
      -1.78989494747374                       0        1.22455894947052        43.4364318847656    1.29643837889077E-06           253929.203125                101263.5        288.073791503906       0.104249489630572     -0.0866577139912469                       0 
      -1.78739369684842                       0        1.22455894947052        43.4364318847656    1.29300773858917E-06           253929.203125                101263.5        288.073791503906       0.104249494081574     -0.0866577285464388                       0 
      -1.78489244622311                       0        1.22455894947052        43.4364318847656    1.26003441716004E-06           253929.203125                101263.5        288.073791503906       0.104249498529193     -0.0866577423825211                       0 
       -1.7823911955978                       0        1.22455894947052        43.4364321476942     1.2256966449656E-06           253929.203125                101263.5        288.073791503906       0.104249499738216     -0.0866577616643114                       0 
      -1.77988994497249                       0        1.22455894947052        43.4364325087812    1.19135259398887E-06           253929.203125                101263.5        288.073791503906       0.104249499738216     -0.0866577829659514                       0 
      -1.77738869434717                       0        1.22455894947052         43.436432870136    1.20886610996902E-06           253929.203125                101263.5        288.073791503906       0.104249499738216     -0.0866578029145276                       0 
      -1.77488744372186                       0        1.22455894947052        43.4364332314908    1.22637962594917E-06           253929.203125                101263.5        288.073791503906       0.104249499738216     -0.0866578228631038                       0 
      -1.77238619309655                       0        1.22455894947052        43.4364335928456    1.24389314192932E-06           253929.203125                101263.5        288.073791503906       0.104249499738216     -0.0866578428116799                       0 
      -1.76988494247124                       0        1.22455894947052        43.4364339542004    1.26140665790947E-06           253929.203125                101263.5        288.073791503906       0.104249499738216     -0.0866578627602561                       0 
      -1.76738369184592                       0        1.22455894947052        43.4364343155552    1.27892017388962E-06           253929.203125                101263.5        288.073791503906       0.104249499738216     -0.0866578827088322                       0 
      -1.76488244122061                       0        1.22455894947052          43.43643467691    1.29643368986977E-06           253929.203125                101263.5        288.073791503906       0.104249499738216     -0.0866579026574084                       0 
       -1.7623811905953                       0        1.22455894947052        43.4364350382648    1.31394720584992E-06           253929.203125                101263.5        288.073791503906       0.104249499738216     -0.0866579226059846                       0 
      -1.75987993996998                       0        1.22455894947052        43.4364353996196    1.33146072183007E-06           253929.203125                101263.5        288.073791503906       0.104249499738216     -0.0866579425545607                       0 
      -1.75737868934467                       0        1.22455894947052        43.4364357609744    1.34897423781022E-06           253929.203125                101263.5        288.073791503906       0.104249499738216     -0.0866579625031369                       0 
      -1.75487743871936                       0        1.22455894947052        43.4364361223292    1.36648775379037E-06           253929.203125                101263.5        288.073791503906       0.104249499738216     -0.0866579824517131                       0 
      -1.75237618809405                       0        1.22455894947052         43.436436483684    1.38400126977053E-06           253929.203125                101263.5        288.073791503906       0.104249499738216     -0.0866580024002892                       0 
      -1.74987493746873                       0        1.22455894947052        43.4364368450388    1.40151478575067E-06           253929.203125                101263.5        288.073791503906       0.104249499738216     -0.0866580223488654                       0 
      -1.74737368684342                       0        1.22455894947052        43.4364372063936    1.41902830173082E-06           253929.203125                101263.5        288.073791503906       0.104249499738216     -0.0866580422974415                       0 
      -1.74487243621811                       0        1.22455894947052        43.4364375677484    1.43654181771097E-06           253929.203125                101263.5        288.073791503906       0.104249499738216     -0.0866580622460177                       0 
       -1.7423711855928                       0        1.22455894947052        43.4364379291032    1.45405533369113E-06           253929.203125                101263.5        288.073791503906       0.104249499738216     -0.0866580821945939                       0 
      -1.73986993496748                       0        1.22455894947052         43.436438290458    1.47156884967127E-06           253929.203125                101263.5        288.073791503906       0.104249499738216       -0.08665810214317                       0 
      -1.73736868434217                       0        1.22455894947052        43.4364386518128    1.48908236565143E-06           253929.203125                101263.5        288.073791503906       0.104249499738216     -0.0866581220917462                       0 
      -1.73486743371686                       0        1.22455894947052        43.4364390131676    1.50659588163158E-06           253929.203125                101263.5        288.073791503906       0.104249499738216     -0.0866581420403224                       0 
      -1.73236618309155                       0        1.22455894947052        43.4364393745224    1.52410939761173E-06           253929.203125                101263.5        288.073791503906       0.104249499738216     -0.0866581619888985                       0 
      -1.72986493246623                       0        1.22455894947052        43.4364398535749    1.54288960749525E-06           253929.203125                101263.5        288.073791503906       0.104249499738216     -0.0866581855035838                       0 
      -1.72736368184092                       0        1.22455894947052        43.4364404067535    1.56246758331363E-06           253929.203125                101263.5        288.073791503906       0.104249499738216     -0.0866582112642106                       0 
      -1.72486243121561                       0        1.22455894947052        43.4364409599322    1.58204555913201E-06           253929.203125                101263.5        288.073791503906       0.104249499738216     -0.0866582370248374                       0 
       -1.7223611805903                       0        1.22455894947052        43.4364415131109     1.6016235349504E-06           253929.203125                101263.5        288.073791503906       0.104249499738216     -0.0866582627854642                       0 