VARIABLES = "x"
 "y"
 "Density"
 "Momentum_x"
 "Momentum_y"
 "Energy"
 "Pressure"
 "Temperature"
 "Mach"
 "C<sub>p</sub>"
 "Roe_Dissipation"
ZONE
DT=(DOUBLE,DOUBLE,DOUBLE,DOUBLE,DOUBLE,DOUBLE,DOUBLE,DOUBLE,DOUBLE,DOUBLE,DOUBLE)
                     -2                       0        1.22195494174957        51.1299209594727    6.12120220466729E-06           253475.296875           100962.203125        287.828704833984       0.123028002679348      -0.511454701423645                       0 
      -1.99749874937469                       0        1.22195494174957        51.1299216369717    1.68298601810905E-06           253475.296875           100962.203125        287.828704833984       0.123028004946152      -0.511454794481985                       0 
      -1.99499749874937                       0        1.22195494174957        51.1299223144708   -2.75523016845224E-06           253475.296875           100962.203125        287.828704833984       0.123028007212956      -0.511454887540325                       0 
      -1.99249624812406                       0        1.22195494174957        51.1299229919699   -7.19344635501313E-06           253475.296875           100962.203125        287.828704833984        0.12302800947976      -0.511454980598665                       0 
      -1.98999499749875                       0        1.22195494174957         51.129923669469    -1.1631662541574E-05           253475.296875           100962.203125        287.828704833984       0.123028011746565      -0.511455073657005                       0 
      -1.98749374687344                       0        1.22195494174957        51.1299243469681   -1.60698787281349E-05           253475.296875           100962.203125        287.828704833984       0.123028014013369      -0.511455166715345                       0 
      -1.98499249624812                       0        1.22195494174957        51.1299250244671   -2.05080949146962E-05           253475.296875           100962.203125        287.828704833984       0.123028016280173      -0.511455259773685                       0 
      -1.98249124562281                       0        1.22195494174957        51.1299257019662   -2.49463111012571E-05           253475.296875           100962.203125        287.828704833984       0.123028018546977      -0.511455352832025                       0 
       -1.9799899949975                       0        1.22195494174957        51.1299263794653    -2.9384527287818E-05           253475.296875           100962.203125        287.828704833984       0.123028020813781      -0.511455445890365                       0 
      -1.97748874437219                       0        1.22195494174957        51.1299270569644   -3.38227434743793E-05           253475.296875           100962.203125        287.828704833984       0.123028023080585      -0.511455538948705                       0 
      -1.97498749374687                       0        1.22195494174957        51.1299277344635   -3.82609596609401E-05           253475.296875           100962.203125        287.828704833984        0.12302802534739      -0.511455632007045                       0 
      -1.97248624312156                       0        1.22195494174957        51.1299284119625    -4.2699175847501E-05           253475.296875           100962.203125        287.828704833984       0.123028027614194      -0.511455725065385                       0 
      -1.96998499249625                       0        1.22195494174957        51.1299290894616   -4.71373920340623E-05           253475.296875           100962.203125        287.828704833984       0.123028029880998      -0.511455818123725                       0 
      -1.96748374187094                       0        1.22195494174957        51.1299297669607   -5.15756082206232E-05           253475.296875           100962.203125        287.828704833984       0.123028032147802      -0.511455911182065                       0 
      -1.96498249124562                       0        1.22195494174957        51.1299304444598   -5.60138244071841E-05           253475.296875           100962.203125        287.828704833984       0.123028034414606      -0.511456004240405                       0 
      -1.96248124062031                       0        1.22195494174957        51.1299311219588    -6.0452040593745E-05           253475.296875           100962.203125        287.828704833984        0.12302803668141      -0.511456097298745                       0 
        -1.959979989995                       0        1.22195494174957        51.1299317994579   -6.48902567803063E-05           253475.296875           100962.203125        287.828704833984       0.123028038948215      -0.511456190357085                       0 
      -1.95747873936968                       0        1.22195494174957         51.129932476957   -6.93284729668672E-05           253475.296875           100962.203125        287.828704833984       0.123028041215019      -0.511456283415425                       0 
      -1.95497748874437                       0        1.22195494174957        51.1299331544561    -7.3766689153428E-05           253475.296875           100962.203125        287.828704833984       0.123028043481823      -0.511456376473765                       0 
      -1.95247623811906                       0        1.22195494174957        51.1299348114163   -7.80913095589383E-05           253475.296875           100962.203125        287.828704833984       0.123028047550698      -0.511456491140524                       0 
      -1.94997498749375                       0        1.22195494174957        51.1299401097206   -8.19936147826655E-05           253475.296875           100962.203125        287.828704833984       0.123028058319135      -0.511456686140928                       0 
      -1.94747373686843                       0        1.22195494174957        51.1299454080249   -8.58959200063928E-05           253475.296875           100962.203125        287.828704833984       0.123028069087572      -0.511456881141332                       0 
      -1.94497248624312                       0        1.22195494174957        51.1299507063292   -8.97982252301204E-05           253475.296875           100962.203125        287.828704833984       0.123028079856009      -0.511457076141737                       0 
      -1.94247123561781                       0        1.22195494174957        51.1299560046334   -9.37005304538477E-05           253475.296875           100962.203125        287.828704833984       0.123028090624447      -0.511457271142141                       0 
       -1.9399699849925                       0        1.22195494174957        51.1299613029377    -9.7602835677575E-05           253475.296875           100962.203125        287.828704833984       0.123028101392884      -0.511457466142545                       0 
      -1.93746873436718                       0        1.22195494174957         51.129966601242   -0.000101505140901302           253475.296875           100962.203125        287.828704833984       0.123028112161321      -0.511457661142949                       0 
      -1.93496748374187                       0        1.22195494174957        51.1299718995462    -0.00010540744612503           253475.296875           100962.203125        287.828704833984       0.123028122929758      -0.511457856143354                       0 
      -1.93246623311656                       0        1.22195494174957        51.1299771978505   -0.000109309751348757           253475.296875           100962.203125        287.828704833984       0.123028133698195      -0.511458051143758                       0 
      -1.92996498249125                       0        1.22195494174957        51.1299824961548   -0.000113212056572484           253475.296875           100962.203125        287.828704833984       0.123028144466632      -0.511458246144162                       0 
      -1.92746373186593                       0        1.22195494174957        51.1299877944591   -0.000117114361796212           253475.296875           100962.203125        287.828704833984       0.123028155235069      -0.511458441144566                       0 
      -1.92496248124062                       0        1.22195494174957        51.1299930927634   -0.000121016667019939           253475.296875           100962.203125        287.828704833984       0.123028166003506      -0.511458636144971                       0 
      -1.92246123061531                       0        1.22195494174957        51.1299983910676   -0.000124918972243667           253475.296875           100962.203125        287.828704833984       0.123028176771943      -0.511458831145375                       0 
      -1.91995997998999                       0        1.22195494174957        51.1300036893719   -0.000128821277467394           253475.296875           100962.203125        287.828704833984        0.12302818754038      -0.511459026145779                       0 
      -1.91745872936468                       0        1.22195494174957        51.1300089876762   -0.000132723582691122           253475.296875           100962.203125        287.828704833984       0.123028198308818      -0.511459221146184                       0 
      -1.91495747873937                       0        1.22195494174957        51.1300142859804   -0.000136625887914849           253475.296875           100962.203125        287.828704833984       0.123028209077255      -0.511459416146588                       0 
      -1.91245622811406                       0        1.22195494174957        51.1300195842847   -0.000140528193138576           253475.296875           100962.203125        287.828704833984       0.123028219845692      -0.511459611146992                       0 
      -1.90995497748874                       0        1.22195494174957         51.130024882589   -0.000144430498362304           253475.296875           100962.203125        287.828704833984       0.123028230614129      -0.511459806147396                       0 
      -1.90745372686343                       0        1.22195494174957        51.1300301808933   -0.000148332803586031           253475.296875           100962.203125        287.828704833984       0.123028241382566      -0.511460001147801                       0 
      -1.90495247623812                       0        1.22195494174957        51.1300354791976   -0.000152235108809758           253475.296875           100962.203125        287.828704833984       0.123028252151003      -0.511460196148205                       0 
      -1.90245122561281                       0        1.22195494174957        51.1300407775018   -0.000156137414033486           253475.296875           100962.203125        287.828704833984        0.12302826291944      -0.511460391148609                       0 
      -1.89994997498749                       0        1.22195494174957        51.1300460758061   -0.000160039719257213           253475.296875           100962.203125        287.828704833984       0.123028273687877      -0.511460586149013                       0 
      -1.89744872436218                       0        1.22195494174957        51.1300513741104   -0.000163942024480941           253475.296875           100962.203125        287.828704833984       0.123028284456314      -0.511460781149418                       0 
      -1.89494747373687                       0        1.22195494174957         51.130055744453   -0.000169355842161859           253475.296875           100962.203125        287.828704833984       0.123028295175547      -0.511460926059986                       0 
      -1.89244622311156                       0        1.22195494174957        51.1300644974344   -0.000175101761989936           253475.296875           100962.203125        287.828704833984       0.123028319083825      -0.511461520988514                       0 
      -1.88994497248624                       0        1.22195494174957        51.1300725819612   -0.000179203447209935           253475.296875           100962.203125        287.828704833984       0.123028341161146      -0.511462071504774                       0 
      -1.88744372186093                       0        1.22195494174957        51.1300806664881   -0.000183305132429935           253475.296875           100962.203125        287.828704833984       0.123028363238468      -0.511462622021033                       0 
      -1.88494247123562                       0        1.22195494174957         51.130088751015   -0.000187406817649934           253475.296875           100962.203125        287.828704833984        0.12302838531579      -0.511463172537292                       0 
      -1.88244122061031                       0        1.22195494174957        51.1300968355419   -0.000191508502869933           253475.296875           100962.203125        287.828704833984       0.123028407393111      -0.511463723053552                       0 
      -1.87993996998499                       0        1.22195494174957        51.1301049200688   -0.000195610188089933           253475.296875           100962.203125        287.828704833984       0.123028429470433      -0.511464273569811                       0 
      -1.87743871935968                       0        1.22195494174957        51.1301130045956   -0.000199711873309932           253475.296875           100962.203125        287.828704833984       0.123028451547754      -0.511464824086071                       0 
      -1.87493746873437                       0        1.22195494174957        51.1301210891225   -0.000203813558529931           253475.296875           100962.203125        287.828704833984       0.123028473625076       -0.51146537460233                       0 
      -1.87243621810905                       0        1.22195494174957        51.1301291736494    -0.00020791524374993           253475.296875           100962.203125        287.828704833984       0.123028495702398      -0.511465925118589                       0 
      -1.86993496748374                       0        1.22195494174957        51.1301372581763    -0.00021201692896993           253475.296875           100962.203125        287.828704833984       0.123028517779719      -0.511466475634849                       0 
      -1.86743371685843                       0        1.22195494174957        51.1301453427031   -0.000216118614189929           253475.296875           100962.203125        287.828704833984       0.123028539857041      -0.511467026151108                       0 
      -1.86493246623312                       0        1.22195494174957          51.13015342723   -0.000220220299409928           253475.296875           100962.203125        287.828704833984       0.123028561934362      -0.511467576667367                       0 
       -1.8624312156078                       0        1.22195494174957        51.1301615117569   -0.000224321984629928           253475.296875           100962.203125        287.828704833984       0.123028584011684      -0.511468127183627                       0 
      -1.85992996498249                       0        1.22195494174957        51.1301695962838   -0.000228423669849927           253475.296875           100962.203125        287.828704833984       0.123028606089006      -0.511468677699886                       0 
      -1.85742871435718                       0        1.22195494174957        51.1301776808106   -0.000232525355069926           253475.296875           100962.203125        287.828704833984       0.123028628166327      -0.511469228216146                       0 
      -1.85492746373187                       0        1.22195494174957        51.1301857653375   -0.000236627040289925           253475.296875           100962.203125        287.828704833984       0.123028650243649      -0.511469778732405                       0 
      -1.85242621310655                       0        1.22195494174957        51.1301938498644   -0.000240728725509925           253475.296875           100962.203125        287.828704833984        0.12302867232097      -0.511470329248664                       0 
      -1.84992496248124                       0        1.22195494174957        51.1302019343913   -0.000244830410729924           253475.296875           100962.203125        287.828704833984       0.123028694398292      -0.511470879764924                       0 
      -1.84742371185593                       0        1.22195494174957        51.1302100189182   -0.000248932095949923           253475.296875           100962.203125        287.828704833984       0.123028716475614      -0.511471430281183                       0 
      -1.84492246123062                       0        1.22195494174957         51.130218103445   -0.000253033781169923           253475.296875           100962.203125        287.828704833984       0.123028738552935      -0.511471980797442                       0 
       -1.8424212106053                       0        1.22195494174957        51.1302261879719   -0.000257135466389922           253475.296875           100962.203125        287.828704833984       0.123028760630257      -0.511472531313702                       0 
      -1.83991995997999                       0        1.22195494174957        51.1302342724988   -0.000261237151609921           253475.296875           100962.203125        287.828704833984       0.123028782707578      -0.511473081829961                       0 
      -1.83741870935468                       0        1.22195494174957        51.1302445958417   -0.000265463979839873           253475.296875           100962.203125        287.828704833984       0.123028809592111      -0.511473716563876                       0 
      -1.83491745872936                       0        1.22195494174957        51.1302573527246   -0.000269826835557477           253475.296875           100962.203125        287.828704833984       0.123028841701968      -0.511474442840389                       0 
      -1.83241620810405                       0        1.22195494174957        51.1302701096075   -0.000274189691275081           253475.296875           100962.203125        287.828704833984       0.123028873811825      -0.511475169116901                       0 
      -1.82991495747874                       0        1.22195494174957        51.1302828664904   -0.000278552546992685           253475.296875           100962.203125        287.828704833984       0.123028905921682      -0.511475895393413                       0 
      -1.82741370685343                       0        1.22195494174957        51.1302956233733    -0.00028291540271029           253475.296875           100962.203125        287.828704833984       0.123028938031539      -0.511476621669925                       0 
      -1.82491245622811                       0        1.22195494174957        51.1303083802562   -0.000287278258427894           253475.296875           100962.203125        287.828704833984       0.123028970141396      -0.511477347946437                       0 
       -1.8224112056028                       0        1.22195494174957        51.1303211371391   -0.000291641114145498           253475.296875           100962.203125        287.828704833984       0.123029002251253      -0.511478074222949                       0 
      -1.81990995497749                       0        1.22195494174957         51.130333894022   -0.000296003969863102           253475.296875           100962.203125        287.828704833984        0.12302903436111      -0.511478800499461                       0 
      -1.81740870435218                       0        1.22195494174957        51.1303466509049   -0.000300366825580706           253475.296875           100962.203125        287.828704833984       0.123029066470968      -0.511479526775973                       0 
      -1.81490745372686                       0        1.22195494174957        51.1303594077878    -0.00030472968129831           253475.296875           100962.203125        287.828704833984       0.123029098580825      -0.511480253052485                       0 
      -1.81240620310155                       0        1.22195494174957        51.1303721646707   -0.000309092537015914           253475.296875           100962.203125        287.828704833984       0.123029130690682      -0.511480979328998                       0 
      -1.80990495247624                       0        1.22195494174957        51.1303849215536   -0.000313455392733519           253475.296875           100962.203125        287.828704833984       0.123029162800539       -0.51148170560551                       0 
      -1.80740370185093                       0        1.22195494174957        51.1303976784365   -0.000317818248451123           253475.296875           100962.203125        287.828704833984       0.123029194910396      -0.511482431882022                       0 
      -1.80490245122561                       0        1.22195494174957        51.1304104353194   -0.000322181104168727           253475.296875           100962.203125        287.828704833984       0.123029227020253      -0.511483158158534                       0 
       -1.8024012006003                       0        1.22195494174957        51.1304231922023   -0.000326543959886331           253475.296875           100962.203125        287.828704833984        0.12302925913011      -0.511483884435046                       0 
      -1.79989994997499                       0        1.22195494174957        51.1304359490852   -0.000330906815603935           253475.296875           100962.203125        287.828704833984       0.123029291239967      -0.511484610711558                       0 
      -1.79739869934967                       0        1.22195494174957        51.1304487059681   -0.000335269671321539           253475.296875           100962.203125        287.828704833984       0.123029323349824       -0.51148533698807                       0 
      -1.79489744872436                       0        1.22195494174957         51.130461462851   -0.000339632527039143           253475.296875           100962.203125        287.828704833984       0.123029355459681      -0.511486063264582                       0 
      -1.79239619809905                       0        1.22195494174957        51.1304742197338   -0.000343995382756748           253475.296875           100962.203125        287.828704833984       0.123029387569538      -0.511486789541094                       0 
      -1.78989494747374                       0        1.22195494174957        51.1304869766167   -0.000348358238474352           253475.296875           100962.203125        287.828704833984       0.123029419679395      -0.511487515817607                       0 
      -1.78739369684842                       0        1.22195494174957        51.1304992320955   -0.000353548217033981           253475.296875           100962.203125        287.828704833984       0.123029449697661      -0.511488210216883                       0 
      -1.78489244622311                       0        1.22195494174957        51.1305108010307   -0.000359870727051624           253475.296875           100962.203125        287.828704833984       0.123029476852032      -0.511488860968503                       0 
       -1.7823911955978                       0        1.22195494174957        51.1305257886435   -0.000366578367246537        253475.293644133           100962.203125        287.828704833984       0.123029511559464        -0.5114897627863                       0 
      -1.77988994497249                       0        1.22195494174957        51.1305420441663   -0.000373408507478248        253475.289207097           100962.203125        287.828704833984       0.123029549065387      -0.511490757809808                       0 
      -1.77738869434717                       0        1.22195494174957        51.1305574399045   -0.000378045608689006        253475.284766769           100962.203125        287.828704833984         0.1230295843863      -0.511491699067109                       0 
      -1.77488744372186                       0        1.22195494174957        51.1305728356427   -0.000382682709899764        253475.280326441           100962.203125        287.828704833984       0.123029619707214      -0.511492640324411                       0 
      -1.77238619309655                       0        1.22195494174957        51.1305882313809   -0.000387319811110523        253475.275886113           100962.203125        287.828704833984       0.123029655028127      -0.511493581581712                       0 
      -1.76988494247124                       0        1.22195494174957        51.1306036271191   -0.000391956912321281        253475.271445786           100962.203125        287.828704833984        0.12302969034904      -0.511494522839014                       0 
      -1.76738369184592                       0        1.22195494174957        51.1306190228573   -0.000396594013532039        253475.267005458           100962.203125        287.828704833984       0.123029725669954      -0.511495464096315                       0 
      -1.76488244122061                       0        1.22195494174957        51.1306344185954   -0.000401231114742797         253475.26256513           100962.203125        287.828704833984       0.123029760990867      -0.511496405353617                       0 
       -1.7623811905953                       0        1.22195494174957        51.1306498143336   -0.000405868215953555        253475.258124802           100962.203125        287.828704833984       0.123029796311781      -0.511497346610918                       0 
      -1.75987993996998                       0        1.22195494174957        51.1306652100718   -0.000410505317164313        253475.253684475           100962.203125        287.828704833984       0.123029831632694      -0.511498287868219                       0 
      -1.75737868934467                       0        1.22195494174957          51.13068060581   -0.000415142418375071        253475.249244147           100962.203125        287.828704833984       0.123029866953607      -0.511499229125521                       0 
      -1.75487743871936                       0        1.22195494174957        51.1306960015482   -0.000419779519585829        253475.244803819           100962.203125        287.828704833984       0.123029902274521      -0.511500170382822                       0 
      -1.75237618809405                       0        1.22195494174957        51.1307113972864   -0.000424416620796588        253475.240363491           100962.203125        287.828704833984       0.123029937595434      -0.511501111640124                       0 
      -1.74987493746873                       0        1.22195494174957        51.1307267930245   -0.000429053722007346        253475.235923163           100962.203125        287.828704833984       0.123029972916348      -0.511502052897425                       0 
      -1.74737368684342                       0        1.22195494174957        51.1307421887627   -0.000433690823218104        253475.231482836           100962.203125        287.828704833984       0.123030008237261      -0.511502994154727                       0 
      -1.74487243621811                       0        1.22195494174957        51.1307575845009   -0.000438327924428862        253475.227042508           100962.203125        287.828704833984       0.123030043558174      -0.511503935412028                       0 
       -1.7423711855928                       0        1.22195494174957        51.1307729802391    -0.00044296502563962         253475.22260218           100962.203125        287.828704833984       0.123030078879088       -0.51150487666933                       0 
      -1.73986993496748                       0        1.22195494174957        51.1307883759773   -0.000447602126850378        253475.218161852           100962.203125        287.828704833984       0.123030114200001      -0.511505817926631                       0 
      -1.73736868434217                       0        1.22195494174957        51.1308037717155   -0.000452239228061136        253475.213721524           100962.203125        287.828704833984       0.123030149520914      -0.511506759183933                       0 
      -1.73486743371686                       0        1.22195494174957        51.1308191674536   -0.000456876329271894        253475.209281197           100962.203125        287.828704833984       0.123030184841828      -0.511507700441234                       0 
      -1.73236618309155                       0        1.22195494174957        51.1308345631918   -0.000461513430482653        253475.204840869           100962.203125        287.828704833984       0.123030220162741      -0.511508641698536                       0 
      -1.72986493246623                       0        1.22195494174957         51.130853095729   -0.000466442593507504           253475.203125           100962.203125        287.828702118667       0.123030264991834      -0.511509755756324                       0 
      -1.72736368184092                       0        1.22195494174957        51.1308736038274   -0.000471555697550417           253475.203125           100962.203125        287.828697693237       0.123030315809194      -0.511510978644148                       0 
      -1.72486243121561                       0        1.22195494174957        51.1308941119257    -0.00047666880159333           253475.203125           100962.203125        287.828693267808       0.123030366626554      -0.511512201531972                       0 
       -1.7223611805903                       0        1.22195494174957        51.1309146200241   -0.000481781905636243           253475.203125           100962.203125        287.828688842378       0.123030417443914      -0.511513424419796                       0 