VARIABLES = "x"
 "y"
 "Density"
 "Momentum_x"
 "Momentum_y"
 "Energy"
 "Pressure"
 "Temperature"
 "Mach"
 "C<sub>p</sub>"
 "Roe_Dissipation"
ZONE
DT=(DOUBLE,DOUBLE,DOUBLE,DOUBLE,DOUBLE,DOUBLE,DOUBLE,DOUBLE,DOUBLE,DOUBLE,DOUBLE)
                     -2                       0        1.22417795658112         44.648380279541    1.74485603565694E-06           253862.796875          101219.3984375        288.037994384766         0.1071982011199       -0.14881819486618                       0 
      -1.99749874937469                       0        1.22417795658112         44.648380471054    5.30331828725611E-07           253862.796875          101219.3984375        288.037994384766         0.1071982011199      -0.148818213014881                       0 
      -1.99499749874937                       0        1.22417795658112         44.648380662567   -6.84192378206513E-07           253862.796875          101219.3984375        288.037994384766         0.1071982011199      -0.148818231163581                       0 
      -1.99249624812406                       0        1.22417795658112          44.64838085408   -1.89871658513853E-06           253862.796875          101219.3984375        288.037994384766         0.1071982011199      -0.148818249312282                       0 
      -1.98999499749875                       0        1.22417795658112        44.6483810455931   -3.11324079207055E-06           253862.796875          101219.3984375        288.037994384766         0.1071982011199      -0.148818267460982                       0 
      -1.98749374687344                       0        1.22417795658112        44.6483812371061   -4.32776499900256E-06           253862.796875          101219.3984375        288.037994384766         0.1071982011199      -0.148818285609683                       0 
      -1.98499249624812                       0        1.22417795658112        44.6483814286191   -5.54228920593469E-06           253862.796875          101219.3984375        288.037994384766         0.1071982011199      -0.148818303758383                       0 
      -1.98249124562281                       0        1.22417795658112        44.6483816201321    -6.7568134128667E-06           253862.796875          101219.3984375        288.037994384766         0.1071982011199      -0.148818321907083                       0 
       -1.9799899949975                       0        1.22417795658112        44.6483818116451   -7.97133761979872E-06           253862.796875          101219.3984375        288.037994384766         0.1071982011199      -0.148818340055784                       0 
      -1.97748874437219                       0        1.22417795658112        44.6483820031581   -9.18586182673084E-06           253862.796875          101219.3984375        288.037994384766         0.1071982011199      -0.148818358204484                       0 
      -1.97498749374687                       0        1.22417795658112        44.6483821946711   -1.04003860336629E-05           253862.796875          101219.3984375        288.037994384766         0.1071982011199      -0.148818376353185                       0 
      -1.97248624312156                       0        1.22417795658112        44.6483823861841   -1.16149102405949E-05           253862.796875          101219.3984375        288.037994384766         0.1071982011199      -0.148818394501885                       0 
      -1.96998499249625                       0        1.22417795658112        44.6483825776971    -1.2829434447527E-05           253862.796875          101219.3984375        288.037994384766         0.1071982011199      -0.148818412650586                       0 
      -1.96748374187094                       0        1.22417795658112        44.6483827692102    -1.4043958654459E-05           253862.796875          101219.3984375        288.037994384766         0.1071982011199      -0.148818430799286                       0 
      -1.96498249124562                       0        1.22417795658112        44.6483829607232    -1.5258482861391E-05           253862.796875          101219.3984375        288.037994384766         0.1071982011199      -0.148818448947986                       0 
      -1.96248124062031                       0        1.22417795658112        44.6483831522362    -1.6473007068323E-05           253862.796875          101219.3984375        288.037994384766         0.1071982011199      -0.148818467096687                       0 
        -1.959979989995                       0        1.22417795658112        44.6483833437492   -1.76875312752552E-05           253862.796875          101219.3984375        288.037994384766         0.1071982011199      -0.148818485245387                       0 
      -1.95747873936968                       0        1.22417795658112        44.6483835352622   -1.89020554821872E-05           253862.796875          101219.3984375        288.037994384766         0.1071982011199      -0.148818503394088                       0 
      -1.95497748874437                       0        1.22417795658112        44.6483837267752   -2.01165796891192E-05           253862.796875          101219.3984375        288.037994384766         0.1071982011199      -0.148818521542788                       0 
      -1.95247623811906                       0        1.22417795658112        44.6483841880597   -2.12988564462588E-05           253862.796875          101219.3984375        288.037994384766       0.107198202004324      -0.148818544487872                       0 
      -1.94997498749375                       0        1.22417795658112        44.6483856522742   -2.23612468176966E-05           253862.796875          101219.3984375        288.037994384766       0.107198206176771      -0.148818585264477                       0 
      -1.94747373686843                       0        1.22417795658112        44.6483871164886   -2.34236371891344E-05           253862.796875          101219.3984375        288.037994384766       0.107198210349218      -0.148818626041083                       0 
      -1.94497248624312                       0        1.22417795658112        44.6483885807031   -2.44860275605723E-05           253862.796875          101219.3984375        288.037994384766       0.107198214521665      -0.148818666817688                       0 
      -1.94247123561781                       0        1.22417795658112        44.6483900449175   -2.55484179320101E-05           253862.796875          101219.3984375        288.037994384766       0.107198218694112      -0.148818707594293                       0 
       -1.9399699849925                       0        1.22417795658112         44.648391509132   -2.66108083034479E-05           253862.796875          101219.3984375        288.037994384766       0.107198222866559      -0.148818748370898                       0 
      -1.93746873436718                       0        1.22417795658112        44.6483929733464   -2.76731986748857E-05           253862.796875          101219.3984375        288.037994384766       0.107198227039006      -0.148818789147504                       0 
      -1.93496748374187                       0        1.22417795658112        44.6483944375609   -2.87355890463236E-05           253862.796875          101219.3984375        288.037994384766       0.107198231211453      -0.148818829924109                       0 
      -1.93246623311656                       0        1.22417795658112        44.6483959017753   -2.97979794177614E-05           253862.796875          101219.3984375        288.037994384766         0.1071982353839      -0.148818870700714                       0 
      -1.92996498249125                       0        1.22417795658112        44.6483973659898   -3.08603697891992E-05           253862.796875          101219.3984375        288.037994384766       0.107198239556347      -0.148818911477319                       0 
      -1.92746373186593                       0        1.22417795658112        44.6483988302042   -3.19227601606371E-05           253862.796875          101219.3984375        288.037994384766       0.107198243728794      -0.148818952253925                       0 
      -1.92496248124062                       0        1.22417795658112        44.6484002944187   -3.29851505320749E-05           253862.796875          101219.3984375        288.037994384766       0.107198247901241       -0.14881899303053                       0 
      -1.92246123061531                       0        1.22417795658112        44.6484017586331   -3.40475409035128E-05           253862.796875          101219.3984375        288.037994384766       0.107198252073688      -0.148819033807135                       0 
      -1.91995997998999                       0        1.22417795658112        44.6484032228476   -3.51099312749507E-05           253862.796875          101219.3984375        288.037994384766       0.107198256246135       -0.14881907458374                       0 
      -1.91745872936468                       0        1.22417795658112         44.648404687062   -3.61723216463885E-05           253862.796875          101219.3984375        288.037994384766       0.107198260418583      -0.148819115360346                       0 
      -1.91495747873937                       0        1.22417795658112        44.6484061512765   -3.72347120178263E-05           253862.796875          101219.3984375        288.037994384766        0.10719826459103      -0.148819156136951                       0 
      -1.91245622811406                       0        1.22417795658112        44.6484076154909   -3.82971023892641E-05           253862.796875          101219.3984375        288.037994384766       0.107198268763477      -0.148819196913556                       0 
      -1.90995497748874                       0        1.22417795658112        44.6484090797054    -3.9359492760702E-05           253862.796875          101219.3984375        288.037994384766       0.107198272935924      -0.148819237690161                       0 
      -1.90745372686343                       0        1.22417795658112        44.6484105439198   -4.04218831321398E-05           253862.796875          101219.3984375        288.037994384766       0.107198277108371      -0.148819278466767                       0 
      -1.90495247623812                       0        1.22417795658112        44.6484120081343   -4.14842735035776E-05           253862.796875          101219.3984375        288.037994384766       0.107198281280818      -0.148819319243372                       0 
      -1.90245122561281                       0        1.22417795658112        44.6484134723487   -4.25466638750155E-05           253862.796875          101219.3984375        288.037994384766       0.107198285453265      -0.148819360019977                       0 
      -1.89994997498749                       0        1.22417795658112        44.6484149365632   -4.36090542464533E-05           253862.796875          101219.3984375        288.037994384766       0.107198289625712      -0.148819400796582                       0 
      -1.89744872436218                       0        1.22417795658112        44.6484164007777   -4.46714446178911E-05           253862.796875          101219.3984375        288.037994384766       0.107198293798159      -0.148819441573188                       0 
      -1.89494747373687                       0        1.22417795658112        44.6484177193514   -4.61248720960906E-05           253862.796875          101219.3984375        288.037994384766       0.107198296186442      -0.148819470945735                       0 
      -1.89244622311156                       0        1.22417795658112        44.6484198701942   -4.76675383069567E-05           253862.796875          101219.3984375        288.037994384766        0.10719830258608      -0.148819607324978                       0 
      -1.88994497248624                       0        1.22417795658112        44.6484218885659   -4.87839954626689E-05           253862.796875          101219.3984375        288.037994384766       0.107198307218776      -0.148819735041212                       0 
      -1.88744372186093                       0        1.22417795658112        44.6484239069376    -4.9900452618381E-05           253862.796875          101219.3984375        288.037994384766       0.107198311851472      -0.148819862757447                       0 
      -1.88494247123562                       0        1.22417795658112        44.6484259253094   -5.10169097740933E-05           253862.796875          101219.3984375        288.037994384766       0.107198316484168      -0.148819990473681                       0 
      -1.88244122061031                       0        1.22417795658112        44.6484279436811   -5.21333669298055E-05           253862.796875          101219.3984375        288.037994384766       0.107198321116863      -0.148820118189915                       0 
      -1.87993996998499                       0        1.22417795658112        44.6484299620529   -5.32498240855177E-05           253862.796875          101219.3984375        288.037994384766       0.107198325749559       -0.14882024590615                       0 
      -1.87743871935968                       0        1.22417795658112        44.6484319804246     -5.436628124123E-05           253862.796875          101219.3984375        288.037994384766       0.107198330382255      -0.148820373622384                       0 
      -1.87493746873437                       0        1.22417795658112        44.6484339987963   -5.54827383969422E-05           253862.796875          101219.3984375        288.037994384766       0.107198335014951      -0.148820501338619                       0 
      -1.87243621810905                       0        1.22417795658112        44.6484360171681   -5.65991955526544E-05           253862.796875          101219.3984375        288.037994384766       0.107198339647647      -0.148820629054853                       0 
      -1.86993496748374                       0        1.22417795658112        44.6484380355398   -5.77156527083667E-05           253862.796875          101219.3984375        288.037994384766       0.107198344280343      -0.148820756771088                       0 
      -1.86743371685843                       0        1.22417795658112        44.6484400539115   -5.88321098640788E-05           253862.796875          101219.3984375        288.037994384766       0.107198348913038      -0.148820884487322                       0 
      -1.86493246623312                       0        1.22417795658112        44.6484420722833    -5.9948567019791E-05           253862.796875          101219.3984375        288.037994384766       0.107198353545734      -0.148821012203556                       0 
       -1.8624312156078                       0        1.22417795658112         44.648444090655   -6.10650241755032E-05           253862.796875          101219.3984375        288.037994384766        0.10719835817843      -0.148821139919791                       0 
      -1.85992996498249                       0        1.22417795658112        44.6484461090267   -6.21814813312155E-05           253862.796875          101219.3984375        288.037994384766       0.107198362811126      -0.148821267636025                       0 
      -1.85742871435718                       0        1.22417795658112        44.6484481273985   -6.32979384869277E-05           253862.796875          101219.3984375        288.037994384766       0.107198367443822       -0.14882139535226                       0 
      -1.85492746373187                       0        1.22417795658112        44.6484501457702   -6.44143956426399E-05           253862.796875          101219.3984375        288.037994384766       0.107198372076517      -0.148821523068494                       0 
      -1.85242621310655                       0        1.22417795658112        44.6484521641419   -6.55308527983522E-05           253862.796875          101219.3984375        288.037994384766       0.107198376709213      -0.148821650784729                       0 
      -1.84992496248124                       0        1.22417795658112        44.6484541825137   -6.66473099540644E-05           253862.796875          101219.3984375        288.037994384766       0.107198381341909      -0.148821778500963                       0 
      -1.84742371185593                       0        1.22417795658112        44.6484562008854   -6.77637671097766E-05           253862.796875          101219.3984375        288.037994384766       0.107198385974605      -0.148821906217198                       0 
      -1.84492246123062                       0        1.22417795658112        44.6484582192571   -6.88802242654888E-05           253862.796875          101219.3984375        288.037994384766       0.107198390607301      -0.148822033933432                       0 
       -1.8424212106053                       0        1.22417795658112        44.6484602376289   -6.99966814212011E-05           253862.796875          101219.3984375        288.037994384766       0.107198395239997      -0.148822161649666                       0 
      -1.83991995997999                       0        1.22417795658112        44.6484622560006   -7.11131385769132E-05           253862.796875          101219.3984375        288.037994384766       0.107198399872692      -0.148822289365901                       0 
      -1.83741870935468                       0        1.22417795658112        44.6484649811716   -7.22642885728184E-05           253862.796875          101219.3984375        288.037994384766       0.107198406717595      -0.148822432715968                       0 
      -1.83491745872936                       0        1.22417795658112        44.6484684746168   -7.34531488642711E-05           253862.796875          101219.3984375        288.037994384766       0.107198415967114       -0.14882259305964                       0 
      -1.83241620810405                       0        1.22417795658112        44.6484719680619   -7.46420091557236E-05           253862.796875          101219.3984375        288.037994384766       0.107198425216633      -0.148822753403313                       0 
      -1.82991495747874                       0        1.22417795658112         44.648475461507   -7.58308694471762E-05           253862.796875          101219.3984375        288.037994384766       0.107198434466151      -0.148822913746985                       0 
      -1.82741370685343                       0        1.22417795658112        44.6484789549521   -7.70197297386288E-05           253862.796875          101219.3984375        288.037994384766        0.10719844371567      -0.148823074090658                       0 
      -1.82491245622811                       0        1.22417795658112        44.6484824483972   -7.82085900300814E-05           253862.796875          101219.3984375        288.037994384766       0.107198452965189       -0.14882323443433                       0 
       -1.8224112056028                       0        1.22417795658112        44.6484859418424   -7.93974503215339E-05           253862.796875          101219.3984375        288.037994384766       0.107198462214708      -0.148823394778003                       0 
      -1.81990995497749                       0        1.22417795658112        44.6484894352875   -8.05863106129866E-05           253862.796875          101219.3984375        288.037994384766       0.107198471464226      -0.148823555121675                       0 
      -1.81740870435218                       0        1.22417795658112        44.6484929287326   -8.17751709044391E-05           253862.796875          101219.3984375        288.037994384766       0.107198480713745      -0.148823715465348                       0 
      -1.81490745372686                       0        1.22417795658112        44.6484964221777   -8.29640311958917E-05           253862.796875          101219.3984375        288.037994384766       0.107198489963264       -0.14882387580902                       0 
      -1.81240620310155                       0        1.22417795658112        44.6484999156228   -8.41528914873442E-05           253862.796875          101219.3984375        288.037994384766       0.107198499212783      -0.148824036152693                       0 
      -1.80990495247624                       0        1.22417795658112         44.648503409068   -8.53417517787969E-05           253862.796875          101219.3984375        288.037994384766       0.107198508462302      -0.148824196496365                       0 
      -1.80740370185093                       0        1.22417795658112        44.6485069025131   -8.65306120702494E-05           253862.796875          101219.3984375        288.037994384766        0.10719851771182      -0.148824356840038                       0 
      -1.80490245122561                       0        1.22417795658112        44.6485103959582    -8.7719472361702E-05           253862.796875          101219.3984375        288.037994384766       0.107198526961339       -0.14882451718371                       0 
       -1.8024012006003                       0        1.22417795658112        44.6485138894033   -8.89083326531546E-05           253862.796875          101219.3984375        288.037994384766       0.107198536210858      -0.148824677527383                       0 
      -1.79989994997499                       0        1.22417795658112        44.6485173828484   -9.00971929446071E-05           253862.796875          101219.3984375        288.037994384766       0.107198545460377      -0.148824837871055                       0 
      -1.79739869934967                       0        1.22417795658112        44.6485208762936   -9.12860532360597E-05           253862.796875          101219.3984375        288.037994384766       0.107198554709895      -0.148824998214728                       0 
      -1.79489744872436                       0        1.22417795658112        44.6485243697387   -9.24749135275123E-05           253862.796875          101219.3984375        288.037994384766       0.107198563959414        -0.1488251585584                       0 
      -1.79239619809905                       0        1.22417795658112        44.6485278631838   -9.36637738189649E-05           253862.796875          101219.3984375        288.037994384766       0.107198573208933      -0.148825318902073                       0 
      -1.78989494747374                       0        1.22417795658112        44.6485313566289   -9.48526341104174E-05           253862.796875          101219.3984375        288.037994384766       0.107198582458452      -0.148825479245745                       0 
      -1.78739369684842                       0        1.22417795658112        44.6485347338652   -9.62550034153409E-05           253862.796875          101219.3984375        288.037994384766       0.107198590668431      -0.148825632519282                       0 
      -1.78489244622311                       0        1.22417795658112        44.6485379519834   -9.79497182607805E-05           253862.796875          101219.3984375        288.037994384766       0.107198597455027      -0.148825776112091                       0 
       -1.7823911955978                       0        1.22417795658112        44.6485419007498   -9.97481671396416E-05           253862.796875          101219.3984375        288.037994384766       0.107198604396799      -0.148825981527243                       0 
      -1.77988994497249                       0        1.22417795658112        44.6485461197719   -0.000101579825892261           253862.796875          101219.3984375        288.037994384766       0.107198611394925      -0.148826209891149                       0 
      -1.77738869434717                       0        1.22417795658112        44.6485500802803   -0.000102842928515248           253862.796875          101219.3984375        288.037994384766       0.107198618230508      -0.148826424794341                       0 
      -1.77488744372186                       0        1.22417795658112        44.6485540407888   -0.000104106031138236           253862.796875          101219.3984375        288.037994384766        0.10719862506609      -0.148826639697532                       0 
      -1.77238619309655                       0        1.22417795658112        44.6485580012972   -0.000105369133761223           253862.796875          101219.3984375        288.037994384766       0.107198631901673      -0.148826854600724                       0 
      -1.76988494247124                       0        1.22417795658112        44.6485619618057   -0.000106632236384211           253862.796875          101219.3984375        288.037994384766       0.107198638737256      -0.148827069503915                       0 
      -1.76738369184592                       0        1.22417795658112        44.6485659223141   -0.000107895339007198           253862.796875          101219.3984375        288.037994384766       0.107198645572839      -0.148827284407107                       0 
      -1.76488244122061                       0        1.22417795658112        44.6485698828226   -0.000109158441630186           253862.796875          101219.3984375        288.037994384766       0.107198652408422      -0.148827499310298                       0 
       -1.7623811905953                       0        1.22417795658112        44.6485738433311   -0.000110421544253173           253862.796875          101219.3984375        288.037994384766       0.107198659244005       -0.14882771421349                       0 
      -1.75987993996998                       0        1.22417795658112        44.6485778038395   -0.000111684646876161           253862.796875          101219.3984375        288.037994384766       0.107198666079588      -0.148827929116682                       0 
      -1.75737868934467                       0        1.22417795658112         44.648581764348   -0.000112947749499148           253862.796875          101219.3984375        288.037994384766       0.107198672915171      -0.148828144019873                       0 
      -1.75487743871936                       0        1.22417795658112        44.6485857248564   -0.000114210852122135           253862.796875          101219.3984375        288.037994384766       0.107198679750754      -0.148828358923065                       0 
      -1.75237618809405                       0        1.22417795658112        44.6485896853649   -0.000115473954745123           253862.796875          101219.3984375        288.037994384766       0.107198686586337      -0.148828573826256                       0 
      -1.74987493746873                       0        1.22417795658112        44.6485936458733    -0.00011673705736811           253862.796875          101219.3984375        288.037994384766        0.10719869342192      -0.148828788729448                       0 
      -1.74737368684342                       0        1.22417795658112        44.6485976063817   -0.000118000159991098           253862.796875          101219.3984375        288.037994384766       0.107198700257503      -0.148829003632639                       0 
      -1.74487243621811                       0        1.22417795658112        44.6486015668902   -0.000119263262614085           253862.796875          101219.3984375        288.037994384766       0.107198707093086      -0.148829218535831                       0 
       -1.7423711855928                       0        1.22417795658112        44.6486055273987   -0.000120526365237073           253862.796875          101219.3984375        288.037994384766       0.107198713928669      -0.148829433439023                       0 
      -1.73986993496748                       0        1.22417795658112        44.6486094879071    -0.00012178946786006           253862.796875          101219.3984375        288.037994384766       0.107198720764252      -0.148829648342214                       0 
      -1.73736868434217                       0        1.22417795658112        44.6486134484155   -0.000123052570483048           253862.796875          101219.3984375        288.037994384766       0.107198727599835      -0.148829863245406                       0 
      -1.73486743371686                       0        1.22417795658112         44.648617408924   -0.000124315673106035           253862.796875          101219.3984375        288.037994384766       0.107198734435418      -0.148830078148597                       0 
      -1.73236618309155                       0        1.22417795658112        44.6486213694325   -0.000125578775729022           253862.796875          101219.3984375        288.037994384766       0.107198741271001      -0.148830293051789                       0 
      -1.72986493246623                       0        1.22417795658112        44.6486260590038   -0.000126922121979196           253862.796875          101219.3984375        288.037994384766       0.107198751287286      -0.148830543383455                       0 
      -1.72736368184092                       0        1.22417795658112        44.6486312077402   -0.000128316005799723           253862.796875          101219.3984375        288.037994384766       0.107198763306782      -0.148830816028035                       0 
      -1.72486243121561                       0        1.22417795658112        44.6486363564766   -0.000129709889620251           253862.796875          101219.3984375        288.037994384766       0.107198775326278      -0.148831088672614                       0 
       -1.7223611805903                       0        1.22417795658112         44.648641505213   -0.000131103773440779           253862.796875          101219.3984375        288.037994384766       0.107198787345774      -0.148831361317193                       0 