/*--------------------------------*- C++ -*----------------------------------*\
  =========                 |
  \\      /  F ield         | OpenFOAM: The Open Source CFD Toolbox
   \\    /   O peration     | Website:  https://openfoam.org
    \\  /    A nd           | Version:  6
     \\/     M anipulation  |
\*---------------------------------------------------------------------------*/
FoamFile
{
    version     2.0;
    format      ascii;
    class       volVectorField;
    location    "160";
    object      U;
}
// * * * * * * * * * * * * * * * * * * * * * * * * * * * * * * * * * * * * * //

dimensions      [0 1 -1 0 0 0 0];

internalField   nonuniform List<vector> 
4000
(
(400 2.73294e-14 0)
(400 1.38957e-14 0)
(400 5.95357e-15 0)
(400 1.54724e-15 0)
(400 7.51369e-15 0)
(400 1.75413e-14 0)
(400 3.69568e-14 0)
(400 5.81609e-14 0)
(400 6.10526e-14 0)
(400 5.32487e-14 0)
(400 5.05863e-14 0)
(400 5.0363e-14 0)
(400 2.63135e-14 0)
(400 1.08486e-14 0)
(400 1.44728e-14 0)
(400 -2.41246e-15 0)
(400 -1.94253e-14 0)
(400 -4.18694e-14 0)
(400 -4.99175e-14 0)
(400 -3.73112e-14 0)
(400 -5.98294e-15 0)
(400 1.26895e-14 0)
(400 4.43409e-14 0)
(400 6.50993e-14 0)
(400 7.777e-14 0)
(400 7.72282e-14 0)
(400 6.40448e-14 0)
(400 6.04289e-14 0)
(400 5.24261e-14 0)
(400 2.57154e-14 0)
(400 4.69549e-15 0)
(400 -1.24783e-14 0)
(400 3.88072e-15 0)
(400 1.89882e-15 0)
(400 -2.36769e-15 0)
(400 -1.59956e-15 0)
(400 -1.62822e-14 0)
(400 -3.34908e-14 0)
(400 -4.45236e-14 0)
(400 -5.40515e-14 0)
(400 -4.02797e-14 0)
(400 -3.10653e-14 0)
(400 -3.18467e-14 0)
(400 -2.57324e-14 0)
(400 -1.42893e-14 0)
(400 -7.56285e-15 0)
(400 -6.13337e-15 0)
(400 2.3788e-15 0)
(400 8.51889e-15 0)
(400 1.60249e-14 0)
(400 1.32464e-14 0)
(400 1.78981e-14 0)
(400 8.28647e-15 0)
(400 -6.18846e-15 0)
(400 -1.7398e-14 0)
(400 -9.69388e-15 0)
(400 -1.03438e-14 0)
(400 -5.3433e-15 0)
(400 -5.29601e-15 0)
(400 -7.78198e-15 0)
(400 3.33682e-15 0)
(400 1.63007e-14 0)
(400 2.0469e-14 0)
(400 1.89422e-14 0)
(400 2.92065e-14 0)
(400 3.70155e-14 0)
(400 2.86666e-14 0)
(400 1.63808e-14 0)
(400 2.56523e-15 0)
(400 -6.18665e-15 0)
(400 7.31913e-15 0)
(400 1.47499e-14 0)
(400 1.55475e-14 0)
(400 1.61461e-14 0)
(400 1.57944e-14 0)
(400 1.09822e-14 0)
(400 4.53063e-15 0)
(400 2.42608e-14 0)
(400 3.63162e-14 0)
(400 2.85669e-14 0)
(400 2.01403e-14 0)
(400 2.02953e-14 0)
(400 7.94798e-15 0)
(400 1.87485e-14 0)
(400 1.80646e-14 0)
(400 -1.65324e-15 0)
(400 -1.95246e-14 0)
(400 -4.44494e-14 0)
(400 -6.74798e-14 0)
(400 -7.76437e-14 0)
(400 -7.24158e-14 0)
(400 -4.87652e-14 0)
(400 -3.13166e-14 0)
(400 -6.31319e-15 0)
(400 8.52155e-15 0)
(400 2.0418e-14 0)
(400 1.53889e-14 0)
(400 2.69884e-14 0)
(400 4.65741e-14 0)
(400 5.30056e-14 0)
(400 5.08375e-14 0)
(400 3.58109e-14 0)
(400 2.83659e-14 0)
(400 2.75157e-14 0)
(400 2.26842e-14 0)
(400 2.9595e-14 0)
(400 4.03521e-14 0)
(400 3.97029e-14 0)
(400 2.78046e-14 0)
(400 1.48634e-15 0)
(400 5.69113e-15 0)
(400 3.15664e-14 0)
(400 3.05415e-14 0)
(400 2.17685e-14 0)
(400 3.20877e-15 0)
(400 3.51144e-15 0)
(400 1.85768e-14 0)
(400 2.11394e-14 0)
(400 2.99026e-14 0)
(400 4.01995e-14 0)
(400 3.47766e-14 0)
(400 2.45964e-14 0)
(400 -2.36271e-15 0)
(400 -2.12058e-14 0)
(400 -1.99039e-14 0)
(400 -1.66602e-14 0)
(400 -1.30366e-14 0)
(400 -2.44115e-14 0)
(400 -2.18919e-14 0)
(400 -6.65563e-15 0)
(400 -1.28404e-14 0)
(400 -2.34266e-14 0)
(400 -3.26145e-14 0)
(400 -3.74016e-14 0)
(400 -2.86523e-14 0)
(400 -2.7423e-14 0)
(400 -2.04109e-14 0)
(400 -5.26295e-15 0)
(400 -1.08791e-14 0)
(400 -1.9443e-14 0)
(400 -1.91207e-14 0)
(400 -1.36018e-14 0)
(400 7.92286e-15 0)
(400 1.61404e-14 0)
(400 1.58871e-14 0)
(400 3.2967e-14 0)
(400 4.91835e-14 0)
(400 5.16438e-14 0)
(400 4.384e-14 0)
(400 2.79605e-14 0)
(400 3.21437e-14 0)
(400 2.89288e-14 0)
(400 1.5869e-14 0)
(400 2.71669e-14 0)
(400 3.60704e-14 0)
(400 3.87815e-14 0)
(400 2.54519e-14 0)
(400 1.37485e-14 0)
(400 2.52672e-15 0)
(400 -1.30135e-14 0)
(400 -1.75316e-15 0)
(400 2.89604e-14 0)
(400 5.31782e-14 0)
(400 4.0091e-14 0)
(400 2.43282e-14 0)
(400 2.30405e-14 0)
(400 1.6616e-14 0)
(400 -6.24609e-15 0)
(400 -4.46827e-14 0)
(400 -7.67226e-14 0)
(400 -7.73618e-14 0)
(400 -7.48825e-14 0)
(400 -6.94605e-14 0)
(400 -4.8578e-14 0)
(400 -3.95151e-14 0)
(400 -5.38391e-14 0)
(400 -4.69448e-14 0)
(400 -3.8432e-14 0)
(400 -4.12117e-14 0)
(400 -4.5067e-14 0)
(400 -4.21932e-14 0)
(400 -3.22308e-14 0)
(400 -1.57934e-14 0)
(400 -1.20926e-14 0)
(400 -1.49535e-14 0)
(400 -3.24929e-14 0)
(400 -3.9596e-14 0)
(400 -3.48044e-14 0)
(400 -3.6363e-14 0)
(400 -2.70195e-14 0)
(400 -1.22173e-14 0)
(400 -4.08032e-15 0)
(400 1.4715e-14 0)
(400 1.76417e-14 0)
(400 1.717e-14 0)
(400 5.62381e-15 0)
(400 -5.88243e-15 0)
(400 -2.1298e-14 0)
(400 -3.50337e-14 0)
(400 -4.33361e-14 0)
(400 -1.01174e-14 0)
(400 -1.16638e-14 0)
(400 -1.26094e-14 0)
(400 -2.22339e-14 0)
(400 -1.66672e-14 0)
(400 7.03539e-16 0)
(400 1.72584e-14 0)
(400 2.12934e-14 0)
(400 3.48999e-14 0)
(400 3.50692e-14 0)
(400 2.90116e-14 0)
(400 3.70583e-14 0)
(400 3.6222e-14 0)
(400 2.25261e-14 0)
(400 4.03758e-15 0)
(400 -1.88989e-14 0)
(400 -2.5032e-14 0)
(400 -1.81316e-14 0)
(400 -2.0143e-14 0)
(400 -8.7216e-15 0)
(400 1.01804e-14 0)
(400 9.92868e-15 0)
(400 2.34199e-14 0)
(400 4.96463e-14 0)
(400 5.25441e-14 0)
(400 4.3532e-14 0)
(400 1.99204e-14 0)
(400 1.09961e-14 0)
(400 6.66759e-15 0)
(400 1.01712e-15 0)
(400 -2.70069e-15 0)
(400 -9.49022e-16 0)
(400 -3.92074e-15 0)
(400 -9.65564e-15 0)
(400 -1.17447e-14 0)
(400 4.08088e-15 0)
(400 -2.85633e-15 0)
(400 -1.18503e-14 0)
(400 -1.29407e-14 0)
(400 -1.83446e-14 0)
(400 -9.88435e-15 0)
(400 -8.23164e-15 0)
(400 -7.45157e-15 0)
(400 5.26835e-15 0)
(400 1.40863e-14 0)
(400 3.17852e-14 0)
(400 4.27757e-14 0)
(400 5.56178e-14 0)
(400 6.88872e-14 0)
(400 7.28146e-14 0)
(400 7.34919e-14 0)
(400 7.97222e-14 0)
(400 6.92639e-14 0)
(400 4.90157e-14 0)
(400 3.93582e-14 0)
(400 4.81021e-14 0)
(400 4.24163e-14 0)
(400 4.07402e-14 0)
(400 3.47625e-14 0)
(400 1.86206e-14 0)
(400 2.19295e-14 0)
(400 2.63215e-14 0)
(400 7.77604e-15 0)
(400 5.49325e-15 0)
(400 1.19143e-14 0)
(400 2.64295e-15 0)
(400 -1.64212e-14 0)
(400 -3.38348e-14 0)
(400 -4.06095e-14 0)
(400 -2.89344e-14 0)
(400 -1.45049e-14 0)
(400 -1.36082e-14 0)
(400 -2.79161e-14 0)
(400 -4.44404e-14 0)
(400 -4.11574e-14 0)
(400 -3.53403e-14 0)
(400 -2.77717e-14 0)
(400 2.5917e-15 0)
(400 2.92658e-14 0)
(400 3.41746e-14 0)
(400 2.60569e-14 0)
(400 1.91501e-14 0)
(400 -6.43531e-15 0)
(400 -2.17939e-15 0)
(400 1.03747e-14 0)
(400 1.03217e-14 0)
(400 3.51929e-15 0)
(400 4.51317e-16 0)
(400 -1.00959e-14 0)
(400 -2.836e-14 0)
(400 -3.74322e-14 0)
(400 -1.73231e-14 0)
(400 -1.72739e-14 0)
(400 -6.6681e-15 0)
(400 9.97193e-15 0)
(400 2.26234e-14 0)
(400 3.67837e-14 0)
(400 4.90191e-14 0)
(400 6.17372e-14 0)
(400 6.29554e-14 0)
(400 4.8955e-14 0)
(400 5.33046e-14 0)
(400 5.35849e-14 0)
(400 5.98777e-14 0)
(400 5.09896e-14 0)
(400 3.92095e-14 0)
(400 2.84274e-14 0)
(400 2.06731e-14 0)
(400 -5.92512e-15 0)
(400 -4.21887e-14 0)
(400 -4.38963e-14 0)
(400 -4.04923e-14 0)
(400 -4.99664e-14 0)
(400 -3.89659e-14 0)
(400 -4.38576e-14 0)
(400 -6.53904e-14 0)
(400 -3.87052e-14 0)
(400 -5.84423e-15 0)
(400 8.83664e-15 0)
(400 -1.78511e-15 0)
(400 -8.66468e-15 0)
(400 -1.11331e-14 0)
(400 -1.97151e-14 0)
(400 -3.65682e-14 0)
(400 -3.35689e-14 0)
(400 -2.62006e-14 0)
(400 -3.54462e-14 0)
(400 -5.76584e-14 0)
(400 -4.92864e-14 0)
(400 -2.52102e-14 0)
(400 -3.90858e-14 0)
(400 -3.29468e-14 0)
(400 -4.06953e-14 0)
(400 -3.16799e-14 0)
(400 -1.64114e-14 0)
(400 2.71403e-16 0)
(400 5.57578e-15 0)
(400 1.29267e-14 0)
(400 7.96807e-15 0)
(400 2.75957e-15 0)
(400 1.37718e-14 0)
(400 2.81884e-14 0)
(400 2.01431e-14 0)
(400 3.20002e-14 0)
(400 4.11662e-14 0)
(400 4.73446e-14 0)
(400 4.29373e-14 0)
(400 5.34711e-14 0)
(400 8.07236e-14 0)
(400 9.54796e-14 0)
(400 9.52256e-14 0)
(400 1.0032e-13 0)
(400 1.09271e-13 0)
(400 1.27357e-13 0)
(400 1.28106e-13 0)
(400 1.12384e-13 0)
(400 1.01092e-13 0)
(400 9.6196e-14 0)
(400 9.54519e-14 0)
(400 8.26785e-14 0)
(400 7.35017e-14 0)
(400 7.23887e-14 0)
(400 8.74243e-14 0)
(400 1.00397e-13 0)
(400 9.07465e-14 0)
(400 7.62119e-14 0)
(400 5.85005e-14 0)
(400 4.82291e-14 0)
(400 2.09482e-14 0)
(400 -9.08479e-15 0)
(400 -2.6074e-14 0)
(400 -3.16725e-14 0)
(400 -3.20695e-14 0)
(400 -2.90839e-14 0)
(400 -4.63529e-14 0)
(400 -6.31587e-14 0)
(400 -8.97067e-14 0)
(400 -1.13211e-13 0)
(400 -1.184e-13 0)
(400 -1.12231e-13 0)
(400 -8.70127e-14 0)
(400 -7.0332e-14 0)
(400 -6.51917e-14 0)
(400 -5.77431e-14 0)
(400 -7.71361e-14 0)
(400 -7.18008e-14 0)
(400 -6.05864e-14 0)
(400 -5.23742e-14 0)
(400 -5.52601e-14 0)
(400 -4.97643e-14 0)
(400 -1.23876e-14 0)
(400 1.20803e-14 0)
(400 1.4515e-14 0)
(400 1.89113e-14 0)
(400 1.12821e-14 0)
(400 2.2047e-14 0)
(400 3.65479e-14 0)
(400 1.2377e-14 0)
(400 -1.56323e-14 0)
(400 -3.57084e-14 0)
(400 -3.16449e-14 0)
(400 -3.65635e-14 0)
(400 -3.56025e-14 0)
(400 -3.91586e-14 0)
(400 -3.54665e-14 0)
(400 -1.76336e-14 0)
(400 -7.30162e-15 0)
(400 1.85851e-15 0)
(400 1.54911e-14 0)
(400 2.59627e-14 0)
(400 2.34925e-14 0)
(400 2.41567e-14 0)
(400 7.21335e-15 0)
(400 -7.82753e-16 0)
(400 -9.41017e-15 0)
(400 -1.64324e-14 0)
(400 -2.00673e-14 0)
(400 -7.55314e-15 0)
(400 -1.20444e-15 0)
(400 -9.18427e-15 0)
(400 -4.66686e-15 0)
(400 6.14905e-15 0)
(400 2.2625e-14 0)
(400 5.68122e-14 0)
(400 6.11053e-14 0)
(400 4.7988e-14 0)
(400 3.07658e-14 0)
(400 2.2292e-14 0)
(400 9.50921e-15 0)
(400 9.62385e-15 0)
(400 1.60829e-14 0)
(400 1.47674e-14 0)
(400 -2.05824e-15 0)
(400 1.81759e-14 0)
(400 1.33024e-14 0)
(400 -6.3134e-15 0)
(400 -1.29917e-14 0)
(400 -1.20717e-14 0)
(400 3.04287e-15 0)
(400 9.97205e-15 0)
(400 9.77694e-15 0)
(400 1.50255e-14 0)
(400 9.79077e-15 0)
(400 1.0102e-14 0)
(400 7.25345e-16 0)
(400 2.0305e-14 0)
(400 3.24334e-14 0)
(400 3.93719e-14 0)
(400 3.82634e-14 0)
(400 1.74644e-14 0)
(400 2.8565e-14 0)
(400 4.90448e-14 0)
(400 5.50499e-14 0)
(400 3.39078e-14 0)
(400 2.3679e-14 0)
(400 2.63223e-14 0)
(400 2.88202e-14 0)
(400 3.24744e-14 0)
(400 2.50339e-14 0)
(400 2.65841e-14 0)
(400 2.22184e-14 0)
(400 9.29655e-15 0)
(400 2.27759e-15 0)
(400 8.57395e-15 0)
(400 9.47964e-15 0)
(400 -1.01928e-14 0)
(400 -3.4358e-14 0)
(400 -5.23122e-14 0)
(400 -5.65661e-14 0)
(400 -3.95846e-14 0)
(400 -3.16482e-14 0)
(400 -3.6867e-14 0)
(400 -4.96047e-14 0)
(400 -6.11766e-14 0)
(400 -4.95114e-14 0)
(400 -2.82676e-14 0)
(400 -7.71269e-15 0)
(400 3.02846e-15 0)
(400 1.3191e-14 0)
(400 3.91659e-14 0)
(400 4.64845e-14 0)
(400 4.17e-14 0)
(400 4.01334e-14 0)
(400 3.35065e-14 0)
(400 3.63428e-14 0)
(400 3.60877e-14 0)
(400 1.96131e-14 0)
(400 1.81333e-14 0)
(400 9.19478e-15 0)
(400 -2.20486e-15 0)
(400 -8.28727e-15 0)
(400 -8.8005e-15 0)
(400 -1.07903e-15 0)
(400 8.30572e-15 0)
(400 1.56076e-14 0)
(400 1.96651e-14 0)
(400 2.27199e-14 0)
(400 1.72547e-14 0)
(400 1.49892e-14 0)
(400 1.30291e-14 0)
(400 1.86793e-15 0)
(400 -2.76717e-15 0)
(400 4.85781e-15 0)
(400 1.53381e-15 0)
(400 -1.24333e-14 0)
(400 -1.72518e-14 0)
(400 -1.13333e-14 0)
(400 -1.0322e-14 0)
(400 -2.68661e-14 0)
(400 -4.10863e-14 0)
(400 -4.60051e-14 0)
(400 -4.51607e-14 0)
(400 -3.09712e-14 0)
(400 -2.14713e-14 0)
(400 -1.91887e-14 0)
(400 -2.22419e-14 0)
(400 -1.6181e-14 0)
(400 -1.08965e-16 0)
(400 3.94873e-15 0)
(400 -9.64515e-15 0)
(400 -9.38403e-15 0)
(400 2.94843e-15 0)
(400 -9.84126e-15 0)
(400 -2.24016e-14 0)
(400 -2.95481e-14 0)
(400 -2.17695e-14 0)
(400 -3.5021e-14 0)
(400 -3.88086e-14 0)
(400 -3.82953e-14 0)
(400 -1.98776e-14 0)
(400 -1.06328e-14 0)
(400 -5.06638e-15 0)
(400 6.48855e-15 0)
(400 4.17873e-15 0)
(400 9.98636e-15 0)
(400 2.52961e-14 0)
(400 3.67946e-14 0)
(400 2.85685e-14 0)
(400 5.43182e-15 0)
(400 9.94398e-16 0)
(400 1.11391e-14 0)
(400 1.12991e-14 0)
(400 -4.78951e-15 0)
(400 -3.53493e-15 0)
(400 9.888e-15 0)
(400 1.6647e-14 0)
(400 2.29202e-14 0)
(400 3.21525e-14 0)
(400 5.58595e-14 0)
(400 7.74167e-14 0)
(400 7.2398e-14 0)
(400 6.92374e-14 0)
(400 4.84984e-14 0)
(400 3.90919e-14 0)
(400 3.49815e-14 0)
(400 2.8664e-14 0)
(400 2.73593e-14 0)
(400 2.30515e-14 0)
(400 2.06237e-14 0)
(400 2.56541e-14 0)
(400 2.45284e-14 0)
(400 2.37522e-15 0)
(400 8.32498e-16 0)
(400 1.23691e-14 0)
(400 2.596e-14 0)
(400 3.43128e-14 0)
(400 3.63646e-14 0)
(400 4.07186e-14 0)
(400 5.13318e-14 0)
(400 6.16731e-14 0)
(400 6.58379e-14 0)
(400 5.01378e-14 0)
(400 5.13546e-14 0)
(400 5.66046e-14 0)
(400 4.52668e-14 0)
(400 3.6342e-14 0)
(400 1.18027e-16 0)
(400 -1.95387e-14 0)
(400 -2.959e-14 0)
(400 -3.71051e-14 0)
(400 -2.12363e-14 0)
(400 -2.16509e-14 0)
(400 -2.66213e-14 0)
(400 -2.18849e-14 0)
(400 -3.57041e-14 0)
(400 -3.18541e-14 0)
(400 -4.19607e-14 0)
(400 -5.52753e-14 0)
(400 -5.15234e-14 0)
(400 -4.78791e-14 0)
(400 -3.31983e-14 0)
(400 -2.82194e-14 0)
(400 -3.23705e-14 0)
(400 -7.55412e-15 0)
(400 -2.65712e-15 0)
(400 -2.63901e-15 0)
(400 -8.0304e-15 0)
(400 -2.84835e-14 0)
(400 -5.27471e-14 0)
(400 -6.20937e-14 0)
(400 -2.04113e-14 0)
(400 -3.23847e-14 0)
(400 -3.55021e-14 0)
(400 -2.91766e-14 0)
(400 -3.36149e-14 0)
(400 -3.72458e-14 0)
(400 -2.55382e-14 0)
(400 -1.34447e-14 0)
(400 -3.14825e-15 0)
(400 -7.79717e-15 0)
(400 -9.29643e-15 0)
(400 -1.87563e-14 0)
(400 -1.82746e-14 0)
(400 -2.69937e-14 0)
(400 -2.80405e-14 0)
(400 -2.41276e-14 0)
(400 -2.53697e-14 0)
(400 -1.6686e-14 0)
(400 -6.64031e-15 0)
(400 1.27882e-15 0)
(400 5.62456e-15 0)
(400 2.2892e-14 0)
(400 1.649e-14 0)
(400 1.73497e-14 0)
(400 2.0396e-14 0)
(400 5.84877e-15 0)
(400 1.66224e-16 0)
(400 -2.5926e-18 0)
(400 1.1042e-14 0)
(400 2.20808e-14 0)
(400 3.7592e-14 0)
(400 3.14927e-14 0)
(400 2.06883e-14 0)
(400 1.61619e-14 0)
(400 6.52517e-15 0)
(400 -1.60182e-14 0)
(400 -2.98274e-14 0)
(400 -2.9564e-14 0)
(400 -3.02787e-15 0)
(400 1.75721e-14 0)
(400 1.69978e-14 0)
(400 2.40919e-14 0)
(400 2.89413e-14 0)
(400 3.66046e-14 0)
(400 3.38192e-14 0)
(400 4.18841e-14 0)
(400 6.51798e-14 0)
(400 7.41251e-14 0)
(400 6.98047e-14 0)
(400 6.1977e-14 0)
(400 7.92643e-14 0)
(400 8.38653e-14 0)
(400 6.47897e-14 0)
(400 3.95166e-14 0)
(400 1.66949e-14 0)
(400 -1.5717e-14 0)
(400 -1.17489e-14 0)
(400 -1.00336e-14 0)
(400 -1.59266e-14 0)
(400 4.68858e-15 0)
(400 6.38066e-15 0)
(400 -1.72117e-14 0)
(400 -9.57629e-15 0)
(400 6.04473e-15 0)
(400 5.30868e-15 0)
(400 -7.29225e-16 0)
(400 -2.26634e-14 0)
(400 -1.77308e-14 0)
(400 -4.95204e-15 0)
(400 5.33084e-15 0)
(400 1.56638e-14 0)
(400 1.51616e-14 0)
(400 7.06972e-15 0)
(400 -7.28267e-15 0)
(400 -5.48946e-15 0)
(400 1.16312e-14 0)
(400 3.33547e-14 0)
(400 2.53083e-14 0)
(400 1.17272e-14 0)
(400 1.42568e-14 0)
(400 2.55617e-14 0)
(400 3.28296e-14 0)
(400 5.3492e-14 0)
(400 6.18161e-14 0)
(400 4.75805e-14 0)
(400 3.28865e-14 0)
(400 3.37328e-14 0)
(400 3.68801e-14 0)
(400 3.18294e-14 0)
(400 3.5315e-14 0)
(400 4.04049e-14 0)
(400 3.12777e-14 0)
(400 3.09654e-14 0)
(400 2.4047e-14 0)
(400 2.80088e-14 0)
(400 4.1377e-14 0)
(400 3.6577e-14 0)
(400 3.31993e-14 0)
(400 2.53686e-14 0)
(400 1.69458e-14 0)
(400 9.96423e-15 0)
(400 -1.0002e-14 0)
(400 -2.53532e-14 0)
(400 -3.77133e-14 0)
(400 -4.94354e-14 0)
(400 -6.55139e-14 0)
(400 -5.94529e-14 0)
(400 -5.09936e-14 0)
(400 -4.57278e-14 0)
(400 -4.56965e-14 0)
(400 -5.82429e-14 0)
(400 -5.92776e-14 0)
(400 -3.28653e-14 0)
(400 -3.56084e-14 0)
(400 -3.25292e-14 0)
(400 -5.87049e-15 0)
(400 -6.20015e-15 0)
(400 -1.70116e-14 0)
(400 -2.26317e-14 0)
(400 -2.65633e-14 0)
(400 -3.2682e-14 0)
(400 -2.83666e-14 0)
(400 -3.77183e-14 0)
(400 -4.6555e-14 0)
(400 -6.19419e-14 0)
(400 -8.37135e-14 0)
(400 -1.03406e-13 0)
(400 -1.02372e-13 0)
(400 -8.1252e-14 0)
(400 -6.71462e-14 0)
(400 -3.68707e-14 0)
(400 -2.54972e-14 0)
(400 3.08515e-15 0)
(400 1.89915e-14 0)
(400 3.13468e-14 0)
(400 3.81402e-14 0)
(400 4.84791e-14 0)
(400 3.71046e-14 0)
(400 1.84267e-14 0)
(400 1.27708e-14 0)
(400 1.73016e-14 0)
(400 1.56939e-14 0)
(400 2.16768e-14 0)
(400 3.58689e-14 0)
(400 5.23205e-14 0)
(400 5.51443e-14 0)
(400 6.03157e-14 0)
(400 6.80579e-14 0)
(400 8.23615e-14 0)
(400 1.00002e-13 0)
(400 1.00383e-13 0)
(400 9.11277e-14 0)
(400 8.67506e-14 0)
(400 8.94958e-14 0)
(400 1.02757e-13 0)
(400 1.05834e-13 0)
(400 1.08756e-13 0)
(400 9.48495e-14 0)
(400 7.57156e-14 0)
(400 6.20216e-14 0)
(400 5.59581e-14 0)
(400 3.55983e-14 0)
(400 1.60541e-14 0)
(400 1.12767e-14 0)
(400 2.09353e-14 0)
(400 2.30464e-14 0)
(400 1.42002e-14 0)
(400 1.19652e-14 0)
(400 2.55004e-14 0)
(400 2.32378e-14 0)
(400 2.40994e-14 0)
(400 1.88942e-14 0)
(400 2.6192e-14 0)
(400 2.50997e-14 0)
(400 2.80456e-14 0)
(400 2.23557e-14 0)
(400 2.06018e-14 0)
(400 1.05463e-14 0)
(400 4.43104e-15 0)
(400 -2.32425e-14 0)
(400 -4.30181e-14 0)
(400 -5.91934e-14 0)
(400 -7.59644e-14 0)
(400 -8.02947e-14 0)
(400 -8.75389e-14 0)
(400 -7.38474e-14 0)
(400 -7.19583e-14 0)
(400 -8.53826e-14 0)
(400 -7.35479e-14 0)
(400 -6.07213e-14 0)
(400 -4.9147e-14 0)
(400 -5.68147e-14 0)
(400 -5.71366e-14 0)
(400 -2.7292e-14 0)
(400 -1.08915e-14 0)
(400 -1.80287e-14 0)
(400 -3.19284e-14 0)
(400 -4.49925e-14 0)
(400 -5.91847e-14 0)
(400 -6.85909e-14 0)
(400 -6.44493e-15 0)
(400 -1.73229e-14 0)
(400 -3.21759e-14 0)
(400 -3.29085e-14 0)
(400 -2.72449e-14 0)
(400 -3.73285e-14 0)
(400 -4.1029e-14 0)
(400 -3.35096e-14 0)
(400 -1.87151e-14 0)
(400 -1.84695e-14 0)
(400 -2.99048e-14 0)
(400 -3.73297e-14 0)
(400 -1.92003e-14 0)
(400 -2.21869e-14 0)
(400 -2.91116e-14 0)
(400 -2.51777e-14 0)
(400 -1.00402e-14 0)
(400 -2.97985e-15 0)
(400 -3.94179e-15 0)
(400 1.24493e-14 0)
(400 2.61145e-14 0)
(400 3.37644e-14 0)
(400 2.19742e-14 0)
(400 -1.24997e-15 0)
(400 -3.72977e-15 0)
(400 -6.37463e-16 0)
(400 -2.7773e-15 0)
(400 -1.47225e-15 0)
(400 3.0887e-14 0)
(400 5.07133e-14 0)
(400 5.46007e-14 0)
(400 6.45371e-14 0)
(400 6.4434e-14 0)
(400 4.38555e-14 0)
(400 4.12718e-14 0)
(400 4.82694e-14 0)
(400 4.08102e-14 0)
(400 3.33259e-14 0)
(400 3.74772e-14 0)
(400 3.81658e-14 0)
(400 4.33089e-14 0)
(400 3.9563e-14 0)
(400 4.83938e-14 0)
(400 5.54102e-14 0)
(400 6.34528e-14 0)
(400 6.55351e-14 0)
(400 8.6999e-14 0)
(400 9.51454e-14 0)
(400 7.94604e-14 0)
(400 8.44607e-14 0)
(400 7.7643e-14 0)
(400 4.64165e-14 0)
(400 1.1844e-14 0)
(400 -1.65118e-14 0)
(400 -4.17438e-14 0)
(400 -5.69225e-14 0)
(400 -6.23948e-14 0)
(400 -5.92195e-14 0)
(400 -5.54357e-14 0)
(400 -4.85145e-14 0)
(400 -3.81804e-14 0)
(400 -3.79789e-14 0)
(400 -3.16972e-14 0)
(400 -2.90082e-14 0)
(400 -4.28588e-14 0)
(400 -4.16151e-14 0)
(400 -3.80045e-14 0)
(400 -2.2595e-14 0)
(400 -1.0252e-14 0)
(400 -6.31469e-15 0)
(400 6.30258e-15 0)
(400 1.30787e-14 0)
(400 2.63932e-14 0)
(400 2.03059e-14 0)
(400 1.67033e-14 0)
(400 4.45273e-14 0)
(400 5.73928e-14 0)
(400 5.02272e-14 0)
(400 4.61773e-14 0)
(400 3.47526e-14 0)
(400 3.37687e-14 0)
(400 4.23577e-14 0)
(400 6.13139e-14 0)
(400 7.24521e-14 0)
(400 6.01441e-14 0)
(400 5.17035e-14 0)
(400 5.73142e-14 0)
(400 6.10694e-14 0)
(400 6.73804e-14 0)
(400 6.02642e-14 0)
(400 6.11448e-14 0)
(400 4.50675e-14 0)
(400 3.37987e-14 0)
(400 1.7194e-14 0)
(400 1.38329e-14 0)
(400 1.00362e-14 0)
(400 7.3908e-15 0)
(400 4.50504e-15 0)
(400 -1.296e-14 0)
(400 -3.00629e-14 0)
(400 -3.84499e-14 0)
(400 -4.48062e-14 0)
(400 -5.53769e-14 0)
(400 -5.45839e-14 0)
(400 -4.69321e-14 0)
(400 -3.63332e-14 0)
(400 -3.24553e-14 0)
(400 -1.84574e-14 0)
(400 7.81287e-15 0)
(400 2.09567e-14 0)
(400 1.15111e-14 0)
(400 -1.14549e-14 0)
(400 -2.21457e-14 0)
(400 -1.52058e-14 0)
(400 -9.00355e-15 0)
(400 4.62942e-15 0)
(400 5.26847e-15 0)
(400 -1.52346e-14 0)
(400 -3.38108e-14 0)
(400 -4.08781e-14 0)
(400 -3.53842e-14 0)
(400 -3.32233e-14 0)
(400 -2.44151e-14 0)
(400 -2.43205e-14 0)
(400 -2.42988e-14 0)
(400 -4.72787e-14 0)
(400 -5.44086e-14 0)
(400 -6.41808e-14 0)
(400 -4.85711e-14 0)
(400 -4.29838e-14 0)
(400 -1.88269e-14 0)
(400 2.34321e-15 0)
(400 1.23151e-14 0)
(400 1.83069e-14 0)
(400 2.20053e-14 0)
(400 2.35823e-14 0)
(400 1.9994e-14 0)
(400 9.29878e-15 0)
(400 3.2229e-15 0)
(400 -7.77162e-15 0)
(400 -1.78167e-14 0)
(400 -1.86235e-14 0)
(400 -7.69868e-15 0)
(400 8.38507e-15 0)
(400 2.37935e-14 0)
(400 3.43547e-14 0)
(400 2.40953e-14 0)
(400 2.31944e-14 0)
(400 2.00519e-14 0)
(400 3.54168e-14 0)
(400 4.0328e-14 0)
(400 2.55176e-14 0)
(400 4.14574e-14 0)
(400 5.60312e-14 0)
(400 5.3292e-14 0)
(400 5.05341e-14 0)
(400 5.26475e-14 0)
(400 4.52458e-14 0)
(400 2.40686e-14 0)
(400 6.64398e-15 0)
(400 3.61632e-15 0)
(400 -2.78977e-15 0)
(400 -2.34137e-14 0)
(400 -1.31341e-14 0)
(400 -7.293e-15 0)
(400 -1.75093e-14 0)
(400 -1.32904e-14 0)
(400 1.09223e-14 0)
(400 3.43072e-14 0)
(400 2.76658e-14 0)
(400 2.28085e-14 0)
(400 4.39958e-14 0)
(400 4.75002e-14 0)
(400 3.32019e-14 0)
(400 5.42592e-14 0)
(400 5.80565e-14 0)
(400 5.78613e-14 0)
(400 6.11779e-14 0)
(400 6.01782e-14 0)
(400 5.70882e-14 0)
(400 4.19979e-14 0)
(400 4.12384e-14 0)
(400 1.47549e-14 0)
(400 -2.075e-14 0)
(400 -2.91412e-14 0)
(400 -2.68164e-14 0)
(400 -1.75334e-14 0)
(400 -2.31427e-14 0)
(400 -2.97209e-14 0)
(400 -2.48607e-14 0)
(400 -2.45624e-14 0)
(400 -2.42817e-14 0)
(400 -2.26522e-14 0)
(400 -2.03418e-14 0)
(400 -1.73514e-14 0)
(400 -2.85187e-14 0)
(400 -3.28129e-14 0)
(400 -2.36722e-14 0)
(400 -1.41646e-14 0)
(400 -1.15772e-14 0)
(400 2.17338e-16 0)
(400 -1.85452e-14 0)
(400 -3.84733e-14 0)
(400 -4.68663e-14 0)
(400 -3.75467e-14 0)
(400 -4.40702e-14 0)
(400 -5.5812e-14 0)
(400 -4.97419e-14 0)
(400 -3.39475e-14 0)
(400 -1.28022e-14 0)
(400 -4.0781e-15 0)
(400 -1.24799e-14 0)
(400 -1.72351e-14 0)
(400 -1.1048e-14 0)
(400 1.12402e-15 0)
(400 1.02603e-14 0)
(400 2.03425e-14 0)
(400 2.23835e-14 0)
(400 2.39415e-14 0)
(400 1.94664e-14 0)
(400 2.20198e-14 0)
(400 2.56686e-14 0)
(400 3.21123e-14 0)
(400 1.92862e-14 0)
(400 8.14335e-15 0)
(400 2.69751e-14 0)
(400 2.15986e-14 0)
(400 2.42225e-14 0)
(400 4.26925e-14 0)
(400 4.45838e-14 0)
(400 4.04108e-14 0)
(400 3.92673e-14 0)
(400 2.81251e-14 0)
(400 2.77203e-14 0)
(400 3.11484e-14 0)
(400 3.2633e-14 0)
(400 4.17119e-14 0)
(400 3.69031e-14 0)
(400 2.14842e-14 0)
(400 7.781e-15 0)
(400 2.20685e-14 0)
(400 2.98543e-14 0)
(400 4.06965e-14 0)
(400 5.3084e-14 0)
(400 7.50316e-14 0)
(400 8.39176e-14 0)
(400 8.28077e-14 0)
(400 7.00861e-14 0)
(400 5.50072e-14 0)
(400 4.29483e-14 0)
(400 3.22117e-14 0)
(400 2.57344e-15 0)
(400 -2.97311e-15 0)
(400 -2.47713e-14 0)
(400 -3.91003e-14 0)
(400 -3.57278e-14 0)
(400 -4.45381e-14 0)
(400 -4.65846e-14 0)
(400 -4.21154e-14 0)
(400 -3.36197e-14 0)
(400 -3.42286e-14 0)
(400 -3.34816e-14 0)
(400 -3.0642e-14 0)
(400 -2.94145e-14 0)
(400 -3.12618e-14 0)
(400 -3.75135e-14 0)
(400 -1.27675e-14 0)
(400 -2.11674e-15 0)
(400 2.72485e-15 0)
(400 5.11758e-15 0)
(400 1.02924e-14 0)
(400 1.75693e-14 0)
(400 2.86559e-14 0)
(400 3.67578e-14 0)
(400 4.11923e-14 0)
(400 3.52084e-14 0)
(400 2.79641e-14 0)
(400 3.28617e-14 0)
(400 4.04048e-14 0)
(400 4.09014e-14 0)
(400 4.99828e-14 0)
(400 6.07506e-14 0)
(400 7.43205e-14 0)
(400 5.92811e-14 0)
(400 7.09026e-14 0)
(400 9.95781e-14 0)
(400 9.94803e-14 0)
(400 9.69084e-14 0)
(400 9.33084e-14 0)
(400 9.63813e-14 0)
(400 8.67318e-14 0)
(400 6.91611e-14 0)
(400 5.8243e-14 0)
(400 3.19689e-14 0)
(400 3.27501e-14 0)
(400 1.23341e-14 0)
(400 1.02095e-14 0)
(400 -3.68136e-15 0)
(400 -1.92501e-14 0)
(400 -2.134e-14 0)
(400 -2.84728e-14 0)
(400 -2.63399e-14 0)
(400 -1.00609e-14 0)
(400 -1.30495e-14 0)
(400 -3.06056e-16 0)
(400 2.29319e-14 0)
(400 2.10216e-14 0)
(400 1.41834e-14 0)
(400 1.66641e-14 0)
(400 3.40777e-14 0)
(400 3.85073e-14 0)
(400 2.33381e-14 0)
(400 -1.15181e-14 0)
(400 -5.20011e-15 0)
(400 -1.00366e-14 0)
(400 -1.20522e-14 0)
(400 -1.36311e-14 0)
(400 -3.11829e-14 0)
(400 -4.99145e-14 0)
(400 -6.22809e-14 0)
(400 -5.54501e-14 0)
(400 -4.70901e-14 0)
(400 -2.05916e-14 0)
(400 -1.58498e-14 0)
(400 -1.83699e-14 0)
(400 -1.28514e-14 0)
(400 1.08893e-15 0)
(400 1.17922e-14 0)
(400 5.93176e-16 0)
(400 3.57079e-15 0)
(400 2.81313e-14 0)
(400 3.26958e-14 0)
(400 3.11748e-14 0)
(400 1.16436e-14 0)
(400 -5.0765e-15 0)
(400 -2.21619e-14 0)
(400 -2.86289e-14 0)
(400 -2.40961e-14 0)
(400 -1.20261e-14 0)
(400 -1.08504e-14 0)
(400 -2.7547e-14 0)
(400 -9.49229e-15 0)
(400 1.81299e-14 0)
(400 1.55459e-14 0)
(400 2.74758e-14 0)
(400 3.8042e-14 0)
(400 3.79346e-14 0)
(400 3.08311e-14 0)
(400 1.9568e-14 0)
(400 1.99385e-14 0)
(400 3.21267e-14 0)
(400 3.98417e-14 0)
(400 3.65123e-14 0)
(400 1.81807e-14 0)
(400 -1.94016e-15 0)
(400 3.65019e-16 0)
(400 1.29574e-15 0)
(400 3.65715e-15 0)
(400 4.86553e-15 0)
(400 1.08726e-14 0)
(400 8.81535e-15 0)
(400 5.83793e-15 0)
(400 5.79377e-16 0)
(400 2.99977e-15 0)
(400 3.80742e-15 0)
(400 1.68813e-15 0)
(400 1.9394e-14 0)
(400 3.84611e-14 0)
(400 4.13567e-14 0)
(400 4.69871e-14 0)
(400 4.68827e-14 0)
(400 5.57497e-14 0)
(400 5.80705e-14 0)
(400 4.26988e-14 0)
(400 4.43647e-14 0)
(400 3.07621e-14 0)
(400 2.41203e-14 0)
(400 3.5223e-14 0)
(400 3.76489e-14 0)
(400 4.30402e-14 0)
(400 3.13157e-14 0)
(400 1.82284e-14 0)
(400 -6.95158e-15 0)
(400 -4.45747e-14 0)
(400 -4.00116e-14 0)
(400 -4.41921e-14 0)
(400 -4.67941e-14 0)
(400 -3.7098e-14 0)
(400 -2.98692e-14 0)
(400 -2.81983e-14 0)
(400 -4.67481e-14 0)
(400 -5.14938e-14 0)
(400 -5.53728e-14 0)
(400 -7.15815e-14 0)
(400 -6.58414e-14 0)
(400 -6.72291e-14 0)
(400 -6.51351e-14 0)
(400 -5.55373e-14 0)
(400 -3.48942e-14 0)
(400 -1.62158e-14 0)
(400 -1.21798e-14 0)
(400 -4.32231e-14 0)
(400 -4.7624e-14 0)
(400 -5.06107e-14 0)
(400 -5.75367e-14 0)
(400 -7.08818e-14 0)
(400 -6.27811e-14 0)
(400 -5.8861e-14 0)
(400 -5.13791e-14 0)
(400 -2.07342e-14 0)
(400 5.5136e-15 0)
(400 5.5201e-15 0)
(400 8.40614e-15 0)
(400 2.91851e-14 0)
(400 3.36676e-14 0)
(400 4.0598e-14 0)
(400 6.04954e-14 0)
(400 6.46649e-14 0)
(400 7.34479e-14 0)
(400 7.57717e-14 0)
(400 6.70616e-14 0)
(400 5.4192e-14 0)
(400 4.55579e-14 0)
(400 3.03056e-14 0)
(400 1.60391e-14 0)
(400 2.74021e-14 0)
(400 3.34265e-14 0)
(400 2.74268e-14 0)
(400 1.50302e-14 0)
(400 1.28486e-14 0)
(400 2.90271e-14 0)
(400 2.45024e-14 0)
(400 2.09113e-14 0)
(400 1.66045e-14 0)
(400 1.65897e-14 0)
(400 1.53869e-14 0)
(400 1.63088e-14 0)
(400 1.66201e-14 0)
(400 1.16973e-14 0)
(400 1.71698e-14 0)
(400 2.76295e-14 0)
(400 5.11182e-14 0)
(400 6.21099e-14 0)
(400 6.48045e-14 0)
(400 8.29662e-14 0)
(400 8.27513e-14 0)
(400 6.35659e-14 0)
(400 3.87528e-14 0)
(400 4.48077e-14 0)
(400 4.59473e-14 0)
(400 3.20381e-14 0)
(400 1.94548e-14 0)
(400 4.12228e-15 0)
(400 -9.74198e-16 0)
(400 5.96284e-15 0)
(400 -5.17107e-15 0)
(400 -1.37513e-14 0)
(400 -2.68374e-14 0)
(400 -2.33041e-14 0)
(400 -2.988e-14 0)
(400 -3.23249e-14 0)
(400 -3.24332e-14 0)
(400 -4.40432e-14 0)
(400 -4.36037e-14 0)
(400 -1.98406e-14 0)
(400 -7.50415e-15 0)
(400 3.1552e-14 0)
(400 4.86125e-14 0)
(400 6.36134e-14 0)
(400 7.39422e-14 0)
(400 4.50701e-14 0)
(400 6.42125e-14 0)
(400 6.41273e-14 0)
(400 6.4474e-14 0)
(400 6.72168e-14 0)
(400 3.40403e-14 0)
(400 2.9562e-14 0)
(400 2.97288e-14 0)
(400 4.72607e-14 0)
(400 6.23817e-14 0)
(400 7.91791e-14 0)
(400 7.90992e-14 0)
(400 6.6348e-14 0)
(400 4.36758e-14 0)
(400 5.68592e-14 0)
(400 8.04957e-14 0)
(400 8.39356e-14 0)
(400 7.21428e-14 0)
(400 6.53471e-14 0)
(400 7.35526e-14 0)
(400 6.07543e-14 0)
(400 5.57685e-14 0)
(400 5.23132e-14 0)
(400 5.5571e-14 0)
(400 4.60916e-14 0)
(400 3.82402e-14 0)
(400 3.73688e-14 0)
(400 2.99869e-14 0)
(400 2.01849e-14 0)
(400 7.52412e-15 0)
(400 -7.91801e-15 0)
(400 -4.38226e-15 0)
(400 9.00005e-15 0)
(400 1.28522e-14 0)
(400 1.19182e-14 0)
(400 1.98337e-15 0)
(400 1.78155e-14 0)
(400 1.31705e-14 0)
(400 2.34233e-14 0)
(400 3.0494e-14 0)
(400 1.97663e-14 0)
(400 2.92087e-14 0)
(400 2.06359e-14 0)
(400 2.62665e-14 0)
(400 1.44413e-14 0)
(400 6.71233e-15 0)
(400 3.13355e-15 0)
(400 -2.03861e-14 0)
(400 -2.33921e-14 0)
(400 -3.57779e-14 0)
(400 -4.65316e-14 0)
(400 -3.34394e-14 0)
(400 -1.07407e-14 0)
(400 6.15975e-15 0)
(400 5.09999e-15 0)
(400 1.99836e-14 0)
(400 3.80548e-14 0)
(400 5.63384e-14 0)
(400 5.55681e-14 0)
(400 5.94678e-14 0)
(400 6.14461e-14 0)
(400 6.1035e-14 0)
(400 4.99218e-14 0)
(400 3.28443e-14 0)
(400 6.68016e-15 0)
(400 -1.87377e-14 0)
(400 -2.47306e-14 0)
(400 -2.78768e-14 0)
(400 -2.00724e-14 0)
(400 -2.029e-14 0)
(400 -1.19825e-14 0)
(400 5.98409e-15 0)
(400 2.73242e-14 0)
(400 2.17159e-14 0)
(400 8.371e-15 0)
(400 5.45417e-15 0)
(400 1.55691e-14 0)
(400 6.91534e-15 0)
(400 -8.86921e-16 0)
(400 -8.96623e-15 0)
(400 4.04151e-15 0)
(400 1.9658e-14 0)
(400 -1.43984e-15 0)
(400 -3.21277e-14 0)
(400 -3.85099e-14 0)
(400 -3.47211e-14 0)
(400 -2.38255e-14 0)
(400 -1.58423e-14 0)
(400 5.15288e-16 0)
(400 6.24898e-15 0)
(400 -5.65687e-16 0)
(400 8.37863e-15 0)
(400 1.97487e-14 0)
(400 9.53297e-15 0)
(400 1.02823e-14 0)
(400 3.11957e-14 0)
(400 5.28454e-14 0)
(400 6.20303e-14 0)
(400 5.16067e-14 0)
(400 6.87156e-14 0)
(400 6.99549e-14 0)
(400 6.81004e-14 0)
(400 7.01742e-14 0)
(400 5.19768e-14 0)
(400 3.21938e-14 0)
(400 4.06682e-14 0)
(400 6.6608e-14 0)
(400 6.71735e-14 0)
(400 6.49142e-14 0)
(400 7.68312e-14 0)
(400 7.5874e-14 0)
(400 6.27607e-14 0)
(400 5.67124e-14 0)
(400 5.24444e-14 0)
(400 5.08804e-14 0)
(400 6.72803e-14 0)
(400 6.8499e-14 0)
(400 7.69165e-14 0)
(400 7.68546e-14 0)
(400 7.237e-14 0)
(400 5.94255e-14 0)
(400 4.75821e-14 0)
(400 2.39825e-14 0)
(400 -1.11185e-14 0)
(400 -1.91672e-14 0)
(400 -1.05208e-14 0)
(400 -9.89424e-15 0)
(400 -1.42589e-14 0)
(400 -2.5604e-14 0)
(400 -3.03092e-14 0)
(400 -1.13189e-14 0)
(400 -1.69839e-14 0)
(400 -1.36327e-14 0)
(400 -1.8022e-14 0)
(400 -3.11797e-14 0)
(400 -5.32916e-14 0)
(400 -5.90178e-14 0)
(400 -5.66317e-14 0)
(400 -5.31615e-14 0)
(400 -4.21579e-14 0)
(400 -3.01485e-14 0)
(400 -1.27563e-14 0)
(400 7.97283e-15 0)
(400 2.59574e-14 0)
(400 3.29104e-14 0)
(400 3.56282e-14 0)
(400 4.92496e-14 0)
(400 5.87103e-14 0)
(400 6.73383e-14 0)
(400 8.96373e-14 0)
(400 8.72344e-14 0)
(400 6.75546e-14 0)
(400 5.38417e-14 0)
(400 3.04891e-14 0)
(400 1.80333e-14 0)
(400 4.37068e-15 0)
(400 9.15323e-15 0)
(400 -5.40034e-15 0)
(400 -2.5461e-14 0)
(400 -1.92835e-14 0)
(400 -2.33798e-14 0)
(400 -3.18328e-14 0)
(400 -3.61205e-14 0)
(400 -5.122e-14 0)
(400 -5.29315e-14 0)
(400 -5.56457e-14 0)
(400 -5.57637e-14 0)
(400 -3.80955e-14 0)
(400 -2.38485e-14 0)
(400 -4.37026e-15 0)
(400 9.07322e-15 0)
(400 3.03383e-14 0)
(400 3.94601e-14 0)