TITLE = "Visualization of the volumetric solution"
VARIABLES = "x","y","Density","Momentum_x","Momentum_y","Energy","Pressure","Temperature","Mach","C<sub>p</sub>","Roe_Dissipation"
ZONE NODES= 2400, ELEMENTS= 2291, DATAPACKING=POINT, ZONETYPE=FEQUADRILATERAL
0.000000e+00	1.250000e+00	1.225040e+00	4.185987e+01	1.652603e-01	2.540131e+05	1.013192e+05	2.881189e+02	1.004191e-01	-8.231949e-03	0.000000e+00	
0.000000e+00	1.218354e+00	1.225039e+00	4.185987e+01	1.646820e-01	2.540130e+05	1.013191e+05	2.881189e+02	1.004192e-01	-8.283623e-03	0.000000e+00	
3.448276e-02	1.218354e+00	1.225036e+00	4.185898e+01	1.150879e+00	2.540125e+05	1.013187e+05	2.881185e+02	1.004545e-01	-8.853896e-03	0.000000e+00	
3.448276e-02	1.250000e+00	1.225036e+00	4.185916e+01	1.150750e+00	2.540124e+05	1.013187e+05	2.881185e+02	1.004549e-01	-8.888276e-03	0.000000e+00	
0.000000e+00	1.186709e+00	1.225040e+00	4.185991e+01	1.644362e-01	2.540131e+05	1.013191e+05	2.881189e+02	1.004192e-01	-8.249097e-03	0.000000e+00	
3.448276e-02	1.186709e+00	1.225036e+00	4.185904e+01	1.150817e+00	2.540125e+05	1.013187e+05	2.881185e+02	1.004546e-01	-8.873507e-03	0.000000e+00	
0.000000e+00	1.155063e+00	1.225040e+00	4.185988e+01	1.642974e-01	2.540131e+05	1.013192e+05	2.881189e+02	1.004191e-01	-8.238417e-03	0.000000e+00	
3.448276e-02	1.155063e+00	1.225036e+00	4.185909e+01	1.150797e+00	2.540125e+05	1.013187e+05	2.881185e+02	1.004548e-01	-8.876953e-03	0.000000e+00	
0.000000e+00	1.123418e+00	1.225040e+00	4.185987e+01	1.642301e-01	2.540131e+05	1.013192e+05	2.881189e+02	1.004191e-01	-8.235788e-03	0.000000e+00	
3.448276e-02	1.123418e+00	1.225036e+00	4.185911e+01	1.150785e+00	2.540124e+05	1.013187e+05	2.881185e+02	1.004548e-01	-8.881543e-03	0.000000e+00	
0.000000e+00	1.091772e+00	1.225040e+00	4.185986e+01	1.642020e-01	2.540131e+05	1.013192e+05	2.881189e+02	1.004191e-01	-8.233985e-03	0.000000e+00	
3.448276e-02	1.091772e+00	1.225036e+00	4.185913e+01	1.150787e+00	2.540124e+05	1.013187e+05	2.881185e+02	1.004549e-01	-8.882889e-03	0.000000e+00	
0.000000e+00	1.060127e+00	1.225040e+00	4.185986e+01	1.641873e-01	2.540131e+05	1.013192e+05	2.881189e+02	1.004191e-01	-8.233505e-03	0.000000e+00	
3.448276e-02	1.060127e+00	1.225036e+00	4.185914e+01	1.150788e+00	2.540124e+05	1.013187e+05	2.881185e+02	1.004549e-01	-8.884428e-03	0.000000e+00	
0.000000e+00	1.028481e+00	1.225040e+00	4.185987e+01	1.641794e-01	2.540131e+05	1.013192e+05	2.881189e+02	1.004191e-01	-8.233086e-03	0.000000e+00	
3.448276e-02	1.028481e+00	1.225036e+00	4.185915e+01	1.150790e+00	2.540124e+05	1.013187e+05	2.881185e+02	1.004549e-01	-8.884980e-03	0.000000e+00	
0.000000e+00	9.968354e-01	1.225040e+00	4.185987e+01	1.641747e-01	2.540131e+05	1.013192e+05	2.881189e+02	1.004191e-01	-8.232916e-03	0.000000e+00	
3.448276e-02	9.968354e-01	1.225036e+00	4.185915e+01	1.150791e+00	2.540124e+05	1.013187e+05	2.881185e+02	1.004549e-01	-8.885496e-03	0.000000e+00	
0.000000e+00	9.651899e-01	1.225040e+00	4.185987e+01	1.641723e-01	2.540131e+05	1.013192e+05	2.881189e+02	1.004191e-01	-8.232772e-03	0.000000e+00	
3.448276e-02	9.651899e-01	1.225036e+00	4.185916e+01	1.150791e+00	2.540124e+05	1.013187e+05	2.881185e+02	1.004549e-01	-8.885720e-03	0.000000e+00	
0.000000e+00	9.335443e-01	1.225040e+00	4.185988e+01	1.641712e-01	2.540131e+05	1.013192e+05	2.881189e+02	1.004191e-01	-8.232716e-03	0.000000e+00	
3.448276e-02	9.335443e-01	1.225036e+00	4.185916e+01	1.150792e+00	2.540124e+05	1.013187e+05	2.881185e+02	1.004549e-01	-8.885908e-03	0.000000e+00	
0.000000e+00	9.018987e-01	1.225040e+00	4.185988e+01	1.641708e-01	2.540131e+05	1.013192e+05	2.881189e+02	1.004191e-01	-8.232676e-03	0.000000e+00	
3.448276e-02	9.018987e-01	1.225036e+00	4.185916e+01	1.150793e+00	2.540124e+05	1.013187e+05	2.881185e+02	1.004550e-01	-8.886000e-03	0.000000e+00	
0.000000e+00	8.702532e-01	1.225040e+00	4.185988e+01	1.641707e-01	2.540131e+05	1.013192e+05	2.881189e+02	1.004191e-01	-8.232663e-03	0.000000e+00	
3.448276e-02	8.702532e-01	1.225036e+00	4.185916e+01	1.150793e+00	2.540124e+05	1.013187e+05	2.881185e+02	1.004550e-01	-8.886071e-03	0.000000e+00	
0.000000e+00	8.386076e-01	1.225040e+00	4.185988e+01	1.641708e-01	2.540131e+05	1.013192e+05	2.881189e+02	1.004191e-01	-8.232653e-03	0.000000e+00	
3.448276e-02	8.386076e-01	1.225036e+00	4.185916e+01	1.150793e+00	2.540124e+05	1.013187e+05	2.881185e+02	1.004550e-01	-8.886108e-03	0.000000e+00	
0.000000e+00	8.069620e-01	1.225040e+00	4.185988e+01	1.641708e-01	2.540131e+05	1.013192e+05	2.881189e+02	1.004191e-01	-8.232651e-03	0.000000e+00	
3.448276e-02	8.069620e-01	1.225036e+00	4.185916e+01	1.150794e+00	2.540124e+05	1.013187e+05	2.881185e+02	1.004550e-01	-8.886135e-03	0.000000e+00	
0.000000e+00	7.753165e-01	1.225040e+00	4.185988e+01	1.641709e-01	2.540131e+05	1.013192e+05	2.881189e+02	1.004191e-01	-8.232649e-03	0.000000e+00	
3.448276e-02	7.753165e-01	1.225036e+00	4.185916e+01	1.150794e+00	2.540124e+05	1.013187e+05	2.881185e+02	1.004550e-01	-8.886150e-03	0.000000e+00	
0.000000e+00	7.436709e-01	1.225040e+00	4.185988e+01	1.641710e-01	2.540131e+05	1.013192e+05	2.881189e+02	1.004191e-01	-8.232649e-03	0.000000e+00	
3.448276e-02	7.436709e-01	1.225036e+00	4.185916e+01	1.150794e+00	2.540124e+05	1.013187e+05	2.881185e+02	1.004550e-01	-8.886161e-03	0.000000e+00	
0.000000e+00	7.120253e-01	1.225040e+00	4.185988e+01	1.641711e-01	2.540131e+05	1.013192e+05	2.881189e+02	1.004191e-01	-8.232649e-03	0.000000e+00	
3.448276e-02	7.120253e-01	1.225036e+00	4.185916e+01	1.150794e+00	2.540124e+05	1.013187e+05	2.881185e+02	1.004550e-01	-8.886166e-03	0.000000e+00	
0.000000e+00	6.803797e-01	1.225040e+00	4.185988e+01	1.641712e-01	2.540131e+05	1.013192e+05	2.881189e+02	1.004191e-01	-8.232650e-03	0.000000e+00	
3.448276e-02	6.803797e-01	1.225036e+00	4.185916e+01	1.150794e+00	2.540124e+05	1.013187e+05	2.881185e+02	1.004550e-01	-8.886170e-03	0.000000e+00	
0.000000e+00	6.487342e-01	1.225040e+00	4.185988e+01	1.641713e-01	2.540131e+05	1.013192e+05	2.881189e+02	1.004191e-01	-8.232650e-03	0.000000e+00	
3.448276e-02	6.487342e-01	1.225036e+00	4.185916e+01	1.150794e+00	2.540124e+05	1.013187e+05	2.881185e+02	1.004550e-01	-8.886172e-03	0.000000e+00	
0.000000e+00	6.170886e-01	1.225040e+00	4.185988e+01	1.641714e-01	2.540131e+05	1.013192e+05	2.881189e+02	1.004191e-01	-8.232650e-03	0.000000e+00	
3.448276e-02	6.170886e-01	1.225036e+00	4.185916e+01	1.150795e+00	2.540124e+05	1.013187e+05	2.881185e+02	1.004550e-01	-8.886173e-03	0.000000e+00	
0.000000e+00	5.854430e-01	1.225040e+00	4.185988e+01	1.641715e-01	2.540131e+05	1.013192e+05	2.881189e+02	1.004191e-01	-8.232650e-03	0.000000e+00	
3.448276e-02	5.854430e-01	1.225036e+00	4.185916e+01	1.150795e+00	2.540124e+05	1.013187e+05	2.881185e+02	1.004550e-01	-8.886174e-03	0.000000e+00	
0.000000e+00	5.537975e-01	1.225040e+00	4.185988e+01	1.641715e-01	2.540131e+05	1.013192e+05	2.881189e+02	1.004191e-01	-8.232651e-03	0.000000e+00	
3.448276e-02	5.537975e-01	1.225036e+00	4.185916e+01	1.150795e+00	2.540124e+05	1.013187e+05	2.881185e+02	1.004550e-01	-8.886174e-03	0.000000e+00	
0.000000e+00	5.221519e-01	1.225040e+00	4.185988e+01	1.641716e-01	2.540131e+05	1.013192e+05	2.881189e+02	1.004191e-01	-8.232650e-03	0.000000e+00	
3.448276e-02	5.221519e-01	1.225036e+00	4.185916e+01	1.150795e+00	2.540124e+05	1.013187e+05	2.881185e+02	1.004550e-01	-8.886174e-03	0.000000e+00	
0.000000e+00	4.905063e-01	1.225040e+00	4.185988e+01	1.641717e-01	2.540131e+05	1.013192e+05	2.881189e+02	1.004191e-01	-8.232650e-03	0.000000e+00	
3.448276e-02	4.905063e-01	1.225036e+00	4.185916e+01	1.150795e+00	2.540124e+05	1.013187e+05	2.881185e+02	1.004550e-01	-8.886174e-03	0.000000e+00	
0.000000e+00	4.588608e-01	1.225040e+00	4.185988e+01	1.641717e-01	2.540131e+05	1.013192e+05	2.881189e+02	1.004191e-01	-8.232650e-03	0.000000e+00	
3.448276e-02	4.588608e-01	1.225036e+00	4.185916e+01	1.150795e+00	2.540124e+05	1.013187e+05	2.881185e+02	1.004550e-01	-8.886173e-03	0.000000e+00	
0.000000e+00	4.272152e-01	1.225040e+00	4.185988e+01	1.641717e-01	2.540131e+05	1.013192e+05	2.881189e+02	1.004191e-01	-8.232650e-03	0.000000e+00	
3.448276e-02	4.272152e-01	1.225036e+00	4.185916e+01	1.150795e+00	2.540124e+05	1.013187e+05	2.881185e+02	1.004550e-01	-8.886173e-03	0.000000e+00	
0.000000e+00	3.955696e-01	1.225040e+00	4.185988e+01	1.641718e-01	2.540131e+05	1.013192e+05	2.881189e+02	1.004191e-01	-8.232650e-03	0.000000e+00	
3.448276e-02	3.955696e-01	1.225036e+00	4.185916e+01	1.150795e+00	2.540124e+05	1.013187e+05	2.881185e+02	1.004550e-01	-8.886173e-03	0.000000e+00	
0.000000e+00	3.639241e-01	1.225040e+00	4.185988e+01	1.641718e-01	2.540131e+05	1.013192e+05	2.881189e+02	1.004191e-01	-8.232650e-03	0.000000e+00	
3.448276e-02	3.639241e-01	1.225036e+00	4.185916e+01	1.150795e+00	2.540124e+05	1.013187e+05	2.881185e+02	1.004550e-01	-8.886172e-03	0.000000e+00	
0.000000e+00	3.322785e-01	1.225040e+00	4.185988e+01	1.641718e-01	2.540131e+05	1.013192e+05	2.881189e+02	1.004191e-01	-8.232649e-03	0.000000e+00	
3.448276e-02	3.322785e-01	1.225036e+00	4.185916e+01	1.150795e+00	2.540124e+05	1.013187e+05	2.881185e+02	1.004550e-01	-8.886172e-03	0.000000e+00	
0.000000e+00	3.006329e-01	1.225040e+00	4.185988e+01	1.641718e-01	2.540131e+05	1.013192e+05	2.881189e+02	1.004191e-01	-8.232649e-03	0.000000e+00	
3.448276e-02	3.006329e-01	1.225036e+00	4.185916e+01	1.150795e+00	2.540124e+05	1.013187e+05	2.881185e+02	1.004550e-01	-8.886172e-03	0.000000e+00	
0.000000e+00	2.689873e-01	1.225040e+00	4.185988e+01	1.641719e-01	2.540131e+05	1.013192e+05	2.881189e+02	1.004191e-01	-8.232649e-03	0.000000e+00	
3.448276e-02	2.689873e-01	1.225036e+00	4.185916e+01	1.150795e+00	2.540124e+05	1.013187e+05	2.881185e+02	1.004550e-01	-8.886171e-03	0.000000e+00	
0.000000e+00	2.373418e-01	1.225040e+00	4.185988e+01	1.641719e-01	2.540131e+05	1.013192e+05	2.881189e+02	1.004191e-01	-8.232649e-03	0.000000e+00	
3.448276e-02	2.373418e-01	1.225036e+00	4.185916e+01	1.150795e+00	2.540124e+05	1.013187e+05	2.881185e+02	1.004550e-01	-8.886171e-03	0.000000e+00	
0.000000e+00	2.056962e-01	1.225040e+00	4.185988e+01	1.641719e-01	2.540131e+05	1.013192e+05	2.881189e+02	1.004191e-01	-8.232649e-03	0.000000e+00	
3.448276e-02	2.056962e-01	1.225036e+00	4.185916e+01	1.150795e+00	2.540124e+05	1.013187e+05	2.881185e+02	1.004550e-01	-8.886171e-03	0.000000e+00	
0.000000e+00	1.740506e-01	1.225040e+00	4.185988e+01	1.641719e-01	2.540131e+05	1.013192e+05	2.881189e+02	1.004191e-01	-8.232649e-03	0.000000e+00	
3.448276e-02	1.740506e-01	1.225036e+00	4.185916e+01	1.150795e+00	2.540124e+05	1.013187e+05	2.881185e+02	1.004550e-01	-8.886171e-03	0.000000e+00	
0.000000e+00	1.424051e-01	1.225040e+00	4.185988e+01	1.641719e-01	2.540131e+05	1.013192e+05	2.881189e+02	1.004191e-01	-8.232649e-03	0.000000e+00	
3.448276e-02	1.424051e-01	1.225036e+00	4.185916e+01	1.150795e+00	2.540124e+05	1.013187e+05	2.881185e+02	1.004550e-01	-8.886171e-03	0.000000e+00	
0.000000e+00	1.107595e-01	1.225040e+00	4.185988e+01	1.641720e-01	2.540131e+05	1.013192e+05	2.881189e+02	1.004191e-01	-8.232649e-03	0.000000e+00	
3.448276e-02	1.107595e-01	1.225036e+00	4.185916e+01	1.150795e+00	2.540124e+05	1.013187e+05	2.881185e+02	1.004550e-01	-8.886170e-03	0.000000e+00	
0.000000e+00	7.911392e-02	1.225040e+00	4.185988e+01	1.641720e-01	2.540131e+05	1.013192e+05	2.881189e+02	1.004191e-01	-8.232649e-03	0.000000e+00	
3.448276e-02	7.911392e-02	1.225036e+00	4.185916e+01	1.150795e+00	2.540124e+05	1.013187e+05	2.881185e+02	1.004550e-01	-8.886170e-03	0.000000e+00	
0.000000e+00	4.746835e-02	1.225040e+00	4.185988e+01	1.641720e-01	2.540131e+05	1.013192e+05	2.881189e+02	1.004191e-01	-8.232648e-03	0.000000e+00	
3.448276e-02	4.746835e-02	1.225036e+00	4.185916e+01	1.150795e+00	2.540124e+05	1.013187e+05	2.881185e+02	1.004550e-01	-8.886170e-03	0.000000e+00	
0.000000e+00	1.582278e-02	1.225040e+00	4.185988e+01	1.641720e-01	2.540131e+05	1.013192e+05	2.881189e+02	1.004191e-01	-8.232648e-03	0.000000e+00	
3.448276e-02	1.582278e-02	1.225036e+00	4.185916e+01	1.150795e+00	2.540124e+05	1.013187e+05	2.881185e+02	1.004550e-01	-8.886170e-03	0.000000e+00	
0.000000e+00	-1.582278e-02	1.225040e+00	4.185988e+01	1.641720e-01	2.540131e+05	1.013192e+05	2.881189e+02	1.004191e-01	-8.232648e-03	0.000000e+00	
3.448276e-02	-1.582278e-02	1.225036e+00	4.185916e+01	1.150795e+00	2.540124e+05	1.013187e+05	2.881185e+02	1.004550e-01	-8.886170e-03	0.000000e+00	
0.000000e+00	-4.746835e-02	1.225040e+00	4.185988e+01	1.641720e-01	2.540131e+05	1.013192e+05	2.881189e+02	1.004191e-01	-8.232648e-03	0.000000e+00	
3.448276e-02	-4.746835e-02	1.225036e+00	4.185916e+01	1.150795e+00	2.540124e+05	1.013187e+05	2.881185e+02	1.004550e-01	-8.886170e-03	0.000000e+00	
0.000000e+00	-7.911392e-02	1.225040e+00	4.185988e+01	1.641721e-01	2.540131e+05	1.013192e+05	2.881189e+02	1.004191e-01	-8.232648e-03	0.000000e+00	
3.448276e-02	-7.911392e-02	1.225036e+00	4.185916e+01	1.150795e+00	2.540124e+05	1.013187e+05	2.881185e+02	1.004550e-01	-8.886170e-03	0.000000e+00	
0.000000e+00	-1.107595e-01	1.225040e+00	4.185988e+01	1.641721e-01	2.540131e+05	1.013192e+05	2.881189e+02	1.004191e-01	-8.232648e-03	0.000000e+00	
3.448276e-02	-1.107595e-01	1.225036e+00	4.185916e+01	1.150795e+00	2.540124e+05	1.013187e+05	2.881185e+02	1.004550e-01	-8.886170e-03	0.000000e+00	
0.000000e+00	-1.424051e-01	1.225040e+00	4.185988e+01	1.641721e-01	2.540131e+05	1.013192e+05	2.881189e+02	1.004191e-01	-8.232648e-03	0.000000e+00	
3.448276e-02	-1.424051e-01	1.225036e+00	4.185916e+01	1.150795e+00	2.540124e+05	1.013187e+05	2.881185e+02	1.004550e-01	-8.886170e-03	0.000000e+00	
0.000000e+00	-1.740506e-01	1.225040e+00	4.185988e+01	1.641721e-01	2.540131e+05	1.013192e+05	2.881189e+02	1.004191e-01	-8.232648e-03	0.000000e+00	
3.448276e-02	-1.740506e-01	1.225036e+00	4.185916e+01	1.150795e+00	2.540124e+05	1.013187e+05	2.881185e+02	1.004550e-01	-8.886170e-03	0.000000e+00	
0.000000e+00	-2.056962e-01	1.225040e+00	4.185988e+01	1.641721e-01	2.540131e+05	1.013192e+05	2.881189e+02	1.004191e-01	-8.232648e-03	0.000000e+00	
3.448276e-02	-2.056962e-01	1.225036e+00	4.185916e+01	1.150795e+00	2.540124e+05	1.013187e+05	2.881185e+02	1.004550e-01	-8.886170e-03	0.000000e+00	
0.000000e+00	-2.373418e-01	1.225040e+00	4.185988e+01	1.641721e-01	2.540131e+05	1.013192e+05	2.881189e+02	1.004191e-01	-8.232648e-03	0.000000e+00	
3.448276e-02	-2.373418e-01	1.225036e+00	4.185916e+01	1.150795e+00	2.540124e+05	1.013187e+05	2.881185e+02	1.004550e-01	-8.886170e-03	0.000000e+00	
0.000000e+00	-2.689873e-01	1.225040e+00	4.185988e+01	1.641721e-01	2.540131e+05	1.013192e+05	2.881189e+02	1.004191e-01	-8.232648e-03	0.000000e+00	
3.448276e-02	-2.689873e-01	1.225036e+00	4.185916e+01	1.150795e+00	2.540124e+05	1.013187e+05	2.881185e+02	1.004550e-01	-8.886170e-03	0.000000e+00	
0.000000e+00	-3.006329e-01	1.225040e+00	4.185988e+01	1.641722e-01	2.540131e+05	1.013192e+05	2.881189e+02	1.004191e-01	-8.232648e-03	0.000000e+00	
3.448276e-02	-3.006329e-01	1.225036e+00	4.185916e+01	1.150795e+00	2.540124e+05	1.013187e+05	2.881185e+02	1.004550e-01	-8.886170e-03	0.000000e+00	
0.000000e+00	-3.322785e-01	1.225040e+00	4.185988e+01	1.641722e-01	2.540131e+05	1.013192e+05	2.881189e+02	1.004191e-01	-8.232648e-03	0.000000e+00	
3.448276e-02	-3.322785e-01	1.225036e+00	4.185916e+01	1.150795e+00	2.540124e+05	1.013187e+05	2.881185e+02	1.004550e-01	-8.886170e-03	0.000000e+00	
0.000000e+00	-3.639241e-01	1.225040e+00	4.185988e+01	1.641722e-01	2.540131e+05	1.013192e+05	2.881189e+02	1.004191e-01	-8.232648e-03	0.000000e+00	
3.448276e-02	-3.639241e-01	1.225036e+00	4.185916e+01	1.150795e+00	2.540124e+05	1.013187e+05	2.881185e+02	1.004550e-01	-8.886170e-03	0.000000e+00	
0.000000e+00	-3.955696e-01	1.225040e+00	4.185988e+01	1.641722e-01	2.540131e+05	1.013192e+05	2.881189e+02	1.004191e-01	-8.232648e-03	0.000000e+00	
3.448276e-02	-3.955696e-01	1.225036e+00	4.185916e+01	1.150795e+00	2.540124e+05	1.013187e+05	2.881185e+02	1.004550e-01	-8.886170e-03	0.000000e+00	
0.000000e+00	-4.272152e-01	1.225040e+00	4.185988e+01	1.641722e-01	2.540131e+05	1.013192e+05	2.881189e+02	1.004191e-01	-8.232648e-03	0.000000e+00	
3.448276e-02	-4.272152e-01	1.225036e+00	4.185916e+01	1.150795e+00	2.540124e+05	1.013187e+05	2.881185e+02	1.004550e-01	-8.886170e-03	0.000000e+00	
0.000000e+00	-4.588608e-01	1.225040e+00	4.185988e+01	1.641722e-01	2.540131e+05	1.013192e+05	2.881189e+02	1.004191e-01	-8.232648e-03	0.000000e+00	
3.448276e-02	-4.588608e-01	1.225036e+00	4.185916e+01	1.150795e+00	2.540124e+05	1.013187e+05	2.881185e+02	1.004550e-01	-8.886170e-03	0.000000e+00	
0.000000e+00	-4.905063e-01	1.225040e+00	4.185988e+01	1.641722e-01	2.540131e+05	1.013192e+05	2.881189e+02	1.004191e-01	-8.232648e-03	0.000000e+00	
3.448276e-02	-4.905063e-01	1.225036e+00	4.185916e+01	1.150795e+00	2.540124e+05	1.013187e+05	2.881185e+02	1.004550e-01	-8.886170e-03	0.000000e+00	
0.000000e+00	-5.221519e-01	1.225040e+00	4.185988e+01	1.641723e-01	2.540131e+05	1.013192e+05	2.881189e+02	1.004191e-01	-8.232648e-03	0.000000e+00	
3.448276e-02	-5.221519e-01	1.225036e+00	4.185916e+01	1.150795e+00	2.540124e+05	1.013187e+05	2.881185e+02	1.004550e-01	-8.886170e-03	0.000000e+00	
0.000000e+00	-5.537975e-01	1.225040e+00	4.185988e+01	1.641723e-01	2.540131e+05	1.013192e+05	2.881189e+02	1.004191e-01	-8.232648e-03	0.000000e+00	
3.448276e-02	-5.537975e-01	1.225036e+00	4.185916e+01	1.150795e+00	2.540124e+05	1.013187e+05	2.881185e+02	1.004550e-01	-8.886171e-03	0.000000e+00	
0.000000e+00	-5.854430e-01	1.225040e+00	4.185988e+01	1.641723e-01	2.540131e+05	1.013192e+05	2.881189e+02	1.004191e-01	-8.232648e-03	0.000000e+00	
3.448276e-02	-5.854430e-01	1.225036e+00	4.185916e+01	1.150795e+00	2.540124e+05	1.013187e+05	2.881185e+02	1.004550e-01	-8.886172e-03	0.000000e+00	
0.000000e+00	-6.170886e-01	1.225040e+00	4.185988e+01	1.641723e-01	2.540131e+05	1.013192e+05	2.881189e+02	1.004191e-01	-8.232649e-03	0.000000e+00	
3.448276e-02	-6.170886e-01	1.225036e+00	4.185916e+01	1.150795e+00	2.540124e+05	1.013187e+05	2.881185e+02	1.004550e-01	-8.886173e-03	0.000000e+00	
0.000000e+00	-6.487342e-01	1.225040e+00	4.185988e+01	1.641723e-01	2.540131e+05	1.013192e+05	2.881189e+02	1.004191e-01	-8.232649e-03	0.000000e+00	
3.448276e-02	-6.487342e-01	1.225036e+00	4.185916e+01	1.150795e+00	2.540124e+05	1.013187e+05	2.881185e+02	1.004550e-01	-8.886175e-03	0.000000e+00	
0.000000e+00	-6.803797e-01	1.225040e+00	4.185988e+01	1.641723e-01	2.540131e+05	1.013192e+05	2.881189e+02	1.004191e-01	-8.232649e-03	0.000000e+00	
3.448276e-02	-6.803797e-01	1.225036e+00	4.185916e+01	1.150795e+00	2.540124e+05	1.013187e+05	2.881185e+02	1.004550e-01	-8.886177e-03	0.000000e+00	
0.000000e+00	-7.120253e-01	1.225040e+00	4.185988e+01	1.641723e-01	2.540131e+05	1.013192e+05	2.881189e+02	1.004191e-01	-8.232649e-03	0.000000e+00	
3.448276e-02	-7.120253e-01	1.225036e+00	4.185916e+01	1.150795e+00	2.540124e+05	1.013187e+05	2.881185e+02	1.004550e-01	-8.886182e-03	0.000000e+00	
0.000000e+00	-7.436709e-01	1.225040e+00	4.185988e+01	1.641723e-01	2.540131e+05	1.013192e+05	2.881189e+02	1.004191e-01	-8.232649e-03	0.000000e+00	
3.448276e-02	-7.436709e-01	1.225036e+00	4.185916e+01	1.150795e+00	2.540124e+05	1.013187e+05	2.881185e+02	1.004550e-01	-8.886189e-03	0.000000e+00	
0.000000e+00	-7.753165e-01	1.225040e+00	4.185988e+01	1.641723e-01	2.540131e+05	1.013192e+05	2.881189e+02	1.004191e-01	-8.232649e-03	0.000000e+00	
3.448276e-02	-7.753165e-01	1.225036e+00	4.185916e+01	1.150795e+00	2.540124e+05	1.013187e+05	2.881185e+02	1.004550e-01	-8.886200e-03	0.000000e+00	
0.000000e+00	-8.069620e-01	1.225040e+00	4.185988e+01	1.641724e-01	2.540131e+05	1.013192e+05	2.881189e+02	1.004191e-01	-8.232646e-03	0.000000e+00	
3.448276e-02	-8.069620e-01	1.225036e+00	4.185916e+01	1.150795e+00	2.540124e+05	1.013187e+05	2.881185e+02	1.004550e-01	-8.886216e-03	0.000000e+00	
0.000000e+00	-8.386076e-01	1.225040e+00	4.185988e+01	1.641725e-01	2.540131e+05	1.013192e+05	2.881189e+02	1.004191e-01	-8.232641e-03	0.000000e+00	
3.448276e-02	-8.386076e-01	1.225036e+00	4.185916e+01	1.150795e+00	2.540124e+05	1.013187e+05	2.881185e+02	1.004550e-01	-8.886244e-03	0.000000e+00	
0.000000e+00	-8.702532e-01	1.225040e+00	4.185988e+01	1.641726e-01	2.540131e+05	1.013192e+05	2.881189e+02	1.004191e-01	-8.232629e-03	0.000000e+00	
3.448276e-02	-8.702532e-01	1.225036e+00	4.185916e+01	1.150795e+00	2.540124e+05	1.013187e+05	2.881185e+02	1.004550e-01	-8.886282e-03	0.000000e+00	
0.000000e+00	-9.018987e-01	1.225040e+00	4.185988e+01	1.641730e-01	2.540131e+05	1.013192e+05	2.881189e+02	1.004191e-01	-8.232612e-03	0.000000e+00	
3.448276e-02	-9.018987e-01	1.225036e+00	4.185916e+01	1.150794e+00	2.540124e+05	1.013187e+05	2.881185e+02	1.004550e-01	-8.886354e-03	0.000000e+00	
0.000000e+00	-9.335443e-01	1.225040e+00	4.185988e+01	1.641736e-01	2.540131e+05	1.013192e+05	2.881189e+02	1.004191e-01	-8.232567e-03	0.000000e+00	
3.448276e-02	-9.335443e-01	1.225036e+00	4.185916e+01	1.150794e+00	2.540124e+05	1.013187e+05	2.881185e+02	1.004550e-01	-8.886448e-03	0.000000e+00	
0.000000e+00	-9.651899e-01	1.225040e+00	4.185988e+01	1.641750e-01	2.540131e+05	1.013192e+05	2.881189e+02	1.004191e-01	-8.232504e-03	0.000000e+00	
3.448276e-02	-9.651899e-01	1.225036e+00	4.185916e+01	1.150794e+00	2.540124e+05	1.013187e+05	2.881185e+02	1.004550e-01	-8.886638e-03	0.000000e+00	
0.000000e+00	-9.968354e-01	1.225040e+00	4.185988e+01	1.641776e-01	2.540131e+05	1.013192e+05	2.881189e+02	1.004191e-01	-8.232353e-03	0.000000e+00	
3.448276e-02	-9.968354e-01	1.225036e+00	4.185917e+01	1.150793e+00	2.540124e+05	1.013187e+05	2.881185e+02	1.004550e-01	-8.886871e-03	0.000000e+00	
0.000000e+00	-1.028481e+00	1.225040e+00	4.185989e+01	1.641827e-01	2.540131e+05	1.013192e+05	2.881189e+02	1.004191e-01	-8.232169e-03	0.000000e+00	
3.448276e-02	-1.028481e+00	1.225036e+00	4.185917e+01	1.150793e+00	2.540124e+05	1.013187e+05	2.881185e+02	1.004550e-01	-8.887396e-03	0.000000e+00	
0.000000e+00	-1.060127e+00	1.225040e+00	4.185989e+01	1.641911e-01	2.540131e+05	1.013192e+05	2.881189e+02	1.004192e-01	-8.231735e-03	0.000000e+00	
3.448276e-02	-1.060127e+00	1.225036e+00	4.185918e+01	1.150792e+00	2.540124e+05	1.013187e+05	2.881185e+02	1.004550e-01	-8.887976e-03	0.000000e+00	
0.000000e+00	-1.091772e+00	1.225040e+00	4.185989e+01	1.642064e-01	2.540131e+05	1.013192e+05	2.881189e+02	1.004192e-01	-8.231226e-03	0.000000e+00	
3.448276e-02	-1.091772e+00	1.225036e+00	4.185919e+01	1.150792e+00	2.540124e+05	1.013187e+05	2.881185e+02	1.004550e-01	-8.889545e-03	0.000000e+00	
0.000000e+00	-1.123418e+00	1.225040e+00	4.185989e+01	1.642351e-01	2.540131e+05	1.013192e+05	2.881189e+02	1.004191e-01	-8.229396e-03	0.000000e+00	
3.448276e-02	-1.123418e+00	1.225036e+00	4.185920e+01	1.150791e+00	2.540124e+05	1.013187e+05	2.881185e+02	1.004551e-01	-8.890980e-03	0.000000e+00	
0.000000e+00	-1.155063e+00	1.225040e+00	4.185987e+01	1.643026e-01	2.540131e+05	1.013192e+05	2.881189e+02	1.004191e-01	-8.226667e-03	0.000000e+00	
3.448276e-02	-1.155063e+00	1.225036e+00	4.185923e+01	1.150804e+00	2.540124e+05	1.013187e+05	2.881185e+02	1.004551e-01	-8.895689e-03	0.000000e+00	
0.000000e+00	-1.186709e+00	1.225040e+00	4.185984e+01	1.644408e-01	2.540131e+05	1.013192e+05	2.881189e+02	1.004190e-01	-8.215906e-03	0.000000e+00	
3.448276e-02	-1.186709e+00	1.225036e+00	4.185928e+01	1.150822e+00	2.540124e+05	1.013187e+05	2.881185e+02	1.004552e-01	-8.899583e-03	0.000000e+00	
0.000000e+00	-1.218354e+00	1.225040e+00	4.185987e+01	1.646855e-01	2.540132e+05	1.013192e+05	2.881189e+02	1.004191e-01	-8.181566e-03	0.000000e+00	
3.448276e-02	-1.218354e+00	1.225036e+00	4.185933e+01	1.150878e+00	2.540124e+05	1.013187e+05	2.881185e+02	1.004554e-01	-8.919086e-03	0.000000e+00	
6.896552e-02	1.218354e+00	1.225024e+00	4.185952e+01	1.979623e+00	2.540103e+05	1.013174e+05	2.881176e+02	1.005312e-01	-1.068324e-02	0.000000e+00	
6.896552e-02	1.250000e+00	1.225024e+00	4.185954e+01	1.979490e+00	2.540103e+05	1.013174e+05	2.881176e+02	1.005312e-01	-1.069061e-02	0.000000e+00	
6.896552e-02	1.186709e+00	1.225024e+00	4.185951e+01	1.979660e+00	2.540103e+05	1.013174e+05	2.881176e+02	1.005312e-01	-1.069576e-02	0.000000e+00	
6.896552e-02	1.155063e+00	1.225024e+00	4.185952e+01	1.979702e+00	2.540103e+05	1.013174e+05	2.881176e+02	1.005312e-01	-1.069193e-02	0.000000e+00	
6.896552e-02	1.123418e+00	1.225024e+00	4.185953e+01	1.979711e+00	2.540103e+05	1.013174e+05	2.881176e+02	1.005313e-01	-1.069373e-02	0.000000e+00	
6.896552e-02	1.091772e+00	1.225024e+00	4.185954e+01	1.979721e+00	2.540103e+05	1.013174e+05	2.881176e+02	1.005313e-01	-1.069285e-02	0.000000e+00	
6.896552e-02	1.060127e+00	1.225024e+00	4.185954e+01	1.979725e+00	2.540103e+05	1.013174e+05	2.881176e+02	1.005313e-01	-1.069316e-02	0.000000e+00	
6.896552e-02	1.028481e+00	1.225024e+00	4.185955e+01	1.979729e+00	2.540103e+05	1.013174e+05	2.881176e+02	1.005313e-01	-1.069289e-02	0.000000e+00	
6.896552e-02	9.968354e-01	1.225024e+00	4.185955e+01	1.979730e+00	2.540103e+05	1.013174e+05	2.881176e+02	1.005313e-01	-1.069294e-02	0.000000e+00	
6.896552e-02	9.651899e-01	1.225024e+00	4.185955e+01	1.979731e+00	2.540103e+05	1.013174e+05	2.881176e+02	1.005313e-01	-1.069285e-02	0.000000e+00	
6.896552e-02	9.335443e-01	1.225024e+00	4.185955e+01	1.979732e+00	2.540103e+05	1.013174e+05	2.881176e+02	1.005313e-01	-1.069285e-02	0.000000e+00	
6.896552e-02	9.018987e-01	1.225024e+00	4.185956e+01	1.979733e+00	2.540103e+05	1.013174e+05	2.881176e+02	1.005313e-01	-1.069283e-02	0.000000e+00	
6.896552e-02	8.702532e-01	1.225024e+00	4.185956e+01	1.979733e+00	2.540103e+05	1.013174e+05	2.881176e+02	1.005313e-01	-1.069283e-02	0.000000e+00	
6.896552e-02	8.386076e-01	1.225024e+00	4.185956e+01	1.979733e+00	2.540103e+05	1.013174e+05	2.881176e+02	1.005313e-01	-1.069282e-02	0.000000e+00	
6.896552e-02	8.069620e-01	1.225024e+00	4.185956e+01	1.979734e+00	2.540103e+05	1.013174e+05	2.881176e+02	1.005313e-01	-1.069281e-02	0.000000e+00	
6.896552e-02	7.753165e-01	1.225024e+00	4.185956e+01	1.979734e+00	2.540103e+05	1.013174e+05	2.881176e+02	1.005313e-01	-1.069281e-02	0.000000e+00	
6.896552e-02	7.436709e-01	1.225024e+00	4.185956e+01	1.979734e+00	2.540103e+05	1.013174e+05	2.881176e+02	1.005313e-01	-1.069281e-02	0.000000e+00	
6.896552e-02	7.120253e-01	1.225024e+00	4.185956e+01	1.979734e+00	2.540103e+05	1.013174e+05	2.881176e+02	1.005313e-01	-1.069281e-02	0.000000e+00	
6.896552e-02	6.803797e-01	1.225024e+00	4.185956e+01	1.979734e+00	2.540103e+05	1.013174e+05	2.881176e+02	1.005313e-01	-1.069281e-02	0.000000e+00	
6.896552e-02	6.487342e-01	1.225024e+00	4.185956e+01	1.979734e+00	2.540103e+05	1.013174e+05	2.881176e+02	1.005313e-01	-1.069280e-02	0.000000e+00	
6.896552e-02	6.170886e-01	1.225024e+00	4.185956e+01	1.979734e+00	2.540103e+05	1.013174e+05	2.881176e+02	1.005313e-01	-1.069280e-02	0.000000e+00	
6.896552e-02	5.854430e-01	1.225024e+00	4.185956e+01	1.979734e+00	2.540103e+05	1.013174e+05	2.881176e+02	1.005313e-01	-1.069280e-02	0.000000e+00	
6.896552e-02	5.537975e-01	1.225024e+00	4.185956e+01	1.979734e+00	2.540103e+05	1.013174e+05	2.881176e+02	1.005313e-01	-1.069280e-02	0.000000e+00	
6.896552e-02	5.221519e-01	1.225024e+00	4.185956e+01	1.979734e+00	2.540103e+05	1.013174e+05	2.881176e+02	1.005313e-01	-1.069280e-02	0.000000e+00	
6.896552e-02	4.905063e-01	1.225024e+00	4.185956e+01	1.979734e+00	2.540103e+05	1.013174e+05	2.881176e+02	1.005313e-01	-1.069280e-02	0.000000e+00	
6.896552e-02	4.588608e-01	1.225024e+00	4.185956e+01	1.979734e+00	2.540103e+05	1.013174e+05	2.881176e+02	1.005313e-01	-1.069280e-02	0.000000e+00	
6.896552e-02	4.272152e-01	1.225024e+00	4.185956e+01	1.979734e+00	2.540103e+05	1.013174e+05	2.881176e+02	1.005313e-01	-1.069280e-02	0.000000e+00	
6.896552e-02	3.955696e-01	1.225024e+00	4.185956e+01	1.979734e+00	2.540103e+05	1.013174e+05	2.881176e+02	1.005313e-01	-1.069280e-02	0.000000e+00	
6.896552e-02	3.639241e-01	1.225024e+00	4.185956e+01	1.979734e+00	2.540103e+05	1.013174e+05	2.881176e+02	1.005313e-01	-1.069280e-02	0.000000e+00	
6.896552e-02	3.322785e-01	1.225024e+00	4.185956e+01	1.979735e+00	2.540103e+05	1.013174e+05	2.881176e+02	1.005313e-01	-1.069280e-02	0.000000e+00	
6.896552e-02	3.006329e-01	1.225024e+00	4.185956e+01	1.979735e+00	2.540103e+05	1.013174e+05	2.881176e+02	1.005313e-01	-1.069280e-02	0.000000e+00	
6.896552e-02	2.689873e-01	1.225024e+00	4.185956e+01	1.979735e+00	2.540103e+05	1.013174e+05	2.881176e+02	1.005313e-01	-1.069280e-02	0.000000e+00	
6.896552e-02	2.373418e-01	1.225024e+00	4.185956e+01	1.979735e+00	2.540103e+05	1.013174e+05	2.881176e+02	1.005313e-01	-1.069280e-02	0.000000e+00	
6.896552e-02	2.056962e-01	1.225024e+00	4.185956e+01	1.979735e+00	2.540103e+05	1.013174e+05	2.881176e+02	1.005313e-01	-1.069280e-02	0.000000e+00	
6.896552e-02	1.740506e-01	1.225024e+00	4.185956e+01	1.979735e+00	2.540103e+05	1.013174e+05	2.881176e+02	1.005313e-01	-1.069280e-02	0.000000e+00	
6.896552e-02	1.424051e-01	1.225024e+00	4.185956e+01	1.979735e+00	2.540103e+05	1.013174e+05	2.881176e+02	1.005313e-01	-1.069280e-02	0.000000e+00	
6.896552e-02	1.107595e-01	1.225024e+00	4.185956e+01	1.979735e+00	2.540103e+05	1.013174e+05	2.881176e+02	1.005313e-01	-1.069280e-02	0.000000e+00	
6.896552e-02	7.911392e-02	1.225024e+00	4.185956e+01	1.979735e+00	2.540103e+05	1.013174e+05	2.881176e+02	1.005313e-01	-1.069280e-02	0.000000e+00	
6.896552e-02	4.746835e-02	1.225024e+00	4.185956e+01	1.979735e+00	2.540103e+05	1.013174e+05	2.881176e+02	1.005313e-01	-1.069280e-02	0.000000e+00	
6.896552e-02	1.582278e-02	1.225024e+00	4.185956e+01	1.979735e+00	2.540103e+05	1.013174e+05	2.881176e+02	1.005313e-01	-1.069280e-02	0.000000e+00	
6.896552e-02	-1.582278e-02	1.225024e+00	4.185956e+01	1.979735e+00	2.540103e+05	1.013174e+05	2.881176e+02	1.005313e-01	-1.069280e-02	0.000000e+00	
6.896552e-02	-4.746835e-02	1.225024e+00	4.185956e+01	1.979735e+00	2.540103e+05	1.013174e+05	2.881176e+02	1.005313e-01	-1.069280e-02	0.000000e+00	
6.896552e-02	-7.911392e-02	1.225024e+00	4.185956e+01	1.979735e+00	2.540103e+05	1.013174e+05	2.881176e+02	1.005313e-01	-1.069280e-02	0.000000e+00	
6.896552e-02	-1.107595e-01	1.225024e+00	4.185956e+01	1.979735e+00	2.540103e+05	1.013174e+05	2.881176e+02	1.005313e-01	-1.069280e-02	0.000000e+00	
6.896552e-02	-1.424051e-01	1.225024e+00	4.185956e+01	1.979735e+00	2.540103e+05	1.013174e+05	2.881176e+02	1.005313e-01	-1.069280e-02	0.000000e+00	
6.896552e-02	-1.740506e-01	1.225024e+00	4.185956e+01	1.979735e+00	2.540103e+05	1.013174e+05	2.881176e+02	1.005313e-01	-1.069280e-02	0.000000e+00	