TITLE = "Visualization of the volumetric solution"
VARIABLES = "x","y","Density","Momentum_x","Momentum_y","Energy","Pressure","Temperature","Mach","C<sub>p</sub>","Roe_Dissipation"
ZONE NODES= 3200, ELEMENTS= 3081, DATAPACKING=POINT, ZONETYPE=FEQUADRILATERAL
-2.000000e+00	1.250000e+00	1.225038e+00	4.185943e+01	-3.403685e-11	2.540127e+05	1.013190e+05	2.881189e+02	1.004174e-01	-8.418600e-03	0.000000e+00	
-2.000000e+00	1.218354e+00	1.225038e+00	4.185943e+01	-3.229017e-09	2.540127e+05	1.013190e+05	2.881189e+02	1.004174e-01	-8.418600e-03	0.000000e+00	
-1.948718e+00	1.218354e+00	1.225038e+00	4.185943e+01	-4.513623e-09	2.540127e+05	1.013190e+05	2.881189e+02	1.004174e-01	-8.418606e-03	0.000000e+00	
-1.948718e+00	1.250000e+00	1.225038e+00	4.185943e+01	-6.255012e-11	2.540127e+05	1.013190e+05	2.881189e+02	1.004174e-01	-8.418605e-03	0.000000e+00	
-2.000000e+00	1.186709e+00	1.225038e+00	4.185943e+01	-3.107281e-09	2.540127e+05	1.013190e+05	2.881189e+02	1.004174e-01	-8.418600e-03	0.000000e+00	
-1.948718e+00	1.186709e+00	1.225038e+00	4.185943e+01	-5.322451e-09	2.540127e+05	1.013190e+05	2.881189e+02	1.004174e-01	-8.418606e-03	0.000000e+00	
-2.000000e+00	1.155063e+00	1.225038e+00	4.185943e+01	-1.929844e-09	2.540127e+05	1.013190e+05	2.881189e+02	1.004174e-01	-8.418601e-03	0.000000e+00	
-1.948718e+00	1.155063e+00	1.225038e+00	4.185943e+01	-4.761963e-09	2.540127e+05	1.013190e+05	2.881189e+02	1.004174e-01	-8.418606e-03	0.000000e+00	
-2.000000e+00	1.123418e+00	1.225038e+00	4.185943e+01	-8.137851e-10	2.540127e+05	1.013190e+05	2.881189e+02	1.004174e-01	-8.418601e-03	0.000000e+00	
-1.948718e+00	1.123418e+00	1.225038e+00	4.185943e+01	-3.605322e-09	2.540127e+05	1.013190e+05	2.881189e+02	1.004174e-01	-8.418606e-03	0.000000e+00	
-2.000000e+00	1.091772e+00	1.225038e+00	4.185943e+01	-2.287655e-10	2.540127e+05	1.013190e+05	2.881189e+02	1.004174e-01	-8.418601e-03	0.000000e+00	
-1.948718e+00	1.091772e+00	1.225038e+00	4.185943e+01	-2.842099e-09	2.540127e+05	1.013190e+05	2.881189e+02	1.004174e-01	-8.418606e-03	0.000000e+00	
-2.000000e+00	1.060127e+00	1.225038e+00	4.185943e+01	-3.069351e-11	2.540127e+05	1.013190e+05	2.881189e+02	1.004174e-01	-8.418601e-03	0.000000e+00	
-1.948718e+00	1.060127e+00	1.225038e+00	4.185943e+01	-2.437533e-09	2.540127e+05	1.013190e+05	2.881189e+02	1.004174e-01	-8.418606e-03	0.000000e+00	
-2.000000e+00	1.028481e+00	1.225038e+00	4.185943e+01	-1.250361e-11	2.540127e+05	1.013190e+05	2.881189e+02	1.004174e-01	-8.418601e-03	0.000000e+00	
-1.948718e+00	1.028481e+00	1.225038e+00	4.185943e+01	-2.302515e-09	2.540127e+05	1.013190e+05	2.881189e+02	1.004174e-01	-8.418606e-03	0.000000e+00	
-2.000000e+00	9.968354e-01	1.225038e+00	4.185943e+01	-2.499101e-11	2.540127e+05	1.013190e+05	2.881189e+02	1.004174e-01	-8.418601e-03	0.000000e+00	
-1.948718e+00	9.968354e-01	1.225038e+00	4.185943e+01	-2.244031e-09	2.540127e+05	1.013190e+05	2.881189e+02	1.004174e-01	-8.418606e-03	0.000000e+00	
-2.000000e+00	9.651899e-01	1.225038e+00	4.185943e+01	-2.809466e-11	2.540127e+05	1.013190e+05	2.881189e+02	1.004174e-01	-8.418601e-03	0.000000e+00	
-1.948718e+00	9.651899e-01	1.225038e+00	4.185943e+01	-2.206699e-09	2.540127e+05	1.013190e+05	2.881189e+02	1.004174e-01	-8.418606e-03	0.000000e+00	
-2.000000e+00	9.335443e-01	1.225038e+00	4.185943e+01	-2.103780e-11	2.540127e+05	1.013190e+05	2.881189e+02	1.004174e-01	-8.418601e-03	0.000000e+00	
-1.948718e+00	9.335443e-01	1.225038e+00	4.185943e+01	-2.163587e-09	2.540127e+05	1.013190e+05	2.881189e+02	1.004174e-01	-8.418606e-03	0.000000e+00	
-2.000000e+00	9.018987e-01	1.225038e+00	4.185943e+01	-1.528596e-11	2.540127e+05	1.013190e+05	2.881189e+02	1.004174e-01	-8.418601e-03	0.000000e+00	
-1.948718e+00	9.018987e-01	1.225038e+00	4.185943e+01	-2.126582e-09	2.540127e+05	1.013190e+05	2.881189e+02	1.004174e-01	-8.418606e-03	0.000000e+00	
-2.000000e+00	8.702532e-01	1.225038e+00	4.185943e+01	-1.401190e-11	2.540127e+05	1.013190e+05	2.881189e+02	1.004174e-01	-8.418601e-03	0.000000e+00	
-1.948718e+00	8.702532e-01	1.225038e+00	4.185943e+01	-2.096425e-09	2.540127e+05	1.013190e+05	2.881189e+02	1.004174e-01	-8.418606e-03	0.000000e+00	
-2.000000e+00	8.386076e-01	1.225038e+00	4.185943e+01	-1.669292e-11	2.540127e+05	1.013190e+05	2.881189e+02	1.004174e-01	-8.418601e-03	0.000000e+00	
-1.948718e+00	8.386076e-01	1.225038e+00	4.185943e+01	-2.074455e-09	2.540127e+05	1.013190e+05	2.881189e+02	1.004174e-01	-8.418606e-03	0.000000e+00	
-2.000000e+00	8.069620e-01	1.225038e+00	4.185943e+01	-2.044504e-11	2.540127e+05	1.013190e+05	2.881189e+02	1.004174e-01	-8.418601e-03	0.000000e+00	
-1.948718e+00	8.069620e-01	1.225038e+00	4.185943e+01	-2.055362e-09	2.540127e+05	1.013190e+05	2.881189e+02	1.004174e-01	-8.418606e-03	0.000000e+00	
-2.000000e+00	7.753165e-01	1.225038e+00	4.185943e+01	-2.386091e-11	2.540127e+05	1.013190e+05	2.881189e+02	1.004174e-01	-8.418601e-03	0.000000e+00	
-1.948718e+00	7.753165e-01	1.225038e+00	4.185943e+01	-2.036220e-09	2.540127e+05	1.013190e+05	2.881189e+02	1.004174e-01	-8.418607e-03	0.000000e+00	
-2.000000e+00	7.436709e-01	1.225038e+00	4.185943e+01	-2.643536e-11	2.540127e+05	1.013190e+05	2.881189e+02	1.004174e-01	-8.418602e-03	0.000000e+00	
-1.948718e+00	7.436709e-01	1.225038e+00	4.185943e+01	-2.014237e-09	2.540127e+05	1.013190e+05	2.881189e+02	1.004174e-01	-8.418607e-03	0.000000e+00	
-2.000000e+00	7.120253e-01	1.225038e+00	4.185943e+01	-2.840123e-11	2.540127e+05	1.013190e+05	2.881189e+02	1.004174e-01	-8.418602e-03	0.000000e+00	
-1.948718e+00	7.120253e-01	1.225038e+00	4.185943e+01	-1.988257e-09	2.540127e+05	1.013190e+05	2.881189e+02	1.004174e-01	-8.418607e-03	0.000000e+00	
-2.000000e+00	6.803797e-01	1.225038e+00	4.185943e+01	-2.981041e-11	2.540127e+05	1.013190e+05	2.881189e+02	1.004174e-01	-8.418602e-03	0.000000e+00	
-1.948718e+00	6.803797e-01	1.225038e+00	4.185943e+01	-1.957384e-09	2.540127e+05	1.013190e+05	2.881189e+02	1.004174e-01	-8.418607e-03	0.000000e+00	
-2.000000e+00	6.487342e-01	1.225038e+00	4.185943e+01	-3.084586e-11	2.540127e+05	1.013190e+05	2.881189e+02	1.004174e-01	-8.418602e-03	0.000000e+00	
-1.948718e+00	6.487342e-01	1.225038e+00	4.185943e+01	-1.921048e-09	2.540127e+05	1.013190e+05	2.881189e+02	1.004174e-01	-8.418607e-03	0.000000e+00	
-2.000000e+00	6.170886e-01	1.225038e+00	4.185943e+01	-3.157784e-11	2.540127e+05	1.013190e+05	2.881189e+02	1.004174e-01	-8.418602e-03	0.000000e+00	
-1.948718e+00	6.170886e-01	1.225038e+00	4.185943e+01	-1.878642e-09	2.540127e+05	1.013190e+05	2.881189e+02	1.004174e-01	-8.418607e-03	0.000000e+00	
-2.000000e+00	5.854430e-01	1.225038e+00	4.185943e+01	-3.225565e-11	2.540127e+05	1.013190e+05	2.881189e+02	1.004174e-01	-8.418602e-03	0.000000e+00	
-1.948718e+00	5.854430e-01	1.225038e+00	4.185943e+01	-1.830097e-09	2.540127e+05	1.013190e+05	2.881189e+02	1.004174e-01	-8.418607e-03	0.000000e+00	
-2.000000e+00	5.537975e-01	1.225038e+00	4.185943e+01	-3.272930e-11	2.540127e+05	1.013190e+05	2.881189e+02	1.004174e-01	-8.418602e-03	0.000000e+00	
-1.948718e+00	5.537975e-01	1.225038e+00	4.185943e+01	-1.774881e-09	2.540127e+05	1.013190e+05	2.881189e+02	1.004174e-01	-8.418607e-03	0.000000e+00	
-2.000000e+00	5.221519e-01	1.225038e+00	4.185943e+01	-3.319631e-11	2.540127e+05	1.013190e+05	2.881189e+02	1.004174e-01	-8.418602e-03	0.000000e+00	
-1.948718e+00	5.221519e-01	1.225038e+00	4.185943e+01	-1.713279e-09	2.540127e+05	1.013190e+05	2.881189e+02	1.004174e-01	-8.418607e-03	0.000000e+00	
-2.000000e+00	4.905063e-01	1.225038e+00	4.185943e+01	-3.338242e-11	2.540127e+05	1.013190e+05	2.881189e+02	1.004174e-01	-8.418602e-03	0.000000e+00	
-1.948718e+00	4.905063e-01	1.225038e+00	4.185943e+01	-1.644787e-09	2.540127e+05	1.013190e+05	2.881189e+02	1.004174e-01	-8.418607e-03	0.000000e+00	
-2.000000e+00	4.588608e-01	1.225038e+00	4.185943e+01	-3.323575e-11	2.540127e+05	1.013190e+05	2.881189e+02	1.004174e-01	-8.418602e-03	0.000000e+00	
-1.948718e+00	4.588608e-01	1.225038e+00	4.185943e+01	-1.569690e-09	2.540127e+05	1.013190e+05	2.881189e+02	1.004174e-01	-8.418607e-03	0.000000e+00	
-2.000000e+00	4.272152e-01	1.225038e+00	4.185943e+01	-3.287532e-11	2.540127e+05	1.013190e+05	2.881189e+02	1.004174e-01	-8.418602e-03	0.000000e+00	
-1.948718e+00	4.272152e-01	1.225038e+00	4.185943e+01	-1.487927e-09	2.540127e+05	1.013190e+05	2.881189e+02	1.004174e-01	-8.418607e-03	0.000000e+00	
-2.000000e+00	3.955696e-01	1.225038e+00	4.185943e+01	-3.250764e-11	2.540127e+05	1.013190e+05	2.881189e+02	1.004174e-01	-8.418602e-03	0.000000e+00	
-1.948718e+00	3.955696e-01	1.225038e+00	4.185943e+01	-1.399970e-09	2.540127e+05	1.013190e+05	2.881189e+02	1.004174e-01	-8.418607e-03	0.000000e+00	
-2.000000e+00	3.639241e-01	1.225038e+00	4.185943e+01	-3.214125e-11	2.540127e+05	1.013190e+05	2.881189e+02	1.004174e-01	-8.418602e-03	0.000000e+00	
-1.948718e+00	3.639241e-01	1.225038e+00	4.185943e+01	-1.306048e-09	2.540127e+05	1.013190e+05	2.881189e+02	1.004174e-01	-8.418607e-03	0.000000e+00	
-2.000000e+00	3.322785e-01	1.225038e+00	4.185943e+01	-3.173805e-11	2.540127e+05	1.013190e+05	2.881189e+02	1.004174e-01	-8.418602e-03	0.000000e+00	
-1.948718e+00	3.322785e-01	1.225038e+00	4.185943e+01	-1.206357e-09	2.540127e+05	1.013190e+05	2.881189e+02	1.004174e-01	-8.418607e-03	0.000000e+00	
-2.000000e+00	3.006329e-01	1.225038e+00	4.185943e+01	-3.118293e-11	2.540127e+05	1.013190e+05	2.881189e+02	1.004174e-01	-8.418602e-03	0.000000e+00	
-1.948718e+00	3.006329e-01	1.225038e+00	4.185943e+01	-1.101268e-09	2.540127e+05	1.013190e+05	2.881189e+02	1.004174e-01	-8.418607e-03	0.000000e+00	
-2.000000e+00	2.689873e-01	1.225038e+00	4.185943e+01	-3.053275e-11	2.540127e+05	1.013190e+05	2.881189e+02	1.004174e-01	-8.418602e-03	0.000000e+00	
-1.948718e+00	2.689873e-01	1.225038e+00	4.185943e+01	-9.912509e-10	2.540127e+05	1.013190e+05	2.881189e+02	1.004174e-01	-8.418607e-03	0.000000e+00	
-2.000000e+00	2.373418e-01	1.225038e+00	4.185943e+01	-2.971467e-11	2.540127e+05	1.013190e+05	2.881189e+02	1.004174e-01	-8.418602e-03	0.000000e+00	
-1.948718e+00	2.373418e-01	1.225038e+00	4.185943e+01	-8.765538e-10	2.540127e+05	1.013190e+05	2.881189e+02	1.004174e-01	-8.418607e-03	0.000000e+00	
-2.000000e+00	2.056962e-01	1.225038e+00	4.185943e+01	-2.908709e-11	2.540127e+05	1.013190e+05	2.881189e+02	1.004174e-01	-8.418602e-03	0.000000e+00	
-1.948718e+00	2.056962e-01	1.225038e+00	4.185943e+01	-7.580307e-10	2.540127e+05	1.013190e+05	2.881189e+02	1.004174e-01	-8.418607e-03	0.000000e+00	
-2.000000e+00	1.740506e-01	1.225038e+00	4.185943e+01	-2.827616e-11	2.540127e+05	1.013190e+05	2.881189e+02	1.004174e-01	-8.418602e-03	0.000000e+00	
-1.948718e+00	1.740506e-01	1.225038e+00	4.185943e+01	-6.358401e-10	2.540127e+05	1.013190e+05	2.881189e+02	1.004174e-01	-8.418607e-03	0.000000e+00	
-2.000000e+00	1.424051e-01	1.225038e+00	4.185943e+01	-2.749569e-11	2.540127e+05	1.013190e+05	2.881189e+02	1.004174e-01	-8.418602e-03	0.000000e+00	
-1.948718e+00	1.424051e-01	1.225038e+00	4.185943e+01	-5.105963e-10	2.540127e+05	1.013190e+05	2.881189e+02	1.004174e-01	-8.418607e-03	0.000000e+00	
-2.000000e+00	1.107595e-01	1.225038e+00	4.185943e+01	-2.648001e-11	2.540127e+05	1.013190e+05	2.881189e+02	1.004174e-01	-8.418602e-03	0.000000e+00	
-1.948718e+00	1.107595e-01	1.225038e+00	4.185943e+01	-3.830415e-10	2.540127e+05	1.013190e+05	2.881189e+02	1.004174e-01	-8.418607e-03	0.000000e+00	
-2.000000e+00	7.911392e-02	1.225038e+00	4.185943e+01	-2.565931e-11	2.540127e+05	1.013190e+05	2.881189e+02	1.004174e-01	-8.418602e-03	0.000000e+00	
-1.948718e+00	7.911392e-02	1.225038e+00	4.185943e+01	-2.535020e-10	2.540127e+05	1.013190e+05	2.881189e+02	1.004174e-01	-8.418607e-03	0.000000e+00	
-2.000000e+00	4.746835e-02	1.225038e+00	4.185943e+01	-2.490294e-11	2.540127e+05	1.013190e+05	2.881189e+02	1.004174e-01	-8.418602e-03	0.000000e+00	
-1.948718e+00	4.746835e-02	1.225038e+00	4.185943e+01	-1.228654e-10	2.540127e+05	1.013190e+05	2.881189e+02	1.004174e-01	-8.418607e-03	0.000000e+00	
-2.000000e+00	1.582278e-02	1.225038e+00	4.185943e+01	-2.415869e-11	2.540127e+05	1.013190e+05	2.881189e+02	1.004174e-01	-8.418602e-03	0.000000e+00	
-1.948718e+00	1.582278e-02	1.225038e+00	4.185943e+01	8.617522e-12	2.540127e+05	1.013190e+05	2.881189e+02	1.004174e-01	-8.418607e-03	0.000000e+00	
-2.000000e+00	-1.582278e-02	1.225038e+00	4.185943e+01	-2.318362e-11	2.540127e+05	1.013190e+05	2.881189e+02	1.004174e-01	-8.418602e-03	0.000000e+00	
-1.948718e+00	-1.582278e-02	1.225038e+00	4.185943e+01	1.401781e-10	2.540127e+05	1.013190e+05	2.881189e+02	1.004174e-01	-8.418607e-03	0.000000e+00	
-2.000000e+00	-4.746835e-02	1.225038e+00	4.185943e+01	-2.213566e-11	2.540127e+05	1.013190e+05	2.881189e+02	1.004174e-01	-8.418602e-03	0.000000e+00	
-1.948718e+00	-4.746835e-02	1.225038e+00	4.185943e+01	2.713581e-10	2.540127e+05	1.013190e+05	2.881189e+02	1.004174e-01	-8.418607e-03	0.000000e+00	
-2.000000e+00	-7.911392e-02	1.225038e+00	4.185943e+01	-2.132845e-11	2.540127e+05	1.013190e+05	2.881189e+02	1.004174e-01	-8.418602e-03	0.000000e+00	
-1.948718e+00	-7.911392e-02	1.225038e+00	4.185943e+01	4.011924e-10	2.540127e+05	1.013190e+05	2.881189e+02	1.004174e-01	-8.418607e-03	0.000000e+00	
-2.000000e+00	-1.107595e-01	1.225038e+00	4.185943e+01	-2.030220e-11	2.540127e+05	1.013190e+05	2.881189e+02	1.004174e-01	-8.418602e-03	0.000000e+00	
-1.948718e+00	-1.107595e-01	1.225038e+00	4.185943e+01	5.294951e-10	2.540127e+05	1.013190e+05	2.881189e+02	1.004174e-01	-8.418607e-03	0.000000e+00	
-2.000000e+00	-1.424051e-01	1.225038e+00	4.185943e+01	-1.947925e-11	2.540127e+05	1.013190e+05	2.881189e+02	1.004174e-01	-8.418602e-03	0.000000e+00	
-1.948718e+00	-1.424051e-01	1.225038e+00	4.185943e+01	6.553042e-10	2.540127e+05	1.013190e+05	2.881189e+02	1.004174e-01	-8.418607e-03	0.000000e+00	
-2.000000e+00	-1.740506e-01	1.225038e+00	4.185943e+01	-1.850550e-11	2.540127e+05	1.013190e+05	2.881189e+02	1.004174e-01	-8.418602e-03	0.000000e+00	
-1.948718e+00	-1.740506e-01	1.225038e+00	4.185943e+01	7.783233e-10	2.540127e+05	1.013190e+05	2.881189e+02	1.004174e-01	-8.418607e-03	0.000000e+00	
-2.000000e+00	-2.056962e-01	1.225038e+00	4.185943e+01	-1.777589e-11	2.540127e+05	1.013190e+05	2.881189e+02	1.004174e-01	-8.418602e-03	0.000000e+00	
-1.948718e+00	-2.056962e-01	1.225038e+00	4.185943e+01	8.976948e-10	2.540127e+05	1.013190e+05	2.881189e+02	1.004174e-01	-8.418607e-03	0.000000e+00	
-2.000000e+00	-2.373418e-01	1.225038e+00	4.185943e+01	-1.705892e-11	2.540127e+05	1.013190e+05	2.881189e+02	1.004174e-01	-8.418602e-03	0.000000e+00	
-1.948718e+00	-2.373418e-01	1.225038e+00	4.185943e+01	1.013030e-09	2.540127e+05	1.013190e+05	2.881189e+02	1.004174e-01	-8.418607e-03	0.000000e+00	
-2.000000e+00	-2.689873e-01	1.225038e+00	4.185943e+01	-1.649122e-11	2.540127e+05	1.013190e+05	2.881189e+02	1.004174e-01	-8.418602e-03	0.000000e+00	
-1.948718e+00	-2.689873e-01	1.225038e+00	4.185943e+01	1.123694e-09	2.540127e+05	1.013190e+05	2.881189e+02	1.004174e-01	-8.418607e-03	0.000000e+00	
-2.000000e+00	-3.006329e-01	1.225038e+00	4.185943e+01	-1.572873e-11	2.540127e+05	1.013190e+05	2.881189e+02	1.004174e-01	-8.418602e-03	0.000000e+00	
-1.948718e+00	-3.006329e-01	1.225038e+00	4.185943e+01	1.229411e-09	2.540127e+05	1.013190e+05	2.881189e+02	1.004174e-01	-8.418607e-03	0.000000e+00	
-2.000000e+00	-3.322785e-01	1.225038e+00	4.185943e+01	-1.511636e-11	2.540127e+05	1.013190e+05	2.881189e+02	1.004174e-01	-8.418602e-03	0.000000e+00	
-1.948718e+00	-3.322785e-01	1.225038e+00	4.185943e+01	1.329618e-09	2.540127e+05	1.013190e+05	2.881189e+02	1.004174e-01	-8.418607e-03	0.000000e+00	
-2.000000e+00	-3.639241e-01	1.225038e+00	4.185943e+01	-1.463082e-11	2.540127e+05	1.013190e+05	2.881189e+02	1.004174e-01	-8.418602e-03	0.000000e+00	
-1.948718e+00	-3.639241e-01	1.225038e+00	4.185943e+01	1.423715e-09	2.540127e+05	1.013190e+05	2.881189e+02	1.004174e-01	-8.418607e-03	0.000000e+00	
-2.000000e+00	-3.955696e-01	1.225038e+00	4.185943e+01	-1.410578e-11	2.540127e+05	1.013190e+05	2.881189e+02	1.004174e-01	-8.418602e-03	0.000000e+00	
-1.948718e+00	-3.955696e-01	1.225038e+00	4.185943e+01	1.511431e-09	2.540127e+05	1.013190e+05	2.881189e+02	1.004174e-01	-8.418607e-03	0.000000e+00	
-2.000000e+00	-4.272152e-01	1.225038e+00	4.185943e+01	-1.377675e-11	2.540127e+05	1.013190e+05	2.881189e+02	1.004174e-01	-8.418602e-03	0.000000e+00	
-1.948718e+00	-4.272152e-01	1.225038e+00	4.185943e+01	1.592451e-09	2.540127e+05	1.013190e+05	2.881189e+02	1.004174e-01	-8.418607e-03	0.000000e+00	
-2.000000e+00	-4.588608e-01	1.225038e+00	4.185943e+01	-1.369099e-11	2.540127e+05	1.013190e+05	2.881189e+02	1.004174e-01	-8.418602e-03	0.000000e+00	
-1.948718e+00	-4.588608e-01	1.225038e+00	4.185943e+01	1.666318e-09	2.540127e+05	1.013190e+05	2.881189e+02	1.004174e-01	-8.418607e-03	0.000000e+00	
-2.000000e+00	-4.905063e-01	1.225038e+00	4.185943e+01	-1.338068e-11	2.540127e+05	1.013190e+05	2.881189e+02	1.004174e-01	-8.418602e-03	0.000000e+00	
-1.948718e+00	-4.905063e-01	1.225038e+00	4.185943e+01	1.733320e-09	2.540127e+05	1.013190e+05	2.881189e+02	1.004174e-01	-8.418607e-03	0.000000e+00	
-2.000000e+00	-5.221519e-01	1.225038e+00	4.185943e+01	-1.355113e-11	2.540127e+05	1.013190e+05	2.881189e+02	1.004174e-01	-8.418602e-03	0.000000e+00	
-1.948718e+00	-5.221519e-01	1.225038e+00	4.185943e+01	1.792740e-09	2.540127e+05	1.013190e+05	2.881189e+02	1.004174e-01	-8.418607e-03	0.000000e+00	
-2.000000e+00	-5.537975e-01	1.225038e+00	4.185943e+01	-1.391750e-11	2.540127e+05	1.013190e+05	2.881189e+02	1.004174e-01	-8.418602e-03	0.000000e+00	
-1.948718e+00	-5.537975e-01	1.225038e+00	4.185943e+01	1.844632e-09	2.540127e+05	1.013190e+05	2.881189e+02	1.004174e-01	-8.418607e-03	0.000000e+00	
-2.000000e+00	-5.854430e-01	1.225038e+00	4.185943e+01	-1.443979e-11	2.540127e+05	1.013190e+05	2.881189e+02	1.004174e-01	-8.418602e-03	0.000000e+00	
-1.948718e+00	-5.854430e-01	1.225038e+00	4.185943e+01	1.889387e-09	2.540127e+05	1.013190e+05	2.881189e+02	1.004174e-01	-8.418607e-03	0.000000e+00	
-2.000000e+00	-6.170886e-01	1.225038e+00	4.185943e+01	-1.497755e-11	2.540127e+05	1.013190e+05	2.881189e+02	1.004174e-01	-8.418602e-03	0.000000e+00	
-1.948718e+00	-6.170886e-01	1.225038e+00	4.185943e+01	1.926905e-09	2.540127e+05	1.013190e+05	2.881189e+02	1.004174e-01	-8.418607e-03	0.000000e+00	
-2.000000e+00	-6.487342e-01	1.225038e+00	4.185943e+01	-1.612014e-11	2.540127e+05	1.013190e+05	2.881189e+02	1.004174e-01	-8.418602e-03	0.000000e+00	
-1.948718e+00	-6.487342e-01	1.225038e+00	4.185943e+01	1.957535e-09	2.540127e+05	1.013190e+05	2.881189e+02	1.004174e-01	-8.418607e-03	0.000000e+00	
-2.000000e+00	-6.803797e-01	1.225038e+00	4.185943e+01	-1.743935e-11	2.540127e+05	1.013190e+05	2.881189e+02	1.004174e-01	-8.418602e-03	0.000000e+00	
-1.948718e+00	-6.803797e-01	1.225038e+00	4.185943e+01	1.981728e-09	2.540127e+05	1.013190e+05	2.881189e+02	1.004174e-01	-8.418607e-03	0.000000e+00	
-2.000000e+00	-7.120253e-01	1.225038e+00	4.185943e+01	-1.910713e-11	2.540127e+05	1.013190e+05	2.881189e+02	1.004174e-01	-8.418602e-03	0.000000e+00	
-1.948718e+00	-7.120253e-01	1.225038e+00	4.185943e+01	2.000148e-09	2.540127e+05	1.013190e+05	2.881189e+02	1.004174e-01	-8.418607e-03	0.000000e+00	
-2.000000e+00	-7.436709e-01	1.225038e+00	4.185943e+01	-2.126884e-11	2.540127e+05	1.013190e+05	2.881189e+02	1.004174e-01	-8.418601e-03	0.000000e+00	
-1.948718e+00	-7.436709e-01	1.225038e+00	4.185943e+01	2.013213e-09	2.540127e+05	1.013190e+05	2.881189e+02	1.004174e-01	-8.418607e-03	0.000000e+00	
-2.000000e+00	-7.753165e-01	1.225038e+00	4.185943e+01	-2.408654e-11	2.540127e+05	1.013190e+05	2.881189e+02	1.004174e-01	-8.418601e-03	0.000000e+00	
-1.948718e+00	-7.753165e-01	1.225038e+00	4.185943e+01	2.022211e-09	2.540127e+05	1.013190e+05	2.881189e+02	1.004174e-01	-8.418607e-03	0.000000e+00	
-2.000000e+00	-8.069620e-01	1.225038e+00	4.185943e+01	-2.773546e-11	2.540127e+05	1.013190e+05	2.881189e+02	1.004174e-01	-8.418601e-03	0.000000e+00	
-1.948718e+00	-8.069620e-01	1.225038e+00	4.185943e+01	2.028303e-09	2.540127e+05	1.013190e+05	2.881189e+02	1.004174e-01	-8.418606e-03	0.000000e+00	
-2.000000e+00	-8.386076e-01	1.225038e+00	4.185943e+01	-3.171685e-11	2.540127e+05	1.013190e+05	2.881189e+02	1.004174e-01	-8.418601e-03	0.000000e+00	
-1.948718e+00	-8.386076e-01	1.225038e+00	4.185943e+01	2.034490e-09	2.540127e+05	1.013190e+05	2.881189e+02	1.004174e-01	-8.418606e-03	0.000000e+00	
-2.000000e+00	-8.702532e-01	1.225038e+00	4.185943e+01	-3.447607e-11	2.540127e+05	1.013190e+05	2.881189e+02	1.004174e-01	-8.418601e-03	0.000000e+00	
-1.948718e+00	-8.702532e-01	1.225038e+00	4.185943e+01	2.043975e-09	2.540127e+05	1.013190e+05	2.881189e+02	1.004174e-01	-8.418606e-03	0.000000e+00	
-2.000000e+00	-9.018987e-01	1.225038e+00	4.185943e+01	-3.336057e-11	2.540127e+05	1.013190e+05	2.881189e+02	1.004174e-01	-8.418601e-03	0.000000e+00	
-1.948718e+00	-9.018987e-01	1.225038e+00	4.185943e+01	2.061886e-09	2.540127e+05	1.013190e+05	2.881189e+02	1.004174e-01	-8.418606e-03	0.000000e+00	
-2.000000e+00	-9.335443e-01	1.225038e+00	4.185943e+01	-2.790192e-11	2.540127e+05	1.013190e+05	2.881189e+02	1.004174e-01	-8.418601e-03	0.000000e+00	
-1.948718e+00	-9.335443e-01	1.225038e+00	4.185943e+01	2.087327e-09	2.540127e+05	1.013190e+05	2.881189e+02	1.004174e-01	-8.418606e-03	0.000000e+00	
-2.000000e+00	-9.651899e-01	1.225038e+00	4.185943e+01	-2.110849e-11	2.540127e+05	1.013190e+05	2.881189e+02	1.004174e-01	-8.418601e-03	0.000000e+00	
-1.948718e+00	-9.651899e-01	1.225038e+00	4.185943e+01	2.119607e-09	2.540127e+05	1.013190e+05	2.881189e+02	1.004174e-01	-8.418606e-03	0.000000e+00	
-2.000000e+00	-9.968354e-01	1.225038e+00	4.185943e+01	-2.423940e-11	2.540127e+05	1.013190e+05	2.881189e+02	1.004174e-01	-8.418601e-03	0.000000e+00	
-1.948718e+00	-9.968354e-01	1.225038e+00	4.185943e+01	2.147442e-09	2.540127e+05	1.013190e+05	2.881189e+02	1.004174e-01	-8.418606e-03	0.000000e+00	
-2.000000e+00	-1.028481e+00	1.225038e+00	4.185943e+01	-3.638670e-11	2.540127e+05	1.013190e+05	2.881189e+02	1.004174e-01	-8.418601e-03	0.000000e+00	
-1.948718e+00	-1.028481e+00	1.225038e+00	4.185943e+01	2.197703e-09	2.540127e+05	1.013190e+05	2.881189e+02	1.004174e-01	-8.418606e-03	0.000000e+00	
-2.000000e+00	-1.060127e+00	1.225038e+00	4.185943e+01	-1.779715e-11	2.540127e+05	1.013190e+05	2.881189e+02	1.004174e-01	-8.418601e-03	0.000000e+00	
-1.948718e+00	-1.060127e+00	1.225038e+00	4.185943e+01	2.325925e-09	2.540127e+05	1.013190e+05	2.881189e+02	1.004174e-01	-8.418606e-03	0.000000e+00	
-2.000000e+00	-1.091772e+00	1.225038e+00	4.185943e+01	1.800103e-10	2.540127e+05	1.013190e+05	2.881189e+02	1.004174e-01	-8.418601e-03	0.000000e+00	
-1.948718e+00	-1.091772e+00	1.225038e+00	4.185943e+01	2.724122e-09	2.540127e+05	1.013190e+05	2.881189e+02	1.004174e-01	-8.418606e-03	0.000000e+00	
-2.000000e+00	-1.123418e+00	1.225038e+00	4.185943e+01	7.635935e-10	2.540127e+05	1.013190e+05	2.881189e+02	1.004174e-01	-8.418601e-03	0.000000e+00	
-1.948718e+00	-1.123418e+00	1.225038e+00	4.185943e+01	3.481982e-09	2.540127e+05	1.013190e+05	2.881189e+02	1.004174e-01	-8.418606e-03	0.000000e+00	
-2.000000e+00	-1.155063e+00	1.225038e+00	4.185943e+01	1.875530e-09	2.540127e+05	1.013190e+05	2.881189e+02	1.004174e-01	-8.418601e-03	0.000000e+00	
-1.948718e+00	-1.155063e+00	1.225038e+00	4.185943e+01	4.632018e-09	2.540127e+05	1.013190e+05	2.881189e+02	1.004174e-01	-8.418606e-03	0.000000e+00	
-2.000000e+00	-1.186709e+00	1.225038e+00	4.185943e+01	3.047735e-09	2.540127e+05	1.013190e+05	2.881189e+02	1.004174e-01	-8.418600e-03	0.000000e+00	
-1.948718e+00	-1.186709e+00	1.225038e+00	4.185943e+01	5.190445e-09	2.540127e+05	1.013190e+05	2.881189e+02	1.004174e-01	-8.418606e-03	0.000000e+00	
-2.000000e+00	-1.218354e+00	1.225038e+00	4.185943e+01	3.167400e-09	2.540127e+05	1.013190e+05	2.881189e+02	1.004174e-01	-8.418600e-03	0.000000e+00	
-1.948718e+00	-1.218354e+00	1.225038e+00	4.185943e+01	4.375852e-09	2.540127e+05	1.013190e+05	2.881189e+02	1.004174e-01	-8.418606e-03	0.000000e+00	
-1.897436e+00	1.218354e+00	1.225038e+00	4.185943e+01	-5.210071e-09	2.540127e+05	1.013190e+05	2.881189e+02	1.004174e-01	-8.418610e-03	0.000000e+00	
-1.897436e+00	1.250000e+00	1.225038e+00	4.185943e+01	-9.845717e-11	2.540127e+05	1.013190e+05	2.881189e+02	1.004174e-01	-8.418610e-03	0.000000e+00	
-1.897436e+00	1.186709e+00	1.225038e+00	4.185943e+01	-7.166592e-09	2.540127e+05	1.013190e+05	2.881189e+02	1.004174e-01	-8.418610e-03	0.000000e+00	
-1.897436e+00	1.155063e+00	1.225038e+00	4.185943e+01	-7.242643e-09	2.540127e+05	1.013190e+05	2.881189e+02	1.004174e-01	-8.418610e-03	0.000000e+00	
-1.897436e+00	1.123418e+00	1.225038e+00	4.185943e+01	-6.198139e-09	2.540127e+05	1.013190e+05	2.881189e+02	1.004174e-01	-8.418610e-03	0.000000e+00	
-1.897436e+00	1.091772e+00	1.225038e+00	4.185943e+01	-5.303223e-09	2.540127e+05	1.013190e+05	2.881189e+02	1.004174e-01	-8.418610e-03	0.000000e+00	
-1.897436e+00	1.060127e+00	1.225038e+00	4.185943e+01	-4.715392e-09	2.540127e+05	1.013190e+05	2.881189e+02	1.004174e-01	-8.418610e-03	0.000000e+00	
-1.897436e+00	1.028481e+00	1.225038e+00	4.185943e+01	-4.473064e-09	2.540127e+05	1.013190e+05	2.881189e+02	1.004174e-01	-8.418610e-03	0.000000e+00	
-1.897436e+00	9.968354e-01	1.225038e+00	4.185943e+01	-4.363455e-09	2.540127e+05	1.013190e+05	2.881189e+02	1.004174e-01	-8.418610e-03	0.000000e+00	
-1.897436e+00	9.651899e-01	1.225038e+00	4.185943e+01	-4.309764e-09	2.540127e+05	1.013190e+05	2.881189e+02	1.004174e-01	-8.418610e-03	0.000000e+00	
-1.897436e+00	9.335443e-01	1.225038e+00	4.185943e+01	-4.254102e-09	2.540127e+05	1.013190e+05	2.881189e+02	1.004174e-01	-8.418610e-03	0.000000e+00	
-1.897436e+00	9.018987e-01	1.225038e+00	4.185943e+01	-4.204213e-09	2.540127e+05	1.013190e+05	2.881189e+02	1.004174e-01	-8.418610e-03	0.000000e+00	
-1.897436e+00	8.702532e-01	1.225038e+00	4.185943e+01	-4.158806e-09	2.540127e+05	1.013190e+05	2.881189e+02	1.004174e-01	-8.418610e-03	0.000000e+00	
-1.897436e+00	8.386076e-01	1.225038e+00	4.185943e+01	-4.121929e-09	2.540127e+05	1.013190e+05	2.881189e+02	1.004174e-01	-8.418610e-03	0.000000e+00	
-1.897436e+00	8.069620e-01	1.225038e+00	4.185943e+01	-4.087794e-09	2.540127e+05	1.013190e+05	2.881189e+02	1.004174e-01	-8.418610e-03	0.000000e+00	
-1.897436e+00	7.753165e-01	1.225038e+00	4.185943e+01	-4.052441e-09	2.540127e+05	1.013190e+05	2.881189e+02	1.004174e-01	-8.418610e-03	0.000000e+00	
-1.897436e+00	7.436709e-01	1.225038e+00	4.185943e+01	-4.011034e-09	2.540127e+05	1.013190e+05	2.881189e+02	1.004174e-01	-8.418611e-03	0.000000e+00	
-1.897436e+00	7.120253e-01	1.225038e+00	4.185943e+01	-3.961383e-09	2.540127e+05	1.013190e+05	2.881189e+02	1.004174e-01	-8.418611e-03	0.000000e+00	
-1.897436e+00	6.803797e-01	1.225038e+00	4.185943e+01	-3.901496e-09	2.540127e+05	1.013190e+05	2.881189e+02	1.004174e-01	-8.418611e-03	0.000000e+00	
-1.897436e+00	6.487342e-01	1.225038e+00	4.185943e+01	-3.830130e-09	2.540127e+05	1.013190e+05	2.881189e+02	1.004174e-01	-8.418611e-03	0.000000e+00	
-1.897436e+00	6.170886e-01	1.225038e+00	4.185943e+01	-3.746439e-09	2.540127e+05	1.013190e+05	2.881189e+02	1.004174e-01	-8.418611e-03	0.000000e+00	
-1.897436e+00	5.854430e-01	1.225038e+00	4.185943e+01	-3.649763e-09	2.540127e+05	1.013190e+05	2.881189e+02	1.004174e-01	-8.418611e-03	0.000000e+00	
-1.897436e+00	5.537975e-01	1.225038e+00	4.185943e+01	-3.539757e-09	2.540127e+05	1.013190e+05	2.881189e+02	1.004174e-01	-8.418611e-03	0.000000e+00	
-1.897436e+00	5.221519e-01	1.225038e+00	4.185943e+01	-3.416233e-09	2.540127e+05	1.013190e+05	2.881189e+02	1.004174e-01	-8.418611e-03	0.000000e+00	
-1.897436e+00	4.905063e-01	1.225038e+00	4.185943e+01	-3.279040e-09	2.540127e+05	1.013190e+05	2.881189e+02	1.004174e-01	-8.418611e-03	0.000000e+00	
-1.897436e+00	4.588608e-01	1.225038e+00	4.185943e+01	-3.128468e-09	2.540127e+05	1.013190e+05	2.881189e+02	1.004174e-01	-8.418611e-03	0.000000e+00	
-1.897436e+00	4.272152e-01	1.225038e+00	4.185943e+01	-2.964605e-09	2.540127e+05	1.013190e+05	2.881189e+02	1.004174e-01	-8.418611e-03	0.000000e+00	
-1.897436e+00	3.955696e-01	1.225038e+00	4.185943e+01	-2.788091e-09	2.540127e+05	1.013190e+05	2.881189e+02	1.004174e-01	-8.418611e-03	0.000000e+00	
-1.897436e+00	3.639241e-01	1.225038e+00	4.185943e+01	-2.599317e-09	2.540127e+05	1.013190e+05	2.881189e+02	1.004174e-01	-8.418611e-03	0.000000e+00	
-1.897436e+00	3.322785e-01	1.225038e+00	4.185943e+01	-2.398984e-09	2.540127e+05	1.013190e+05	2.881189e+02	1.004174e-01	-8.418611e-03	0.000000e+00	
-1.897436e+00	3.006329e-01	1.225038e+00	4.185943e+01	-2.187739e-09	2.540127e+05	1.013190e+05	2.881189e+02	1.004174e-01	-8.418611e-03	0.000000e+00	
-1.897436e+00	2.689873e-01	1.225038e+00	4.185943e+01	-1.966514e-09	2.540127e+05	1.013190e+05	2.881189e+02	1.004174e-01	-8.418611e-03	0.000000e+00	
-1.897436e+00	2.373418e-01	1.225038e+00	4.185943e+01	-1.736109e-09	2.540127e+05	1.013190e+05	2.881189e+02	1.004174e-01	-8.418611e-03	0.000000e+00	
-1.897436e+00	2.056962e-01	1.225038e+00	4.185943e+01	-1.497620e-09	2.540127e+05	1.013190e+05	2.881189e+02	1.004174e-01	-8.418611e-03	0.000000e+00	
-1.897436e+00	1.740506e-01	1.225038e+00	4.185943e+01	-1.251902e-09	2.540127e+05	1.013190e+05	2.881189e+02	1.004174e-01	-8.418611e-03	0.000000e+00	
-1.897436e+00	1.424051e-01	1.225038e+00	4.185943e+01	-1.000142e-09	2.540127e+05	1.013190e+05	2.881189e+02	1.004174e-01	-8.418611e-03	0.000000e+00	
-1.897436e+00	1.107595e-01	1.225038e+00	4.185943e+01	-7.434960e-10	2.540127e+05	1.013190e+05	2.881189e+02	1.004174e-01	-8.418611e-03	0.000000e+00	
-1.897436e+00	7.911392e-02	1.225038e+00	4.185943e+01	-4.829773e-10	2.540127e+05	1.013190e+05	2.881189e+02	1.004174e-01	-8.418611e-03	0.000000e+00	
-1.897436e+00	4.746835e-02	1.225038e+00	4.185943e+01	-2.198947e-10	2.540127e+05	1.013190e+05	2.881189e+02	1.004174e-01	-8.418611e-03	0.000000e+00	
-1.897436e+00	1.582278e-02	1.225038e+00	4.185943e+01	4.462661e-11	2.540127e+05	1.013190e+05	2.881189e+02	1.004174e-01	-8.418611e-03	0.000000e+00	
-1.897436e+00	-1.582278e-02	1.225038e+00	4.185943e+01	3.093179e-10	2.540127e+05	1.013190e+05	2.881189e+02	1.004174e-01	-8.418611e-03	0.000000e+00	
-1.897436e+00	-4.746835e-02	1.225038e+00	4.185943e+01	5.729819e-10	2.540127e+05	1.013190e+05	2.881189e+02	1.004174e-01	-8.418611e-03	0.000000e+00	
-1.897436e+00	-7.911392e-02	1.225038e+00	4.185943e+01	8.344135e-10	2.540127e+05	1.013190e+05	2.881189e+02	1.004174e-01	-8.418611e-03	0.000000e+00	
-1.897436e+00	-1.107595e-01	1.225038e+00	4.185943e+01	1.092355e-09	2.540127e+05	1.013190e+05	2.881189e+02	1.004174e-01	-8.418611e-03	0.000000e+00	