VARIABLES = "x"
 "y"
 "Density"
 "Momentum_x"
 "Momentum_y"
 "Energy"
 "Pressure"
 "Temperature"
 "Mach"
 "C<sub>p</sub>"
 "Roe_Dissipation"
ZONE
DT=(DOUBLE,DOUBLE,DOUBLE,DOUBLE,DOUBLE,DOUBLE,DOUBLE,DOUBLE,DOUBLE,DOUBLE,DOUBLE)
                     -1                    1.25        1.22503805160522        41.8594284057617   -8.23477540980757E-09           254012.703125                  101319        288.118896484375       0.100417397916317    -0.00841868156567054                       0 
                     -1         1.2474974974975        1.22503805160522        41.8594284057617   -9.02137371870208E-09           254012.703125                  101319        288.118896484375       0.100417397916317    -0.00841868156567054                       0 
                     -1        1.24499499499499        1.22503805160522        41.8594284057617   -9.80797202759658E-09           254012.703125                  101319        288.118896484375       0.100417397916317    -0.00841868156567054                       0 
                     -1        1.24249249249249        1.22503805160522        41.8594284057617   -1.05945703364911E-08           254012.703125                  101319        288.118896484375       0.100417397916317    -0.00841868156567054                       0 
                     -1        1.23998998998999        1.22503805160522        41.8594284057617   -1.13811686453856E-08           254012.703125                  101319        288.118896484375       0.100417397916317    -0.00841868156567054                       0 
                     -1        1.23748748748749        1.22503805160522        41.8594284057617   -1.21677669542801E-08           254012.703125                  101319        288.118896484375       0.100417397916317    -0.00841868156567054                       0 
                     -1        1.23498498498498        1.22503805160522        41.8594284057617   -1.29543652631746E-08           254012.703125                  101319        288.118896484375       0.100417397916317    -0.00841868156567054                       0 
                     -1        1.23248248248248        1.22503805160522        41.8594284057617   -1.37409629510785E-08           254012.703125                  101319        288.118896484375       0.100417397916317    -0.00841868156567054                       0 
                     -1        1.22997997997998        1.22503805160522        41.8594284057617    -1.4527561259973E-08           254012.703125                  101319        288.118896484375       0.100417397916317    -0.00841868156567054                       0 
                     -1        1.22747747747748        1.22503805160522        41.8594284057617   -1.53141595688675E-08           254012.703125                  101319        288.118896484375       0.100417397916317    -0.00841868156567054                       0 
                     -1        1.22497497497497        1.22503805160522        41.8594284057617    -1.6100757877762E-08           254012.703125                  101319        288.118896484375       0.100417397916317    -0.00841868156567054                       0 
                     -1        1.22247247247247        1.22503805160522        41.8594284057617   -1.68873561866565E-08           254012.703125                  101319        288.118896484375       0.100417397916317    -0.00841868156567053                       0 
                     -1        1.21996996996997        1.22503805160522        41.8594284057617    -1.7673954495551E-08           254012.703125                  101319        288.118896484375       0.100417397916317    -0.00841868156567054                       0 
                     -1        1.21746746746747        1.22503805160522        41.8594284057617   -1.84415928135783E-08           254012.703125                  101319        288.118896484375       0.100417397916317    -0.00841868156567054                       0 
                     -1        1.21496496496496        1.22503805160522        41.8594284057617   -1.91746700924661E-08           254012.703125                  101319        288.118896484375       0.100417397916317    -0.00841868156567054                       0 
                     -1        1.21246246246246        1.22503805160522        41.8594284057617    -1.9907747371354E-08           254012.703125                  101319        288.118896484375       0.100417397916317    -0.00841868156567054                       0 
                     -1        1.20995995995996        1.22503805160522        41.8594284057617   -2.06408246502419E-08           254012.703125                  101319        288.118896484375       0.100417397916317    -0.00841868156567054                       0 
                     -1        1.20745745745746        1.22503805160522        41.8594284057617   -2.13739019291297E-08           254012.703125                  101319        288.118896484375       0.100417397916317    -0.00841868156567054                       0 
                     -1        1.20495495495495        1.22503805160522        41.8594284057617   -2.21069792080176E-08           254012.703125                  101319        288.118896484375       0.100417397916317    -0.00841868156567054                       0 
                     -1        1.20245245245245        1.22503805160522        41.8594284057617   -2.28400559012327E-08           254012.703125                  101319        288.118896484375       0.100417397916317    -0.00841868156567054                       0 
                     -1        1.19994994994995        1.22503805160522        41.8594284057617   -2.35731331801205E-08           254012.703125                  101319        288.118896484375       0.100417397916317    -0.00841868156567054                       0 
                     -1        1.19744744744745        1.22503805160522        41.8594284057617   -2.43062104590084E-08           254012.703125                  101319        288.118896484375       0.100417397916317    -0.00841868156567054                       0 
                     -1        1.19494494494494        1.22503805160522        41.8594284057617   -2.50392877378963E-08           254012.703125                  101319        288.118896484375       0.100417397916317    -0.00841868156567054                       0 
                     -1        1.19244244244244        1.22503805160522        41.8594284057617   -2.57723650167841E-08           254012.703125                  101319        288.118896484375       0.100417397916317    -0.00841868156567054                       0 
                     -1        1.18993993993994        1.22503805160522        41.8594284057617    -2.6505442295672E-08           254012.703125                  101319        288.118896484375       0.100417397916317    -0.00841868156567053                       0 
                     -1        1.18743743743744        1.22503805160522        41.8594284057617   -2.72385195745599E-08           254012.703125                  101319        288.118896484375       0.100417397916317    -0.00841868156567054                       0 
                     -1        1.18493493493493        1.22503805160522        41.8594284057617   -2.79023453944061E-08           254012.703125                  101319        288.118896484375       0.100417397916317    -0.00841868159177604                       0 
                     -1        1.18243243243243        1.22503805160522        41.8594284057617   -2.85377388712899E-08           254012.703125                  101319        288.118896484375       0.100417397916317    -0.00841868162859959                       0 
                     -1        1.17992992992993        1.22503805160522        41.8594284057617   -2.91731323481736E-08           254012.703125                  101319        288.118896484375       0.100417397916317    -0.00841868166542313                       0 
                     -1        1.17742742742743        1.22503805160522        41.8594284057617   -2.98085258250573E-08           254012.703125                  101319        288.118896484375       0.100417397916317    -0.00841868170224669                       0 
                     -1        1.17492492492492        1.22503805160522        41.8594284057617    -3.0443919301941E-08           254012.703125                  101319        288.118896484375       0.100417397916317    -0.00841868173907023                       0 
                     -1        1.17242242242242        1.22503805160522        41.8594284057617   -3.10793127788247E-08           254012.703125                  101319        288.118896484375       0.100417397916317    -0.00841868177589378                       0 
                     -1        1.16991991991992        1.22503805160522        41.8594284057617   -3.17147057273575E-08           254012.703125                  101319        288.118896484375       0.100417397916317    -0.00841868181271679                       0 
                     -1        1.16741741741742        1.22503805160522        41.8594284057617   -3.23500992042412E-08           254012.703125                  101319        288.118896484375       0.100417397916317    -0.00841868184954034                       0 
                     -1        1.16491491491491        1.22503805160522        41.8594284057617   -3.29854926811249E-08           254012.703125                  101319        288.118896484375       0.100417397916317    -0.00841868188636389                       0 
                     -1        1.16241241241241        1.22503805160522        41.8594284057617   -3.36208861580086E-08           254012.703125                  101319        288.118896484375       0.100417397916317    -0.00841868192318744                       0 
                     -1        1.15990990990991        1.22503805160522        41.8594284057617   -3.42562796348923E-08           254012.703125                  101319        288.118896484375       0.100417397916317    -0.00841868196001099                       0 
                     -1        1.15740740740741        1.22503805160522        41.8594284057617    -3.4891673111776E-08           254012.703125                  101319        288.118896484375       0.100417397916317    -0.00841868199683454                       0 
                     -1         1.1549049049049        1.22503805160522        41.8594284057617    -3.5520678223088E-08           254012.703125                  101319        288.118896484375       0.100417397916317    -0.00841868203133128                       0 
                     -1         1.1524024024024        1.22503805160522        41.8594284057617   -3.60549708151987E-08           254012.703125                  101319        288.118896484375       0.100417397916317    -0.00841868203133128                       0 
                     -1         1.1498998998999        1.22503805160522        41.8594284057617   -3.65892634073095E-08           254012.703125                  101319        288.118896484375       0.100417397916317    -0.00841868203133128                       0 
                     -1         1.1473973973974        1.22503805160522        41.8594284057617   -3.71235559994202E-08           254012.703125                  101319        288.118896484375       0.100417397916317    -0.00841868203133128                       0 
                     -1        1.14489489489489        1.22503805160522        41.8594284057617    -3.7657848591531E-08           254012.703125                  101319        288.118896484375       0.100417397916317    -0.00841868203133128                       0 
                     -1        1.14239239239239        1.22503805160522        41.8594284057617   -3.81921411836417E-08           254012.703125                  101319        288.118896484375       0.100417397916317    -0.00841868203133128                       0 
                     -1        1.13988988988989        1.22503805160522        41.8594284057617   -3.87264337757525E-08           254012.703125                  101319        288.118896484375       0.100417397916317    -0.00841868203133128                       0 
                     -1        1.13738738738739        1.22503805160522        41.8594284057617   -3.92607258948509E-08           254012.703125                  101319        288.118896484375       0.100417397916317    -0.00841868203133128                       0 
                     -1        1.13488488488488        1.22503805160522        41.8594284057617   -3.97950184869616E-08           254012.703125                  101319        288.118896484375       0.100417397916317    -0.00841868203133128                       0 
                     -1        1.13238238238238        1.22503805160522        41.8594284057617   -4.03293110790724E-08           254012.703125                  101319        288.118896484375       0.100417397916317    -0.00841868203133128                       0 
                     -1        1.12987987987988        1.22503805160522        41.8594284057617   -4.08636036711831E-08           254012.703125                  101319        288.118896484375       0.100417397916317    -0.00841868203133128                       0 
                     -1        1.12737737737738        1.22503805160522        41.8594284057617   -4.13978962632939E-08           254012.703125                  101319        288.118896484375       0.100417397916317    -0.00841868203133128                       0 
                     -1        1.12487487487487        1.22503805160522        41.8594284057617   -4.19321888554046E-08           254012.703125                  101319        288.118896484375       0.100417397916317    -0.00841868203133128                       0 
                     -1        1.12237237237237        1.22503805160522        41.8594284057617    -4.2424679366715E-08           254012.703125                  101319        288.118896484375       0.100417397916317    -0.00841868203133128                       0 
                     -1        1.11986986986987        1.22503805160522        41.8594284057617   -4.28589244290263E-08           254012.703125                  101319        288.118896484375       0.100417397916317    -0.00841868203133128                       0 
                     -1        1.11736736736737        1.22503805160522        41.8594284057617   -4.32931694913377E-08           254012.703125                  101319        288.118896484375       0.100417397916317    -0.00841868203133128                       0 
                     -1        1.11486486486486        1.22503805160522        41.8594284057617    -4.3727414553649E-08           254012.703125                  101319        288.118896484375       0.100417397916317    -0.00841868203133128                       0 
                     -1        1.11236236236236        1.22503805160522        41.8594284057617   -4.41616596159603E-08           254012.703125                  101319        288.118896484375       0.100417397916317    -0.00841868203133128                       0 
                     -1        1.10985985985986        1.22503805160522        41.8594284057617   -4.45959046782716E-08           254012.703125                  101319        288.118896484375       0.100417397916317    -0.00841868203133128                       0 
                     -1        1.10735735735736        1.22503805160522        41.8594284057617    -4.5030149335613E-08           254012.703125                  101319        288.118896484375       0.100417397916317    -0.00841868203133128                       0 
                     -1        1.10485485485485        1.22503805160522        41.8594284057617   -4.54643943979244E-08           254012.703125                  101319        288.118896484375       0.100417397916317    -0.00841868203133128                       0 
                     -1        1.10235235235235        1.22503805160522        41.8594284057617   -4.58986394602357E-08           254012.703125                  101319        288.118896484375       0.100417397916317    -0.00841868203133128                       0 
                     -1        1.09984984984985        1.22503805160522        41.8594284057617    -4.6332884522547E-08           254012.703125                  101319        288.118896484375       0.100417397916317    -0.00841868203133128                       0 
                     -1        1.09734734734735        1.22503805160522        41.8594284057617   -4.67671295848583E-08           254012.703125                  101319        288.118896484375       0.100417397916317    -0.00841868203133128                       0 
                     -1        1.09484484484484        1.22503805160522        41.8594284057617   -4.72013746471696E-08           254012.703125                  101319        288.118896484375       0.100417397916317    -0.00841868203133128                       0 
                     -1        1.09234234234234        1.22503805160522        41.8594284057617   -4.76356197094809E-08           254012.703125                  101319        288.118896484375       0.100417397916317    -0.00841868203133128                       0 
                     -1        1.08983983983984        1.22503805160522        41.8594284057617   -4.80108545795744E-08           254012.703125                  101319        288.118896484375       0.100417397916317    -0.00841868203133128                       0 
                     -1        1.08733733733734        1.22503805160522        41.8594284057617   -4.83686690259296E-08           254012.703125                  101319        288.118896484375       0.100417397916317    -0.00841868203133128                       0 
                     -1        1.08483483483483        1.22503805160522        41.8594284057617   -4.87264834722848E-08           254012.703125                  101319        288.118896484375       0.100417397916317    -0.00841868203133128                       0 
                     -1        1.08233233233233        1.22503805160522        41.8594284057617   -4.90842979186399E-08           254012.703125                  101319        288.118896484375       0.100417397916317    -0.00841868203133128                       0 
                     -1        1.07982982982983        1.22503805160522        41.8594284057617   -4.94421123649951E-08           254012.703125                  101319        288.118896484375       0.100417397916317    -0.00841868203133128                       0 
                     -1        1.07732732732733        1.22503805160522        41.8594284057617   -4.97999268113503E-08           254012.703125                  101319        288.118896484375       0.100417397916317    -0.00841868203133128                       0 
                     -1        1.07482482482482        1.22503805160522        41.8594284057617   -5.01577409184616E-08           254012.703125                  101319        288.118896484375       0.100417397916317    -0.00841868203133128                       0 
                     -1        1.07232232232232        1.22503805160522        41.8594284057617   -5.05155553648168E-08           254012.703125                  101319        288.118896484375       0.100417397916317    -0.00841868203133128                       0 
                     -1        1.06981981981982        1.22503805160522        41.8594284057617   -5.08733698111719E-08           254012.703125                  101319        288.118896484375       0.100417397916317    -0.00841868203133128                       0 
                     -1        1.06731731731732        1.22503805160522        41.8594284057617   -5.12311842575271E-08           254012.703125                  101319        288.118896484375       0.100417397916317    -0.00841868203133128                       0 
                     -1        1.06481481481481        1.22503805160522        41.8594284057617   -5.15889987038823E-08           254012.703125                  101319        288.118896484375       0.100417397916317    -0.00841868203133128                       0 
                     -1        1.06231231231231        1.22503805160522        41.8594284057617   -5.19468131502375E-08           254012.703125                  101319        288.118896484375       0.100417397916317    -0.00841868203133128                       0 
                     -1        1.05980980980981        1.22503805160522        41.8594284057617   -5.22975753008343E-08           254012.703125                  101319        288.118896484375       0.100417397916317    -0.00841868203133128                       0 
                     -1        1.05730730730731        1.22503805160522        41.8594284057617   -5.25997534691526E-08           254012.703125                  101319        288.118896484375       0.100417397916317    -0.00841868203133128                       0 
                     -1         1.0548048048048        1.22503805160522        41.8594284057617    -5.2901931637471E-08           254012.703125                  101319        288.118896484375       0.100417397916317    -0.00841868203133128                       0 
                     -1         1.0523023023023        1.22503805160522        41.8594284057617   -5.32041098057893E-08           254012.703125                  101319        288.118896484375       0.100417397916317    -0.00841868203133128                       0 
                     -1         1.0497997997998        1.22503805160522        41.8594284057617   -5.35062879741076E-08           254012.703125                  101319        288.118896484375       0.100417397916317    -0.00841868203133128                       0 
                     -1         1.0472972972973        1.22503805160522        41.8594284057617    -5.3808466142426E-08           254012.703125                  101319        288.118896484375       0.100417397916317    -0.00841868203133128                       0 
                     -1        1.04479479479479        1.22503805160522        41.8594284057617   -5.41106443107443E-08           254012.703125                  101319        288.118896484375       0.100417397916317    -0.00841868203133128                       0 
                     -1        1.04229229229229        1.22503805160522        41.8594284057617   -5.44128222036121E-08           254012.703125                  101319        288.118896484375       0.100417397916317    -0.00841868203133128                       0 
                     -1        1.03978978978979        1.22503805160522        41.8594284057617   -5.47150003719304E-08           254012.703125                  101319        288.118896484375       0.100417397916317    -0.00841868203133128                       0 
                     -1        1.03728728728729        1.22503805160522        41.8594284057617   -5.50171785402487E-08           254012.703125                  101319        288.118896484375       0.100417397916317    -0.00841868203133128                       0 
                     -1        1.03478478478478        1.22503805160522        41.8594284057617   -5.53193567085671E-08           254012.703125                  101319        288.118896484375       0.100417397916317    -0.00841868203133128                       0 
                     -1        1.03228228228228        1.22503805160522        41.8594284057617   -5.56215348768854E-08           254012.703125                  101319        288.118896484375       0.100417397916317    -0.00841868203133128                       0 
                     -1        1.02977977977978        1.22503805160522        41.8594284057617   -5.59237130452037E-08           254012.703125                  101319        288.118896484375       0.100417397916317    -0.00841868203133128                       0 
                     -1        1.02727727727728        1.22503805160522        41.8594284057617   -5.62089654052936E-08           254012.703125                  101319        288.118896484375       0.100417397916317    -0.00841868206675676                       0 
                     -1        1.02477477477477        1.22503805160522        41.8594284057617   -5.64759555326929E-08           254012.703125                  101319        288.118896484375       0.100417397916317    -0.00841868214040483                       0 
                     -1        1.02227227227227        1.22503805160522        41.8594284057617   -5.67429456600921E-08           254012.703125                  101319        288.118896484375       0.100417397916317     -0.0084186822140529                       0 
                     -1        1.01976976976977        1.22503805160522        41.8594284057617   -5.70099357874914E-08           254012.703125                  101319        288.118896484375       0.100417397916317    -0.00841868228770097                       0 
                     -1        1.01726726726727        1.22503805160522        41.8594284057617   -5.72769259148907E-08           254012.703125                  101319        288.118896484375       0.100417397916317    -0.00841868236134904                       0 
                     -1        1.01476476476476        1.22503805160522        41.8594284057617     -5.754391604229E-08           254012.703125                  101319        288.118896484375       0.100417397916317    -0.00841868243499711                       0 
                     -1        1.01226226226226        1.22503805160522        41.8594284057617   -5.78109059476016E-08           254012.703125                  101319        288.118896484375       0.100417397916317    -0.00841868250864518                       0 
                     -1        1.00975975975976        1.22503805160522        41.8594284057617   -5.80778960750008E-08           254012.703125                  101319        288.118896484375       0.100417397916317    -0.00841868258229325                       0 
                     -1        1.00725725725726        1.22503805160522        41.8594284057617   -5.83448862024001E-08           254012.703125                  101319        288.118896484375       0.100417397916317    -0.00841868265594132                       0 
                     -1        1.00475475475475        1.22503805160522        41.8594284057617   -5.86118763297994E-08           254012.703125                  101319        288.118896484375       0.100417397916317    -0.00841868272958939                       0 
                     -1        1.00225225225225        1.22503805160522        41.8594284057617   -5.88788664571987E-08           254012.703125                  101319        288.118896484375       0.100417397916317    -0.00841868280323746                       0 
                     -1        0.99974974974975        1.22503805160522        41.8594284057617    -5.9145856584598E-08           254012.703125                  101319        288.118896484375       0.100417397916317    -0.00841868287688553                       0 
                     -1       0.997247247247247        1.22503805160522        41.8594284057617   -5.94128467119973E-08           254012.703125                  101319        288.118896484375       0.100417397916317     -0.0084186829505336                       0 
                     -1       0.994744744744745        1.22503805160522        41.8594284057617   -5.96584887037899E-08           254012.703125                  101319        288.118896484375       0.100417397916317    -0.00841868296265386                       0 
                     -1       0.992242242242242        1.22503805160522        41.8594284057617   -5.98999253632477E-08           254012.703125                  101319        288.118896484375       0.100417397916317    -0.00841868296265386                       0 
                     -1        0.98973973973974        1.22503805160522        41.8594284057617   -6.01413620227055E-08           254012.703125                  101319        288.118896484375       0.100417397916317    -0.00841868296265386                       0 
                     -1       0.987237237237237        1.22503805160522        41.8594284057617   -6.03827986821633E-08           254012.703125                  101319        288.118896484375       0.100417397916317    -0.00841868296265386                       0 
                     -1       0.984734734734735        1.22503805160522        41.8594284057617   -6.06242353416211E-08           254012.703125                  101319        288.118896484375       0.100417397916317    -0.00841868296265386                       0 
                     -1       0.982232232232232        1.22503805160522        41.8594284057617   -6.08656720010789E-08           254012.703125                  101319        288.118896484375       0.100417397916317    -0.00841868296265386                       0 
                     -1        0.97972972972973        1.22503805160522        41.8594284057617    -6.1107108480894E-08           254012.703125                  101319        288.118896484375       0.100417397916317    -0.00841868296265386                       0 
                     -1       0.977227227227227        1.22503805160522        41.8594284057617   -6.13485451403518E-08           254012.703125                  101319        288.118896484375       0.100417397916317    -0.00841868296265386                       0 
                     -1       0.974724724724725        1.22503805160522        41.8594284057617   -6.15899817998096E-08           254012.703125                  101319        288.118896484375       0.100417397916317    -0.00841868296265386                       0 
                     -1       0.972222222222222        1.22503805160522        41.8594284057617   -6.18314184592674E-08           254012.703125                  101319        288.118896484375       0.100417397916317    -0.00841868296265386                       0 