TITLE = "SU2 Simulation"
VARIABLES = "Iteration","CL","CD","CSF","CMx","CMy","CMz","CFx","CFy","CFz","CL/CD","AoA","Custom_ObjFunc","Res_Flow[0]","Res_Flow[1]","Res_Flow[2]","Res_Flow[3]","Res_Flow[4]","Linear_Solver_Iterations","CFL_Number","Time(min)"
ZONE T= "Convergence history"
           0, 0.00000000e+00, 0.00000000e+00, 0.00000000e+00, 0.00000000e+00, 0.00000000e+00, 0.00000000e+00, 0.00000000e+00, 0.00000000e+00, 0.00000000e+00, 0.00000000e+00, 0.00000000e+00, 0.00000000e+00, -4.70654170e+00, -2.07178545e+00, -1.35871415e+01, 8.34261879e-01, 0.00000000e+00, 5.0000000000, 6.0000000000, 0.0002755500
           1, 0.00000000e+00, 0.00000000e+00, 0.00000000e+00, 0.00000000e+00, 0.00000000e+00, 0.00000000e+00, 0.00000000e+00, 0.00000000e+00, 0.00000000e+00, 0.00000000e+00, 0.00000000e+00, 0.00000000e+00, -5.13838406e+00, -2.48933357e+00, -4.25352356e+00, 4.24302487e-01, 0.00000000e+00, 5.0000000000, 6.0000000000, 0.0005664500
           2, 0.00000000e+00, 0.00000000e+00, 0.00000000e+00, 0.00000000e+00, 0.00000000e+00, 0.00000000e+00, 0.00000000e+00, 0.00000000e+00, 0.00000000e+00, 0.00000000e+00, 0.00000000e+00, 0.00000000e+00, -3.86485063e+00, -1.39293373e+00, -4.06842918e+00, 1.57531116e+00, 0.00000000e+00, 5.0000000000, 6.0000000000, 0.0008127667
           3, 0.00000000e+00, 0.00000000e+00, 0.00000000e+00, 0.00000000e+00, 0.00000000e+00, 0.00000000e+00, 0.00000000e+00, 0.00000000e+00, 0.00000000e+00, 0.00000000e+00, 0.00000000e+00, 0.00000000e+00, -3.69935513e+00, -1.22894454e+00, -3.20169398e+00, 1.74060254e+00, 0.00000000e+00, 5.0000000000, 6.0000000000, 0.0010633500
           4, 0.00000000e+00, 0.00000000e+00, 0.00000000e+00, 0.00000000e+00, 0.00000000e+00, 0.00000000e+00, 0.00000000e+00, 0.00000000e+00, 0.00000000e+00, 0.00000000e+00, 0.00000000e+00, 0.00000000e+00, -3.66310759e+00, -1.19198166e+00, -2.81585438e+00, 1.77716677e+00, 0.00000000e+00, 5.0000000000, 6.0000000000, 0.0013136500
           5, 0.00000000e+00, 0.00000000e+00, 0.00000000e+00, 0.00000000e+00, 0.00000000e+00, 0.00000000e+00, 0.00000000e+00, 0.00000000e+00, 0.00000000e+00, 0.00000000e+00, 0.00000000e+00, 0.00000000e+00, -3.67366963e+00, -1.20140879e+00, -2.65075007e+00, 1.76689180e+00, 0.00000000e+00, 5.0000000000, 6.0000000000, 0.0015380333
           6, 0.00000000e+00, 0.00000000e+00, 0.00000000e+00, 0.00000000e+00, 0.00000000e+00, 0.00000000e+00, 0.00000000e+00, 0.00000000e+00, 0.00000000e+00, 0.00000000e+00, 0.00000000e+00, 0.00000000e+00, -3.70087380e+00, -1.22870266e+00, -2.59645188e+00, 1.73990713e+00, 0.00000000e+00, 5.0000000000, 6.0000000000, 0.0017579000
           7, 0.00000000e+00, 0.00000000e+00, 0.00000000e+00, 0.00000000e+00, 0.00000000e+00, 0.00000000e+00, 0.00000000e+00, 0.00000000e+00, 0.00000000e+00, 0.00000000e+00, 0.00000000e+00, 0.00000000e+00, -3.73058491e+00, -1.25962370e+00, -2.59735469e+00, 1.71046883e+00, 0.00000000e+00, 5.0000000000, 6.0000000000, 0.0019889500
           8, 0.00000000e+00, 0.00000000e+00, 0.00000000e+00, 0.00000000e+00, 0.00000000e+00, 0.00000000e+00, 0.00000000e+00, 0.00000000e+00, 0.00000000e+00, 0.00000000e+00, 0.00000000e+00, 0.00000000e+00, -3.75674299e+00, -1.28680520e+00, -2.61259272e+00, 1.68466583e+00, 0.00000000e+00, 5.0000000000, 6.0000000000, 0.0022724167
           9, 0.00000000e+00, 0.00000000e+00, 0.00000000e+00, 0.00000000e+00, 0.00000000e+00, 0.00000000e+00, 0.00000000e+00, 0.00000000e+00, 0.00000000e+00, 0.00000000e+00, 0.00000000e+00, 0.00000000e+00, -3.77754052e+00, -1.30754915e+00, -2.62570173e+00, 1.66420757e+00, 0.00000000e+00, 5.0000000000, 6.0000000000, 0.0025411167
          10, 0.00000000e+00, 0.00000000e+00, 0.00000000e+00, 0.00000000e+00, 0.00000000e+00, 0.00000000e+00, 0.00000000e+00, 0.00000000e+00, 0.00000000e+00, 0.00000000e+00, 0.00000000e+00, 0.00000000e+00, -3.79339426e+00, -1.32226329e+00, -2.64359892e+00, 1.64856151e+00, 0.00000000e+00, 5.0000000000, 6.0000000000, 0.0028221833
          11, 0.00000000e+00, 0.00000000e+00, 0.00000000e+00, 0.00000000e+00, 0.00000000e+00, 0.00000000e+00, 0.00000000e+00, 0.00000000e+00, 0.00000000e+00, 0.00000000e+00, 0.00000000e+00, 0.00000000e+00, -3.80585202e+00, -1.33276896e+00, -2.67124944e+00, 1.63612689e+00, 0.00000000e+00, 5.0000000000, 6.0000000000, 0.0030978833
          12, 0.00000000e+00, 0.00000000e+00, 0.00000000e+00, 0.00000000e+00, 0.00000000e+00, 0.00000000e+00, 0.00000000e+00, 0.00000000e+00, 0.00000000e+00, 0.00000000e+00, 0.00000000e+00, 0.00000000e+00, -3.81664135e+00, -1.34098778e+00, -2.70119207e+00, 1.62519151e+00, 0.00000000e+00, 5.0000000000, 6.0000000000, 0.0033701500
          13, 0.00000000e+00, 0.00000000e+00, 0.00000000e+00, 0.00000000e+00, 0.00000000e+00, 0.00000000e+00, 0.00000000e+00, 0.00000000e+00, 0.00000000e+00, 0.00000000e+00, 0.00000000e+00, 0.00000000e+00, -3.82690143e+00, -1.34838201e+00, -2.72311364e+00, 1.61467471e+00, 0.00000000e+00, 5.0000000000, 6.0000000000, 0.0036665833
          14, 0.00000000e+00, 0.00000000e+00, 0.00000000e+00, 0.00000000e+00, 0.00000000e+00, 0.00000000e+00, 0.00000000e+00, 0.00000000e+00, 0.00000000e+00, 0.00000000e+00, 0.00000000e+00, 0.00000000e+00, -3.83689273e+00, -1.35595426e+00, -2.73587914e+00, 1.60439955e+00, 0.00000000e+00, 5.0000000000, 6.0000000000, 0.0039680667
          15, 0.00000000e+00, 0.00000000e+00, 0.00000000e+00, 0.00000000e+00, 0.00000000e+00, 0.00000000e+00, 0.00000000e+00, 0.00000000e+00, 0.00000000e+00, 0.00000000e+00, 0.00000000e+00, 0.00000000e+00, -3.84618220e+00, -1.36438088e+00, -2.74591142e+00, 1.59489307e+00, 0.00000000e+00, 5.0000000000, 6.0000000000, 0.0042278333
          16, 0.00000000e+00, 0.00000000e+00, 0.00000000e+00, 0.00000000e+00, 0.00000000e+00, 0.00000000e+00, 0.00000000e+00, 0.00000000e+00, 0.00000000e+00, 0.00000000e+00, 0.00000000e+00, 0.00000000e+00, -3.85412598e+00, -1.37404737e+00, -2.75826419e+00, 1.58687783e+00, 0.00000000e+00, 5.0000000000, 6.0000000000, 0.0045446000
          17, 0.00000000e+00, 0.00000000e+00, 0.00000000e+00, 0.00000000e+00, 0.00000000e+00, 0.00000000e+00, 0.00000000e+00, 0.00000000e+00, 0.00000000e+00, 0.00000000e+00, 0.00000000e+00, 0.00000000e+00, -3.86037202e+00, -1.38495387e+00, -2.77406379e+00, 1.58073563e+00, 0.00000000e+00, 5.0000000000, 6.0000000000, 0.0048665333
          18, 0.00000000e+00, 0.00000000e+00, 0.00000000e+00, 0.00000000e+00, 0.00000000e+00, 0.00000000e+00, 0.00000000e+00, 0.00000000e+00, 0.00000000e+00, 0.00000000e+00, 0.00000000e+00, 0.00000000e+00, -3.86512209e+00, -1.39661141e+00, -2.79298146e+00, 1.57622787e+00, 0.00000000e+00, 5.0000000000, 6.0000000000, 0.0051694833
          19, 0.00000000e+00, 0.00000000e+00, 0.00000000e+00, 0.00000000e+00, 0.00000000e+00, 0.00000000e+00, 0.00000000e+00, 0.00000000e+00, 0.00000000e+00, 0.00000000e+00, 0.00000000e+00, 0.00000000e+00, -3.86904908e+00, -1.40809042e+00, -2.81496117e+00, 1.57259445e+00, 0.00000000e+00, 5.0000000000, 6.0000000000, 0.0054486500
          20, 0.00000000e+00, 0.00000000e+00, 0.00000000e+00, 0.00000000e+00, 0.00000000e+00, 0.00000000e+00, 0.00000000e+00, 0.00000000e+00, 0.00000000e+00, 0.00000000e+00, 0.00000000e+00, 0.00000000e+00, -3.87298281e+00, -1.41829427e+00, -2.83966276e+00, 1.56890729e+00, 0.00000000e+00, 5.0000000000, 6.0000000000, 0.0057214333
          21, 0.00000000e+00, 0.00000000e+00, 0.00000000e+00, 0.00000000e+00, 0.00000000e+00, 0.00000000e+00, 0.00000000e+00, 0.00000000e+00, 0.00000000e+00, 0.00000000e+00, 0.00000000e+00, 0.00000000e+00, -3.87758828e+00, -1.42636475e+00, -2.86530464e+00, 1.56442691e+00, 0.00000000e+00, 5.0000000000, 6.0000000000, 0.0060423667
          22, 0.00000000e+00, 0.00000000e+00, 0.00000000e+00, 0.00000000e+00, 0.00000000e+00, 0.00000000e+00, 0.00000000e+00, 0.00000000e+00, 0.00000000e+00, 0.00000000e+00, 0.00000000e+00, 0.00000000e+00, -3.88319630e+00, -1.43198880e+00, -2.88876227e+00, 1.55878649e+00, 0.00000000e+00, 5.0000000000, 6.0000000000, 0.0062936500
          23, 0.00000000e+00, 0.00000000e+00, 0.00000000e+00, 0.00000000e+00, 0.00000000e+00, 0.00000000e+00, 0.00000000e+00, 0.00000000e+00, 0.00000000e+00, 0.00000000e+00, 0.00000000e+00, 0.00000000e+00, -3.88981688e+00, -1.43540695e+00, -2.90727637e+00, 1.55197476e+00, 0.00000000e+00, 5.0000000000, 6.0000000000, 0.0065312833
          24, 0.00000000e+00, 0.00000000e+00, 0.00000000e+00, 0.00000000e+00, 0.00000000e+00, 0.00000000e+00, 0.00000000e+00, 0.00000000e+00, 0.00000000e+00, 0.00000000e+00, 0.00000000e+00, 0.00000000e+00, -3.89727998e+00, -1.43713110e+00, -2.92034777e+00, 1.54418203e+00, 0.00000000e+00, 5.0000000000, 6.0000000000, 0.0068026833
          25, 0.00000000e+00, 0.00000000e+00, 0.00000000e+00, 0.00000000e+00, 0.00000000e+00, 0.00000000e+00, 0.00000000e+00, 0.00000000e+00, 0.00000000e+00, 0.00000000e+00, 0.00000000e+00, 0.00000000e+00, -3.90542557e+00, -1.43756665e+00, -2.92990444e+00, 1.53559509e+00, 0.00000000e+00, 5.0000000000, 6.0000000000, 0.0070352667
          26, 0.00000000e+00, 0.00000000e+00, 0.00000000e+00, 0.00000000e+00, 0.00000000e+00, 0.00000000e+00, 0.00000000e+00, 0.00000000e+00, 0.00000000e+00, 0.00000000e+00, 0.00000000e+00, 0.00000000e+00, -3.91427635e+00, -1.43674095e+00, -2.93873753e+00, 1.52621237e+00, 0.00000000e+00, 5.0000000000, 6.0000000000, 0.0073301333
          27, 0.00000000e+00, 0.00000000e+00, 0.00000000e+00, 0.00000000e+00, 0.00000000e+00, 0.00000000e+00, 0.00000000e+00, 0.00000000e+00, 0.00000000e+00, 0.00000000e+00, 0.00000000e+00, 0.00000000e+00, -3.92415053e+00, -1.43423238e+00, -2.94890768e+00, 1.51572458e+00, 0.00000000e+00, 5.0000000000, 6.0000000000, 0.0076072833
          28, 0.00000000e+00, 0.00000000e+00, 0.00000000e+00, 0.00000000e+00, 0.00000000e+00, 0.00000000e+00, 0.00000000e+00, 0.00000000e+00, 0.00000000e+00, 0.00000000e+00, 0.00000000e+00, 0.00000000e+00, -3.93569850e+00, -1.42930541e+00, -2.96113609e+00, 1.50347778e+00, 0.00000000e+00, 5.0000000000, 6.0000000000, 0.0078395000
          29, 0.00000000e+00, 0.00000000e+00, 0.00000000e+00, 0.00000000e+00, 0.00000000e+00, 0.00000000e+00, 0.00000000e+00, 0.00000000e+00, 0.00000000e+00, 0.00000000e+00, 0.00000000e+00, 0.00000000e+00, -3.94986737e+00, -1.42121454e+00, -2.97494147e+00, 1.48851507e+00, 0.00000000e+00, 5.0000000000, 6.0000000000, 0.0081256333
          30, 0.00000000e+00, 0.00000000e+00, 0.00000000e+00, 0.00000000e+00, 0.00000000e+00, 0.00000000e+00, 0.00000000e+00, 0.00000000e+00, 0.00000000e+00, 0.00000000e+00, 0.00000000e+00, 0.00000000e+00, -3.96780425e+00, -1.40959016e+00, -2.98900269e+00, 1.46968701e+00, 0.00000000e+00, 5.0000000000, 6.0000000000, 0.0084146833
          31, 0.00000000e+00, 0.00000000e+00, 0.00000000e+00, 0.00000000e+00, 0.00000000e+00, 0.00000000e+00, 0.00000000e+00, 0.00000000e+00, 0.00000000e+00, 0.00000000e+00, 0.00000000e+00, 0.00000000e+00, -3.99069648e+00, -1.39475390e+00, -3.00154854e+00, 1.44583824e+00, 0.00000000e+00, 5.0000000000, 6.0000000000, 0.0086920333
          32, 0.00000000e+00, 0.00000000e+00, 0.00000000e+00, 0.00000000e+00, 0.00000000e+00, 0.00000000e+00, 0.00000000e+00, 0.00000000e+00, 0.00000000e+00, 0.00000000e+00, 0.00000000e+00, 0.00000000e+00, -4.01950764e+00, -1.37780585e+00, -3.01087427e+00, 1.41612600e+00, 0.00000000e+00, 5.0000000000, 6.0000000000, 0.0089345333
          33, 0.00000000e+00, 0.00000000e+00, 0.00000000e+00, 0.00000000e+00, 0.00000000e+00, 0.00000000e+00, 0.00000000e+00, 0.00000000e+00, 0.00000000e+00, 0.00000000e+00, 0.00000000e+00, 0.00000000e+00, -4.05448874e+00, -1.36044248e+00, -3.01605873e+00, 1.38062016e+00, 0.00000000e+00, 5.0000000000, 6.0000000000, 0.0092028167
          34, 0.00000000e+00, 0.00000000e+00, 0.00000000e+00, 0.00000000e+00, 0.00000000e+00, 0.00000000e+00, 0.00000000e+00, 0.00000000e+00, 0.00000000e+00, 0.00000000e+00, 0.00000000e+00, 0.00000000e+00, -4.09422409e+00, -1.34461983e+00, -3.01762947e+00, 1.34145194e+00, 0.00000000e+00, 5.0000000000, 6.0000000000, 0.0094717333
          35, 0.00000000e+00, 0.00000000e+00, 0.00000000e+00, 0.00000000e+00, 0.00000000e+00, 0.00000000e+00, 0.00000000e+00, 0.00000000e+00, 0.00000000e+00, 0.00000000e+00, 0.00000000e+00, 0.00000000e+00, -4.13397277e+00, -1.33222989e+00, -3.01767305e+00, 1.30463601e+00, 0.00000000e+00, 5.0000000000, 6.0000000000, 0.0097128167
          36, 0.00000000e+00, 0.00000000e+00, 0.00000000e+00, 0.00000000e+00, 0.00000000e+00, 0.00000000e+00, 0.00000000e+00, 0.00000000e+00, 0.00000000e+00, 0.00000000e+00, 0.00000000e+00, 0.00000000e+00, -4.16400661e+00, -1.32488931e+00, -3.01920034e+00, 1.28120848e+00, 0.00000000e+00, 5.0000000000, 6.0000000000, 0.0099491500
          37, 0.00000000e+00, 0.00000000e+00, 0.00000000e+00, 0.00000000e+00, 0.00000000e+00, 0.00000000e+00, 0.00000000e+00, 0.00000000e+00, 0.00000000e+00, 0.00000000e+00, 0.00000000e+00, 0.00000000e+00, -4.17163657e+00, -1.32384123e+00, -3.02524175e+00, 1.28316832e+00, 0.00000000e+00, 5.0000000000, 6.0000000000, 0.0102002333
          38, 0.00000000e+00, 0.00000000e+00, 0.00000000e+00, 0.00000000e+00, 0.00000000e+00, 0.00000000e+00, 0.00000000e+00, 0.00000000e+00, 0.00000000e+00, 0.00000000e+00, 0.00000000e+00, 0.00000000e+00, -4.15044564e+00, -1.32991526e+00, -3.03828346e+00, 1.31327565e+00, 0.00000000e+00, 5.0000000000, 6.0000000000, 0.0104690500
          39, 0.00000000e+00, 0.00000000e+00, 0.00000000e+00, 0.00000000e+00, 0.00000000e+00, 0.00000000e+00, 0.00000000e+00, 0.00000000e+00, 0.00000000e+00, 0.00000000e+00, 0.00000000e+00, 0.00000000e+00, -4.10712961e+00, -1.34347928e+00, -3.05998565e+00, 1.36186113e+00, 0.00000000e+00, 5.0000000000, 6.0000000000, 0.0107806667
          40, 0.00000000e+00, 0.00000000e+00, 0.00000000e+00, 0.00000000e+00, 0.00000000e+00, 0.00000000e+00, 0.00000000e+00, 0.00000000e+00, 0.00000000e+00, 0.00000000e+00, 0.00000000e+00, 0.00000000e+00, -4.05478433e+00, -1.36431567e+00, -3.09079357e+00, 1.41600389e+00, 0.00000000e+00, 5.0000000000, 6.0000000000, 0.0110662000
          41, 0.00000000e+00, 0.00000000e+00, 0.00000000e+00, 0.00000000e+00, 0.00000000e+00, 0.00000000e+00, 0.00000000e+00, 0.00000000e+00, 0.00000000e+00, 0.00000000e+00, 0.00000000e+00, 0.00000000e+00, -4.00365760e+00, -1.39135309e+00, -3.12933081e+00, 1.46692536e+00, 0.00000000e+00, 5.0000000000, 6.0000000000, 0.0113262667
          42, 0.00000000e+00, 0.00000000e+00, 0.00000000e+00, 0.00000000e+00, 0.00000000e+00, 0.00000000e+00, 0.00000000e+00, 0.00000000e+00, 0.00000000e+00, 0.00000000e+00, 0.00000000e+00, 0.00000000e+00, -3.95909478e+00, -1.42220802e+00, -3.17162403e+00, 1.51041287e+00, 0.00000000e+00, 5.0000000000, 6.0000000000, 0.0115668333
          43, 0.00000000e+00, 0.00000000e+00, 0.00000000e+00, 0.00000000e+00, 0.00000000e+00, 0.00000000e+00, 0.00000000e+00, 0.00000000e+00, 0.00000000e+00, 0.00000000e+00, 0.00000000e+00, 0.00000000e+00, -3.92321194e+00, -1.45264286e+00, -3.21045694e+00, 1.54494020e+00, 0.00000000e+00, 5.0000000000, 6.0000000000, 0.0118255167
          44, 0.00000000e+00, 0.00000000e+00, 0.00000000e+00, 0.00000000e+00, 0.00000000e+00, 0.00000000e+00, 0.00000000e+00, 0.00000000e+00, 0.00000000e+00, 0.00000000e+00, 0.00000000e+00, 0.00000000e+00, -3.89656862e+00, -1.47649995e+00, -3.23619662e+00, 1.57020604e+00, 0.00000000e+00, 5.0000000000, 6.0000000000, 0.0120613000
          45, 0.00000000e+00, 0.00000000e+00, 0.00000000e+00, 0.00000000e+00, 0.00000000e+00, 0.00000000e+00, 0.00000000e+00, 0.00000000e+00, 0.00000000e+00, 0.00000000e+00, 0.00000000e+00, 0.00000000e+00, -3.87911912e+00, -1.48720695e+00, -3.24113585e+00, 1.58635349e+00, 0.00000000e+00, 5.0000000000, 6.0000000000, 0.0123752833
          46, 0.00000000e+00, 0.00000000e+00, 0.00000000e+00, 0.00000000e+00, 0.00000000e+00, 0.00000000e+00, 0.00000000e+00, 0.00000000e+00, 0.00000000e+00, 0.00000000e+00, 0.00000000e+00, 0.00000000e+00, -3.87067768e+00, -1.48107553e+00, -3.22507781e+00, 1.59359228e+00, 0.00000000e+00, 5.0000000000, 6.0000000000, 0.0126542333
          47, 0.00000000e+00, 0.00000000e+00, 0.00000000e+00, 0.00000000e+00, 0.00000000e+00, 0.00000000e+00, 0.00000000e+00, 0.00000000e+00, 0.00000000e+00, 0.00000000e+00, 0.00000000e+00, 0.00000000e+00, -3.87114496e+00, -1.45968105e+00, -3.19497601e+00, 1.59201027e+00, 0.00000000e+00, 5.0000000000, 6.0000000000, 0.0129036500
          48, 0.00000000e+00, 0.00000000e+00, 0.00000000e+00, 0.00000000e+00, 0.00000000e+00, 0.00000000e+00, 0.00000000e+00, 0.00000000e+00, 0.00000000e+00, 0.00000000e+00, 0.00000000e+00, 0.00000000e+00, -3.88063161e+00, -1.42847032e+00, -3.15908025e+00, 1.58146290e+00, 0.00000000e+00, 5.0000000000, 6.0000000000, 0.0131869833
          49, 0.00000000e+00, 0.00000000e+00, 0.00000000e+00, 0.00000000e+00, 0.00000000e+00, 0.00000000e+00, 0.00000000e+00, 0.00000000e+00, 0.00000000e+00, 0.00000000e+00, 0.00000000e+00, 0.00000000e+00, -3.89954675e+00, -1.39338749e+00, -3.12297621e+00, 1.56148427e+00, 0.00000000e+00, 5.0000000000, 6.0000000000, 0.0135363667
          50, 0.00000000e+00, 0.00000000e+00, 0.00000000e+00, 0.00000000e+00, 0.00000000e+00, 0.00000000e+00, 0.00000000e+00, 0.00000000e+00, 0.00000000e+00, 0.00000000e+00, 0.00000000e+00, 0.00000000e+00, -3.92868852e+00, -1.35883730e+00, -3.08938891e+00, 1.53118460e+00, 0.00000000e+00, 5.0000000000, 6.0000000000, 0.0137679667
          51, 0.00000000e+00, 0.00000000e+00, 0.00000000e+00, 0.00000000e+00, 0.00000000e+00, 0.00000000e+00, 0.00000000e+00, 0.00000000e+00, 0.00000000e+00, 0.00000000e+00, 0.00000000e+00, 0.00000000e+00, -3.96936587e+00, -1.32747149e+00, -3.05939082e+00, 1.48909794e+00, 0.00000000e+00, 5.0000000000, 6.0000000000, 0.0140043167
          52, 0.00000000e+00, 0.00000000e+00, 0.00000000e+00, 0.00000000e+00, 0.00000000e+00, 0.00000000e+00, 0.00000000e+00, 0.00000000e+00, 0.00000000e+00, 0.00000000e+00, 0.00000000e+00, 0.00000000e+00, -4.02358138e+00, -1.30071491e+00, -3.03345308e+00, 1.43292632e+00, 0.00000000e+00, 5.0000000000, 6.0000000000, 0.0142841333
          53, 0.00000000e+00, 0.00000000e+00, 0.00000000e+00, 0.00000000e+00, 0.00000000e+00, 0.00000000e+00, 0.00000000e+00, 0.00000000e+00, 0.00000000e+00, 0.00000000e+00, 0.00000000e+00, 0.00000000e+00, -4.09429103e+00, -1.27929866e+00, -3.01200980e+00, 1.35909274e+00, 0.00000000e+00, 5.0000000000, 6.0000000000, 0.0145668500
          54, 0.00000000e+00, 0.00000000e+00, 0.00000000e+00, 0.00000000e+00, 0.00000000e+00, 0.00000000e+00, 0.00000000e+00, 0.00000000e+00, 0.00000000e+00, 0.00000000e+00, 0.00000000e+00, 0.00000000e+00, -4.18560896e+00, -1.26360904e+00, -2.99563853e+00, 1.26200319e+00, 0.00000000e+00, 5.0000000000, 6.0000000000, 0.0148667833
          55, 0.00000000e+00, 0.00000000e+00, 0.00000000e+00, 0.00000000e+00, 0.00000000e+00, 0.00000000e+00, 0.00000000e+00, 0.00000000e+00, 0.00000000e+00, 0.00000000e+00, 0.00000000e+00, 0.00000000e+00, -4.30180354e+00, -1.25387799e+00, -2.98503350e+00, 1.13341299e+00, 0.00000000e+00, 5.0000000000, 6.0000000000, 0.0151050167
          56, 0.00000000e+00, 0.00000000e+00, 0.00000000e+00, 0.00000000e+00, 0.00000000e+00, 0.00000000e+00, 0.00000000e+00, 0.00000000e+00, 0.00000000e+00, 0.00000000e+00, 0.00000000e+00, 0.00000000e+00, -4.43763635e+00, -1.25027538e+00, -2.98096445e+00, 9.68237190e-01, 0.00000000e+00, 5.0000000000, 6.0000000000, 0.0154021333
          57, 0.00000000e+00, 0.00000000e+00, 0.00000000e+00, 0.00000000e+00, 0.00000000e+00, 0.00000000e+00, 0.00000000e+00, 0.00000000e+00, 0.00000000e+00, 0.00000000e+00, 0.00000000e+00, 0.00000000e+00, -4.53360524e+00, -1.25294953e+00, -2.98435852e+00, 8.27559705e-01, 0.00000000e+00, 5.0000000000, 6.0000000000, 0.0156643667
          58, 0.00000000e+00, 0.00000000e+00, 0.00000000e+00, 0.00000000e+00, 0.00000000e+00, 0.00000000e+00, 0.00000000e+00, 0.00000000e+00, 0.00000000e+00, 0.00000000e+00, 0.00000000e+00, 0.00000000e+00, -4.48588640e+00, -1.26204606e+00, -2.99591048e+00, 8.94412272e-01, 0.00000000e+00, 5.0000000000, 6.0000000000, 0.0158978667
          59, 0.00000000e+00, 0.00000000e+00, 0.00000000e+00, 0.00000000e+00, 0.00000000e+00, 0.00000000e+00, 0.00000000e+00, 0.00000000e+00, 0.00000000e+00, 0.00000000e+00, 0.00000000e+00, 0.00000000e+00, -4.36097587e+00, -1.27771089e+00, -3.01556709e+00, 1.05617757e+00, 0.00000000e+00, 5.0000000000, 6.0000000000, 0.0161870667
          60, 0.00000000e+00, 0.00000000e+00, 0.00000000e+00, 0.00000000e+00, 0.00000000e+00, 0.00000000e+00, 0.00000000e+00, 0.00000000e+00, 0.00000000e+00, 0.00000000e+00, 0.00000000e+00, 0.00000000e+00, -4.24621175e+00, -1.30007743e+00, -3.04317177e+00, 1.18873578e+00, 0.00000000e+00, 5.0000000000, 6.0000000000, 0.0164567167
          61, 0.00000000e+00, 0.00000000e+00, 0.00000000e+00, 0.00000000e+00, 0.00000000e+00, 0.00000000e+00, 0.00000000e+00, 0.00000000e+00, 0.00000000e+00, 0.00000000e+00, 0.00000000e+00, 0.00000000e+00, -4.15663602e+00, -1.32924974e+00, -3.07814625e+00, 1.28652975e+00, 0.00000000e+00, 5.0000000000, 6.0000000000, 0.0166888333
          62, 0.00000000e+00, 0.00000000e+00, 0.00000000e+00, 0.00000000e+00, 0.00000000e+00, 0.00000000e+00, 0.00000000e+00, 0.00000000e+00, 0.00000000e+00, 0.00000000e+00, 0.00000000e+00, 0.00000000e+00, -4.08892112e+00, -1.36525426e+00, -3.11901968e+00, 1.35837950e+00, 0.00000000e+00, 5.0000000000, 6.0000000000, 0.0169622500
          63, 0.00000000e+00, 0.00000000e+00, 0.00000000e+00, 0.00000000e+00, 0.00000000e+00, 0.00000000e+00, 0.00000000e+00, 0.00000000e+00, 0.00000000e+00, 0.00000000e+00, 0.00000000e+00, 0.00000000e+00, -4.03851299e+00, -1.40793410e+00, -3.16293269e+00, 1.41098513e+00, 0.00000000e+00, 5.0000000000, 6.0000000000, 0.0172204000
          64, 0.00000000e+00, 0.00000000e+00, 0.00000000e+00, 0.00000000e+00, 0.00000000e+00, 0.00000000e+00, 0.00000000e+00, 0.00000000e+00, 0.00000000e+00, 0.00000000e+00, 0.00000000e+00, 0.00000000e+00, -4.00189430e+00, -1.45672697e+00, -3.20519038e+00, 1.44876071e+00, 0.00000000e+00, 5.0000000000, 6.0000000000, 0.0174872167
          65, 0.00000000e+00, 0.00000000e+00, 0.00000000e+00, 0.00000000e+00, 0.00000000e+00, 0.00000000e+00, 0.00000000e+00, 0.00000000e+00, 0.00000000e+00, 0.00000000e+00, 0.00000000e+00, 0.00000000e+00, -3.97650987e+00, -1.51022609e+00, -3.23949618e+00, 1.47467615e+00, 0.00000000e+00, 5.0000000000, 6.0000000000, 0.0177833833
          66, 0.00000000e+00, 0.00000000e+00, 0.00000000e+00, 0.00000000e+00, 0.00000000e+00, 0.00000000e+00, 0.00000000e+00, 0.00000000e+00, 0.00000000e+00, 0.00000000e+00, 0.00000000e+00, 0.00000000e+00, -3.96047885e+00, -1.56541130e+00, -3.25986536e+00, 1.49082204e+00, 0.00000000e+00, 5.0000000000, 6.0000000000, 0.0180549833
          67, 0.00000000e+00, 0.00000000e+00, 0.00000000e+00, 0.00000000e+00, 0.00000000e+00, 0.00000000e+00, 0.00000000e+00, 0.00000000e+00, 0.00000000e+00, 0.00000000e+00, 0.00000000e+00, 0.00000000e+00, -3.95237610e+00, -1.61665732e+00, -3.26385966e+00, 1.49873802e+00, 0.00000000e+00, 5.0000000000, 6.0000000000, 0.0183242667
          68, 0.00000000e+00, 0.00000000e+00, 0.00000000e+00, 0.00000000e+00, 0.00000000e+00, 0.00000000e+00, 0.00000000e+00, 0.00000000e+00, 0.00000000e+00, 0.00000000e+00, 0.00000000e+00, 0.00000000e+00, -3.95108968e+00, -1.65552212e+00, -3.25412207e+00, 1.49960368e+00, 0.00000000e+00, 5.0000000000, 6.0000000000, 0.0186062833
          69, 0.00000000e+00, 0.00000000e+00, 0.00000000e+00, 0.00000000e+00, 0.00000000e+00, 0.00000000e+00, 0.00000000e+00, 0.00000000e+00, 0.00000000e+00, 0.00000000e+00, 0.00000000e+00, 0.00000000e+00, -3.95572932e+00, -1.67349556e+00, -3.23632104e+00, 1.49435366e+00, 0.00000000e+00, 5.0000000000, 6.0000000000, 0.0188682667
          70, 0.00000000e+00, 0.00000000e+00, 0.00000000e+00, 0.00000000e+00, 0.00000000e+00, 0.00000000e+00, 0.00000000e+00, 0.00000000e+00, 0.00000000e+00, 0.00000000e+00, 0.00000000e+00, 0.00000000e+00, -3.96556482e+00, -1.66765625e+00, -3.21597706e+00, 1.48375247e+00, 0.00000000e+00, 5.0000000000, 6.0000000000, 0.0191071167
          71, 0.00000000e+00, 0.00000000e+00, 0.00000000e+00, 0.00000000e+00, 0.00000000e+00, 0.00000000e+00, 0.00000000e+00, 0.00000000e+00, 0.00000000e+00, 0.00000000e+00, 0.00000000e+00, 0.00000000e+00, -3.97997885e+00, -1.64307269e+00, -3.19687644e+00, 1.46845065e+00, 0.00000000e+00, 5.0000000000, 6.0000000000, 0.0193846667
          72, 0.00000000e+00, 0.00000000e+00, 0.00000000e+00, 0.00000000e+00, 0.00000000e+00, 0.00000000e+00, 0.00000000e+00, 0.00000000e+00, 0.00000000e+00, 0.00000000e+00, 0.00000000e+00, 0.00000000e+00, -3.99842287e+00, -1.60848528e+00, -3.18106239e+00, 1.44903670e+00, 0.00000000e+00, 5.0000000000, 6.0000000000, 0.0196116833
          73, 0.00000000e+00, 0.00000000e+00, 0.00000000e+00, 0.00000000e+00, 0.00000000e+00, 0.00000000e+00, 0.00000000e+00, 0.00000000e+00, 0.00000000e+00, 0.00000000e+00, 0.00000000e+00, 0.00000000e+00, -4.02036743e+00, -1.57122086e+00, -3.16939047e+00, 1.42609571e+00, 0.00000000e+00, 5.0000000000, 6.0000000000, 0.0198725833
          74, 0.00000000e+00, 0.00000000e+00, 0.00000000e+00, 0.00000000e+00, 0.00000000e+00, 0.00000000e+00, 0.00000000e+00, 0.00000000e+00, 0.00000000e+00, 0.00000000e+00, 0.00000000e+00, 0.00000000e+00, -4.04524180e+00, -1.53567110e+00, -3.16207016e+00, 1.40028087e+00, 0.00000000e+00, 5.0000000000, 6.0000000000, 0.0201048833
          75, 0.00000000e+00, 0.00000000e+00, 0.00000000e+00, 0.00000000e+00, 0.00000000e+00, 0.00000000e+00, 0.00000000e+00, 0.00000000e+00, 0.00000000e+00, 0.00000000e+00, 0.00000000e+00, 0.00000000e+00, -4.07236072e+00, -1.50396456e+00, -3.15903539e+00, 1.37239951e+00, 0.00000000e+00, 5.0000000000, 6.0000000000, 0.0205316833
          76, 0.00000000e+00, 0.00000000e+00, 0.00000000e+00, 0.00000000e+00, 0.00000000e+00, 0.00000000e+00, 0.00000000e+00, 0.00000000e+00, 0.00000000e+00, 0.00000000e+00, 0.00000000e+00, 0.00000000e+00, -4.10084547e+00, -1.47692654e+00, -3.16016528e+00, 1.34350308e+00, 0.00000000e+00, 5.0000000000, 6.0000000000, 0.0208082667
          77, 0.00000000e+00, 0.00000000e+00, 0.00000000e+00, 0.00000000e+00, 0.00000000e+00, 0.00000000e+00, 0.00000000e+00, 0.00000000e+00, 0.00000000e+00, 0.00000000e+00, 0.00000000e+00, 0.00000000e+00, -4.12957370e+00, -1.45472596e+00, -3.16539526e+00, 1.31493647e+00, 0.00000000e+00, 5.0000000000, 6.0000000000, 0.0210688333
          78, 0.00000000e+00, 0.00000000e+00, 0.00000000e+00, 0.00000000e+00, 0.00000000e+00, 0.00000000e+00, 0.00000000e+00, 0.00000000e+00, 0.00000000e+00, 0.00000000e+00, 0.00000000e+00, 0.00000000e+00, -4.15719222e+00, -1.43721351e+00, -3.17474342e+00, 1.28829600e+00, 0.00000000e+00, 5.0000000000, 6.0000000000, 0.0213398833
          79, 0.00000000e+00, 0.00000000e+00, 0.00000000e+00, 0.00000000e+00, 0.00000000e+00, 0.00000000e+00, 0.00000000e+00, 0.00000000e+00, 0.00000000e+00, 0.00000000e+00, 0.00000000e+00, 0.00000000e+00, -4.18224966e+00, -1.42407958e+00, -3.18828140e+00, 1.26522537e+00, 0.00000000e+00, 5.0000000000, 6.0000000000, 0.0216089000
          80, 0.00000000e+00, 0.00000000e+00, 0.00000000e+00, 0.00000000e+00, 0.00000000e+00, 0.00000000e+00, 0.00000000e+00, 0.00000000e+00, 0.00000000e+00, 0.00000000e+00, 0.00000000e+00, 0.00000000e+00, -4.20348533e+00, -1.41492061e+00, -3.20606013e+00, 1.24702848e+00, 0.00000000e+00, 5.0000000000, 6.0000000000, 0.0218529167
          81, 0.00000000e+00, 0.00000000e+00, 0.00000000e+00, 0.00000000e+00, 0.00000000e+00, 0.00000000e+00, 0.00000000e+00, 0.00000000e+00, 0.00000000e+00, 0.00000000e+00, 0.00000000e+00, 0.00000000e+00, -4.22020882e+00, -1.40926017e+00, -3.22800387e+00, 1.23422456e+00, 0.00000000e+00, 5.0000000000, 6.0000000000, 0.0221403833
          82, 0.00000000e+00, 0.00000000e+00, 0.00000000e+00, 0.00000000e+00, 0.00000000e+00, 0.00000000e+00, 0.00000000e+00, 0.00000000e+00, 0.00000000e+00, 0.00000000e+00, 0.00000000e+00, 0.00000000e+00, -4.23259607e+00, -1.40655178e+00, -3.25377556e+00, 1.22629001e+00, 0.00000000e+00, 5.0000000000, 6.0000000000, 0.0224265167
          83, 0.00000000e+00, 0.00000000e+00, 0.00000000e+00, 0.00000000e+00, 0.00000000e+00, 0.00000000e+00, 0.00000000e+00, 0.00000000e+00, 0.00000000e+00, 0.00000000e+00, 0.00000000e+00, 0.00000000e+00, -4.24172452e+00, -1.40617977e+00, -3.28259947e+00, 1.22176104e+00, 0.00000000e+00, 5.0000000000, 6.0000000000, 0.0226931167
          84, 0.00000000e+00, 0.00000000e+00, 0.00000000e+00, 0.00000000e+00, 0.00000000e+00, 0.00000000e+00, 0.00000000e+00, 0.00000000e+00, 0.00000000e+00, 0.00000000e+00, 0.00000000e+00, 0.00000000e+00, -4.24932472e+00, -1.40746994e+00, -3.31303221e+00, 1.21862932e+00, 0.00000000e+00, 5.0000000000, 6.0000000000, 0.0229990667
          85, 0.00000000e+00, 0.00000000e+00, 0.00000000e+00, 0.00000000e+00, 0.00000000e+00, 0.00000000e+00, 0.00000000e+00, 0.00000000e+00, 0.00000000e+00, 0.00000000e+00, 0.00000000e+00, 0.00000000e+00, -4.25740203e+00, -1.40971877e+00, -3.34273423e+00, 1.21479209e+00, 0.00000000e+00, 5.0000000000, 6.0000000000, 0.0233073167
          86, 0.00000000e+00, 0.00000000e+00, 0.00000000e+00, 0.00000000e+00, 0.00000000e+00, 0.00000000e+00, 0.00000000e+00, 0.00000000e+00, 0.00000000e+00, 0.00000000e+00, 0.00000000e+00, 0.00000000e+00, -4.26791362e+00, -1.41224509e+00, -3.36844423e+00, 1.20836705e+00, 0.00000000e+00, 5.0000000000, 6.0000000000, 0.0235970000
          87, 0.00000000e+00, 0.00000000e+00, 0.00000000e+00, 0.00000000e+00, 0.00000000e+00, 0.00000000e+00, 0.00000000e+00, 0.00000000e+00, 0.00000000e+00, 0.00000000e+00, 0.00000000e+00, 0.00000000e+00, -4.28258511e+00, -1.41446099e+00, -3.38651465e+00, 1.19783530e+00, 0.00000000e+00, 5.0000000000, 6.0000000000, 0.0238855500
          88, 0.00000000e+00, 0.00000000e+00, 0.00000000e+00, 0.00000000e+00, 0.00000000e+00, 0.00000000e+00, 0.00000000e+00, 0.00000000e+00, 0.00000000e+00, 0.00000000e+00, 0.00000000e+00, 0.00000000e+00, -4.30284138e+00, -1.41594814e+00, -3.39418908e+00, 1.18207964e+00, 0.00000000e+00, 5.0000000000, 6.0000000000, 0.0242270833
          89, 0.00000000e+00, 0.00000000e+00, 0.00000000e+00, 0.00000000e+00, 0.00000000e+00, 0.00000000e+00, 0.00000000e+00, 0.00000000e+00, 0.00000000e+00, 0.00000000e+00, 0.00000000e+00, 0.00000000e+00, -4.32976940e+00, -1.41651792e+00, -3.39101112e+00, 1.16041412e+00, 0.00000000e+00, 5.0000000000, 6.0000000000, 0.0245137333