TITLE = "Visualization of the volumetric solution"
VARIABLES = "x","y","Density","Momentum_x","Momentum_y","Energy","Pressure","Temperature","Mach","C<sub>p</sub>","Roe_Dissipation"
ZONE NODES= 1720, ELEMENTS= 3288, DATAPACKING=POINT, ZONETYPE=FEQUADRILATERAL
-2.000000e+00	-1.190476e+00	1.224688e+00	4.301729e+01	6.113682e-08	2.539517e+05	1.012785e+05	2.880860e+02	1.032304e-01	-6.557143e-02	0.000000e+00	
-1.913018e+00	-1.184272e+00	1.224688e+00	4.301729e+01	3.694906e-06	2.539517e+05	1.012785e+05	2.880860e+02	1.032304e-01	-6.557144e-02	0.000000e+00	
-1.954560e+00	-1.150209e+00	1.224688e+00	4.301729e+01	2.660817e-06	2.539517e+05	1.012785e+05	2.880860e+02	1.032304e-01	-6.557148e-02	0.000000e+00	
-1.849926e+00	-1.205140e+00	1.224688e+00	4.301728e+01	5.293040e-06	2.539517e+05	1.012785e+05	2.880860e+02	1.032304e-01	-6.557113e-02	0.000000e+00	
-1.903970e+00	-1.130852e+00	1.224688e+00	4.301729e+01	6.383833e-06	2.539517e+05	1.012785e+05	2.880860e+02	1.032304e-01	-6.557148e-02	0.000000e+00	
-2.000000e+00	-1.130952e+00	1.224688e+00	4.301729e+01	-2.771229e-08	2.539517e+05	1.012785e+05	2.880860e+02	1.032304e-01	-6.557158e-02	0.000000e+00	
-1.851543e+00	-1.159370e+00	1.224688e+00	4.301728e+01	8.375059e-06	2.539517e+05	1.012785e+05	2.880860e+02	1.032304e-01	-6.557133e-02	0.000000e+00	
-1.953167e+00	-1.099799e+00	1.224688e+00	4.301729e+01	3.754056e-06	2.539517e+05	1.012785e+05	2.880860e+02	1.032304e-01	-6.557170e-02	0.000000e+00	
-1.790653e+00	-1.186382e+00	1.224688e+00	4.301728e+01	8.915194e-06	2.539517e+05	1.012785e+05	2.880860e+02	1.032304e-01	-6.557096e-02	0.000000e+00	
-1.847749e+00	-1.098124e+00	1.224688e+00	4.301729e+01	1.216345e-05	2.539517e+05	1.012785e+05	2.880860e+02	1.032304e-01	-6.557142e-02	0.000000e+00	
-1.900004e+00	-1.068081e+00	1.224688e+00	4.301729e+01	9.093181e-06	2.539517e+05	1.012785e+05	2.880860e+02	1.032304e-01	-6.557177e-02	0.000000e+00	
-2.000000e+00	-1.071429e+00	1.224688e+00	4.301729e+01	-2.000492e-07	2.539517e+05	1.012785e+05	2.880860e+02	1.032304e-01	-6.557184e-02	0.000000e+00	
-1.792598e+00	-1.131714e+00	1.224688e+00	4.301728e+01	1.424452e-05	2.539517e+05	1.012785e+05	2.880860e+02	1.032304e-01	-6.557119e-02	0.000000e+00	
-1.951023e+00	-1.040587e+00	1.224688e+00	4.301730e+01	4.969999e-06	2.539517e+05	1.012785e+05	2.880860e+02	1.032304e-01	-6.557189e-02	0.000000e+00	
-1.731144e+00	-1.203552e+00	1.224688e+00	4.301727e+01	1.008064e-05	2.539517e+05	1.012785e+05	2.880860e+02	1.032304e-01	-6.557062e-02	0.000000e+00	
-1.734651e+00	-1.158217e+00	1.224688e+00	4.301727e+01	1.569144e-05	2.539517e+05	1.012785e+05	2.880860e+02	1.032304e-01	-6.557078e-02	0.000000e+00	
-1.793108e+00	-1.066236e+00	1.224688e+00	4.301729e+01	1.962301e-05	2.539517e+05	1.012785e+05	2.880860e+02	1.032304e-01	-6.557142e-02	0.000000e+00	
-1.846185e+00	-1.035678e+00	1.224688e+00	4.301729e+01	1.611840e-05	2.539517e+05	1.012785e+05	2.880860e+02	1.032304e-01	-6.557181e-02	0.000000e+00	
-1.899025e+00	-1.006433e+00	1.224688e+00	4.301730e+01	1.150565e-05	2.539517e+05	1.012785e+05	2.880860e+02	1.032304e-01	-6.557203e-02	0.000000e+00	
-2.000000e+00	-1.011905e+00	1.224688e+00	4.301730e+01	1.132867e-07	2.539517e+05	1.012785e+05	2.880860e+02	1.032304e-01	-6.557212e-02	0.000000e+00	
-1.739212e+00	-1.097073e+00	1.224688e+00	4.301728e+01	2.202565e-05	2.539517e+05	1.012785e+05	2.880860e+02	1.032304e-01	-6.557099e-02	0.000000e+00	
-1.943558e+00	-9.801168e-01	1.224688e+00	4.301730e+01	6.381643e-06	2.539517e+05	1.012785e+05	2.880860e+02	1.032305e-01	-6.557227e-02	0.000000e+00	
-1.679379e+00	-1.180956e+00	1.224688e+00	4.301726e+01	1.537891e-05	2.539517e+05	1.012785e+05	2.880860e+02	1.032304e-01	-6.557032e-02	0.000000e+00	
-1.685839e+00	-1.129056e+00	1.224688e+00	4.301727e+01	2.309992e-05	2.539517e+05	1.012785e+05	2.880860e+02	1.032304e-01	-6.557050e-02	0.000000e+00	
-1.740561e+00	-1.034368e+00	1.224688e+00	4.301729e+01	2.856687e-05	2.539517e+05	1.012785e+05	2.880860e+02	1.032304e-01	-6.557139e-02	0.000000e+00	
-1.792944e+00	-1.003990e+00	1.224688e+00	4.301729e+01	2.445062e-05	2.539517e+05	1.012785e+05	2.880860e+02	1.032304e-01	-6.557179e-02	0.000000e+00	
-1.845444e+00	-9.749924e-01	1.224688e+00	4.301730e+01	1.937477e-05	2.539517e+05	1.012785e+05	2.880860e+02	1.032305e-01	-6.557214e-02	0.000000e+00	
-1.898581e+00	-9.488258e-01	1.224688e+00	4.301731e+01	1.352599e-05	2.539517e+05	1.012785e+05	2.880860e+02	1.032305e-01	-6.557243e-02	0.000000e+00	
-2.000000e+00	-9.523810e-01	1.224688e+00	4.301731e+01	1.032663e-07	2.539517e+05	1.012785e+05	2.880860e+02	1.032305e-01	-6.557246e-02	0.000000e+00	
-1.688318e+00	-1.065673e+00	1.224688e+00	4.301728e+01	3.143720e-05	2.539517e+05	1.012785e+05	2.880860e+02	1.032304e-01	-6.557089e-02	0.000000e+00	
-1.950382e+00	-9.223557e-01	1.224688e+00	4.301731e+01	6.933054e-06	2.539517e+05	1.012785e+05	2.880860e+02	1.032305e-01	-6.557269e-02	0.000000e+00	
-1.607855e+00	-1.185371e+00	1.224688e+00	4.301725e+01	1.917758e-05	2.539517e+05	1.012785e+05	2.880860e+02	1.032303e-01	-6.556976e-02	0.000000e+00	
-1.639307e+00	-1.148507e+00	1.224688e+00	4.301726e+01	2.372710e-05	2.539517e+05	1.012785e+05	2.880860e+02	1.032304e-01	-6.557028e-02	0.000000e+00	
-1.636716e+00	-1.097558e+00	1.224688e+00	4.301726e+01	3.226132e-05	2.539517e+05	1.012785e+05	2.880860e+02	1.032304e-01	-6.557023e-02	0.000000e+00	
-1.689165e+00	-1.003589e+00	1.224688e+00	4.301728e+01	3.892027e-05	2.539517e+05	1.012785e+05	2.880860e+02	1.032304e-01	-6.557129e-02	0.000000e+00	
-1.740723e+00	-9.729752e-01	1.224688e+00	4.301729e+01	3.422782e-05	2.539517e+05	1.012785e+05	2.880860e+02	1.032304e-01	-6.557180e-02	0.000000e+00	
-1.792515e+00	-9.434304e-01	1.224688e+00	4.301730e+01	2.858668e-05	2.539517e+05	1.012785e+05	2.880860e+02	1.032305e-01	-6.557221e-02	0.000000e+00	
-1.844767e+00	-9.153378e-01	1.224688e+00	4.301731e+01	2.219429e-05	2.539517e+05	1.012785e+05	2.880860e+02	1.032305e-01	-6.557255e-02	0.000000e+00	
-1.897525e+00	-8.884422e-01	1.224688e+00	4.301731e+01	1.512621e-05	2.539517e+05	1.012785e+05	2.880860e+02	1.032305e-01	-6.557280e-02	0.000000e+00	
-2.000000e+00	-8.928571e-01	1.224688e+00	4.301732e+01	-3.021481e-07	2.539517e+05	1.012785e+05	2.880860e+02	1.032305e-01	-6.557285e-02	0.000000e+00	
-1.637687e+00	-1.035136e+00	1.224688e+00	4.301727e+01	4.249645e-05	2.539517e+05	1.012785e+05	2.880860e+02	1.032304e-01	-6.557078e-02	0.000000e+00	
-1.951486e+00	-8.621834e-01	1.224688e+00	4.301732e+01	7.528254e-06	2.539517e+05	1.012785e+05	2.880860e+02	1.032305e-01	-6.557308e-02	0.000000e+00	
-1.550264e+00	-1.185139e+00	1.224688e+00	4.301724e+01	2.360717e-05	2.539517e+05	1.012785e+05	2.880860e+02	1.032303e-01	-6.556898e-02	0.000000e+00	
-1.582082e+00	-1.140771e+00	1.224688e+00	4.301725e+01	3.143350e-05	2.539517e+05	1.012785e+05	2.880860e+02	1.032303e-01	-6.556961e-02	0.000000e+00	
-1.585659e+00	-1.068349e+00	1.224688e+00	4.301726e+01	4.459952e-05	2.539517e+05	1.012785e+05	2.880860e+02	1.032303e-01	-6.557002e-02	0.000000e+00	
-1.638167e+00	-9.734470e-01	1.224688e+00	4.301728e+01	5.100644e-05	2.539517e+05	1.012785e+05	2.880860e+02	1.032304e-01	-6.557124e-02	0.000000e+00	
-1.689207e+00	-9.427785e-01	1.224688e+00	4.301729e+01	4.548261e-05	2.539517e+05	1.012785e+05	2.880860e+02	1.032304e-01	-6.557181e-02	0.000000e+00	
-1.740389e+00	-9.128364e-01	1.224688e+00	4.301730e+01	3.907536e-05	2.539517e+05	1.012785e+05	2.880860e+02	1.032305e-01	-6.557228e-02	0.000000e+00	
-1.791943e+00	-8.838067e-01	1.224688e+00	4.301731e+01	3.208607e-05	2.539517e+05	1.012785e+05	2.880860e+02	1.032305e-01	-6.557269e-02	0.000000e+00	
-1.844135e+00	-8.558208e-01	1.224688e+00	4.301732e+01	2.455738e-05	2.539517e+05	1.012785e+05	2.880860e+02	1.032305e-01	-6.557304e-02	0.000000e+00	
-1.897320e+00	-8.288068e-01	1.224688e+00	4.301732e+01	1.652017e-05	2.539517e+05	1.012785e+05	2.880860e+02	1.032305e-01	-6.557331e-02	0.000000e+00	
-2.000000e+00	-8.333333e-01	1.224688e+00	4.301732e+01	-3.701049e-07	2.539517e+05	1.012785e+05	2.880860e+02	1.032305e-01	-6.557333e-02	0.000000e+00	
-1.587044e+00	-1.004740e+00	1.224688e+00	4.301727e+01	5.563503e-05	2.539517e+05	1.012785e+05	2.880860e+02	1.032304e-01	-6.557058e-02	0.000000e+00	
-1.951700e+00	-8.025383e-01	1.224688e+00	4.301733e+01	8.045770e-06	2.539517e+05	1.012785e+05	2.880860e+02	1.032305e-01	-6.557355e-02	0.000000e+00	
-1.482426e+00	-1.181198e+00	1.224688e+00	4.301722e+01	2.809633e-05	2.539517e+05	1.012785e+05	2.880860e+02	1.032303e-01	-6.556822e-02	0.000000e+00	
-1.524589e+00	-1.149206e+00	1.224688e+00	4.301724e+01	3.496771e-05	2.539517e+05	1.012785e+05	2.880860e+02	1.032303e-01	-6.556918e-02	0.000000e+00	
-1.533019e+00	-1.098254e+00	1.224688e+00	4.301724e+01	4.564811e-05	2.539517e+05	1.012785e+05	2.880860e+02	1.032303e-01	-6.556909e-02	0.000000e+00	
-1.535784e+00	-1.035922e+00	1.224688e+00	4.301725e+01	5.956157e-05	2.539517e+05	1.012785e+05	2.880860e+02	1.032303e-01	-6.556990e-02	0.000000e+00	
-1.638043e+00	-9.131350e-01	1.224688e+00	4.301729e+01	5.827956e-05	2.539517e+05	1.012785e+05	2.880860e+02	1.032304e-01	-6.557182e-02	0.000000e+00	
-1.587311e+00	-9.436131e-01	1.224688e+00	4.301728e+01	6.510112e-05	2.539517e+05	1.012785e+05	2.880860e+02	1.032304e-01	-6.557119e-02	0.000000e+00	
-1.688831e+00	-8.830544e-01	1.224688e+00	4.301731e+01	5.085906e-05	2.539517e+05	1.012785e+05	2.880860e+02	1.032305e-01	-6.557235e-02	0.000000e+00	
-1.739847e+00	-8.535053e-01	1.224688e+00	4.301731e+01	4.299391e-05	2.539517e+05	1.012785e+05	2.880860e+02	1.032305e-01	-6.557281e-02	0.000000e+00	
-1.791344e+00	-8.246529e-01	1.224688e+00	4.301732e+01	3.476499e-05	2.539517e+05	1.012785e+05	2.880860e+02	1.032305e-01	-6.557319e-02	0.000000e+00	
-1.843662e+00	-7.966422e-01	1.224688e+00	4.301733e+01	2.622704e-05	2.539517e+05	1.012785e+05	2.880860e+02	1.032305e-01	-6.557352e-02	0.000000e+00	
-1.897118e+00	-7.695048e-01	1.224688e+00	4.301733e+01	1.740433e-05	2.539517e+05	1.012785e+05	2.880860e+02	1.032305e-01	-6.557379e-02	0.000000e+00	
-2.000000e+00	-7.738095e-01	1.224688e+00	4.301733e+01	-4.488108e-07	2.539517e+05	1.012785e+05	2.880860e+02	1.032305e-01	-6.557380e-02	0.000000e+00	
-1.536563e+00	-9.743093e-01	1.224688e+00	4.301727e+01	7.115112e-05	2.539517e+05	1.012785e+05	2.880860e+02	1.032304e-01	-6.557042e-02	0.000000e+00	
-1.951774e+00	-7.430524e-01	1.224688e+00	4.301734e+01	8.381828e-06	2.539517e+05	1.012785e+05	2.880860e+02	1.032305e-01	-6.557405e-02	0.000000e+00	
-1.428477e+00	-1.207429e+00	1.224688e+00	4.301720e+01	2.405599e-05	2.539517e+05	1.012785e+05	2.880860e+02	1.032302e-01	-6.556738e-02	0.000000e+00	
-1.483039e+00	-1.130346e+00	1.224688e+00	4.301723e+01	4.465609e-05	2.539517e+05	1.012785e+05	2.880860e+02	1.032303e-01	-6.556841e-02	0.000000e+00	
-1.485010e+00	-1.067181e+00	1.224688e+00	4.301724e+01	6.168702e-05	2.539517e+05	1.012785e+05	2.880860e+02	1.032303e-01	-6.556895e-02	0.000000e+00	
-1.485902e+00	-1.005187e+00	1.224688e+00	4.301725e+01	7.647308e-05	2.539517e+05	1.012785e+05	2.880860e+02	1.032303e-01	-6.556957e-02	0.000000e+00	
-1.587023e+00	-8.838189e-01	1.224688e+00	4.301730e+01	7.285633e-05	2.539517e+05	1.012785e+05	2.880860e+02	1.032304e-01	-6.557186e-02	0.000000e+00	
-1.637592e+00	-8.537695e-01	1.224688e+00	4.301731e+01	6.408595e-05	2.539517e+05	1.012785e+05	2.880860e+02	1.032305e-01	-6.557245e-02	0.000000e+00	
-1.536482e+00	-9.140522e-01	1.224688e+00	4.301728e+01	8.130260e-05	2.539517e+05	1.012785e+05	2.880860e+02	1.032304e-01	-6.557116e-02	0.000000e+00	
-1.688274e+00	-8.239861e-01	1.224688e+00	4.301732e+01	5.506832e-05	2.539517e+05	1.012785e+05	2.880860e+02	1.032305e-01	-6.557296e-02	0.000000e+00	
-1.739242e+00	-7.945913e-01	1.224688e+00	4.301733e+01	4.591523e-05	2.539517e+05	1.012785e+05	2.880860e+02	1.032305e-01	-6.557338e-02	0.000000e+00	
-1.790775e+00	-7.657566e-01	1.224688e+00	4.301733e+01	3.667596e-05	2.539517e+05	1.012785e+05	2.880860e+02	1.032305e-01	-6.557374e-02	0.000000e+00	
-1.843232e+00	-7.376524e-01	1.224688e+00	4.301734e+01	2.734634e-05	2.539517e+05	1.012785e+05	2.880860e+02	1.032305e-01	-6.557406e-02	0.000000e+00	
-1.896909e+00	-7.103342e-01	1.224688e+00	4.301734e+01	1.793805e-05	2.539517e+05	1.012785e+05	2.880860e+02	1.032306e-01	-6.557431e-02	0.000000e+00	
-2.000000e+00	-7.142857e-01	1.224688e+00	4.301734e+01	-4.747577e-07	2.539517e+05	1.012785e+05	2.880860e+02	1.032306e-01	-6.557430e-02	0.000000e+00	
-1.436314e+00	-1.160707e+00	1.224688e+00	4.301721e+01	3.935161e-05	2.539517e+05	1.012785e+05	2.880860e+02	1.032302e-01	-6.556748e-02	0.000000e+00	
-1.485963e+00	-9.444475e-01	1.224688e+00	4.301726e+01	8.928524e-05	2.539517e+05	1.012785e+05	2.880860e+02	1.032304e-01	-6.557034e-02	0.000000e+00	
-1.951834e+00	-6.836189e-01	1.224688e+00	4.301735e+01	8.530721e-06	2.539517e+05	1.012785e+05	2.880860e+02	1.032306e-01	-6.557456e-02	0.000000e+00	
-1.381401e+00	-1.203049e+00	1.224688e+00	4.301718e+01	2.976909e-05	2.539517e+05	1.012785e+05	2.880860e+02	1.032302e-01	-6.556655e-02	0.000000e+00	
-1.435164e+00	-1.099511e+00	1.224688e+00	4.301722e+01	6.044414e-05	2.539517e+05	1.012785e+05	2.880860e+02	1.032302e-01	-6.556785e-02	0.000000e+00	
-1.435473e+00	-1.036658e+00	1.224688e+00	4.301723e+01	8.007713e-05	2.539517e+05	1.012785e+05	2.880860e+02	1.032303e-01	-6.556859e-02	0.000000e+00	
-1.435492e+00	-9.751382e-01	1.224688e+00	4.301725e+01	9.643795e-05	2.539517e+05	1.012785e+05	2.880860e+02	1.032303e-01	-6.556935e-02	0.000000e+00	
-1.586498e+00	-8.247520e-01	1.224688e+00	4.301731e+01	7.888772e-05	2.539517e+05	1.012785e+05	2.880860e+02	1.032305e-01	-6.557259e-02	0.000000e+00	
-1.536036e+00	-8.547237e-01	1.224688e+00	4.301730e+01	8.939901e-05	2.539517e+05	1.012785e+05	2.880860e+02	1.032304e-01	-6.557193e-02	0.000000e+00	
-1.637009e+00	-7.948977e-01	1.224688e+00	4.301732e+01	6.838313e-05	2.539517e+05	1.012785e+05	2.880860e+02	1.032305e-01	-6.557313e-02	0.000000e+00	
-1.485590e+00	-8.847930e-01	1.224688e+00	4.301728e+01	9.983631e-05	2.539517e+05	1.012785e+05	2.880860e+02	1.032304e-01	-6.557116e-02	0.000000e+00	
-1.687660e+00	-7.652266e-01	1.224688e+00	4.301733e+01	5.799874e-05	2.539517e+05	1.012785e+05	2.880860e+02	1.032305e-01	-6.557359e-02	0.000000e+00	
-1.738635e+00	-7.358608e-01	1.224688e+00	4.301734e+01	4.778093e-05	2.539517e+05	1.012785e+05	2.880860e+02	1.032305e-01	-6.557398e-02	0.000000e+00	
-1.790233e+00	-7.069758e-01	1.224688e+00	4.301734e+01	3.773174e-05	2.539517e+05	1.012785e+05	2.880860e+02	1.032306e-01	-6.557430e-02	0.000000e+00	
-1.842826e+00	-6.787423e-01	1.224688e+00	4.301735e+01	2.783041e-05	2.539517e+05	1.012785e+05	2.880860e+02	1.032306e-01	-6.557459e-02	0.000000e+00	
-1.896711e+00	-6.512112e-01	1.224688e+00	4.301735e+01	1.805829e-05	2.539517e+05	1.012785e+05	2.880860e+02	1.032306e-01	-6.557482e-02	0.000000e+00	
-2.000000e+00	-6.547619e-01	1.224688e+00	4.301735e+01	-4.884289e-07	2.539517e+05	1.012785e+05	2.880860e+02	1.032306e-01	-6.557481e-02	0.000000e+00	
-1.384569e+00	-1.135692e+00	1.224688e+00	4.301719e+01	5.465344e-05	2.539517e+05	1.012785e+05	2.880860e+02	1.032302e-01	-6.556677e-02	0.000000e+00	
-1.435154e+00	-9.150004e-01	1.224688e+00	4.301726e+01	1.100808e-04	2.539517e+05	1.012785e+05	2.880860e+02	1.032304e-01	-6.557024e-02	0.000000e+00	
-1.951901e+00	-6.242027e-01	1.224688e+00	4.301736e+01	8.485556e-06	2.539517e+05	1.012785e+05	2.880860e+02	1.032306e-01	-6.557507e-02	0.000000e+00	
-1.333934e+00	-1.179953e+00	1.224688e+00	4.301717e+01	4.723359e-05	2.539517e+05	1.012785e+05	2.880860e+02	1.032301e-01	-6.556506e-02	0.000000e+00	
-1.385051e+00	-1.069594e+00	1.224688e+00	4.301721e+01	8.016843e-05	2.539517e+05	1.012785e+05	2.880860e+02	1.032302e-01	-6.556744e-02	0.000000e+00	
-1.385044e+00	-1.006427e+00	1.224688e+00	4.301722e+01	1.018136e-04	2.539517e+05	1.012785e+05	2.880860e+02	1.032303e-01	-6.556822e-02	0.000000e+00	
-1.384722e+00	-9.454568e-01	1.224688e+00	4.301724e+01	1.196118e-04	2.539517e+05	1.012785e+05	2.880860e+02	1.032303e-01	-6.556915e-02	0.000000e+00	
-1.585892e+00	-7.660163e-01	1.224688e+00	4.301733e+01	8.306650e-05	2.539517e+05	1.012785e+05	2.880860e+02	1.032305e-01	-6.557336e-02	0.000000e+00	
-1.535455e+00	-7.958758e-01	1.224688e+00	4.301731e+01	9.541242e-05	2.539517e+05	1.012785e+05	2.880860e+02	1.032305e-01	-6.557277e-02	0.000000e+00	
-1.485037e+00	-8.257859e-01	1.224688e+00	4.301730e+01	1.080833e-04	2.539517e+05	1.012785e+05	2.880860e+02	1.032304e-01	-6.557207e-02	0.000000e+00	
-1.636386e+00	-7.362313e-01	1.224688e+00	4.301733e+01	7.112306e-05	2.539517e+05	1.012785e+05	2.880860e+02	1.032305e-01	-6.557385e-02	0.000000e+00	
-1.434624e+00	-8.557541e-01	1.224688e+00	4.301728e+01	1.209810e-04	2.539517e+05	1.012785e+05	2.880860e+02	1.032304e-01	-6.557122e-02	0.000000e+00	
-1.687037e+00	-7.065855e-01	1.224688e+00	4.301734e+01	5.962767e-05	2.539517e+05	1.012785e+05	2.880860e+02	1.032306e-01	-6.557425e-02	0.000000e+00	
-1.738039e+00	-6.771988e-01	1.224688e+00	4.301735e+01	4.858397e-05	2.539517e+05	1.012785e+05	2.880860e+02	1.032306e-01	-6.557460e-02	0.000000e+00	
-1.789710e+00	-6.482388e-01	1.224688e+00	4.301736e+01	3.795699e-05	2.539517e+05	1.012785e+05	2.880860e+02	1.032306e-01	-6.557488e-02	0.000000e+00	
-1.842437e+00	-6.198613e-01	1.224688e+00	4.301736e+01	2.769784e-05	2.539517e+05	1.012785e+05	2.880860e+02	1.032306e-01	-6.557514e-02	0.000000e+00	
-1.896524e+00	-5.921043e-01	1.224688e+00	4.301736e+01	1.777318e-05	2.539517e+05	1.012785e+05	2.880860e+02	1.032306e-01	-6.557534e-02	0.000000e+00	
-2.000000e+00	-5.952381e-01	1.224688e+00	4.301736e+01	-4.954551e-07	2.539517e+05	1.012785e+05	2.880860e+02	1.032306e-01	-6.557531e-02	0.000000e+00	
-1.285603e+00	-1.202634e+00	1.224688e+00	4.301714e+01	4.300334e-05	2.539517e+05	1.012785e+05	2.880860e+02	1.032301e-01	-6.556428e-02	0.000000e+00	
-1.334509e+00	-1.104381e+00	1.224688e+00	4.301718e+01	7.825651e-05	2.539517e+05	1.012785e+05	2.880860e+02	1.032301e-01	-6.556607e-02	0.000000e+00	
-1.384211e+00	-8.858197e-01	1.224688e+00	4.301726e+01	1.339478e-04	2.539517e+05	1.012785e+05	2.880860e+02	1.032304e-01	-6.557022e-02	0.000000e+00	
-1.951978e+00	-5.647922e-01	1.224688e+00	4.301737e+01	8.243962e-06	2.539517e+05	1.012785e+05	2.880860e+02	1.032306e-01	-6.557557e-02	0.000000e+00	
-1.284178e+00	-1.135987e+00	1.224688e+00	4.301715e+01	7.507875e-05	2.539517e+05	1.012785e+05	2.880860e+02	1.032301e-01	-6.556423e-02	0.000000e+00	
-1.334573e+00	-1.038434e+00	1.224688e+00	4.301719e+01	1.048238e-04	2.539517e+05	1.012785e+05	2.880860e+02	1.032302e-01	-6.556684e-02	0.000000e+00	
-1.334286e+00	-9.762514e-01	1.224688e+00	4.301722e+01	1.278747e-04	2.539517e+05	1.012785e+05	2.880860e+02	1.032302e-01	-6.556790e-02	0.000000e+00	
-1.333796e+00	-9.160353e-01	1.224688e+00	4.301724e+01	1.465007e-04	2.539517e+05	1.012785e+05	2.880860e+02	1.032303e-01	-6.556901e-02	0.000000e+00	
-1.585263e+00	-7.074028e-01	1.224688e+00	4.301734e+01	8.535164e-05	2.539517e+05	1.012785e+05	2.880860e+02	1.032305e-01	-6.557416e-02	0.000000e+00	
-1.534833e+00	-7.372253e-01	1.224688e+00	4.301733e+01	9.920918e-05	2.539517e+05	1.012785e+05	2.880860e+02	1.032305e-01	-6.557365e-02	0.000000e+00	
-1.484423e+00	-7.670749e-01	1.224688e+00	4.301732e+01	1.137931e-04	2.539517e+05	1.012785e+05	2.880860e+02	1.032305e-01	-6.557303e-02	0.000000e+00	
-1.434019e+00	-7.969472e-01	1.224688e+00	4.301730e+01	1.290587e-04	2.539517e+05	1.012785e+05	2.880860e+02	1.032305e-01	-6.557228e-02	0.000000e+00	
-1.635756e+00	-6.776342e-01	1.224688e+00	4.301735e+01	7.225640e-05	2.539517e+05	1.012785e+05	2.880860e+02	1.032306e-01	-6.557458e-02	0.000000e+00	
-1.383615e+00	-8.268533e-01	1.224688e+00	4.301729e+01	1.449123e-04	2.539517e+05	1.012785e+05	2.880860e+02	1.032304e-01	-6.557136e-02	0.000000e+00	
-1.686417e+00	-6.479821e-01	1.224688e+00	4.301736e+01	5.991938e-05	2.539517e+05	1.012785e+05	2.880860e+02	1.032306e-01	-6.557492e-02	0.000000e+00	
-1.737454e+00	-6.185590e-01	1.224688e+00	4.301736e+01	4.829852e-05	2.539517e+05	1.012785e+05	2.880860e+02	1.032306e-01	-6.557521e-02	0.000000e+00	
-1.789199e+00	-5.895163e-01	1.224688e+00	4.301737e+01	3.732931e-05	2.539517e+05	1.012785e+05	2.880860e+02	1.032306e-01	-6.557545e-02	0.000000e+00	
-1.842058e+00	-5.609896e-01	1.224688e+00	4.301737e+01	2.694131e-05	2.539517e+05	1.012785e+05	2.880860e+02	1.032306e-01	-6.557567e-02	0.000000e+00	
-1.896346e+00	-5.330022e-01	1.224688e+00	4.301737e+01	1.708549e-05	2.539517e+05	1.012785e+05	2.880860e+02	1.032306e-01	-6.557584e-02	0.000000e+00	
-2.000000e+00	-5.357143e-01	1.224688e+00	4.301737e+01	-4.930921e-07	2.539517e+05	1.012785e+05	2.880860e+02	1.032306e-01	-6.557580e-02	0.000000e+00	
-1.232677e+00	-1.161484e+00	1.224688e+00	4.301712e+01	7.184424e-05	2.539517e+05	1.012785e+05	2.880860e+02	1.032300e-01	-6.556305e-02	0.000000e+00	
-1.238042e+00	-1.207625e+00	1.224688e+00	4.301711e+01	4.025328e-05	2.539517e+05	1.012785e+05	2.880860e+02	1.032300e-01	-6.556239e-02	0.000000e+00	
-1.284181e+00	-1.070156e+00	1.224688e+00	4.301716e+01	1.067189e-04	2.539517e+05	1.012785e+05	2.880860e+02	1.032301e-01	-6.556545e-02	0.000000e+00	
-1.333210e+00	-8.568167e-01	1.224688e+00	4.301726e+01	1.611887e-04	2.539517e+05	1.012785e+05	2.880860e+02	1.032304e-01	-6.557027e-02	0.000000e+00	
-1.952062e+00	-5.053835e-01	1.224688e+00	4.301738e+01	7.815846e-06	2.539517e+05	1.012785e+05	2.880860e+02	1.032306e-01	-6.557606e-02	0.000000e+00	
-1.234074e+00	-1.100366e+00	1.224688e+00	4.301713e+01	1.061121e-04	2.539517e+05	1.012785e+05	2.880860e+02	1.032300e-01	-6.556360e-02	0.000000e+00	
-1.283894e+00	-1.007220e+00	1.224688e+00	4.301718e+01	1.343298e-04	2.539517e+05	1.012785e+05	2.880860e+02	1.032302e-01	-6.556633e-02	0.000000e+00	
-1.283398e+00	-9.464113e-01	1.224688e+00	4.301721e+01	1.582640e-04	2.539517e+05	1.012785e+05	2.880860e+02	1.032302e-01	-6.556760e-02	0.000000e+00	
-1.282810e+00	-8.868629e-01	1.224688e+00	4.301724e+01	1.775080e-04	2.539517e+05	1.012785e+05	2.880860e+02	1.032303e-01	-6.556895e-02	0.000000e+00	
-1.534200e+00	-6.786397e-01	1.224688e+00	4.301735e+01	1.007407e-04	2.539517e+05	1.012785e+05	2.880860e+02	1.032306e-01	-6.557454e-02	0.000000e+00	
-1.584629e+00	-6.488259e-01	1.224688e+00	4.301736e+01	8.571330e-05	2.539517e+05	1.012785e+05	2.880860e+02	1.032306e-01	-6.557497e-02	0.000000e+00	
-1.483792e+00	-7.084714e-01	1.224688e+00	4.301734e+01	1.168866e-04	2.539517e+05	1.012785e+05	2.880860e+02	1.032305e-01	-6.557402e-02	0.000000e+00	
-1.433390e+00	-7.383124e-01	1.224688e+00	4.301733e+01	1.341432e-04	2.539517e+05	1.012785e+05	2.880860e+02	1.032305e-01	-6.557338e-02	0.000000e+00	
-1.382989e+00	-7.681640e-01	1.224688e+00	4.301731e+01	1.524948e-04	2.539517e+05	1.012785e+05	2.880860e+02	1.032305e-01	-6.557259e-02	0.000000e+00	
-1.635126e+00	-6.190563e-01	1.224688e+00	4.301736e+01	7.177800e-05	2.539517e+05	1.012785e+05	2.880860e+02	1.032306e-01	-6.557531e-02	0.000000e+00	
-1.332588e+00	-7.980338e-01	1.224688e+00	4.301729e+01	1.718722e-04	2.539517e+05	1.012785e+05	2.880860e+02	1.032304e-01	-6.557162e-02	0.000000e+00	
-1.685802e+00	-5.893892e-01	1.224688e+00	4.301737e+01	5.887999e-05	2.539517e+05	1.012785e+05	2.880860e+02	1.032306e-01	-6.557558e-02	0.000000e+00	
-1.736874e+00	-5.599255e-01	1.224688e+00	4.301737e+01	4.694194e-05	2.539517e+05	1.012785e+05	2.880860e+02	1.032306e-01	-6.557582e-02	0.000000e+00	
-1.788694e+00	-5.307981e-01	1.224688e+00	4.301738e+01	3.587293e-05	2.539517e+05	1.012785e+05	2.880860e+02	1.032306e-01	-6.557600e-02	0.000000e+00	
-1.841686e+00	-5.021205e-01	1.224688e+00	4.301738e+01	2.558409e-05	2.539517e+05	1.012785e+05	2.880860e+02	1.032306e-01	-6.557618e-02	0.000000e+00	
-1.896174e+00	-4.739013e-01	1.224688e+00	4.301738e+01	1.601582e-05	2.539517e+05	1.012785e+05	2.880860e+02	1.032307e-01	-6.557632e-02	0.000000e+00	
-2.000000e+00	-4.761905e-01	1.224688e+00	4.301738e+01	-4.797303e-07	2.539517e+05	1.012785e+05	2.880860e+02	1.032306e-01	-6.557627e-02	0.000000e+00	
-1.185708e+00	-1.130828e+00	1.224688e+00	4.301709e+01	1.015894e-04	2.539517e+05	1.012785e+05	2.880860e+02	1.032299e-01	-6.556167e-02	0.000000e+00	
-1.184765e+00	-1.185808e+00	1.224688e+00	4.301708e+01	6.019247e-05	2.539517e+05	1.012785e+05	2.880860e+02	1.032299e-01	-6.556070e-02	0.000000e+00	
-1.233724e+00	-1.038016e+00	1.224688e+00	4.301715e+01	1.393149e-04	2.539517e+05	1.012785e+05	2.880860e+02	1.032301e-01	-6.556465e-02	0.000000e+00	
-1.282188e+00	-8.279355e-01	1.224688e+00	4.301727e+01	1.921173e-04	2.539517e+05	1.012785e+05	2.880860e+02	1.032304e-01	-6.557043e-02	0.000000e+00	
-1.952152e+00	-4.459755e-01	1.224688e+00	4.301739e+01	7.213634e-06	2.539517e+05	1.012785e+05	2.880860e+02	1.032307e-01	-6.557651e-02	0.000000e+00	
-1.184242e+00	-1.068796e+00	1.224688e+00	4.301711e+01	1.413824e-04	2.539517e+05	1.012785e+05	2.880860e+02	1.032300e-01	-6.556259e-02	0.000000e+00	
-1.233095e+00	-9.769027e-01	1.224688e+00	4.301718e+01	1.688011e-04	2.539517e+05	1.012785e+05	2.880860e+02	1.032301e-01	-6.556593e-02	0.000000e+00	
-1.232442e+00	-9.170133e-01	1.224688e+00	4.301721e+01	1.934441e-04	2.539517e+05	1.012785e+05	2.880860e+02	1.032302e-01	-6.556737e-02	0.000000e+00	
-1.231797e+00	-8.578882e-01	1.224688e+00	4.301724e+01	2.129811e-04	2.539517e+05	1.012785e+05	2.880860e+02	1.032303e-01	-6.556901e-02	0.000000e+00	
-1.533565e+00	-6.200713e-01	1.224688e+00	4.301737e+01	1.000004e-04	2.539517e+05	1.012785e+05	2.880860e+02	1.032306e-01	-6.557544e-02	0.000000e+00	
-1.483157e+00	-6.498991e-01	1.224688e+00	4.301736e+01	1.173072e-04	2.539517e+05	1.012785e+05	2.880860e+02	1.032306e-01	-6.557503e-02	0.000000e+00	
-1.583995e+00	-5.902579e-01	1.224688e+00	4.301737e+01	8.415899e-05	2.539517e+05	1.012785e+05	2.880860e+02	1.032306e-01	-6.557577e-02	0.000000e+00	
-1.432756e+00	-6.797320e-01	1.224688e+00	4.301735e+01	1.361400e-04	2.539517e+05	1.012785e+05	2.880860e+02	1.032306e-01	-6.557451e-02	0.000000e+00	
-1.382356e+00	-7.095681e-01	1.224688e+00	4.301733e+01	1.565357e-04	2.539517e+05	1.012785e+05	2.880860e+02	1.032305e-01	-6.557385e-02	0.000000e+00	
-1.331956e+00	-7.394092e-01	1.224688e+00	4.301732e+01	1.785139e-04	2.539517e+05	1.012785e+05	2.880860e+02	1.032305e-01	-6.557303e-02	0.000000e+00	
-1.634498e+00	-5.604830e-01	1.224688e+00	4.301738e+01	6.970303e-05	2.539517e+05	1.012785e+05	2.880860e+02	1.032306e-01	-6.557603e-02	0.000000e+00	
-1.281556e+00	-7.692600e-01	1.224688e+00	4.301730e+01	2.020567e-04	2.539517e+05	1.012785e+05	2.880860e+02	1.032304e-01	-6.557201e-02	0.000000e+00	
-1.685188e+00	-5.307987e-01	1.224688e+00	4.301738e+01	5.653452e-05	2.539517e+05	1.012785e+05	2.880860e+02	1.032306e-01	-6.557623e-02	0.000000e+00	
-1.736298e+00	-5.012935e-01	1.224688e+00	4.301739e+01	4.454519e-05	2.539517e+05	1.012785e+05	2.880860e+02	1.032307e-01	-6.557639e-02	0.000000e+00	
-1.788193e+00	-4.720809e-01	1.224688e+00	4.301739e+01	3.362172e-05	2.539517e+05	1.012785e+05	2.880860e+02	1.032307e-01	-6.557653e-02	0.000000e+00	
-1.841317e+00	-4.432518e-01	1.224688e+00	4.301739e+01	2.365985e-05	2.539517e+05	1.012785e+05	2.880860e+02	1.032307e-01	-6.557666e-02	0.000000e+00	
-1.896007e+00	-4.148005e-01	1.224688e+00	4.301739e+01	1.459126e-05	2.539517e+05	1.012785e+05	2.880860e+02	1.032307e-01	-6.557676e-02	0.000000e+00	
-2.000000e+00	-4.166667e-01	1.224688e+00	4.301739e+01	-4.540608e-07	2.539517e+05	1.012785e+05	2.880860e+02	1.032307e-01	-6.557670e-02	0.000000e+00	
-1.143479e+00	-1.149926e+00	1.224688e+00	4.301706e+01	9.670945e-05	2.539517e+05	1.012785e+05	2.880860e+02	1.032299e-01	-6.556065e-02	0.000000e+00	
-1.136036e+00	-1.099969e+00	1.224688e+00	4.301707e+01	1.361788e-04	2.539517e+05	1.012785e+05	2.880860e+02	1.032299e-01	-6.556007e-02	0.000000e+00	
-1.116564e+00	-1.191314e+00	1.224688e+00	4.301703e+01	6.798043e-05	2.539517e+05	1.012785e+05	2.880860e+02	1.032298e-01	-6.555845e-02	0.000000e+00	
-1.183052e+00	-1.007558e+00	1.224688e+00	4.301714e+01	1.774746e-04	2.539517e+05	1.012785e+05	2.880860e+02	1.032301e-01	-6.556391e-02	0.000000e+00	
-1.231159e+00	-7.991290e-01	1.224688e+00	4.301727e+01	2.270345e-04	2.539517e+05	1.012785e+05	2.880860e+02	1.032304e-01	-6.557075e-02	0.000000e+00	
-1.952249e+00	-3.865677e-01	1.224688e+00	4.301740e+01	6.453633e-06	2.539517e+05	1.012785e+05	2.880860e+02	1.032307e-01	-6.557692e-02	0.000000e+00	
-1.133422e+00	-1.038685e+00	1.224688e+00	4.301709e+01	1.832316e-04	2.539517e+05	1.012785e+05	2.880860e+02	1.032299e-01	-6.556190e-02	0.000000e+00	
-1.182166e+00	-9.473104e-01	1.224688e+00	4.301717e+01	2.087178e-04	2.539517e+05	1.012785e+05	2.880860e+02	1.032301e-01	-6.556553e-02	0.000000e+00	
-1.181435e+00	-8.879214e-01	1.224688e+00	4.301720e+01	2.340197e-04	2.539517e+05	1.012785e+05	2.880860e+02	1.032302e-01	-6.556727e-02	0.000000e+00	
-1.180769e+00	-8.290307e-01	1.224688e+00	4.301724e+01	2.533033e-04	2.539517e+05	1.012785e+05	2.880860e+02	1.032303e-01	-6.556922e-02	0.000000e+00	
-1.482521e+00	-5.913341e-01	1.224688e+00	4.301738e+01	1.150842e-04	2.539517e+05	1.012785e+05	2.880860e+02	1.032306e-01	-6.557603e-02	0.000000e+00	
-1.532929e+00	-5.615067e-01	1.224688e+00	4.301738e+01	9.702724e-05	2.539517e+05	1.012785e+05	2.880860e+02	1.032307e-01	-6.557632e-02	0.000000e+00	
-1.432120e+00	-6.211654e-01	1.224688e+00	4.301737e+01	1.350310e-04	2.539517e+05	1.012785e+05	2.880860e+02	1.032306e-01	-6.557564e-02	0.000000e+00	
-1.583362e+00	-5.316917e-01	1.224688e+00	4.301739e+01	8.073927e-05	2.539517e+05	1.012785e+05	2.880860e+02	1.032307e-01	-6.557655e-02	0.000000e+00	
-1.381720e+00	-6.509980e-01	1.224688e+00	4.301736e+01	1.569759e-04	2.539517e+05	1.012785e+05	2.880860e+02	1.032306e-01	-6.557513e-02	0.000000e+00	
-1.331321e+00	-6.808319e-01	1.224688e+00	4.301735e+01	1.810139e-04	2.539517e+05	1.012785e+05	2.880860e+02	1.032306e-01	-6.557447e-02	0.000000e+00	
-1.280921e+00	-7.106681e-01	1.224688e+00	4.301733e+01	2.072149e-04	2.539517e+05	1.012785e+05	2.880860e+02	1.032305e-01	-6.557363e-02	0.000000e+00	
-1.633870e+00	-5.019105e-01	1.224688e+00	4.301739e+01	6.608997e-05	2.539517e+05	1.012785e+05	2.880860e+02	1.032307e-01	-6.557671e-02	0.000000e+00	
-1.230522e+00	-7.405094e-01	1.224688e+00	4.301731e+01	2.356280e-04	2.539517e+05	1.012785e+05	2.880860e+02	1.032305e-01	-6.557258e-02	0.000000e+00	
-1.684576e+00	-4.722088e-01	1.224688e+00	4.301739e+01	5.294554e-05	2.539517e+05	1.012785e+05	2.880860e+02	1.032307e-01	-6.557684e-02	0.000000e+00	
-1.735722e+00	-4.426619e-01	1.224688e+00	4.301740e+01	4.117056e-05	2.539517e+05	1.012785e+05	2.880860e+02	1.032307e-01	-6.557694e-02	0.000000e+00	