TITLE = "SU2 Simulation"
VARIABLES = "Iteration","CL","CD","CSF","CMx","CMy","CMz","CFx","CFy","CFz","CL/CD","AoA","Custom_ObjFunc","Res_Flow[0]","Res_Flow[1]","Res_Flow[2]","Res_Flow[3]","Res_Flow[4]","Linear_Solver_Iterations","CFL_Number","Time(min)"
ZONE T= "Convergence history"
           0, 0.00000000e+00, 0.00000000e+00, 0.00000000e+00, 0.00000000e+00, 0.00000000e+00, 0.00000000e+00, 0.00000000e+00, 0.00000000e+00, 0.00000000e+00, 0.00000000e+00, 0.00000000e+00, 0.00000000e+00, -3.43373958e+00, -8.23975863e-01, -1.23277511e+01, 2.08572544e+00, 0.00000000e+00, 5.0000000000, 5.0000000000, 0.0012631622
           1, 0.00000000e+00, 0.00000000e+00, 0.00000000e+00, 0.00000000e+00, 0.00000000e+00, 0.00000000e+00, 0.00000000e+00, 0.00000000e+00, 0.00000000e+00, 0.00000000e+00, 0.00000000e+00, 0.00000000e+00, -2.81635676e+00, -3.28286634e-01, -3.27371750e+00, 2.62970343e+00, 0.00000000e+00, 5.0000000000, 5.0000000000, 0.0024929122
           2, 0.00000000e+00, 0.00000000e+00, 0.00000000e+00, 0.00000000e+00, 0.00000000e+00, 0.00000000e+00, 0.00000000e+00, 0.00000000e+00, 0.00000000e+00, 0.00000000e+00, 0.00000000e+00, 0.00000000e+00, -2.62553748e+00, -1.40977686e-01, -2.13970993e+00, 2.81895531e+00, 0.00000000e+00, 5.0000000000, 5.0000000000, 0.0036898245
           3, 0.00000000e+00, 0.00000000e+00, 0.00000000e+00, 0.00000000e+00, 0.00000000e+00, 0.00000000e+00, 0.00000000e+00, 0.00000000e+00, 0.00000000e+00, 0.00000000e+00, 0.00000000e+00, 0.00000000e+00, -2.55234312e+00, -6.79084725e-02, -1.80882774e+00, 2.89200077e+00, 0.00000000e+00, 5.0000000000, 5.0000000000, 0.0048718427
           4, 0.00000000e+00, 0.00000000e+00, 0.00000000e+00, 0.00000000e+00, 0.00000000e+00, 0.00000000e+00, 0.00000000e+00, 0.00000000e+00, 0.00000000e+00, 0.00000000e+00, 0.00000000e+00, 0.00000000e+00, -2.52112198e+00, -3.59126152e-02, -1.66725731e+00, 2.92315771e+00, 0.00000000e+00, 5.0000000000, 5.0000000000, 0.0060218215
           5, 0.00000000e+00, 0.00000000e+00, 0.00000000e+00, 0.00000000e+00, 0.00000000e+00, 0.00000000e+00, 0.00000000e+00, 0.00000000e+00, 0.00000000e+00, 0.00000000e+00, 0.00000000e+00, 0.00000000e+00, -2.50688232e+00, -2.11639945e-02, -1.62205592e+00, 2.93726763e+00, 0.00000000e+00, 5.0000000000, 5.0000000000, 0.0071683290
           6, 0.00000000e+00, 0.00000000e+00, 0.00000000e+00, 0.00000000e+00, 0.00000000e+00, 0.00000000e+00, 0.00000000e+00, 0.00000000e+00, 0.00000000e+00, 0.00000000e+00, 0.00000000e+00, 0.00000000e+00, -2.49952867e+00, -1.38810556e-02, -1.63212313e+00, 2.94446536e+00, 0.00000000e+00, 5.0000000000, 5.0000000000, 0.0083570344
           7, 0.00000000e+00, 0.00000000e+00, 0.00000000e+00, 0.00000000e+00, 0.00000000e+00, 0.00000000e+00, 0.00000000e+00, 0.00000000e+00, 0.00000000e+00, 0.00000000e+00, 0.00000000e+00, 0.00000000e+00, -2.49513808e+00, -9.89926982e-03, -1.66520034e+00, 2.94872832e+00, 0.00000000e+00, 5.0000000000, 5.0000000000, 0.0095425848
           8, 0.00000000e+00, 0.00000000e+00, 0.00000000e+00, 0.00000000e+00, 0.00000000e+00, 0.00000000e+00, 0.00000000e+00, 0.00000000e+00, 0.00000000e+00, 0.00000000e+00, 0.00000000e+00, 0.00000000e+00, -2.49237446e+00, -7.61741622e-03, -1.69635280e+00, 2.95141668e+00, 0.00000000e+00, 5.0000000000, 5.0000000000, 0.0109482636
           9, 0.00000000e+00, 0.00000000e+00, 0.00000000e+00, 0.00000000e+00, 0.00000000e+00, 0.00000000e+00, 0.00000000e+00, 0.00000000e+00, 0.00000000e+00, 0.00000000e+00, 0.00000000e+00, 0.00000000e+00, -2.49089643e+00, -6.62985653e-03, -1.71771453e+00, 2.95287425e+00, 0.00000000e+00, 5.0000000000, 5.0000000000, 0.0122256347
          10, 0.00000000e+00, 0.00000000e+00, 0.00000000e+00, 0.00000000e+00, 0.00000000e+00, 0.00000000e+00, 0.00000000e+00, 0.00000000e+00, 0.00000000e+00, 0.00000000e+00, 0.00000000e+00, 0.00000000e+00, -2.49070640e+00, -7.04576858e-03, -1.73374924e+00, 2.95309594e+00, 0.00000000e+00, 5.0000000000, 5.0000000000, 0.0134415628
          11, 0.00000000e+00, 0.00000000e+00, 0.00000000e+00, 0.00000000e+00, 0.00000000e+00, 0.00000000e+00, 0.00000000e+00, 0.00000000e+00, 0.00000000e+00, 0.00000000e+00, 0.00000000e+00, 0.00000000e+00, -2.49186722e+00, -9.12420330e-03, -1.74718118e+00, 2.95201894e+00, 0.00000000e+00, 5.0000000000, 5.0000000000, 0.0146965716
          12, 0.00000000e+00, 0.00000000e+00, 0.00000000e+00, 0.00000000e+00, 0.00000000e+00, 0.00000000e+00, 0.00000000e+00, 0.00000000e+00, 0.00000000e+00, 0.00000000e+00, 0.00000000e+00, 0.00000000e+00, -2.49435688e+00, -1.30472777e-02, -1.75680235e+00, 2.94966667e+00, 0.00000000e+00, 5.0000000000, 5.0000000000, 0.0159363656
          13, 0.00000000e+00, 0.00000000e+00, 0.00000000e+00, 0.00000000e+00, 0.00000000e+00, 0.00000000e+00, 0.00000000e+00, 0.00000000e+00, 0.00000000e+00, 0.00000000e+00, 0.00000000e+00, 0.00000000e+00, -2.49800364e+00, -1.87459413e-02, -1.76313723e+00, 2.94620779e+00, 0.00000000e+00, 5.0000000000, 5.0000000000, 0.0171010702
          14, 0.00000000e+00, 0.00000000e+00, 0.00000000e+00, 0.00000000e+00, 0.00000000e+00, 0.00000000e+00, 0.00000000e+00, 0.00000000e+00, 0.00000000e+00, 0.00000000e+00, 0.00000000e+00, 0.00000000e+00, -2.50248253e+00, -2.57626326e-02, -1.77018958e+00, 2.94195273e+00, 0.00000000e+00, 5.0000000000, 5.0000000000, 0.0183236898
          15, 0.00000000e+00, 0.00000000e+00, 0.00000000e+00, 0.00000000e+00, 0.00000000e+00, 0.00000000e+00, 0.00000000e+00, 0.00000000e+00, 0.00000000e+00, 0.00000000e+00, 0.00000000e+00, 0.00000000e+00, -2.50735891e+00, -3.32004775e-02, -1.78192146e+00, 2.93730652e+00, 0.00000000e+00, 5.0000000000, 5.0000000000, 0.0194945671
          16, 0.00000000e+00, 0.00000000e+00, 0.00000000e+00, 0.00000000e+00, 0.00000000e+00, 0.00000000e+00, 0.00000000e+00, 0.00000000e+00, 0.00000000e+00, 0.00000000e+00, 0.00000000e+00, 0.00000000e+00, -2.51214136e+00, -3.98141040e-02, -1.79879771e+00, 2.93271857e+00, 0.00000000e+00, 5.0000000000, 5.0000000000, 0.0207654287
          17, 0.00000000e+00, 0.00000000e+00, 0.00000000e+00, 0.00000000e+00, 0.00000000e+00, 0.00000000e+00, 0.00000000e+00, 0.00000000e+00, 0.00000000e+00, 0.00000000e+00, 0.00000000e+00, 0.00000000e+00, -2.51634909e+00, -4.43041239e-02, -1.81686804e+00, 2.92862551e+00, 0.00000000e+00, 5.0000000000, 5.0000000000, 0.0221009253
          18, 0.00000000e+00, 0.00000000e+00, 0.00000000e+00, 0.00000000e+00, 0.00000000e+00, 0.00000000e+00, 0.00000000e+00, 0.00000000e+00, 0.00000000e+00, 0.00000000e+00, 0.00000000e+00, 0.00000000e+00, -2.51958822e+00, -4.57477530e-02, -1.82937249e+00, 2.92538985e+00, 0.00000000e+00, 5.0000000000, 5.0000000000, 0.0234649711
          19, 0.00000000e+00, 0.00000000e+00, 0.00000000e+00, 0.00000000e+00, 0.00000000e+00, 0.00000000e+00, 0.00000000e+00, 0.00000000e+00, 0.00000000e+00, 0.00000000e+00, 0.00000000e+00, 0.00000000e+00, -2.52161846e+00, -4.39491487e-02, -1.83078005e+00, 2.92324546e+00, 0.00000000e+00, 5.0000000000, 5.0000000000, 0.0247903575
          20, 0.00000000e+00, 0.00000000e+00, 0.00000000e+00, 0.00000000e+00, 0.00000000e+00, 0.00000000e+00, 0.00000000e+00, 0.00000000e+00, 0.00000000e+00, 0.00000000e+00, 0.00000000e+00, 0.00000000e+00, -2.52239564e+00, -3.94958768e-02, -1.82073695e+00, 2.92225837e+00, 0.00000000e+00, 5.0000000000, 5.0000000000, 0.0260727971
          21, 0.00000000e+00, 0.00000000e+00, 0.00000000e+00, 0.00000000e+00, 0.00000000e+00, 0.00000000e+00, 0.00000000e+00, 0.00000000e+00, 0.00000000e+00, 0.00000000e+00, 0.00000000e+00, 0.00000000e+00, -2.52206970e+00, -3.34919887e-02, -1.80369435e+00, 2.92232148e+00, 0.00000000e+00, 5.0000000000, 5.0000000000, 0.0273028918
          22, 0.00000000e+00, 0.00000000e+00, 0.00000000e+00, 0.00000000e+00, 0.00000000e+00, 0.00000000e+00, 0.00000000e+00, 0.00000000e+00, 0.00000000e+00, 0.00000000e+00, 0.00000000e+00, 0.00000000e+00, -2.52093471e+00, -2.71510308e-02, -1.78512052e+00, 2.92319085e+00, 0.00000000e+00, 5.0000000000, 5.0000000000, 0.0284759317
          23, 0.00000000e+00, 0.00000000e+00, 0.00000000e+00, 0.00000000e+00, 0.00000000e+00, 0.00000000e+00, 0.00000000e+00, 0.00000000e+00, 0.00000000e+00, 0.00000000e+00, 0.00000000e+00, 0.00000000e+00, -2.51935278e+00, -2.14625661e-02, -1.76879184e+00, 2.92454825e+00, 0.00000000e+00, 5.0000000000, 5.0000000000, 0.0296381819
          24, 0.00000000e+00, 0.00000000e+00, 0.00000000e+00, 0.00000000e+00, 0.00000000e+00, 0.00000000e+00, 0.00000000e+00, 0.00000000e+00, 0.00000000e+00, 0.00000000e+00, 0.00000000e+00, 0.00000000e+00, -2.51768735e+00, -1.70223133e-02, -1.75647230e+00, 2.92605913e+00, 0.00000000e+00, 5.0000000000, 5.0000000000, 0.0308181894
          25, 0.00000000e+00, 0.00000000e+00, 0.00000000e+00, 0.00000000e+00, 0.00000000e+00, 0.00000000e+00, 0.00000000e+00, 0.00000000e+00, 0.00000000e+00, 0.00000000e+00, 0.00000000e+00, 0.00000000e+00, -2.51627245e+00, -1.39983073e-02, -1.74866565e+00, 2.92740019e+00, 0.00000000e+00, 5.0000000000, 5.0000000000, 0.0320459101
          26, 0.00000000e+00, 0.00000000e+00, 0.00000000e+00, 0.00000000e+00, 0.00000000e+00, 0.00000000e+00, 0.00000000e+00, 0.00000000e+00, 0.00000000e+00, 0.00000000e+00, 0.00000000e+00, 0.00000000e+00, -2.51542217e+00, -1.21689811e-02, -1.74535734e+00, 2.92825084e+00, 0.00000000e+00, 5.0000000000, 5.0000000000, 0.0335064245
          27, 0.00000000e+00, 0.00000000e+00, 0.00000000e+00, 0.00000000e+00, 0.00000000e+00, 0.00000000e+00, 0.00000000e+00, 0.00000000e+00, 0.00000000e+00, 0.00000000e+00, 0.00000000e+00, 0.00000000e+00, -2.51546478e+00, -1.09891166e-02, -1.74641266e+00, 2.92826243e+00, 0.00000000e+00, 5.0000000000, 5.0000000000, 0.0352645979
          28, 0.00000000e+00, 0.00000000e+00, 0.00000000e+00, 0.00000000e+00, 0.00000000e+00, 0.00000000e+00, 0.00000000e+00, 0.00000000e+00, 0.00000000e+00, 0.00000000e+00, 0.00000000e+00, 0.00000000e+00, -2.51677866e+00, -9.67333120e-03, -1.75166095e+00, 2.92702694e+00, 0.00000000e+00, 5.0000000000, 5.0000000000, 0.0368918888
          29, 0.00000000e+00, 0.00000000e+00, 0.00000000e+00, 0.00000000e+00, 0.00000000e+00, 0.00000000e+00, 0.00000000e+00, 0.00000000e+00, 0.00000000e+00, 0.00000000e+00, 0.00000000e+00, 0.00000000e+00, -2.51981220e+00, -7.31000938e-03, -1.76079404e+00, 2.92406240e+00, 0.00000000e+00, 5.0000000000, 5.0000000000, 0.0384679101
          30, 0.00000000e+00, 0.00000000e+00, 0.00000000e+00, 0.00000000e+00, 0.00000000e+00, 0.00000000e+00, 0.00000000e+00, 0.00000000e+00, 0.00000000e+00, 0.00000000e+00, 0.00000000e+00, 0.00000000e+00, -2.52507967e+00, -3.02078960e-03, -1.77320309e+00, 2.91882248e+00, 0.00000000e+00, 5.0000000000, 5.0000000000, 0.0397562645
          31, 0.00000000e+00, 0.00000000e+00, 0.00000000e+00, 0.00000000e+00, 0.00000000e+00, 0.00000000e+00, 0.00000000e+00, 0.00000000e+00, 0.00000000e+00, 0.00000000e+00, 0.00000000e+00, 0.00000000e+00, -2.53313264e+00, 3.84236406e-03, -1.78784620e+00, 2.91073019e+00, 0.00000000e+00, 5.0000000000, 5.0000000000, 0.0409111120
          32, 0.00000000e+00, 0.00000000e+00, 0.00000000e+00, 0.00000000e+00, 0.00000000e+00, 0.00000000e+00, 0.00000000e+00, 0.00000000e+00, 0.00000000e+00, 0.00000000e+00, 0.00000000e+00, 0.00000000e+00, -2.54450797e+00, 1.35094672e-02, -1.80321373e+00, 2.89923551e+00, 0.00000000e+00, 5.0000000000, 5.0000000000, 0.0421052048
          33, 0.00000000e+00, 0.00000000e+00, 0.00000000e+00, 0.00000000e+00, 0.00000000e+00, 0.00000000e+00, 0.00000000e+00, 0.00000000e+00, 0.00000000e+00, 0.00000000e+00, 0.00000000e+00, 0.00000000e+00, -2.55964691e+00, 2.56858384e-02, -1.81745488e+00, 2.88390381e+00, 0.00000000e+00, 5.0000000000, 5.0000000000, 0.0432954328
          34, 0.00000000e+00, 0.00000000e+00, 0.00000000e+00, 0.00000000e+00, 0.00000000e+00, 0.00000000e+00, 0.00000000e+00, 0.00000000e+00, 0.00000000e+00, 0.00000000e+00, 0.00000000e+00, 0.00000000e+00, -2.57876867e+00, 3.95764330e-02, -1.82870728e+00, 2.86455519e+00, 0.00000000e+00, 5.0000000000, 5.0000000000, 0.0444759128
          35, 0.00000000e+00, 0.00000000e+00, 0.00000000e+00, 0.00000000e+00, 0.00000000e+00, 0.00000000e+00, 0.00000000e+00, 0.00000000e+00, 0.00000000e+00, 0.00000000e+00, 0.00000000e+00, 0.00000000e+00, -2.60166664e+00, 5.40288192e-02, -1.83557760e+00, 2.84149083e+00, 0.00000000e+00, 5.0000000000, 5.0000000000, 0.0456796434
          36, 0.00000000e+00, 0.00000000e+00, 0.00000000e+00, 0.00000000e+00, 0.00000000e+00, 0.00000000e+00, 0.00000000e+00, 0.00000000e+00, 0.00000000e+00, 0.00000000e+00, 0.00000000e+00, 0.00000000e+00, -2.62738781e+00, 6.77277623e-02, -1.83757952e+00, 2.81584751e+00, 0.00000000e+00, 5.0000000000, 5.0000000000, 0.0468749152
          37, 0.00000000e+00, 0.00000000e+00, 0.00000000e+00, 0.00000000e+00, 0.00000000e+00, 0.00000000e+00, 0.00000000e+00, 0.00000000e+00, 0.00000000e+00, 0.00000000e+00, 0.00000000e+00, 0.00000000e+00, -2.65379137e+00, 7.93672660e-02, -1.83527681e+00, 2.79007036e+00, 0.00000000e+00, 5.0000000000, 5.0000000000, 0.0480108009
          38, 0.00000000e+00, 0.00000000e+00, 0.00000000e+00, 0.00000000e+00, 0.00000000e+00, 0.00000000e+00, 0.00000000e+00, 0.00000000e+00, 0.00000000e+00, 0.00000000e+00, 0.00000000e+00, 0.00000000e+00, -2.67715189e+00, 8.77586981e-02, -1.83004831e+00, 2.76827810e+00, 0.00000000e+00, 5.0000000000, 5.0000000000, 0.0491789381
          39, 0.00000000e+00, 0.00000000e+00, 0.00000000e+00, 0.00000000e+00, 0.00000000e+00, 0.00000000e+00, 0.00000000e+00, 0.00000000e+00, 0.00000000e+00, 0.00000000e+00, 0.00000000e+00, 0.00000000e+00, -2.69235619e+00, 9.18717149e-02, -1.82364247e+00, 2.75586145e+00, 0.00000000e+00, 5.0000000000, 5.0000000000, 0.0503596003
          40, 0.00000000e+00, 0.00000000e+00, 0.00000000e+00, 0.00000000e+00, 0.00000000e+00, 0.00000000e+00, 0.00000000e+00, 0.00000000e+00, 0.00000000e+00, 0.00000000e+00, 0.00000000e+00, 0.00000000e+00, -2.69447507e+00, 9.08256337e-02, -1.81776927e+00, 2.75754772e+00, 0.00000000e+00, 5.0000000000, 5.0000000000, 0.0515939454
          41, 0.00000000e+00, 0.00000000e+00, 0.00000000e+00, 0.00000000e+00, 0.00000000e+00, 0.00000000e+00, 0.00000000e+00, 0.00000000e+00, 0.00000000e+00, 0.00000000e+00, 0.00000000e+00, 0.00000000e+00, -2.68143652e+00, 8.38519677e-02, -1.81385329e+00, 2.77462008e+00, 0.00000000e+00, 5.0000000000, 5.0000000000, 0.0531401221
          42, 0.00000000e+00, 0.00000000e+00, 0.00000000e+00, 0.00000000e+00, 0.00000000e+00, 0.00000000e+00, 0.00000000e+00, 0.00000000e+00, 0.00000000e+00, 0.00000000e+00, 0.00000000e+00, 0.00000000e+00, -2.65547667e+00, 7.02431737e-02, -1.81293489e+00, 2.80396571e+00, 0.00000000e+00, 5.0000000000, 5.0000000000, 0.0546835023
          43, 0.00000000e+00, 0.00000000e+00, 0.00000000e+00, 0.00000000e+00, 0.00000000e+00, 0.00000000e+00, 0.00000000e+00, 0.00000000e+00, 0.00000000e+00, 0.00000000e+00, 0.00000000e+00, 0.00000000e+00, -2.62168818e+00, 4.92956070e-02, -1.81565985e+00, 2.84008885e+00, 0.00000000e+00, 5.0000000000, 5.0000000000, 0.0562857368
          44, 0.00000000e+00, 0.00000000e+00, 0.00000000e+00, 0.00000000e+00, 0.00000000e+00, 0.00000000e+00, 0.00000000e+00, 0.00000000e+00, 0.00000000e+00, 0.00000000e+00, 0.00000000e+00, 0.00000000e+00, -2.58535483e+00, 2.02496720e-02, -1.82231065e+00, 2.87778972e+00, 0.00000000e+00, 5.0000000000, 5.0000000000, 0.0578948179
          45, 0.00000000e+00, 0.00000000e+00, 0.00000000e+00, 0.00000000e+00, 0.00000000e+00, 0.00000000e+00, 0.00000000e+00, 0.00000000e+00, 0.00000000e+00, 0.00000000e+00, 0.00000000e+00, 0.00000000e+00, -2.55039068e+00, -1.77712772e-02, -1.83284682e+00, 2.91343204e+00, 0.00000000e+00, 5.0000000000, 5.0000000000, 0.0595460138
          46, 0.00000000e+00, 0.00000000e+00, 0.00000000e+00, 0.00000000e+00, 0.00000000e+00, 0.00000000e+00, 0.00000000e+00, 0.00000000e+00, 0.00000000e+00, 0.00000000e+00, 0.00000000e+00, 0.00000000e+00, -2.51914905e+00, -6.58160876e-02, -1.84693412e+00, 2.94492580e+00, 0.00000000e+00, 5.0000000000, 5.0000000000, 0.0610540989
          47, 0.00000000e+00, 0.00000000e+00, 0.00000000e+00, 0.00000000e+00, 0.00000000e+00, 0.00000000e+00, 0.00000000e+00, 0.00000000e+00, 0.00000000e+00, 0.00000000e+00, 0.00000000e+00, 0.00000000e+00, -2.49281819e+00, -1.25122644e-01, -1.86394632e+00, 2.97126980e+00, 0.00000000e+00, 5.0000000000, 5.0000000000, 0.0623957230
          48, 0.00000000e+00, 0.00000000e+00, 0.00000000e+00, 0.00000000e+00, 0.00000000e+00, 0.00000000e+00, 0.00000000e+00, 0.00000000e+00, 0.00000000e+00, 0.00000000e+00, 0.00000000e+00, 0.00000000e+00, -2.47185522e+00, -1.96975522e-01, -1.88292928e+00, 2.99212492e+00, 0.00000000e+00, 5.0000000000, 5.0000000000, 0.0638497787
          49, 0.00000000e+00, 0.00000000e+00, 0.00000000e+00, 0.00000000e+00, 0.00000000e+00, 0.00000000e+00, 0.00000000e+00, 0.00000000e+00, 0.00000000e+00, 0.00000000e+00, 0.00000000e+00, 0.00000000e+00, -2.45629298e+00, -2.81981185e-01, -1.90254128e+00, 3.00752953e+00, 0.00000000e+00, 5.0000000000, 5.0000000000, 0.0652478484
          50, 0.00000000e+00, 0.00000000e+00, 0.00000000e+00, 0.00000000e+00, 0.00000000e+00, 0.00000000e+00, 0.00000000e+00, 0.00000000e+00, 0.00000000e+00, 0.00000000e+00, 0.00000000e+00, 0.00000000e+00, -2.44592407e+00, -3.77390221e-01, -1.92103007e+00, 3.01773419e+00, 0.00000000e+00, 5.0000000000, 5.0000000000, 0.0665751184
          51, 0.00000000e+00, 0.00000000e+00, 0.00000000e+00, 0.00000000e+00, 0.00000000e+00, 0.00000000e+00, 0.00000000e+00, 0.00000000e+00, 0.00000000e+00, 0.00000000e+00, 0.00000000e+00, 0.00000000e+00, -2.44040244e+00, -4.69339987e-01, -1.93634986e+00, 3.02311248e+00, 0.00000000e+00, 5.0000000000, 5.0000000000, 0.0680439104
          52, 0.00000000e+00, 0.00000000e+00, 0.00000000e+00, 0.00000000e+00, 0.00000000e+00, 0.00000000e+00, 0.00000000e+00, 0.00000000e+00, 0.00000000e+00, 0.00000000e+00, 0.00000000e+00, 0.00000000e+00, -2.43929718e+00, -5.23061299e-01, -1.94650799e+00, 3.02411473e+00, 0.00000000e+00, 5.0000000000, 5.0000000000, 0.0694366437
          53, 0.00000000e+00, 0.00000000e+00, 0.00000000e+00, 0.00000000e+00, 0.00000000e+00, 0.00000000e+00, 0.00000000e+00, 0.00000000e+00, 0.00000000e+00, 0.00000000e+00, 0.00000000e+00, 0.00000000e+00, -2.44212156e+00, -5.07965245e-01, -1.95008840e+00, 3.02124310e+00, 0.00000000e+00, 5.0000000000, 5.0000000000, 0.0706022242
          54, 0.00000000e+00, 0.00000000e+00, 0.00000000e+00, 0.00000000e+00, 0.00000000e+00, 0.00000000e+00, 0.00000000e+00, 0.00000000e+00, 0.00000000e+00, 0.00000000e+00, 0.00000000e+00, 0.00000000e+00, -2.44835215e+00, -4.45182802e-01, -1.94670044e+00, 3.01503451e+00, 0.00000000e+00, 5.0000000000, 5.0000000000, 0.0717596971
          55, 0.00000000e+00, 0.00000000e+00, 0.00000000e+00, 0.00000000e+00, 0.00000000e+00, 0.00000000e+00, 0.00000000e+00, 0.00000000e+00, 0.00000000e+00, 0.00000000e+00, 0.00000000e+00, 0.00000000e+00, -2.45744720e+00, -3.72563427e-01, -1.93707147e+00, 3.00604268e+00, 0.00000000e+00, 5.0000000000, 5.0000000000, 0.0729144812
          56, 0.00000000e+00, 0.00000000e+00, 0.00000000e+00, 0.00000000e+00, 0.00000000e+00, 0.00000000e+00, 0.00000000e+00, 0.00000000e+00, 0.00000000e+00, 0.00000000e+00, 0.00000000e+00, 0.00000000e+00, -2.46887050e+00, -3.07684232e-01, -1.92273288e+00, 2.99481358e+00, 0.00000000e+00, 5.0000000000, 5.0000000000, 0.0740592042
          57, 0.00000000e+00, 0.00000000e+00, 0.00000000e+00, 0.00000000e+00, 0.00000000e+00, 0.00000000e+00, 0.00000000e+00, 0.00000000e+00, 0.00000000e+00, 0.00000000e+00, 0.00000000e+00, 0.00000000e+00, -2.48212373e+00, -2.54445601e-01, -1.90552321e+00, 2.98185188e+00, 0.00000000e+00, 5.0000000000, 5.0000000000, 0.0752664359
          58, 0.00000000e+00, 0.00000000e+00, 0.00000000e+00, 0.00000000e+00, 0.00000000e+00, 0.00000000e+00, 0.00000000e+00, 0.00000000e+00, 0.00000000e+00, 0.00000000e+00, 0.00000000e+00, 0.00000000e+00, -2.49678637e+00, -2.12240753e-01, -1.88717242e+00, 2.96757954e+00, 0.00000000e+00, 5.0000000000, 5.0000000000, 0.0764347242
          59, 0.00000000e+00, 0.00000000e+00, 0.00000000e+00, 0.00000000e+00, 0.00000000e+00, 0.00000000e+00, 0.00000000e+00, 0.00000000e+00, 0.00000000e+00, 0.00000000e+00, 0.00000000e+00, 0.00000000e+00, -2.51255886e+00, -1.79429498e-01, -1.86909673e+00, 2.95229197e+00, 0.00000000e+00, 5.0000000000, 5.0000000000, 0.0776086496
          60, 0.00000000e+00, 0.00000000e+00, 0.00000000e+00, 0.00000000e+00, 0.00000000e+00, 0.00000000e+00, 0.00000000e+00, 0.00000000e+00, 0.00000000e+00, 0.00000000e+00, 0.00000000e+00, 0.00000000e+00, -2.52930060e+00, -1.54327240e-01, -1.85236526e+00, 2.93612046e+00, 0.00000000e+00, 5.0000000000, 5.0000000000, 0.0788856185
          61, 0.00000000e+00, 0.00000000e+00, 0.00000000e+00, 0.00000000e+00, 0.00000000e+00, 0.00000000e+00, 0.00000000e+00, 0.00000000e+00, 0.00000000e+00, 0.00000000e+00, 0.00000000e+00, 0.00000000e+00, -2.54705425e+00, -1.35436336e-01, -1.83775736e+00, 2.91901004e+00, 0.00000000e+00, 5.0000000000, 5.0000000000, 0.0802938787
          62, 0.00000000e+00, 0.00000000e+00, 0.00000000e+00, 0.00000000e+00, 0.00000000e+00, 0.00000000e+00, 0.00000000e+00, 0.00000000e+00, 0.00000000e+00, 0.00000000e+00, 0.00000000e+00, 0.00000000e+00, -2.56605094e+00, -1.21474102e-01, -1.82584440e+00, 2.90071761e+00, 0.00000000e+00, 5.0000000000, 5.0000000000, 0.0819311537
          63, 0.00000000e+00, 0.00000000e+00, 0.00000000e+00, 0.00000000e+00, 0.00000000e+00, 0.00000000e+00, 0.00000000e+00, 0.00000000e+00, 0.00000000e+00, 0.00000000e+00, 0.00000000e+00, 0.00000000e+00, -2.58669708e+00, -1.11357595e-01, -1.81706067e+00, 2.88082930e+00, 0.00000000e+00, 5.0000000000, 5.0000000000, 0.0833564770
          64, 0.00000000e+00, 0.00000000e+00, 0.00000000e+00, 0.00000000e+00, 0.00000000e+00, 0.00000000e+00, 0.00000000e+00, 0.00000000e+00, 0.00000000e+00, 0.00000000e+00, 0.00000000e+00, 0.00000000e+00, -2.60954942e+00, -1.04187584e-01, -1.81175095e+00, 2.85878942e+00, 0.00000000e+00, 5.0000000000, 5.0000000000, 0.0845602057
          65, 0.00000000e+00, 0.00000000e+00, 0.00000000e+00, 0.00000000e+00, 0.00000000e+00, 0.00000000e+00, 0.00000000e+00, 0.00000000e+00, 0.00000000e+00, 0.00000000e+00, 0.00000000e+00, 0.00000000e+00, -2.63528901e+00, -9.92387845e-02, -1.81019227e+00, 2.83393054e+00, 0.00000000e+00, 5.0000000000, 5.0000000000, 0.0857477325
          66, 0.00000000e+00, 0.00000000e+00, 0.00000000e+00, 0.00000000e+00, 0.00000000e+00, 0.00000000e+00, 0.00000000e+00, 0.00000000e+00, 0.00000000e+00, 0.00000000e+00, 0.00000000e+00, 0.00000000e+00, -2.66470450e+00, -9.59529630e-02, -1.81259412e+00, 2.80549465e+00, 0.00000000e+00, 5.0000000000, 5.0000000000, 0.0869251127
          67, 0.00000000e+00, 0.00000000e+00, 0.00000000e+00, 0.00000000e+00, 0.00000000e+00, 0.00000000e+00, 0.00000000e+00, 0.00000000e+00, 0.00000000e+00, 0.00000000e+00, 0.00000000e+00, 0.00000000e+00, -2.69869290e+00, -9.39295503e-02, -1.81907712e+00, 2.77263902e+00, 0.00000000e+00, 5.0000000000, 5.0000000000, 0.0881100143
          68, 0.00000000e+00, 0.00000000e+00, 0.00000000e+00, 0.00000000e+00, 0.00000000e+00, 0.00000000e+00, 0.00000000e+00, 0.00000000e+00, 0.00000000e+00, 0.00000000e+00, 0.00000000e+00, 0.00000000e+00, -2.73828300e+00, -9.29100285e-02, -1.82962995e+00, 2.73442446e+00, 0.00000000e+00, 5.0000000000, 5.0000000000, 0.0892982485
          69, 0.00000000e+00, 0.00000000e+00, 0.00000000e+00, 0.00000000e+00, 0.00000000e+00, 0.00000000e+00, 0.00000000e+00, 0.00000000e+00, 0.00000000e+00, 0.00000000e+00, 0.00000000e+00, 0.00000000e+00, -2.78468289e+00, -9.27554597e-02, -1.84404134e+00, 2.68978963e+00, 0.00000000e+00, 5.0000000000, 5.0000000000, 0.0904844349
          70, 0.00000000e+00, 0.00000000e+00, 0.00000000e+00, 0.00000000e+00, 0.00000000e+00, 0.00000000e+00, 0.00000000e+00, 0.00000000e+00, 0.00000000e+00, 0.00000000e+00, 0.00000000e+00, 0.00000000e+00, -2.83934619e+00, -9.34194724e-02, -1.86180396e+00, 2.63752686e+00, 0.00000000e+00, 5.0000000000, 5.0000000000, 0.0916776464
          71, 0.00000000e+00, 0.00000000e+00, 0.00000000e+00, 0.00000000e+00, 0.00000000e+00, 0.00000000e+00, 0.00000000e+00, 0.00000000e+00, 0.00000000e+00, 0.00000000e+00, 0.00000000e+00, 0.00000000e+00, -2.90402437e+00, -9.49206749e-02, -1.88199588e+00, 2.57631074e+00, 0.00000000e+00, 5.0000000000, 5.0000000000, 0.0928680845
          72, 0.00000000e+00, 0.00000000e+00, 0.00000000e+00, 0.00000000e+00, 0.00000000e+00, 0.00000000e+00, 0.00000000e+00, 0.00000000e+00, 0.00000000e+00, 0.00000000e+00, 0.00000000e+00, 0.00000000e+00, -2.98066613e+00, -9.73184275e-02, -1.90316841e+00, 2.50494648e+00, 0.00000000e+00, 5.0000000000, 5.0000000000, 0.0940650412
          73, 0.00000000e+00, 0.00000000e+00, 0.00000000e+00, 0.00000000e+00, 0.00000000e+00, 0.00000000e+00, 0.00000000e+00, 0.00000000e+00, 0.00000000e+00, 0.00000000e+00, 0.00000000e+00, 0.00000000e+00, -3.07060349e+00, -1.00694584e-01, -1.92331881e+00, 2.42337937e+00, 0.00000000e+00, 5.0000000000, 5.0000000000, 0.0952770576
          74, 0.00000000e+00, 0.00000000e+00, 0.00000000e+00, 0.00000000e+00, 0.00000000e+00, 0.00000000e+00, 0.00000000e+00, 0.00000000e+00, 0.00000000e+00, 0.00000000e+00, 0.00000000e+00, 0.00000000e+00, -3.17091659e+00, -1.05142008e-01, -1.94008264e+00, 2.33604169e+00, 0.00000000e+00, 5.0000000000, 5.0000000000, 0.0964402262
          75, 0.00000000e+00, 0.00000000e+00, 0.00000000e+00, 0.00000000e+00, 0.00000000e+00, 0.00000000e+00, 0.00000000e+00, 0.00000000e+00, 0.00000000e+00, 0.00000000e+00, 0.00000000e+00, 0.00000000e+00, -3.26244781e+00, -1.10759079e-01, -1.95125472e+00, 2.26008665e+00, 0.00000000e+00, 5.0000000000, 5.0000000000, 0.0975958261
          76, 0.00000000e+00, 0.00000000e+00, 0.00000000e+00, 0.00000000e+00, 0.00000000e+00, 0.00000000e+00, 0.00000000e+00, 0.00000000e+00, 0.00000000e+00, 0.00000000e+00, 0.00000000e+00, 0.00000000e+00, -3.29634523e+00, -1.17648364e-01, -1.95553626e+00, 2.23031818e+00, 0.00000000e+00, 5.0000000000, 5.0000000000, 0.0987530860
          77, 0.00000000e+00, 0.00000000e+00, 0.00000000e+00, 0.00000000e+00, 0.00000000e+00, 0.00000000e+00, 0.00000000e+00, 0.00000000e+00, 0.00000000e+00, 0.00000000e+00, 0.00000000e+00, 0.00000000e+00, -3.24492921e+00, -1.25917219e-01, -1.95314304e+00, 2.26632416e+00, 0.00000000e+00, 5.0000000000, 5.0000000000, 0.0999478914
          78, 0.00000000e+00, 0.00000000e+00, 0.00000000e+00, 0.00000000e+00, 0.00000000e+00, 0.00000000e+00, 0.00000000e+00, 0.00000000e+00, 0.00000000e+00, 0.00000000e+00, 0.00000000e+00, 0.00000000e+00, -3.15187432e+00, -1.35678680e-01, -1.94585252e+00, 2.34148136e+00, 0.00000000e+00, 5.0000000000, 5.0000000000, 0.1013608485
          79, 0.00000000e+00, 0.00000000e+00, 0.00000000e+00, 0.00000000e+00, 0.00000000e+00, 0.00000000e+00, 0.00000000e+00, 0.00000000e+00, 0.00000000e+00, 0.00000000e+00, 0.00000000e+00, 0.00000000e+00, -3.05832555e+00, -1.47052058e-01, -1.93619800e+00, 2.42337661e+00, 0.00000000e+00, 5.0000000000, 5.0000000000, 0.1025931521
          80, 0.00000000e+00, 0.00000000e+00, 0.00000000e+00, 0.00000000e+00, 0.00000000e+00, 0.00000000e+00, 0.00000000e+00, 0.00000000e+00, 0.00000000e+00, 0.00000000e+00, 0.00000000e+00, 0.00000000e+00, -2.97687857e+00, -1.60162655e-01, -1.92670383e+00, 2.49806230e+00, 0.00000000e+00, 5.0000000000, 5.0000000000, 0.1038602865
          81, 0.00000000e+00, 0.00000000e+00, 0.00000000e+00, 0.00000000e+00, 0.00000000e+00, 0.00000000e+00, 0.00000000e+00, 0.00000000e+00, 0.00000000e+00, 0.00000000e+00, 0.00000000e+00, 0.00000000e+00, -2.90854352e+00, -1.75137424e-01, -1.91953294e+00, 2.56238345e+00, 0.00000000e+00, 5.0000000000, 5.0000000000, 0.1051762008
          82, 0.00000000e+00, 0.00000000e+00, 0.00000000e+00, 0.00000000e+00, 0.00000000e+00, 0.00000000e+00, 0.00000000e+00, 0.00000000e+00, 0.00000000e+00, 0.00000000e+00, 0.00000000e+00, 0.00000000e+00, -2.85168490e+00, -1.92098431e-01, -1.91634687e+00, 2.61671682e+00, 0.00000000e+00, 5.0000000000, 5.0000000000, 0.1064596954
          83, 0.00000000e+00, 0.00000000e+00, 0.00000000e+00, 0.00000000e+00, 0.00000000e+00, 0.00000000e+00, 0.00000000e+00, 0.00000000e+00, 0.00000000e+00, 0.00000000e+00, 0.00000000e+00, 0.00000000e+00, -2.80446398e+00, -2.11158443e-01, -1.91833498e+00, 2.66224734e+00, 0.00000000e+00, 5.0000000000, 5.0000000000, 0.1079950151
          84, 0.00000000e+00, 0.00000000e+00, 0.00000000e+00, 0.00000000e+00, 0.00000000e+00, 0.00000000e+00, 0.00000000e+00, 0.00000000e+00, 0.00000000e+00, 0.00000000e+00, 0.00000000e+00, 0.00000000e+00, -2.76534119e+00, -2.32415746e-01, -1.92631812e+00, 2.70017258e+00, 0.00000000e+00, 5.0000000000, 5.0000000000, 0.1091971704
          85, 0.00000000e+00, 0.00000000e+00, 0.00000000e+00, 0.00000000e+00, 0.00000000e+00, 0.00000000e+00, 0.00000000e+00, 0.00000000e+00, 0.00000000e+00, 0.00000000e+00, 0.00000000e+00, 0.00000000e+00, -2.73310693e+00, -2.55949714e-01, -1.94084939e+00, 2.73151652e+00, 0.00000000e+00, 5.0000000000, 5.0000000000, 0.1103251070
          86, 0.00000000e+00, 0.00000000e+00, 0.00000000e+00, 0.00000000e+00, 0.00000000e+00, 0.00000000e+00, 0.00000000e+00, 0.00000000e+00, 0.00000000e+00, 0.00000000e+00, 0.00000000e+00, 0.00000000e+00, -2.70681728e+00, -2.81818343e-01, -1.96227175e+00, 2.75711816e+00, 0.00000000e+00, 5.0000000000, 5.0000000000, 0.1119642609
          87, 0.00000000e+00, 0.00000000e+00, 0.00000000e+00, 0.00000000e+00, 0.00000000e+00, 0.00000000e+00, 0.00000000e+00, 0.00000000e+00, 0.00000000e+00, 0.00000000e+00, 0.00000000e+00, 0.00000000e+00, -2.68572451e+00, -3.10058497e-01, -1.99070683e+00, 2.77766368e+00, 0.00000000e+00, 5.0000000000, 5.0000000000, 0.1136394434
          88, 0.00000000e+00, 0.00000000e+00, 0.00000000e+00, 0.00000000e+00, 0.00000000e+00, 0.00000000e+00, 0.00000000e+00, 0.00000000e+00, 0.00000000e+00, 0.00000000e+00, 0.00000000e+00, 0.00000000e+00, -2.66922069e+00, -3.40689389e-01, -2.02593969e+00, 2.79372360e+00, 0.00000000e+00, 5.0000000000, 5.0000000000, 0.1153457920
          89, 0.00000000e+00, 0.00000000e+00, 0.00000000e+00, 0.00000000e+00, 0.00000000e+00, 0.00000000e+00, 0.00000000e+00, 0.00000000e+00, 0.00000000e+00, 0.00000000e+00, 0.00000000e+00, 0.00000000e+00, -2.65679531e+00, -3.73719081e-01, -2.06713660e+00, 2.80578496e+00, 0.00000000e+00, 5.0000000000, 5.0000000000, 0.1170452184