TITLE = "Visualization of the volumetric solution"
VARIABLES = "x","y","Density","Momentum_x","Momentum_y","Energy","Pressure","Temperature","Mach","C<sub>p</sub>","Roe_Dissipation"
ZONE NODES= 3200, ELEMENTS= 3081, DATAPACKING=POINT, ZONETYPE=FEQUADRILATERAL
-2.000000e+00	1.250000e+00	1.224653e+00	4.312966e+01	1.080693e-07	2.539457e+05	1.012745e+05	2.880827e+02	1.035036e-01	-7.122601e-02	0.000000e+00	
-2.000000e+00	1.218354e+00	1.224653e+00	4.312972e+01	-3.081544e-05	2.539457e+05	1.012745e+05	2.880827e+02	1.035037e-01	-7.123055e-02	0.000000e+00	
-1.948718e+00	1.218354e+00	1.224653e+00	4.312972e+01	-3.477629e-05	2.539455e+05	1.012744e+05	2.880827e+02	1.035038e-01	-7.129619e-02	0.000000e+00	
-1.948718e+00	1.250000e+00	1.224653e+00	4.312963e+01	1.215833e-07	2.539455e+05	1.012744e+05	2.880827e+02	1.035036e-01	-7.129332e-02	0.000000e+00	
-2.000000e+00	1.186709e+00	1.224653e+00	4.312975e+01	-2.833399e-05	2.539457e+05	1.012745e+05	2.880827e+02	1.035038e-01	-7.123230e-02	0.000000e+00	
-1.948718e+00	1.186709e+00	1.224653e+00	4.312979e+01	-3.569246e-05	2.539456e+05	1.012744e+05	2.880827e+02	1.035039e-01	-7.129550e-02	0.000000e+00	
-2.000000e+00	1.155063e+00	1.224653e+00	4.312977e+01	-1.761634e-05	2.539457e+05	1.012745e+05	2.880827e+02	1.035039e-01	-7.123378e-02	0.000000e+00	
-1.948718e+00	1.155063e+00	1.224653e+00	4.312981e+01	-2.862696e-05	2.539456e+05	1.012744e+05	2.880827e+02	1.035040e-01	-7.129652e-02	0.000000e+00	
-2.000000e+00	1.123418e+00	1.224653e+00	4.312978e+01	-7.991238e-06	2.539457e+05	1.012745e+05	2.880827e+02	1.035039e-01	-7.123448e-02	0.000000e+00	
-1.948718e+00	1.123418e+00	1.224653e+00	4.312982e+01	-1.781795e-05	2.539456e+05	1.012744e+05	2.880827e+02	1.035040e-01	-7.129665e-02	0.000000e+00	
-2.000000e+00	1.091772e+00	1.224653e+00	4.312978e+01	-2.790517e-06	2.539457e+05	1.012745e+05	2.880827e+02	1.035039e-01	-7.123489e-02	0.000000e+00	
-1.948718e+00	1.091772e+00	1.224653e+00	4.312982e+01	-1.084867e-05	2.539455e+05	1.012744e+05	2.880827e+02	1.035040e-01	-7.129710e-02	0.000000e+00	
-2.000000e+00	1.060127e+00	1.224653e+00	4.312979e+01	-4.891776e-07	2.539457e+05	1.012745e+05	2.880827e+02	1.035039e-01	-7.123507e-02	0.000000e+00	
-1.948718e+00	1.060127e+00	1.224653e+00	4.312982e+01	-6.244736e-06	2.539455e+05	1.012744e+05	2.880827e+02	1.035040e-01	-7.129727e-02	0.000000e+00	
-2.000000e+00	1.028481e+00	1.224653e+00	4.312979e+01	2.635468e-07	2.539457e+05	1.012745e+05	2.880827e+02	1.035039e-01	-7.123516e-02	0.000000e+00	
-1.948718e+00	1.028481e+00	1.224653e+00	4.312982e+01	-3.761452e-06	2.539455e+05	1.012744e+05	2.880827e+02	1.035040e-01	-7.129749e-02	0.000000e+00	
-2.000000e+00	9.968354e-01	1.224653e+00	4.312979e+01	4.585439e-07	2.539457e+05	1.012745e+05	2.880827e+02	1.035039e-01	-7.123519e-02	0.000000e+00	
-1.948718e+00	9.968354e-01	1.224653e+00	4.312982e+01	-2.146129e-06	2.539455e+05	1.012744e+05	2.880827e+02	1.035040e-01	-7.129760e-02	0.000000e+00	
-2.000000e+00	9.651899e-01	1.224653e+00	4.312979e+01	4.135701e-07	2.539457e+05	1.012745e+05	2.880827e+02	1.035039e-01	-7.123520e-02	0.000000e+00	
-1.948718e+00	9.651899e-01	1.224653e+00	4.312982e+01	-1.219302e-06	2.539455e+05	1.012744e+05	2.880827e+02	1.035040e-01	-7.129771e-02	0.000000e+00	
-2.000000e+00	9.335443e-01	1.224653e+00	4.312979e+01	3.154907e-07	2.539457e+05	1.012745e+05	2.880827e+02	1.035039e-01	-7.123518e-02	0.000000e+00	
-1.948718e+00	9.335443e-01	1.224653e+00	4.312982e+01	-6.094828e-07	2.539455e+05	1.012744e+05	2.880827e+02	1.035040e-01	-7.129777e-02	0.000000e+00	
-2.000000e+00	9.018987e-01	1.224653e+00	4.312979e+01	2.142372e-07	2.539457e+05	1.012745e+05	2.880827e+02	1.035039e-01	-7.123517e-02	0.000000e+00	
-1.948718e+00	9.018987e-01	1.224653e+00	4.312982e+01	-2.508995e-07	2.539455e+05	1.012744e+05	2.880827e+02	1.035040e-01	-7.129782e-02	0.000000e+00	
-2.000000e+00	8.702532e-01	1.224653e+00	4.312979e+01	1.459935e-07	2.539457e+05	1.012745e+05	2.880827e+02	1.035039e-01	-7.123515e-02	0.000000e+00	
-1.948718e+00	8.702532e-01	1.224653e+00	4.312982e+01	1.128230e-10	2.539455e+05	1.012744e+05	2.880827e+02	1.035040e-01	-7.129785e-02	0.000000e+00	
-2.000000e+00	8.386076e-01	1.224653e+00	4.312979e+01	1.027478e-07	2.539457e+05	1.012745e+05	2.880827e+02	1.035039e-01	-7.123513e-02	0.000000e+00	
-1.948718e+00	8.386076e-01	1.224653e+00	4.312982e+01	1.647712e-07	2.539455e+05	1.012744e+05	2.880827e+02	1.035040e-01	-7.129787e-02	0.000000e+00	
-2.000000e+00	8.069620e-01	1.224653e+00	4.312979e+01	7.784669e-08	2.539457e+05	1.012745e+05	2.880827e+02	1.035039e-01	-7.123510e-02	0.000000e+00	
-1.948718e+00	8.069620e-01	1.224653e+00	4.312982e+01	2.828680e-07	2.539455e+05	1.012744e+05	2.880827e+02	1.035040e-01	-7.129787e-02	0.000000e+00	
-2.000000e+00	7.753165e-01	1.224653e+00	4.312979e+01	5.983768e-08	2.539457e+05	1.012745e+05	2.880827e+02	1.035039e-01	-7.123508e-02	0.000000e+00	
-1.948718e+00	7.753165e-01	1.224653e+00	4.312982e+01	3.542112e-07	2.539455e+05	1.012744e+05	2.880827e+02	1.035040e-01	-7.129788e-02	0.000000e+00	
-2.000000e+00	7.436709e-01	1.224653e+00	4.312979e+01	4.619261e-08	2.539457e+05	1.012745e+05	2.880827e+02	1.035039e-01	-7.123506e-02	0.000000e+00	
-1.948718e+00	7.436709e-01	1.224653e+00	4.312982e+01	3.941529e-07	2.539455e+05	1.012744e+05	2.880827e+02	1.035040e-01	-7.129788e-02	0.000000e+00	
-2.000000e+00	7.120253e-01	1.224653e+00	4.312979e+01	3.516282e-08	2.539457e+05	1.012745e+05	2.880827e+02	1.035039e-01	-7.123505e-02	0.000000e+00	
-1.948718e+00	7.120253e-01	1.224653e+00	4.312982e+01	4.074831e-07	2.539455e+05	1.012744e+05	2.880827e+02	1.035040e-01	-7.129787e-02	0.000000e+00	
-2.000000e+00	6.803797e-01	1.224653e+00	4.312979e+01	2.744243e-08	2.539457e+05	1.012745e+05	2.880827e+02	1.035039e-01	-7.123503e-02	0.000000e+00	
-1.948718e+00	6.803797e-01	1.224653e+00	4.312982e+01	4.048666e-07	2.539455e+05	1.012744e+05	2.880827e+02	1.035040e-01	-7.129787e-02	0.000000e+00	
-2.000000e+00	6.487342e-01	1.224653e+00	4.312979e+01	2.249347e-08	2.539457e+05	1.012745e+05	2.880827e+02	1.035039e-01	-7.123502e-02	0.000000e+00	
-1.948718e+00	6.487342e-01	1.224653e+00	4.312982e+01	3.909218e-07	2.539455e+05	1.012744e+05	2.880827e+02	1.035040e-01	-7.129786e-02	0.000000e+00	
-2.000000e+00	6.170886e-01	1.224653e+00	4.312979e+01	1.998548e-08	2.539457e+05	1.012745e+05	2.880827e+02	1.035039e-01	-7.123500e-02	0.000000e+00	
-1.948718e+00	6.170886e-01	1.224653e+00	4.312982e+01	3.709180e-07	2.539455e+05	1.012744e+05	2.880827e+02	1.035040e-01	-7.129786e-02	0.000000e+00	
-2.000000e+00	5.854430e-01	1.224653e+00	4.312979e+01	1.908535e-08	2.539457e+05	1.012745e+05	2.880827e+02	1.035039e-01	-7.123499e-02	0.000000e+00	
-1.948718e+00	5.854430e-01	1.224653e+00	4.312982e+01	3.469673e-07	2.539455e+05	1.012744e+05	2.880827e+02	1.035040e-01	-7.129785e-02	0.000000e+00	
-2.000000e+00	5.537975e-01	1.224653e+00	4.312979e+01	1.929311e-08	2.539457e+05	1.012745e+05	2.880827e+02	1.035039e-01	-7.123498e-02	0.000000e+00	
-1.948718e+00	5.537975e-01	1.224653e+00	4.312982e+01	3.212564e-07	2.539455e+05	1.012744e+05	2.880827e+02	1.035040e-01	-7.129784e-02	0.000000e+00	
-2.000000e+00	5.221519e-01	1.224653e+00	4.312979e+01	2.012292e-08	2.539457e+05	1.012745e+05	2.880827e+02	1.035039e-01	-7.123497e-02	0.000000e+00	
-1.948718e+00	5.221519e-01	1.224653e+00	4.312982e+01	2.947183e-07	2.539455e+05	1.012744e+05	2.880827e+02	1.035040e-01	-7.129783e-02	0.000000e+00	
-2.000000e+00	4.905063e-01	1.224653e+00	4.312979e+01	2.133165e-08	2.539457e+05	1.012745e+05	2.880827e+02	1.035039e-01	-7.123496e-02	0.000000e+00	
-1.948718e+00	4.905063e-01	1.224653e+00	4.312982e+01	2.683277e-07	2.539455e+05	1.012744e+05	2.880827e+02	1.035040e-01	-7.129783e-02	0.000000e+00	
-2.000000e+00	4.588608e-01	1.224653e+00	4.312979e+01	2.271718e-08	2.539457e+05	1.012745e+05	2.880827e+02	1.035039e-01	-7.123495e-02	0.000000e+00	
-1.948718e+00	4.588608e-01	1.224653e+00	4.312982e+01	2.425298e-07	2.539455e+05	1.012744e+05	2.880827e+02	1.035040e-01	-7.129782e-02	0.000000e+00	
-2.000000e+00	4.272152e-01	1.224653e+00	4.312979e+01	2.418271e-08	2.539457e+05	1.012745e+05	2.880827e+02	1.035039e-01	-7.123495e-02	0.000000e+00	
-1.948718e+00	4.272152e-01	1.224653e+00	4.312981e+01	2.177494e-07	2.539455e+05	1.012744e+05	2.880827e+02	1.035040e-01	-7.129781e-02	0.000000e+00	
-2.000000e+00	3.955696e-01	1.224653e+00	4.312979e+01	2.564835e-08	2.539457e+05	1.012745e+05	2.880827e+02	1.035039e-01	-7.123494e-02	0.000000e+00	
-1.948718e+00	3.955696e-01	1.224653e+00	4.312981e+01	1.941607e-07	2.539455e+05	1.012744e+05	2.880827e+02	1.035040e-01	-7.129781e-02	0.000000e+00	
-2.000000e+00	3.639241e-01	1.224653e+00	4.312979e+01	2.707614e-08	2.539457e+05	1.012745e+05	2.880827e+02	1.035039e-01	-7.123494e-02	0.000000e+00	
-1.948718e+00	3.639241e-01	1.224653e+00	4.312981e+01	1.719023e-07	2.539455e+05	1.012744e+05	2.880827e+02	1.035040e-01	-7.129780e-02	0.000000e+00	
-2.000000e+00	3.322785e-01	1.224653e+00	4.312979e+01	2.843533e-08	2.539457e+05	1.012745e+05	2.880827e+02	1.035039e-01	-7.123493e-02	0.000000e+00	
-1.948718e+00	3.322785e-01	1.224653e+00	4.312981e+01	1.509910e-07	2.539455e+05	1.012744e+05	2.880827e+02	1.035040e-01	-7.129780e-02	0.000000e+00	
-2.000000e+00	3.006329e-01	1.224653e+00	4.312979e+01	2.971349e-08	2.539457e+05	1.012745e+05	2.880827e+02	1.035039e-01	-7.123493e-02	0.000000e+00	
-1.948718e+00	3.006329e-01	1.224653e+00	4.312981e+01	1.314166e-07	2.539455e+05	1.012744e+05	2.880827e+02	1.035040e-01	-7.129780e-02	0.000000e+00	
-2.000000e+00	2.689873e-01	1.224653e+00	4.312979e+01	3.090282e-08	2.539457e+05	1.012745e+05	2.880827e+02	1.035039e-01	-7.123492e-02	0.000000e+00	
-1.948718e+00	2.689873e-01	1.224653e+00	4.312981e+01	1.131113e-07	2.539455e+05	1.012744e+05	2.880827e+02	1.035040e-01	-7.129779e-02	0.000000e+00	
-2.000000e+00	2.373418e-01	1.224653e+00	4.312979e+01	3.200431e-08	2.539457e+05	1.012745e+05	2.880827e+02	1.035039e-01	-7.123492e-02	0.000000e+00	
-1.948718e+00	2.373418e-01	1.224653e+00	4.312981e+01	9.599227e-08	2.539455e+05	1.012744e+05	2.880827e+02	1.035040e-01	-7.129779e-02	0.000000e+00	
-2.000000e+00	2.056962e-01	1.224653e+00	4.312979e+01	3.302214e-08	2.539457e+05	1.012745e+05	2.880827e+02	1.035039e-01	-7.123492e-02	0.000000e+00	
-1.948718e+00	2.056962e-01	1.224653e+00	4.312981e+01	7.995164e-08	2.539455e+05	1.012744e+05	2.880827e+02	1.035040e-01	-7.129779e-02	0.000000e+00	
-2.000000e+00	1.740506e-01	1.224653e+00	4.312979e+01	3.396423e-08	2.539457e+05	1.012745e+05	2.880827e+02	1.035039e-01	-7.123492e-02	0.000000e+00	
-1.948718e+00	1.740506e-01	1.224653e+00	4.312981e+01	6.487490e-08	2.539455e+05	1.012744e+05	2.880827e+02	1.035040e-01	-7.129779e-02	0.000000e+00	
-2.000000e+00	1.424051e-01	1.224653e+00	4.312979e+01	3.484036e-08	2.539457e+05	1.012745e+05	2.880827e+02	1.035039e-01	-7.123492e-02	0.000000e+00	
-1.948718e+00	1.424051e-01	1.224653e+00	4.312981e+01	5.063716e-08	2.539455e+05	1.012744e+05	2.880827e+02	1.035040e-01	-7.129779e-02	0.000000e+00	
-2.000000e+00	1.107595e-01	1.224653e+00	4.312979e+01	3.566159e-08	2.539457e+05	1.012745e+05	2.880827e+02	1.035039e-01	-7.123492e-02	0.000000e+00	
-1.948718e+00	1.107595e-01	1.224653e+00	4.312981e+01	3.711084e-08	2.539455e+05	1.012744e+05	2.880827e+02	1.035040e-01	-7.129778e-02	0.000000e+00	
-2.000000e+00	7.911392e-02	1.224653e+00	4.312979e+01	3.643998e-08	2.539457e+05	1.012745e+05	2.880827e+02	1.035039e-01	-7.123492e-02	0.000000e+00	
-1.948718e+00	7.911392e-02	1.224653e+00	4.312981e+01	2.416481e-08	2.539455e+05	1.012744e+05	2.880827e+02	1.035040e-01	-7.129778e-02	0.000000e+00	
-2.000000e+00	4.746835e-02	1.224653e+00	4.312979e+01	3.718815e-08	2.539457e+05	1.012745e+05	2.880827e+02	1.035039e-01	-7.123492e-02	0.000000e+00	
-1.948718e+00	4.746835e-02	1.224653e+00	4.312981e+01	1.166658e-08	2.539455e+05	1.012744e+05	2.880827e+02	1.035040e-01	-7.129778e-02	0.000000e+00	
-2.000000e+00	1.582278e-02	1.224653e+00	4.312979e+01	3.791882e-08	2.539457e+05	1.012745e+05	2.880827e+02	1.035039e-01	-7.123492e-02	0.000000e+00	
-1.948718e+00	1.582278e-02	1.224653e+00	4.312981e+01	-5.179087e-10	2.539455e+05	1.012744e+05	2.880827e+02	1.035040e-01	-7.129778e-02	0.000000e+00	
-2.000000e+00	-1.582278e-02	1.224653e+00	4.312979e+01	3.864485e-08	2.539457e+05	1.012745e+05	2.880827e+02	1.035039e-01	-7.123492e-02	0.000000e+00	
-1.948718e+00	-1.582278e-02	1.224653e+00	4.312981e+01	-1.252353e-08	2.539455e+05	1.012744e+05	2.880827e+02	1.035040e-01	-7.129779e-02	0.000000e+00	
-2.000000e+00	-4.746835e-02	1.224653e+00	4.312979e+01	3.937914e-08	2.539457e+05	1.012745e+05	2.880827e+02	1.035039e-01	-7.123492e-02	0.000000e+00	
-1.948718e+00	-4.746835e-02	1.224653e+00	4.312981e+01	-2.448646e-08	2.539455e+05	1.012744e+05	2.880827e+02	1.035040e-01	-7.129779e-02	0.000000e+00	
-2.000000e+00	-7.911392e-02	1.224653e+00	4.312979e+01	4.013480e-08	2.539457e+05	1.012745e+05	2.880827e+02	1.035039e-01	-7.123492e-02	0.000000e+00	
-1.948718e+00	-7.911392e-02	1.224653e+00	4.312981e+01	-3.654333e-08	2.539455e+05	1.012744e+05	2.880827e+02	1.035040e-01	-7.129779e-02	0.000000e+00	
-2.000000e+00	-1.107595e-01	1.224653e+00	4.312979e+01	4.092480e-08	2.539457e+05	1.012745e+05	2.880827e+02	1.035039e-01	-7.123492e-02	0.000000e+00	
-1.948718e+00	-1.107595e-01	1.224653e+00	4.312981e+01	-4.883225e-08	2.539455e+05	1.012744e+05	2.880827e+02	1.035040e-01	-7.129779e-02	0.000000e+00	
-2.000000e+00	-1.424051e-01	1.224653e+00	4.312979e+01	4.176210e-08	2.539457e+05	1.012745e+05	2.880827e+02	1.035039e-01	-7.123493e-02	0.000000e+00	
-1.948718e+00	-1.424051e-01	1.224653e+00	4.312981e+01	-6.149161e-08	2.539455e+05	1.012744e+05	2.880827e+02	1.035040e-01	-7.129779e-02	0.000000e+00	
-2.000000e+00	-1.740506e-01	1.224653e+00	4.312979e+01	4.265932e-08	2.539457e+05	1.012745e+05	2.880827e+02	1.035039e-01	-7.123493e-02	0.000000e+00	
-1.948718e+00	-1.740506e-01	1.224653e+00	4.312981e+01	-7.466068e-08	2.539455e+05	1.012744e+05	2.880827e+02	1.035040e-01	-7.129780e-02	0.000000e+00	
-2.000000e+00	-2.056962e-01	1.224653e+00	4.312979e+01	4.362814e-08	2.539457e+05	1.012745e+05	2.880827e+02	1.035039e-01	-7.123493e-02	0.000000e+00	
-1.948718e+00	-2.056962e-01	1.224653e+00	4.312981e+01	-8.847715e-08	2.539455e+05	1.012744e+05	2.880827e+02	1.035040e-01	-7.129780e-02	0.000000e+00	
-2.000000e+00	-2.373418e-01	1.224653e+00	4.312979e+01	4.467935e-08	2.539457e+05	1.012745e+05	2.880827e+02	1.035039e-01	-7.123493e-02	0.000000e+00	
-1.948718e+00	-2.373418e-01	1.224653e+00	4.312981e+01	-1.030783e-07	2.539455e+05	1.012744e+05	2.880827e+02	1.035040e-01	-7.129780e-02	0.000000e+00	
-2.000000e+00	-2.689873e-01	1.224653e+00	4.312979e+01	4.582249e-08	2.539457e+05	1.012745e+05	2.880827e+02	1.035039e-01	-7.123494e-02	0.000000e+00	
-1.948718e+00	-2.689873e-01	1.224653e+00	4.312981e+01	-1.185929e-07	2.539455e+05	1.012744e+05	2.880827e+02	1.035040e-01	-7.129781e-02	0.000000e+00	
-2.000000e+00	-3.006329e-01	1.224653e+00	4.312979e+01	4.706230e-08	2.539457e+05	1.012745e+05	2.880827e+02	1.035039e-01	-7.123494e-02	0.000000e+00	
-1.948718e+00	-3.006329e-01	1.224653e+00	4.312981e+01	-1.351470e-07	2.539455e+05	1.012744e+05	2.880827e+02	1.035040e-01	-7.129781e-02	0.000000e+00	
-2.000000e+00	-3.322785e-01	1.224653e+00	4.312979e+01	4.840105e-08	2.539457e+05	1.012745e+05	2.880827e+02	1.035039e-01	-7.123495e-02	0.000000e+00	
-1.948718e+00	-3.322785e-01	1.224653e+00	4.312981e+01	-1.528430e-07	2.539455e+05	1.012744e+05	2.880827e+02	1.035040e-01	-7.129782e-02	0.000000e+00	
-2.000000e+00	-3.639241e-01	1.224653e+00	4.312979e+01	4.983241e-08	2.539457e+05	1.012745e+05	2.880827e+02	1.035039e-01	-7.123495e-02	0.000000e+00	
-1.948718e+00	-3.639241e-01	1.224653e+00	4.312982e+01	-1.717722e-07	2.539455e+05	1.012744e+05	2.880827e+02	1.035040e-01	-7.129782e-02	0.000000e+00	
-2.000000e+00	-3.955696e-01	1.224653e+00	4.312979e+01	5.134643e-08	2.539457e+05	1.012745e+05	2.880827e+02	1.035039e-01	-7.123496e-02	0.000000e+00	
-1.948718e+00	-3.955696e-01	1.224653e+00	4.312982e+01	-1.919701e-07	2.539455e+05	1.012744e+05	2.880827e+02	1.035040e-01	-7.129783e-02	0.000000e+00	
-2.000000e+00	-4.272152e-01	1.224653e+00	4.312979e+01	5.291401e-08	2.539457e+05	1.012745e+05	2.880827e+02	1.035039e-01	-7.123497e-02	0.000000e+00	
-1.948718e+00	-4.272152e-01	1.224653e+00	4.312982e+01	-2.134510e-07	2.539455e+05	1.012744e+05	2.880827e+02	1.035040e-01	-7.129784e-02	0.000000e+00	
-2.000000e+00	-4.588608e-01	1.224653e+00	4.312979e+01	5.450050e-08	2.539457e+05	1.012745e+05	2.880827e+02	1.035039e-01	-7.123497e-02	0.000000e+00	
-1.948718e+00	-4.588608e-01	1.224653e+00	4.312982e+01	-2.361071e-07	2.539455e+05	1.012744e+05	2.880827e+02	1.035040e-01	-7.129784e-02	0.000000e+00	
-2.000000e+00	-4.905063e-01	1.224653e+00	4.312979e+01	5.602773e-08	2.539457e+05	1.012745e+05	2.880827e+02	1.035039e-01	-7.123498e-02	0.000000e+00	
-1.948718e+00	-4.905063e-01	1.224653e+00	4.312982e+01	-2.598061e-07	2.539455e+05	1.012744e+05	2.880827e+02	1.035040e-01	-7.129785e-02	0.000000e+00	
-2.000000e+00	-5.221519e-01	1.224653e+00	4.312979e+01	5.740336e-08	2.539457e+05	1.012745e+05	2.880827e+02	1.035039e-01	-7.123499e-02	0.000000e+00	
-1.948718e+00	-5.221519e-01	1.224653e+00	4.312982e+01	-2.841591e-07	2.539455e+05	1.012744e+05	2.880827e+02	1.035040e-01	-7.129786e-02	0.000000e+00	
-2.000000e+00	-5.537975e-01	1.224653e+00	4.312979e+01	5.842665e-08	2.539457e+05	1.012745e+05	2.880827e+02	1.035039e-01	-7.123500e-02	0.000000e+00	
-1.948718e+00	-5.537975e-01	1.224653e+00	4.312982e+01	-3.087793e-07	2.539455e+05	1.012744e+05	2.880827e+02	1.035040e-01	-7.129787e-02	0.000000e+00	
-2.000000e+00	-5.854430e-01	1.224653e+00	4.312979e+01	5.886211e-08	2.539457e+05	1.012745e+05	2.880827e+02	1.035039e-01	-7.123501e-02	0.000000e+00	
-1.948718e+00	-5.854430e-01	1.224653e+00	4.312982e+01	-3.327282e-07	2.539455e+05	1.012744e+05	2.880827e+02	1.035040e-01	-7.129788e-02	0.000000e+00	
-2.000000e+00	-6.170886e-01	1.224653e+00	4.312979e+01	5.822307e-08	2.539457e+05	1.012745e+05	2.880827e+02	1.035039e-01	-7.123503e-02	0.000000e+00	
-1.948718e+00	-6.170886e-01	1.224653e+00	4.312982e+01	-3.551590e-07	2.539455e+05	1.012744e+05	2.880827e+02	1.035040e-01	-7.129788e-02	0.000000e+00	
-2.000000e+00	-6.487342e-01	1.224653e+00	4.312979e+01	5.602497e-08	2.539457e+05	1.012745e+05	2.880827e+02	1.035039e-01	-7.123504e-02	0.000000e+00	
-1.948718e+00	-6.487342e-01	1.224653e+00	4.312982e+01	-3.739102e-07	2.539455e+05	1.012744e+05	2.880827e+02	1.035040e-01	-7.129789e-02	0.000000e+00	
-2.000000e+00	-6.803797e-01	1.224653e+00	4.312979e+01	5.142578e-08	2.539457e+05	1.012745e+05	2.880827e+02	1.035039e-01	-7.123506e-02	0.000000e+00	
-1.948718e+00	-6.803797e-01	1.224653e+00	4.312982e+01	-3.870105e-07	2.539455e+05	1.012744e+05	2.880827e+02	1.035040e-01	-7.129790e-02	0.000000e+00	
-2.000000e+00	-7.120253e-01	1.224653e+00	4.312979e+01	4.412267e-08	2.539457e+05	1.012745e+05	2.880827e+02	1.035039e-01	-7.123507e-02	0.000000e+00	
-1.948718e+00	-7.120253e-01	1.224653e+00	4.312982e+01	-3.891751e-07	2.539455e+05	1.012744e+05	2.880827e+02	1.035040e-01	-7.129791e-02	0.000000e+00	
-2.000000e+00	-7.436709e-01	1.224653e+00	4.312979e+01	3.354285e-08	2.539457e+05	1.012745e+05	2.880827e+02	1.035039e-01	-7.123509e-02	0.000000e+00	
-1.948718e+00	-7.436709e-01	1.224653e+00	4.312982e+01	-3.760420e-07	2.539455e+05	1.012744e+05	2.880827e+02	1.035040e-01	-7.129791e-02	0.000000e+00	
-2.000000e+00	-7.753165e-01	1.224653e+00	4.312979e+01	2.043721e-08	2.539457e+05	1.012745e+05	2.880827e+02	1.035039e-01	-7.123511e-02	0.000000e+00	
-1.948718e+00	-7.753165e-01	1.224653e+00	4.312982e+01	-3.368017e-07	2.539455e+05	1.012744e+05	2.880827e+02	1.035040e-01	-7.129791e-02	0.000000e+00	
-2.000000e+00	-8.069620e-01	1.224653e+00	4.312979e+01	2.972492e-09	2.539457e+05	1.012745e+05	2.880827e+02	1.035039e-01	-7.123513e-02	0.000000e+00	
-1.948718e+00	-8.069620e-01	1.224653e+00	4.312982e+01	-2.671514e-07	2.539455e+05	1.012744e+05	2.880827e+02	1.035040e-01	-7.129791e-02	0.000000e+00	
-2.000000e+00	-8.386076e-01	1.224653e+00	4.312979e+01	-2.121099e-08	2.539457e+05	1.012745e+05	2.880827e+02	1.035039e-01	-7.123516e-02	0.000000e+00	
-1.948718e+00	-8.386076e-01	1.224653e+00	4.312982e+01	-1.511964e-07	2.539455e+05	1.012744e+05	2.880827e+02	1.035040e-01	-7.129790e-02	0.000000e+00	
-2.000000e+00	-8.702532e-01	1.224653e+00	4.312979e+01	-6.370802e-08	2.539457e+05	1.012745e+05	2.880827e+02	1.035039e-01	-7.123518e-02	0.000000e+00	
-1.948718e+00	-8.702532e-01	1.224653e+00	4.312982e+01	9.911286e-09	2.539455e+05	1.012744e+05	2.880827e+02	1.035040e-01	-7.129788e-02	0.000000e+00	
-2.000000e+00	-9.018987e-01	1.224653e+00	4.312979e+01	-1.307133e-07	2.539457e+05	1.012745e+05	2.880827e+02	1.035039e-01	-7.123520e-02	0.000000e+00	
-1.948718e+00	-9.018987e-01	1.224653e+00	4.312982e+01	2.574848e-07	2.539455e+05	1.012744e+05	2.880827e+02	1.035040e-01	-7.129786e-02	0.000000e+00	
-2.000000e+00	-9.335443e-01	1.224653e+00	4.312979e+01	-2.306428e-07	2.539457e+05	1.012745e+05	2.880827e+02	1.035039e-01	-7.123522e-02	0.000000e+00	
-1.948718e+00	-9.335443e-01	1.224653e+00	4.312982e+01	6.105118e-07	2.539455e+05	1.012744e+05	2.880827e+02	1.035040e-01	-7.129781e-02	0.000000e+00	
-2.000000e+00	-9.651899e-01	1.224653e+00	4.312979e+01	-3.264769e-07	2.539457e+05	1.012745e+05	2.880827e+02	1.035039e-01	-7.123523e-02	0.000000e+00	
-1.948718e+00	-9.651899e-01	1.224653e+00	4.312982e+01	1.216245e-06	2.539455e+05	1.012744e+05	2.880827e+02	1.035040e-01	-7.129775e-02	0.000000e+00	
-2.000000e+00	-9.968354e-01	1.224653e+00	4.312979e+01	-3.695553e-07	2.539457e+05	1.012745e+05	2.880827e+02	1.035039e-01	-7.123523e-02	0.000000e+00	
-1.948718e+00	-9.968354e-01	1.224653e+00	4.312982e+01	2.135270e-06	2.539455e+05	1.012744e+05	2.880827e+02	1.035040e-01	-7.129764e-02	0.000000e+00	
-2.000000e+00	-1.028481e+00	1.224653e+00	4.312979e+01	-1.710338e-07	2.539457e+05	1.012745e+05	2.880827e+02	1.035039e-01	-7.123520e-02	0.000000e+00	
-1.948718e+00	-1.028481e+00	1.224653e+00	4.312982e+01	3.748209e-06	2.539455e+05	1.012744e+05	2.880827e+02	1.035040e-01	-7.129753e-02	0.000000e+00	
-2.000000e+00	-1.060127e+00	1.224653e+00	4.312979e+01	5.852645e-07	2.539457e+05	1.012745e+05	2.880827e+02	1.035039e-01	-7.123511e-02	0.000000e+00	
-1.948718e+00	-1.060127e+00	1.224653e+00	4.312982e+01	6.224869e-06	2.539455e+05	1.012744e+05	2.880827e+02	1.035040e-01	-7.129731e-02	0.000000e+00	
-2.000000e+00	-1.091772e+00	1.224653e+00	4.312978e+01	2.896944e-06	2.539457e+05	1.012745e+05	2.880827e+02	1.035039e-01	-7.123494e-02	0.000000e+00	
-1.948718e+00	-1.091772e+00	1.224653e+00	4.312982e+01	1.084133e-05	2.539455e+05	1.012744e+05	2.880827e+02	1.035040e-01	-7.129714e-02	0.000000e+00	
-2.000000e+00	-1.123418e+00	1.224653e+00	4.312978e+01	8.115000e-06	2.539457e+05	1.012745e+05	2.880827e+02	1.035039e-01	-7.123453e-02	0.000000e+00	
-1.948718e+00	-1.123418e+00	1.224653e+00	4.312982e+01	1.782346e-05	2.539456e+05	1.012744e+05	2.880827e+02	1.035040e-01	-7.129669e-02	0.000000e+00	
-2.000000e+00	-1.155063e+00	1.224653e+00	4.312977e+01	1.777569e-05	2.539457e+05	1.012745e+05	2.880827e+02	1.035039e-01	-7.123383e-02	0.000000e+00	
-1.948718e+00	-1.155063e+00	1.224653e+00	4.312982e+01	2.868960e-05	2.539456e+05	1.012744e+05	2.880827e+02	1.035040e-01	-7.129657e-02	0.000000e+00	
-2.000000e+00	-1.186709e+00	1.224653e+00	4.312976e+01	2.852642e-05	2.539457e+05	1.012745e+05	2.880827e+02	1.035038e-01	-7.123235e-02	0.000000e+00	
-1.948718e+00	-1.186709e+00	1.224653e+00	4.312979e+01	3.580367e-05	2.539456e+05	1.012744e+05	2.880827e+02	1.035040e-01	-7.129555e-02	0.000000e+00	
-2.000000e+00	-1.218354e+00	1.224653e+00	4.312972e+01	3.108509e-05	2.539457e+05	1.012745e+05	2.880827e+02	1.035037e-01	-7.123062e-02	0.000000e+00	
-1.948718e+00	-1.218354e+00	1.224653e+00	4.312972e+01	3.496002e-05	2.539455e+05	1.012744e+05	2.880827e+02	1.035038e-01	-7.129623e-02	0.000000e+00	
-1.897436e+00	1.218354e+00	1.224652e+00	4.312969e+01	-3.014294e-05	2.539455e+05	1.012744e+05	2.880827e+02	1.035037e-01	-7.134515e-02	0.000000e+00	
-1.897436e+00	1.250000e+00	1.224653e+00	4.312958e+01	-1.252047e-07	2.539455e+05	1.012744e+05	2.880827e+02	1.035035e-01	-7.134373e-02	0.000000e+00	
-1.897436e+00	1.186709e+00	1.224653e+00	4.312979e+01	-3.534930e-05	2.539455e+05	1.012744e+05	2.880827e+02	1.035040e-01	-7.134462e-02	0.000000e+00	
-1.897436e+00	1.155063e+00	1.224652e+00	4.312983e+01	-3.159665e-05	2.539455e+05	1.012744e+05	2.880827e+02	1.035041e-01	-7.134548e-02	0.000000e+00	
-1.897436e+00	1.123418e+00	1.224652e+00	4.312983e+01	-2.184819e-05	2.539455e+05	1.012744e+05	2.880827e+02	1.035041e-01	-7.134544e-02	0.000000e+00	
-1.897436e+00	1.091772e+00	1.224652e+00	4.312983e+01	-1.473936e-05	2.539455e+05	1.012744e+05	2.880827e+02	1.035041e-01	-7.134585e-02	0.000000e+00	
-1.897436e+00	1.060127e+00	1.224652e+00	4.312983e+01	-9.173944e-06	2.539455e+05	1.012744e+05	2.880827e+02	1.035041e-01	-7.134592e-02	0.000000e+00	
-1.897436e+00	1.028481e+00	1.224652e+00	4.312982e+01	-5.782462e-06	2.539455e+05	1.012744e+05	2.880827e+02	1.035041e-01	-7.134612e-02	0.000000e+00	
-1.897436e+00	9.968354e-01	1.224652e+00	4.312982e+01	-3.295324e-06	2.539455e+05	1.012744e+05	2.880827e+02	1.035041e-01	-7.134619e-02	0.000000e+00	
-1.897436e+00	9.651899e-01	1.224652e+00	4.312982e+01	-1.752756e-06	2.539455e+05	1.012744e+05	2.880827e+02	1.035041e-01	-7.134628e-02	0.000000e+00	
-1.897436e+00	9.335443e-01	1.224652e+00	4.312982e+01	-7.012521e-07	2.539455e+05	1.012744e+05	2.880827e+02	1.035041e-01	-7.134633e-02	0.000000e+00	
-1.897436e+00	9.018987e-01	1.224652e+00	4.312982e+01	-9.159668e-08	2.539455e+05	1.012744e+05	2.880827e+02	1.035041e-01	-7.134637e-02	0.000000e+00	
-1.897436e+00	8.702532e-01	1.224652e+00	4.312982e+01	3.081336e-07	2.539455e+05	1.012744e+05	2.880827e+02	1.035041e-01	-7.134639e-02	0.000000e+00	
-1.897436e+00	8.386076e-01	1.224652e+00	4.312982e+01	5.458748e-07	2.539455e+05	1.012744e+05	2.880827e+02	1.035041e-01	-7.134641e-02	0.000000e+00	
-1.897436e+00	8.069620e-01	1.224652e+00	4.312982e+01	7.039708e-07	2.539455e+05	1.012744e+05	2.880827e+02	1.035041e-01	-7.134642e-02	0.000000e+00	
-1.897436e+00	7.753165e-01	1.224652e+00	4.312982e+01	7.887008e-07	2.539455e+05	1.012744e+05	2.880827e+02	1.035041e-01	-7.134643e-02	0.000000e+00	
-1.897436e+00	7.436709e-01	1.224652e+00	4.312982e+01	8.269522e-07	2.539455e+05	1.012744e+05	2.880827e+02	1.035041e-01	-7.134643e-02	0.000000e+00	
-1.897436e+00	7.120253e-01	1.224652e+00	4.312982e+01	8.243269e-07	2.539455e+05	1.012744e+05	2.880827e+02	1.035041e-01	-7.134643e-02	0.000000e+00	
-1.897436e+00	6.803797e-01	1.224652e+00	4.312982e+01	7.970803e-07	2.539455e+05	1.012744e+05	2.880827e+02	1.035041e-01	-7.134642e-02	0.000000e+00	
-1.897436e+00	6.487342e-01	1.224652e+00	4.312982e+01	7.519609e-07	2.539455e+05	1.012744e+05	2.880827e+02	1.035041e-01	-7.134642e-02	0.000000e+00	
-1.897436e+00	6.170886e-01	1.224652e+00	4.312982e+01	6.978492e-07	2.539455e+05	1.012744e+05	2.880827e+02	1.035040e-01	-7.134642e-02	0.000000e+00	
-1.897436e+00	5.854430e-01	1.224652e+00	4.312982e+01	6.384061e-07	2.539455e+05	1.012744e+05	2.880827e+02	1.035040e-01	-7.134641e-02	0.000000e+00	
-1.897436e+00	5.537975e-01	1.224652e+00	4.312982e+01	5.775093e-07	2.539455e+05	1.012744e+05	2.880827e+02	1.035040e-01	-7.134640e-02	0.000000e+00	
-1.897436e+00	5.221519e-01	1.224652e+00	4.312982e+01	5.167386e-07	2.539455e+05	1.012744e+05	2.880827e+02	1.035040e-01	-7.134640e-02	0.000000e+00	
-1.897436e+00	4.905063e-01	1.224652e+00	4.312982e+01	4.577047e-07	2.539455e+05	1.012744e+05	2.880827e+02	1.035040e-01	-7.134639e-02	0.000000e+00	
-1.897436e+00	4.588608e-01	1.224652e+00	4.312982e+01	4.010435e-07	2.539455e+05	1.012744e+05	2.880827e+02	1.035040e-01	-7.134639e-02	0.000000e+00	
-1.897436e+00	4.272152e-01	1.224652e+00	4.312982e+01	3.473592e-07	2.539455e+05	1.012744e+05	2.880827e+02	1.035040e-01	-7.134638e-02	0.000000e+00	
-1.897436e+00	3.955696e-01	1.224652e+00	4.312982e+01	2.968179e-07	2.539455e+05	1.012744e+05	2.880827e+02	1.035040e-01	-7.134638e-02	0.000000e+00	
-1.897436e+00	3.639241e-01	1.224652e+00	4.312982e+01	2.495415e-07	2.539455e+05	1.012744e+05	2.880827e+02	1.035040e-01	-7.134637e-02	0.000000e+00	
-1.897436e+00	3.322785e-01	1.224652e+00	4.312982e+01	2.054487e-07	2.539455e+05	1.012744e+05	2.880827e+02	1.035040e-01	-7.134637e-02	0.000000e+00	
-1.897436e+00	3.006329e-01	1.224652e+00	4.312982e+01	1.644244e-07	2.539455e+05	1.012744e+05	2.880827e+02	1.035040e-01	-7.134636e-02	0.000000e+00	
-1.897436e+00	2.689873e-01	1.224652e+00	4.312982e+01	1.262606e-07	2.539455e+05	1.012744e+05	2.880827e+02	1.035040e-01	-7.134636e-02	0.000000e+00	
-1.897436e+00	2.373418e-01	1.224652e+00	4.312982e+01	9.073142e-08	2.539455e+05	1.012744e+05	2.880827e+02	1.035040e-01	-7.134636e-02	0.000000e+00	
-1.897436e+00	2.056962e-01	1.224652e+00	4.312982e+01	5.757195e-08	2.539455e+05	1.012744e+05	2.880827e+02	1.035040e-01	-7.134636e-02	0.000000e+00	
-1.897436e+00	1.740506e-01	1.224652e+00	4.312982e+01	2.651156e-08	2.539455e+05	1.012744e+05	2.880827e+02	1.035040e-01	-7.134636e-02	0.000000e+00	
-1.897436e+00	1.424051e-01	1.224652e+00	4.312982e+01	-2.734533e-09	2.539455e+05	1.012744e+05	2.880827e+02	1.035040e-01	-7.134635e-02	0.000000e+00	
-1.897436e+00	1.107595e-01	1.224652e+00	4.312982e+01	-3.045169e-08	2.539455e+05	1.012744e+05	2.880827e+02	1.035040e-01	-7.134635e-02	0.000000e+00	
-1.897436e+00	7.911392e-02	1.224652e+00	4.312982e+01	-5.692915e-08	2.539455e+05	1.012744e+05	2.880827e+02	1.035040e-01	-7.134635e-02	0.000000e+00	
-1.897436e+00	4.746835e-02	1.224652e+00	4.312982e+01	-8.245551e-08	2.539455e+05	1.012744e+05	2.880827e+02	1.035040e-01	-7.134635e-02	0.000000e+00	
-1.897436e+00	1.582278e-02	1.224652e+00	4.312982e+01	-1.073213e-07	2.539455e+05	1.012744e+05	2.880827e+02	1.035040e-01	-7.134635e-02	0.000000e+00	
-1.897436e+00	-1.582278e-02	1.224652e+00	4.312982e+01	-1.318172e-07	2.539455e+05	1.012744e+05	2.880827e+02	1.035040e-01	-7.134635e-02	0.000000e+00	
-1.897436e+00	-4.746835e-02	1.224652e+00	4.312982e+01	-1.562361e-07	2.539455e+05	1.012744e+05	2.880827e+02	1.035040e-01	-7.134636e-02	0.000000e+00	
-1.897436e+00	-7.911392e-02	1.224652e+00	4.312982e+01	-1.808726e-07	2.539455e+05	1.012744e+05	2.880827e+02	1.035040e-01	-7.134636e-02	0.000000e+00	
-1.897436e+00	-1.107595e-01	1.224652e+00	4.312982e+01	-2.060253e-07	2.539455e+05	1.012744e+05	2.880827e+02	1.035040e-01	-7.134636e-02	0.000000e+00	