TITLE = "Visualization of the volumetric solution"
VARIABLES = "x","y","Density","Momentum_x","Momentum_y","Energy","Pressure","Temperature","Mach","C<sub>p</sub>","Roe_Dissipation"
ZONE NODES= 2400, ELEMENTS= 2291, DATAPACKING=POINT, ZONETYPE=FEQUADRILATERAL
0.000000e+00	1.250000e+00	1.224676e+00	4.315603e+01	-1.057835e+00	2.539658e+05	1.012820e+05	2.880987e+02	1.035932e-01	-6.065063e-02	0.000000e+00	
0.000000e+00	1.218354e+00	1.224679e+00	4.315621e+01	-1.054328e+00	2.539663e+05	1.012822e+05	2.880987e+02	1.035932e-01	-6.037948e-02	0.000000e+00	
3.448276e-02	1.218354e+00	1.225619e+00	4.311647e+01	-5.606624e+00	2.542321e+05	1.013844e+05	2.881681e+02	1.042454e-01	8.368248e-02	0.000000e+00	
3.448276e-02	1.250000e+00	1.225619e+00	4.311557e+01	-5.605993e+00	2.542322e+05	1.013844e+05	2.881681e+02	1.042430e-01	8.376257e-02	0.000000e+00	
0.000000e+00	1.186709e+00	1.224677e+00	4.315631e+01	-1.052846e+00	2.539659e+05	1.012820e+05	2.880986e+02	1.035935e-01	-6.058266e-02	0.000000e+00	
3.448276e-02	1.186709e+00	1.225620e+00	4.311627e+01	-5.606461e+00	2.542323e+05	1.013844e+05	2.881681e+02	1.042448e-01	8.379758e-02	0.000000e+00	
0.000000e+00	1.155063e+00	1.224677e+00	4.315660e+01	-1.052031e+00	2.539658e+05	1.012820e+05	2.880986e+02	1.035942e-01	-6.064864e-02	0.000000e+00	
3.448276e-02	1.155063e+00	1.225620e+00	4.311613e+01	-5.606432e+00	2.542324e+05	1.013845e+05	2.881681e+02	1.042445e-01	8.383809e-02	0.000000e+00	
0.000000e+00	1.123418e+00	1.224677e+00	4.315673e+01	-1.051620e+00	2.539658e+05	1.012820e+05	2.880986e+02	1.035945e-01	-6.066832e-02	0.000000e+00	
3.448276e-02	1.123418e+00	1.225620e+00	4.311602e+01	-5.606416e+00	2.542324e+05	1.013845e+05	2.881681e+02	1.042442e-01	8.387316e-02	0.000000e+00	
0.000000e+00	1.091772e+00	1.224676e+00	4.315675e+01	-1.051419e+00	2.539658e+05	1.012820e+05	2.880986e+02	1.035945e-01	-6.068101e-02	0.000000e+00	
3.448276e-02	1.091772e+00	1.225621e+00	4.311594e+01	-5.606437e+00	2.542325e+05	1.013845e+05	2.881681e+02	1.042440e-01	8.388737e-02	0.000000e+00	
0.000000e+00	1.060127e+00	1.224676e+00	4.315671e+01	-1.051296e+00	2.539657e+05	1.012820e+05	2.880986e+02	1.035944e-01	-6.068572e-02	0.000000e+00	
3.448276e-02	1.060127e+00	1.225621e+00	4.311586e+01	-5.606439e+00	2.542325e+05	1.013845e+05	2.881681e+02	1.042438e-01	8.389977e-02	0.000000e+00	
0.000000e+00	1.028481e+00	1.224676e+00	4.315667e+01	-1.051219e+00	2.539657e+05	1.012820e+05	2.880986e+02	1.035943e-01	-6.068923e-02	0.000000e+00	
3.448276e-02	1.028481e+00	1.225621e+00	4.311581e+01	-5.606441e+00	2.542325e+05	1.013845e+05	2.881681e+02	1.042436e-01	8.390564e-02	0.000000e+00	
0.000000e+00	9.968354e-01	1.224676e+00	4.315665e+01	-1.051168e+00	2.539657e+05	1.012820e+05	2.880986e+02	1.035943e-01	-6.069090e-02	0.000000e+00	
3.448276e-02	9.968354e-01	1.225621e+00	4.311577e+01	-5.606436e+00	2.542325e+05	1.013845e+05	2.881681e+02	1.042436e-01	8.391032e-02	0.000000e+00	
0.000000e+00	9.651899e-01	1.224676e+00	4.315664e+01	-1.051135e+00	2.539657e+05	1.012820e+05	2.880986e+02	1.035942e-01	-6.069209e-02	0.000000e+00	
3.448276e-02	9.651899e-01	1.225621e+00	4.311575e+01	-5.606432e+00	2.542325e+05	1.013845e+05	2.881681e+02	1.042435e-01	8.391290e-02	0.000000e+00	
0.000000e+00	9.335443e-01	1.224676e+00	4.315663e+01	-1.051113e+00	2.539657e+05	1.012820e+05	2.880986e+02	1.035942e-01	-6.069263e-02	0.000000e+00	
3.448276e-02	9.335443e-01	1.225621e+00	4.311574e+01	-5.606428e+00	2.542325e+05	1.013845e+05	2.881681e+02	1.042435e-01	8.391486e-02	0.000000e+00	
0.000000e+00	9.018987e-01	1.224676e+00	4.315663e+01	-1.051098e+00	2.539657e+05	1.012820e+05	2.880986e+02	1.035942e-01	-6.069296e-02	0.000000e+00	
3.448276e-02	9.018987e-01	1.225621e+00	4.311574e+01	-5.606424e+00	2.542325e+05	1.013845e+05	2.881681e+02	1.042435e-01	8.391607e-02	0.000000e+00	
0.000000e+00	8.702532e-01	1.224676e+00	4.315662e+01	-1.051087e+00	2.539657e+05	1.012820e+05	2.880986e+02	1.035942e-01	-6.069304e-02	0.000000e+00	
3.448276e-02	8.702532e-01	1.225621e+00	4.311573e+01	-5.606421e+00	2.542325e+05	1.013845e+05	2.881681e+02	1.042434e-01	8.391700e-02	0.000000e+00	
0.000000e+00	8.386076e-01	1.224676e+00	4.315662e+01	-1.051080e+00	2.539657e+05	1.012820e+05	2.880986e+02	1.035942e-01	-6.069304e-02	0.000000e+00	
3.448276e-02	8.386076e-01	1.225621e+00	4.311573e+01	-5.606418e+00	2.542325e+05	1.013845e+05	2.881681e+02	1.042434e-01	8.391765e-02	0.000000e+00	
0.000000e+00	8.069620e-01	1.224676e+00	4.315662e+01	-1.051075e+00	2.539657e+05	1.012820e+05	2.880986e+02	1.035942e-01	-6.069294e-02	0.000000e+00	
3.448276e-02	8.069620e-01	1.225621e+00	4.311573e+01	-5.606416e+00	2.542325e+05	1.013845e+05	2.881681e+02	1.042434e-01	8.391818e-02	0.000000e+00	
0.000000e+00	7.753165e-01	1.224676e+00	4.315662e+01	-1.051072e+00	2.539657e+05	1.012820e+05	2.880986e+02	1.035942e-01	-6.069282e-02	0.000000e+00	
3.448276e-02	7.753165e-01	1.225621e+00	4.311572e+01	-5.606415e+00	2.542325e+05	1.013845e+05	2.881681e+02	1.042434e-01	8.391859e-02	0.000000e+00	
0.000000e+00	7.436709e-01	1.224676e+00	4.315662e+01	-1.051070e+00	2.539657e+05	1.012820e+05	2.880986e+02	1.035942e-01	-6.069265e-02	0.000000e+00	
3.448276e-02	7.436709e-01	1.225621e+00	4.311572e+01	-5.606415e+00	2.542325e+05	1.013845e+05	2.881681e+02	1.042434e-01	8.391893e-02	0.000000e+00	
0.000000e+00	7.120253e-01	1.224676e+00	4.315662e+01	-1.051069e+00	2.539657e+05	1.012820e+05	2.880986e+02	1.035942e-01	-6.069248e-02	0.000000e+00	
3.448276e-02	7.120253e-01	1.225621e+00	4.311572e+01	-5.606415e+00	2.542325e+05	1.013845e+05	2.881681e+02	1.042434e-01	8.391922e-02	0.000000e+00	
0.000000e+00	6.803797e-01	1.224676e+00	4.315662e+01	-1.051069e+00	2.539657e+05	1.012820e+05	2.880986e+02	1.035942e-01	-6.069231e-02	0.000000e+00	
3.448276e-02	6.803797e-01	1.225621e+00	4.311572e+01	-5.606415e+00	2.542325e+05	1.013845e+05	2.881681e+02	1.042434e-01	8.391948e-02	0.000000e+00	
0.000000e+00	6.487342e-01	1.224676e+00	4.315662e+01	-1.051068e+00	2.539657e+05	1.012820e+05	2.880986e+02	1.035942e-01	-6.069214e-02	0.000000e+00	
3.448276e-02	6.487342e-01	1.225621e+00	4.311572e+01	-5.606416e+00	2.542325e+05	1.013845e+05	2.881681e+02	1.042434e-01	8.391970e-02	0.000000e+00	
0.000000e+00	6.170886e-01	1.224676e+00	4.315662e+01	-1.051068e+00	2.539657e+05	1.012820e+05	2.880986e+02	1.035942e-01	-6.069198e-02	0.000000e+00	
3.448276e-02	6.170886e-01	1.225621e+00	4.311572e+01	-5.606416e+00	2.542325e+05	1.013845e+05	2.881681e+02	1.042434e-01	8.391989e-02	0.000000e+00	
0.000000e+00	5.854430e-01	1.224676e+00	4.315662e+01	-1.051068e+00	2.539657e+05	1.012820e+05	2.880986e+02	1.035942e-01	-6.069184e-02	0.000000e+00	
3.448276e-02	5.854430e-01	1.225621e+00	4.311572e+01	-5.606416e+00	2.542325e+05	1.013845e+05	2.881681e+02	1.042434e-01	8.392007e-02	0.000000e+00	
0.000000e+00	5.537975e-01	1.224676e+00	4.315662e+01	-1.051068e+00	2.539657e+05	1.012820e+05	2.880986e+02	1.035942e-01	-6.069171e-02	0.000000e+00	
3.448276e-02	5.537975e-01	1.225621e+00	4.311572e+01	-5.606417e+00	2.542325e+05	1.013845e+05	2.881681e+02	1.042434e-01	8.392022e-02	0.000000e+00	
0.000000e+00	5.221519e-01	1.224676e+00	4.315662e+01	-1.051068e+00	2.539657e+05	1.012820e+05	2.880986e+02	1.035942e-01	-6.069159e-02	0.000000e+00	
3.448276e-02	5.221519e-01	1.225621e+00	4.311572e+01	-5.606417e+00	2.542325e+05	1.013845e+05	2.881681e+02	1.042434e-01	8.392035e-02	0.000000e+00	
0.000000e+00	4.905063e-01	1.224676e+00	4.315662e+01	-1.051069e+00	2.539657e+05	1.012820e+05	2.880986e+02	1.035942e-01	-6.069148e-02	0.000000e+00	
3.448276e-02	4.905063e-01	1.225621e+00	4.311572e+01	-5.606417e+00	2.542325e+05	1.013845e+05	2.881681e+02	1.042434e-01	8.392046e-02	0.000000e+00	
0.000000e+00	4.588608e-01	1.224676e+00	4.315662e+01	-1.051069e+00	2.539657e+05	1.012820e+05	2.880986e+02	1.035942e-01	-6.069138e-02	0.000000e+00	
3.448276e-02	4.588608e-01	1.225621e+00	4.311572e+01	-5.606417e+00	2.542325e+05	1.013845e+05	2.881681e+02	1.042434e-01	8.392057e-02	0.000000e+00	
0.000000e+00	4.272152e-01	1.224676e+00	4.315662e+01	-1.051069e+00	2.539657e+05	1.012820e+05	2.880986e+02	1.035942e-01	-6.069130e-02	0.000000e+00	
3.448276e-02	4.272152e-01	1.225621e+00	4.311572e+01	-5.606417e+00	2.542325e+05	1.013845e+05	2.881681e+02	1.042434e-01	8.392066e-02	0.000000e+00	
0.000000e+00	3.955696e-01	1.224676e+00	4.315662e+01	-1.051069e+00	2.539657e+05	1.012820e+05	2.880986e+02	1.035942e-01	-6.069122e-02	0.000000e+00	
3.448276e-02	3.955696e-01	1.225621e+00	4.311572e+01	-5.606417e+00	2.542325e+05	1.013845e+05	2.881681e+02	1.042434e-01	8.392073e-02	0.000000e+00	
0.000000e+00	3.639241e-01	1.224676e+00	4.315662e+01	-1.051069e+00	2.539657e+05	1.012820e+05	2.880986e+02	1.035942e-01	-6.069116e-02	0.000000e+00	
3.448276e-02	3.639241e-01	1.225621e+00	4.311572e+01	-5.606417e+00	2.542325e+05	1.013845e+05	2.881681e+02	1.042434e-01	8.392080e-02	0.000000e+00	
0.000000e+00	3.322785e-01	1.224676e+00	4.315662e+01	-1.051068e+00	2.539657e+05	1.012820e+05	2.880986e+02	1.035942e-01	-6.069110e-02	0.000000e+00	
3.448276e-02	3.322785e-01	1.225621e+00	4.311572e+01	-5.606417e+00	2.542325e+05	1.013845e+05	2.881681e+02	1.042434e-01	8.392086e-02	0.000000e+00	
0.000000e+00	3.006329e-01	1.224676e+00	4.315662e+01	-1.051068e+00	2.539657e+05	1.012820e+05	2.880986e+02	1.035942e-01	-6.069105e-02	0.000000e+00	
3.448276e-02	3.006329e-01	1.225621e+00	4.311572e+01	-5.606417e+00	2.542325e+05	1.013845e+05	2.881681e+02	1.042434e-01	8.392091e-02	0.000000e+00	
0.000000e+00	2.689873e-01	1.224676e+00	4.315662e+01	-1.051068e+00	2.539657e+05	1.012820e+05	2.880986e+02	1.035942e-01	-6.069101e-02	0.000000e+00	
3.448276e-02	2.689873e-01	1.225621e+00	4.311572e+01	-5.606417e+00	2.542325e+05	1.013845e+05	2.881681e+02	1.042434e-01	8.392096e-02	0.000000e+00	
0.000000e+00	2.373418e-01	1.224676e+00	4.315662e+01	-1.051068e+00	2.539657e+05	1.012820e+05	2.880986e+02	1.035942e-01	-6.069097e-02	0.000000e+00	
3.448276e-02	2.373418e-01	1.225621e+00	4.311572e+01	-5.606417e+00	2.542325e+05	1.013845e+05	2.881681e+02	1.042434e-01	8.392100e-02	0.000000e+00	
0.000000e+00	2.056962e-01	1.224676e+00	4.315662e+01	-1.051068e+00	2.539657e+05	1.012820e+05	2.880986e+02	1.035942e-01	-6.069094e-02	0.000000e+00	
3.448276e-02	2.056962e-01	1.225621e+00	4.311572e+01	-5.606417e+00	2.542325e+05	1.013845e+05	2.881681e+02	1.042434e-01	8.392103e-02	0.000000e+00	
0.000000e+00	1.740506e-01	1.224676e+00	4.315662e+01	-1.051068e+00	2.539657e+05	1.012820e+05	2.880986e+02	1.035942e-01	-6.069092e-02	0.000000e+00	
3.448276e-02	1.740506e-01	1.225621e+00	4.311572e+01	-5.606417e+00	2.542325e+05	1.013845e+05	2.881681e+02	1.042434e-01	8.392106e-02	0.000000e+00	
0.000000e+00	1.424051e-01	1.224676e+00	4.315662e+01	-1.051067e+00	2.539657e+05	1.012820e+05	2.880986e+02	1.035942e-01	-6.069090e-02	0.000000e+00	
3.448276e-02	1.424051e-01	1.225621e+00	4.311572e+01	-5.606416e+00	2.542325e+05	1.013845e+05	2.881681e+02	1.042434e-01	8.392108e-02	0.000000e+00	
0.000000e+00	1.107595e-01	1.224676e+00	4.315662e+01	-1.051067e+00	2.539657e+05	1.012820e+05	2.880986e+02	1.035942e-01	-6.069089e-02	0.000000e+00	
3.448276e-02	1.107595e-01	1.225621e+00	4.311572e+01	-5.606416e+00	2.542325e+05	1.013845e+05	2.881681e+02	1.042434e-01	8.392109e-02	0.000000e+00	
0.000000e+00	7.911392e-02	1.224676e+00	4.315662e+01	-1.051067e+00	2.539657e+05	1.012820e+05	2.880986e+02	1.035942e-01	-6.069088e-02	0.000000e+00	
3.448276e-02	7.911392e-02	1.225621e+00	4.311572e+01	-5.606416e+00	2.542325e+05	1.013845e+05	2.881681e+02	1.042434e-01	8.392110e-02	0.000000e+00	
0.000000e+00	4.746835e-02	1.224676e+00	4.315662e+01	-1.051066e+00	2.539657e+05	1.012820e+05	2.880986e+02	1.035942e-01	-6.069089e-02	0.000000e+00	
3.448276e-02	4.746835e-02	1.225621e+00	4.311572e+01	-5.606416e+00	2.542325e+05	1.013845e+05	2.881681e+02	1.042434e-01	8.392111e-02	0.000000e+00	
0.000000e+00	1.582278e-02	1.224676e+00	4.315662e+01	-1.051066e+00	2.539657e+05	1.012820e+05	2.880986e+02	1.035942e-01	-6.069089e-02	0.000000e+00	
3.448276e-02	1.582278e-02	1.225621e+00	4.311572e+01	-5.606416e+00	2.542325e+05	1.013845e+05	2.881681e+02	1.042434e-01	8.392110e-02	0.000000e+00	
0.000000e+00	-1.582278e-02	1.224676e+00	4.315662e+01	-1.051066e+00	2.539657e+05	1.012820e+05	2.880986e+02	1.035942e-01	-6.069090e-02	0.000000e+00	
3.448276e-02	-1.582278e-02	1.225621e+00	4.311572e+01	-5.606415e+00	2.542325e+05	1.013845e+05	2.881681e+02	1.042434e-01	8.392110e-02	0.000000e+00	
0.000000e+00	-4.746835e-02	1.224676e+00	4.315662e+01	-1.051066e+00	2.539657e+05	1.012820e+05	2.880986e+02	1.035942e-01	-6.069092e-02	0.000000e+00	
3.448276e-02	-4.746835e-02	1.225621e+00	4.311573e+01	-5.606415e+00	2.542325e+05	1.013845e+05	2.881681e+02	1.042434e-01	8.392108e-02	0.000000e+00	
0.000000e+00	-7.911392e-02	1.224676e+00	4.315662e+01	-1.051065e+00	2.539657e+05	1.012820e+05	2.880986e+02	1.035942e-01	-6.069095e-02	0.000000e+00	
3.448276e-02	-7.911392e-02	1.225621e+00	4.311573e+01	-5.606415e+00	2.542325e+05	1.013845e+05	2.881681e+02	1.042434e-01	8.392106e-02	0.000000e+00	
0.000000e+00	-1.107595e-01	1.224676e+00	4.315662e+01	-1.051065e+00	2.539657e+05	1.012820e+05	2.880986e+02	1.035942e-01	-6.069098e-02	0.000000e+00	
3.448276e-02	-1.107595e-01	1.225621e+00	4.311573e+01	-5.606415e+00	2.542325e+05	1.013845e+05	2.881681e+02	1.042434e-01	8.392103e-02	0.000000e+00	
0.000000e+00	-1.424051e-01	1.224676e+00	4.315662e+01	-1.051065e+00	2.539657e+05	1.012820e+05	2.880986e+02	1.035942e-01	-6.069102e-02	0.000000e+00	
3.448276e-02	-1.424051e-01	1.225621e+00	4.311573e+01	-5.606415e+00	2.542325e+05	1.013845e+05	2.881681e+02	1.042434e-01	8.392099e-02	0.000000e+00	
0.000000e+00	-1.740506e-01	1.224676e+00	4.315662e+01	-1.051064e+00	2.539657e+05	1.012820e+05	2.880986e+02	1.035942e-01	-6.069107e-02	0.000000e+00	
3.448276e-02	-1.740506e-01	1.225621e+00	4.311573e+01	-5.606414e+00	2.542325e+05	1.013845e+05	2.881681e+02	1.042434e-01	8.392095e-02	0.000000e+00	
0.000000e+00	-2.056962e-01	1.224676e+00	4.315662e+01	-1.051064e+00	2.539657e+05	1.012820e+05	2.880986e+02	1.035942e-01	-6.069112e-02	0.000000e+00	
3.448276e-02	-2.056962e-01	1.225621e+00	4.311573e+01	-5.606414e+00	2.542325e+05	1.013845e+05	2.881681e+02	1.042434e-01	8.392090e-02	0.000000e+00	
0.000000e+00	-2.373418e-01	1.224676e+00	4.315662e+01	-1.051063e+00	2.539657e+05	1.012820e+05	2.880986e+02	1.035942e-01	-6.069118e-02	0.000000e+00	
3.448276e-02	-2.373418e-01	1.225621e+00	4.311573e+01	-5.606414e+00	2.542325e+05	1.013845e+05	2.881681e+02	1.042434e-01	8.392084e-02	0.000000e+00	
0.000000e+00	-2.689873e-01	1.224676e+00	4.315662e+01	-1.051063e+00	2.539657e+05	1.012820e+05	2.880986e+02	1.035942e-01	-6.069125e-02	0.000000e+00	
3.448276e-02	-2.689873e-01	1.225621e+00	4.311573e+01	-5.606413e+00	2.542325e+05	1.013845e+05	2.881681e+02	1.042434e-01	8.392078e-02	0.000000e+00	
0.000000e+00	-3.006329e-01	1.224676e+00	4.315663e+01	-1.051062e+00	2.539657e+05	1.012820e+05	2.880986e+02	1.035942e-01	-6.069132e-02	0.000000e+00	
3.448276e-02	-3.006329e-01	1.225621e+00	4.311573e+01	-5.606413e+00	2.542325e+05	1.013845e+05	2.881681e+02	1.042434e-01	8.392071e-02	0.000000e+00	
0.000000e+00	-3.322785e-01	1.224676e+00	4.315663e+01	-1.051062e+00	2.539657e+05	1.012820e+05	2.880986e+02	1.035942e-01	-6.069141e-02	0.000000e+00	
3.448276e-02	-3.322785e-01	1.225621e+00	4.311573e+01	-5.606413e+00	2.542325e+05	1.013845e+05	2.881681e+02	1.042434e-01	8.392063e-02	0.000000e+00	
0.000000e+00	-3.639241e-01	1.224676e+00	4.315663e+01	-1.051061e+00	2.539657e+05	1.012820e+05	2.880986e+02	1.035942e-01	-6.069150e-02	0.000000e+00	
3.448276e-02	-3.639241e-01	1.225621e+00	4.311573e+01	-5.606412e+00	2.542325e+05	1.013845e+05	2.881681e+02	1.042434e-01	8.392055e-02	0.000000e+00	
0.000000e+00	-3.955696e-01	1.224676e+00	4.315663e+01	-1.051061e+00	2.539657e+05	1.012820e+05	2.880986e+02	1.035942e-01	-6.069159e-02	0.000000e+00	
3.448276e-02	-3.955696e-01	1.225621e+00	4.311573e+01	-5.606412e+00	2.542325e+05	1.013845e+05	2.881681e+02	1.042434e-01	8.392045e-02	0.000000e+00	
0.000000e+00	-4.272152e-01	1.224676e+00	4.315663e+01	-1.051060e+00	2.539657e+05	1.012820e+05	2.880986e+02	1.035942e-01	-6.069170e-02	0.000000e+00	
3.448276e-02	-4.272152e-01	1.225621e+00	4.311573e+01	-5.606412e+00	2.542325e+05	1.013845e+05	2.881681e+02	1.042434e-01	8.392035e-02	0.000000e+00	
0.000000e+00	-4.588608e-01	1.224676e+00	4.315663e+01	-1.051060e+00	2.539657e+05	1.012820e+05	2.880986e+02	1.035942e-01	-6.069181e-02	0.000000e+00	
3.448276e-02	-4.588608e-01	1.225621e+00	4.311573e+01	-5.606411e+00	2.542325e+05	1.013845e+05	2.881681e+02	1.042434e-01	8.392024e-02	0.000000e+00	
0.000000e+00	-4.905063e-01	1.224676e+00	4.315663e+01	-1.051059e+00	2.539657e+05	1.012820e+05	2.880986e+02	1.035942e-01	-6.069193e-02	0.000000e+00	
3.448276e-02	-4.905063e-01	1.225621e+00	4.311573e+01	-5.606411e+00	2.542325e+05	1.013845e+05	2.881681e+02	1.042434e-01	8.392012e-02	0.000000e+00	
0.000000e+00	-5.221519e-01	1.224676e+00	4.315663e+01	-1.051058e+00	2.539657e+05	1.012820e+05	2.880986e+02	1.035942e-01	-6.069206e-02	0.000000e+00	
3.448276e-02	-5.221519e-01	1.225621e+00	4.311573e+01	-5.606410e+00	2.542325e+05	1.013845e+05	2.881681e+02	1.042434e-01	8.392000e-02	0.000000e+00	
0.000000e+00	-5.537975e-01	1.224676e+00	4.315663e+01	-1.051057e+00	2.539657e+05	1.012820e+05	2.880986e+02	1.035942e-01	-6.069220e-02	0.000000e+00	
3.448276e-02	-5.537975e-01	1.225621e+00	4.311573e+01	-5.606410e+00	2.542325e+05	1.013845e+05	2.881681e+02	1.042434e-01	8.391986e-02	0.000000e+00	
0.000000e+00	-5.854430e-01	1.224676e+00	4.315663e+01	-1.051057e+00	2.539657e+05	1.012820e+05	2.880986e+02	1.035942e-01	-6.069235e-02	0.000000e+00	
3.448276e-02	-5.854430e-01	1.225621e+00	4.311573e+01	-5.606409e+00	2.542325e+05	1.013845e+05	2.881681e+02	1.042434e-01	8.391972e-02	0.000000e+00	
0.000000e+00	-6.170886e-01	1.224676e+00	4.315663e+01	-1.051056e+00	2.539657e+05	1.012820e+05	2.880986e+02	1.035942e-01	-6.069250e-02	0.000000e+00	
3.448276e-02	-6.170886e-01	1.225621e+00	4.311573e+01	-5.606408e+00	2.542325e+05	1.013845e+05	2.881681e+02	1.042434e-01	8.391957e-02	0.000000e+00	
0.000000e+00	-6.487342e-01	1.224676e+00	4.315663e+01	-1.051055e+00	2.539657e+05	1.012820e+05	2.880986e+02	1.035942e-01	-6.069267e-02	0.000000e+00	
3.448276e-02	-6.487342e-01	1.225621e+00	4.311573e+01	-5.606407e+00	2.542325e+05	1.013845e+05	2.881681e+02	1.042434e-01	8.391941e-02	0.000000e+00	
0.000000e+00	-6.803797e-01	1.224676e+00	4.315663e+01	-1.051054e+00	2.539657e+05	1.012820e+05	2.880986e+02	1.035942e-01	-6.069285e-02	0.000000e+00	
3.448276e-02	-6.803797e-01	1.225621e+00	4.311573e+01	-5.606407e+00	2.542325e+05	1.013845e+05	2.881681e+02	1.042434e-01	8.391924e-02	0.000000e+00	
0.000000e+00	-7.120253e-01	1.224676e+00	4.315663e+01	-1.051053e+00	2.539657e+05	1.012820e+05	2.880986e+02	1.035942e-01	-6.069304e-02	0.000000e+00	
3.448276e-02	-7.120253e-01	1.225621e+00	4.311573e+01	-5.606406e+00	2.542325e+05	1.013845e+05	2.881681e+02	1.042434e-01	8.391906e-02	0.000000e+00	
0.000000e+00	-7.436709e-01	1.224676e+00	4.315663e+01	-1.051052e+00	2.539657e+05	1.012820e+05	2.880986e+02	1.035942e-01	-6.069325e-02	0.000000e+00	
3.448276e-02	-7.436709e-01	1.225621e+00	4.311573e+01	-5.606405e+00	2.542325e+05	1.013845e+05	2.881681e+02	1.042434e-01	8.391887e-02	0.000000e+00	
0.000000e+00	-7.753165e-01	1.224676e+00	4.315663e+01	-1.051051e+00	2.539657e+05	1.012820e+05	2.880986e+02	1.035942e-01	-6.069346e-02	0.000000e+00	
3.448276e-02	-7.753165e-01	1.225621e+00	4.311573e+01	-5.606404e+00	2.542325e+05	1.013845e+05	2.881681e+02	1.042434e-01	8.391868e-02	0.000000e+00	
0.000000e+00	-8.069620e-01	1.224676e+00	4.315663e+01	-1.051049e+00	2.539657e+05	1.012820e+05	2.880986e+02	1.035942e-01	-6.069369e-02	0.000000e+00	
3.448276e-02	-8.069620e-01	1.225621e+00	4.311573e+01	-5.606403e+00	2.542325e+05	1.013845e+05	2.881681e+02	1.042434e-01	8.391848e-02	0.000000e+00	
0.000000e+00	-8.386076e-01	1.224676e+00	4.315663e+01	-1.051047e+00	2.539657e+05	1.012820e+05	2.880986e+02	1.035942e-01	-6.069392e-02	0.000000e+00	
3.448276e-02	-8.386076e-01	1.225621e+00	4.311573e+01	-5.606401e+00	2.542325e+05	1.013845e+05	2.881681e+02	1.042434e-01	8.391831e-02	0.000000e+00	
0.000000e+00	-8.702532e-01	1.224676e+00	4.315662e+01	-1.051044e+00	2.539657e+05	1.012820e+05	2.880986e+02	1.035942e-01	-6.069419e-02	0.000000e+00	
3.448276e-02	-8.702532e-01	1.225621e+00	4.311573e+01	-5.606398e+00	2.542325e+05	1.013845e+05	2.881681e+02	1.042434e-01	8.391814e-02	0.000000e+00	
0.000000e+00	-9.018987e-01	1.224676e+00	4.315663e+01	-1.051039e+00	2.539657e+05	1.012820e+05	2.880986e+02	1.035942e-01	-6.069448e-02	0.000000e+00	
3.448276e-02	-9.018987e-01	1.225621e+00	4.311573e+01	-5.606393e+00	2.542325e+05	1.013845e+05	2.881681e+02	1.042434e-01	8.391807e-02	0.000000e+00	
0.000000e+00	-9.335443e-01	1.224676e+00	4.315663e+01	-1.051034e+00	2.539657e+05	1.012820e+05	2.880986e+02	1.035942e-01	-6.069492e-02	0.000000e+00	
3.448276e-02	-9.335443e-01	1.225621e+00	4.311574e+01	-5.606387e+00	2.542325e+05	1.013845e+05	2.881681e+02	1.042435e-01	8.391796e-02	0.000000e+00	
0.000000e+00	-9.651899e-01	1.224676e+00	4.315663e+01	-1.051029e+00	2.539657e+05	1.012820e+05	2.880986e+02	1.035942e-01	-6.069547e-02	0.000000e+00	
3.448276e-02	-9.651899e-01	1.225621e+00	4.311574e+01	-5.606379e+00	2.542325e+05	1.013845e+05	2.881681e+02	1.042435e-01	8.391821e-02	0.000000e+00	
0.000000e+00	-9.968354e-01	1.224676e+00	4.315663e+01	-1.051027e+00	2.539657e+05	1.012819e+05	2.880986e+02	1.035942e-01	-6.069649e-02	0.000000e+00	
3.448276e-02	-9.968354e-01	1.225621e+00	4.311574e+01	-5.606369e+00	2.542325e+05	1.013845e+05	2.881681e+02	1.042434e-01	8.391835e-02	0.000000e+00	
0.000000e+00	-1.028481e+00	1.224676e+00	4.315661e+01	-1.051033e+00	2.539657e+05	1.012819e+05	2.880986e+02	1.035942e-01	-6.069751e-02	0.000000e+00	
3.448276e-02	-1.028481e+00	1.225621e+00	4.311572e+01	-5.606357e+00	2.542325e+05	1.013845e+05	2.881681e+02	1.042434e-01	8.391991e-02	0.000000e+00	
0.000000e+00	-1.060127e+00	1.224676e+00	4.315661e+01	-1.051049e+00	2.539657e+05	1.012819e+05	2.880986e+02	1.035942e-01	-6.069984e-02	0.000000e+00	
3.448276e-02	-1.060127e+00	1.225621e+00	4.311570e+01	-5.606334e+00	2.542325e+05	1.013845e+05	2.881681e+02	1.042433e-01	8.392098e-02	0.000000e+00	
0.000000e+00	-1.091772e+00	1.224676e+00	4.315663e+01	-1.051096e+00	2.539657e+05	1.012819e+05	2.880986e+02	1.035942e-01	-6.070212e-02	0.000000e+00	
3.448276e-02	-1.091772e+00	1.225621e+00	4.311567e+01	-5.606316e+00	2.542325e+05	1.013845e+05	2.881681e+02	1.042433e-01	8.392756e-02	0.000000e+00	
0.000000e+00	-1.123418e+00	1.224676e+00	4.315672e+01	-1.051216e+00	2.539657e+05	1.012819e+05	2.880986e+02	1.035945e-01	-6.071313e-02	0.000000e+00	
3.448276e-02	-1.123418e+00	1.225621e+00	4.311562e+01	-5.606295e+00	2.542325e+05	1.013845e+05	2.881681e+02	1.042431e-01	8.393044e-02	0.000000e+00	
0.000000e+00	-1.155063e+00	1.224676e+00	4.315684e+01	-1.051595e+00	2.539657e+05	1.012819e+05	2.880986e+02	1.035948e-01	-6.072823e-02	0.000000e+00	
3.448276e-02	-1.155063e+00	1.225621e+00	4.311542e+01	-5.606382e+00	2.542326e+05	1.013845e+05	2.881681e+02	1.042427e-01	8.395299e-02	0.000000e+00	
0.000000e+00	-1.186709e+00	1.224675e+00	4.315688e+01	-1.052452e+00	2.539656e+05	1.012819e+05	2.880986e+02	1.035950e-01	-6.079872e-02	0.000000e+00	
3.448276e-02	-1.186709e+00	1.225621e+00	4.311495e+01	-5.606527e+00	2.542325e+05	1.013846e+05	2.881681e+02	1.042416e-01	8.395951e-02	0.000000e+00	
0.000000e+00	-1.218354e+00	1.224673e+00	4.315632e+01	-1.054013e+00	2.539651e+05	1.012817e+05	2.880986e+02	1.035939e-01	-6.103371e-02	0.000000e+00	
3.448276e-02	-1.218354e+00	1.225622e+00	4.311438e+01	-5.607050e+00	2.542328e+05	1.013846e+05	2.881681e+02	1.042403e-01	8.409510e-02	0.000000e+00	
6.896552e-02	1.218354e+00	1.226002e+00	4.313553e+01	-9.156021e+00	2.543708e+05	1.014311e+05	2.882109e+02	1.056841e-01	1.496043e-01	0.000000e+00	
6.896552e-02	1.250000e+00	1.226003e+00	4.313506e+01	-9.155094e+00	2.543710e+05	1.014312e+05	2.882109e+02	1.056824e-01	1.497530e-01	0.000000e+00	
6.896552e-02	1.186709e+00	1.226003e+00	4.313589e+01	-9.156230e+00	2.543709e+05	1.014312e+05	2.882109e+02	1.056850e-01	1.496766e-01	0.000000e+00	
6.896552e-02	1.155063e+00	1.226002e+00	4.313604e+01	-9.156515e+00	2.543709e+05	1.014311e+05	2.882109e+02	1.056855e-01	1.496468e-01	0.000000e+00	
6.896552e-02	1.123418e+00	1.226002e+00	4.313609e+01	-9.156604e+00	2.543709e+05	1.014311e+05	2.882109e+02	1.056856e-01	1.496512e-01	0.000000e+00	
6.896552e-02	1.091772e+00	1.226002e+00	4.313607e+01	-9.156670e+00	2.543709e+05	1.014311e+05	2.882109e+02	1.056856e-01	1.496433e-01	0.000000e+00	
6.896552e-02	1.060127e+00	1.226002e+00	4.313604e+01	-9.156688e+00	2.543709e+05	1.014311e+05	2.882109e+02	1.056856e-01	1.496428e-01	0.000000e+00	
6.896552e-02	1.028481e+00	1.226002e+00	4.313601e+01	-9.156697e+00	2.543709e+05	1.014311e+05	2.882109e+02	1.056855e-01	1.496402e-01	0.000000e+00	
6.896552e-02	9.968354e-01	1.226002e+00	4.313598e+01	-9.156696e+00	2.543709e+05	1.014311e+05	2.882109e+02	1.056854e-01	1.496398e-01	0.000000e+00	
6.896552e-02	9.651899e-01	1.226002e+00	4.313597e+01	-9.156695e+00	2.543709e+05	1.014311e+05	2.882109e+02	1.056854e-01	1.496391e-01	0.000000e+00	
6.896552e-02	9.335443e-01	1.226002e+00	4.313596e+01	-9.156692e+00	2.543709e+05	1.014311e+05	2.882109e+02	1.056854e-01	1.496391e-01	0.000000e+00	
6.896552e-02	9.018987e-01	1.226002e+00	4.313596e+01	-9.156690e+00	2.543709e+05	1.014311e+05	2.882109e+02	1.056854e-01	1.496390e-01	0.000000e+00	
6.896552e-02	8.702532e-01	1.226002e+00	4.313595e+01	-9.156688e+00	2.543709e+05	1.014311e+05	2.882109e+02	1.056854e-01	1.496391e-01	0.000000e+00	
6.896552e-02	8.386076e-01	1.226002e+00	4.313595e+01	-9.156686e+00	2.543709e+05	1.014311e+05	2.882109e+02	1.056854e-01	1.496393e-01	0.000000e+00	
6.896552e-02	8.069620e-01	1.226002e+00	4.313595e+01	-9.156685e+00	2.543709e+05	1.014311e+05	2.882109e+02	1.056854e-01	1.496395e-01	0.000000e+00	
6.896552e-02	7.753165e-01	1.226002e+00	4.313594e+01	-9.156684e+00	2.543709e+05	1.014311e+05	2.882109e+02	1.056853e-01	1.496397e-01	0.000000e+00	
6.896552e-02	7.436709e-01	1.226002e+00	4.313594e+01	-9.156684e+00	2.543709e+05	1.014311e+05	2.882109e+02	1.056853e-01	1.496399e-01	0.000000e+00	
6.896552e-02	7.120253e-01	1.226002e+00	4.313594e+01	-9.156685e+00	2.543709e+05	1.014311e+05	2.882109e+02	1.056853e-01	1.496401e-01	0.000000e+00	
6.896552e-02	6.803797e-01	1.226002e+00	4.313594e+01	-9.156685e+00	2.543709e+05	1.014311e+05	2.882109e+02	1.056853e-01	1.496403e-01	0.000000e+00	
6.896552e-02	6.487342e-01	1.226002e+00	4.313594e+01	-9.156686e+00	2.543709e+05	1.014311e+05	2.882109e+02	1.056853e-01	1.496405e-01	0.000000e+00	
6.896552e-02	6.170886e-01	1.226002e+00	4.313594e+01	-9.156686e+00	2.543709e+05	1.014311e+05	2.882109e+02	1.056853e-01	1.496407e-01	0.000000e+00	
6.896552e-02	5.854430e-01	1.226002e+00	4.313594e+01	-9.156687e+00	2.543709e+05	1.014311e+05	2.882109e+02	1.056853e-01	1.496408e-01	0.000000e+00	
6.896552e-02	5.537975e-01	1.226002e+00	4.313594e+01	-9.156687e+00	2.543709e+05	1.014311e+05	2.882109e+02	1.056853e-01	1.496409e-01	0.000000e+00	
6.896552e-02	5.221519e-01	1.226002e+00	4.313594e+01	-9.156688e+00	2.543709e+05	1.014311e+05	2.882109e+02	1.056853e-01	1.496411e-01	0.000000e+00	
6.896552e-02	4.905063e-01	1.226002e+00	4.313594e+01	-9.156688e+00	2.543709e+05	1.014311e+05	2.882109e+02	1.056853e-01	1.496412e-01	0.000000e+00	
6.896552e-02	4.588608e-01	1.226002e+00	4.313594e+01	-9.156688e+00	2.543709e+05	1.014311e+05	2.882109e+02	1.056853e-01	1.496413e-01	0.000000e+00	
6.896552e-02	4.272152e-01	1.226002e+00	4.313594e+01	-9.156689e+00	2.543709e+05	1.014311e+05	2.882109e+02	1.056853e-01	1.496414e-01	0.000000e+00	
6.896552e-02	3.955696e-01	1.226002e+00	4.313594e+01	-9.156689e+00	2.543709e+05	1.014311e+05	2.882109e+02	1.056853e-01	1.496414e-01	0.000000e+00	
6.896552e-02	3.639241e-01	1.226002e+00	4.313594e+01	-9.156689e+00	2.543709e+05	1.014311e+05	2.882109e+02	1.056853e-01	1.496415e-01	0.000000e+00	
6.896552e-02	3.322785e-01	1.226002e+00	4.313594e+01	-9.156689e+00	2.543709e+05	1.014311e+05	2.882109e+02	1.056853e-01	1.496416e-01	0.000000e+00	
6.896552e-02	3.006329e-01	1.226002e+00	4.313594e+01	-9.156689e+00	2.543709e+05	1.014311e+05	2.882109e+02	1.056853e-01	1.496416e-01	0.000000e+00	
6.896552e-02	2.689873e-01	1.226002e+00	4.313594e+01	-9.156689e+00	2.543709e+05	1.014311e+05	2.882109e+02	1.056853e-01	1.496416e-01	0.000000e+00	
6.896552e-02	2.373418e-01	1.226002e+00	4.313594e+01	-9.156689e+00	2.543709e+05	1.014311e+05	2.882109e+02	1.056853e-01	1.496417e-01	0.000000e+00	
6.896552e-02	2.056962e-01	1.226002e+00	4.313594e+01	-9.156688e+00	2.543709e+05	1.014311e+05	2.882109e+02	1.056853e-01	1.496417e-01	0.000000e+00	
6.896552e-02	1.740506e-01	1.226002e+00	4.313594e+01	-9.156688e+00	2.543709e+05	1.014311e+05	2.882109e+02	1.056853e-01	1.496418e-01	0.000000e+00	
6.896552e-02	1.424051e-01	1.226002e+00	4.313594e+01	-9.156688e+00	2.543709e+05	1.014311e+05	2.882109e+02	1.056853e-01	1.496418e-01	0.000000e+00	
6.896552e-02	1.107595e-01	1.226002e+00	4.313594e+01	-9.156688e+00	2.543709e+05	1.014311e+05	2.882109e+02	1.056853e-01	1.496418e-01	0.000000e+00	
6.896552e-02	7.911392e-02	1.226002e+00	4.313594e+01	-9.156688e+00	2.543709e+05	1.014311e+05	2.882109e+02	1.056853e-01	1.496418e-01	0.000000e+00	
6.896552e-02	4.746835e-02	1.226002e+00	4.313594e+01	-9.156688e+00	2.543709e+05	1.014311e+05	2.882109e+02	1.056853e-01	1.496418e-01	0.000000e+00	
6.896552e-02	1.582278e-02	1.226002e+00	4.313594e+01	-9.156688e+00	2.543709e+05	1.014311e+05	2.882109e+02	1.056853e-01	1.496418e-01	0.000000e+00	
6.896552e-02	-1.582278e-02	1.226002e+00	4.313594e+01	-9.156688e+00	2.543709e+05	1.014311e+05	2.882109e+02	1.056853e-01	1.496418e-01	0.000000e+00	
6.896552e-02	-4.746835e-02	1.226002e+00	4.313594e+01	-9.156687e+00	2.543709e+05	1.014311e+05	2.882109e+02	1.056853e-01	1.496418e-01	0.000000e+00	
6.896552e-02	-7.911392e-02	1.226002e+00	4.313594e+01	-9.156687e+00	2.543709e+05	1.014311e+05	2.882109e+02	1.056853e-01	1.496418e-01	0.000000e+00	
6.896552e-02	-1.107595e-01	1.226002e+00	4.313595e+01	-9.156687e+00	2.543709e+05	1.014311e+05	2.882109e+02	1.056853e-01	1.496417e-01	0.000000e+00	
6.896552e-02	-1.424051e-01	1.226002e+00	4.313595e+01	-9.156687e+00	2.543709e+05	1.014311e+05	2.882109e+02	1.056853e-01	1.496417e-01	0.000000e+00	