/*--------------------------------*- C++ -*----------------------------------*\
  =========                 |
  \\      /  F ield         | OpenFOAM: The Open Source CFD Toolbox
   \\    /   O peration     | Website:  https://openfoam.org
    \\  /    A nd           | Version:  6
     \\/     M anipulation  |
\*---------------------------------------------------------------------------*/
FoamFile
{
    version     2.0;
    format      ascii;
    class       volVectorField;
    location    "100";
    object      U;
}
// * * * * * * * * * * * * * * * * * * * * * * * * * * * * * * * * * * * * * //

dimensions      [0 1 -1 0 0 0 0];

internalField   nonuniform List<vector> 
4000
(
(400 3.11618e-14 0)
(400 2.5198e-14 0)
(400 2.05674e-14 0)
(400 4.23664e-14 0)
(400 5.28112e-14 0)
(400 5.00618e-14 0)
(400 3.88032e-14 0)
(400 4.14507e-14 0)
(400 4.55913e-14 0)
(400 2.05896e-14 0)
(400 7.45866e-15 0)
(400 -7.40838e-15 0)
(400 -4.03835e-14 0)
(400 -4.49326e-14 0)
(400 -3.28223e-14 0)
(400 -2.78635e-14 0)
(400 -3.04834e-14 0)
(400 -4.42882e-14 0)
(400 -2.71572e-14 0)
(400 -1.47432e-15 0)
(400 7.12171e-16 0)
(400 5.1325e-15 0)
(400 1.58354e-14 0)
(400 2.12477e-14 0)
(400 3.51975e-14 0)
(400 4.12497e-14 0)
(400 3.51418e-14 0)
(400 1.6211e-14 0)
(400 -4.14988e-15 0)
(400 -7.12719e-15 0)
(400 -1.45287e-14 0)
(400 -8.64176e-15 0)
(400 6.362e-15 0)
(400 1.67757e-14 0)
(400 1.15106e-14 0)
(400 2.26114e-14 0)
(400 5.09923e-14 0)
(400 5.78738e-14 0)
(400 5.38111e-14 0)
(400 4.55275e-14 0)
(400 3.05786e-14 0)
(400 2.29795e-14 0)
(400 1.70875e-14 0)
(400 1.28423e-14 0)
(400 1.53303e-14 0)
(400 1.93374e-14 0)
(400 3.68141e-14 0)
(400 3.13439e-14 0)
(400 1.84596e-14 0)
(400 3.73794e-14 0)
(400 4.40077e-14 0)
(400 6.29327e-14 0)
(400 6.30087e-14 0)
(400 5.21274e-14 0)
(400 4.37948e-14 0)
(400 4.39759e-14 0)
(400 3.74808e-14 0)
(400 2.26804e-14 0)
(400 1.41372e-14 0)
(400 1.20307e-14 0)
(400 1.66988e-14 0)
(400 1.5774e-15 0)
(400 -4.51469e-15 0)
(400 -7.974e-15 0)
(400 -1.07967e-14 0)
(400 2.01423e-16 0)
(400 -8.383e-15 0)
(400 -2.00188e-14 0)
(400 -3.13145e-14 0)
(400 -4.01997e-14 0)
(400 -2.89606e-14 0)
(400 -4.52974e-15 0)
(400 8.5158e-16 0)
(400 -6.22417e-15 0)
(400 -6.79293e-15 0)
(400 -1.351e-14 0)
(400 -3.21869e-14 0)
(400 -4.03502e-14 0)
(400 -5.02315e-14 0)
(400 -5.79689e-14 0)
(400 -4.08519e-14 0)
(400 -1.49082e-14 0)
(400 -1.68907e-15 0)
(400 4.5487e-15 0)
(400 1.17871e-14 0)
(400 3.11197e-14 0)
(400 5.10886e-14 0)
(400 5.2639e-14 0)
(400 4.45081e-14 0)
(400 2.91618e-14 0)
(400 3.44289e-14 0)
(400 3.10184e-14 0)
(400 1.48312e-14 0)
(400 3.31518e-15 0)
(400 -7.90844e-15 0)
(400 -2.55767e-14 0)
(400 -6.77928e-14 0)
(400 -7.43638e-14 0)
(400 -6.66602e-14 0)
(400 -4.95516e-14 0)
(400 -4.9399e-14 0)
(400 -5.94527e-14 0)
(400 -4.94037e-14 0)
(400 -3.82004e-14 0)
(400 -4.0255e-14 0)
(400 -2.92609e-14 0)
(400 -2.1327e-14 0)
(400 -7.02458e-15 0)
(400 4.41703e-15 0)
(400 1.41772e-14 0)
(400 2.61969e-14 0)
(400 4.62003e-14 0)
(400 2.56997e-14 0)
(400 1.98929e-14 0)
(400 1.10086e-14 0)
(400 5.01399e-15 0)
(400 6.32312e-15 0)
(400 -2.65288e-15 0)
(400 -3.4931e-15 0)
(400 3.68553e-15 0)
(400 9.18161e-15 0)
(400 1.18223e-14 0)
(400 9.94763e-15 0)
(400 1.08677e-14 0)
(400 1.85971e-14 0)
(400 2.83766e-14 0)
(400 3.17625e-14 0)
(400 8.90494e-15 0)
(400 -1.45113e-15 0)
(400 5.87448e-16 0)
(400 1.58247e-15 0)
(400 -4.59246e-15 0)
(400 -7.89992e-15 0)
(400 -1.84276e-14 0)
(400 -1.76576e-14 0)
(400 4.38817e-15 0)
(400 3.06006e-14 0)
(400 4.3838e-14 0)
(400 4.06745e-14 0)
(400 3.91585e-14 0)
(400 3.70941e-14 0)
(400 4.18685e-14 0)
(400 4.74876e-14 0)
(400 1.98388e-14 0)
(400 -1.57508e-14 0)
(400 -3.93201e-16 0)
(400 1.45334e-14 0)
(400 5.25542e-15 0)
(400 -6.80961e-15 0)
(400 -1.18167e-14 0)
(400 -1.64615e-15 0)
(400 2.20186e-14 0)
(400 4.02359e-14 0)
(400 5.06686e-14 0)
(400 5.28726e-14 0)
(400 5.40327e-14 0)
(400 4.57971e-14 0)
(400 4.35807e-14 0)
(400 3.98094e-14 0)
(400 2.72019e-14 0)
(400 2.7725e-14 0)
(400 3.13865e-14 0)
(400 2.96156e-14 0)
(400 1.0341e-14 0)
(400 -6.12143e-15 0)
(400 -1.09193e-14 0)
(400 -9.14263e-15 0)
(400 -1.75766e-14 0)
(400 -2.61997e-14 0)
(400 -3.10598e-14 0)
(400 -2.73181e-14 0)
(400 -3.19205e-14 0)
(400 -3.43907e-14 0)
(400 -3.9708e-14 0)
(400 -4.63016e-14 0)
(400 -5.28071e-14 0)
(400 -4.1731e-14 0)
(400 -4.49361e-14 0)
(400 -5.39143e-14 0)
(400 -7.03044e-14 0)
(400 -6.39489e-14 0)
(400 -5.66004e-14 0)
(400 -6.40811e-14 0)
(400 -6.71754e-14 0)
(400 -6.54862e-14 0)
(400 -4.76361e-14 0)
(400 -2.22794e-14 0)
(400 -1.63711e-14 0)
(400 -1.12169e-14 0)
(400 6.89032e-15 0)
(400 2.80218e-14 0)
(400 3.04207e-14 0)
(400 4.9532e-14 0)
(400 6.13965e-14 0)
(400 7.9079e-14 0)
(400 9.36013e-14 0)
(400 8.12023e-14 0)
(400 5.87975e-14 0)
(400 3.96346e-14 0)
(400 3.93706e-14 0)
(400 -9.35452e-15 0)
(400 -1.48144e-14 0)
(400 -2.79404e-15 0)
(400 1.99793e-15 0)
(400 9.95423e-15 0)
(400 2.71467e-14 0)
(400 3.41211e-14 0)
(400 4.47187e-14 0)
(400 4.66999e-14 0)
(400 2.90741e-14 0)
(400 4.41857e-15 0)
(400 -1.18071e-14 0)
(400 -4.24695e-15 0)
(400 1.04517e-15 0)
(400 -2.76416e-15 0)
(400 -1.06358e-15 0)
(400 1.51829e-14 0)
(400 3.47024e-14 0)
(400 3.70552e-14 0)
(400 6.82555e-14 0)
(400 6.23029e-14 0)
(400 3.78913e-14 0)
(400 1.85608e-14 0)
(400 8.41537e-15 0)
(400 -4.95035e-16 0)
(400 -1.82613e-15 0)
(400 -1.69121e-15 0)
(400 3.59013e-15 0)
(400 9.37088e-15 0)
(400 1.86969e-14 0)
(400 1.64738e-14 0)
(400 3.60246e-14 0)
(400 3.66369e-14 0)
(400 1.807e-14 0)
(400 2.81745e-15 0)
(400 1.54522e-14 0)
(400 3.94519e-14 0)
(400 5.05592e-14 0)
(400 2.99743e-14 0)
(400 2.20286e-14 0)
(400 2.16071e-14 0)
(400 3.60399e-14 0)
(400 3.75446e-14 0)
(400 5.05751e-14 0)
(400 5.29125e-14 0)
(400 4.71474e-14 0)
(400 5.05909e-14 0)
(400 5.16257e-14 0)
(400 5.0901e-14 0)
(400 4.44134e-14 0)
(400 4.41453e-14 0)
(400 3.26161e-14 0)
(400 1.41139e-14 0)
(400 -1.43069e-15 0)
(400 2.71091e-15 0)
(400 1.31258e-15 0)
(400 -2.08987e-15 0)
(400 6.17858e-15 0)
(400 2.10484e-14 0)
(400 2.45669e-14 0)
(400 3.4268e-14 0)
(400 2.59031e-14 0)
(400 2.03724e-14 0)
(400 3.92355e-14 0)
(400 5.05915e-14 0)
(400 3.81306e-14 0)
(400 2.8272e-14 0)
(400 1.51658e-14 0)
(400 2.79197e-14 0)
(400 4.79372e-14 0)
(400 4.12673e-14 0)
(400 3.33279e-14 0)
(400 1.40372e-14 0)
(400 1.55031e-14 0)
(400 2.59351e-14 0)
(400 1.50158e-14 0)
(400 6.41321e-15 0)
(400 2.3928e-14 0)
(400 3.34498e-14 0)
(400 2.18909e-14 0)
(400 2.17119e-14 0)
(400 3.64911e-14 0)
(400 3.28796e-14 0)
(400 4.34851e-14 0)
(400 3.92322e-14 0)
(400 3.20905e-14 0)
(400 2.6994e-14 0)
(400 2.21498e-14 0)
(400 1.90766e-14 0)
(400 -1.32133e-15 0)
(400 -1.98867e-14 0)
(400 -1.04711e-14 0)
(400 -2.18303e-14 0)
(400 -2.10874e-14 0)
(400 -2.55732e-14 0)
(400 -5.26917e-14 0)
(400 -6.52627e-14 0)
(400 -7.34413e-14 0)
(400 -5.64513e-14 0)
(400 -4.21622e-14 0)
(400 -4.74332e-14 0)
(400 -6.13175e-14 0)
(400 -6.47762e-14 0)
(400 -5.26908e-14 0)
(400 -6.80688e-14 0)
(400 -7.13794e-14 0)
(400 -5.97936e-14 0)
(400 -4.02345e-14 0)
(400 -2.70975e-14 0)
(400 -1.82793e-14 0)
(400 -8.17301e-15 0)
(400 1.35491e-14 0)
(400 6.06659e-15 0)
(400 1.77746e-14 0)
(400 1.61174e-14 0)
(400 8.20428e-15 0)
(400 2.5318e-14 0)
(400 8.84823e-15 0)
(400 -2.00835e-14 0)
(400 -2.7723e-14 0)
(400 -1.49773e-14 0)
(400 -1.15319e-14 0)
(400 -1.26604e-14 0)
(400 2.58477e-15 0)
(400 1.30954e-14 0)
(400 2.50544e-14 0)
(400 2.77025e-14 0)
(400 7.93847e-15 0)
(400 9.69054e-15 0)
(400 -1.18432e-15 0)
(400 -2.33386e-14 0)
(400 -1.38608e-14 0)
(400 -1.75493e-14 0)
(400 -1.60287e-14 0)
(400 8.33567e-16 0)
(400 3.63236e-14 0)
(400 4.83127e-14 0)
(400 5.91081e-14 0)
(400 7.52947e-14 0)
(400 9.22023e-14 0)
(400 9.98021e-14 0)
(400 9.61822e-14 0)
(400 8.82488e-14 0)
(400 7.17624e-14 0)
(400 4.88035e-14 0)
(400 2.8369e-14 0)
(400 1.53767e-14 0)
(400 2.74669e-14 0)
(400 5.3952e-14 0)
(400 7.18515e-14 0)
(400 7.0427e-14 0)
(400 7.84585e-14 0)
(400 8.83903e-14 0)
(400 9.26985e-14 0)
(400 9.61576e-14 0)
(400 9.8225e-14 0)
(400 9.94875e-14 0)
(400 1.0481e-13 0)
(400 1.14108e-13 0)
(400 1.18483e-13 0)
(400 1.23799e-13 0)
(400 1.21894e-13 0)
(400 1.18234e-13 0)
(400 1.05424e-13 0)
(400 8.09156e-14 0)
(400 5.84527e-14 0)
(400 4.31828e-14 0)
(400 3.08293e-14 0)
(400 6.3485e-15 0)
(400 -1.59837e-14 0)
(400 -1.52253e-14 0)
(400 -2.88151e-14 0)
(400 -2.60988e-14 0)
(400 -2.26206e-14 0)
(400 -3.69664e-14 0)
(400 -3.24226e-14 0)
(400 -1.73868e-14 0)
(400 -1.72185e-14 0)
(400 -1.13644e-14 0)
(400 -4.14774e-15 0)
(400 -1.36833e-14 0)
(400 -1.20494e-14 0)
(400 -5.26536e-15 0)
(400 -7.49276e-15 0)
(400 -8.62634e-15 0)
(400 -1.01748e-14 0)
(400 -1.94841e-16 0)
(400 -3.27326e-15 0)
(400 -2.51118e-15 0)
(400 1.70169e-14 0)
(400 3.98843e-14 0)
(400 4.17434e-14 0)
(400 5.47892e-14 0)
(400 4.96165e-14 0)
(400 3.03729e-14 0)
(400 1.80687e-14 0)
(400 3.8084e-15 0)
(400 5.36902e-15 0)
(400 3.45557e-15 0)
(400 -2.99746e-16 0)
(400 -3.05063e-14 0)
(400 -3.6139e-14 0)
(400 -3.13806e-14 0)
(400 -3.30002e-14 0)
(400 -3.35157e-14 0)
(400 -1.24616e-14 0)
(400 4.5884e-15 0)
(400 1.51632e-14 0)
(400 1.844e-14 0)
(400 9.40706e-15 0)
(400 -1.65449e-14 0)
(400 -2.58466e-14 0)
(400 -1.59149e-14 0)
(400 3.65541e-15 0)
(400 1.47294e-14 0)
(400 1.93745e-14 0)
(400 3.17213e-14 0)
(400 5.49253e-14 0)
(400 5.81735e-14 0)
(400 4.51245e-14 0)
(400 3.48726e-14 0)
(400 1.36289e-14 0)
(400 4.46392e-15 0)
(400 1.98944e-14 0)
(400 1.33728e-14 0)
(400 9.14543e-15 0)
(400 1.64776e-14 0)
(400 3.60148e-14 0)
(400 6.13058e-14 0)
(400 5.91897e-14 0)
(400 4.93113e-14 0)
(400 3.4111e-14 0)
(400 2.44255e-14 0)
(400 3.44802e-14 0)
(400 2.5597e-14 0)
(400 2.36128e-14 0)
(400 1.71615e-14 0)
(400 6.48424e-15 0)
(400 -6.85851e-15 0)
(400 -2.05031e-14 0)
(400 -1.48899e-14 0)
(400 4.90533e-15 0)
(400 6.7875e-15 0)
(400 1.21037e-14 0)
(400 6.99488e-15 0)
(400 1.72638e-14 0)
(400 2.33498e-14 0)
(400 2.37806e-14 0)
(400 9.39626e-15 0)
(400 -2.62109e-14 0)
(400 -3.28418e-14 0)
(400 -3.22996e-14 0)
(400 -3.91612e-14 0)
(400 -5.70045e-14 0)
(400 -5.48547e-14 0)
(400 -4.65682e-14 0)
(400 -2.82813e-14 0)
(400 -6.94242e-15 0)
(400 9.45236e-16 0)
(400 1.75694e-14 0)
(400 3.83373e-14 0)
(400 3.66524e-14 0)
(400 4.52072e-14 0)
(400 5.003e-14 0)
(400 5.06025e-14 0)
(400 3.60314e-14 0)
(400 3.01739e-14 0)
(400 3.65462e-14 0)
(400 5.01436e-14 0)
(400 5.72655e-14 0)
(400 3.68242e-14 0)
(400 -2.07048e-15 0)
(400 -2.47165e-14 0)
(400 -2.73687e-14 0)
(400 -2.58368e-14 0)
(400 -3.03484e-14 0)
(400 -2.03981e-14 0)
(400 1.48084e-15 0)
(400 2.51668e-14 0)
(400 4.61887e-14 0)
(400 6.12721e-14 0)
(400 6.54426e-14 0)
(400 5.98031e-14 0)
(400 6.75575e-14 0)
(400 6.12214e-14 0)
(400 6.1352e-14 0)
(400 4.1398e-14 0)
(400 2.79059e-14 0)
(400 3.31286e-14 0)
(400 3.20017e-14 0)
(400 3.38238e-15 0)
(400 -1.7478e-14 0)
(400 -2.94229e-14 0)
(400 -2.04592e-14 0)
(400 -1.53771e-14 0)
(400 -2.01607e-14 0)
(400 -1.29145e-14 0)
(400 -1.33491e-14 0)
(400 1.01793e-14 0)
(400 1.84283e-14 0)
(400 1.22588e-14 0)
(400 -1.96582e-15 0)
(400 3.44503e-15 0)
(400 3.0018e-15 0)
(400 -3.76376e-14 0)
(400 -7.16879e-14 0)
(400 -7.10887e-14 0)
(400 -4.96888e-14 0)
(400 -4.04188e-14 0)
(400 -3.21977e-14 0)
(400 -1.82504e-14 0)
(400 4.929e-16 0)
(400 1.43352e-14 0)
(400 2.74977e-14 0)
(400 3.45851e-14 0)
(400 3.60876e-14 0)
(400 3.56662e-14 0)
(400 2.84174e-14 0)
(400 2.79316e-15 0)
(400 -1.42354e-14 0)
(400 5.67015e-15 0)
(400 1.41092e-14 0)
(400 6.55831e-15 0)
(400 1.06743e-14 0)
(400 1.10793e-14 0)
(400 9.08781e-15 0)
(400 1.7363e-14 0)
(400 1.81762e-14 0)
(400 2.42258e-17 0)
(400 -2.63665e-14 0)
(400 -5.2687e-14 0)
(400 -5.01672e-14 0)
(400 -3.96787e-14 0)
(400 -2.99184e-14 0)
(400 -1.29884e-14 0)
(400 6.71163e-15 0)
(400 2.96388e-14 0)
(400 3.81348e-14 0)
(400 4.97467e-14 0)
(400 5.67045e-14 0)
(400 6.66457e-14 0)
(400 7.14755e-14 0)
(400 5.10154e-14 0)
(400 4.22961e-14 0)
(400 4.50086e-14 0)
(400 2.55337e-14 0)
(400 8.17764e-15 0)
(400 1.31767e-14 0)
(400 2.31842e-14 0)
(400 3.4229e-14 0)
(400 3.96728e-14 0)
(400 3.3485e-14 0)
(400 2.0831e-14 0)
(400 9.84828e-15 0)
(400 1.91554e-14 0)
(400 2.69677e-14 0)
(400 2.77208e-14 0)
(400 3.05147e-14 0)
(400 4.25786e-14 0)
(400 6.1248e-14 0)
(400 6.74873e-14 0)
(400 6.47749e-14 0)
(400 5.59884e-14 0)
(400 3.66313e-14 0)
(400 2.1334e-14 0)
(400 2.10123e-14 0)
(400 -4.0149e-15 0)
(400 -1.67493e-14 0)
(400 -2.77912e-14 0)
(400 -4.04966e-14 0)
(400 -4.43733e-14 0)
(400 -5.72169e-14 0)
(400 -6.28477e-14 0)
(400 -5.48093e-14 0)
(400 -6.17726e-14 0)
(400 -3.8983e-14 0)
(400 -3.64721e-14 0)
(400 -1.77668e-14 0)
(400 -1.47134e-15 0)
(400 5.93913e-15 0)
(400 1.06809e-14 0)
(400 7.36149e-15 0)
(400 8.31977e-15 0)
(400 3.02992e-15 0)
(400 -1.64336e-15 0)
(400 -7.96124e-16 0)
(400 5.29266e-15 0)
(400 6.58379e-15 0)
(400 7.8851e-15 0)
(400 1.37991e-14 0)
(400 3.81906e-14 0)
(400 5.79674e-14 0)
(400 5.60279e-14 0)
(400 4.87528e-14 0)
(400 3.67318e-14 0)
(400 1.85795e-14 0)
(400 1.01399e-14 0)
(400 2.52228e-14 0)
(400 3.43862e-14 0)
(400 3.66289e-14 0)
(400 -1.34907e-14 0)
(400 -2.45793e-14 0)
(400 -2.97563e-14 0)
(400 -2.13302e-14 0)
(400 -3.1071e-14 0)
(400 -4.07766e-14 0)
(400 -3.83111e-14 0)
(400 -4.15045e-14 0)
(400 -3.7184e-14 0)
(400 -3.04838e-14 0)
(400 -3.21971e-14 0)
(400 -3.11533e-14 0)
(400 -3.88436e-14 0)
(400 -1.736e-14 0)
(400 3.47694e-15 0)
(400 2.06485e-15 0)
(400 -8.49218e-15 0)
(400 -7.45993e-16 0)
(400 8.13822e-15 0)
(400 -6.22475e-15 0)
(400 -1.42126e-14 0)
(400 -1.16412e-14 0)
(400 -9.58359e-15 0)
(400 7.65171e-15 0)
(400 1.49973e-14 0)
(400 1.30354e-14 0)
(400 1.87536e-14 0)
(400 3.60588e-14 0)
(400 5.68509e-14 0)
(400 5.43557e-14 0)
(400 6.49503e-14 0)
(400 3.899e-14 0)
(400 2.4489e-14 0)
(400 2.68965e-14 0)
(400 3.02389e-14 0)
(400 2.91516e-14 0)
(400 1.79229e-14 0)
(400 9.06583e-15 0)
(400 2.49322e-14 0)
(400 3.65598e-14 0)
(400 4.25602e-14 0)
(400 4.56363e-14 0)
(400 4.67976e-14 0)
(400 2.91342e-14 0)
(400 1.3864e-14 0)
(400 2.1035e-14 0)
(400 2.33408e-14 0)
(400 2.36415e-14 0)
(400 1.02815e-14 0)
(400 -1.30262e-14 0)
(400 -3.28565e-14 0)
(400 -3.61614e-14 0)
(400 -4.02171e-14 0)
(400 -5.00136e-14 0)
(400 -6.12025e-14 0)
(400 -6.56086e-14 0)
(400 -4.47208e-14 0)
(400 -2.38656e-14 0)
(400 -4.22203e-15 0)
(400 4.15904e-14 0)
(400 6.17157e-14 0)
(400 6.41537e-14 0)
(400 6.33935e-14 0)
(400 5.98193e-14 0)
(400 6.72901e-14 0)
(400 7.57407e-14 0)
(400 7.5683e-14 0)
(400 9.37313e-14 0)
(400 1.091e-13 0)
(400 9.03961e-14 0)
(400 6.97471e-14 0)
(400 3.9372e-14 0)
(400 2.82929e-14 0)
(400 1.76786e-14 0)
(400 1.32553e-14 0)
(400 1.04194e-14 0)
(400 1.68873e-14 0)
(400 2.08103e-14 0)
(400 3.84781e-14 0)
(400 5.09386e-14 0)
(400 5.00629e-14 0)
(400 4.54139e-14 0)
(400 4.39726e-14 0)
(400 2.68777e-14 0)
(400 -5.46943e-15 0)
(400 -3.05402e-14 0)
(400 -3.44845e-14 0)
(400 -3.53549e-14 0)
(400 -3.56091e-14 0)
(400 -4.44832e-14 0)
(400 -4.09384e-14 0)
(400 -5.02378e-14 0)
(400 -5.29356e-14 0)
(400 -6.2862e-14 0)
(400 -5.34529e-14 0)
(400 -2.5355e-14 0)
(400 -1.31581e-14 0)
(400 -1.43007e-14 0)
(400 -1.63489e-14 0)
(400 -1.90385e-14 0)
(400 -1.69034e-14 0)
(400 -1.45463e-14 0)
(400 -6.16039e-15 0)
(400 -3.95042e-15 0)
(400 -8.19347e-15 0)
(400 -2.23245e-14 0)
(400 -4.37358e-14 0)
(400 -3.57534e-14 0)
(400 -2.63956e-14 0)
(400 -2.96268e-14 0)
(400 -2.26592e-14 0)
(400 -3.56407e-15 0)
(400 1.32504e-14 0)
(400 1.68758e-14 0)
(400 2.17504e-14 0)
(400 2.48353e-14 0)
(400 -1.04009e-15 0)
(400 -2.11936e-14 0)
(400 -1.56344e-14 0)
(400 -1.79036e-14 0)
(400 -1.26264e-14 0)
(400 -9.64681e-15 0)
(400 1.12535e-15 0)
(400 8.78472e-15 0)
(400 7.5544e-15 0)
(400 4.61681e-15 0)
(400 9.86842e-16 0)
(400 3.20233e-15 0)
(400 1.55594e-15 0)
(400 -1.51522e-14 0)
(400 -1.99887e-14 0)
(400 -1.76414e-14 0)
(400 8.35345e-15 0)
(400 2.08096e-14 0)
(400 2.09406e-14 0)
(400 9.35532e-15 0)
(400 2.12823e-14 0)
(400 2.82786e-14 0)
(400 5.82e-14 0)
(400 7.34613e-14 0)
(400 8.52049e-14 0)
(400 9.15226e-14 0)
(400 8.37134e-14 0)
(400 9.57526e-14 0)
(400 1.16081e-13 0)
(400 1.09266e-13 0)
(400 8.90329e-14 0)
(400 7.22937e-14 0)
(400 5.93719e-14 0)
(400 6.04696e-14 0)
(400 6.45332e-14 0)
(400 3.29029e-14 0)
(400 2.81052e-14 0)
(400 4.96109e-14 0)
(400 5.76311e-14 0)
(400 6.37373e-14 0)
(400 6.32246e-14 0)
(400 5.74811e-14 0)
(400 5.793e-14 0)
(400 7.39871e-14 0)
(400 9.03354e-14 0)
(400 9.23615e-14 0)
(400 9.38687e-14 0)
(400 8.0999e-14 0)
(400 7.2953e-14 0)
(400 5.06365e-14 0)
(400 2.75904e-14 0)
(400 1.35318e-14 0)
(400 1.13752e-14 0)
(400 7.55099e-15 0)
(400 -7.4608e-15 0)
(400 -1.88144e-14 0)
(400 -3.19834e-14 0)
(400 -3.19628e-14 0)
(400 -2.12414e-14 0)
(400 -1.69783e-14 0)
(400 -4.95289e-15 0)
(400 1.28072e-14 0)
(400 2.46836e-14 0)
(400 3.30612e-14 0)
(400 4.13562e-14 0)
(400 2.58565e-14 0)
(400 2.49185e-14 0)
(400 2.98254e-14 0)
(400 2.06111e-14 0)
(400 2.09135e-14 0)
(400 2.27915e-14 0)
(400 2.17824e-14 0)
(400 2.17211e-14 0)
(400 2.8054e-14 0)
(400 3.73667e-14 0)
(400 4.37955e-14 0)
(400 2.69059e-14 0)
(400 2.23579e-14 0)
(400 1.54184e-14 0)
(400 -1.1039e-15 0)
(400 9.4304e-15 0)
(400 1.03254e-14 0)
(400 7.48279e-15 0)
(400 4.91693e-15 0)
(400 -8.98903e-17 0)
(400 -4.88665e-15 0)
(400 -2.64661e-14 0)
(400 -3.12569e-14 0)
(400 -3.10984e-14 0)
(400 -5.16771e-14 0)
(400 -5.3338e-14 0)
(400 -5.35132e-14 0)
(400 -4.87061e-14 0)
(400 -4.89555e-14 0)
(400 -4.63071e-14 0)
(400 -5.20088e-14 0)
(400 -3.67401e-14 0)
(400 -3.05223e-14 0)
(400 -2.9645e-14 0)
(400 -4.37753e-14 0)
(400 -4.03549e-14 0)
(400 -4.13598e-14 0)
(400 -4.00875e-14 0)
(400 -1.782e-14 0)
(400 -2.01774e-14 0)
(400 -9.38769e-15 0)
(400 -1.20436e-14 0)
(400 -1.5655e-14 0)
(400 -1.11679e-14 0)
(400 -9.37291e-15 0)
(400 -1.04456e-15 0)
(400 1.59723e-14 0)
(400 2.34583e-14 0)
(400 3.16014e-14 0)
(400 3.57676e-14 0)
(400 2.7535e-14 0)
(400 1.41673e-14 0)
(400 -1.07666e-14 0)
(400 -7.99796e-15 0)
(400 -4.82223e-15 0)
(400 -1.57585e-14 0)
(400 -9.85448e-15 0)
(400 1.44443e-14 0)
(400 4.8211e-14 0)
(400 6.30993e-14 0)
(400 6.09266e-14 0)
(400 6.72892e-14 0)
(400 6.25714e-14 0)
(400 4.59075e-14 0)
(400 2.67871e-14 0)
(400 1.61668e-14 0)
(400 2.98302e-15 0)
(400 -1.46778e-14 0)
(400 -3.1869e-14 0)
(400 -4.6059e-14 0)
(400 -6.33913e-14 0)
(400 -6.33287e-14 0)
(400 -5.58549e-14 0)
(400 -5.59891e-14 0)
(400 -5.07128e-14 0)
(400 -3.41162e-14 0)
(400 -1.60729e-14 0)
(400 1.3002e-14 0)
(400 4.51749e-14 0)
(400 5.26269e-14 0)
(400 6.29702e-14 0)
(400 6.21803e-14 0)
(400 6.39269e-14 0)
(400 7.16029e-14 0)
(400 7.48814e-14 0)
(400 7.79957e-14 0)
(400 8.38557e-14 0)
(400 9.78484e-14 0)
(400 9.54652e-14 0)
(400 8.68147e-14 0)
(400 7.86588e-14 0)
(400 7.62986e-14 0)
(400 7.1621e-14 0)
(400 6.81416e-14 0)
(400 7.17328e-14 0)
(400 7.51787e-14 0)
(400 7.36838e-14 0)
(400 7.86953e-14 0)
(400 7.81888e-14 0)
(400 6.32995e-14 0)
(400 4.78474e-14 0)
(400 5.12794e-14 0)
(400 2.45084e-14 0)
(400 -3.63164e-15 0)
(400 -3.53794e-14 0)
(400 -4.79079e-14 0)
(400 -4.49012e-14 0)
(400 -4.08905e-14 0)
(400 -4.62491e-14 0)
(400 -3.54582e-14 0)
(400 -1.60055e-14 0)
(400 -1.20272e-14 0)
(400 -2.57933e-14 0)
(400 -1.92261e-14 0)
(400 -5.23453e-15 0)
(400 1.44163e-14 0)
(400 2.73947e-14 0)
(400 1.06857e-14 0)
(400 -7.4726e-15 0)
(400 -6.21097e-16 0)
(400 2.35202e-14 0)
(400 2.24743e-14 0)
(400 1.9831e-14 0)
(400 5.16949e-14 0)
(400 5.08351e-14 0)
(400 3.24621e-14 0)
(400 2.64e-14 0)
(400 3.21837e-14 0)
(400 3.27251e-14 0)
(400 3.61729e-14 0)
(400 2.95846e-14 0)
(400 3.18376e-14 0)
(400 3.64481e-14 0)
(400 2.36893e-14 0)
(400 8.68403e-15 0)
(400 -1.99205e-14 0)
(400 -6.11972e-14 0)
(400 -3.66084e-14 0)
(400 -2.38524e-14 0)
(400 -3.40959e-14 0)
(400 -3.55736e-14 0)
(400 -2.71339e-14 0)
(400 -1.04034e-14 0)
(400 -6.82009e-16 0)
(400 8.9833e-15 0)
(400 8.15314e-15 0)
(400 1.56598e-14 0)
(400 2.54989e-14 0)
(400 1.74959e-14 0)
(400 1.59427e-14 0)
(400 1.68173e-14 0)
(400 1.07219e-14 0)
(400 -4.62833e-15 0)
(400 -2.85121e-14 0)
(400 -4.2994e-14 0)
(400 -4.70567e-14 0)
(400 -4.14205e-14 0)
(400 -1.21043e-14 0)
(400 1.00391e-14 0)
(400 2.76099e-14 0)
(400 3.33977e-14 0)
(400 4.0183e-14 0)
(400 5.30625e-14 0)
(400 6.61474e-14 0)
(400 6.24422e-14 0)
(400 4.94467e-14 0)
(400 4.58951e-14 0)
(400 4.63695e-14 0)
(400 4.37511e-14 0)
(400 2.84508e-14 0)
(400 -1.60516e-15 0)
(400 -4.73456e-15 0)
(400 1.87922e-15 0)
(400 -1.13268e-14 0)
(400 -1.90195e-14 0)
(400 -1.74958e-14 0)
(400 -4.77574e-15 0)
(400 4.788e-15 0)
(400 1.93484e-14 0)
(400 4.296e-14 0)
(400 4.82974e-14 0)
(400 3.81196e-14 0)
(400 3.22882e-14 0)
(400 1.79751e-14 0)
(400 -4.77385e-15 0)
(400 -9.93436e-15 0)
(400 -1.3278e-14 0)
(400 -4.27442e-15 0)
(400 7.38571e-15 0)
(400 7.8038e-16 0)
(400 -4.17909e-16 0)
(400 -3.96351e-15 0)
(400 1.44099e-15 0)
(400 1.84355e-14 0)
(400 1.51533e-14 0)
(400 2.12465e-14 0)
(400 3.01076e-14 0)
(400 3.2797e-14 0)
(400 5.57828e-14 0)
(400 6.1187e-14 0)
(400 5.58397e-14 0)
(400 6.39453e-14 0)
(400 6.85073e-14 0)
(400 5.60734e-14 0)
(400 4.71551e-14 0)
(400 3.47785e-14 0)
(400 1.90764e-14 0)
(400 6.09375e-15 0)
(400 1.63334e-14 0)
(400 1.84133e-14 0)
(400 2.83402e-15 0)
(400 -2.16153e-17 0)
(400 7.24881e-15 0)
(400 -7.49731e-15 0)
(400 -1.78844e-14 0)
(400 -1.34691e-14 0)
(400 -1.99665e-14 0)
(400 -1.30717e-14 0)
(400 -5.40405e-17 0)
(400 3.39619e-15 0)
(400 -6.37415e-15 0)
(400 -3.04854e-14 0)
(400 -3.38681e-14 0)
(400 -2.71212e-14 0)
(400 -2.794e-14 0)
(400 -3.79086e-14 0)
(400 -3.89812e-14 0)
(400 -3.65052e-14 0)
(400 -4.44549e-14 0)
(400 -4.88544e-14 0)
(400 -4.49915e-14 0)
(400 -2.52207e-14 0)
(400 -3.16983e-14 0)
(400 -3.74143e-14 0)
(400 -4.2966e-14 0)
(400 -4.45345e-14 0)
(400 -4.35245e-14 0)
(400 -4.54084e-14 0)
(400 -4.47653e-14 0)
(400 -3.17406e-14 0)
(400 -1.86138e-14 0)
(400 -6.83794e-15 0)
(400 -4.89005e-15 0)
(400 -5.51592e-15 0)
(400 -1.43702e-15 0)
(400 -9.16586e-15 0)
(400 -3.31533e-15 0)
(400 1.39463e-14 0)
(400 2.33316e-14 0)
(400 2.13217e-14 0)
(400 1.33104e-14 0)
(400 -2.40449e-15 0)
(400 -8.48553e-15 0)
(400 -6.26139e-15 0)
(400 -7.71754e-15 0)
(400 -1.43701e-14 0)
(400 -1.06381e-14 0)
(400 -2.51824e-15 0)
(400 3.60524e-15 0)
(400 1.65545e-14 0)
(400 1.42528e-14 0)
(400 3.11144e-14 0)
(400 4.07367e-14 0)
(400 3.50767e-14 0)
(400 2.98178e-14 0)
(400 2.70975e-14 0)
(400 2.1922e-14 0)
(400 -5.84525e-15 0)
(400 -1.51516e-14 0)
(400 -8.57383e-15 0)
(400 -3.534e-14 0)
(400 -3.22854e-14 0)
(400 -1.41519e-14 0)
(400 -8.32243e-15 0)
(400 1.04069e-14 0)
(400 2.95126e-14 0)
(400 4.60936e-14 0)
(400 5.43096e-14 0)
(400 5.78431e-14 0)
(400 5.37514e-14 0)
(400 4.97975e-14 0)
(400 4.30089e-14 0)
(400 3.15922e-14 0)
(400 2.02269e-14 0)
(400 2.0523e-14 0)
(400 3.15092e-14 0)
(400 3.84399e-14 0)
(400 3.59517e-14 0)
(400 5.8109e-14 0)
(400 6.99382e-14 0)
(400 6.86483e-14 0)
(400 6.09077e-14 0)
(400 5.35248e-14 0)
(400 5.30728e-14 0)
(400 5.53363e-14 0)
(400 4.4302e-14 0)
(400 4.40032e-14 0)
(400 4.62704e-14 0)
(400 4.93387e-14 0)
(400 3.05928e-14 0)
(400 1.84471e-14 0)
(400 2.00133e-14 0)
(400 -8.53804e-15 0)
(400 -1.80193e-14 0)
(400 -2.1918e-14 0)
(400 -4.49776e-14 0)
(400 -5.90546e-14 0)
(400 -6.43471e-14 0)
(400 -5.85995e-14 0)
(400 -4.66418e-14 0)
(400 -5.29975e-14 0)
(400 -5.29559e-14 0)
(400 -6.24395e-14 0)
(400 -5.98309e-14 0)
(400 -7.65432e-14 0)
(400 -6.51201e-14 0)
(400 -5.27445e-14 0)
(400 -6.41029e-14 0)
(400 -5.31173e-14 0)
(400 -3.74702e-14 0)
(400 3.62189e-15 0)
(400 2.17511e-14 0)
(400 1.31725e-14 0)
(400 3.25017e-14 0)
(400 3.7787e-14 0)
(400 5.17649e-14 0)
(400 4.80873e-14 0)
(400 4.66365e-14 0)
(400 6.15649e-14 0)
(400 6.70619e-14 0)
(400 4.02228e-14 0)
(400 1.9658e-14 0)
(400 1.44682e-14 0)
(400 1.07043e-14 0)
(400 -5.65776e-15 0)
(400 -2.70415e-14 0)
(400 -3.48431e-14 0)
(400 -3.47574e-14 0)
(400 -2.016e-14 0)
(400 -1.21476e-14 0)
(400 -2.59206e-15 0)
(400 -6.02018e-15 0)
(400 -8.92237e-16 0)
(400 1.16269e-14 0)
(400 2.22323e-14 0)
(400 3.41152e-14 0)
(400 4.25468e-14 0)
(400 2.40549e-14 0)
(400 2.05737e-14 0)
(400 3.84589e-14 0)
(400 4.29672e-14 0)
(400 3.05303e-14 0)
(400 1.28992e-14 0)
(400 -7.14249e-15 0)
(400 -9.55366e-15 0)
(400 -3.83172e-15 0)
(400 6.8057e-15 0)
(400 7.90538e-15 0)
(400 9.76229e-15 0)
(400 1.66737e-14 0)
(400 3.57297e-14 0)
(400 6.41911e-14 0)
(400 7.38553e-14 0)
(400 7.41342e-14 0)
(400 8.37631e-14 0)
(400 8.93175e-14 0)
(400 7.93577e-14 0)
(400 6.19053e-14 0)
(400 6.6479e-14 0)
(400 6.20523e-14 0)
(400 5.78608e-14 0)
(400 4.69189e-14 0)
(400 2.08162e-14 0)
(400 -5.60013e-15 0)
(400 -5.38442e-15 0)
(400 2.2046e-14 0)
(400 5.77468e-14 0)
(400 7.41503e-14 0)
(400 7.6189e-14 0)
(400 7.23471e-14 0)
(400 6.02868e-14 0)
(400 4.03381e-14 0)
(400 3.18169e-14 0)
(400 2.48312e-14 0)
(400 3.13443e-14 0)
(400 3.1461e-14 0)
(400 4.16783e-14 0)
(400 4.79268e-14 0)
(400 5.74143e-14 0)
(400 5.10721e-14 0)
(400 4.55911e-14 0)
(400 3.80007e-14 0)
(400 2.74901e-14 0)
(400 4.23208e-14 0)
(400 4.29127e-14 0)
(400 3.84331e-14 0)
(400 4.26588e-14 0)
(400 4.18378e-14 0)
(400 3.77981e-14 0)
(400 3.9152e-14 0)
(400 4.5882e-14 0)
(400 4.26552e-14 0)
(400 4.06446e-14 0)
(400 3.44532e-14 0)
(400 7.7243e-15 0)
(400 -1.9582e-14 0)
(400 -3.71297e-14 0)
(400 -3.67833e-14 0)
(400 -2.77386e-14 0)
(400 -2.97102e-14 0)
(400 -2.43394e-14 0)
(400 -6.78094e-15 0)
(400 -1.00943e-14 0)
(400 -2.37356e-14 0)
(400 -3.46032e-14 0)
(400 -5.06912e-14 0)
(400 -6.36796e-14 0)
(400 -5.79939e-14 0)
(400 -3.88884e-14 0)
(400 -1.3365e-14 0)
(400 -3.87698e-14 0)
(400 -3.25811e-14 0)
(400 -3.61243e-14 0)
(400 -3.99198e-14 0)
(400 -3.64177e-14 0)
(400 -3.42162e-14 0)
(400 -3.6849e-14 0)
(400 -4.22574e-14 0)
(400 -3.82518e-14 0)
(400 -3.49592e-14 0)
(400 -3.41017e-14 0)
(400 -2.94115e-14 0)
(400 -1.51578e-14 0)
(400 -2.10671e-14 0)
(400 -1.57726e-14 0)
(400 -1.22543e-14 0)
(400 -1.07481e-14 0)
(400 -9.17689e-15 0)
(400 -2.5643e-14 0)
(400 -1.85653e-14 0)
(400 -2.60977e-15 0)
(400 1.40673e-14 0)
(400 4.45804e-15 0)
(400 -1.23152e-14 0)
(400 -7.37755e-15 0)
(400 -5.74528e-15 0)
(400 -6.15243e-15 0)
(400 1.64496e-16 0)
(400 1.54739e-14 0)
(400 2.99399e-14 0)
(400 3.91193e-14 0)
(400 3.08726e-14 0)
(400 2.85595e-14 0)
(400 3.34082e-14 0)
(400 3.76659e-14 0)
(400 4.24617e-14 0)
(400 5.17554e-14 0)
(400 4.43993e-14 0)
(400 3.26666e-14 0)
(400 3.18662e-14 0)
(400 2.39353e-14 0)
(400 2.35706e-14 0)
(400 1.10053e-14 0)
(400 1.71982e-14 0)
(400 1.77209e-14 0)
(400 1.17715e-14 0)
(400 2.59433e-15 0)
(400 -5.80021e-15 0)
(400 -1.76601e-15 0)
(400 -6.44481e-15 0)
(400 -1.00677e-14 0)
(400 -1.80941e-14 0)
(400 -1.50409e-14 0)
(400 -2.01704e-14 0)
(400 -8.8438e-15 0)
(400 1.06465e-15 0)
(400 1.29226e-14 0)
(400 2.40382e-14 0)
(400 2.39179e-14 0)
(400 3.66776e-14 0)
(400 5.47069e-14 0)
(400 5.19762e-14 0)
(400 3.59559e-14 0)
(400 3.14309e-14 0)
(400 5.09027e-14 0)
(400 6.07484e-14 0)
(400 6.85894e-14 0)
(400 5.5873e-14 0)
(400 6.34881e-14 0)
(400 7.49399e-14 0)
(400 7.17332e-14 0)
(400 6.66569e-14 0)
(400 5.96401e-14 0)
(400 5.62999e-14 0)
(400 6.73269e-14 0)
(400 6.21454e-14 0)
(400 5.7122e-14 0)
(400 4.4201e-14 0)
(400 3.58231e-14 0)
(400 1.90523e-14 0)
(400 1.29104e-14 0)
(400 -5.91741e-15 0)
(400 -1.94442e-14 0)
(400 -1.81701e-14 0)
(400 -2.26634e-14 0)
(400 -2.53415e-14 0)
(400 -3.03122e-14 0)
(400 -4.2407e-14 0)
(400 -3.36573e-14 0)
(400 -2.85765e-14 0)
(400 -4.20737e-14 0)
(400 -3.98931e-14 0)
(400 -2.2907e-14 0)
(400 -1.45537e-14 0)
(400 -8.34044e-15 0)
(400 -8.02633e-15 0)
(400 -1.98039e-14 0)
(400 -1.15774e-14 0)
(400 1.53945e-14 0)
(400 3.00949e-14 0)
(400 6.20867e-14 0)
(400 7.61761e-14 0)
(400 8.24164e-14 0)
(400 8.81263e-14 0)
(400 1.07963e-13 0)
(400 1.28402e-13 0)
(400 1.20717e-13 0)
(400 1.24698e-13 0)
(400 1.22572e-13 0)
(400 1.02424e-13 0)
(400 7.52296e-14 0)
(400 5.23073e-14 0)
(400 2.81665e-14 0)
(400 1.8782e-14 0)
(400 4.68373e-15 0)
(400 -4.58025e-15 0)
(400 5.82855e-15 0)
(400 -3.522e-15 0)
(400 -1.3112e-14 0)
(400 -8.41166e-15 0)
(400 6.96944e-15 0)
(400 5.17712e-15 0)
(400 8.08695e-15 0)
(400 1.36312e-14 0)
(400 2.05545e-14 0)
(400 3.74474e-14 0)
(400 4.21823e-14 0)
(400 3.95862e-14 0)
(400 3.15502e-14 0)
(400 4.11961e-14 0)
(400 5.21479e-14 0)
(400 5.48449e-14 0)
(400 4.3991e-14 0)
(400 2.67233e-14 0)
(400 1.54828e-14 0)
(400 1.08187e-14 0)
(400 1.31908e-14 0)
(400 -8.26705e-15 0)
(400 -1.8721e-14 0)
(400 -1.91929e-14 0)
(400 -1.3927e-15 0)
(400 2.45747e-14 0)
(400 3.90741e-14 0)
(400 2.70249e-14 0)
(400 2.71969e-14 0)
(400 3.85846e-14 0)
(400 2.90921e-14 0)
(400 1.58398e-14 0)
(400 -3.02834e-15 0)
(400 6.61247e-15 0)
(400 1.67394e-14 0)
(400 1.85978e-14 0)
(400 1.07466e-14 0)
(400 -3.70182e-15 0)
(400 5.25499e-15 0)
(400 4.79221e-14 0)
(400 6.49012e-14 0)
(400 7.19706e-14 0)
(400 6.98191e-14 0)
(400 6.15065e-14 0)
(400 6.08155e-14 0)
(400 5.37529e-14 0)
(400 4.46306e-14 0)
(400 4.12811e-14 0)
(400 6.49126e-14 0)
(400 7.29923e-14 0)
(400 7.23537e-14 0)
(400 7.47726e-14 0)
(400 7.45564e-14 0)
(400 6.93028e-14 0)
(400 6.57378e-14 0)
(400 5.90087e-14 0)
(400 4.72675e-14 0)
(400 5.23184e-14 0)
(400 5.82154e-14 0)
(400 5.62384e-14 0)
(400 4.14765e-14 0)
(400 4.26609e-14 0)
(400 3.37147e-14 0)
(400 3.48093e-14 0)
(400 3.90365e-14 0)
(400 4.00646e-14 0)
(400 3.92237e-14 0)
(400 2.73379e-14 0)
(400 4.78914e-15 0)
(400 -1.92521e-14 0)
(400 -2.90459e-14 0)
(400 -2.11338e-14 0)
(400 -3.00141e-14 0)
(400 -2.77341e-14 0)
(400 -1.73613e-14 0)
(400 -1.54424e-14 0)
(400 -3.30024e-14 0)
(400 -3.8026e-14 0)
(400 -4.75129e-14 0)
(400 -6.70717e-14 0)
(400 -8.58506e-14 0)
(400 -8.5972e-14 0)
(400 -8.85982e-14 0)
(400 -6.83334e-15 0)
(400 -5.34674e-15 0)
(400 8.4721e-15 0)
(400 -7.83028e-15 0)
(400 -1.92584e-14 0)
(400 -3.97115e-14 0)
(400 -3.73389e-14 0)
(400 -3.32868e-14 0)
(400 -3.70769e-14 0)
(400 -3.53339e-14 0)
(400 -3.3474e-14 0)
(400 -4.34829e-14 0)
(400 -4.21878e-14 0)
(400 -3.52614e-14 0)
(400 -3.78851e-14 0)
(400 -2.44506e-14 0)
(400 -1.09265e-14 0)
(400 -1.40617e-14 0)
(400 6.20515e-16 0)
(400 2.02054e-14 0)
(400 3.99745e-14 0)
(400 4.80587e-14 0)
(400 4.83093e-14 0)
(400 2.80413e-14 0)
(400 1.62122e-14 0)
(400 6.75186e-15 0)
(400 -7.58139e-15 0)
(400 -3.20121e-14 0)
(400 -4.49578e-14 0)
(400 -2.58702e-14 0)
(400 -5.23933e-15 0)
(400 2.22905e-14 0)
(400 3.56221e-14 0)
(400 3.70378e-14 0)
(400 3.2665e-14 0)
(400 2.81145e-14 0)
(400 3.42692e-14 0)
(400 2.99629e-14 0)
(400 2.08547e-14 0)
(400 4.0319e-15 0)
(400 -2.39111e-14 0)
(400 -2.32605e-14 0)
(400 -3.52103e-14 0)
(400 -3.83509e-14 0)
(400 -3.19178e-14 0)