/*--------------------------------*- C++ -*----------------------------------*\
  =========                 |
  \\      /  F ield         | OpenFOAM: The Open Source CFD Toolbox
   \\    /   O peration     | Website:  https://openfoam.org
    \\  /    A nd           | Version:  6
     \\/     M anipulation  |
\*---------------------------------------------------------------------------*/
FoamFile
{
    version     2.0;
    format      ascii;
    class       volScalarField;
    location    "170";
    object      p;
}
// * * * * * * * * * * * * * * * * * * * * * * * * * * * * * * * * * * * * * //

dimensions      [0 2 -2 0 0 0 0];

internalField   nonuniform List<scalar> 
4000
(
-2.89729e-09
-2.88135e-09
-2.84921e-09
-2.82675e-09
-2.82697e-09
-2.82277e-09
-2.80266e-09
-2.78539e-09
-2.76826e-09
-2.76425e-09
-2.77634e-09
-2.77822e-09
-2.77318e-09
-2.78413e-09
-2.78358e-09
-2.77804e-09
-2.76012e-09
-2.7427e-09
-2.74926e-09
-2.73698e-09
-2.7307e-09
-2.72207e-09
-2.71529e-09
-2.70487e-09
-2.71173e-09
-2.71707e-09
-2.721e-09
-2.71214e-09
-2.70944e-09
-2.72808e-09
-2.7196e-09
-2.72719e-09
-2.7325e-09
-2.74414e-09
-2.7433e-09
-2.73937e-09
-2.72444e-09
-2.70775e-09
-2.68455e-09
-2.67985e-09
-2.66576e-09
-2.65649e-09
-2.64492e-09
-2.64482e-09
-2.64249e-09
-2.62709e-09
-2.61961e-09
-2.61152e-09
-2.59297e-09
-2.56121e-09
-2.5311e-09
-2.51369e-09
-2.49089e-09
-2.46673e-09
-2.46595e-09
-2.45305e-09
-2.43377e-09
-2.41077e-09
-2.38952e-09
-2.37516e-09
-2.36272e-09
-2.3498e-09
-2.3512e-09
-2.34391e-09
-2.33741e-09
-2.31987e-09
-2.3004e-09
-2.29145e-09
-2.27197e-09
-2.25397e-09
-2.25851e-09
-2.24605e-09
-2.22228e-09
-2.2128e-09
-2.18093e-09
-2.1844e-09
-2.18498e-09
-2.1683e-09
-2.14371e-09
-2.12663e-09
-2.12458e-09
-2.11354e-09
-2.09798e-09
-2.08816e-09
-2.07046e-09
-2.05685e-09
-2.05644e-09
-2.04387e-09
-2.01536e-09
-2.00226e-09
-1.99356e-09
-1.973e-09
-1.95282e-09
-1.93468e-09
-1.93294e-09
-1.93074e-09
-1.90731e-09
-1.89757e-09
-1.88933e-09
-1.86347e-09
-1.85642e-09
-1.84165e-09
-1.83925e-09
-1.82743e-09
-1.81781e-09
-1.80768e-09
-1.80545e-09
-1.80997e-09
-1.78968e-09
-1.7748e-09
-1.76748e-09
-1.75774e-09
-1.7436e-09
-1.70726e-09
-1.70026e-09
-1.68027e-09
-1.63748e-09
-1.61421e-09
-1.5918e-09
-1.55766e-09
-1.54159e-09
-1.51854e-09
-1.49211e-09
-1.4798e-09
-1.47355e-09
-1.46285e-09
-1.45319e-09
-1.4259e-09
-1.40567e-09
-1.39907e-09
-1.3927e-09
-1.38062e-09
-1.38597e-09
-1.39293e-09
-1.38451e-09
-1.36881e-09
-1.36411e-09
-1.36169e-09
-1.36017e-09
-1.34923e-09
-1.33837e-09
-1.33333e-09
-1.30501e-09
-1.27153e-09
-1.24076e-09
-1.2357e-09
-1.20727e-09
-1.16842e-09
-1.13769e-09
-1.1229e-09
-1.11003e-09
-1.08632e-09
-1.07261e-09
-1.05803e-09
-1.03283e-09
-9.93346e-10
-9.69618e-10
-9.41452e-10
-9.07116e-10
-8.67198e-10
-8.30567e-10
-8.03431e-10
-7.69578e-10
-7.40002e-10
-7.14633e-10
-7.11333e-10
-6.92924e-10
-6.65908e-10
-6.60619e-10
-6.61683e-10
-6.73574e-10
-6.64722e-10
-6.5156e-10
-6.2393e-10
-6.10241e-10
-5.81579e-10
-5.45327e-10
-5.0405e-10
-4.61017e-10
-4.18309e-10
-3.83913e-10
-3.56159e-10
-3.32422e-10
-3.08023e-10
-2.7827e-10
-2.74966e-10
-2.66184e-10
-2.4412e-10
-2.12441e-10
-1.7256e-10
-1.71648e-10
-1.65603e-10
-1.45503e-10
-1.38411e-10
-1.19279e-10
-1.0677e-10
-8.28829e-11
-4.71056e-11
-1.60875e-11
-8.01013e-13
-2.91249e-09
-2.88604e-09
-2.85846e-09
-2.83917e-09
-2.83531e-09
-2.81962e-09
-2.79774e-09
-2.77793e-09
-2.76213e-09
-2.75989e-09
-2.77656e-09
-2.77464e-09
-2.76692e-09
-2.77118e-09
-2.78461e-09
-2.78178e-09
-2.7591e-09
-2.74042e-09
-2.74998e-09
-2.74419e-09
-2.73106e-09
-2.72073e-09
-2.71201e-09
-2.69297e-09
-2.70043e-09
-2.70679e-09
-2.70728e-09
-2.70138e-09
-2.70476e-09
-2.72611e-09
-2.72687e-09
-2.72437e-09
-2.72465e-09
-2.72176e-09
-2.74148e-09
-2.7478e-09
-2.73333e-09
-2.71528e-09
-2.69548e-09
-2.68071e-09
-2.67478e-09
-2.66201e-09
-2.65567e-09
-2.65682e-09
-2.64986e-09
-2.63866e-09
-2.62624e-09
-2.60428e-09
-2.58012e-09
-2.55483e-09
-2.52172e-09
-2.49816e-09
-2.4771e-09
-2.45811e-09
-2.45675e-09
-2.44742e-09
-2.4335e-09
-2.40678e-09
-2.37876e-09
-2.36477e-09
-2.34732e-09
-2.33643e-09
-2.3442e-09
-2.34656e-09
-2.33917e-09
-2.33609e-09
-2.30814e-09
-2.29407e-09
-2.2865e-09
-2.26522e-09
-2.26082e-09
-2.25078e-09
-2.22587e-09
-2.21797e-09
-2.19701e-09
-2.18729e-09
-2.1825e-09
-2.17057e-09
-2.1494e-09
-2.12983e-09
-2.13047e-09
-2.1307e-09
-2.11113e-09
-2.09066e-09
-2.0693e-09
-2.06331e-09
-2.05774e-09
-2.03652e-09
-2.01007e-09
-2.00296e-09
-1.99687e-09
-1.98629e-09
-1.95651e-09
-1.93536e-09
-1.93151e-09
-1.92778e-09
-1.89999e-09
-1.90141e-09
-1.8927e-09
-1.87244e-09
-1.85309e-09
-1.83767e-09
-1.83577e-09
-1.82415e-09
-1.80863e-09
-1.79638e-09
-1.79585e-09
-1.80138e-09
-1.78883e-09
-1.77581e-09
-1.77761e-09
-1.77536e-09
-1.74394e-09
-1.72271e-09
-1.71716e-09
-1.69307e-09
-1.65644e-09
-1.621e-09
-1.60218e-09
-1.5753e-09
-1.54199e-09
-1.52076e-09
-1.49768e-09
-1.47504e-09
-1.47038e-09
-1.46123e-09
-1.44273e-09
-1.41934e-09
-1.40502e-09
-1.41096e-09
-1.40827e-09
-1.39166e-09
-1.3834e-09
-1.3965e-09
-1.39117e-09
-1.37939e-09
-1.36419e-09
-1.3694e-09
-1.36097e-09
-1.34765e-09
-1.33443e-09
-1.32973e-09
-1.31456e-09
-1.27206e-09
-1.23678e-09
-1.23022e-09
-1.21264e-09
-1.16581e-09
-1.14264e-09
-1.12841e-09
-1.10741e-09
-1.09341e-09
-1.07541e-09
-1.05721e-09
-1.02054e-09
-9.79079e-10
-9.62739e-10
-9.43472e-10
-8.96016e-10
-8.52348e-10
-8.19998e-10
-8.09995e-10
-7.76112e-10
-7.45394e-10
-7.19536e-10
-7.15995e-10
-6.84079e-10
-6.5897e-10
-6.51643e-10
-6.53251e-10
-6.6226e-10
-6.64013e-10
-6.49738e-10
-6.33703e-10
-6.09925e-10
-5.83471e-10
-5.55031e-10
-5.12268e-10
-4.66076e-10
-4.19325e-10
-3.80347e-10
-3.62504e-10
-3.29227e-10
-3.00333e-10
-2.81984e-10
-2.78487e-10
-2.67496e-10
-2.39668e-10
-2.11422e-10
-1.95455e-10
-1.8639e-10
-1.64521e-10
-1.45291e-10
-1.34357e-10
-1.21854e-10
-1.07155e-10
-7.93653e-11
-4.6201e-11
-1.46042e-11
3.37122e-12
-2.90432e-09
-2.89493e-09
-2.86889e-09
-2.85511e-09
-2.84735e-09
-2.83566e-09
-2.80986e-09
-2.79515e-09
-2.77341e-09
-2.757e-09
-2.75352e-09
-2.74926e-09
-2.73885e-09
-2.75927e-09
-2.77935e-09
-2.76453e-09
-2.75883e-09
-2.75033e-09
-2.74464e-09
-2.73903e-09
-2.72655e-09
-2.71177e-09
-2.69835e-09
-2.70178e-09
-2.69223e-09
-2.6974e-09
-2.69985e-09
-2.69388e-09
-2.69654e-09
-2.7114e-09
-2.7167e-09
-2.72144e-09
-2.7178e-09
-2.71321e-09
-2.73298e-09
-2.75245e-09
-2.75318e-09
-2.72171e-09
-2.694e-09
-2.69298e-09
-2.68436e-09
-2.66821e-09
-2.66461e-09
-2.67108e-09
-2.6653e-09
-2.65091e-09
-2.62566e-09
-2.5927e-09
-2.56709e-09
-2.53778e-09
-2.51856e-09
-2.4972e-09
-2.465e-09
-2.44653e-09
-2.43519e-09
-2.42631e-09
-2.41675e-09
-2.39507e-09
-2.37809e-09
-2.36638e-09
-2.34762e-09
-2.33311e-09
-2.33745e-09
-2.33926e-09
-2.32844e-09
-2.31424e-09
-2.29775e-09
-2.29766e-09
-2.28571e-09
-2.26375e-09
-2.26037e-09
-2.25126e-09
-2.23072e-09
-2.21547e-09
-2.20473e-09
-2.18877e-09
-2.17921e-09
-2.16595e-09
-2.14419e-09
-2.12985e-09
-2.12884e-09
-2.13072e-09
-2.105e-09
-2.09285e-09
-2.06974e-09
-2.0596e-09
-2.04929e-09
-2.03234e-09
-2.01801e-09
-2.00613e-09
-1.99167e-09
-1.98374e-09
-1.95803e-09
-1.9548e-09
-1.93561e-09
-1.92804e-09
-1.91019e-09
-1.90591e-09
-1.90279e-09
-1.87841e-09
-1.85884e-09
-1.83314e-09
-1.82814e-09
-1.8241e-09
-1.80224e-09
-1.78203e-09
-1.79136e-09
-1.80337e-09
-1.79083e-09
-1.77917e-09
-1.77067e-09
-1.76645e-09
-1.75517e-09
-1.74702e-09
-1.71908e-09
-1.68303e-09
-1.67046e-09
-1.628e-09
-1.58948e-09
-1.57101e-09
-1.54659e-09
-1.52278e-09
-1.48687e-09
-1.46674e-09
-1.47198e-09
-1.45624e-09
-1.43942e-09
-1.40972e-09
-1.40783e-09
-1.41116e-09
-1.39337e-09
-1.39045e-09
-1.37922e-09
-1.3899e-09
-1.39213e-09
-1.38342e-09
-1.36324e-09
-1.35387e-09
-1.34616e-09
-1.33367e-09
-1.33742e-09
-1.31384e-09
-1.29264e-09
-1.27004e-09
-1.24137e-09
-1.22298e-09
-1.19733e-09
-1.16962e-09
-1.15079e-09
-1.13464e-09
-1.10981e-09
-1.08924e-09
-1.07281e-09
-1.0467e-09
-1.0171e-09
-9.86254e-10
-9.54749e-10
-9.35085e-10
-8.94455e-10
-8.53703e-10
-8.28244e-10
-8.17326e-10
-7.87951e-10
-7.5099e-10
-7.17509e-10
-7.19015e-10
-6.86845e-10
-6.61196e-10
-6.49718e-10
-6.4395e-10
-6.61723e-10
-6.57574e-10
-6.44965e-10
-6.35556e-10
-6.06414e-10
-5.90547e-10
-5.51344e-10
-5.1168e-10
-4.58305e-10
-4.18385e-10
-3.82726e-10
-3.58043e-10
-3.21692e-10
-3.02106e-10
-2.88377e-10
-2.8602e-10
-2.67952e-10
-2.44856e-10
-2.24237e-10
-2.10962e-10
-1.9801e-10
-1.70046e-10
-1.48935e-10
-1.31004e-10
-1.08265e-10
-8.6445e-11
-6.35092e-11
-4.35897e-11
-2.61746e-11
-1.01677e-11
-2.90202e-09
-2.89485e-09
-2.87934e-09
-2.86701e-09
-2.85221e-09
-2.83916e-09
-2.81876e-09
-2.79718e-09
-2.7751e-09
-2.75584e-09
-2.74399e-09
-2.73548e-09
-2.72854e-09
-2.75169e-09
-2.77589e-09
-2.77354e-09
-2.75522e-09
-2.75788e-09
-2.75006e-09
-2.72915e-09
-2.72942e-09
-2.7088e-09
-2.7026e-09
-2.71298e-09
-2.69049e-09
-2.68942e-09
-2.68962e-09
-2.68411e-09
-2.68578e-09
-2.69203e-09
-2.70763e-09
-2.70531e-09
-2.71696e-09
-2.7355e-09
-2.74082e-09
-2.75151e-09
-2.74971e-09
-2.72865e-09
-2.69552e-09
-2.70016e-09
-2.69713e-09
-2.69075e-09
-2.67545e-09
-2.68581e-09
-2.67666e-09
-2.66358e-09
-2.62762e-09
-2.59102e-09
-2.55992e-09
-2.52239e-09
-2.51136e-09
-2.49578e-09
-2.46432e-09
-2.4308e-09
-2.4222e-09
-2.42019e-09
-2.40238e-09
-2.38335e-09
-2.3768e-09
-2.37724e-09
-2.35529e-09
-2.3384e-09
-2.338e-09
-2.33188e-09
-2.31784e-09
-2.30379e-09
-2.29922e-09
-2.30527e-09
-2.29646e-09
-2.27968e-09
-2.26532e-09
-2.25401e-09
-2.23799e-09
-2.22117e-09
-2.19913e-09
-2.17696e-09
-2.17148e-09
-2.16298e-09
-2.14245e-09
-2.14286e-09
-2.13695e-09
-2.11811e-09
-2.10234e-09
-2.08668e-09
-2.07001e-09
-2.06485e-09
-2.04029e-09
-2.03034e-09
-2.01624e-09
-2.01161e-09
-1.99171e-09
-1.98184e-09
-1.9652e-09
-1.95822e-09
-1.94428e-09
-1.94061e-09
-1.91551e-09
-1.89996e-09
-1.88855e-09
-1.86457e-09
-1.83927e-09
-1.81606e-09
-1.82134e-09
-1.80969e-09
-1.78852e-09
-1.78909e-09
-1.80007e-09
-1.80454e-09
-1.78546e-09
-1.77624e-09
-1.77108e-09
-1.77288e-09
-1.76829e-09
-1.74008e-09
-1.72075e-09
-1.6836e-09
-1.66009e-09
-1.62944e-09
-1.59286e-09
-1.56884e-09
-1.54648e-09
-1.52707e-09
-1.47539e-09
-1.45752e-09
-1.45331e-09
-1.45106e-09
-1.43794e-09
-1.42129e-09
-1.40148e-09
-1.40296e-09
-1.38836e-09
-1.38067e-09
-1.38146e-09
-1.38549e-09
-1.38736e-09
-1.37825e-09
-1.35482e-09
-1.34299e-09
-1.33042e-09
-1.32565e-09
-1.32439e-09
-1.30572e-09
-1.2776e-09
-1.26026e-09
-1.24324e-09
-1.22375e-09
-1.19699e-09
-1.16617e-09
-1.15659e-09
-1.14426e-09
-1.12295e-09
-1.10472e-09
-1.06184e-09
-1.03742e-09
-1.01027e-09
-9.83043e-10
-9.65852e-10
-9.36037e-10
-8.83788e-10
-8.40168e-10
-8.2031e-10
-8.14642e-10
-7.87873e-10
-7.56083e-10
-7.32076e-10
-7.12523e-10
-6.86756e-10
-6.66038e-10
-6.53295e-10
-6.47524e-10
-6.54531e-10
-6.49903e-10
-6.47058e-10
-6.32093e-10
-6.09464e-10
-5.99999e-10
-5.5889e-10
-5.16325e-10
-4.70714e-10
-4.24191e-10
-3.93316e-10
-3.57234e-10
-3.18011e-10
-3.12843e-10
-3.07392e-10
-2.9426e-10
-2.74138e-10
-2.61932e-10
-2.45478e-10
-2.21187e-10
-1.97075e-10
-1.70454e-10
-1.44192e-10
-1.22682e-10
-9.85105e-11
-7.86823e-11
-5.86788e-11
-4.15489e-11
-2.50976e-11
-7.84611e-12
-2.90725e-09
-2.90622e-09
-2.8893e-09
-2.88341e-09
-2.85981e-09
-2.84221e-09
-2.82628e-09
-2.8105e-09
-2.77977e-09
-2.75276e-09
-2.7381e-09
-2.72216e-09
-2.71551e-09
-2.7357e-09
-2.75276e-09
-2.7483e-09
-2.74946e-09
-2.75589e-09
-2.75172e-09
-2.74274e-09
-2.71914e-09
-2.71001e-09
-2.69256e-09
-2.70331e-09
-2.69723e-09
-2.68951e-09
-2.68812e-09
-2.67519e-09
-2.66918e-09
-2.69091e-09
-2.71359e-09
-2.70501e-09
-2.72197e-09
-2.73841e-09
-2.73646e-09
-2.75606e-09
-2.75291e-09
-2.73018e-09
-2.70669e-09
-2.714e-09
-2.70555e-09
-2.70154e-09
-2.69382e-09
-2.69215e-09
-2.68288e-09
-2.65932e-09
-2.63198e-09
-2.58926e-09
-2.54931e-09
-2.51878e-09
-2.50392e-09
-2.48176e-09
-2.45805e-09
-2.42968e-09
-2.40669e-09
-2.39768e-09
-2.39675e-09
-2.39467e-09
-2.38904e-09
-2.39377e-09
-2.36645e-09
-2.33747e-09
-2.33993e-09
-2.33981e-09
-2.32526e-09
-2.31589e-09
-2.29759e-09
-2.30932e-09
-2.31181e-09
-2.28822e-09
-2.27218e-09
-2.26481e-09
-2.24212e-09
-2.22072e-09
-2.19028e-09
-2.17059e-09
-2.16414e-09
-2.15329e-09
-2.14561e-09
-2.1343e-09
-2.11958e-09
-2.1118e-09
-2.09201e-09
-2.09273e-09
-2.06161e-09
-2.04819e-09
-2.03231e-09
-2.03156e-09
-2.01898e-09
-2.00057e-09
-1.9902e-09
-1.98282e-09
-1.96957e-09
-1.96594e-09
-1.95424e-09
-1.94595e-09
-1.91018e-09
-1.89495e-09
-1.88081e-09
-1.85081e-09
-1.83064e-09
-1.80921e-09
-1.809e-09
-1.80421e-09
-1.78775e-09
-1.78558e-09
-1.80358e-09
-1.8143e-09
-1.78757e-09
-1.76759e-09
-1.7606e-09
-1.77535e-09
-1.77093e-09
-1.74208e-09
-1.71274e-09
-1.69531e-09
-1.67262e-09
-1.62617e-09
-1.60358e-09
-1.57371e-09
-1.54778e-09
-1.51154e-09
-1.47891e-09
-1.45735e-09
-1.45005e-09
-1.45477e-09
-1.43993e-09
-1.43031e-09
-1.4069e-09
-1.38892e-09
-1.37145e-09
-1.37077e-09
-1.37291e-09
-1.3791e-09
-1.36917e-09
-1.3629e-09
-1.34918e-09
-1.33199e-09
-1.3284e-09
-1.31148e-09
-1.31122e-09
-1.28943e-09
-1.27543e-09
-1.26969e-09
-1.26264e-09
-1.22361e-09
-1.19221e-09
-1.17367e-09
-1.16916e-09
-1.15063e-09
-1.12202e-09
-1.09851e-09
-1.07359e-09
-1.04224e-09
-1.00877e-09
-9.81072e-10
-9.63809e-10
-9.18777e-10
-8.86208e-10
-8.35992e-10
-8.16814e-10
-8.0994e-10
-7.85811e-10
-7.61843e-10
-7.3893e-10
-7.24508e-10
-6.99822e-10
-6.69586e-10
-6.53455e-10
-6.44923e-10
-6.58594e-10
-6.55054e-10
-6.45605e-10
-6.21194e-10
-6.01906e-10
-6.00299e-10
-5.7085e-10
-5.20981e-10
-4.88198e-10
-4.35618e-10
-4.02951e-10
-3.63529e-10
-3.42238e-10
-3.31043e-10
-3.11288e-10
-3.06552e-10
-2.86851e-10
-2.64188e-10
-2.51218e-10
-2.28013e-10
-1.96252e-10
-1.65439e-10
-1.4038e-10
-1.16247e-10
-9.21379e-11
-6.82336e-11
-5.80252e-11
-3.12903e-11
-1.45109e-11
3.33928e-12
-2.91397e-09
-2.91621e-09
-2.88307e-09
-2.87638e-09
-2.86837e-09
-2.84998e-09
-2.82551e-09
-2.81331e-09
-2.77995e-09
-2.75119e-09
-2.72542e-09
-2.71616e-09
-2.71078e-09
-2.71924e-09
-2.72948e-09
-2.72495e-09
-2.73081e-09
-2.73946e-09
-2.74351e-09
-2.73753e-09
-2.71599e-09
-2.69287e-09
-2.6813e-09
-2.69497e-09
-2.69753e-09
-2.69532e-09
-2.68863e-09
-2.67985e-09
-2.67564e-09
-2.6923e-09
-2.71529e-09
-2.71365e-09
-2.72531e-09
-2.73914e-09
-2.74395e-09
-2.74905e-09
-2.74456e-09
-2.73107e-09
-2.71154e-09
-2.7126e-09
-2.71023e-09
-2.70639e-09
-2.69747e-09
-2.70091e-09
-2.68033e-09
-2.65416e-09
-2.62568e-09
-2.5912e-09
-2.54957e-09
-2.51442e-09
-2.49611e-09
-2.46279e-09
-2.44564e-09
-2.43193e-09
-2.41564e-09
-2.40708e-09
-2.40927e-09
-2.41017e-09
-2.40543e-09
-2.40999e-09
-2.38415e-09
-2.35659e-09
-2.347e-09
-2.34207e-09
-2.32788e-09
-2.31863e-09
-2.31502e-09
-2.31943e-09
-2.3154e-09
-2.30155e-09
-2.27783e-09
-2.26544e-09
-2.22827e-09
-2.20691e-09
-2.18878e-09
-2.17207e-09
-2.16011e-09
-2.14393e-09
-2.13546e-09
-2.12749e-09
-2.10847e-09
-2.1005e-09
-2.09376e-09
-2.07575e-09
-2.06435e-09
-2.05337e-09
-2.02916e-09
-2.02849e-09
-2.02571e-09
-2.00503e-09
-1.99897e-09
-1.98567e-09
-1.97762e-09
-1.97147e-09
-1.95967e-09
-1.93149e-09
-1.90639e-09
-1.89772e-09
-1.86289e-09
-1.84337e-09
-1.81404e-09
-1.80293e-09
-1.80224e-09
-1.79586e-09
-1.7975e-09
-1.79128e-09
-1.79914e-09
-1.81477e-09
-1.78979e-09
-1.7688e-09
-1.76943e-09
-1.77097e-09
-1.75921e-09
-1.73657e-09
-1.70536e-09
-1.68535e-09
-1.66245e-09
-1.6281e-09
-1.60923e-09
-1.57669e-09
-1.54668e-09
-1.50714e-09
-1.48463e-09
-1.47037e-09
-1.45763e-09
-1.45352e-09
-1.44256e-09
-1.4341e-09
-1.40784e-09
-1.37672e-09
-1.3783e-09
-1.36823e-09
-1.35979e-09
-1.36939e-09
-1.36083e-09
-1.35108e-09
-1.34272e-09
-1.3354e-09
-1.3227e-09
-1.30491e-09
-1.30191e-09
-1.2926e-09
-1.2779e-09
-1.27416e-09
-1.26542e-09
-1.2332e-09
-1.20765e-09
-1.19063e-09
-1.16289e-09
-1.14147e-09
-1.12646e-09
-1.10635e-09
-1.07273e-09
-1.02812e-09
-9.99517e-10
-9.68317e-10
-9.42428e-10
-9.14099e-10
-8.71679e-10
-8.34254e-10
-8.20661e-10
-8.07507e-10
-7.81178e-10
-7.5997e-10
-7.3657e-10
-7.19856e-10
-7.01246e-10
-6.83264e-10
-6.64102e-10
-6.50078e-10
-6.48631e-10
-6.45365e-10
-6.3049e-10
-6.1757e-10
-6.04915e-10
-5.893e-10
-5.6484e-10
-5.3955e-10
-4.98162e-10
-4.57009e-10
-4.28652e-10
-3.85489e-10
-3.52256e-10
-3.30194e-10
-3.18248e-10
-3.15643e-10
-3.03593e-10
-2.69044e-10
-2.56861e-10
-2.26826e-10
-1.90493e-10
-1.54411e-10
-1.32304e-10
-1.17133e-10
-8.8399e-11
-7.25003e-11
-5.324e-11
-3.83256e-11
-1.93643e-11
-2.3581e-12
-2.91609e-09
-2.90926e-09
-2.87925e-09
-2.89179e-09
-2.88045e-09
-2.84766e-09
-2.82871e-09
-2.81109e-09
-2.78681e-09
-2.74745e-09
-2.73531e-09
-2.72259e-09
-2.71399e-09
-2.71598e-09
-2.71635e-09
-2.71339e-09
-2.71469e-09
-2.72039e-09
-2.72649e-09
-2.71906e-09
-2.71179e-09
-2.69188e-09
-2.68286e-09
-2.67677e-09
-2.68306e-09
-2.69481e-09
-2.68138e-09
-2.67753e-09
-2.67624e-09
-2.69388e-09
-2.71606e-09
-2.71372e-09
-2.72262e-09
-2.73369e-09
-2.74032e-09
-2.74072e-09
-2.73454e-09
-2.72271e-09
-2.70148e-09
-2.69625e-09
-2.70961e-09
-2.70242e-09
-2.70114e-09
-2.69783e-09
-2.68256e-09
-2.65586e-09
-2.6248e-09
-2.58989e-09
-2.54161e-09
-2.50486e-09
-2.48799e-09
-2.44947e-09
-2.43993e-09
-2.43646e-09
-2.42479e-09
-2.41718e-09
-2.41985e-09
-2.41788e-09
-2.40992e-09
-2.41889e-09
-2.39795e-09
-2.36228e-09
-2.35765e-09
-2.36509e-09
-2.35001e-09
-2.33317e-09
-2.32907e-09
-2.33035e-09
-2.31869e-09
-2.30278e-09
-2.28284e-09
-2.25356e-09
-2.22363e-09
-2.20792e-09
-2.18252e-09
-2.16395e-09
-2.15882e-09
-2.15384e-09
-2.14485e-09
-2.12002e-09
-2.10371e-09
-2.1058e-09
-2.10185e-09
-2.08447e-09
-2.06763e-09
-2.06309e-09
-2.03887e-09
-2.02886e-09
-2.02452e-09
-2.01503e-09
-2.01024e-09
-1.99322e-09
-1.98904e-09
-1.96959e-09
-1.95986e-09
-1.91912e-09
-1.90971e-09
-1.89391e-09
-1.86138e-09
-1.84587e-09
-1.81304e-09
-1.80434e-09
-1.80562e-09
-1.79213e-09
-1.79122e-09
-1.78742e-09
-1.79442e-09
-1.79985e-09
-1.78602e-09
-1.76384e-09
-1.7729e-09
-1.76122e-09
-1.74183e-09
-1.72642e-09
-1.70221e-09
-1.6743e-09
-1.65653e-09
-1.62332e-09
-1.59554e-09
-1.56393e-09
-1.53667e-09
-1.51122e-09
-1.49369e-09
-1.49052e-09
-1.47536e-09
-1.46627e-09
-1.45821e-09
-1.43802e-09
-1.40389e-09
-1.38689e-09
-1.37512e-09
-1.36687e-09
-1.36081e-09
-1.36509e-09
-1.34788e-09
-1.34709e-09
-1.35218e-09
-1.34493e-09
-1.31689e-09
-1.30563e-09
-1.29524e-09
-1.30116e-09
-1.29447e-09
-1.28103e-09
-1.27519e-09
-1.25e-09
-1.2206e-09
-1.17819e-09
-1.15213e-09
-1.13823e-09
-1.11372e-09
-1.09583e-09
-1.06785e-09
-1.02019e-09
-9.77937e-10
-9.64154e-10
-9.37648e-10
-9.06333e-10
-8.59165e-10
-8.2819e-10
-8.12033e-10
-7.96132e-10
-7.74123e-10
-7.54588e-10
-7.37767e-10
-7.24954e-10
-7.13355e-10
-7.00087e-10
-6.73237e-10
-6.56503e-10
-6.49948e-10
-6.3892e-10
-6.21881e-10
-6.08316e-10
-6.03888e-10
-5.98476e-10
-5.70567e-10
-5.54749e-10
-5.24721e-10
-4.73867e-10
-4.38065e-10
-4.08855e-10
-3.56447e-10
-3.29469e-10
-3.22161e-10
-3.18636e-10
-3.07694e-10
-2.7757e-10
-2.60295e-10
-2.3353e-10
-1.9084e-10
-1.61818e-10
-1.35293e-10
-1.22257e-10
-1.0295e-10
-7.63312e-11
-5.37327e-11
-3.62394e-11
-1.63878e-11
1.85949e-12
-2.90163e-09
-2.88873e-09
-2.89109e-09
-2.89602e-09
-2.86814e-09
-2.84578e-09
-2.84095e-09
-2.81704e-09
-2.78435e-09
-2.75162e-09
-2.74191e-09
-2.72446e-09
-2.71651e-09
-2.72738e-09
-2.72311e-09
-2.72006e-09
-2.71174e-09
-2.70545e-09
-2.71726e-09
-2.71541e-09
-2.71387e-09
-2.69738e-09
-2.68159e-09
-2.66515e-09
-2.66772e-09
-2.70444e-09
-2.68568e-09
-2.67331e-09
-2.66711e-09
-2.69116e-09
-2.71614e-09
-2.72336e-09
-2.72416e-09
-2.72448e-09
-2.72603e-09
-2.72962e-09
-2.71824e-09
-2.71036e-09
-2.69073e-09
-2.69428e-09
-2.70932e-09
-2.70625e-09
-2.69961e-09
-2.6928e-09
-2.67654e-09
-2.65761e-09
-2.62737e-09
-2.58906e-09
-2.54032e-09
-2.50129e-09
-2.46765e-09
-2.44292e-09
-2.42775e-09
-2.43419e-09
-2.42846e-09
-2.42336e-09
-2.42424e-09
-2.4142e-09
-2.42334e-09
-2.41677e-09
-2.39993e-09
-2.37173e-09
-2.35408e-09
-2.35642e-09
-2.36103e-09
-2.3466e-09
-2.34345e-09
-2.33805e-09
-2.32017e-09
-2.30717e-09
-2.26818e-09
-2.25795e-09
-2.23167e-09
-2.21071e-09
-2.19226e-09
-2.16417e-09
-2.16395e-09
-2.15231e-09
-2.13541e-09
-2.12603e-09
-2.11863e-09
-2.11735e-09
-2.11215e-09
-2.09308e-09
-2.07089e-09
-2.05777e-09
-2.04382e-09
-2.03097e-09
-2.03087e-09
-2.01871e-09
-2.0042e-09
-1.99474e-09
-1.98754e-09
-1.97847e-09
-1.94382e-09
-1.91729e-09
-1.90796e-09
-1.88168e-09
-1.85534e-09
-1.83556e-09
-1.81191e-09
-1.79325e-09
-1.79774e-09
-1.79788e-09
-1.79019e-09
-1.78243e-09
-1.78903e-09
-1.7883e-09
-1.78401e-09
-1.76579e-09
-1.76168e-09
-1.75279e-09
-1.73052e-09
-1.7239e-09
-1.7032e-09
-1.67864e-09
-1.65782e-09
-1.6202e-09
-1.59601e-09
-1.56094e-09
-1.52887e-09
-1.51854e-09
-1.51573e-09
-1.51264e-09
-1.4938e-09
-1.4802e-09
-1.46649e-09
-1.43781e-09
-1.41131e-09
-1.39588e-09
-1.38396e-09
-1.36713e-09
-1.34709e-09
-1.35269e-09
-1.33495e-09
-1.34671e-09
-1.34963e-09
-1.33439e-09
-1.31572e-09
-1.30767e-09
-1.31147e-09
-1.30638e-09
-1.30293e-09
-1.29067e-09
-1.2715e-09
-1.25977e-09
-1.24149e-09
-1.18506e-09
-1.13947e-09
-1.12512e-09
-1.1087e-09
-1.09237e-09
-1.06262e-09
-1.01421e-09
-9.66532e-10
-9.57934e-10
-9.43456e-10
-8.98838e-10
-8.52344e-10
-8.22226e-10
-8.07244e-10
-7.94969e-10
-7.7795e-10
-7.5182e-10
-7.33231e-10
-7.38823e-10
-7.29266e-10
-7.10758e-10
-6.77122e-10
-6.50216e-10
-6.3864e-10
-6.2567e-10
-6.11678e-10
-6.0342e-10
-6.01181e-10
-6.00852e-10
-5.80315e-10
-5.58508e-10
-5.31967e-10
-4.89375e-10
-4.61756e-10
-4.1484e-10
-3.62731e-10
-3.38948e-10
-3.31403e-10
-3.22255e-10
-3.00744e-10
-2.69424e-10
-2.5565e-10
-2.32823e-10
-2.05322e-10
-1.75072e-10
-1.46971e-10
-1.30473e-10
-1.06068e-10
-8.38184e-11
-5.45444e-11
-2.88336e-11
-3.3895e-12
-2.64872e-12
-2.90044e-09
-2.90482e-09
-2.89394e-09
-2.88387e-09
-2.86511e-09
-2.83955e-09
-2.83633e-09
-2.82406e-09
-2.78355e-09
-2.75942e-09
-2.74595e-09
-2.72187e-09
-2.72181e-09
-2.72272e-09
-2.72484e-09
-2.71739e-09
-2.7025e-09
-2.69423e-09
-2.71131e-09
-2.7256e-09
-2.72375e-09
-2.70321e-09
-2.67928e-09
-2.66255e-09
-2.68016e-09
-2.69577e-09
-2.69035e-09
-2.68319e-09
-2.68077e-09
-2.7055e-09
-2.71871e-09
-2.71917e-09
-2.72507e-09
-2.72369e-09
-2.71639e-09
-2.71597e-09
-2.71341e-09
-2.69168e-09
-2.68592e-09
-2.69068e-09
-2.70052e-09
-2.71019e-09
-2.69455e-09
-2.6898e-09
-2.66725e-09
-2.65541e-09
-2.62681e-09
-2.58937e-09
-2.534e-09
-2.4999e-09
-2.47259e-09
-2.44224e-09
-2.42761e-09
-2.42807e-09
-2.42873e-09
-2.42721e-09
-2.42451e-09
-2.41047e-09
-2.42102e-09
-2.39997e-09
-2.38862e-09
-2.37122e-09
-2.3563e-09
-2.3562e-09
-2.36114e-09
-2.35878e-09
-2.34864e-09
-2.3415e-09
-2.31717e-09
-2.29535e-09
-2.26838e-09
-2.24853e-09
-2.23482e-09
-2.20904e-09
-2.18234e-09
-2.17299e-09
-2.16348e-09
-2.15344e-09
-2.13665e-09
-2.12508e-09
-2.12271e-09
-2.13088e-09
-2.11847e-09
-2.09489e-09
-2.07486e-09
-2.05435e-09
-2.05137e-09
-2.04743e-09
-2.02091e-09
-2.01782e-09
-2.01112e-09
-1.9933e-09
-1.98118e-09
-1.9653e-09
-1.94378e-09
-1.91369e-09
-1.89669e-09
-1.86585e-09
-1.83547e-09
-1.81989e-09
-1.81098e-09
-1.80089e-09
-1.8003e-09
-1.80732e-09
-1.7942e-09
-1.77856e-09
-1.78781e-09
-1.78878e-09
-1.78151e-09
-1.77203e-09
-1.7751e-09
-1.75167e-09
-1.72283e-09
-1.72805e-09
-1.70368e-09
-1.6735e-09
-1.65444e-09
-1.62194e-09
-1.58792e-09
-1.56808e-09
-1.5478e-09
-1.52388e-09
-1.52339e-09
-1.50566e-09
-1.50416e-09
-1.48704e-09
-1.45864e-09
-1.43174e-09
-1.40645e-09
-1.39587e-09
-1.38554e-09
-1.37502e-09
-1.33421e-09
-1.34553e-09
-1.34291e-09
-1.34319e-09
-1.34062e-09
-1.32877e-09
-1.32077e-09
-1.32237e-09
-1.32282e-09
-1.30506e-09
-1.28563e-09
-1.28829e-09
-1.28487e-09
-1.25469e-09
-1.22541e-09
-1.1939e-09
-1.14001e-09
-1.12243e-09
-1.09544e-09
-1.07397e-09
-1.05735e-09
-1.01308e-09
-9.78553e-10
-9.57197e-10
-9.48122e-10
-9.12104e-10
-8.61202e-10
-8.48417e-10
-8.28725e-10
-8.08913e-10
-7.86181e-10
-7.68693e-10
-7.50521e-10
-7.40947e-10
-7.22858e-10
-7.06869e-10
-6.73971e-10
-6.42977e-10
-6.28289e-10
-6.16408e-10
-6.05199e-10
-6.11251e-10
-6.04468e-10
-5.9061e-10
-5.71688e-10
-5.60089e-10
-5.30877e-10
-4.9587e-10
-4.6205e-10
-4.25562e-10
-3.87307e-10
-3.5408e-10
-3.37302e-10
-3.17924e-10
-2.93759e-10
-2.68251e-10
-2.49272e-10
-2.29856e-10
-2.02844e-10
-1.74648e-10
-1.44723e-10
-1.2554e-10
-1.05254e-10
-9.38501e-11
-6.04629e-11
-3.41887e-11
-1.65583e-11
-4.92346e-12
-2.89552e-09
-2.90704e-09
-2.89251e-09
-2.87821e-09
-2.86446e-09
-2.84205e-09
-2.83465e-09
-2.82089e-09
-2.78575e-09
-2.76153e-09
-2.74922e-09
-2.73543e-09
-2.71643e-09
-2.71608e-09
-2.72432e-09
-2.71283e-09
-2.70749e-09
-2.7121e-09
-2.71156e-09
-2.71093e-09
-2.71361e-09
-2.70562e-09
-2.69301e-09
-2.68035e-09
-2.69314e-09
-2.69905e-09
-2.71192e-09
-2.70306e-09
-2.68775e-09
-2.71379e-09
-2.71886e-09
-2.7172e-09
-2.71604e-09
-2.71162e-09
-2.71756e-09
-2.72351e-09
-2.71357e-09
-2.68564e-09
-2.67937e-09
-2.69726e-09
-2.69941e-09
-2.69251e-09
-2.68347e-09
-2.6693e-09
-2.65511e-09
-2.63783e-09
-2.61462e-09
-2.57886e-09
-2.53549e-09
-2.4949e-09
-2.47698e-09
-2.45728e-09
-2.44062e-09
-2.43633e-09
-2.44095e-09
-2.43591e-09
-2.43234e-09
-2.41392e-09
-2.4039e-09
-2.39539e-09
-2.38151e-09
-2.36339e-09
-2.35956e-09
-2.37062e-09
-2.37227e-09
-2.37038e-09
-2.35685e-09
-2.33383e-09
-2.31043e-09
-2.28818e-09
-2.26879e-09
-2.24873e-09
-2.22924e-09
-2.21023e-09
-2.18442e-09
-2.16372e-09
-2.16498e-09
-2.16088e-09
-2.14946e-09
-2.14376e-09
-2.13663e-09
-2.13104e-09
-2.11512e-09
-2.0981e-09
-2.06519e-09
-2.04121e-09
-2.05317e-09
-2.04754e-09
-2.03512e-09
-2.02671e-09
-2.00335e-09
-1.98918e-09
-1.97722e-09
-1.94685e-09
-1.93082e-09
-1.90421e-09
-1.86812e-09
-1.84739e-09
-1.83494e-09
-1.82712e-09
-1.81175e-09
-1.80585e-09
-1.80645e-09
-1.81524e-09
-1.80432e-09
-1.79229e-09
-1.77973e-09
-1.78711e-09
-1.79383e-09
-1.79376e-09
-1.77322e-09
-1.74751e-09
-1.73728e-09
-1.72608e-09
-1.7066e-09
-1.6827e-09
-1.64782e-09
-1.61149e-09
-1.58757e-09
-1.57058e-09
-1.5392e-09
-1.52347e-09
-1.52192e-09
-1.49815e-09
-1.49222e-09
-1.47577e-09
-1.45103e-09
-1.43282e-09
-1.41202e-09
-1.39591e-09
-1.37296e-09
-1.35731e-09
-1.34114e-09
-1.33793e-09
-1.33618e-09
-1.3356e-09
-1.33752e-09
-1.33602e-09
-1.3268e-09
-1.32399e-09
-1.32043e-09
-1.30954e-09
-1.30142e-09
-1.29633e-09
-1.28193e-09
-1.252e-09
-1.21671e-09
-1.17678e-09
-1.13521e-09
-1.11382e-09
-1.0895e-09
-1.06307e-09
-1.04172e-09
-1.0211e-09
-1.00058e-09
-9.81633e-10
-9.60035e-10
-9.28321e-10
-8.92611e-10
-8.67749e-10
-8.48001e-10
-8.22133e-10
-7.9685e-10
-7.80933e-10
-7.58685e-10
-7.39442e-10
-7.1356e-10
-6.90193e-10
-6.58257e-10
-6.29635e-10
-6.2983e-10
-6.09639e-10
-5.92106e-10
-6.00829e-10
-5.93892e-10
-5.86656e-10
-5.61845e-10
-5.36528e-10
-5.25235e-10
-4.84317e-10
-4.67534e-10
-4.40406e-10
-3.93025e-10
-3.62303e-10
-3.26422e-10
-3.17453e-10
-2.8912e-10
-2.60339e-10
-2.38678e-10
-2.2043e-10
-2.04235e-10
-1.70459e-10
-1.39123e-10
-1.22863e-10
-1.03343e-10
-9.25933e-11
-6.25701e-11
-3.786e-11
-1.87802e-11
-3.8047e-12
-2.87953e-09
-2.91364e-09
-2.89554e-09
-2.87386e-09
-2.87086e-09
-2.84422e-09
-2.82216e-09
-2.81003e-09
-2.78819e-09
-2.76077e-09
-2.74438e-09
-2.73696e-09
-2.71995e-09
-2.71557e-09
-2.70667e-09
-2.69631e-09
-2.70893e-09
-2.71775e-09
-2.71646e-09
-2.71614e-09
-2.71064e-09
-2.71318e-09
-2.70475e-09
-2.69023e-09
-2.69952e-09
-2.70738e-09
-2.71752e-09
-2.72225e-09
-2.6987e-09
-2.71281e-09
-2.7207e-09
-2.7146e-09
-2.71684e-09
-2.71497e-09
-2.72022e-09
-2.72141e-09
-2.70801e-09
-2.69228e-09
-2.68383e-09
-2.69603e-09
-2.70378e-09
-2.68908e-09
-2.67338e-09
-2.64517e-09
-2.62884e-09
-2.6092e-09
-2.59629e-09
-2.56587e-09
-2.52741e-09
-2.49925e-09
-2.48623e-09
-2.47224e-09
-2.4523e-09
-2.4484e-09
-2.4624e-09
-2.45571e-09
-2.44951e-09
-2.41902e-09
-2.40008e-09
-2.40644e-09
-2.38724e-09
-2.3791e-09
-2.37747e-09
-2.38718e-09
-2.38325e-09
-2.37287e-09
-2.35769e-09
-2.32645e-09
-2.30506e-09
-2.27232e-09
-2.24824e-09
-2.23409e-09
-2.22483e-09
-2.20883e-09
-2.17941e-09
-2.15867e-09
-2.15987e-09
-2.16223e-09
-2.15844e-09
-2.15553e-09
-2.1272e-09
-2.11639e-09
-2.1095e-09
-2.09564e-09
-2.07635e-09
-2.05416e-09
-2.04946e-09
-2.05279e-09
-2.04341e-09
-2.02957e-09
-1.99904e-09
-1.98484e-09
-1.9717e-09
-1.94753e-09
-1.91564e-09
-1.88364e-09
-1.86016e-09
-1.84641e-09
-1.84447e-09
-1.83327e-09
-1.81764e-09
-1.81275e-09
-1.82418e-09
-1.82865e-09
-1.82111e-09
-1.79101e-09
-1.77853e-09
-1.78471e-09
-1.80361e-09
-1.79806e-09
-1.77551e-09
-1.75388e-09
-1.75106e-09
-1.7354e-09
-1.71183e-09
-1.67472e-09
-1.64182e-09
-1.6069e-09
-1.58526e-09
-1.56479e-09
-1.54176e-09
-1.52382e-09
-1.51844e-09
-1.50138e-09
-1.48718e-09
-1.47395e-09
-1.44467e-09
-1.43439e-09
-1.40482e-09
-1.39101e-09
-1.36868e-09
-1.34839e-09
-1.33619e-09
-1.32755e-09
-1.3299e-09
-1.34635e-09
-1.35043e-09
-1.3538e-09
-1.34298e-09
-1.33771e-09
-1.32638e-09
-1.31712e-09
-1.30317e-09
-1.28017e-09
-1.26888e-09
-1.24141e-09
-1.19144e-09
-1.15252e-09
-1.12405e-09
-1.10436e-09
-1.08142e-09
-1.0583e-09
-1.03417e-09
-1.02005e-09
-1.01265e-09
-9.97321e-10
-9.7409e-10
-9.4581e-10
-9.09791e-10
-8.85055e-10
-8.60875e-10
-8.32219e-10
-8.03492e-10
-7.9003e-10
-7.67079e-10
-7.46671e-10
-7.13275e-10
-6.81946e-10
-6.47056e-10
-6.17694e-10
-6.1003e-10
-5.97985e-10
-5.98554e-10
-6.02056e-10
-5.94355e-10
-5.81571e-10
-5.5787e-10
-5.34974e-10
-5.08702e-10
-4.76887e-10
-4.80164e-10
-4.40999e-10
-3.9138e-10
-3.48874e-10
-3.11136e-10
-3.15126e-10
-2.91478e-10
-2.6027e-10
-2.31252e-10
-2.03359e-10
-1.93283e-10
-1.60679e-10
-1.34467e-10
-1.17952e-10
-1.03057e-10
-9.02546e-11
-6.18769e-11
-3.90976e-11
-1.58206e-11
3.61117e-12
-2.87807e-09
-2.90263e-09
-2.89664e-09
-2.86799e-09
-2.85908e-09
-2.84393e-09
-2.82188e-09
-2.80254e-09
-2.78079e-09
-2.75843e-09
-2.74527e-09
-2.73552e-09
-2.72308e-09
-2.70252e-09
-2.69169e-09
-2.70019e-09
-2.71639e-09
-2.73679e-09
-2.72915e-09
-2.71633e-09
-2.71537e-09
-2.71147e-09
-2.71553e-09
-2.70691e-09
-2.70009e-09
-2.71421e-09
-2.74013e-09
-2.73955e-09
-2.70478e-09
-2.70821e-09
-2.71936e-09
-2.71639e-09
-2.72068e-09
-2.72078e-09
-2.71998e-09
-2.72267e-09
-2.70821e-09
-2.69722e-09
-2.69359e-09
-2.69196e-09
-2.70183e-09
-2.68969e-09
-2.66666e-09
-2.63669e-09
-2.60166e-09
-2.59157e-09
-2.58232e-09
-2.55675e-09
-2.52624e-09
-2.50512e-09
-2.50032e-09
-2.47573e-09
-2.46295e-09
-2.46346e-09
-2.46541e-09
-2.46518e-09
-2.46302e-09
-2.43307e-09
-2.41675e-09
-2.42741e-09
-2.40906e-09
-2.38938e-09
-2.3842e-09
-2.39237e-09
-2.38732e-09
-2.3727e-09
-2.35124e-09
-2.32769e-09
-2.29559e-09
-2.26956e-09
-2.2435e-09
-2.22314e-09
-2.21497e-09
-2.20232e-09