/*--------------------------------*- C++ -*----------------------------------*\
  =========                 |
  \\      /  F ield         | OpenFOAM: The Open Source CFD Toolbox
   \\    /   O peration     | Website:  https://openfoam.org
    \\  /    A nd           | Version:  6
     \\/     M anipulation  |
\*---------------------------------------------------------------------------*/
FoamFile
{
    version     2.0;
    format      ascii;
    class       surfaceScalarField;
    location    "110";
    object      phi;
}
// * * * * * * * * * * * * * * * * * * * * * * * * * * * * * * * * * * * * * //

dimensions      [0 3 -1 0 0 0 0];

internalField   nonuniform List<scalar> 
7780
(
2
1.63394e-16
2
2.51129e-16
2
2.20304e-16
2
3.77378e-16
2
4.12199e-16
2
2.27376e-16
2
3.2728e-16
2
3.21261e-16
2
2.74686e-16
2
1.78939e-16
2
2.20906e-16
2
1.37357e-17
2
4.66789e-17
2
-9.76773e-17
2
-1.63302e-16
2
-9.10797e-18
2
-1.04825e-16
2
-1.54243e-16
2
-1.75827e-17
2
3.53235e-16
2
2.22166e-16
2
3.56375e-16
2
2.69854e-16
2
2.87185e-16
2
2.2855e-16
2
3.16506e-16
2
1.30609e-16
2
2.3833e-16
2
4.0667e-16
2
3.37519e-16
2
3.92551e-16
2
3.58827e-16
2
2.39121e-16
2
-1.17103e-18
2
1.02417e-16
2
1.93146e-16
2
1.29485e-16
2
1.1844e-16
2
2.75455e-16
2
1.73446e-16
2
1.92171e-16
2
1.53494e-16
2
6.92394e-17
2
-6.49178e-18
2
8.62952e-17
2
7.72349e-17
2
1.96905e-16
2
1.21418e-16
2
8.69009e-17
2
7.79728e-17
2
2.36494e-16
2
2.74664e-16
2
8.57665e-17
2
7.72738e-17
2
-4.91859e-17
2
4.19718e-17
2
-1.11398e-17
2
5.17772e-17
2
6.77584e-17
2
4.20965e-17
2
8.32668e-17
2
-9.35498e-17
2
1.71487e-17
2
-2.90835e-17
2
7.23635e-17
2
5.13391e-17
2
5.04198e-17
2
2.58103e-17
2
1.09623e-16
2
1.11122e-16
2
1.80976e-16
2
1.83667e-16
2
2.30941e-16
2
-5.93334e-17
2
-1.44709e-16
2
-3.42283e-17
2
-1.32794e-16
2
1.15913e-16
2
1.688e-16
2
5.15009e-17
2
9.50546e-17
2
1.14605e-16
2
-2.46838e-17
2
5.49903e-17
2
2.48045e-16
2
2.40792e-16
2
3.54682e-16
2
2.31549e-16
2
8.55525e-18
2
3.25514e-17
2
1.4443e-16
2
1.08568e-16
2
1.7826e-17
2
-4.46527e-17
2
1.61066e-16
2
2.3387e-16
2
1.15568e-16
2
1.20284e-16
2
1.10142e-16
2
2.7297e-16
2
8.57326e-17
2
5.43653e-17
2
6.58252e-17
2
1.85772e-16
2
1.18947e-16
2
-1.03694e-17
2
-3.48629e-17
2
2.99181e-17
2
6.09529e-17
2
2.07449e-16
2
1.36163e-16
2
2.13501e-16
2
3.05957e-16
2
2.91219e-16
2
3.7861e-16
2
3.25513e-16
2
1.57817e-16
2
-1.9274e-17
2
-2.97801e-18
2
4.05132e-17
2
1.30206e-16
2
1.10647e-16
2
-1.09628e-16
2
-2.80906e-16
2
-1.92843e-16
2
-2.75407e-16
2
-2.00035e-16
2
-2.11546e-16
2
-3.20643e-16
2
-1.48142e-16
2
4.46334e-17
2
3.07018e-17
2
-1.39952e-16
2
-2.25342e-16
2
-1.2275e-16
2
-2.4175e-16
2
-2.53843e-16
2
-1.48975e-16
2
-1.73681e-16
2
-1.71529e-16
2
-1.6772e-17
2
-1.91001e-16
2
-1.20065e-16
2
-1.47413e-16
2
-1.22437e-16
2
-1.62437e-16
2
-1.24563e-16
2
-2.19953e-16
2
-4.5218e-17
2
-2.81649e-17
2
4.83062e-17
2
1.00095e-16
2
1.43666e-16
2
3.31469e-16
2
2.30159e-16
2
1.62105e-16
2
2.93302e-16
2
1.57277e-16
2
2.49871e-17
2
-3.93857e-18
2
3.63332e-17
2
1.42272e-16
2
4.98817e-16
2
2.18442e-16
2
2.01275e-16
2
2.65139e-16
2
2.26164e-16
2
4.48464e-16
2
2.46614e-16
2
1.13917e-16
2
1.56028e-16
2
2.59596e-16
2
2.22658e-16
2
2.48168e-16
2
9.77407e-17
2
1.52575e-16
2
8.2871e-17
2
1.51381e-16
2
1.00332e-16
2
7.55432e-17
2
2.0273e-16
2
4.78048e-17
2
1.92876e-16
2
1.66731e-16
2
-1.8986e-17
2
-7.53203e-17
2
-1.61733e-16
2
-1.3581e-16
2
-3.71171e-17
2
1.35304e-16
2
1.42346e-16
2
1.92294e-16
2
2.22499e-16
2
-6.19351e-17
2
-1.80007e-17
2
1.36083e-16
2
2.31749e-16
2
1.13177e-16
2
1.48062e-16
2.05235e-16
2
-1.32204e-16
2
-4.21552e-17
2
1.8642e-16
2
1.64823e-16
2
2.27939e-16
2
5.11974e-16
2
5.45769e-16
2
5.89582e-16
2
3.96394e-16
2
4.29679e-16
2
1.42294e-16
2
-1.79856e-17
2
-6.0983e-17
2
1.70969e-17
2
1.83686e-17
2
-1.16089e-16
2
-1.00517e-16
2
2.27869e-16
2
2.57897e-16
2
1.29877e-16
2
1.71954e-16
2
2.23268e-16
2
3.43126e-16
2
2.67782e-16
2
4.4675e-16
2
3.11859e-16
2
1.75909e-16
2
1.42916e-16
2
3.87039e-16
2
3.57204e-16
2
2.71496e-16
2
2.49087e-16
2
1.78702e-16
2
2.66217e-16
2
-3.38964e-17
2
2.75388e-17
2
1.56598e-16
2
1.56483e-16
2
8.34383e-17
2
7.62832e-17
2
7.99563e-17
2
-9.90938e-17
2
-1.26106e-16
2
-1.50467e-16
2
-1.88808e-16
2
4.57751e-17
2
6.41138e-17
2
1.1301e-17
2
-9.23163e-17
2
-8.41773e-17
2
9.23079e-17
2
7.26197e-17
2
-6.81906e-17
2
-4.10713e-17
2
-1.5428e-17
2
-9.68813e-17
2
-5.55222e-17
2
9.70377e-17
2
-1.84086e-17
2
5.2106e-17
2
-1.14346e-18
2
8.87034e-17
2
1.84742e-16
2
1.47672e-16
2
5.31706e-17
2
1.33587e-16
2
1.25469e-16
2
5.93391e-17
2
1.73647e-16
2
2.03158e-16
2
1.14653e-16
2
-1.46782e-17
2
-6.99025e-17
2
-4.51067e-18
2
-1.49186e-16
2
-1.18852e-16
2
-2.59311e-16
2
1.15582e-17
2
4.00565e-17
2
-1.15431e-17
2
-6.29326e-17
2
5.3482e-17
2
3.64223e-17
2
-2.64002e-17
2
8.87829e-17
2
9.13544e-17
2
6.71173e-17
2
-2.66693e-18
2
1.87426e-16
2
9.93122e-17
2
-3.601e-17
2
3.38128e-17
2
-1.06562e-16
2
7.85042e-17
2
8.63717e-17
2
2.34733e-17
2
2.16719e-16
2
1.71653e-16
2
2.08313e-16
2
1.80911e-16
2
1.04519e-16
2
5.30332e-17
2
4.17967e-17
2
2.57605e-16
2
1.71995e-16
2
-2.16161e-18
2
4.08783e-17
2
1.21043e-16
2
1.13214e-17
2
8.09745e-17
2
4.75363e-17
2
1.20068e-17
2
1.07376e-16
2
2.85691e-16
2
2.01576e-16
2
6.82505e-17
2
2.77572e-16
2
2.15194e-16
2
1.87154e-16
2
1.96606e-16
2
-7.48741e-17
2
-5.16146e-17
2
1.65785e-16
2
3.20833e-18
2
-1.38593e-16
2
-1.521e-16
2
-1.04291e-16
2
-2.30264e-16
2
-2.02714e-17
2
-5.4258e-17
2
-2.00924e-16
2
-1.16583e-17
2
-1.19966e-16
2
-1.50782e-16
2
-1.17042e-16
2
-9.89501e-17
2
-2.20632e-16
2
-2.13733e-16
2
-2.77702e-16
2
-3.19431e-16
2
-3.24748e-16
2
-2.68212e-16
2
-2.904e-16
2
-3.65522e-16
2
-2.35515e-16
2
-2.19147e-16
2
-3.39972e-16
2
-2.70728e-16
2
-2.12965e-17
2
1.68136e-16
2
-2.55098e-17
2
6.41359e-17
2
1.63568e-16
2
2.12326e-16
2
1.30125e-16
2
1.07398e-16
2
-1.50423e-17
2
2.76789e-16
2
3.94992e-16
2
4.43834e-16
2
5.00223e-16
2
3.51396e-16
2
1.58684e-16
2
1.92362e-16
2
2.02157e-16
2
4.92958e-17
2
3.44361e-17
2
-6.81966e-17
2
2.24727e-16
2
4.17771e-16
2
1.3521e-16
2
2.50989e-16
2
1.03174e-16
2
2.95233e-16
2
2.39742e-16
2
1.37723e-16
2
1.09164e-16
2
1.04942e-16
2
6.65466e-18
2
1.06484e-17
2
1.00195e-16
2
1.38534e-16
2
8.68958e-17
2
2.04642e-16
2
3.08514e-16
2
1.69241e-16
2
1.36042e-16
2
-4.76498e-17
2
-2.8112e-17
2
3.35796e-16
2
2.84871e-16
2
2.30922e-16
2
2.42116e-16
2
3.1125e-16
2
2.37477e-16
2
-1.38913e-16
2
-2.3806e-16
2
-8.9146e-17
2
3.44321e-16
4.38957e-16
2
-3.85346e-17
2
-2.58899e-17
2
2.07943e-16
2
2.10643e-16
2
3.4666e-16
2
4.94843e-16
2
4.0221e-16
2
2.90284e-16
2
4.64442e-16
2
2.72083e-16
2
5.06223e-17
2
3.51323e-17
2
-7.54395e-17
2
-6.70788e-17
2
5.70604e-17
2
1.42128e-16
2
1.64483e-16
2
1.38887e-16
2
1.13883e-16
2
1.4521e-16
2
8.87772e-17
2
3.99996e-17
2
2.11922e-16
2
5.1623e-16
2
4.9201e-16
2
3.79092e-16
2
2.57552e-16
2
3.20921e-16
2
3.42906e-16
2
1.8669e-16
2
2.14702e-16
2
1.34545e-16
2
2.15334e-16
2
3.16728e-16
2
2.18885e-16
2
1.00305e-16
2
1.92484e-16
2
1.48159e-16
2
-6.66827e-17
2
-2.66506e-16
2
-1.66379e-16
2
9.13095e-17
2
-1.24734e-16
2
-8.80189e-17
2
-1.80748e-16
2
-6.19886e-17
2
-2.77869e-17
2
-6.4379e-18
2
6.95856e-17
2
5.13453e-17
2
-1.91126e-16
2
5.15572e-17
2
2.68928e-17
2
-1.27583e-16
2
-6.70006e-17
2
-1.59798e-16
2
-4.07923e-17
2
7.10873e-17
2
7.31643e-17
2
9.35616e-17
2
-1.14469e-17
2
9.80708e-17
2
-6.74819e-17
2
-1.65091e-16
2
-1.24435e-16
2
-1.20133e-16
2
-1.46799e-16
2
-3.25769e-17
2
-6.49024e-17
2
-3.52355e-18
2
3.13255e-17
2
1.11346e-16
2
-1.42735e-17
2
-1.18235e-16
2
-9.4523e-17
2
-3.7012e-16
2
-2.22475e-16
2
-2.50602e-16
2
7.04437e-18
2
2.17558e-16
2
3.09742e-16
2
1.02095e-18
2
1.11654e-16
2
1.04266e-16
2
-1.7816e-17
2
-6.28203e-17
2
-1.37837e-16
2
4.77442e-17
2
1.52734e-16
2
5.23296e-17
2
5.21892e-17
2
-1.4565e-16
2
9.21558e-17
2
7.54968e-17
2
6.88838e-17
2
5.30713e-17
2
1.5639e-16
2
2.10618e-16
2
1.20415e-16
2
9.78504e-17
2
6.85469e-17
2
-9.80051e-17
2
1.11677e-16
2
-5.59586e-17
2
-5.2903e-18
2
3.18464e-17
2
-4.71632e-17
2
-2.71584e-16
2
-4.50638e-17
2
-9.55739e-17
2
-1.01425e-16
2
2.50597e-17
2
2.38721e-16
2
-3.2345e-17
2
4.08056e-17
2
-1.93303e-18
2
-7.20722e-17
2
7.44438e-17
2
-1.39348e-16
2
-5.71041e-17
2
9.41875e-17
2
9.74311e-17
2
-8.24156e-17
2
1.23291e-16
2
-1.05711e-17
2
-9.32864e-17
2
-1.5702e-16
2
2.36702e-17
2
1.1984e-17
2
-2.10158e-17
2
-7.57721e-17
2
-2.89252e-16
2
-9.02807e-17
2
1.05969e-16
2
-1.91816e-17
2
-1.56294e-16
2
-7.47148e-17
2
9.91835e-17
2
-1.5198e-16
2
-2.50061e-16
2
-2.32319e-16
2
-2.45851e-16
2
-4.43311e-16
2
-2.60579e-16
2
-2.72632e-16
2
-2.25868e-16
2
-2.26396e-16
2
-2.65467e-16
2
-2.26952e-16
2
-1.02265e-16
2
8.17311e-17
2
1.64049e-16
2
3.4605e-17
2
6.15668e-17
2
1.99744e-16
2
2.71101e-16
2
2.39682e-16
2
2.01167e-16
2
3.78959e-16
2
3.22011e-16
2
3.42908e-16
2
3.61428e-16
2
2.69981e-16
2
4.22549e-16
2
5.32782e-16
2
4.47394e-16
2
2.86064e-16
2
2.09839e-16
2
2.81003e-16
2
3.28752e-16
2
2.91626e-16
2
3.8568e-17
2
1.45257e-16
2
5.4347e-17
2
2.74399e-16
2
2.78302e-16
2
2.45132e-16
2
3.39451e-16
2
4.34593e-16
2
4.04081e-16
2
2.88814e-16
2
1.37707e-16
2
1.10032e-16
2
2.1016e-16
2
4.31291e-16
2
2.52261e-16
2
2.83755e-16
2
4.35847e-16
2
3.42021e-16
2
1.30393e-16
2
1.8792e-16
2
2.42984e-16
2
1.95484e-16
2
3.71111e-16
2
-5.44577e-17
2
4.86565e-17
2
3.44405e-17
2
8.87264e-17
2
6.0676e-18
5.45762e-17
2
4.22047e-17
2
6.6129e-17
2
1.13114e-16
2
3.04983e-16
2
3.34478e-16
2
4.48895e-16
2
3.10756e-16
2
2.51013e-16
2
1.59736e-16
2
2.03376e-16
2
2.67769e-16
2
2.76343e-16
2
2.60234e-16
2
1.68795e-16
2
5.68613e-17
2
4.40285e-17
2
1.00113e-16
2
5.63878e-17
2
1.50456e-16
2
1.26516e-16
2
1.21332e-16
2
1.74202e-16
2
1.09739e-16
2
2.95878e-16
2
2.69513e-16
2
1.73056e-16
2
3.52975e-16
2
2.79035e-16
2
8.95765e-17
2
2.12124e-16
2
2.19769e-16
2
1.30336e-16
2
1.82954e-16
2
2.45027e-16
2
4.45779e-16
2
4.40132e-16
2
-6.69117e-18
2
-7.812e-17
2
-7.125e-17
2
3.29187e-19
2
-7.11326e-17
2
5.70953e-18
2
1.00845e-16
2
4.37692e-17
2
1.35877e-17
2
-2.09168e-17
2
-4.45839e-17
2
-1.9265e-17
2
1.22249e-17
2
1.06964e-16
2
1.1943e-16
2
1.41129e-16
2
7.98163e-17
2
-6.96e-17
2
-9.12986e-17
2
-1.31618e-16
2
1.20079e-16
2
-1.46099e-17
2
1.68658e-16
2
1.20665e-16
2
1.67343e-16
2
1.13672e-16
2
-1.08057e-16
2
-8.91032e-17
2
-1.83745e-16
2
-1.91336e-16
2
-1.49614e-16
2
-6.51238e-18
2
4.15946e-18
2
-7.56869e-17
2
-1.6051e-16
2
-5.58617e-17
2
-5.37542e-17
2
-6.0981e-17
2
-1.28943e-16
2
-2.38296e-16
2
-1.30418e-16
2
-2.51467e-17
2
-2.05623e-16
2
6.3217e-17
2
5.82103e-17
2
2.08952e-16
2
-3.18879e-17
2
4.95843e-17
2
-3.74797e-17
2
-2.00947e-17
2
1.87853e-17
2
1.21206e-16
2
2.11478e-16
2
-2.21872e-18
2
4.6148e-17
2
5.00828e-17
2
-1.27504e-16
2
-7.40436e-18
2
1.74598e-16
2
2.24691e-16
2
-5.48042e-17
2
5.06431e-17
2
-4.88485e-17
2
6.98726e-19
2
-1.6414e-17
2
1.24383e-16
2
-4.65903e-17
2
1.38195e-16
2
9.01296e-17
2
5.34885e-17
2
-8.85533e-17
2
6.28975e-17
2
2.71552e-17
2
6.39896e-18
2
2.15856e-17
2
3.536e-17
2
-6.97605e-17
2
5.69881e-17
2
-3.5364e-17
2
9.59378e-17
2
1.65852e-17
2
5.83904e-17
2
2.76488e-16
2
9.09246e-17
2
3.1681e-17
2
-6.2279e-17
2
-1.05705e-16
2
1.11627e-17
2
-1.24825e-16
2
-9.09262e-17
2
8.85597e-17
2
-5.53875e-17
2
5.06485e-17
2
8.92253e-17
2
6.23555e-17
2
2.41026e-16
2
1.70269e-16
2
4.47912e-19
2
8.36767e-17
2
5.18889e-17
2
2.49206e-16
2
-1.92726e-17
2
1.65855e-16
2
-1.03689e-16
2
-6.97925e-17
2
-2.54384e-16
2
-3.62089e-16
2
-2.5343e-16
2
-2.1125e-16
2
-1.629e-16
2
-2.3999e-16
2
-2.73444e-16
2
-2.22201e-16
2
-1.17692e-16
2
-1.38121e-16
2
-3.32415e-16
2
-1.27436e-16
2
2.08757e-17
2
-8.53301e-17
2
-5.3991e-17
2
-6.04014e-17
2
1.93594e-17
2
1.02158e-16
2
1.81505e-16
2
5.37419e-17
2
2.47534e-16
2
3.21622e-16
2
3.9139e-16
2
2.22181e-16
2
1.99833e-16
2
3.29288e-16
2
3.30292e-16
2
2.72264e-16
2
3.42513e-16
2
2.7119e-16
2
6.15732e-17
2
-7.41561e-17
2
2.44083e-16
2
3.16211e-16
2
2.48335e-16
2
4.48376e-16
2
2.87094e-16
2
2.2238e-16
2
1.37337e-16
2
2.47871e-16
2
2.63784e-16
2
3.05385e-16
2
9.28302e-17
2
1.15069e-16
2
3.39979e-16
2
2.89885e-16
2
2.94031e-16
2
2.33982e-16
2
2.04317e-16
2
4.57198e-17
2
1.66232e-16
2
2.47247e-16
2
7.56256e-17
2
1.35997e-16
2
2.28924e-16
2
1.43376e-16
2
2.6535e-17
2
-2.93652e-17
1.05048e-16
2
6.7535e-17
2
7.46903e-17
2
-2.486e-17
2
5.17571e-17
2
1.09503e-16
2
1.27433e-16
2
1.56792e-16
2
3.05785e-16
2
1.54948e-16
2
1.25737e-16
2
6.28467e-17
2
6.67637e-17
2
1.29311e-16
2
2.10483e-16
2
1.85825e-16
2
1.31941e-16
2
5.40047e-17
2
6.09809e-17
2
2.83069e-17
2
-9.05814e-17
2
-6.40154e-17
2
-3.32068e-17
2
1.16051e-16
2
2.52731e-16
2
1.70668e-16
2
2.40497e-16
2
2.15295e-16
2
2.27511e-16
2
1.87136e-16
2
7.75581e-17
2
4.41854e-18
2
2.10367e-16
2
1.3044e-16
2
1.20388e-16
2
2.01476e-16
2
-7.32244e-17
2
-4.65894e-17
2
-1.05019e-16
2
-4.68731e-17
2
-4.84768e-17
2
-5.50966e-17
2
-1.29857e-16
2
-3.07827e-18
2
-6.37656e-18
2
7.01607e-17
2
-1.31392e-17
2
-2.39861e-17
2
8.26121e-17
2
6.41877e-17
2
-2.0362e-17
2
1.86589e-16
2
-4.57314e-17
2
4.43419e-17
2
1.40714e-16
2
-9.52431e-18
2
1.23814e-19
2
1.57975e-16
2
1.08093e-16
2
-5.52345e-18
2
2.74839e-17
2
7.84641e-17
2
1.0615e-16
2
-3.44873e-17
2
-2.40151e-16
2
-1.91594e-16
2
-1.26435e-16
2
1.82453e-16
2
1.36212e-16
2
1.54651e-16
2
2.54086e-17
2
-8.49646e-17
2
-8.11799e-17
2
1.18467e-17
2
-1.50713e-16
2
-8.82492e-17
2
-2.21362e-17
2
-7.52694e-17
2
-7.76438e-17
2
-4.74602e-17
2
-2.55592e-16
2
-2.47244e-16
2
-1.40868e-16
2
9.42886e-17
2
-1.14101e-16
2
-2.47093e-17
2
9.76304e-17
2
1.45913e-16
2
1.12726e-17
2
-6.78829e-17
2
2.00987e-16
2
1.75917e-16
2
1.53121e-16
2
2.30442e-16
2
1.05963e-16
2
3.70119e-17
2
1.67195e-18
2
1.00801e-17
2
-2.11747e-19
2
1.24115e-17
2
-1.29451e-16
2
1.01983e-16
2
4.22927e-17
2
1.86823e-16
2
5.2079e-17
2
1.05723e-16
2
7.35499e-17
2
-1.55902e-17
2
1.37923e-16
2
6.98635e-17
2
1.09901e-16
2
1.50449e-16
2
9.02702e-17
2
-8.54336e-17
2
-1.16958e-16
2
1.52897e-16
2
1.81957e-17
2
8.21647e-17
2
8.16277e-17
2
1.25567e-16
2
7.47756e-17
2
-3.35825e-17
2
-1.55716e-16
2
3.82533e-17
2
-2.52887e-17
2
1.60311e-16
2
2.06264e-16
2
9.88802e-17
2
3.38426e-16
2
1.75899e-16
2
-2.78358e-17
2
9.84882e-17
2
5.16416e-18
2
2.7449e-16
2
9.23193e-18
2
-6.88062e-17
2
1.14567e-16
2
2.25292e-17
2
-9.05778e-17
2
-7.51895e-17
2
-1.04717e-16
2
-2.12268e-16
2
-1.13349e-16
2
-1.03875e-18
2
-8.5334e-17
2
-1.16877e-16
2
-1.51375e-17
2
-1.01659e-16
2
5.86337e-17
2
-3.99433e-17
2
-1.67101e-16
2
-8.08249e-19
2
-1.49373e-16
2
-2.67862e-17
2
-8.00666e-17
2
-7.16764e-17
2
-3.93249e-17
2
7.24443e-17
2
8.44792e-17
2
-1.2791e-16
2
2.92845e-17
2
2.49291e-17
2
-2.01088e-16
2
-9.72668e-17
2
1.36173e-16
2
2.53757e-16
2
1.46689e-16
2
9.57158e-17
2
3.62471e-18
2
1.25058e-16
2
-9.5805e-17
2
-3.89883e-17
2
6.44464e-17
2
2.65448e-16
2
2.82099e-16
2
5.01144e-16
2
4.07877e-16
2
9.16241e-17
2
1.21501e-16
2
2.0915e-17
2
1.25109e-16
2
2.51948e-16
2
2.04383e-16
2
2.00067e-16
2
1.05292e-16
2
-7.90021e-17
2
1.98602e-16
2
1.15645e-16
2
1.59928e-16
2
1.05589e-16
2
-2.18871e-18
2
1.08528e-16
2
1.34926e-16
2
1.65945e-16
2
9.78084e-17
2
1.41977e-16
2
4.60729e-17
2
1.06213e-17
2
1.37199e-16
2
-6.15193e-17
-4.45763e-17
2
-4.17812e-17
2
6.37326e-17
2
1.5702e-17
2
2.0399e-18
2
-9.93476e-17
2
-2.00968e-16
2
-8.2466e-17
2
-1.80141e-16
2
7.4171e-17
2
7.77063e-17
2
1.24956e-16
2
8.0647e-17
2
2.8521e-16
2
1.73015e-16
2
1.68612e-16
2
8.34946e-17
2
1.20865e-16
2
2.30327e-16
2
1.65121e-16
2
2.03185e-16
2
3.10518e-17
2
-6.5406e-17
2
9.09388e-17
2
-6.59551e-17
2
-3.10568e-17
2
-7.68947e-17
2
-6.7015e-17
2
1.36134e-16
2
2.47839e-16
2
1.84972e-16
2
3.17543e-16
2
1.01593e-16
2
1.0621e-16
2
-3.30549e-18
2
-1.35775e-16
2
-9.08671e-17
2
-2.31977e-18
2
-1.3754e-16
2
-2.98443e-16
2
-1.66176e-17
2
1.78485e-16
2
-6.59403e-18
2
1.7752e-18
2
-1.27663e-16
2
-1.02906e-16
2
-5.25156e-18
2
3.6031e-17
2
1.7817e-17
2
-1.14136e-16
2
-1.93284e-16
2
-6.92973e-17
2
-1.21561e-16
2
3.13076e-17
2
1.34573e-16
2
1.07935e-16
2
2.85085e-16
2
2.24984e-16
2
9.58702e-17
2
3.40549e-17
2
-3.38957e-17
2
8.59682e-17
2
-1.47254e-16
2
1.37871e-17
2
1.99983e-16
2
1.85269e-16
2
1.69327e-16
2
8.23941e-17
2
-5.68431e-17
2
-2.86831e-16
2
-2.21389e-16
2
-4.2864e-17
2
-7.75245e-17
2
-4.66634e-17
2
7.66155e-17
2
2.72387e-17
2
-8.75043e-17
2
-1.12323e-16
2
-6.10557e-18
2
3.35931e-17
2
-1.80021e-16
2
-6.42759e-17
2
2.3569e-17
2
-6.70031e-17
2
-4.63764e-17
2
9.69191e-17
2
2.73096e-16
2
2.9998e-16
2
9.50428e-17
2
1.64891e-16
2
3.32251e-16
2
2.28207e-16
2
9.97781e-17
2
2.68196e-16
2
1.18688e-16
2
2.22464e-16
2
9.67414e-17
2
-1.02882e-18
2
-2.8172e-16
2
-5.49408e-17
2
1.90267e-16
2
-9.08891e-18
2
1.5005e-16
2
4.21365e-17
2
1.0355e-16
2
1.66832e-16
2
7.95931e-17
2
1.61623e-16
2
-2.0684e-18
2
7.71497e-17
2
2.25826e-16
2
3.17673e-16
2
1.29041e-16
2
9.75858e-17
2
-7.22665e-17
2
-1.89021e-16
2
1.02587e-16
2
1.63691e-16
2
7.81538e-17
2
1.50754e-16
2
1.10897e-16
2
-8.60939e-17
2
-1.74085e-17
2
7.34098e-17
2
2.8816e-17
2
1.15852e-16
2
1.19679e-16
2
7.55759e-17
2
-4.98813e-17
2
2.07948e-18
2
1.67277e-16
2
1.39983e-16
2
2.35413e-16
2
-2.12612e-18
2
-6.29366e-17
2
1.67028e-16
2
2.09076e-16
2
6.61828e-17
2
-6.78832e-17
2
1.0953e-17
2
1.32897e-16
2
-3.64493e-17
2
-3.02755e-18
2
4.2708e-17
2
2.12953e-17
2
-1.05336e-16
2
-1.51882e-16
2
1.58149e-16
2
1.31516e-16
2
5.83424e-17
2
-6.69057e-17
2
-3.11819e-16
2
-1.1177e-16
2
-9.49849e-17
2
-1.52858e-16
2
-3.36611e-16
2
-2.0978e-16
2
5.16662e-17
2
3.81805e-17
2
-1.92448e-16
2
-1.40526e-16
2
-9.66216e-17
2
-4.91811e-17
2
-4.32271e-17
2
-6.73698e-17
2
-3.15488e-17
2
2.93652e-16
2
3.31741e-16
2
3.35201e-16
2
1.91303e-16
2
4.03159e-16
2
2.40398e-16
2
3.41664e-16
2
3.8274e-16
2
3.16414e-16
2
2.96098e-16
2
3.05167e-16
2
3.63562e-16
2
2.65052e-16
2
2.85026e-16
2
2.41703e-16
2
-4.47242e-17
2
1.02145e-16
2
1.6218e-16
2
1.34076e-16
2
1.16449e-16
2
-1.01672e-16
2
2.5074e-16
2
1.54651e-16
2
1.4608e-17
2
2.01856e-17
2
2.48441e-16
2
2.046e-16
2
2.89403e-16
2
7.09757e-17
2
8.92506e-17
2
6.1898e-17
2
2.56982e-17
2
4.77288e-18
2
-4.4966e-17
-1.20655e-16
2
-2.70961e-16
2
-1.82369e-16
2
-1.51898e-16
2
-1.38942e-16
2
-2.37991e-16
2
-2.3639e-16
2
-3.52686e-17
2
-5.83319e-17
2
-1.05995e-16
2
6.49521e-18
2
1.07458e-16
2
4.10204e-17
2
7.13504e-17
2
2.27897e-16
2
1.07646e-16
2
2.0191e-16
2
3.30484e-16
2
-8.07452e-17
2
3.19088e-17
2
1.78876e-16
2
3.91709e-17
2
1.49956e-16
2
-4.38297e-17
2
-7.15456e-17
2
-5.05267e-17
2
4.88037e-17
2
-4.64376e-17
2
-1.84045e-16
2
-2.11474e-16
2
-3.16574e-17
2
-1.36886e-16
2
-3.37156e-18
2
-1.39835e-16
2
-6.06317e-17
2
-3.36012e-16
2
-2.48332e-16
2
-2.6657e-16
2
-4.70075e-17
2
-4.77206e-17
2
1.62753e-16
2
6.55341e-17
2
3.88159e-17
2
2.0017e-16
2
2.32959e-16
2
-2.85898e-17
2
-1.79474e-16
2
-1.71732e-16
2
-2.70555e-16
2
-2.77974e-16
2
-9.0433e-17
2
-1.64286e-16
2
-6.4549e-17
2
-7.99747e-17
2
1.75883e-18
2
2.21013e-16
2
1.49653e-16
2
1.71077e-16
2
1.69354e-16
2
2.25824e-16
2
9.7969e-17
2
-2.39334e-17
2
5.26468e-17
2
2.75821e-18
2
-6.23533e-17
2
1.0382e-16
2
1.39024e-16
2
4.71153e-17
2
-5.07337e-17
2
-1.84102e-17
2
-2.36318e-17
2
-1.50668e-16
2
2.99109e-17
2
-1.13593e-16
2
-2.76464e-17
2
1.95665e-16
2
1.38568e-16
2
2.08733e-16
2
1.10773e-16
2
6.88918e-17
2
1.74336e-16
2
2.02823e-16
2
-1.99437e-17
2
7.21489e-17
2
3.18282e-16
2
1.72598e-16
2
4.6945e-17
2
-4.82352e-17
2
1.17033e-16
2
7.87329e-17
2
9.44358e-17
2
1.0284e-16
2
-1.05118e-18
2
-8.1299e-18
2
1.50895e-16
2
2.39955e-17
2
-5.1432e-17
2
3.2191e-17
2
5.56377e-18
2
8.91152e-17
2
-5.65161e-17
2
-9.1908e-17
2
6.68131e-17
2
1.51708e-16
2
1.46958e-16
2
5.94518e-17
2
-8.34311e-18
2
1.14538e-16
2
4.37544e-17
2
1.68235e-16
2
9.76e-17
2
-8.49032e-17
2
-5.42711e-17
2
4.97191e-17
2
6.45736e-17
2
6.4256e-18
2
2.28253e-19
2
5.86283e-19
2
-2.07988e-17
2
-1.07746e-16
2
-1.84557e-16
2
1.15442e-18
2
7.66872e-17
2
5.55896e-18
2
2.62228e-16
2
9.24239e-17
2
1.72501e-17
2
-2.12426e-17
2
3.26821e-17
2
-1.03746e-17
2
2.24333e-17
2
4.49751e-17
2
1.0927e-16
2
2.05234e-16
2
1.18026e-16
2
-4.9002e-17
2
-9.13345e-18
2
-6.88656e-18
2
2.1833e-16
2
-8.34292e-17
2
2.86263e-17
2
5.5084e-17
2
1.3131e-16
2
-2.21429e-17
2
5.93645e-17
2
1.65574e-16
2
2.39319e-16
2
5.69688e-17
2
-1.03731e-16
2
-5.87546e-17
2
-1.44421e-16
2
-1.9767e-17
2
8.81599e-17
2
2.20523e-17
2
-2.50556e-17
2
-8.44681e-17
2
-7.68668e-17
2
-4.58239e-17
2
-2.6913e-16
2
-7.68555e-17
2
-3.13222e-16
2
-2.34277e-16
2
-2.2961e-16
2
-1.8998e-16
2
-1.8675e-16
2
1.29366e-16
2
3.39048e-17
2
1.52244e-16
2
2.19105e-16
2
2.31007e-16
2
2.57767e-16
2
4.88579e-16
2
4.84139e-16
2
4.50689e-16
2
3.38712e-16
2
7.41144e-17
2
1.60287e-16
2
3.02183e-16
2
3.68832e-16
2
2.07747e-16
2
1.88768e-16
2
1.01259e-16
2
1.46405e-16
2
3.25258e-16
2
1.51561e-16
2
8.32064e-17
2
-2.96874e-17
2
-2.36248e-17
2
1.94376e-16
2
1.69355e-16
2
1.41502e-16
2
1.52078e-16
2
1.26913e-16
2
1.87289e-16
2
2.5626e-16
2
9.00552e-17
2
8.13451e-17
2
1.74284e-17
2
-1.12622e-16
2
-3.64988e-16
-3.86568e-16
2
-2.95409e-16
2
-3.13625e-16
2
-2.1429e-16
2
-1.28427e-16
2
2.40777e-20
2
-3.30922e-17
2
-1.6478e-16
2
-4.25152e-17
2
-1.97985e-17
2
-9.91996e-17
2
1.92184e-16
2
2.20274e-16
2
1.84272e-16
2
1.46225e-16
2
2.51391e-16
2
3.36981e-16
2
1.52775e-16
2
-5.79752e-17
2
-2.67517e-17
2
3.4526e-17
2
2.6419e-16
2
1.48019e-16
2
4.3021e-17
2
-1.69379e-16
2
-8.44968e-17
2
-5.98717e-17
2
2.28105e-17
2
-1.04783e-16
2
-1.70133e-16
2
-5.10469e-17
2
-1.23006e-17
2
5.36353e-17
2
4.58318e-17
2
-1.34956e-16
2
7.7454e-17
2
-2.47926e-16
2
-2.00467e-16
2
-1.59437e-16
2
8.89141e-17
2
-1.80794e-16
2
-1.02586e-16
2
2.80804e-17
2
-6.61898e-17
2
-1.77383e-16
2
-2.67486e-16
2
-2.19921e-16
2
-1.4877e-16
2
-1.58729e-16
2
-1.73943e-16
2
-2.21278e-16
2
-1.89982e-16
2
-3.78101e-17
2
-1.025e-17
2
2.30448e-17
2
1.0097e-17
2
1.60083e-16
2
-2.37794e-17
2
1.06321e-16
2
6.8591e-17
2
-9.3259e-18
2
1.10552e-16
2
-4.70153e-17
2
1.55719e-17
2
-2.41973e-18
2
-8.39436e-17
2
-1.74909e-16
2
-3.02112e-16
2
-1.62881e-16
2
-4.99515e-17
2
1.4007e-17
2
6.79907e-17
2
-2.00059e-16
2
7.37782e-17
2
8.61606e-17
2
9.80089e-17
2
2.53766e-16
2
2.69578e-16
2
1.66526e-16
2
3.25384e-17
2
-1.15891e-16
2
-3.78029e-17
2
9.23045e-17
2
3.51673e-17
2
1.74579e-16
2
1.51765e-16
2
9.15312e-17
2
1.97704e-16
2
1.77332e-16
2
1.84999e-16
2
1.47722e-16
2
3.67334e-16
2
4.87508e-16
2
3.01311e-16
2
3.32044e-16
2
3.45777e-17
2
3.25182e-17
2
1.00806e-16
2
8.87936e-17
2
-2.4516e-17
2
2.74063e-17
2
1.42482e-16
2
1.55392e-16
2
1.05919e-16
2
-2.03186e-17
2
-5.25994e-18
2
2.7827e-16
2
2.24551e-16
2
3.59037e-16
2
5.37302e-17
2
6.07969e-17
2
7.9275e-17
2
5.20926e-17
2
1.33224e-16
2
3.25682e-16
2
1.97678e-16
2
-1.93559e-17
2
1.19892e-17
2
1.08435e-16
2
-3.55647e-16
2
-2.67653e-16
2
-1.89519e-16
2
-2.15656e-16
2
-5.567e-17
2
-5.6428e-17
2
-1.23519e-16
2
-1.79728e-16
2
-2.99991e-16
2
-2.32455e-16
2
-8.25481e-17
2
-8.81057e-17
2
1.29136e-17
2
1.18835e-16
2
-7.99933e-17
2
3.69563e-17
2
6.07259e-17
2
-1.16064e-16
2
-1.53877e-16
2
-2.4113e-16
2
-1.25968e-16
2
-1.63279e-17
2
1.22311e-16
2
-6.30209e-18
2
6.38527e-17
2
-2.62788e-17
2
-4.14067e-17
2
-1.30172e-16
2
-2.37593e-16
2
-2.70648e-16
2
-1.82352e-16
2
-1.8435e-16
2
-3.21459e-16
2
-2.49803e-16
2
-1.31679e-16
2
-1.43628e-16
2
-7.14677e-17
2
-9.39557e-17
2
-2.96846e-16
2
-3.12057e-16
2
-2.91574e-16
2
-3.15526e-16
2
-2.0409e-16
2
-1.05487e-16
2
-1.1611e-16
2
-2.81684e-17
2
-1.3325e-16
2
1.32657e-16
2
1.39106e-16
2
2.49807e-16
2
3.10469e-16
2
4.49189e-16
2
5.10725e-16
2
5.39981e-16
2
4.70765e-16
2
3.06639e-16
2
4.2711e-16
2
4.077e-16
2
4.43218e-16
2
3.11228e-16
2
4.22191e-16
2
3.04231e-16
2
2.59065e-16
2
2.20732e-16
2
1.35346e-16
2
9.06303e-17
2
1.16297e-16
2
-7.48187e-17
2
-1.08969e-16
2
-9.26475e-17
2
2.19493e-16
2
1.52919e-16
2
-6.34584e-18
2
-2.13557e-16
2
-7.71697e-18
2
1.82492e-16
2
2.08029e-16
2
6.71425e-17
2
-4.81457e-17
2
-2.23688e-16
2
-1.61931e-16
-9.79466e-17
2
-3.16384e-16
2
-3.52228e-16
2
-3.99959e-16
2
-2.82333e-16
2
-9.17392e-17
2
-3.21372e-17
2
-1.22282e-16
2
-6.06921e-17
2
-7.39692e-17
2
2.41644e-16
2
3.92699e-17
2
1.44914e-16
2
2.27183e-17
2
1.05875e-16
2
1.24918e-16
2
2.79305e-17
2
1.05691e-16
2
3.58154e-16
2
6.11188e-17
2
-1.95252e-16
2
-1.07972e-16
2
9.95991e-17
2
1.44832e-16
2
2.47266e-16
2
-6.89285e-17
2
-1.68702e-16
2
-8.23885e-17
2
-3.59605e-17
2
-1.19554e-16
2
-1.38774e-16
2
-1.39251e-16
2
-2.17316e-17
2
6.88534e-17
2
-2.6153e-17
2
-1.01439e-16
2
2.33006e-17
2
4.94262e-17
2
-1.40456e-17
2
-1.85911e-16
2
7.22828e-17
2
3.06696e-17
2
-6.17394e-17
2
-1.76656e-16
2
-1.5694e-18
2
-2.73987e-17
2
-1.47148e-16
2
7.54471e-17
2
4.48656e-17
2
-8.43865e-17
2
-1.22932e-16
2
-8.22031e-17
2
5.53809e-18
2
-4.76458e-17
2
-4.90184e-17
2
-1.68232e-17
2
-8.39224e-17
2
-1.34645e-16
2
1.63007e-17
2
1.59964e-16
2
2.50332e-16
2
-1.96165e-16
2
-1.32618e-16
2
-1.02428e-16
2
-7.72533e-17
2
-1.02717e-16
2
-2.00652e-16
2
-4.01325e-16
2
-1.53665e-16
2
-2.60295e-16
2
-2.05829e-16
2
-1.01973e-16
2
-1.05312e-16
2
-2.23904e-17
2
1.40593e-16
2
1.58361e-16
2
3.99618e-16
2
3.73407e-16
2
8.42109e-17
2
2.89568e-16
2
2.39105e-16
2
1.51429e-16
2
3.4125e-16
2
2.02631e-16
2
1.34301e-16
2
1.09466e-16
2
-2.52534e-18
2
1.5066e-16
2
2.22842e-16
2
2.9589e-16
2
2.83128e-16
2
2.31014e-16
2
3.06911e-16
2
2.99263e-16
2
3.00581e-16
2
1.54014e-16
2
1.39858e-16
2
1.71961e-16
2
2.99561e-16
2
2.38382e-16
2
1.49346e-16
2
2.27747e-16
2
2.33392e-17
2
-1.21687e-16
2
-1.37873e-16
2
-1.92032e-16
2
5.89289e-18
2
1.50746e-16
2
1.39916e-16
2
3.90572e-16
2
2.68062e-16
2
1.75589e-16
2
6.72501e-18
2
4.30913e-17
2
2.11123e-17
2
5.67062e-17
2
1.48957e-16
2
1.16678e-17
2
-1.70333e-16
2
1.08825e-16
2
-3.38213e-17
2
4.22182e-18
2
1.7573e-16
2
9.79775e-17
2
1.65948e-16
2
1.32601e-16
2
4.05349e-17
2
9.45815e-17
2
3.08313e-17
2
1.90589e-16
2
6.788e-17
2
-9.75386e-17
2
-1.55592e-16
2
-9.99679e-17
2
3.13852e-17
2
9.39399e-17
2
-4.73689e-17
2
-2.12325e-17
2
4.34364e-17
2
-1.10309e-16
2
-1.03737e-16
2
-1.07189e-17
2
1.52068e-17
2
-3.26545e-17
2
1.14021e-16
2
1.57141e-16
2
3.30986e-17
2
-4.8786e-17
2
1.05005e-16
2
-4.70911e-17
2
1.10357e-17
2
2.65237e-18
2
-2.45578e-16
2
-4.54744e-16
2
-4.55996e-16
2
-2.22637e-16
2
-2.36308e-16
2
-2.4576e-16
2
-2.15554e-16
2
-3.00205e-16
2
-3.18818e-16
2
-2.28576e-16
2
-1.73621e-16
2
-8.24196e-17
2
-2.62605e-16
2
-1.5735e-16
2
-3.01562e-16
2
-1.4756e-16
2
3.04002e-17
2
1.04579e-16
2
1.58323e-16
2
3.26958e-16
2
1.87522e-16
2
2.69184e-18
2
-5.47813e-17
2
-9.2005e-17
2
3.04279e-16
2
1.24253e-17
2
1.67198e-16
2
1.26249e-16
2
3.30031e-17
2
1.85719e-16
2
1.31366e-16
2
2.71994e-17
2
1.56918e-16
2
-5.88025e-17
2
1.33092e-16
2
1.32383e-16
2
8.97179e-17
2
1.99348e-17
2
1.43342e-16
2
2.60192e-16
2
2.83165e-16
2
1.67305e-16
2
1.89378e-16
2
-2.76339e-17
2
-3.75598e-17
2
2.414e-17
2
-9.78067e-17
2
1.12984e-17
-7.16246e-17
2
-2.8304e-16
2
-3.43631e-16
2
-2.12629e-16
2
-4.80481e-16
2
-5.60784e-16
2
-4.90497e-16
2
-3.75833e-16
2
-4.11466e-16
2
-3.09658e-16
2
-2.0649e-16
2
-3.29131e-16
2
-4.91313e-17
2
5.88946e-17
2
1.62304e-16
2
1.4212e-16
2
1.06481e-18
2
8.41283e-17
2
1.18795e-16
2
8.22703e-17
2
1.43236e-16
2
-4.12922e-17
2
-8.476e-17
2
-1.13403e-16
2
-2.02367e-16
2
-1.21776e-16
2
-3.1243e-16
2
3.50047e-17
2
2.80529e-16
2
-2.05743e-17
2
-7.77848e-17
2
-2.6092e-16
2
-4.68471e-17
2
-1.23433e-16
2
-2.60913e-16
2
-2.27114e-16
2
-2.2355e-16
2
-2.79386e-16
2
-1.71823e-16
2
2.90168e-17
2
-2.46289e-16
2
-2.41523e-16
2
-1.64892e-16
2
-1.22277e-16
2
-6.4866e-17
2
-1.52513e-16
2
-5.13157e-17
2
-2.76594e-16
2
-2.03139e-16
2
2.02543e-16
2
1.94486e-16
2
-8.73904e-17
2
-2.43026e-16
2
-1.82404e-16
2
-2.12036e-16
2
7.72765e-17
2
1.42611e-16
2
-1.37154e-18
2
6.91717e-18
2
7.98561e-17
2
-1.65265e-16
2
3.13725e-18
2
-5.31453e-17
2
-1.4205e-16
2
-5.35185e-17
2
9.72861e-18
2
-1.59883e-16
2
-2.9689e-17
2
-1.3974e-16
2
-9.58947e-17
2
-3.23064e-16
2
-2.82356e-16
2
-1.44831e-16
2
-1.66284e-16
2
-5.63057e-17
2
-1.489e-18
2
-9.97351e-17
2
-2.3465e-16
2
-1.23625e-16
2
-1.1984e-16
2
1.26028e-17
2
4.23416e-17
2
-3.81702e-17
2
2.76914e-16
2
5.26269e-17
2
1.31722e-16
2
2.03476e-16
2
3.97418e-17
2
1.10594e-16
2
2.64865e-16
2
5.878e-17
2
2.88072e-17
2
-8.35343e-18
2
1.46542e-17
2
9.32635e-17
2
2.96531e-16
2
2.11284e-16
2
2.22635e-16
2
-1.26267e-17
2
-1.43177e-16
2
-1.0837e-16
2
-2.19306e-16
2
-5.49584e-17
2
1.42959e-16
2
-1.103e-17
2
3.51634e-17
2
-7.63387e-17
2
-9.85943e-17
2
-1.70514e-16
2
-1.2365e-16
2
7.53822e-17
2
-8.20775e-18
2
-2.69792e-17
2
-2.40054e-16
2
-2.356e-16
2
-7.92957e-17
2
2.80149e-17
2
-1.69676e-16
2
-1.82449e-16
2
-8.65719e-17
2
1.00498e-16
2
1.49465e-16
2
1.69465e-16
2
-3.29843e-17
2
-1.10383e-17
2
-1.77357e-17
2
-1.32427e-16
2
-2.18332e-17
2
1.70518e-16
2
-9.6625e-17
2
7.51044e-17
2
2.30446e-16
2
-4.05297e-17
2
5.47578e-17
2
1.32117e-16
2
1.2644e-16
2
2.9418e-16
2
4.9128e-16
2
3.61343e-16
2
4.12035e-16
2
4.48047e-16
2
1.79514e-16
2
2.84895e-16
2
3.69945e-16
2
3.29336e-16
2
2.78625e-16
2
1.40438e-16
2
-9.6725e-18
2
-4.74792e-17
2
-2.31188e-17
2
-3.54791e-17
2
-1.06229e-16
2
-9.65268e-17
2
-1.92448e-16
2
-2.93668e-16
2
-2.74352e-16
2
-2.69096e-16
2
-2.31145e-16
2
-1.21579e-17
2
4.33447e-17
2
3.60241e-17
2
-4.52841e-17
2
1.0294e-16
2
-5.74523e-17
2
-2.61473e-17
2
-2.32433e-16
2
-7.25628e-18
2
-1.92498e-16
2
-3.07944e-16
2
-2.89347e-16
2
-1.72957e-16
2
-3.38132e-16
2
-3.55577e-16
2
-3.63034e-16
2
-3.01835e-16
2
-3.11214e-16
2
-2.29141e-16
2
-1.78581e-16
2
-6.37729e-17
2
3.36336e-17
2
1.50503e-16
2
3.88719e-17
2
1.07332e-16
2
1.86742e-16
2
8.63342e-17
2
2.17846e-16
2
3.9373e-16
2
2.47956e-16
2
1.6767e-16
2
-5.91168e-17
2
7.43083e-17
2
1.23187e-16
2
4.13847e-16
2
1.95271e-16
2
-2.30217e-17
2
7.92059e-17
2
5.47495e-19
2
-1.05194e-16
2
-6.27808e-17
2
-4.12094e-17
-9.13085e-17
2
-2.48357e-16
2
-2.27331e-16
2
-2.0899e-16
2
-3.69266e-16
2
-3.49892e-16
2
-2.88027e-16
2
-2.3483e-16
2
-1.36848e-16
2
-2.97207e-16
2
-2.54075e-16
2
-7.34559e-17
2
-4.21205e-17
2
8.23904e-17
2
-1.89633e-16
2
-2.31325e-16
2
-2.05274e-16
2
-2.42869e-16
2
-7.43945e-17
2
-5.00619e-17
2
-1.84616e-16
2
-4.85966e-17
2
-1.82044e-16
2
-2.02547e-16
2
-2.62518e-16
2
-2.81458e-16
2
4.85426e-17
2
-4.69431e-17
2
-1.44552e-16
2
-2.16883e-16
2
-3.52609e-16
2
-2.38571e-16
2
-2.42258e-16
2
-2.32385e-16
2
-2.26109e-16
2
-2.49229e-16
2
-2.77209e-16
2
-2.65785e-16
2
-2.59298e-16
2
-1.91668e-16
2
-7.10609e-17
2
-1.21222e-16
2
-2.46484e-16
2
-1.82364e-16
2
-1.90318e-16
2
-2.34408e-16
2
-1.8079e-16
2
-1.5348e-16
2
-5.11896e-17
2
-1.22385e-16
2
-1.45204e-16
2
-1.38762e-16
2