TITLE = "Visualization of the volumetric solution"
VARIABLES = "x","y","Density","Momentum_x","Momentum_y","Energy","Pressure","Temperature","Mach","C<sub>p</sub>","Roe_Dissipation"
ZONE NODES= 1527, ELEMENTS= 2892, DATAPACKING=POINT, ZONETYPE=FEQUADRILATERAL
4.569681e-02	2.552500e-03	1.229486e+00	4.494288e+01	-4.482646e+00	2.554198e+05	1.018361e+05	2.885415e+02	1.078782e-01	4.263733e-01	0.000000e+00	
4.870272e-02	2.261279e-03	1.229482e+00	4.494625e+01	-4.474481e+00	2.554190e+05	1.018357e+05	2.885415e+02	1.078846e-01	4.260862e-01	0.000000e+00	
4.715268e-02	4.992075e-03	1.229478e+00	4.493605e+01	-4.473122e+00	2.554177e+05	1.018353e+05	2.885413e+02	1.078605e-01	4.257510e-01	0.000000e+00	
4.569681e-02	5.105000e-03	1.229495e+00	4.494158e+01	-4.481568e+00	2.554214e+05	1.018367e+05	2.885414e+02	1.078742e-01	4.269153e-01	0.000000e+00	
5.001924e-02	4.608881e-03	1.229483e+00	4.493238e+01	-4.470793e+00	2.554186e+05	1.018358e+05	2.885414e+02	1.078507e-01	4.261162e-01	0.000000e+00	
5.165755e-02	2.087372e-03	1.229481e+00	4.494665e+01	-4.471831e+00	2.554188e+05	1.018356e+05	2.885415e+02	1.078851e-01	4.260065e-01	0.000000e+00	
4.569681e-02	7.657500e-03	1.229471e+00	4.491468e+01	-4.464753e+00	2.554150e+05	1.018346e+05	2.885410e+02	1.078084e-01	4.251345e-01	0.000000e+00	
4.839245e-02	7.039489e-03	1.229481e+00	4.491689e+01	-4.469861e+00	2.554173e+05	1.018355e+05	2.885411e+02	1.078140e-01	4.258577e-01	0.000000e+00	
5.132368e-02	6.782341e-03	1.229482e+00	4.491847e+01	-4.469158e+00	2.554175e+05	1.018356e+05	2.885411e+02	1.078175e-01	4.259302e-01	0.000000e+00	
5.281101e-02	4.443529e-03	1.229482e+00	4.493174e+01	-4.469610e+00	2.554182e+05	1.018356e+05	2.885414e+02	1.078491e-01	4.259958e-01	0.000000e+00	
5.430705e-02	2.012856e-03	1.229482e+00	4.494556e+01	-4.470479e+00	2.554189e+05	1.018357e+05	2.885414e+02	1.078821e-01	4.260507e-01	0.000000e+00	
4.754925e-02	8.924095e-03	1.229490e+00	4.491026e+01	-4.470670e+00	2.554186e+05	1.018361e+05	2.885406e+02	1.077977e-01	4.263884e-01	0.000000e+00	
4.993181e-02	8.913301e-03	1.229483e+00	4.491272e+01	-4.470186e+00	2.554171e+05	1.018355e+05	2.885406e+02	1.078041e-01	4.258675e-01	0.000000e+00	
4.569681e-02	1.021000e-02	1.229488e+00	4.491087e+01	-4.471370e+00	2.554179e+05	1.018358e+05	2.885403e+02	1.077995e-01	4.261305e-01	0.000000e+00	
5.263627e-02	8.911979e-03	1.229486e+00	4.491236e+01	-4.469443e+00	2.554177e+05	1.018357e+05	2.885406e+02	1.078028e-01	4.260480e-01	0.000000e+00	
5.403369e-02	6.706913e-03	1.229483e+00	4.491891e+01	-4.469019e+00	2.554178e+05	1.018356e+05	2.885410e+02	1.078184e-01	4.260068e-01	0.000000e+00	
5.544590e-02	4.384821e-03	1.229482e+00	4.493091e+01	-4.469024e+00	2.554183e+05	1.018357e+05	2.885413e+02	1.078469e-01	4.260414e-01	0.000000e+00	
5.686191e-02	1.979186e-03	1.229482e+00	4.494449e+01	-4.469846e+00	2.554189e+05	1.018357e+05	2.885414e+02	1.078794e-01	4.260622e-01	0.000000e+00	
4.834233e-02	1.077824e-02	1.229484e+00	4.491374e+01	-4.470156e+00	2.554170e+05	1.018354e+05	2.885401e+02	1.078065e-01	4.257972e-01	0.000000e+00	
5.121567e-02	1.099781e-02	1.229486e+00	4.491157e+01	-4.469406e+00	2.554174e+05	1.018356e+05	2.885402e+02	1.078009e-01	4.259771e-01	0.000000e+00	
4.707857e-02	1.280660e-02	1.229490e+00	4.491573e+01	-4.470277e+00	2.554182e+05	1.018359e+05	2.885400e+02	1.078107e-01	4.261980e-01	0.000000e+00	
5.526542e-02	8.924226e-03	1.229485e+00	4.491220e+01	-4.468563e+00	2.554175e+05	1.018356e+05	2.885406e+02	1.078023e-01	4.260021e-01	0.000000e+00	
5.390759e-02	1.107419e-02	1.229486e+00	4.490998e+01	-4.468214e+00	2.554173e+05	1.018356e+05	2.885402e+02	1.077969e-01	4.259728e-01	0.000000e+00	
5.662161e-02	6.693272e-03	1.229484e+00	4.491887e+01	-4.468416e+00	2.554178e+05	1.018357e+05	2.885410e+02	1.078181e-01	4.260229e-01	0.000000e+00	
5.799120e-02	4.368980e-03	1.229483e+00	4.493034e+01	-4.468578e+00	2.554183e+05	1.018357e+05	2.885413e+02	1.078454e-01	4.260507e-01	0.000000e+00	
5.937870e-02	1.961191e-03	1.229482e+00	4.494325e+01	-4.469103e+00	2.554188e+05	1.018357e+05	2.885414e+02	1.078763e-01	4.260540e-01	0.000000e+00	
4.978548e-02	1.307841e-02	1.229488e+00	4.491213e+01	-4.467716e+00	2.554176e+05	1.018357e+05	2.885400e+02	1.078017e-01	4.260165e-01	0.000000e+00	
4.569681e-02	1.276250e-02	1.229496e+00	4.491768e+01	-4.477642e+00	2.554198e+05	1.018365e+05	2.885403e+02	1.078165e-01	4.267022e-01	0.000000e+00	
5.253438e-02	1.319061e-02	1.229487e+00	4.490915e+01	-4.466927e+00	2.554174e+05	1.018356e+05	2.885400e+02	1.077945e-01	4.259991e-01	0.000000e+00	
4.826072e-02	1.533339e-02	1.229484e+00	4.490774e+01	-4.466032e+00	2.554165e+05	1.018353e+05	2.885399e+02	1.077913e-01	4.257351e-01	0.000000e+00	
4.569681e-02	1.531500e-02	1.229477e+00	4.491167e+01	-4.469008e+00	2.554151e+05	1.018347e+05	2.885397e+02	1.078019e-01	4.252024e-01	0.000000e+00	
5.648839e-02	1.111690e-02	1.229487e+00	4.490851e+01	-4.467521e+00	2.554174e+05	1.018357e+05	2.885402e+02	1.077931e-01	4.260242e-01	0.000000e+00	
5.780733e-02	8.945950e-03	1.229486e+00	4.491155e+01	-4.467898e+00	2.554176e+05	1.018357e+05	2.885406e+02	1.078005e-01	4.260425e-01	0.000000e+00	
5.516614e-02	1.324643e-02	1.229488e+00	4.490726e+01	-4.466597e+00	2.554174e+05	1.018357e+05	2.885400e+02	1.077899e-01	4.260184e-01	0.000000e+00	
5.913759e-02	6.702326e-03	1.229484e+00	4.491856e+01	-4.467951e+00	2.554179e+05	1.018357e+05	2.885410e+02	1.078172e-01	4.260481e-01	0.000000e+00	
6.049291e-02	4.368829e-03	1.229483e+00	4.492965e+01	-4.468109e+00	2.554183e+05	1.018357e+05	2.885413e+02	1.078437e-01	4.260641e-01	0.000000e+00	
6.188005e-02	1.948882e-03	1.229483e+00	4.494240e+01	-4.468604e+00	2.554189e+05	1.018357e+05	2.885414e+02	1.078741e-01	4.260846e-01	0.000000e+00	
5.113821e-02	1.534966e-02	1.229486e+00	4.490634e+01	-4.465794e+00	2.554170e+05	1.018355e+05	2.885400e+02	1.077877e-01	4.259060e-01	0.000000e+00	
5.383170e-02	1.537301e-02	1.229487e+00	4.490578e+01	-4.465874e+00	2.554172e+05	1.018356e+05	2.885400e+02	1.077863e-01	4.259795e-01	0.000000e+00	
4.976722e-02	1.759851e-02	1.229488e+00	4.490536e+01	-4.465159e+00	2.554174e+05	1.018357e+05	2.885400e+02	1.077850e-01	4.260347e-01	0.000000e+00	
4.708641e-02	1.786042e-02	1.229488e+00	4.490700e+01	-4.462817e+00	2.554173e+05	1.018356e+05	2.885399e+02	1.077884e-01	4.259844e-01	0.000000e+00	
5.899565e-02	1.115262e-02	1.229487e+00	4.490750e+01	-4.466953e+00	2.554174e+05	1.018357e+05	2.885402e+02	1.077906e-01	4.260367e-01	0.000000e+00	
5.770346e-02	1.328722e-02	1.229488e+00	4.490621e+01	-4.466373e+00	2.554174e+05	1.018357e+05	2.885401e+02	1.077874e-01	4.260293e-01	0.000000e+00	
6.029572e-02	8.972579e-03	1.229486e+00	4.491094e+01	-4.467318e+00	2.554176e+05	1.018357e+05	2.885406e+02	1.077989e-01	4.260521e-01	0.000000e+00	
5.640815e-02	1.540332e-02	1.229488e+00	4.490579e+01	-4.466072e+00	2.554173e+05	1.018357e+05	2.885400e+02	1.077863e-01	4.260122e-01	0.000000e+00	
6.161824e-02	6.719327e-03	1.229484e+00	4.491810e+01	-4.467461e+00	2.554179e+05	1.018357e+05	2.885410e+02	1.078160e-01	4.260634e-01	0.000000e+00	
6.297664e-02	4.373539e-03	1.229483e+00	4.492907e+01	-4.467644e+00	2.554184e+05	1.018357e+05	2.885413e+02	1.078422e-01	4.260768e-01	0.000000e+00	
6.437353e-02	1.940802e-03	1.229483e+00	4.494122e+01	-4.468429e+00	2.554189e+05	1.018358e+05	2.885414e+02	1.078712e-01	4.260960e-01	0.000000e+00	
5.249014e-02	1.752203e-02	1.229487e+00	4.490602e+01	-4.466004e+00	2.554173e+05	1.018356e+05	2.885400e+02	1.077869e-01	4.259979e-01	0.000000e+00	
4.569681e-02	1.786750e-02	1.229495e+00	4.491146e+01	-4.458414e+00	2.554186e+05	1.018361e+05	2.885396e+02	1.077974e-01	4.263896e-01	0.000000e+00	
5.510511e-02	1.751887e-02	1.229488e+00	4.490722e+01	-4.466547e+00	2.554174e+05	1.018357e+05	2.885400e+02	1.077898e-01	4.260200e-01	0.000000e+00	
4.834311e-02	1.986496e-02	1.229485e+00	4.490694e+01	-4.465533e+00	2.554170e+05	1.018355e+05	2.885401e+02	1.077891e-01	4.258850e-01	0.000000e+00	
5.114737e-02	1.966845e-02	1.229486e+00	4.490991e+01	-4.466965e+00	2.554172e+05	1.018355e+05	2.885401e+02	1.077964e-01	4.259113e-01	0.000000e+00	
4.569681e-02	2.042000e-02	1.229478e+00	4.490327e+01	-4.459226e+00	2.554154e+05	1.018349e+05	2.885403e+02	1.077795e-01	4.254260e-01	0.000000e+00	
6.146417e-02	1.118734e-02	1.229487e+00	4.490672e+01	-4.466557e+00	2.554175e+05	1.018357e+05	2.885403e+02	1.077886e-01	4.260600e-01	0.000000e+00	
6.018514e-02	1.332493e-02	1.229488e+00	4.490561e+01	-4.466220e+00	2.554174e+05	1.018357e+05	2.885401e+02	1.077859e-01	4.260514e-01	0.000000e+00	
5.891054e-02	1.543822e-02	1.229488e+00	4.490606e+01	-4.466186e+00	2.554174e+05	1.018357e+05	2.885400e+02	1.077869e-01	4.260387e-01	0.000000e+00	
6.275917e-02	9.001218e-03	1.229486e+00	4.491032e+01	-4.466845e+00	2.554177e+05	1.018357e+05	2.885406e+02	1.077973e-01	4.260714e-01	0.000000e+00	
5.763331e-02	1.754300e-02	1.229488e+00	4.490842e+01	-4.466755e+00	2.554175e+05	1.018357e+05	2.885400e+02	1.077927e-01	4.260344e-01	0.000000e+00	
6.408467e-02	6.738801e-03	1.229485e+00	4.491760e+01	-4.467010e+00	2.554179e+05	1.018357e+05	2.885409e+02	1.078147e-01	4.260811e-01	0.000000e+00	
6.545009e-02	4.383521e-03	1.229483e+00	4.492835e+01	-4.467308e+00	2.554184e+05	1.018357e+05	2.885412e+02	1.078404e-01	4.260898e-01	0.000000e+00	
6.686827e-02	1.925463e-03	1.229483e+00	4.493996e+01	-4.468193e+00	2.554189e+05	1.018358e+05	2.885414e+02	1.078682e-01	4.261134e-01	0.000000e+00	
5.379456e-02	1.963090e-02	1.229487e+00	4.491189e+01	-4.467698e+00	2.554175e+05	1.018356e+05	2.885401e+02	1.078012e-01	4.260068e-01	0.000000e+00	
5.634988e-02	1.964384e-02	1.229487e+00	4.491341e+01	-4.467743e+00	2.554176e+05	1.018357e+05	2.885401e+02	1.078048e-01	4.260174e-01	0.000000e+00	
4.986077e-02	2.169645e-02	1.229487e+00	4.491952e+01	-4.468442e+00	2.554178e+05	1.018357e+05	2.885401e+02	1.078195e-01	4.260216e-01	0.000000e+00	
4.758145e-02	2.170386e-02	1.229494e+00	4.491664e+01	-4.468788e+00	2.554191e+05	1.018362e+05	2.885401e+02	1.078122e-01	4.264618e-01	0.000000e+00	
5.247925e-02	2.170693e-02	1.229488e+00	4.492012e+01	-4.468780e+00	2.554180e+05	1.018357e+05	2.885401e+02	1.078210e-01	4.260604e-01	0.000000e+00	
6.264087e-02	1.336228e-02	1.229488e+00	4.490536e+01	-4.466079e+00	2.554175e+05	1.018357e+05	2.885401e+02	1.077852e-01	4.260669e-01	0.000000e+00	
6.391649e-02	1.122209e-02	1.229487e+00	4.490618e+01	-4.466232e+00	2.554175e+05	1.018357e+05	2.885403e+02	1.077872e-01	4.260761e-01	0.000000e+00	
6.137464e-02	1.547545e-02	1.229488e+00	4.490648e+01	-4.466223e+00	2.554175e+05	1.018357e+05	2.885400e+02	1.077879e-01	4.260575e-01	0.000000e+00	
6.011030e-02	1.757713e-02	1.229488e+00	4.490949e+01	-4.466827e+00	2.554176e+05	1.018357e+05	2.885401e+02	1.077953e-01	4.260518e-01	0.000000e+00	
6.521333e-02	9.030586e-03	1.229486e+00	4.490978e+01	-4.466429e+00	2.554177e+05	1.018357e+05	2.885406e+02	1.077959e-01	4.260860e-01	0.000000e+00	
5.884360e-02	1.967433e-02	1.229488e+00	4.491446e+01	-4.467665e+00	2.554177e+05	1.018357e+05	2.885401e+02	1.078073e-01	4.260462e-01	0.000000e+00	
6.654306e-02	6.762522e-03	1.229485e+00	4.491706e+01	-4.466611e+00	2.554180e+05	1.018358e+05	2.885409e+02	1.078133e-01	4.260963e-01	0.000000e+00	
6.792685e-02	4.386342e-03	1.229484e+00	4.492755e+01	-4.467004e+00	2.554184e+05	1.018358e+05	2.885412e+02	1.078384e-01	4.261063e-01	0.000000e+00	
6.936134e-02	1.914223e-03	1.229484e+00	4.493868e+01	-4.467946e+00	2.554189e+05	1.018358e+05	2.885413e+02	1.078650e-01	4.261248e-01	0.000000e+00	
5.505739e-02	2.173283e-02	1.229487e+00	4.492038e+01	-4.468379e+00	2.554179e+05	1.018357e+05	2.885401e+02	1.078215e-01	4.260300e-01	0.000000e+00	
4.569681e-02	2.297250e-02	1.229494e+00	4.492466e+01	-4.470877e+00	2.554194e+05	1.018362e+05	2.885401e+02	1.078317e-01	4.264929e-01	0.000000e+00	
5.757145e-02	2.176700e-02	1.229487e+00	4.492038e+01	-4.468149e+00	2.554180e+05	1.018357e+05	2.885402e+02	1.078215e-01	4.260486e-01	0.000000e+00	
5.112444e-02	2.371648e-02	1.229488e+00	4.492691e+01	-4.468275e+00	2.554183e+05	1.018357e+05	2.885402e+02	1.078370e-01	4.260876e-01	0.000000e+00	
4.835881e-02	2.351972e-02	1.229483e+00	4.492904e+01	-4.468307e+00	2.554173e+05	1.018353e+05	2.885401e+02	1.078425e-01	4.257322e-01	0.000000e+00	
5.374692e-02	2.379798e-02	1.229486e+00	4.492572e+01	-4.467848e+00	2.554180e+05	1.018356e+05	2.885402e+02	1.078342e-01	4.259918e-01	0.000000e+00	
6.382281e-02	1.551363e-02	1.229488e+00	4.490697e+01	-4.466201e+00	2.554175e+05	1.018357e+05	2.885400e+02	1.077891e-01	4.260760e-01	0.000000e+00	
6.508693e-02	1.339972e-02	1.229488e+00	4.490531e+01	-4.465948e+00	2.554175e+05	1.018357e+05	2.885401e+02	1.077851e-01	4.260846e-01	0.000000e+00	
6.636339e-02	1.125701e-02	1.229488e+00	4.490581e+01	-4.465961e+00	2.554175e+05	1.018357e+05	2.885403e+02	1.077863e-01	4.260933e-01	0.000000e+00	
6.256332e-02	1.761471e-02	1.229488e+00	4.491041e+01	-4.466788e+00	2.554176e+05	1.018357e+05	2.885401e+02	1.077974e-01	4.260691e-01	0.000000e+00	
6.130430e-02	1.971088e-02	1.229488e+00	4.491526e+01	-4.467490e+00	2.554178e+05	1.018357e+05	2.885401e+02	1.078091e-01	4.260611e-01	0.000000e+00	
6.766173e-02	9.063355e-03	1.229487e+00	4.490931e+01	-4.466071e+00	2.554177e+05	1.018358e+05	2.885406e+02	1.077947e-01	4.261022e-01	0.000000e+00	
6.004327e-02	2.180461e-02	1.229487e+00	4.492036e+01	-4.467850e+00	2.554180e+05	1.018357e+05	2.885402e+02	1.078213e-01	4.260581e-01	0.000000e+00	
6.900523e-02	6.779686e-03	1.229485e+00	4.491650e+01	-4.466259e+00	2.554180e+05	1.018358e+05	2.885409e+02	1.078118e-01	4.261123e-01	0.000000e+00	
7.040148e-02	4.392931e-03	1.229484e+00	4.492667e+01	-4.466721e+00	2.554184e+05	1.018358e+05	2.885412e+02	1.078362e-01	4.261210e-01	0.000000e+00	
7.185456e-02	1.902887e-03	1.229484e+00	4.493741e+01	-4.467676e+00	2.554189e+05	1.018358e+05	2.885413e+02	1.078619e-01	4.261406e-01	0.000000e+00	
5.628947e-02	2.385113e-02	1.229487e+00	4.492439e+01	-4.467736e+00	2.554181e+05	1.018357e+05	2.885403e+02	1.078309e-01	4.260519e-01	0.000000e+00	
4.712543e-02	2.552304e-02	1.229489e+00	4.493113e+01	-4.466744e+00	2.554187e+05	1.018359e+05	2.885403e+02	1.078465e-01	4.261827e-01	0.000000e+00	
5.877778e-02	2.389530e-02	1.229487e+00	4.492358e+01	-4.467568e+00	2.554181e+05	1.018357e+05	2.885403e+02	1.078290e-01	4.260495e-01	0.000000e+00	
4.975112e-02	2.572154e-02	1.229488e+00	4.492740e+01	-4.466865e+00	2.554185e+05	1.018358e+05	2.885403e+02	1.078377e-01	4.261525e-01	0.000000e+00	
5.241141e-02	2.584523e-02	1.229486e+00	4.492535e+01	-4.466436e+00	2.554181e+05	1.018357e+05	2.885404e+02	1.078329e-01	4.260341e-01	0.000000e+00	
4.569681e-02	2.552500e-02	1.229505e+00	4.493397e+01	-4.469207e+00	2.554222e+05	1.018372e+05	2.885404e+02	1.078525e-01	4.272940e-01	0.000000e+00	
5.499169e-02	2.592498e-02	1.229487e+00	4.492390e+01	-4.466815e+00	2.554181e+05	1.018357e+05	2.885404e+02	1.078295e-01	4.260628e-01	0.000000e+00	
6.626569e-02	1.555218e-02	1.229489e+00	4.490749e+01	-4.466131e+00	2.554176e+05	1.018357e+05	2.885401e+02	1.077903e-01	4.260924e-01	0.000000e+00	
6.500738e-02	1.765338e-02	1.229488e+00	4.491120e+01	-4.466693e+00	2.554177e+05	1.018357e+05	2.885401e+02	1.077992e-01	4.260851e-01	0.000000e+00	
6.753010e-02	1.343734e-02	1.229488e+00	4.490540e+01	-4.465811e+00	2.554176e+05	1.018358e+05	2.885401e+02	1.077852e-01	4.261006e-01	0.000000e+00	
6.880615e-02	1.129486e-02	1.229488e+00	4.490559e+01	-4.465718e+00	2.554176e+05	1.018358e+05	2.885403e+02	1.077857e-01	4.261091e-01	0.000000e+00	
6.375099e-02	1.974935e-02	1.229488e+00	4.491587e+01	-4.467296e+00	2.554179e+05	1.018357e+05	2.885402e+02	1.078105e-01	4.260786e-01	0.000000e+00	
6.249450e-02	2.184339e-02	1.229487e+00	4.492035e+01	-4.467609e+00	2.554180e+05	1.018357e+05	2.885402e+02	1.078213e-01	4.260737e-01	0.000000e+00	
7.011408e-02	9.090219e-03	1.229487e+00	4.490893e+01	-4.465757e+00	2.554177e+05	1.018358e+05	2.885405e+02	1.077937e-01	4.261181e-01	0.000000e+00	
6.123653e-02	2.393620e-02	1.229487e+00	4.492298e+01	-4.467448e+00	2.554181e+05	1.018357e+05	2.885403e+02	1.078275e-01	4.260700e-01	0.000000e+00	
7.146562e-02	6.800172e-03	1.229486e+00	4.491591e+01	-4.465943e+00	2.554180e+05	1.018358e+05	2.885409e+02	1.078104e-01	4.261267e-01	0.000000e+00	
7.287641e-02	4.399333e-03	1.229484e+00	4.492575e+01	-4.466441e+00	2.554184e+05	1.018358e+05	2.885412e+02	1.078339e-01	4.261375e-01	0.000000e+00	
7.434815e-02	1.891509e-03	1.229484e+00	4.493616e+01	-4.467398e+00	2.554188e+05	1.018358e+05	2.885413e+02	1.078589e-01	4.261546e-01	0.000000e+00	
5.750439e-02	2.598163e-02	1.229486e+00	4.492315e+01	-4.466929e+00	2.554181e+05	1.018357e+05	2.885404e+02	1.078278e-01	4.260509e-01	0.000000e+00	
4.831995e-02	2.780868e-02	1.229485e+00	4.491737e+01	-4.466153e+00	2.554177e+05	1.018357e+05	2.885406e+02	1.078140e-01	4.260156e-01	0.000000e+00	
4.569681e-02	2.807750e-02	1.229471e+00	4.491544e+01	-4.467027e+00	2.554150e+05	1.018346e+05	2.885407e+02	1.078108e-01	4.251073e-01	0.000000e+00	
5.997541e-02	2.602743e-02	1.229487e+00	4.492264e+01	-4.467062e+00	2.554181e+05	1.018357e+05	2.885404e+02	1.078266e-01	4.260684e-01	0.000000e+00	
5.104614e-02	2.789428e-02	1.229484e+00	4.491859e+01	-4.465951e+00	2.554176e+05	1.018356e+05	2.885405e+02	1.078169e-01	4.259477e-01	0.000000e+00	
5.367181e-02	2.799176e-02	1.229486e+00	4.491900e+01	-4.466492e+00	2.554179e+05	1.018357e+05	2.885405e+02	1.078179e-01	4.260513e-01	0.000000e+00	
5.621861e-02	2.806325e-02	1.229486e+00	4.491960e+01	-4.466772e+00	2.554179e+05	1.018357e+05	2.885405e+02	1.078194e-01	4.260385e-01	0.000000e+00	
6.870716e-02	1.559098e-02	1.229489e+00	4.490802e+01	-4.466031e+00	2.554177e+05	1.018358e+05	2.885401e+02	1.077915e-01	4.261088e-01	0.000000e+00	
6.744876e-02	1.769242e-02	1.229488e+00	4.491189e+01	-4.466562e+00	2.554178e+05	1.018358e+05	2.885401e+02	1.078008e-01	4.261012e-01	0.000000e+00	
6.619295e-02	1.978839e-02	1.229488e+00	4.491639e+01	-4.467093e+00	2.554179e+05	1.018357e+05	2.885402e+02	1.078117e-01	4.260941e-01	0.000000e+00	
6.997015e-02	1.347760e-02	1.229489e+00	4.490560e+01	-4.465668e+00	2.554176e+05	1.018358e+05	2.885401e+02	1.077856e-01	4.261168e-01	0.000000e+00	
7.125280e-02	1.132740e-02	1.229488e+00	4.490549e+01	-4.465495e+00	2.554176e+05	1.018358e+05	2.885403e+02	1.077854e-01	4.261249e-01	0.000000e+00	
6.493785e-02	2.188252e-02	1.229488e+00	4.492038e+01	-4.467378e+00	2.554181e+05	1.018357e+05	2.885403e+02	1.078213e-01	4.260881e-01	0.000000e+00	
6.368255e-02	2.397594e-02	1.229487e+00	4.492261e+01	-4.467312e+00	2.554181e+05	1.018357e+05	2.885404e+02	1.078266e-01	4.260820e-01	0.000000e+00	
7.256499e-02	9.119989e-03	1.229487e+00	4.490860e+01	-4.465479e+00	2.554178e+05	1.018358e+05	2.885405e+02	1.077928e-01	4.261337e-01	0.000000e+00	
6.242632e-02	2.606880e-02	1.229487e+00	4.492235e+01	-4.467081e+00	2.554181e+05	1.018357e+05	2.885405e+02	1.078259e-01	4.260775e-01	0.000000e+00	
7.392653e-02	6.820256e-03	1.229486e+00	4.491533e+01	-4.465651e+00	2.554180e+05	1.018358e+05	2.885409e+02	1.078089e-01	4.261425e-01	0.000000e+00	
7.535243e-02	4.404985e-03	1.229485e+00	4.492483e+01	-4.466167e+00	2.554184e+05	1.018358e+05	2.885411e+02	1.078316e-01	4.261530e-01	0.000000e+00	
7.684123e-02	1.881403e-03	1.229484e+00	4.493493e+01	-4.467112e+00	2.554188e+05	1.018358e+05	2.885413e+02	1.078559e-01	4.261702e-01	0.000000e+00	
5.870877e-02	2.811659e-02	1.229486e+00	4.491995e+01	-4.467001e+00	2.554180e+05	1.018357e+05	2.885405e+02	1.078202e-01	4.260645e-01	0.000000e+00	
4.744510e-02	2.960559e-02	1.229488e+00	4.491384e+01	-4.468154e+00	2.554180e+05	1.018358e+05	2.885404e+02	1.078058e-01	4.261398e-01	0.000000e+00	
4.966610e-02	2.991312e-02	1.229485e+00	4.491349e+01	-4.467230e+00	2.554175e+05	1.018356e+05	2.885405e+02	1.078050e-01	4.259834e-01	0.000000e+00	
6.116813e-02	2.816098e-02	1.229486e+00	4.492020e+01	-4.467062e+00	2.554180e+05	1.018357e+05	2.885405e+02	1.078208e-01	4.260720e-01	0.000000e+00	
5.232283e-02	3.005122e-02	1.229486e+00	4.491473e+01	-4.467588e+00	2.554178e+05	1.018357e+05	2.885405e+02	1.078079e-01	4.260808e-01	0.000000e+00	
5.491570e-02	3.014042e-02	1.229486e+00	4.491639e+01	-4.467572e+00	2.554178e+05	1.018357e+05	2.885405e+02	1.078119e-01	4.260411e-01	0.000000e+00	
4.569681e-02	3.063000e-02	1.229495e+00	4.491669e+01	-4.462554e+00	2.554193e+05	1.018363e+05	2.885400e+02	1.078107e-01	4.265403e-01	0.000000e+00	
5.743382e-02	3.020345e-02	1.229486e+00	4.491735e+01	-4.467562e+00	2.554179e+05	1.018357e+05	2.885405e+02	1.078142e-01	4.260662e-01	0.000000e+00	
7.114614e-02	1.563216e-02	1.229489e+00	4.490854e+01	-4.465907e+00	2.554177e+05	1.018358e+05	2.885401e+02	1.077927e-01	4.261246e-01	0.000000e+00	
6.988952e-02	1.773168e-02	1.229489e+00	4.491252e+01	-4.466412e+00	2.554179e+05	1.018358e+05	2.885401e+02	1.078023e-01	4.261170e-01	0.000000e+00	
6.863367e-02	1.982765e-02	1.229488e+00	4.491683e+01	-4.466893e+00	2.554180e+05	1.018358e+05	2.885402e+02	1.078127e-01	4.261097e-01	0.000000e+00	
6.737881e-02	2.192177e-02	1.229488e+00	4.492045e+01	-4.467169e+00	2.554181e+05	1.018358e+05	2.885403e+02	1.078214e-01	4.261033e-01	0.000000e+00	
7.241391e-02	1.351307e-02	1.229489e+00	4.490585e+01	-4.465516e+00	2.554177e+05	1.018358e+05	2.885401e+02	1.077862e-01	4.261324e-01	0.000000e+00	
7.369824e-02	1.136253e-02	1.229488e+00	4.490547e+01	-4.465287e+00	2.554177e+05	1.018358e+05	2.885403e+02	1.077853e-01	4.261408e-01	0.000000e+00	
6.612422e-02	2.401532e-02	1.229487e+00	4.492236e+01	-4.467172e+00	2.554182e+05	1.018358e+05	2.885404e+02	1.078259e-01	4.260973e-01	0.000000e+00	
6.486951e-02	2.610863e-02	1.229487e+00	4.492213e+01	-4.467046e+00	2.554181e+05	1.018357e+05	2.885405e+02	1.078254e-01	4.260922e-01	0.000000e+00	
7.501658e-02	9.149196e-03	1.229487e+00	4.490832e+01	-4.465222e+00	2.554178e+05	1.018358e+05	2.885405e+02	1.077921e-01	4.261492e-01	0.000000e+00	
6.361429e-02	2.820181e-02	1.229486e+00	4.492028e+01	-4.467034e+00	2.554181e+05	1.018357e+05	2.885405e+02	1.078210e-01	4.260872e-01	0.000000e+00	
7.638896e-02	6.839281e-03	1.229486e+00	4.491476e+01	-4.465380e+00	2.554181e+05	1.018358e+05	2.885408e+02	1.078074e-01	4.261580e-01	0.000000e+00	
7.782835e-02	4.412027e-03	1.229485e+00	4.492391e+01	-4.465894e+00	2.554184e+05	1.018358e+05	2.885411e+02	1.078293e-01	4.261690e-01	0.000000e+00	
7.933833e-02	1.866143e-03	1.229485e+00	4.493374e+01	-4.466830e+00	2.554188e+05	1.018359e+05	2.885413e+02	1.078529e-01	4.261849e-01	0.000000e+00	
5.990665e-02	3.025250e-02	1.229486e+00	4.491794e+01	-4.467411e+00	2.554179e+05	1.018357e+05	2.885405e+02	1.078155e-01	4.260683e-01	0.000000e+00	
4.783424e-02	3.197013e-02	1.229485e+00	4.491235e+01	-4.466646e+00	2.554173e+05	1.018356e+05	2.885405e+02	1.078022e-01	4.259319e-01	0.000000e+00	
5.091222e-02	3.211386e-02	1.229486e+00	4.491483e+01	-4.468662e+00	2.554177e+05	1.018357e+05	2.885405e+02	1.078085e-01	4.260429e-01	0.000000e+00	
6.235804e-02	3.029526e-02	1.229486e+00	4.491814e+01	-4.467213e+00	2.554180e+05	1.018357e+05	2.885405e+02	1.078159e-01	4.260832e-01	0.000000e+00	
5.359311e-02	3.221509e-02	1.229486e+00	4.491636e+01	-4.468606e+00	2.554178e+05	1.018357e+05	2.885405e+02	1.078121e-01	4.260308e-01	0.000000e+00	
5.614908e-02	3.228830e-02	1.229486e+00	4.491689e+01	-4.468239e+00	2.554179e+05	1.018357e+05	2.885404e+02	1.078132e-01	4.260573e-01	0.000000e+00	
4.569681e-02	3.318250e-02	1.229473e+00	4.490516e+01	-4.462729e+00	2.554150e+05	1.018347e+05	2.885407e+02	1.077851e-01	4.252493e-01	0.000000e+00	
5.864072e-02	3.234375e-02	1.229486e+00	4.491698e+01	-4.467766e+00	2.554179e+05	1.018357e+05	2.885404e+02	1.078133e-01	4.260633e-01	0.000000e+00	
7.232819e-02	1.777309e-02	1.229489e+00	4.491308e+01	-4.466253e+00	2.554179e+05	1.018358e+05	2.885402e+02	1.078036e-01	4.261327e-01	0.000000e+00	
7.358856e-02	1.566900e-02	1.229489e+00	4.490904e+01	-4.465766e+00	2.554178e+05	1.018358e+05	2.885401e+02	1.077938e-01	4.261401e-01	0.000000e+00	
7.107414e-02	1.986710e-02	1.229488e+00	4.491724e+01	-4.466696e+00	2.554181e+05	1.018358e+05	2.885402e+02	1.078136e-01	4.261253e-01	0.000000e+00	
6.981924e-02	2.196114e-02	1.229488e+00	4.492054e+01	-4.466965e+00	2.554182e+05	1.018358e+05	2.885403e+02	1.078215e-01	4.261182e-01	0.000000e+00	
6.856473e-02	2.405466e-02	1.229487e+00	4.492220e+01	-4.467016e+00	2.554182e+05	1.018358e+05	2.885404e+02	1.078255e-01	4.261117e-01	0.000000e+00	
7.485656e-02	1.355089e-02	1.229489e+00	4.490616e+01	-4.465360e+00	2.554177e+05	1.018358e+05	2.885401e+02	1.077869e-01	4.261487e-01	0.000000e+00	
7.614438e-02	1.139700e-02	1.229488e+00	4.490552e+01	-4.465085e+00	2.554177e+05	1.018358e+05	2.885403e+02	1.077853e-01	4.261558e-01	0.000000e+00	
6.731036e-02	2.614805e-02	1.229487e+00	4.492194e+01	-4.466947e+00	2.554182e+05	1.018358e+05	2.885405e+02	1.078249e-01	4.261056e-01	0.000000e+00	
6.605595e-02	2.824148e-02	1.229487e+00	4.492023e+01	-4.466915e+00	2.554181e+05	1.018358e+05	2.885405e+02	1.078208e-01	4.260998e-01	0.000000e+00	
7.746997e-02	9.176962e-03	1.229488e+00	4.490810e+01	-4.464987e+00	2.554178e+05	1.018358e+05	2.885405e+02	1.077915e-01	4.261664e-01	0.000000e+00	
6.480126e-02	3.033556e-02	1.229487e+00	4.491809e+01	-4.466959e+00	2.554180e+05	1.018357e+05	2.885405e+02	1.078157e-01	4.260944e-01	0.000000e+00	
7.885286e-02	6.858435e-03	1.229486e+00	4.491420e+01	-4.465112e+00	2.554181e+05	1.018358e+05	2.885408e+02	1.078060e-01	4.261716e-01	0.000000e+00	
8.031320e-02	4.412632e-03	1.229485e+00	4.492302e+01	-4.465634e+00	2.554185e+05	1.018359e+05	2.885411e+02	1.078271e-01	4.261883e-01	0.000000e+00	
8.184015e-02	1.854631e-03	1.229485e+00	4.493259e+01	-4.466529e+00	2.554189e+05	1.018359e+05	2.885413e+02	1.078501e-01	4.261998e-01	0.000000e+00	
6.110025e-02	3.239006e-02	1.229487e+00	4.491673e+01	-4.467326e+00	2.554179e+05	1.018357e+05	2.885404e+02	1.078126e-01	4.260781e-01	0.000000e+00	
4.965197e-02	3.420438e-02	1.229488e+00	4.491931e+01	-4.469968e+00	2.554181e+05	1.018358e+05	2.885404e+02	1.078193e-01	4.261223e-01	0.000000e+00	
4.747773e-02	3.427632e-02	1.229493e+00	4.491630e+01	-4.472910e+00	2.554193e+05	1.018363e+05	2.885405e+02	1.078123e-01	4.265310e-01	0.000000e+00	
5.228208e-02	3.429052e-02	1.229487e+00	4.491914e+01	-4.469108e+00	2.554179e+05	1.018357e+05	2.885403e+02	1.078188e-01	4.260535e-01	0.000000e+00	
6.354617e-02	3.243228e-02	1.229487e+00	4.491631e+01	-4.466910e+00	2.554179e+05	1.018357e+05	2.885404e+02	1.078115e-01	4.260889e-01	0.000000e+00	
5.485998e-02	3.437169e-02	1.229487e+00	4.491803e+01	-4.468212e+00	2.554179e+05	1.018357e+05	2.885403e+02	1.078159e-01	4.260643e-01	0.000000e+00	
5.737064e-02	3.443556e-02	1.229487e+00	4.491693e+01	-4.467564e+00	2.554179e+05	1.018357e+05	2.885403e+02	1.078131e-01	4.260621e-01	0.000000e+00	
4.569681e-02	3.573500e-02	1.229498e+00	4.492495e+01	-4.477705e+00	2.554205e+05	1.018366e+05	2.885403e+02	1.078336e-01	4.268351e-01	0.000000e+00	
5.984097e-02	3.448847e-02	1.229487e+00	4.491585e+01	-4.467010e+00	2.554179e+05	1.018357e+05	2.885403e+02	1.078104e-01	4.260743e-01	0.000000e+00	
7.351282e-02	1.990848e-02	1.229488e+00	4.491761e+01	-4.466502e+00	2.554181e+05	1.018358e+05	2.885403e+02	1.078144e-01	4.261408e-01	0.000000e+00	
7.477002e-02	1.781058e-02	1.229489e+00	4.491360e+01	-4.466085e+00	2.554180e+05	1.018358e+05	2.885402e+02	1.078047e-01	4.261482e-01	0.000000e+00	
7.602992e-02	1.570805e-02	1.229489e+00	4.490955e+01	-4.465615e+00	2.554179e+05	1.018358e+05	2.885401e+02	1.077950e-01	4.261563e-01	0.000000e+00	
7.225959e-02	2.200069e-02	1.229488e+00	4.492065e+01	-4.466765e+00	2.554182e+05	1.018358e+05	2.885404e+02	1.078217e-01	4.261336e-01	0.000000e+00	
7.100502e-02	2.409411e-02	1.229487e+00	4.492209e+01	-4.466843e+00	2.554182e+05	1.018358e+05	2.885405e+02	1.078252e-01	4.261267e-01	0.000000e+00	
6.975065e-02	2.618745e-02	1.229487e+00	4.492175e+01	-4.466800e+00	2.554182e+05	1.018358e+05	2.885405e+02	1.078244e-01	4.261202e-01	0.000000e+00	
7.729975e-02	1.358812e-02	1.229489e+00	4.490650e+01	-4.465198e+00	2.554178e+05	1.018358e+05	2.885402e+02	1.077876e-01	4.261639e-01	0.000000e+00	
7.859210e-02	1.142992e-02	1.229489e+00	4.490563e+01	-4.464893e+00	2.554178e+05	1.018358e+05	2.885403e+02	1.077855e-01	4.261727e-01	0.000000e+00	
6.849641e-02	2.828091e-02	1.229487e+00	4.492006e+01	-4.466740e+00	2.554181e+05	1.018358e+05	2.885406e+02	1.078204e-01	4.261140e-01	0.000000e+00	
6.724219e-02	3.037512e-02	1.229487e+00	4.491785e+01	-4.466687e+00	2.554180e+05	1.018358e+05	2.885405e+02	1.078151e-01	4.261081e-01	0.000000e+00	
7.992512e-02	9.203719e-03	1.229488e+00	4.490791e+01	-4.464753e+00	2.554179e+05	1.018359e+05	2.885405e+02	1.077909e-01	4.261799e-01	0.000000e+00	
6.598744e-02	3.247230e-02	1.229487e+00	4.491582e+01	-4.466546e+00	2.554179e+05	1.018358e+05	2.885404e+02	1.078102e-01	4.261026e-01	0.000000e+00	
8.132695e-02	6.869338e-03	1.229487e+00	4.491372e+01	-4.464861e+00	2.554181e+05	1.018359e+05	2.885408e+02	1.078048e-01	4.261920e-01	0.000000e+00	
8.280883e-02	4.414808e-03	1.229486e+00	4.492209e+01	-4.465372e+00	2.554185e+05	1.018359e+05	2.885411e+02	1.078249e-01	4.261995e-01	0.000000e+00	
8.435937e-02	1.855860e-03	1.229485e+00	4.493144e+01	-4.466222e+00	2.554188e+05	1.018359e+05	2.885413e+02	1.078473e-01	4.262103e-01	0.000000e+00	
6.229080e-02	3.453563e-02	1.229488e+00	4.491495e+01	-4.466577e+00	2.554179e+05	1.018357e+05	2.885402e+02	1.078082e-01	4.260844e-01	0.000000e+00	
5.098522e-02	3.635169e-02	1.229488e+00	4.491983e+01	-4.468083e+00	2.554181e+05	1.018358e+05	2.885402e+02	1.078201e-01	4.261020e-01	0.000000e+00	
4.831701e-02	3.618984e-02	1.229483e+00	4.492353e+01	-4.469561e+00	2.554173e+05	1.018354e+05	2.885402e+02	1.078296e-01	4.257829e-01	0.000000e+00	
5.357339e-02	3.645122e-02	1.229487e+00	4.491771e+01	-4.467127e+00	2.554178e+05	1.018357e+05	2.885401e+02	1.078149e-01	4.260276e-01	0.000000e+00	
6.473311e-02	3.457953e-02	1.229488e+00	4.491426e+01	-4.466258e+00	2.554179e+05	1.018358e+05	2.885402e+02	1.078064e-01	4.260966e-01	0.000000e+00	
5.609980e-02	3.652868e-02	1.229488e+00	4.491581e+01	-4.466648e+00	2.554178e+05	1.018357e+05	2.885401e+02	1.078102e-01	4.260608e-01	0.000000e+00	
5.858063e-02	3.659607e-02	1.229488e+00	4.491448e+01	-4.466282e+00	2.554178e+05	1.018357e+05	2.885401e+02	1.078070e-01	4.260676e-01	0.000000e+00	
4.715598e-02	3.827448e-02	1.229484e+00	4.492027e+01	-4.467259e+00	2.554170e+05	1.018353e+05	2.885400e+02	1.078214e-01	4.257161e-01	0.000000e+00	
6.103532e-02	3.665296e-02	1.229488e+00	4.491369e+01	-4.466089e+00	2.554178e+05	1.018357e+05	2.885400e+02	1.078050e-01	4.260785e-01	0.000000e+00	