TITLE = "SU2 Simulation"
VARIABLES = "Iteration","CL","CD","CSF","CMx","CMy","CMz","CFx","CFy","CFz","CL/CD","AoA","Custom_ObjFunc","Res_Flow[0]","Res_Flow[1]","Res_Flow[2]","Res_Flow[3]","Res_Flow[4]","Linear_Solver_Iterations","CFL_Number","Time(min)"
ZONE T= "Convergence history"
           0, 0.00000000e+00, 0.00000000e+00, 0.00000000e+00, 0.00000000e+00, 0.00000000e+00, 0.00000000e+00, 0.00000000e+00, 0.00000000e+00, 0.00000000e+00, 0.00000000e+00, 0.00000000e+00, 0.00000000e+00, -5.00783903e+00, -2.37308277e+00, -1.38413397e+01, 5.32964552e-01, 0.00000000e+00, 5.0000000000, 6.0000000000, 0.0006767833
           1, 0.00000000e+00, 0.00000000e+00, 0.00000000e+00, 0.00000000e+00, 0.00000000e+00, 0.00000000e+00, 0.00000000e+00, 0.00000000e+00, 0.00000000e+00, 0.00000000e+00, 0.00000000e+00, 0.00000000e+00, -5.43652540e+00, -2.78745316e+00, -4.58556310e+00, 1.27021093e-01, 0.00000000e+00, 5.0000000000, 6.0000000000, 0.0014253167
           2, 0.00000000e+00, 0.00000000e+00, 0.00000000e+00, 0.00000000e+00, 0.00000000e+00, 0.00000000e+00, 0.00000000e+00, 0.00000000e+00, 0.00000000e+00, 0.00000000e+00, 0.00000000e+00, 0.00000000e+00, -4.32962548e+00, -1.85741060e+00, -4.50209144e+00, 1.11053735e+00, 0.00000000e+00, 5.0000000000, 6.0000000000, 0.0020446167
           3, 0.00000000e+00, 0.00000000e+00, 0.00000000e+00, 0.00000000e+00, 0.00000000e+00, 0.00000000e+00, 0.00000000e+00, 0.00000000e+00, 0.00000000e+00, 0.00000000e+00, 0.00000000e+00, 0.00000000e+00, -4.14258586e+00, -1.67248553e+00, -3.72112949e+00, 1.29760019e+00, 0.00000000e+00, 5.0000000000, 6.0000000000, 0.0026764833
           4, 0.00000000e+00, 0.00000000e+00, 0.00000000e+00, 0.00000000e+00, 0.00000000e+00, 0.00000000e+00, 0.00000000e+00, 0.00000000e+00, 0.00000000e+00, 0.00000000e+00, 0.00000000e+00, 0.00000000e+00, -4.08283332e+00, -1.61239348e+00, -3.42179229e+00, 1.35778056e+00, 0.00000000e+00, 5.0000000000, 6.0000000000, 0.0032849333
           5, 0.00000000e+00, 0.00000000e+00, 0.00000000e+00, 0.00000000e+00, 0.00000000e+00, 0.00000000e+00, 0.00000000e+00, 0.00000000e+00, 0.00000000e+00, 0.00000000e+00, 0.00000000e+00, 0.00000000e+00, -4.06920065e+00, -1.59747316e+00, -3.29122809e+00, 1.37160835e+00, 0.00000000e+00, 5.0000000000, 6.0000000000, 0.0039042167
           6, 0.00000000e+00, 0.00000000e+00, 0.00000000e+00, 0.00000000e+00, 0.00000000e+00, 0.00000000e+00, 0.00000000e+00, 0.00000000e+00, 0.00000000e+00, 0.00000000e+00, 0.00000000e+00, 0.00000000e+00, -4.07368387e+00, -1.60107459e+00, -3.23649684e+00, 1.36705785e+00, 0.00000000e+00, 5.0000000000, 6.0000000000, 0.0045455833
           7, 0.00000000e+00, 0.00000000e+00, 0.00000000e+00, 0.00000000e+00, 0.00000000e+00, 0.00000000e+00, 0.00000000e+00, 0.00000000e+00, 0.00000000e+00, 0.00000000e+00, 0.00000000e+00, 0.00000000e+00, -4.08430436e+00, -1.61163953e+00, -3.22241489e+00, 1.35626839e+00, 0.00000000e+00, 5.0000000000, 6.0000000000, 0.0051955833
           8, 0.00000000e+00, 0.00000000e+00, 0.00000000e+00, 0.00000000e+00, 0.00000000e+00, 0.00000000e+00, 0.00000000e+00, 0.00000000e+00, 0.00000000e+00, 0.00000000e+00, 0.00000000e+00, 0.00000000e+00, -4.09639595e+00, -1.62417831e+00, -3.23107859e+00, 1.34404815e+00, 0.00000000e+00, 5.0000000000, 6.0000000000, 0.0058054833
           9, 0.00000000e+00, 0.00000000e+00, 0.00000000e+00, 0.00000000e+00, 0.00000000e+00, 0.00000000e+00, 0.00000000e+00, 0.00000000e+00, 0.00000000e+00, 0.00000000e+00, 0.00000000e+00, 0.00000000e+00, -4.10849499e+00, -1.63679170e+00, -3.25154548e+00, 1.33191101e+00, 0.00000000e+00, 5.0000000000, 6.0000000000, 0.0064196167
          10, 0.00000000e+00, 0.00000000e+00, 0.00000000e+00, 0.00000000e+00, 0.00000000e+00, 0.00000000e+00, 0.00000000e+00, 0.00000000e+00, 0.00000000e+00, 0.00000000e+00, 0.00000000e+00, 0.00000000e+00, -4.12018464e+00, -1.64883272e+00, -3.27660071e+00, 1.32026000e+00, 0.00000000e+00, 5.0000000000, 6.0000000000, 0.0070448000
          11, 0.00000000e+00, 0.00000000e+00, 0.00000000e+00, 0.00000000e+00, 0.00000000e+00, 0.00000000e+00, 0.00000000e+00, 0.00000000e+00, 0.00000000e+00, 0.00000000e+00, 0.00000000e+00, 0.00000000e+00, -4.13121780e+00, -1.66001302e+00, -3.30318170e+00, 1.30930842e+00, 0.00000000e+00, 5.0000000000, 6.0000000000, 0.0076940000
          12, 0.00000000e+00, 0.00000000e+00, 0.00000000e+00, 0.00000000e+00, 0.00000000e+00, 0.00000000e+00, 0.00000000e+00, 0.00000000e+00, 0.00000000e+00, 0.00000000e+00, 0.00000000e+00, 0.00000000e+00, -4.14132260e+00, -1.67010674e+00, -3.33156762e+00, 1.29929713e+00, 0.00000000e+00, 5.0000000000, 6.0000000000, 0.0083185333
          13, 0.00000000e+00, 0.00000000e+00, 0.00000000e+00, 0.00000000e+00, 0.00000000e+00, 0.00000000e+00, 0.00000000e+00, 0.00000000e+00, 0.00000000e+00, 0.00000000e+00, 0.00000000e+00, 0.00000000e+00, -4.15027569e+00, -1.67895194e+00, -3.36130658e+00, 1.29042687e+00, 0.00000000e+00, 5.0000000000, 6.0000000000, 0.0089328000
          14, 0.00000000e+00, 0.00000000e+00, 0.00000000e+00, 0.00000000e+00, 0.00000000e+00, 0.00000000e+00, 0.00000000e+00, 0.00000000e+00, 0.00000000e+00, 0.00000000e+00, 0.00000000e+00, 0.00000000e+00, -4.15801227e+00, -1.68652327e+00, -3.38787604e+00, 1.28274815e+00, 0.00000000e+00, 5.0000000000, 6.0000000000, 0.0095092000
          15, 0.00000000e+00, 0.00000000e+00, 0.00000000e+00, 0.00000000e+00, 0.00000000e+00, 0.00000000e+00, 0.00000000e+00, 0.00000000e+00, 0.00000000e+00, 0.00000000e+00, 0.00000000e+00, 0.00000000e+00, -4.16466470e+00, -1.69295388e+00, -3.40441318e+00, 1.27612159e+00, 0.00000000e+00, 5.0000000000, 6.0000000000, 0.0101201000
          16, 0.00000000e+00, 0.00000000e+00, 0.00000000e+00, 0.00000000e+00, 0.00000000e+00, 0.00000000e+00, 0.00000000e+00, 0.00000000e+00, 0.00000000e+00, 0.00000000e+00, 0.00000000e+00, 0.00000000e+00, -4.17051589e+00, -1.69848396e+00, -3.40757267e+00, 1.27026306e+00, 0.00000000e+00, 5.0000000000, 6.0000000000, 0.0107395833
          17, 0.00000000e+00, 0.00000000e+00, 0.00000000e+00, 0.00000000e+00, 0.00000000e+00, 0.00000000e+00, 0.00000000e+00, 0.00000000e+00, 0.00000000e+00, 0.00000000e+00, 0.00000000e+00, 0.00000000e+00, -4.17590863e+00, -1.70337442e+00, -3.40039101e+00, 1.26483211e+00, 0.00000000e+00, 5.0000000000, 6.0000000000, 0.0112732833
          18, 0.00000000e+00, 0.00000000e+00, 0.00000000e+00, 0.00000000e+00, 0.00000000e+00, 0.00000000e+00, 0.00000000e+00, 0.00000000e+00, 0.00000000e+00, 0.00000000e+00, 0.00000000e+00, 0.00000000e+00, -4.18115894e+00, -1.70783885e+00, -3.38877570e+00, 1.25951651e+00, 0.00000000e+00, 5.0000000000, 6.0000000000, 0.0118554833
          19, 0.00000000e+00, 0.00000000e+00, 0.00000000e+00, 0.00000000e+00, 0.00000000e+00, 0.00000000e+00, 0.00000000e+00, 0.00000000e+00, 0.00000000e+00, 0.00000000e+00, 0.00000000e+00, 0.00000000e+00, -4.18649577e+00, -1.71202300e+00, -3.37732643e+00, 1.25409188e+00, 0.00000000e+00, 5.0000000000, 6.0000000000, 0.0124073667
          20, 0.00000000e+00, 0.00000000e+00, 0.00000000e+00, 0.00000000e+00, 0.00000000e+00, 0.00000000e+00, 0.00000000e+00, 0.00000000e+00, 0.00000000e+00, 0.00000000e+00, 0.00000000e+00, 0.00000000e+00, -4.19202271e+00, -1.71602650e+00, -3.36840544e+00, 1.24846099e+00, 0.00000000e+00, 5.0000000000, 6.0000000000, 0.0130414833
          21, 0.00000000e+00, 0.00000000e+00, 0.00000000e+00, 0.00000000e+00, 0.00000000e+00, 0.00000000e+00, 0.00000000e+00, 0.00000000e+00, 0.00000000e+00, 0.00000000e+00, 0.00000000e+00, 0.00000000e+00, -4.19770218e+00, -1.71995071e+00, -3.36299650e+00, 1.24267190e+00, 0.00000000e+00, 5.0000000000, 6.0000000000, 0.0136923833
          22, 0.00000000e+00, 0.00000000e+00, 0.00000000e+00, 0.00000000e+00, 0.00000000e+00, 0.00000000e+00, 0.00000000e+00, 0.00000000e+00, 0.00000000e+00, 0.00000000e+00, 0.00000000e+00, 0.00000000e+00, -4.20336699e+00, -1.72394591e+00, -3.36151212e+00, 1.23690843e+00, 0.00000000e+00, 5.0000000000, 6.0000000000, 0.0143128500
          23, 0.00000000e+00, 0.00000000e+00, 0.00000000e+00, 0.00000000e+00, 0.00000000e+00, 0.00000000e+00, 0.00000000e+00, 0.00000000e+00, 0.00000000e+00, 0.00000000e+00, 0.00000000e+00, 0.00000000e+00, -4.20876041e+00, -1.72822492e+00, -3.36410270e+00, 1.23144967e+00, 0.00000000e+00, 5.0000000000, 6.0000000000, 0.0149366333
          24, 0.00000000e+00, 0.00000000e+00, 0.00000000e+00, 0.00000000e+00, 0.00000000e+00, 0.00000000e+00, 0.00000000e+00, 0.00000000e+00, 0.00000000e+00, 0.00000000e+00, 0.00000000e+00, 0.00000000e+00, -4.21360447e+00, -1.73302766e+00, -3.37068678e+00, 1.22659749e+00, 0.00000000e+00, 5.0000000000, 6.0000000000, 0.0155521333
          25, 0.00000000e+00, 0.00000000e+00, 0.00000000e+00, 0.00000000e+00, 0.00000000e+00, 0.00000000e+00, 0.00000000e+00, 0.00000000e+00, 0.00000000e+00, 0.00000000e+00, 0.00000000e+00, 0.00000000e+00, -4.21768638e+00, -1.73854716e+00, -3.38090364e+00, 1.22258218e+00, 0.00000000e+00, 5.0000000000, 6.0000000000, 0.0161211500
          26, 0.00000000e+00, 0.00000000e+00, 0.00000000e+00, 0.00000000e+00, 0.00000000e+00, 0.00000000e+00, 0.00000000e+00, 0.00000000e+00, 0.00000000e+00, 0.00000000e+00, 0.00000000e+00, 0.00000000e+00, -4.22093708e+00, -1.74484541e+00, -3.39407235e+00, 1.21947565e+00, 0.00000000e+00, 5.0000000000, 6.0000000000, 0.0167507667
          27, 0.00000000e+00, 0.00000000e+00, 0.00000000e+00, 0.00000000e+00, 0.00000000e+00, 0.00000000e+00, 0.00000000e+00, 0.00000000e+00, 0.00000000e+00, 0.00000000e+00, 0.00000000e+00, 0.00000000e+00, -4.22346927e+00, -1.75179337e+00, -3.40918395e+00, 1.21714918e+00, 0.00000000e+00, 5.0000000000, 6.0000000000, 0.0173481000
          28, 0.00000000e+00, 0.00000000e+00, 0.00000000e+00, 0.00000000e+00, 0.00000000e+00, 0.00000000e+00, 0.00000000e+00, 0.00000000e+00, 0.00000000e+00, 0.00000000e+00, 0.00000000e+00, 0.00000000e+00, -4.22555540e+00, -1.75906265e+00, -3.42496841e+00, 1.21529810e+00, 0.00000000e+00, 5.0000000000, 6.0000000000, 0.0179509333
          29, 0.00000000e+00, 0.00000000e+00, 0.00000000e+00, 0.00000000e+00, 0.00000000e+00, 0.00000000e+00, 0.00000000e+00, 0.00000000e+00, 0.00000000e+00, 0.00000000e+00, 0.00000000e+00, 0.00000000e+00, -4.22755343e+00, -1.76618104e+00, -3.44007014e+00, 1.21352451e+00, 0.00000000e+00, 5.0000000000, 6.0000000000, 0.0186776000
          30, 0.00000000e+00, 0.00000000e+00, 0.00000000e+00, 0.00000000e+00, 0.00000000e+00, 0.00000000e+00, 0.00000000e+00, 0.00000000e+00, 0.00000000e+00, 0.00000000e+00, 0.00000000e+00, 0.00000000e+00, -4.22981125e+00, -1.77264207e+00, -3.45331574e+00, 1.21144326e+00, 0.00000000e+00, 5.0000000000, 6.0000000000, 0.0192259333
          31, 0.00000000e+00, 0.00000000e+00, 0.00000000e+00, 0.00000000e+00, 0.00000000e+00, 0.00000000e+00, 0.00000000e+00, 0.00000000e+00, 0.00000000e+00, 0.00000000e+00, 0.00000000e+00, 0.00000000e+00, -4.23258476e+00, -1.77803537e+00, -3.46399128e+00, 1.20877183e+00, 0.00000000e+00, 5.0000000000, 6.0000000000, 0.0198284000
          32, 0.00000000e+00, 0.00000000e+00, 0.00000000e+00, 0.00000000e+00, 0.00000000e+00, 0.00000000e+00, 0.00000000e+00, 0.00000000e+00, 0.00000000e+00, 0.00000000e+00, 0.00000000e+00, 0.00000000e+00, -4.23599246e+00, -1.78215073e+00, -3.47199665e+00, 1.20537956e+00, 0.00000000e+00, 5.0000000000, 6.0000000000, 0.0203801500
          33, 0.00000000e+00, 0.00000000e+00, 0.00000000e+00, 0.00000000e+00, 0.00000000e+00, 0.00000000e+00, 0.00000000e+00, 0.00000000e+00, 0.00000000e+00, 0.00000000e+00, 0.00000000e+00, 0.00000000e+00, -4.24001146e+00, -1.78501580e+00, -3.47778679e+00, 1.20129149e+00, 0.00000000e+00, 5.0000000000, 6.0000000000, 0.0209721667
          34, 0.00000000e+00, 0.00000000e+00, 0.00000000e+00, 0.00000000e+00, 0.00000000e+00, 0.00000000e+00, 0.00000000e+00, 0.00000000e+00, 0.00000000e+00, 0.00000000e+00, 0.00000000e+00, 0.00000000e+00, -4.24450640e+00, -1.78685855e+00, -3.48213703e+00, 1.19665631e+00, 0.00000000e+00, 5.0000000000, 6.0000000000, 0.0215476333
          35, 0.00000000e+00, 0.00000000e+00, 0.00000000e+00, 0.00000000e+00, 0.00000000e+00, 0.00000000e+00, 0.00000000e+00, 0.00000000e+00, 0.00000000e+00, 0.00000000e+00, 0.00000000e+00, 0.00000000e+00, -4.24927669e+00, -1.78801912e+00, -3.48587170e+00, 1.19169455e+00, 0.00000000e+00, 5.0000000000, 6.0000000000, 0.0221237333
          36, 0.00000000e+00, 0.00000000e+00, 0.00000000e+00, 0.00000000e+00, 0.00000000e+00, 0.00000000e+00, 0.00000000e+00, 0.00000000e+00, 0.00000000e+00, 0.00000000e+00, 0.00000000e+00, 0.00000000e+00, -4.25410678e+00, -1.78885199e+00, -3.48968168e+00, 1.18664322e+00, 0.00000000e+00, 5.0000000000, 6.0000000000, 0.0227114167
          37, 0.00000000e+00, 0.00000000e+00, 0.00000000e+00, 0.00000000e+00, 0.00000000e+00, 0.00000000e+00, 0.00000000e+00, 0.00000000e+00, 0.00000000e+00, 0.00000000e+00, 0.00000000e+00, 0.00000000e+00, -4.25880802e+00, -1.78965102e+00, -3.49405909e+00, 1.18170966e+00, 0.00000000e+00, 5.0000000000, 6.0000000000, 0.0232876833
          38, 0.00000000e+00, 0.00000000e+00, 0.00000000e+00, 0.00000000e+00, 0.00000000e+00, 0.00000000e+00, 0.00000000e+00, 0.00000000e+00, 0.00000000e+00, 0.00000000e+00, 0.00000000e+00, 0.00000000e+00, -4.26324559e+00, -1.79060951e+00, -3.49930719e+00, 1.17704157e+00, 0.00000000e+00, 5.0000000000, 6.0000000000, 0.0238957500
          39, 0.00000000e+00, 0.00000000e+00, 0.00000000e+00, 0.00000000e+00, 0.00000000e+00, 0.00000000e+00, 0.00000000e+00, 0.00000000e+00, 0.00000000e+00, 0.00000000e+00, 0.00000000e+00, 0.00000000e+00, -4.26735039e+00, -1.79181044e+00, -3.50558331e+00, 1.17271396e+00, 0.00000000e+00, 5.0000000000, 6.0000000000, 0.0244703833
          40, 0.00000000e+00, 0.00000000e+00, 0.00000000e+00, 0.00000000e+00, 0.00000000e+00, 0.00000000e+00, 0.00000000e+00, 0.00000000e+00, 0.00000000e+00, 0.00000000e+00, 0.00000000e+00, 0.00000000e+00, -4.27111976e+00, -1.79323409e+00, -3.51295415e+00, 1.16872872e+00, 0.00000000e+00, 5.0000000000, 6.0000000000, 0.0250559500
          41, 0.00000000e+00, 0.00000000e+00, 0.00000000e+00, 0.00000000e+00, 0.00000000e+00, 0.00000000e+00, 0.00000000e+00, 0.00000000e+00, 0.00000000e+00, 0.00000000e+00, 0.00000000e+00, 0.00000000e+00, -4.27461317e+00, -1.79477059e+00, -3.52144493e+00, 1.16502028e+00, 0.00000000e+00, 5.0000000000, 6.0000000000, 0.0255983333
          42, 0.00000000e+00, 0.00000000e+00, 0.00000000e+00, 0.00000000e+00, 0.00000000e+00, 0.00000000e+00, 0.00000000e+00, 0.00000000e+00, 0.00000000e+00, 0.00000000e+00, 0.00000000e+00, 0.00000000e+00, -4.27794840e+00, -1.79622924e+00, -3.53106169e+00, 1.16146118e+00, 0.00000000e+00, 5.0000000000, 6.0000000000, 0.0261990333
          43, 0.00000000e+00, 0.00000000e+00, 0.00000000e+00, 0.00000000e+00, 0.00000000e+00, 0.00000000e+00, 0.00000000e+00, 0.00000000e+00, 0.00000000e+00, 0.00000000e+00, 0.00000000e+00, 0.00000000e+00, -4.28130102e+00, -1.79734247e+00, -3.54177512e+00, 1.15786394e+00, 0.00000000e+00, 5.0000000000, 6.0000000000, 0.0268036500
          44, 0.00000000e+00, 0.00000000e+00, 0.00000000e+00, 0.00000000e+00, 0.00000000e+00, 0.00000000e+00, 0.00000000e+00, 0.00000000e+00, 0.00000000e+00, 0.00000000e+00, 0.00000000e+00, 0.00000000e+00, -4.28490762e+00, -1.79776761e+00, -3.55346579e+00, 1.15397889e+00, 0.00000000e+00, 5.0000000000, 6.0000000000, 0.0274126167
          45, 0.00000000e+00, 0.00000000e+00, 0.00000000e+00, 0.00000000e+00, 0.00000000e+00, 0.00000000e+00, 0.00000000e+00, 0.00000000e+00, 0.00000000e+00, 0.00000000e+00, 0.00000000e+00, 0.00000000e+00, -4.28907066e+00, -1.79709501e+00, -3.56584129e+00, 1.14948975e+00, 0.00000000e+00, 5.0000000000, 6.0000000000, 0.0280112333
          46, 0.00000000e+00, 0.00000000e+00, 0.00000000e+00, 0.00000000e+00, 0.00000000e+00, 0.00000000e+00, 0.00000000e+00, 0.00000000e+00, 0.00000000e+00, 0.00000000e+00, 0.00000000e+00, 0.00000000e+00, -4.29416219e+00, -1.79487340e+00, -3.57834803e+00, 1.14401025e+00, 0.00000000e+00, 5.0000000000, 6.0000000000, 0.0285918500
          47, 0.00000000e+00, 0.00000000e+00, 0.00000000e+00, 0.00000000e+00, 0.00000000e+00, 0.00000000e+00, 0.00000000e+00, 0.00000000e+00, 0.00000000e+00, 0.00000000e+00, 0.00000000e+00, 0.00000000e+00, -4.30062364e+00, -1.79066199e+00, -3.59011608e+00, 1.13708473e+00, 0.00000000e+00, 5.0000000000, 6.0000000000, 0.0291196000
          48, 0.00000000e+00, 0.00000000e+00, 0.00000000e+00, 0.00000000e+00, 0.00000000e+00, 0.00000000e+00, 0.00000000e+00, 0.00000000e+00, 0.00000000e+00, 0.00000000e+00, 0.00000000e+00, 0.00000000e+00, -4.30895948e+00, -1.78411057e+00, -3.59999406e+00, 1.12819539e+00, 0.00000000e+00, 5.0000000000, 6.0000000000, 0.0296566333
          49, 0.00000000e+00, 0.00000000e+00, 0.00000000e+00, 0.00000000e+00, 0.00000000e+00, 0.00000000e+00, 0.00000000e+00, 0.00000000e+00, 0.00000000e+00, 0.00000000e+00, 0.00000000e+00, 0.00000000e+00, -4.31972299e+00, -1.77505415e+00, -3.60673072e+00, 1.11677871e+00, 0.00000000e+00, 5.0000000000, 6.0000000000, 0.0302561500
          50, 0.00000000e+00, 0.00000000e+00, 0.00000000e+00, 0.00000000e+00, 0.00000000e+00, 0.00000000e+00, 0.00000000e+00, 0.00000000e+00, 0.00000000e+00, 0.00000000e+00, 0.00000000e+00, 0.00000000e+00, -4.33349192e+00, -1.76359394e+00, -3.60930653e+00, 1.10225431e+00, 0.00000000e+00, 5.0000000000, 6.0000000000, 0.0308762667
          51, 0.00000000e+00, 0.00000000e+00, 0.00000000e+00, 0.00000000e+00, 0.00000000e+00, 0.00000000e+00, 0.00000000e+00, 0.00000000e+00, 0.00000000e+00, 0.00000000e+00, 0.00000000e+00, 0.00000000e+00, -4.35082869e+00, -1.75013330e+00, -3.60731071e+00, 1.08407372e+00, 0.00000000e+00, 5.0000000000, 6.0000000000, 0.0314881833
          52, 0.00000000e+00, 0.00000000e+00, 0.00000000e+00, 0.00000000e+00, 0.00000000e+00, 0.00000000e+00, 0.00000000e+00, 0.00000000e+00, 0.00000000e+00, 0.00000000e+00, 0.00000000e+00, 0.00000000e+00, -4.37221370e+00, -1.73535142e+00, -3.60117232e+00, 1.06180456e+00, 0.00000000e+00, 5.0000000000, 6.0000000000, 0.0320873667
          53, 0.00000000e+00, 0.00000000e+00, 0.00000000e+00, 0.00000000e+00, 0.00000000e+00, 0.00000000e+00, 0.00000000e+00, 0.00000000e+00, 0.00000000e+00, 0.00000000e+00, 0.00000000e+00, 0.00000000e+00, -4.39792790e+00, -1.72012338e+00, -3.59210691e+00, 1.03528105e+00, 0.00000000e+00, 5.0000000000, 6.0000000000, 0.0326172000
          54, 0.00000000e+00, 0.00000000e+00, 0.00000000e+00, 0.00000000e+00, 0.00000000e+00, 0.00000000e+00, 0.00000000e+00, 0.00000000e+00, 0.00000000e+00, 0.00000000e+00, 0.00000000e+00, 0.00000000e+00, -4.42784052e+00, -1.70541490e+00, -3.58182073e+00, 1.00487481e+00, 0.00000000e+00, 5.0000000000, 6.0000000000, 0.0331826000
          55, 0.00000000e+00, 0.00000000e+00, 0.00000000e+00, 0.00000000e+00, 0.00000000e+00, 0.00000000e+00, 0.00000000e+00, 0.00000000e+00, 0.00000000e+00, 0.00000000e+00, 0.00000000e+00, 0.00000000e+00, -4.46103562e+00, -1.69218360e+00, -3.57214827e+00, 9.71956753e-01, 0.00000000e+00, 5.0000000000, 6.0000000000, 0.0336864667
          56, 0.00000000e+00, 0.00000000e+00, 0.00000000e+00, 0.00000000e+00, 0.00000000e+00, 0.00000000e+00, 0.00000000e+00, 0.00000000e+00, 0.00000000e+00, 0.00000000e+00, 0.00000000e+00, 0.00000000e+00, -4.49522420e+00, -1.68130666e+00, -3.56477642e+00, 9.39562618e-01, 0.00000000e+00, 5.0000000000, 6.0000000000, 0.0342464833
          57, 0.00000000e+00, 0.00000000e+00, 0.00000000e+00, 0.00000000e+00, 0.00000000e+00, 0.00000000e+00, 0.00000000e+00, 0.00000000e+00, 0.00000000e+00, 0.00000000e+00, 0.00000000e+00, 0.00000000e+00, -4.52607393e+00, -1.67353949e+00, -3.56110330e+00, 9.12949395e-01, 0.00000000e+00, 5.0000000000, 6.0000000000, 0.0347975500
          58, 0.00000000e+00, 0.00000000e+00, 0.00000000e+00, 0.00000000e+00, 0.00000000e+00, 0.00000000e+00, 0.00000000e+00, 0.00000000e+00, 0.00000000e+00, 0.00000000e+00, 0.00000000e+00, 0.00000000e+00, -4.54716848e+00, -1.66949891e+00, -3.56219851e+00, 8.98997120e-01, 0.00000000e+00, 5.0000000000, 6.0000000000, 0.0354040667
          59, 0.00000000e+00, 0.00000000e+00, 0.00000000e+00, 0.00000000e+00, 0.00000000e+00, 0.00000000e+00, 0.00000000e+00, 0.00000000e+00, 0.00000000e+00, 0.00000000e+00, 0.00000000e+00, 0.00000000e+00, -4.55193823e+00, -1.66966018e+00, -3.56880584e+00, 9.03259473e-01, 0.00000000e+00, 5.0000000000, 6.0000000000, 0.0359621667
          60, 0.00000000e+00, 0.00000000e+00, 0.00000000e+00, 0.00000000e+00, 0.00000000e+00, 0.00000000e+00, 0.00000000e+00, 0.00000000e+00, 0.00000000e+00, 0.00000000e+00, 0.00000000e+00, 0.00000000e+00, -4.53754854e+00, -1.67435754e+00, -3.58132615e+00, 9.26146408e-01, 0.00000000e+00, 5.0000000000, 6.0000000000, 0.0365951500
          61, 0.00000000e+00, 0.00000000e+00, 0.00000000e+00, 0.00000000e+00, 0.00000000e+00, 0.00000000e+00, 0.00000000e+00, 0.00000000e+00, 0.00000000e+00, 0.00000000e+00, 0.00000000e+00, 0.00000000e+00, -4.50708721e+00, -1.68377917e+00, -3.59971810e+00, 9.62570159e-01, 0.00000000e+00, 5.0000000000, 6.0000000000, 0.0371314333
          62, 0.00000000e+00, 0.00000000e+00, 0.00000000e+00, 0.00000000e+00, 0.00000000e+00, 0.00000000e+00, 0.00000000e+00, 0.00000000e+00, 0.00000000e+00, 0.00000000e+00, 0.00000000e+00, 0.00000000e+00, -4.46722579e+00, -1.69794825e+00, -3.62327221e+00, 1.00552453e+00, 0.00000000e+00, 5.0000000000, 6.0000000000, 0.0376945667
          63, 0.00000000e+00, 0.00000000e+00, 0.00000000e+00, 0.00000000e+00, 0.00000000e+00, 0.00000000e+00, 0.00000000e+00, 0.00000000e+00, 0.00000000e+00, 0.00000000e+00, 0.00000000e+00, 0.00000000e+00, -4.42436541e+00, -1.71668162e+00, -3.65028266e+00, 1.04934879e+00, 0.00000000e+00, 5.0000000000, 6.0000000000, 0.0382565667
          64, 0.00000000e+00, 0.00000000e+00, 0.00000000e+00, 0.00000000e+00, 0.00000000e+00, 0.00000000e+00, 0.00000000e+00, 0.00000000e+00, 0.00000000e+00, 0.00000000e+00, 0.00000000e+00, 0.00000000e+00, -4.38280977e+00, -1.73951722e+00, -3.67771721e+00, 1.09061002e+00, 0.00000000e+00, 5.0000000000, 6.0000000000, 0.0388085667
          65, 0.00000000e+00, 0.00000000e+00, 0.00000000e+00, 0.00000000e+00, 0.00000000e+00, 0.00000000e+00, 0.00000000e+00, 0.00000000e+00, 0.00000000e+00, 0.00000000e+00, 0.00000000e+00, 0.00000000e+00, -4.34486057e+00, -1.76560472e+00, -3.70116383e+00, 1.12762483e+00, 0.00000000e+00, 5.0000000000, 6.0000000000, 0.0393834500
          66, 0.00000000e+00, 0.00000000e+00, 0.00000000e+00, 0.00000000e+00, 0.00000000e+00, 0.00000000e+00, 0.00000000e+00, 0.00000000e+00, 0.00000000e+00, 0.00000000e+00, 0.00000000e+00, 0.00000000e+00, -4.31149766e+00, -1.79356768e+00, -3.71563376e+00, 1.15977410e+00, 0.00000000e+00, 5.0000000000, 6.0000000000, 0.0398893500
          67, 0.00000000e+00, 0.00000000e+00, 0.00000000e+00, 0.00000000e+00, 0.00000000e+00, 0.00000000e+00, 0.00000000e+00, 0.00000000e+00, 0.00000000e+00, 0.00000000e+00, 0.00000000e+00, 0.00000000e+00, -4.28296319e+00, -1.82138308e+00, -3.71754714e+00, 1.18700709e+00, 0.00000000e+00, 5.0000000000, 6.0000000000, 0.0404233167
          68, 0.00000000e+00, 0.00000000e+00, 0.00000000e+00, 0.00000000e+00, 0.00000000e+00, 0.00000000e+00, 0.00000000e+00, 0.00000000e+00, 0.00000000e+00, 0.00000000e+00, 0.00000000e+00, 0.00000000e+00, -4.25913059e+00, -1.84639332e+00, -3.70675268e+00, 1.20954659e+00, 0.00000000e+00, 5.0000000000, 6.0000000000, 0.0409651667
          69, 0.00000000e+00, 0.00000000e+00, 0.00000000e+00, 0.00000000e+00, 0.00000000e+00, 0.00000000e+00, 0.00000000e+00, 0.00000000e+00, 0.00000000e+00, 0.00000000e+00, 0.00000000e+00, 0.00000000e+00, -4.23971391e+00, -1.86562544e+00, -3.68654414e+00, 1.22772514e+00, 0.00000000e+00, 5.0000000000, 6.0000000000, 0.0415377500
          70, 0.00000000e+00, 0.00000000e+00, 0.00000000e+00, 0.00000000e+00, 0.00000000e+00, 0.00000000e+00, 0.00000000e+00, 0.00000000e+00, 0.00000000e+00, 0.00000000e+00, 0.00000000e+00, 0.00000000e+00, -4.22438288e+00, -1.87651044e+00, -3.66164275e+00, 1.24189468e+00, 0.00000000e+00, 5.0000000000, 6.0000000000, 0.0420572833
          71, 0.00000000e+00, 0.00000000e+00, 0.00000000e+00, 0.00000000e+00, 0.00000000e+00, 0.00000000e+00, 0.00000000e+00, 0.00000000e+00, 0.00000000e+00, 0.00000000e+00, 0.00000000e+00, 0.00000000e+00, -4.21282677e+00, -1.87775684e+00, -3.63617843e+00, 1.25237524e+00, 0.00000000e+00, 5.0000000000, 6.0000000000, 0.0426275667
          72, 0.00000000e+00, 0.00000000e+00, 0.00000000e+00, 0.00000000e+00, 0.00000000e+00, 0.00000000e+00, 0.00000000e+00, 0.00000000e+00, 0.00000000e+00, 0.00000000e+00, 0.00000000e+00, 0.00000000e+00, -4.20479080e+00, -1.86979738e+00, -3.61287430e+00, 1.25942450e+00, 0.00000000e+00, 5.0000000000, 6.0000000000, 0.0431592833
          73, 0.00000000e+00, 0.00000000e+00, 0.00000000e+00, 0.00000000e+00, 0.00000000e+00, 0.00000000e+00, 0.00000000e+00, 0.00000000e+00, 0.00000000e+00, 0.00000000e+00, 0.00000000e+00, 0.00000000e+00, -4.20009723e+00, -1.85444417e+00, -3.59313107e+00, 1.26321908e+00, 0.00000000e+00, 5.0000000000, 6.0000000000, 0.0437268333
          74, 0.00000000e+00, 0.00000000e+00, 0.00000000e+00, 0.00000000e+00, 0.00000000e+00, 0.00000000e+00, 0.00000000e+00, 0.00000000e+00, 0.00000000e+00, 0.00000000e+00, 0.00000000e+00, 0.00000000e+00, -4.19865745e+00, -1.83405076e+00, -3.57739214e+00, 1.26384310e+00, 0.00000000e+00, 5.0000000000, 6.0000000000, 0.0442428833
          75, 0.00000000e+00, 0.00000000e+00, 0.00000000e+00, 0.00000000e+00, 0.00000000e+00, 0.00000000e+00, 0.00000000e+00, 0.00000000e+00, 0.00000000e+00, 0.00000000e+00, 0.00000000e+00, 0.00000000e+00, -4.20047859e+00, -1.81077481e+00, -3.56547385e+00, 1.26128148e+00, 0.00000000e+00, 5.0000000000, 6.0000000000, 0.0447989833
          76, 0.00000000e+00, 0.00000000e+00, 0.00000000e+00, 0.00000000e+00, 0.00000000e+00, 0.00000000e+00, 0.00000000e+00, 0.00000000e+00, 0.00000000e+00, 0.00000000e+00, 0.00000000e+00, 0.00000000e+00, -4.20566696e+00, -1.78623717e+00, -3.55679308e+00, 1.25541596e+00, 0.00000000e+00, 5.0000000000, 6.0000000000, 0.0453283667
          77, 0.00000000e+00, 0.00000000e+00, 0.00000000e+00, 0.00000000e+00, 0.00000000e+00, 0.00000000e+00, 0.00000000e+00, 0.00000000e+00, 0.00000000e+00, 0.00000000e+00, 0.00000000e+00, 0.00000000e+00, -4.21443071e+00, -1.76150971e+00, -3.55051846e+00, 1.24602175e+00, 0.00000000e+00, 5.0000000000, 6.0000000000, 0.0459399667
          78, 0.00000000e+00, 0.00000000e+00, 0.00000000e+00, 0.00000000e+00, 0.00000000e+00, 0.00000000e+00, 0.00000000e+00, 0.00000000e+00, 0.00000000e+00, 0.00000000e+00, 0.00000000e+00, 0.00000000e+00, -4.22708403e+00, -1.73725251e+00, -3.54568708e+00, 1.23276234e+00, 0.00000000e+00, 5.0000000000, 6.0000000000, 0.0465426333
          79, 0.00000000e+00, 0.00000000e+00, 0.00000000e+00, 0.00000000e+00, 0.00000000e+00, 0.00000000e+00, 0.00000000e+00, 0.00000000e+00, 0.00000000e+00, 0.00000000e+00, 0.00000000e+00, 0.00000000e+00, -4.24405559e+00, -1.71387299e+00, -3.54131915e+00, 1.21517921e+00, 0.00000000e+00, 5.0000000000, 6.0000000000, 0.0471691167
          80, 0.00000000e+00, 0.00000000e+00, 0.00000000e+00, 0.00000000e+00, 0.00000000e+00, 0.00000000e+00, 0.00000000e+00, 0.00000000e+00, 0.00000000e+00, 0.00000000e+00, 0.00000000e+00, 0.00000000e+00, -4.26590463e+00, -1.69165150e+00, -3.53654567e+00, 1.19267257e+00, 0.00000000e+00, 5.0000000000, 6.0000000000, 0.0477854667
          81, 0.00000000e+00, 0.00000000e+00, 0.00000000e+00, 0.00000000e+00, 0.00000000e+00, 0.00000000e+00, 0.00000000e+00, 0.00000000e+00, 0.00000000e+00, 0.00000000e+00, 0.00000000e+00, 0.00000000e+00, -4.29334879e+00, -1.67082160e+00, -3.53073813e+00, 1.16446726e+00, 0.00000000e+00, 5.0000000000, 6.0000000000, 0.0483600500
          82, 0.00000000e+00, 0.00000000e+00, 0.00000000e+00, 0.00000000e+00, 0.00000000e+00, 0.00000000e+00, 0.00000000e+00, 0.00000000e+00, 0.00000000e+00, 0.00000000e+00, 0.00000000e+00, 0.00000000e+00, -4.32730953e+00, -1.65161142e+00, -3.52360941e+00, 1.12955516e+00, 0.00000000e+00, 5.0000000000, 6.0000000000, 0.0489475833
          83, 0.00000000e+00, 0.00000000e+00, 0.00000000e+00, 0.00000000e+00, 0.00000000e+00, 0.00000000e+00, 0.00000000e+00, 0.00000000e+00, 0.00000000e+00, 0.00000000e+00, 0.00000000e+00, 0.00000000e+00, -4.36898319e+00, -1.63425788e+00, -3.51525158e+00, 1.08659973e+00, 0.00000000e+00, 5.0000000000, 6.0000000000, 0.0494504000
          84, 0.00000000e+00, 0.00000000e+00, 0.00000000e+00, 0.00000000e+00, 0.00000000e+00, 0.00000000e+00, 0.00000000e+00, 0.00000000e+00, 0.00000000e+00, 0.00000000e+00, 0.00000000e+00, 0.00000000e+00, -4.41994699e+00, -1.61900490e+00, -3.50609543e+00, 1.03377830e+00, 0.00000000e+00, 5.0000000000, 6.0000000000, 0.0499993667
          85, 0.00000000e+00, 0.00000000e+00, 0.00000000e+00, 0.00000000e+00, 0.00000000e+00, 0.00000000e+00, 0.00000000e+00, 0.00000000e+00, 0.00000000e+00, 0.00000000e+00, 0.00000000e+00, 0.00000000e+00, -4.48230231e+00, -1.60609469e+00, -3.49680850e+00, 9.68521619e-01, 0.00000000e+00, 5.0000000000, 6.0000000000, 0.0505092500
          86, 0.00000000e+00, 0.00000000e+00, 0.00000000e+00, 0.00000000e+00, 0.00000000e+00, 0.00000000e+00, 0.00000000e+00, 0.00000000e+00, 0.00000000e+00, 0.00000000e+00, 0.00000000e+00, 0.00000000e+00, -4.55880038e+00, -1.59575755e+00, -3.48817070e+00, 8.87100728e-01, 0.00000000e+00, 5.0000000000, 6.0000000000, 0.0510606333
          87, 0.00000000e+00, 0.00000000e+00, 0.00000000e+00, 0.00000000e+00, 0.00000000e+00, 0.00000000e+00, 0.00000000e+00, 0.00000000e+00, 0.00000000e+00, 0.00000000e+00, 0.00000000e+00, 0.00000000e+00, -4.65259285e+00, -1.58820401e+00, -3.48096931e+00, 7.84122995e-01, 0.00000000e+00, 5.0000000000, 6.0000000000, 0.0516243333
          88, 0.00000000e+00, 0.00000000e+00, 0.00000000e+00, 0.00000000e+00, 0.00000000e+00, 0.00000000e+00, 0.00000000e+00, 0.00000000e+00, 0.00000000e+00, 0.00000000e+00, 0.00000000e+00, 0.00000000e+00, -4.76469573e+00, -1.58361952e+00, -3.47594101e+00, 6.53197813e-01, 0.00000000e+00, 5.0000000000, 6.0000000000, 0.0521819500
          89, 0.00000000e+00, 0.00000000e+00, 0.00000000e+00, 0.00000000e+00, 0.00000000e+00, 0.00000000e+00, 0.00000000e+00, 0.00000000e+00, 0.00000000e+00, 0.00000000e+00, 0.00000000e+00, 0.00000000e+00, -4.88074021e+00, -1.58216077e+00, -3.47373388e+00, 4.99604094e-01, 0.00000000e+00, 5.0000000000, 6.0000000000, 0.0526733667