TITLE = "SU2 Simulation"
VARIABLES = "Iteration","CL","CD","CSF","CMx","CMy","CMz","CFx","CFy","CFz","CL/CD","AoA","Custom_ObjFunc","Res_Flow[0]","Res_Flow[1]","Res_Flow[2]","Res_Flow[3]","Res_Flow[4]","Linear_Solver_Iterations","CFL_Number","Time(min)"
ZONE T= "Convergence history"
           0, 0.00000000e+00, 0.00000000e+00, 0.00000000e+00, 0.00000000e+00, 0.00000000e+00, 0.00000000e+00, 0.00000000e+00, 0.00000000e+00, 0.00000000e+00, 0.00000000e+00, 0.00000000e+00, 0.00000000e+00, -3.40789009e+00, -9.35434153e-01, -1.38258376e+01, 2.03272752e+00, 0.00000000e+00, 5.0000000000, 6.0000000000, 0.0006767833
           1, 0.00000000e+00, 0.00000000e+00, 0.00000000e+00, 0.00000000e+00, 0.00000000e+00, 0.00000000e+00, 0.00000000e+00, 0.00000000e+00, 0.00000000e+00, 0.00000000e+00, 0.00000000e+00, 0.00000000e+00, -3.65519750e+00, -1.18747538e+00, -3.00334966e+00, 1.78742930e+00, 0.00000000e+00, 5.0000000000, 6.0000000000, 0.0014253167
           2, 0.00000000e+00, 0.00000000e+00, 0.00000000e+00, 0.00000000e+00, 0.00000000e+00, 0.00000000e+00, 0.00000000e+00, 0.00000000e+00, 0.00000000e+00, 0.00000000e+00, 0.00000000e+00, 0.00000000e+00, -3.79025319e+00, -1.31708024e+00, -2.67630200e+00, 1.65290580e+00, 0.00000000e+00, 5.0000000000, 6.0000000000, 0.0020446167
           3, 0.00000000e+00, 0.00000000e+00, 0.00000000e+00, 0.00000000e+00, 0.00000000e+00, 0.00000000e+00, 0.00000000e+00, 0.00000000e+00, 0.00000000e+00, 0.00000000e+00, 0.00000000e+00, 0.00000000e+00, -3.84285486e+00, -1.37074859e+00, -2.49209270e+00, 1.59911486e+00, 0.00000000e+00, 5.0000000000, 6.0000000000, 0.0026764833
           4, 0.00000000e+00, 0.00000000e+00, 0.00000000e+00, 0.00000000e+00, 0.00000000e+00, 0.00000000e+00, 0.00000000e+00, 0.00000000e+00, 0.00000000e+00, 0.00000000e+00, 0.00000000e+00, 0.00000000e+00, -3.87823650e+00, -1.40860514e+00, -2.38214886e+00, 1.56333194e+00, 0.00000000e+00, 5.0000000000, 6.0000000000, 0.0032849333
           5, 0.00000000e+00, 0.00000000e+00, 0.00000000e+00, 0.00000000e+00, 0.00000000e+00, 0.00000000e+00, 0.00000000e+00, 0.00000000e+00, 0.00000000e+00, 0.00000000e+00, 0.00000000e+00, 0.00000000e+00, -3.90865953e+00, -1.43821622e+00, -2.30584883e+00, 1.53298255e+00, 0.00000000e+00, 5.0000000000, 6.0000000000, 0.0039042167
           6, 0.00000000e+00, 0.00000000e+00, 0.00000000e+00, 0.00000000e+00, 0.00000000e+00, 0.00000000e+00, 0.00000000e+00, 0.00000000e+00, 0.00000000e+00, 0.00000000e+00, 0.00000000e+00, 0.00000000e+00, -3.93066593e+00, -1.45696753e+00, -2.24977426e+00, 1.51163906e+00, 0.00000000e+00, 5.0000000000, 6.0000000000, 0.0045455833
           7, 0.00000000e+00, 0.00000000e+00, 0.00000000e+00, 0.00000000e+00, 0.00000000e+00, 0.00000000e+00, 0.00000000e+00, 0.00000000e+00, 0.00000000e+00, 0.00000000e+00, 0.00000000e+00, 0.00000000e+00, -3.94344196e+00, -1.46452869e+00, -2.20734047e+00, 1.50039249e+00, 0.00000000e+00, 5.0000000000, 6.0000000000, 0.0051955833
           8, 0.00000000e+00, 0.00000000e+00, 0.00000000e+00, 0.00000000e+00, 0.00000000e+00, 0.00000000e+00, 0.00000000e+00, 0.00000000e+00, 0.00000000e+00, 0.00000000e+00, 0.00000000e+00, 0.00000000e+00, -3.94882188e+00, -1.46291964e+00, -2.17456420e+00, 1.49731219e+00, 0.00000000e+00, 5.0000000000, 6.0000000000, 0.0058054833
           9, 0.00000000e+00, 0.00000000e+00, 0.00000000e+00, 0.00000000e+00, 0.00000000e+00, 0.00000000e+00, 0.00000000e+00, 0.00000000e+00, 0.00000000e+00, 0.00000000e+00, 0.00000000e+00, 0.00000000e+00, -3.94936925e+00, -1.45569235e+00, -2.14886481e+00, 1.49940671e+00, 0.00000000e+00, 5.0000000000, 6.0000000000, 0.0064196167
          10, 0.00000000e+00, 0.00000000e+00, 0.00000000e+00, 0.00000000e+00, 0.00000000e+00, 0.00000000e+00, 0.00000000e+00, 0.00000000e+00, 0.00000000e+00, 0.00000000e+00, 0.00000000e+00, 0.00000000e+00, -3.94781500e+00, -1.44691513e+00, -2.12849671e+00, 1.50344904e+00, 0.00000000e+00, 5.0000000000, 6.0000000000, 0.0070448000
          11, 0.00000000e+00, 0.00000000e+00, 0.00000000e+00, 0.00000000e+00, 0.00000000e+00, 0.00000000e+00, 0.00000000e+00, 0.00000000e+00, 0.00000000e+00, 0.00000000e+00, 0.00000000e+00, 0.00000000e+00, -3.94666807e+00, -1.44004444e+00, -2.11223876e+00, 1.50657428e+00, 0.00000000e+00, 5.0000000000, 6.0000000000, 0.0076940000
          12, 0.00000000e+00, 0.00000000e+00, 0.00000000e+00, 0.00000000e+00, 0.00000000e+00, 0.00000000e+00, 0.00000000e+00, 0.00000000e+00, 0.00000000e+00, 0.00000000e+00, 0.00000000e+00, 0.00000000e+00, -3.94770343e+00, -1.43721711e+00, -2.09919276e+00, 1.50685745e+00, 0.00000000e+00, 5.0000000000, 6.0000000000, 0.0083185333
          13, 0.00000000e+00, 0.00000000e+00, 0.00000000e+00, 0.00000000e+00, 0.00000000e+00, 0.00000000e+00, 0.00000000e+00, 0.00000000e+00, 0.00000000e+00, 0.00000000e+00, 0.00000000e+00, 0.00000000e+00, -3.95166672e+00, -1.43910102e+00, -2.08866682e+00, 1.50357432e+00, 0.00000000e+00, 5.0000000000, 6.0000000000, 0.0089328000
          14, 0.00000000e+00, 0.00000000e+00, 0.00000000e+00, 0.00000000e+00, 0.00000000e+00, 0.00000000e+00, 0.00000000e+00, 0.00000000e+00, 0.00000000e+00, 0.00000000e+00, 0.00000000e+00, 0.00000000e+00, -3.95832236e+00, -1.44512785e+00, -2.08012981e+00, 1.49709145e+00, 0.00000000e+00, 5.0000000000, 6.0000000000, 0.0095092000
          15, 0.00000000e+00, 0.00000000e+00, 0.00000000e+00, 0.00000000e+00, 0.00000000e+00, 0.00000000e+00, 0.00000000e+00, 0.00000000e+00, 0.00000000e+00, 0.00000000e+00, 0.00000000e+00, 0.00000000e+00, -3.96676258e+00, -1.45393424e+00, -2.07319390e+00, 1.48850122e+00, 0.00000000e+00, 5.0000000000, 6.0000000000, 0.0101201000
          16, 0.00000000e+00, 0.00000000e+00, 0.00000000e+00, 0.00000000e+00, 0.00000000e+00, 0.00000000e+00, 0.00000000e+00, 0.00000000e+00, 0.00000000e+00, 0.00000000e+00, 0.00000000e+00, 0.00000000e+00, -3.97584735e+00, -1.46389488e+00, -2.06759223e+00, 1.47913161e+00, 0.00000000e+00, 5.0000000000, 6.0000000000, 0.0107395833
          17, 0.00000000e+00, 0.00000000e+00, 0.00000000e+00, 0.00000000e+00, 0.00000000e+00, 0.00000000e+00, 0.00000000e+00, 0.00000000e+00, 0.00000000e+00, 0.00000000e+00, 0.00000000e+00, 0.00000000e+00, -3.98463669e+00, -1.47360541e+00, -2.06314557e+00, 1.47006776e+00, 0.00000000e+00, 5.0000000000, 6.0000000000, 0.0112732833
          18, 0.00000000e+00, 0.00000000e+00, 0.00000000e+00, 0.00000000e+00, 0.00000000e+00, 0.00000000e+00, 0.00000000e+00, 0.00000000e+00, 0.00000000e+00, 0.00000000e+00, 0.00000000e+00, 0.00000000e+00, -3.99268817e+00, -1.48213439e+00, -2.05973105e+00, 1.46182493e+00, 0.00000000e+00, 5.0000000000, 6.0000000000, 0.0118554833
          19, 0.00000000e+00, 0.00000000e+00, 0.00000000e+00, 0.00000000e+00, 0.00000000e+00, 0.00000000e+00, 0.00000000e+00, 0.00000000e+00, 0.00000000e+00, 0.00000000e+00, 0.00000000e+00, 0.00000000e+00, -4.00016657e+00, -1.48894797e+00, -2.05725427e+00, 1.45423791e+00, 0.00000000e+00, 5.0000000000, 6.0000000000, 0.0124073667
          20, 0.00000000e+00, 0.00000000e+00, 0.00000000e+00, 0.00000000e+00, 0.00000000e+00, 0.00000000e+00, 0.00000000e+00, 0.00000000e+00, 0.00000000e+00, 0.00000000e+00, 0.00000000e+00, 0.00000000e+00, -4.00781745e+00, -1.49360852e+00, -2.05562381e+00, 1.44650893e+00, 0.00000000e+00, 5.0000000000, 6.0000000000, 0.0130414833
          21, 0.00000000e+00, 0.00000000e+00, 0.00000000e+00, 0.00000000e+00, 0.00000000e+00, 0.00000000e+00, 0.00000000e+00, 0.00000000e+00, 0.00000000e+00, 0.00000000e+00, 0.00000000e+00, 0.00000000e+00, -4.01688831e+00, -1.49547987e+00, -2.05473949e+00, 1.43731189e+00, 0.00000000e+00, 5.0000000000, 6.0000000000, 0.0136923833
          22, 0.00000000e+00, 0.00000000e+00, 0.00000000e+00, 0.00000000e+00, 0.00000000e+00, 0.00000000e+00, 0.00000000e+00, 0.00000000e+00, 0.00000000e+00, 0.00000000e+00, 0.00000000e+00, 0.00000000e+00, -4.02904881e+00, -1.49367556e+00, -2.05449419e+00, 1.42488507e+00, 0.00000000e+00, 5.0000000000, 6.0000000000, 0.0143128500
          23, 0.00000000e+00, 0.00000000e+00, 0.00000000e+00, 0.00000000e+00, 0.00000000e+00, 0.00000000e+00, 0.00000000e+00, 0.00000000e+00, 0.00000000e+00, 0.00000000e+00, 0.00000000e+00, 0.00000000e+00, -4.04632370e+00, -1.48736840e+00, -2.05477927e+00, 1.40709231e+00, 0.00000000e+00, 5.0000000000, 6.0000000000, 0.0149366333
          24, 0.00000000e+00, 0.00000000e+00, 0.00000000e+00, 0.00000000e+00, 0.00000000e+00, 0.00000000e+00, 0.00000000e+00, 0.00000000e+00, 0.00000000e+00, 0.00000000e+00, 0.00000000e+00, 0.00000000e+00, -4.07103354e+00, -1.47633946e+00, -2.05548944e+00, 1.38145608e+00, 0.00000000e+00, 5.0000000000, 6.0000000000, 0.0155521333
          25, 0.00000000e+00, 0.00000000e+00, 0.00000000e+00, 0.00000000e+00, 0.00000000e+00, 0.00000000e+00, 0.00000000e+00, 0.00000000e+00, 0.00000000e+00, 0.00000000e+00, 0.00000000e+00, 0.00000000e+00, -4.10573708e+00, -1.46140972e+00, -2.05652822e+00, 1.34516079e+00, 0.00000000e+00, 5.0000000000, 6.0000000000, 0.0161211500
          26, 0.00000000e+00, 0.00000000e+00, 0.00000000e+00, 0.00000000e+00, 0.00000000e+00, 0.00000000e+00, 0.00000000e+00, 0.00000000e+00, 0.00000000e+00, 0.00000000e+00, 0.00000000e+00, 0.00000000e+00, -4.15313097e+00, -1.44442197e+00, -2.05781332e+00, 1.29504233e+00, 0.00000000e+00, 5.0000000000, 6.0000000000, 0.0167507667
          27, 0.00000000e+00, 0.00000000e+00, 0.00000000e+00, 0.00000000e+00, 0.00000000e+00, 0.00000000e+00, 0.00000000e+00, 0.00000000e+00, 0.00000000e+00, 0.00000000e+00, 0.00000000e+00, 0.00000000e+00, -4.21567361e+00, -1.42778417e+00, -2.05928122e+00, 1.22773715e+00, 0.00000000e+00, 5.0000000000, 6.0000000000, 0.0173481000
          28, 0.00000000e+00, 0.00000000e+00, 0.00000000e+00, 0.00000000e+00, 0.00000000e+00, 0.00000000e+00, 0.00000000e+00, 0.00000000e+00, 0.00000000e+00, 0.00000000e+00, 0.00000000e+00, 0.00000000e+00, -4.29400656e+00, -1.41389295e+00, -2.06088866e+00, 1.14088051e+00, 0.00000000e+00, 5.0000000000, 6.0000000000, 0.0179509333
          29, 0.00000000e+00, 0.00000000e+00, 0.00000000e+00, 0.00000000e+00, 0.00000000e+00, 0.00000000e+00, 0.00000000e+00, 0.00000000e+00, 0.00000000e+00, 0.00000000e+00, 0.00000000e+00, 0.00000000e+00, -4.38114157e+00, -1.40472754e+00, -2.06260910e+00, 1.03919012e+00, 0.00000000e+00, 5.0000000000, 6.0000000000, 0.0186776000
          30, 0.00000000e+00, 0.00000000e+00, 0.00000000e+00, 0.00000000e+00, 0.00000000e+00, 0.00000000e+00, 0.00000000e+00, 0.00000000e+00, 0.00000000e+00, 0.00000000e+00, 0.00000000e+00, 0.00000000e+00, -4.44833612e+00, -1.40168396e+00, -2.06442421e+00, 9.55152660e-01, 0.00000000e+00, 5.0000000000, 6.0000000000, 0.0192259333
          31, 0.00000000e+00, 0.00000000e+00, 0.00000000e+00, 0.00000000e+00, 0.00000000e+00, 0.00000000e+00, 0.00000000e+00, 0.00000000e+00, 0.00000000e+00, 0.00000000e+00, 0.00000000e+00, 0.00000000e+00, -4.44842287e+00, -1.40556792e+00, -2.06631244e+00, 9.55787706e-01, 0.00000000e+00, 5.0000000000, 6.0000000000, 0.0198284000
          32, 0.00000000e+00, 0.00000000e+00, 0.00000000e+00, 0.00000000e+00, 0.00000000e+00, 0.00000000e+00, 0.00000000e+00, 0.00000000e+00, 0.00000000e+00, 0.00000000e+00, 0.00000000e+00, 0.00000000e+00, -4.38242793e+00, -1.41664374e+00, -2.06823902e+00, 1.03916361e+00, 0.00000000e+00, 5.0000000000, 6.0000000000, 0.0203801500
          33, 0.00000000e+00, 0.00000000e+00, 0.00000000e+00, 0.00000000e+00, 0.00000000e+00, 0.00000000e+00, 0.00000000e+00, 0.00000000e+00, 0.00000000e+00, 0.00000000e+00, 0.00000000e+00, 0.00000000e+00, -4.29757115e+00, -1.43467503e+00, -2.07015136e+00, 1.13845857e+00, 0.00000000e+00, 5.0000000000, 6.0000000000, 0.0209721667
          34, 0.00000000e+00, 0.00000000e+00, 0.00000000e+00, 0.00000000e+00, 0.00000000e+00, 0.00000000e+00, 0.00000000e+00, 0.00000000e+00, 0.00000000e+00, 0.00000000e+00, 0.00000000e+00, 0.00000000e+00, -4.22161420e+00, -1.45892949e+00, -2.07198165e+00, 1.22280688e+00, 0.00000000e+00, 5.0000000000, 6.0000000000, 0.0215476333
          35, 0.00000000e+00, 0.00000000e+00, 0.00000000e+00, 0.00000000e+00, 0.00000000e+00, 0.00000000e+00, 0.00000000e+00, 0.00000000e+00, 0.00000000e+00, 0.00000000e+00, 0.00000000e+00, 0.00000000e+00, -4.16111569e+00, -1.48815376e+00, -2.07365559e+00, 1.28801821e+00, 0.00000000e+00, 5.0000000000, 6.0000000000, 0.0221237333
          36, 0.00000000e+00, 0.00000000e+00, 0.00000000e+00, 0.00000000e+00, 0.00000000e+00, 0.00000000e+00, 0.00000000e+00, 0.00000000e+00, 0.00000000e+00, 0.00000000e+00, 0.00000000e+00, 0.00000000e+00, -4.11539868e+00, -1.52055536e+00, -2.07510404e+00, 1.33647746e+00, 0.00000000e+00, 5.0000000000, 6.0000000000, 0.0227114167
          37, 0.00000000e+00, 0.00000000e+00, 0.00000000e+00, 0.00000000e+00, 0.00000000e+00, 0.00000000e+00, 0.00000000e+00, 0.00000000e+00, 0.00000000e+00, 0.00000000e+00, 0.00000000e+00, 0.00000000e+00, -4.08217823e+00, -1.55386209e+00, -2.07627287e+00, 1.37135634e+00, 0.00000000e+00, 5.0000000000, 6.0000000000, 0.0232876833
          38, 0.00000000e+00, 0.00000000e+00, 0.00000000e+00, 0.00000000e+00, 0.00000000e+00, 0.00000000e+00, 0.00000000e+00, 0.00000000e+00, 0.00000000e+00, 0.00000000e+00, 0.00000000e+00, 0.00000000e+00, -4.05908023e+00, -1.58554827e+00, -2.07712856e+00, 1.39548278e+00, 0.00000000e+00, 5.0000000000, 6.0000000000, 0.0238957500
          39, 0.00000000e+00, 0.00000000e+00, 0.00000000e+00, 0.00000000e+00, 0.00000000e+00, 0.00000000e+00, 0.00000000e+00, 0.00000000e+00, 0.00000000e+00, 0.00000000e+00, 0.00000000e+00, 0.00000000e+00, -4.04398643e+00, -1.61326627e+00, -2.07765846e+00, 1.41121852e+00, 0.00000000e+00, 5.0000000000, 6.0000000000, 0.0244703833
          40, 0.00000000e+00, 0.00000000e+00, 0.00000000e+00, 0.00000000e+00, 0.00000000e+00, 0.00000000e+00, 0.00000000e+00, 0.00000000e+00, 0.00000000e+00, 0.00000000e+00, 0.00000000e+00, 0.00000000e+00, -4.03509626e+00, -1.63536926e+00, -2.07786678e+00, 1.42050256e+00, 0.00000000e+00, 5.0000000000, 6.0000000000, 0.0250559500
          41, 0.00000000e+00, 0.00000000e+00, 0.00000000e+00, 0.00000000e+00, 0.00000000e+00, 0.00000000e+00, 0.00000000e+00, 0.00000000e+00, 0.00000000e+00, 0.00000000e+00, 0.00000000e+00, 0.00000000e+00, -4.03093623e+00, -1.65125565e+00, -2.07776839e+00, 1.42489112e+00, 0.00000000e+00, 5.0000000000, 6.0000000000, 0.0255983333
          42, 0.00000000e+00, 0.00000000e+00, 0.00000000e+00, 0.00000000e+00, 0.00000000e+00, 0.00000000e+00, 0.00000000e+00, 0.00000000e+00, 0.00000000e+00, 0.00000000e+00, 0.00000000e+00, 0.00000000e+00, -4.03036453e+00, -1.66131921e+00, -2.07738333e+00, 1.42557660e+00, 0.00000000e+00, 5.0000000000, 6.0000000000, 0.0261990333
          43, 0.00000000e+00, 0.00000000e+00, 0.00000000e+00, 0.00000000e+00, 0.00000000e+00, 0.00000000e+00, 0.00000000e+00, 0.00000000e+00, 0.00000000e+00, 0.00000000e+00, 0.00000000e+00, 0.00000000e+00, -4.03256924e+00, -1.66656698e+00, -2.07673268e+00, 1.42340108e+00, 0.00000000e+00, 5.0000000000, 6.0000000000, 0.0268036500
          44, 0.00000000e+00, 0.00000000e+00, 0.00000000e+00, 0.00000000e+00, 0.00000000e+00, 0.00000000e+00, 0.00000000e+00, 0.00000000e+00, 0.00000000e+00, 0.00000000e+00, 0.00000000e+00, 0.00000000e+00, -4.03704930e+00, -1.66817962e+00, -2.07583665e+00, 1.41888170e+00, 0.00000000e+00, 5.0000000000, 6.0000000000, 0.0274126167
          45, 0.00000000e+00, 0.00000000e+00, 0.00000000e+00, 0.00000000e+00, 0.00000000e+00, 0.00000000e+00, 0.00000000e+00, 0.00000000e+00, 0.00000000e+00, 0.00000000e+00, 0.00000000e+00, 0.00000000e+00, -4.04357240e+00, -1.66723720e+00, -2.07471436e+00, 1.41225661e+00, 0.00000000e+00, 5.0000000000, 6.0000000000, 0.0280112333
          46, 0.00000000e+00, 0.00000000e+00, 0.00000000e+00, 0.00000000e+00, 0.00000000e+00, 0.00000000e+00, 0.00000000e+00, 0.00000000e+00, 0.00000000e+00, 0.00000000e+00, 0.00000000e+00, 0.00000000e+00, -4.05211293e+00, -1.66464869e+00, -2.07338458e+00, 1.40355020e+00, 0.00000000e+00, 5.0000000000, 6.0000000000, 0.0285918500
          47, 0.00000000e+00, 0.00000000e+00, 0.00000000e+00, 0.00000000e+00, 0.00000000e+00, 0.00000000e+00, 0.00000000e+00, 0.00000000e+00, 0.00000000e+00, 0.00000000e+00, 0.00000000e+00, 0.00000000e+00, -4.06277842e+00, -1.66120356e+00, -2.07186654e+00, 1.39264938e+00, 0.00000000e+00, 5.0000000000, 6.0000000000, 0.0291196000
          48, 0.00000000e+00, 0.00000000e+00, 0.00000000e+00, 0.00000000e+00, 0.00000000e+00, 0.00000000e+00, 0.00000000e+00, 0.00000000e+00, 0.00000000e+00, 0.00000000e+00, 0.00000000e+00, 0.00000000e+00, -4.07573392e+00, -1.65765110e+00, -2.07018048e+00, 1.37938176e+00, 0.00000000e+00, 5.0000000000, 6.0000000000, 0.0296566333
          49, 0.00000000e+00, 0.00000000e+00, 0.00000000e+00, 0.00000000e+00, 0.00000000e+00, 0.00000000e+00, 0.00000000e+00, 0.00000000e+00, 0.00000000e+00, 0.00000000e+00, 0.00000000e+00, 0.00000000e+00, -4.09112990e+00, -1.65475204e+00, -2.06834750e+00, 1.36359034e+00, 0.00000000e+00, 5.0000000000, 6.0000000000, 0.0302561500
          50, 0.00000000e+00, 0.00000000e+00, 0.00000000e+00, 0.00000000e+00, 0.00000000e+00, 0.00000000e+00, 0.00000000e+00, 0.00000000e+00, 0.00000000e+00, 0.00000000e+00, 0.00000000e+00, 0.00000000e+00, -4.10903514e+00, -1.65328929e+00, -2.06638896e+00, 1.34520364e+00, 0.00000000e+00, 5.0000000000, 6.0000000000, 0.0308762667
          51, 0.00000000e+00, 0.00000000e+00, 0.00000000e+00, 0.00000000e+00, 0.00000000e+00, 0.00000000e+00, 0.00000000e+00, 0.00000000e+00, 0.00000000e+00, 0.00000000e+00, 0.00000000e+00, 0.00000000e+00, -4.12937309e+00, -1.65404925e+00, -2.06432533e+00, 1.32430304e+00, 0.00000000e+00, 5.0000000000, 6.0000000000, 0.0314881833
          52, 0.00000000e+00, 0.00000000e+00, 0.00000000e+00, 0.00000000e+00, 0.00000000e+00, 0.00000000e+00, 0.00000000e+00, 0.00000000e+00, 0.00000000e+00, 0.00000000e+00, 0.00000000e+00, 0.00000000e+00, -4.15186089e+00, -1.65779203e+00, -2.06217544e+00, 1.30118887e+00, 0.00000000e+00, 5.0000000000, 6.0000000000, 0.0320873667
          53, 0.00000000e+00, 0.00000000e+00, 0.00000000e+00, 0.00000000e+00, 0.00000000e+00, 0.00000000e+00, 0.00000000e+00, 0.00000000e+00, 0.00000000e+00, 0.00000000e+00, 0.00000000e+00, 0.00000000e+00, -4.17595517e+00, -1.66522500e+00, -2.05995586e+00, 1.27644082e+00, 0.00000000e+00, 5.0000000000, 6.0000000000, 0.0326172000
          54, 0.00000000e+00, 0.00000000e+00, 0.00000000e+00, 0.00000000e+00, 0.00000000e+00, 0.00000000e+00, 0.00000000e+00, 0.00000000e+00, 0.00000000e+00, 0.00000000e+00, 0.00000000e+00, 0.00000000e+00, -4.20081837e+00, -1.67698646e+00, -2.05768050e+00, 1.25095734e+00, 0.00000000e+00, 5.0000000000, 6.0000000000, 0.0331826000
          55, 0.00000000e+00, 0.00000000e+00, 0.00000000e+00, 0.00000000e+00, 0.00000000e+00, 0.00000000e+00, 0.00000000e+00, 0.00000000e+00, 0.00000000e+00, 0.00000000e+00, 0.00000000e+00, 0.00000000e+00, -4.22533297e+00, -1.69363968e+00, -2.05536059e+00, 1.22594259e+00, 0.00000000e+00, 5.0000000000, 6.0000000000, 0.0336864667
          56, 0.00000000e+00, 0.00000000e+00, 0.00000000e+00, 0.00000000e+00, 0.00000000e+00, 0.00000000e+00, 0.00000000e+00, 0.00000000e+00, 0.00000000e+00, 0.00000000e+00, 0.00000000e+00, 0.00000000e+00, -4.24819893e+00, -1.71567433e+00, -2.05300509e+00, 1.20279910e+00, 0.00000000e+00, 5.0000000000, 6.0000000000, 0.0342464833
          57, 0.00000000e+00, 0.00000000e+00, 0.00000000e+00, 0.00000000e+00, 0.00000000e+00, 0.00000000e+00, 0.00000000e+00, 0.00000000e+00, 0.00000000e+00, 0.00000000e+00, 0.00000000e+00, 0.00000000e+00, -4.26813610e+00, -1.74350999e+00, -2.05062120e+00, 1.18289969e+00, 0.00000000e+00, 5.0000000000, 6.0000000000, 0.0347975500
          58, 0.00000000e+00, 0.00000000e+00, 0.00000000e+00, 0.00000000e+00, 0.00000000e+00, 0.00000000e+00, 0.00000000e+00, 0.00000000e+00, 0.00000000e+00, 0.00000000e+00, 0.00000000e+00, 0.00000000e+00, -4.28416201e+00, -1.77749546e+00, -2.04821476e+00, 1.16727369e+00, 0.00000000e+00, 5.0000000000, 6.0000000000, 0.0354040667
          59, 0.00000000e+00, 0.00000000e+00, 0.00000000e+00, 0.00000000e+00, 0.00000000e+00, 0.00000000e+00, 0.00000000e+00, 0.00000000e+00, 0.00000000e+00, 0.00000000e+00, 0.00000000e+00, 0.00000000e+00, -4.29584441e+00, -1.81789459e+00, -2.04579077e+00, 1.15632768e+00, 0.00000000e+00, 5.0000000000, 6.0000000000, 0.0359621667
          60, 0.00000000e+00, 0.00000000e+00, 0.00000000e+00, 0.00000000e+00, 0.00000000e+00, 0.00000000e+00, 0.00000000e+00, 0.00000000e+00, 0.00000000e+00, 0.00000000e+00, 0.00000000e+00, 0.00000000e+00, -4.30340175e+00, -1.86484311e+00, -2.04335377e+00, 1.14974840e+00, 0.00000000e+00, 5.0000000000, 6.0000000000, 0.0365951500
          61, 0.00000000e+00, 0.00000000e+00, 0.00000000e+00, 0.00000000e+00, 0.00000000e+00, 0.00000000e+00, 0.00000000e+00, 0.00000000e+00, 0.00000000e+00, 0.00000000e+00, 0.00000000e+00, 0.00000000e+00, -4.30759492e+00, -1.91824769e+00, -2.04090811e+00, 1.14664507e+00, 0.00000000e+00, 5.0000000000, 6.0000000000, 0.0371314333
          62, 0.00000000e+00, 0.00000000e+00, 0.00000000e+00, 0.00000000e+00, 0.00000000e+00, 0.00000000e+00, 0.00000000e+00, 0.00000000e+00, 0.00000000e+00, 0.00000000e+00, 0.00000000e+00, 0.00000000e+00, -4.30947441e+00, -1.97757505e+00, -2.03845803e+00, 1.14584457e+00, 0.00000000e+00, 5.0000000000, 6.0000000000, 0.0376945667
          63, 0.00000000e+00, 0.00000000e+00, 0.00000000e+00, 0.00000000e+00, 0.00000000e+00, 0.00000000e+00, 0.00000000e+00, 0.00000000e+00, 0.00000000e+00, 0.00000000e+00, 0.00000000e+00, 0.00000000e+00, -4.31011108e+00, -2.04144794e+00, -2.03600763e+00, 1.14618781e+00, 0.00000000e+00, 5.0000000000, 6.0000000000, 0.0382565667
          64, 0.00000000e+00, 0.00000000e+00, 0.00000000e+00, 0.00000000e+00, 0.00000000e+00, 0.00000000e+00, 0.00000000e+00, 0.00000000e+00, 0.00000000e+00, 0.00000000e+00, 0.00000000e+00, 0.00000000e+00, -4.31040709e+00, -2.10696849e+00, -2.03356076e+00, 1.14672451e+00, 0.00000000e+00, 5.0000000000, 6.0000000000, 0.0388085667
          65, 0.00000000e+00, 0.00000000e+00, 0.00000000e+00, 0.00000000e+00, 0.00000000e+00, 0.00000000e+00, 0.00000000e+00, 0.00000000e+00, 0.00000000e+00, 0.00000000e+00, 0.00000000e+00, 0.00000000e+00, -4.31101218e+00, -2.16889983e+00, -2.03112081e+00, 1.14678900e+00, 0.00000000e+00, 5.0000000000, 6.0000000000, 0.0393834500
          66, 0.00000000e+00, 0.00000000e+00, 0.00000000e+00, 0.00000000e+00, 0.00000000e+00, 0.00000000e+00, 0.00000000e+00, 0.00000000e+00, 0.00000000e+00, 0.00000000e+00, 0.00000000e+00, 0.00000000e+00, -4.31232057e+00, -2.21957359e+00, -2.02869043e+00, 1.14599152e+00, 0.00000000e+00, 5.0000000000, 6.0000000000, 0.0398893500
          67, 0.00000000e+00, 0.00000000e+00, 0.00000000e+00, 0.00000000e+00, 0.00000000e+00, 0.00000000e+00, 0.00000000e+00, 0.00000000e+00, 0.00000000e+00, 0.00000000e+00, 0.00000000e+00, 0.00000000e+00, -4.31451162e+00, -2.25125413e+00, -2.02627148e+00, 1.14416758e+00, 0.00000000e+00, 5.0000000000, 6.0000000000, 0.0404233167
          68, 0.00000000e+00, 0.00000000e+00, 0.00000000e+00, 0.00000000e+00, 0.00000000e+00, 0.00000000e+00, 0.00000000e+00, 0.00000000e+00, 0.00000000e+00, 0.00000000e+00, 0.00000000e+00, 0.00000000e+00, -4.31760520e+00, -2.26087557e+00, -2.02386498e+00, 1.14131603e+00, 0.00000000e+00, 5.0000000000, 6.0000000000, 0.0409651667
          69, 0.00000000e+00, 0.00000000e+00, 0.00000000e+00, 0.00000000e+00, 0.00000000e+00, 0.00000000e+00, 0.00000000e+00, 0.00000000e+00, 0.00000000e+00, 0.00000000e+00, 0.00000000e+00, 0.00000000e+00, -4.32151545e+00, -2.25230575e+00, -2.02147120e+00, 1.13754171e+00, 0.00000000e+00, 5.0000000000, 6.0000000000, 0.0415377500
          70, 0.00000000e+00, 0.00000000e+00, 0.00000000e+00, 0.00000000e+00, 0.00000000e+00, 0.00000000e+00, 0.00000000e+00, 0.00000000e+00, 0.00000000e+00, 0.00000000e+00, 0.00000000e+00, 0.00000000e+00, -4.32609555e+00, -2.23304068e+00, -2.01908987e+00, 1.13300901e+00, 0.00000000e+00, 5.0000000000, 6.0000000000, 0.0420572833
          71, 0.00000000e+00, 0.00000000e+00, 0.00000000e+00, 0.00000000e+00, 0.00000000e+00, 0.00000000e+00, 0.00000000e+00, 0.00000000e+00, 0.00000000e+00, 0.00000000e+00, 0.00000000e+00, 0.00000000e+00, -4.33117166e+00, -2.20974407e+00, -2.01672046e+00, 1.12790731e+00, 0.00000000e+00, 5.0000000000, 6.0000000000, 0.0426275667
          72, 0.00000000e+00, 0.00000000e+00, 0.00000000e+00, 0.00000000e+00, 0.00000000e+00, 0.00000000e+00, 0.00000000e+00, 0.00000000e+00, 0.00000000e+00, 0.00000000e+00, 0.00000000e+00, 0.00000000e+00, -4.33656695e+00, -2.18657419e+00, -2.01436249e+00, 1.12242697e+00, 0.00000000e+00, 5.0000000000, 6.0000000000, 0.0431592833
          73, 0.00000000e+00, 0.00000000e+00, 0.00000000e+00, 0.00000000e+00, 0.00000000e+00, 0.00000000e+00, 0.00000000e+00, 0.00000000e+00, 0.00000000e+00, 0.00000000e+00, 0.00000000e+00, 0.00000000e+00, -4.34211760e+00, -2.16557903e+00, -2.01201579e+00, 1.11674349e+00, 0.00000000e+00, 5.0000000000, 6.0000000000, 0.0437268333
          74, 0.00000000e+00, 0.00000000e+00, 0.00000000e+00, 0.00000000e+00, 0.00000000e+00, 0.00000000e+00, 0.00000000e+00, 0.00000000e+00, 0.00000000e+00, 0.00000000e+00, 0.00000000e+00, 0.00000000e+00, -4.34768306e+00, -2.14752515e+00, -2.00968072e+00, 1.11100744e+00, 0.00000000e+00, 5.0000000000, 6.0000000000, 0.0442428833
          75, 0.00000000e+00, 0.00000000e+00, 0.00000000e+00, 0.00000000e+00, 0.00000000e+00, 0.00000000e+00, 0.00000000e+00, 0.00000000e+00, 0.00000000e+00, 0.00000000e+00, 0.00000000e+00, 0.00000000e+00, -4.35315265e+00, -2.13251041e+00, -2.00735833e+00, 1.10533800e+00, 0.00000000e+00, 5.0000000000, 6.0000000000, 0.0447989833
          76, 0.00000000e+00, 0.00000000e+00, 0.00000000e+00, 0.00000000e+00, 0.00000000e+00, 0.00000000e+00, 0.00000000e+00, 0.00000000e+00, 0.00000000e+00, 0.00000000e+00, 0.00000000e+00, 0.00000000e+00, -4.35844984e+00, -2.12031197e+00, -2.00505051e+00, 1.09981873e+00, 0.00000000e+00, 5.0000000000, 6.0000000000, 0.0453283667
          77, 0.00000000e+00, 0.00000000e+00, 0.00000000e+00, 0.00000000e+00, 0.00000000e+00, 0.00000000e+00, 0.00000000e+00, 0.00000000e+00, 0.00000000e+00, 0.00000000e+00, 0.00000000e+00, 0.00000000e+00, -4.36353502e+00, -2.11056101e+00, -2.00275999e+00, 1.09449481e+00, 0.00000000e+00, 5.0000000000, 6.0000000000, 0.0459399667
          78, 0.00000000e+00, 0.00000000e+00, 0.00000000e+00, 0.00000000e+00, 0.00000000e+00, 0.00000000e+00, 0.00000000e+00, 0.00000000e+00, 0.00000000e+00, 0.00000000e+00, 0.00000000e+00, 0.00000000e+00, -4.36840662e+00, -2.10282336e+00, -2.00049033e+00, 1.08937175e+00, 0.00000000e+00, 5.0000000000, 6.0000000000, 0.0465426333
          79, 0.00000000e+00, 0.00000000e+00, 0.00000000e+00, 0.00000000e+00, 0.00000000e+00, 0.00000000e+00, 0.00000000e+00, 0.00000000e+00, 0.00000000e+00, 0.00000000e+00, 0.00000000e+00, 0.00000000e+00, -4.37310041e+00, -2.09663509e+00, -1.99824584e+00, 1.08441606e+00, 0.00000000e+00, 5.0000000000, 6.0000000000, 0.0471691167
          80, 0.00000000e+00, 0.00000000e+00, 0.00000000e+00, 0.00000000e+00, 0.00000000e+00, 0.00000000e+00, 0.00000000e+00, 0.00000000e+00, 0.00000000e+00, 0.00000000e+00, 0.00000000e+00, 0.00000000e+00, -4.37768657e+00, -2.09152018e+00, -1.99603154e+00, 1.07955813e+00, 0.00000000e+00, 5.0000000000, 6.0000000000, 0.0477854667
          81, 0.00000000e+00, 0.00000000e+00, 0.00000000e+00, 0.00000000e+00, 0.00000000e+00, 0.00000000e+00, 0.00000000e+00, 0.00000000e+00, 0.00000000e+00, 0.00000000e+00, 0.00000000e+00, 0.00000000e+00, -4.38226441e+00, -2.08700479e+00, -1.99385306e+00, 1.07469751e+00, 0.00000000e+00, 5.0000000000, 6.0000000000, 0.0483600500
          82, 0.00000000e+00, 0.00000000e+00, 0.00000000e+00, 0.00000000e+00, 0.00000000e+00, 0.00000000e+00, 0.00000000e+00, 0.00000000e+00, 0.00000000e+00, 0.00000000e+00, 0.00000000e+00, 0.00000000e+00, -4.38695517e+00, -2.08263522e+00, -1.99171650e+00, 1.06971027e+00, 0.00000000e+00, 5.0000000000, 6.0000000000, 0.0489475833
          83, 0.00000000e+00, 0.00000000e+00, 0.00000000e+00, 0.00000000e+00, 0.00000000e+00, 0.00000000e+00, 0.00000000e+00, 0.00000000e+00, 0.00000000e+00, 0.00000000e+00, 0.00000000e+00, 0.00000000e+00, -4.39189373e+00, -2.07800125e+00, -1.98962830e+00, 1.06445743e+00, 0.00000000e+00, 5.0000000000, 6.0000000000, 0.0494504000
          84, 0.00000000e+00, 0.00000000e+00, 0.00000000e+00, 0.00000000e+00, 0.00000000e+00, 0.00000000e+00, 0.00000000e+00, 0.00000000e+00, 0.00000000e+00, 0.00000000e+00, 0.00000000e+00, 0.00000000e+00, -4.39722015e+00, -2.07276260e+00, -1.98759513e+00, 1.05879373e+00, 0.00000000e+00, 5.0000000000, 6.0000000000, 0.0499993667
          85, 0.00000000e+00, 0.00000000e+00, 0.00000000e+00, 0.00000000e+00, 0.00000000e+00, 0.00000000e+00, 0.00000000e+00, 0.00000000e+00, 0.00000000e+00, 0.00000000e+00, 0.00000000e+00, 0.00000000e+00, -4.40307203e+00, -2.06667340e+00, -1.98562367e+00, 1.05257539e+00, 0.00000000e+00, 5.0000000000, 6.0000000000, 0.0505092500
          86, 0.00000000e+00, 0.00000000e+00, 0.00000000e+00, 0.00000000e+00, 0.00000000e+00, 0.00000000e+00, 0.00000000e+00, 0.00000000e+00, 0.00000000e+00, 0.00000000e+00, 0.00000000e+00, 0.00000000e+00, -4.40957866e+00, -2.05959841e+00, -1.98372024e+00, 1.04566628e+00, 0.00000000e+00, 5.0000000000, 6.0000000000, 0.0510606333
          87, 0.00000000e+00, 0.00000000e+00, 0.00000000e+00, 0.00000000e+00, 0.00000000e+00, 0.00000000e+00, 0.00000000e+00, 0.00000000e+00, 0.00000000e+00, 0.00000000e+00, 0.00000000e+00, 0.00000000e+00, -4.41685732e+00, -2.05151641e+00, -1.98189113e+00, 1.03794167e+00, 0.00000000e+00, 5.0000000000, 6.0000000000, 0.0516243333
          88, 0.00000000e+00, 0.00000000e+00, 0.00000000e+00, 0.00000000e+00, 0.00000000e+00, 0.00000000e+00, 0.00000000e+00, 0.00000000e+00, 0.00000000e+00, 0.00000000e+00, 0.00000000e+00, 0.00000000e+00, -4.42501198e+00, -2.04250862e+00, -1.98014429e+00, 1.02928969e+00, 0.00000000e+00, 5.0000000000, 6.0000000000, 0.0521819500
          89, 0.00000000e+00, 0.00000000e+00, 0.00000000e+00, 0.00000000e+00, 0.00000000e+00, 0.00000000e+00, 0.00000000e+00, 0.00000000e+00, 0.00000000e+00, 0.00000000e+00, 0.00000000e+00, 0.00000000e+00, -4.43413416e+00, -2.03273521e+00, -1.97848676e+00, 1.01961047e+00, 0.00000000e+00, 5.0000000000, 6.0000000000, 0.0526733667