TITLE = "Visualization of the volumetric solution"
VARIABLES = "x","y","Density","Momentum_x","Momentum_y","Energy","Pressure","Temperature","Mach","C<sub>p</sub>","Roe_Dissipation"
ZONE NODES= 606, ELEMENTS= 1108, DATAPACKING=POINT, ZONETYPE=FEQUADRILATERAL
4.569681e-02	3.926923e-03	1.228119e+00	6.045479e+01	-1.523681e+01	2.557929e+05	1.016842e+05	2.884320e+02	1.491053e-01	2.996455e-01	0.000000e+00	
4.943755e-02	4.611047e-03	1.228249e+00	6.056080e+01	-1.530186e+01	2.558173e+05	1.016916e+05	2.884224e+02	1.493759e-01	3.058365e-01	0.000000e+00	
5.353233e-02	2.238708e-03	1.228244e+00	6.059101e+01	-1.528222e+01	2.558189e+05	1.016917e+05	2.884240e+02	1.494346e-01	3.059509e-01	0.000000e+00	
4.569681e-02	7.853846e-03	1.228383e+00	6.061690e+01	-1.536102e+01	2.558415e+05	1.016999e+05	2.884146e+02	1.495263e-01	3.127875e-01	0.000000e+00	
5.292910e-02	6.828595e-03	1.228217e+00	6.059123e+01	-1.529126e+01	2.558096e+05	1.016880e+05	2.884195e+02	1.494448e-01	3.027959e-01	0.000000e+00	
4.922562e-02	9.338053e-03	1.228221e+00	6.060674e+01	-1.529879e+01	2.558094e+05	1.016875e+05	2.884175e+02	1.494853e-01	3.024380e-01	0.000000e+00	
5.660068e-02	4.232139e-03	1.228220e+00	6.059881e+01	-1.528666e+01	2.558116e+05	1.016886e+05	2.884208e+02	1.494590e-01	3.033636e-01	0.000000e+00	
4.569681e-02	1.178077e-02	1.228144e+00	6.058444e+01	-1.529078e+01	2.557942e+05	1.016819e+05	2.884195e+02	1.494377e-01	2.977267e-01	0.000000e+00	
5.265335e-02	1.132931e-02	1.228254e+00	6.059986e+01	-1.530276e+01	2.558173e+05	1.016908e+05	2.884191e+02	1.494672e-01	3.051915e-01	0.000000e+00	
5.614994e-02	9.032500e-03	1.228236e+00	6.059986e+01	-1.529780e+01	2.558135e+05	1.016893e+05	2.884191e+02	1.494665e-01	3.039329e-01	0.000000e+00	
4.912354e-02	1.356359e-02	1.228235e+00	6.059457e+01	-1.531117e+01	2.558146e+05	1.016898e+05	2.884205e+02	1.494618e-01	3.043109e-01	0.000000e+00	
5.948475e-02	2.871751e-03	1.228218e+00	6.060023e+01	-1.529095e+01	2.558119e+05	1.016887e+05	2.884215e+02	1.494649e-01	3.034032e-01	0.000000e+00	
5.941320e-02	6.815507e-03	1.228233e+00	6.060143e+01	-1.529404e+01	2.558135e+05	1.016893e+05	2.884195e+02	1.494681e-01	3.039007e-01	0.000000e+00	
4.569681e-02	1.570769e-02	1.228276e+00	6.061432e+01	-1.531386e+01	2.558248e+05	1.016935e+05	2.884214e+02	1.495039e-01	3.073973e-01	0.000000e+00	
5.598061e-02	1.343432e-02	1.228222e+00	6.059569e+01	-1.529254e+01	2.558115e+05	1.016886e+05	2.884203e+02	1.494551e-01	3.033265e-01	0.000000e+00	
5.253740e-02	1.555732e-02	1.228207e+00	6.059132e+01	-1.529460e+01	2.558091e+05	1.016877e+05	2.884212e+02	1.494477e-01	3.026132e-01	0.000000e+00	
5.934929e-02	1.126381e-02	1.228225e+00	6.059775e+01	-1.529278e+01	2.558117e+05	1.016886e+05	2.884197e+02	1.494598e-01	3.033680e-01	0.000000e+00	
4.908271e-02	1.761655e-02	1.228215e+00	6.059208e+01	-1.529377e+01	2.558113e+05	1.016886e+05	2.884218e+02	1.494479e-01	3.033175e-01	0.000000e+00	
6.230890e-02	4.200634e-03	1.228223e+00	6.060257e+01	-1.529353e+01	2.558120e+05	1.016887e+05	2.884203e+02	1.494716e-01	3.033995e-01	0.000000e+00	
6.260265e-02	8.990953e-03	1.228227e+00	6.060022e+01	-1.529297e+01	2.558121e+05	1.016888e+05	2.884195e+02	1.494654e-01	3.034722e-01	0.000000e+00	
4.569681e-02	1.963462e-02	1.228184e+00	6.057462e+01	-1.529877e+01	2.558043e+05	1.016861e+05	2.884222e+02	1.494141e-01	3.012587e-01	0.000000e+00	
6.548730e-02	2.143248e-03	1.228221e+00	6.060492e+01	-1.529362e+01	2.558124e+05	1.016888e+05	2.884211e+02	1.494771e-01	3.034859e-01	0.000000e+00	
5.930505e-02	1.554408e-02	1.228223e+00	6.058438e+01	-1.529040e+01	2.558119e+05	1.016890e+05	2.884212e+02	1.494273e-01	3.036771e-01	0.000000e+00	
5.590994e-02	1.760369e-02	1.228220e+00	6.057829e+01	-1.529185e+01	2.558115e+05	1.016890e+05	2.884219e+02	1.494143e-01	3.036393e-01	0.000000e+00	
5.249093e-02	1.961818e-02	1.228222e+00	6.057419e+01	-1.529198e+01	2.558121e+05	1.016893e+05	2.884221e+02	1.494044e-01	3.039144e-01	0.000000e+00	
6.266129e-02	1.342355e-02	1.228223e+00	6.058935e+01	-1.529045e+01	2.558116e+05	1.016888e+05	2.884206e+02	1.494390e-01	3.034769e-01	0.000000e+00	
4.906973e-02	2.159426e-02	1.228212e+00	6.056686e+01	-1.529448e+01	2.558096e+05	1.016884e+05	2.884220e+02	1.493901e-01	3.031841e-01	0.000000e+00	
6.587940e-02	6.655124e-03	1.228226e+00	6.060125e+01	-1.529350e+01	2.558120e+05	1.016887e+05	2.884196e+02	1.494683e-01	3.034003e-01	0.000000e+00	
6.601295e-02	1.123098e-02	1.228224e+00	6.059337e+01	-1.529095e+01	2.558117e+05	1.016887e+05	2.884201e+02	1.494486e-01	3.034506e-01	0.000000e+00	
4.569681e-02	2.356154e-02	1.228218e+00	6.057544e+01	-1.529524e+01	2.558104e+05	1.016885e+05	2.884211e+02	1.494101e-01	3.032848e-01	0.000000e+00	
6.942042e-02	4.089954e-03	1.228222e+00	6.060285e+01	-1.529411e+01	2.558118e+05	1.016886e+05	2.884201e+02	1.494726e-01	3.033129e-01	0.000000e+00	
5.927700e-02	1.964525e-02	1.228213e+00	6.056880e+01	-1.528648e+01	2.558098e+05	1.016885e+05	2.884221e+02	1.493899e-01	3.032472e-01	0.000000e+00	
6.266209e-02	1.762225e-02	1.228216e+00	6.057363e+01	-1.528638e+01	2.558104e+05	1.016886e+05	2.884218e+02	1.494007e-01	3.033568e-01	0.000000e+00	
5.587837e-02	2.163353e-02	1.228213e+00	6.056589e+01	-1.528671e+01	2.558097e+05	1.016885e+05	2.884221e+02	1.493833e-01	3.032416e-01	0.000000e+00	
5.247238e-02	2.359726e-02	1.228210e+00	6.056397e+01	-1.528832e+01	2.558089e+05	1.016882e+05	2.884219e+02	1.493801e-01	3.030195e-01	0.000000e+00	
6.604221e-02	1.555353e-02	1.228218e+00	6.057863e+01	-1.528704e+01	2.558106e+05	1.016886e+05	2.884213e+02	1.494126e-01	3.033490e-01	0.000000e+00	
4.906752e-02	2.554314e-02	1.228214e+00	6.056969e+01	-1.528882e+01	2.558096e+05	1.016884e+05	2.884215e+02	1.493933e-01	3.031364e-01	0.000000e+00	
6.945076e-02	8.962325e-03	1.228224e+00	6.059606e+01	-1.529197e+01	2.558116e+05	1.016886e+05	2.884198e+02	1.494555e-01	3.033574e-01	0.000000e+00	
6.944812e-02	1.343556e-02	1.228220e+00	6.058340e+01	-1.528806e+01	2.558108e+05	1.016886e+05	2.884208e+02	1.494242e-01	3.033420e-01	0.000000e+00	
4.569681e-02	2.748846e-02	1.228211e+00	6.057544e+01	-1.528421e+01	2.558090e+05	1.016880e+05	2.884213e+02	1.494044e-01	3.028647e-01	0.000000e+00	
7.331155e-02	2.175910e-03	1.228221e+00	6.060388e+01	-1.529503e+01	2.558119e+05	1.016886e+05	2.884204e+02	1.494757e-01	3.033164e-01	0.000000e+00	
7.304569e-02	6.723914e-03	1.228224e+00	6.059784e+01	-1.529294e+01	2.558116e+05	1.016886e+05	2.884198e+02	1.494602e-01	3.033308e-01	0.000000e+00	
5.925802e-02	2.364155e-02	1.228217e+00	6.056340e+01	-1.528622e+01	2.558101e+05	1.016887e+05	2.884218e+02	1.493768e-01	3.034328e-01	0.000000e+00	
6.264995e-02	2.166713e-02	1.228215e+00	6.056398e+01	-1.528554e+01	2.558100e+05	1.016887e+05	2.884219e+02	1.493779e-01	3.033798e-01	0.000000e+00	
6.603869e-02	1.967113e-02	1.228216e+00	6.056649e+01	-1.528512e+01	2.558101e+05	1.016886e+05	2.884219e+02	1.493834e-01	3.033751e-01	0.000000e+00	
5.586125e-02	2.560231e-02	1.228216e+00	6.056482e+01	-1.528730e+01	2.558099e+05	1.016886e+05	2.884216e+02	1.493808e-01	3.033346e-01	0.000000e+00	
5.246294e-02	2.755390e-02	1.228218e+00	6.056956e+01	-1.528719e+01	2.558103e+05	1.016887e+05	2.884214e+02	1.493916e-01	3.034004e-01	0.000000e+00	
6.943392e-02	1.764726e-02	1.228216e+00	6.056999e+01	-1.528534e+01	2.558101e+05	1.016886e+05	2.884217e+02	1.493917e-01	3.033285e-01	0.000000e+00	
4.906794e-02	2.949331e-02	1.228215e+00	6.057431e+01	-1.528496e+01	2.558099e+05	1.016884e+05	2.884214e+02	1.494017e-01	3.032005e-01	0.000000e+00	
7.291293e-02	1.129152e-02	1.228221e+00	6.058713e+01	-1.528925e+01	2.558109e+05	1.016885e+05	2.884204e+02	1.494335e-01	3.032928e-01	0.000000e+00	
7.284877e-02	1.559808e-02	1.228217e+00	6.057395e+01	-1.528604e+01	2.558103e+05	1.016886e+05	2.884213e+02	1.494012e-01	3.033112e-01	0.000000e+00	
4.569681e-02	3.141538e-02	1.228215e+00	6.057669e+01	-1.528049e+01	2.558104e+05	1.016886e+05	2.884218e+02	1.494044e-01	3.033342e-01	0.000000e+00	
7.677568e-02	4.381116e-03	1.228222e+00	6.059904e+01	-1.529394e+01	2.558114e+05	1.016885e+05	2.884199e+02	1.494638e-01	3.032331e-01	0.000000e+00	
7.642851e-02	9.154420e-03	1.228222e+00	6.059008e+01	-1.529061e+01	2.558110e+05	1.016885e+05	2.884201e+02	1.494410e-01	3.032902e-01	0.000000e+00	
6.263502e-02	2.564062e-02	1.228217e+00	6.056926e+01	-1.528719e+01	2.558100e+05	1.016885e+05	2.884212e+02	1.493910e-01	3.032872e-01	0.000000e+00	
5.924151e-02	2.760633e-02	1.228217e+00	6.057330e+01	-1.528843e+01	2.558100e+05	1.016885e+05	2.884209e+02	1.494012e-01	3.032217e-01	0.000000e+00	
6.602633e-02	2.367255e-02	1.228216e+00	6.056685e+01	-1.528624e+01	2.558098e+05	1.016885e+05	2.884214e+02	1.493849e-01	3.032873e-01	0.000000e+00	
6.941810e-02	2.169545e-02	1.228216e+00	6.056621e+01	-1.528556e+01	2.558098e+05	1.016886e+05	2.884215e+02	1.493831e-01	3.032985e-01	0.000000e+00	
5.584647e-02	2.957404e-02	1.228219e+00	6.057879e+01	-1.528926e+01	2.558104e+05	1.016885e+05	2.884207e+02	1.494143e-01	3.032516e-01	0.000000e+00	
5.245304e-02	3.153820e-02	1.228217e+00	6.058382e+01	-1.528993e+01	2.558102e+05	1.016883e+05	2.884206e+02	1.494266e-01	3.030986e-01	0.000000e+00	
7.281519e-02	1.970518e-02	1.228216e+00	6.056698e+01	-1.528531e+01	2.558098e+05	1.016885e+05	2.884215e+02	1.493848e-01	3.032771e-01	0.000000e+00	
4.906630e-02	3.347511e-02	1.228220e+00	6.058629e+01	-1.528979e+01	2.558109e+05	1.016886e+05	2.884206e+02	1.494318e-01	3.033174e-01	0.000000e+00	
7.628340e-02	1.353892e-02	1.228218e+00	6.057768e+01	-1.528699e+01	2.558103e+05	1.016885e+05	2.884210e+02	1.494104e-01	3.032588e-01	0.000000e+00	
7.621926e-02	1.770279e-02	1.228216e+00	6.056882e+01	-1.528549e+01	2.558099e+05	1.016885e+05	2.884214e+02	1.493891e-01	3.032622e-01	0.000000e+00	
4.569681e-02	3.534231e-02	1.228214e+00	6.058421e+01	-1.528955e+01	2.558095e+05	1.016880e+05	2.884206e+02	1.494277e-01	3.028699e-01	0.000000e+00	
8.029121e-02	3.514123e-03	1.228221e+00	6.059890e+01	-1.529429e+01	2.558114e+05	1.016885e+05	2.884201e+02	1.494637e-01	3.032490e-01	0.000000e+00	
7.988904e-02	7.176732e-03	1.228221e+00	6.059162e+01	-1.529169e+01	2.558109e+05	1.016885e+05	2.884200e+02	1.494454e-01	3.032163e-01	0.000000e+00	
7.970363e-02	1.150324e-02	1.228219e+00	6.058100e+01	-1.528820e+01	2.558104e+05	1.016885e+05	2.884207e+02	1.494188e-01	3.032422e-01	0.000000e+00	
6.601131e-02	2.763710e-02	1.228221e+00	6.058297e+01	-1.529122e+01	2.558108e+05	1.016886e+05	2.884205e+02	1.494250e-01	3.033100e-01	0.000000e+00	
6.261712e-02	2.961400e-02	1.228221e+00	6.058956e+01	-1.529305e+01	2.558111e+05	1.016885e+05	2.884203e+02	1.494413e-01	3.032909e-01	0.000000e+00	
5.922089e-02	3.160698e-02	1.228223e+00	6.059718e+01	-1.529473e+01	2.558116e+05	1.016886e+05	2.884200e+02	1.494598e-01	3.033296e-01	0.000000e+00	
6.940315e-02	2.566883e-02	1.228219e+00	6.057769e+01	-1.528969e+01	2.558104e+05	1.016885e+05	2.884208e+02	1.494119e-01	3.032888e-01	0.000000e+00	
7.279469e-02	2.370183e-02	1.228218e+00	6.057390e+01	-1.528842e+01	2.558102e+05	1.016885e+05	2.884210e+02	1.494025e-01	3.032774e-01	0.000000e+00	
5.582535e-02	3.361571e-02	1.228222e+00	6.060528e+01	-1.529721e+01	2.558117e+05	1.016885e+05	2.884198e+02	1.494802e-01	3.032304e-01	0.000000e+00	
5.243507e-02	3.561209e-02	1.228228e+00	6.061265e+01	-1.529904e+01	2.558130e+05	1.016888e+05	2.884195e+02	1.494977e-01	3.035243e-01	0.000000e+00	
7.618778e-02	2.173122e-02	1.228217e+00	6.057152e+01	-1.528750e+01	2.558100e+05	1.016885e+05	2.884211e+02	1.493965e-01	3.032502e-01	0.000000e+00	
4.905812e-02	3.753272e-02	1.228226e+00	6.061874e+01	-1.530641e+01	2.558124e+05	1.016884e+05	2.884189e+02	1.495166e-01	3.032086e-01	0.000000e+00	
7.962081e-02	1.569288e-02	1.228216e+00	6.057119e+01	-1.528599e+01	2.558099e+05	1.016885e+05	2.884212e+02	1.493949e-01	3.032278e-01	0.000000e+00	
7.958072e-02	1.975376e-02	1.228217e+00	6.057047e+01	-1.528698e+01	2.558099e+05	1.016885e+05	2.884212e+02	1.493938e-01	3.032274e-01	0.000000e+00	
4.569681e-02	3.926923e-02	1.228260e+00	6.061578e+01	-1.530707e+01	2.558183e+05	1.016909e+05	2.884177e+02	1.495062e-01	3.052418e-01	0.000000e+00	
8.305008e-02	5.513181e-03	1.228221e+00	6.059278e+01	-1.529251e+01	2.558109e+05	1.016884e+05	2.884199e+02	1.494486e-01	3.031818e-01	0.000000e+00	
8.319489e-02	2.691188e-03	1.228221e+00	6.059881e+01	-1.529470e+01	2.558113e+05	1.016885e+05	2.884201e+02	1.494638e-01	3.032144e-01	0.000000e+00	
8.304111e-02	9.492697e-03	1.228219e+00	6.058357e+01	-1.528945e+01	2.558104e+05	1.016884e+05	2.884204e+02	1.494255e-01	3.031978e-01	0.000000e+00	
8.299822e-02	1.366481e-02	1.228217e+00	6.057384e+01	-1.528680e+01	2.558099e+05	1.016884e+05	2.884210e+02	1.494015e-01	3.032010e-01	0.000000e+00	
6.938975e-02	2.963995e-02	1.228221e+00	6.060179e+01	-1.529619e+01	2.558116e+05	1.016885e+05	2.884203e+02	1.494715e-01	3.032664e-01	0.000000e+00	
6.599337e-02	3.163402e-02	1.228221e+00	6.060999e+01	-1.529820e+01	2.558120e+05	1.016885e+05	2.884202e+02	1.494917e-01	3.032460e-01	0.000000e+00	
6.259082e-02	3.365780e-02	1.228222e+00	6.061885e+01	-1.530024e+01	2.558125e+05	1.016885e+05	2.884201e+02	1.495134e-01	3.032687e-01	0.000000e+00	
5.918722e-02	3.572102e-02	1.228220e+00	6.062855e+01	-1.530283e+01	2.558126e+05	1.016883e+05	2.884201e+02	1.495377e-01	3.031222e-01	0.000000e+00	
7.278081e-02	2.766437e-02	1.228220e+00	6.059448e+01	-1.529438e+01	2.558112e+05	1.016885e+05	2.884204e+02	1.494536e-01	3.032525e-01	0.000000e+00	
7.616986e-02	2.569822e-02	1.228219e+00	6.058822e+01	-1.529274e+01	2.558108e+05	1.016885e+05	2.884206e+02	1.494382e-01	3.032409e-01	0.000000e+00	
5.578817e-02	3.781924e-02	1.228222e+00	6.063833e+01	-1.530577e+01	2.558136e+05	1.016885e+05	2.884201e+02	1.495618e-01	3.032872e-01	0.000000e+00	
5.239929e-02	3.986041e-02	1.228207e+00	6.065129e+01	-1.531302e+01	2.558111e+05	1.016872e+05	2.884199e+02	1.495980e-01	3.021847e-01	0.000000e+00	
7.955866e-02	2.373475e-02	1.228218e+00	6.058311e+01	-1.529134e+01	2.558105e+05	1.016885e+05	2.884207e+02	1.494256e-01	3.032179e-01	0.000000e+00	
4.903922e-02	4.174395e-02	1.228233e+00	6.065807e+01	-1.532250e+01	2.558170e+05	1.016894e+05	2.884201e+02	1.496160e-01	3.040247e-01	0.000000e+00	
8.296709e-02	1.776117e-02	1.228216e+00	6.057043e+01	-1.528681e+01	2.558098e+05	1.016884e+05	2.884211e+02	1.493937e-01	3.031957e-01	0.000000e+00	
8.294618e-02	2.176718e-02	1.228217e+00	6.057919e+01	-1.529023e+01	2.558102e+05	1.016884e+05	2.884208e+02	1.494159e-01	3.031932e-01	0.000000e+00	
4.569681e-02	4.319615e-02	1.228136e+00	6.068248e+01	-1.537716e+01	2.557984e+05	1.016812e+05	2.884195e+02	1.497167e-01	2.971497e-01	0.000000e+00	
8.629806e-02	7.255030e-03	1.228220e+00	6.058648e+01	-1.529067e+01	2.558106e+05	1.016884e+05	2.884202e+02	1.494329e-01	3.031858e-01	0.000000e+00	
8.617884e-02	3.108175e-03	1.228221e+00	6.059561e+01	-1.529390e+01	2.558110e+05	1.016884e+05	2.884200e+02	1.494560e-01	3.031731e-01	0.000000e+00	
8.634070e-02	1.154587e-02	1.228217e+00	6.057656e+01	-1.528776e+01	2.558100e+05	1.016884e+05	2.884207e+02	1.494084e-01	3.031599e-01	0.000000e+00	
8.634117e-02	1.572762e-02	1.228216e+00	6.057116e+01	-1.528700e+01	2.558097e+05	1.016884e+05	2.884210e+02	1.493955e-01	3.031654e-01	0.000000e+00	
6.937906e-02	3.367827e-02	1.228218e+00	6.062862e+01	-1.530239e+01	2.558130e+05	1.016885e+05	2.884209e+02	1.495375e-01	3.032613e-01	0.000000e+00	
7.277434e-02	3.165978e-02	1.228219e+00	6.062068e+01	-1.530076e+01	2.558126e+05	1.016885e+05	2.884207e+02	1.495182e-01	3.032522e-01	0.000000e+00	
6.596750e-02	3.573690e-02	1.228217e+00	6.063674e+01	-1.530377e+01	2.558135e+05	1.016885e+05	2.884211e+02	1.495572e-01	3.032717e-01	0.000000e+00	
6.254336e-02	3.785087e-02	1.228216e+00	6.064491e+01	-1.530518e+01	2.558139e+05	1.016885e+05	2.884215e+02	1.495771e-01	3.032646e-01	0.000000e+00	
5.912983e-02	4.003450e-02	1.228214e+00	6.065398e+01	-1.530540e+01	2.558143e+05	1.016885e+05	2.884219e+02	1.495984e-01	3.032643e-01	0.000000e+00	
7.616098e-02	2.966858e-02	1.228219e+00	6.061297e+01	-1.529912e+01	2.558121e+05	1.016885e+05	2.884206e+02	1.494993e-01	3.032345e-01	0.000000e+00	
7.954588e-02	2.769377e-02	1.228219e+00	6.060569e+01	-1.529747e+01	2.558117e+05	1.016885e+05	2.884206e+02	1.494815e-01	3.032141e-01	0.000000e+00	
5.572385e-02	4.233459e-02	1.228212e+00	6.066401e+01	-1.530632e+01	2.558149e+05	1.016885e+05	2.884225e+02	1.496223e-01	3.032888e-01	0.000000e+00	
5.230552e-02	4.434267e-02	1.228211e+00	6.068022e+01	-1.530110e+01	2.558160e+05	1.016887e+05	2.884231e+02	1.496567e-01	3.034239e-01	0.000000e+00	
8.293144e-02	2.572749e-02	1.228218e+00	6.059902e+01	-1.529591e+01	2.558113e+05	1.016884e+05	2.884206e+02	1.494652e-01	3.031898e-01	0.000000e+00	
4.910611e-02	4.635418e-02	1.228188e+00	6.071695e+01	-1.530103e+01	2.558130e+05	1.016867e+05	2.884229e+02	1.497447e-01	3.017895e-01	0.000000e+00	
8.633023e-02	1.978404e-02	1.228217e+00	6.057637e+01	-1.528943e+01	2.558100e+05	1.016884e+05	2.884209e+02	1.494090e-01	3.031644e-01	0.000000e+00	
8.631731e-02	2.376235e-02	1.228218e+00	6.059311e+01	-1.529450e+01	2.558109e+05	1.016884e+05	2.884207e+02	1.494507e-01	3.031624e-01	0.000000e+00	
4.569681e-02	4.712308e-02	1.228276e+00	6.080164e+01	-1.523295e+01	2.558344e+05	1.016940e+05	2.884230e+02	1.498908e-01	3.078424e-01	0.000000e+00	
8.952343e-02	4.372405e-03	1.228220e+00	6.059012e+01	-1.529224e+01	2.558107e+05	1.016884e+05	2.884201e+02	1.494423e-01	3.031592e-01	0.000000e+00	
8.967168e-02	9.228781e-03	1.228218e+00	6.057971e+01	-1.528882e+01	2.558100e+05	1.016883e+05	2.884205e+02	1.494163e-01	3.031263e-01	0.000000e+00	
8.970784e-02	1.361561e-02	1.228216e+00	6.057255e+01	-1.528745e+01	2.558097e+05	1.016884e+05	2.884209e+02	1.493990e-01	3.031370e-01	0.000000e+00	
8.971087e-02	1.776925e-02	1.228216e+00	6.057452e+01	-1.528893e+01	2.558098e+05	1.016884e+05	2.884209e+02	1.494045e-01	3.031309e-01	0.000000e+00	
6.937317e-02	3.786093e-02	1.228211e+00	6.064537e+01	-1.530454e+01	2.558139e+05	1.016885e+05	2.884226e+02	1.495781e-01	3.032632e-01	0.000000e+00	
7.278322e-02	3.576011e-02	1.228213e+00	6.064050e+01	-1.530432e+01	2.558136e+05	1.016885e+05	2.884221e+02	1.495666e-01	3.032357e-01	0.000000e+00	
7.616670e-02	3.370933e-02	1.228214e+00	6.063482e+01	-1.530364e+01	2.558132e+05	1.016885e+05	2.884217e+02	1.495529e-01	3.032276e-01	0.000000e+00	
6.591863e-02	4.001963e-02	1.228208e+00	6.064937e+01	-1.530411e+01	2.558139e+05	1.016884e+05	2.884232e+02	1.495874e-01	3.032071e-01	0.000000e+00	
6.244490e-02	4.225745e-02	1.228207e+00	6.065154e+01	-1.530223e+01	2.558144e+05	1.016886e+05	2.884239e+02	1.495912e-01	3.033474e-01	0.000000e+00	
5.906124e-02	4.455072e-02	1.228196e+00	6.065273e+01	-1.529858e+01	2.558130e+05	1.016881e+05	2.884248e+02	1.495929e-01	3.028820e-01	0.000000e+00	
7.954391e-02	3.169199e-02	1.228215e+00	6.062859e+01	-1.530264e+01	2.558129e+05	1.016884e+05	2.884214e+02	1.495378e-01	3.032071e-01	0.000000e+00	
8.292329e-02	2.969750e-02	1.228216e+00	6.062203e+01	-1.530144e+01	2.558124e+05	1.016884e+05	2.884211e+02	1.495219e-01	3.031850e-01	0.000000e+00	
5.560770e-02	4.768378e-02	1.228200e+00	6.064493e+01	-1.528744e+01	2.558145e+05	1.016889e+05	2.884261e+02	1.495675e-01	3.035551e-01	0.000000e+00	
5.195957e-02	4.824880e-02	1.228173e+00	6.065385e+01	-1.527498e+01	2.558101e+05	1.016870e+05	2.884270e+02	1.495839e-01	3.019644e-01	0.000000e+00	
8.630603e-02	2.771973e-02	1.228216e+00	6.061540e+01	-1.530013e+01	2.558120e+05	1.016884e+05	2.884210e+02	1.495058e-01	3.031608e-01	0.000000e+00	
4.964418e-02	5.105000e-02	1.228189e+00	6.060606e+01	-1.523739e+01	2.558119e+05	1.016888e+05	2.884285e+02	1.494488e-01	3.035092e-01	0.000000e+00	
8.970272e-02	2.178949e-02	1.228217e+00	6.058803e+01	-1.529329e+01	2.558105e+05	1.016884e+05	2.884207e+02	1.494383e-01	3.031356e-01	0.000000e+00	
9.304847e-02	2.219784e-03	1.228219e+00	6.059218e+01	-1.529364e+01	2.558106e+05	1.016883e+05	2.884201e+02	1.494480e-01	3.030770e-01	0.000000e+00	
8.969120e-02	2.575198e-02	1.228216e+00	6.060894e+01	-1.529880e+01	2.558116e+05	1.016884e+05	2.884209e+02	1.494900e-01	3.031319e-01	0.000000e+00	
4.569681e-02	5.105000e-02	1.228132e+00	6.059468e+01	-1.514036e+01	2.558032e+05	1.016860e+05	2.884341e+02	1.493715e-01	3.011766e-01	0.000000e+00	
9.307173e-02	6.856481e-03	1.228219e+00	6.058263e+01	-1.529024e+01	2.558102e+05	1.016883e+05	2.884203e+02	1.494239e-01	3.031156e-01	0.000000e+00	
9.308700e-02	1.143525e-02	1.228217e+00	6.057444e+01	-1.528803e+01	2.558097e+05	1.016883e+05	2.884207e+02	1.494037e-01	3.030934e-01	0.000000e+00	
9.309200e-02	1.571646e-02	1.228216e+00	6.057363e+01	-1.528874e+01	2.558097e+05	1.016883e+05	2.884209e+02	1.494023e-01	3.031068e-01	0.000000e+00	
9.308765e-02	1.980158e-02	1.228216e+00	6.058382e+01	-1.529228e+01	2.558102e+05	1.016883e+05	2.884208e+02	1.494280e-01	3.031023e-01	0.000000e+00	
6.937409e-02	4.226174e-02	1.228204e+00	6.064400e+01	-1.530186e+01	2.558139e+05	1.016885e+05	2.884242e+02	1.495737e-01	3.032932e-01	0.000000e+00	
7.282690e-02	4.003773e-02	1.228206e+00	6.064484e+01	-1.530344e+01	2.558138e+05	1.016885e+05	2.884237e+02	1.495765e-01	3.032456e-01	0.000000e+00	
7.620306e-02	3.789616e-02	1.228208e+00	6.064394e+01	-1.530434e+01	2.558137e+05	1.016885e+05	2.884232e+02	1.495749e-01	3.032327e-01	0.000000e+00	
7.956262e-02	3.580343e-02	1.228209e+00	6.064170e+01	-1.530463e+01	2.558135e+05	1.016884e+05	2.884227e+02	1.495698e-01	3.032045e-01	0.000000e+00	
6.580075e-02	4.450426e-02	1.228202e+00	6.064148e+01	-1.529920e+01	2.558137e+05	1.016885e+05	2.884248e+02	1.495664e-01	3.032904e-01	0.000000e+00	
6.219303e-02	4.692706e-02	1.228202e+00	6.063605e+01	-1.529567e+01	2.558139e+05	1.016887e+05	2.884253e+02	1.495517e-01	3.034417e-01	0.000000e+00	
5.921755e-02	4.836926e-02	1.228200e+00	6.063063e+01	-1.528987e+01	2.558138e+05	1.016888e+05	2.884260e+02	1.495357e-01	3.035222e-01	0.000000e+00	
8.292797e-02	3.374384e-02	1.228211e+00	6.063822e+01	-1.530446e+01	2.558133e+05	1.016884e+05	2.884223e+02	1.495615e-01	3.031836e-01	0.000000e+00	
8.630092e-02	3.171599e-02	1.228212e+00	6.063381e+01	-1.530397e+01	2.558130e+05	1.016884e+05	2.884220e+02	1.495510e-01	3.031549e-01	0.000000e+00	
5.359155e-02	5.105000e-02	1.228190e+00	6.060904e+01	-1.527849e+01	2.558120e+05	1.016886e+05	2.884277e+02	1.494798e-01	3.033417e-01	0.000000e+00	
8.968078e-02	2.971926e-02	1.228213e+00	6.062873e+01	-1.530323e+01	2.558126e+05	1.016884e+05	2.884217e+02	1.495387e-01	3.031312e-01	0.000000e+00	
9.307753e-02	2.378645e-02	1.228216e+00	6.060282e+01	-1.529751e+01	2.558112e+05	1.016883e+05	2.884208e+02	1.494751e-01	3.031047e-01	0.000000e+00	
9.659783e-02	4.370717e-03	1.228219e+00	6.058469e+01	-1.529156e+01	2.558102e+05	1.016883e+05	2.884202e+02	1.494295e-01	3.030794e-01	0.000000e+00	
5.753892e-02	5.105000e-02	1.228200e+00	6.061003e+01	-1.528687e+01	2.558115e+05	1.016883e+05	2.884247e+02	1.494866e-01	3.031197e-01	0.000000e+00	
9.306521e-02	2.774348e-02	1.228214e+00	6.062320e+01	-1.530232e+01	2.558123e+05	1.016883e+05	2.884214e+02	1.495253e-01	3.031017e-01	0.000000e+00	
9.648804e-02	9.249502e-03	1.228217e+00	6.057655e+01	-1.528894e+01	2.558097e+05	1.016883e+05	2.884205e+02	1.494091e-01	3.030853e-01	0.000000e+00	
9.647388e-02	1.364418e-02	1.228216e+00	6.057355e+01	-1.528871e+01	2.558095e+05	1.016883e+05	2.884207e+02	1.494022e-01	3.030683e-01	0.000000e+00	
9.647083e-02	1.779845e-02	1.228216e+00	6.058059e+01	-1.529151e+01	2.558100e+05	1.016883e+05	2.884208e+02	1.494201e-01	3.030766e-01	0.000000e+00	
9.646347e-02	2.181733e-02	1.228216e+00	6.059718e+01	-1.529630e+01	2.558108e+05	1.016883e+05	2.884208e+02	1.494614e-01	3.030723e-01	0.000000e+00	
6.938143e-02	4.698276e-02	1.228205e+00	6.062785e+01	-1.529696e+01	2.558131e+05	1.016886e+05	2.884242e+02	1.495333e-01	3.033264e-01	0.000000e+00	
7.295475e-02	4.451378e-02	1.228204e+00	6.063363e+01	-1.529959e+01	2.558132e+05	1.016885e+05	2.884242e+02	1.495484e-01	3.032455e-01	0.000000e+00	
7.630338e-02	4.228925e-02	1.228204e+00	6.063778e+01	-1.530155e+01	2.558134e+05	1.016885e+05	2.884240e+02	1.495591e-01	3.032410e-01	0.000000e+00	
7.961612e-02	4.010727e-02	1.228205e+00	6.064026e+01	-1.530301e+01	2.558135e+05	1.016885e+05	2.884238e+02	1.495657e-01	3.032121e-01	0.000000e+00	
8.295740e-02	3.795482e-02	1.228206e+00	6.064135e+01	-1.530410e+01	2.558134e+05	1.016884e+05	2.884234e+02	1.495689e-01	3.031783e-01	0.000000e+00	
6.548522e-02	4.888301e-02	1.228204e+00	6.062128e+01	-1.529440e+01	2.558126e+05	1.016885e+05	2.884242e+02	1.495167e-01	3.032705e-01	0.000000e+00	
6.148628e-02	5.105000e-02	1.228211e+00	6.061120e+01	-1.529112e+01	2.558127e+05	1.016888e+05	2.884235e+02	1.494908e-01	3.034929e-01	0.000000e+00	
8.630996e-02	3.582331e-02	1.228207e+00	6.064106e+01	-1.530471e+01	2.558134e+05	1.016884e+05	2.884231e+02	1.495685e-01	3.031593e-01	0.000000e+00	
8.967618e-02	3.375487e-02	1.228208e+00	6.063949e+01	-1.530500e+01	2.558132e+05	1.016884e+05	2.884227e+02	1.495650e-01	3.031283e-01	0.000000e+00	
9.305373e-02	3.173434e-02	1.228209e+00	6.063685e+01	-1.530495e+01	2.558130e+05	1.016883e+05	2.884224e+02	1.495588e-01	3.031009e-01	0.000000e+00	
9.645171e-02	2.577844e-02	1.228214e+00	6.061744e+01	-1.530131e+01	2.558119e+05	1.016883e+05	2.884212e+02	1.495114e-01	3.030735e-01	0.000000e+00	
9.985929e-02	3.047304e-03	1.228219e+00	6.058534e+01	-1.529230e+01	2.558102e+05	1.016883e+05	2.884201e+02	1.494314e-01	3.030684e-01	0.000000e+00	
9.983391e-02	7.284448e-03	1.228217e+00	6.057800e+01	-1.528980e+01	2.558096e+05	1.016882e+05	2.884203e+02	1.494131e-01	3.030206e-01	0.000000e+00	
9.643762e-02	2.974423e-02	1.228210e+00	6.063332e+01	-1.530465e+01	2.558127e+05	1.016883e+05	2.884221e+02	1.495504e-01	3.030715e-01	0.000000e+00	
9.983428e-02	1.159925e-02	1.228216e+00	6.057414e+01	-1.528903e+01	2.558095e+05	1.016883e+05	2.884206e+02	1.494037e-01	3.030548e-01	0.000000e+00	
9.984418e-02	1.578567e-02	1.228216e+00	6.057829e+01	-1.529092e+01	2.558097e+05	1.016882e+05	2.884207e+02	1.494145e-01	3.030383e-01	0.000000e+00	
9.984558e-02	1.984056e-02	1.228216e+00	6.059222e+01	-1.529522e+01	2.558105e+05	1.016883e+05	2.884208e+02	1.494493e-01	3.030448e-01	0.000000e+00	
9.983790e-02	2.381627e-02	1.228214e+00	6.061165e+01	-1.530024e+01	2.558115e+05	1.016882e+05	2.884211e+02	1.494974e-01	3.030417e-01	0.000000e+00	
6.938102e-02	5.105000e-02	1.228213e+00	6.060998e+01	-1.529499e+01	2.558121e+05	1.016885e+05	2.884221e+02	1.494903e-01	3.032828e-01	0.000000e+00	
7.330027e-02	4.888290e-02	1.228210e+00	6.061669e+01	-1.529631e+01	2.558124e+05	1.016885e+05	2.884229e+02	1.495068e-01	3.032874e-01	0.000000e+00	
7.656888e-02	4.693527e-02	1.228208e+00	6.062271e+01	-1.529790e+01	2.558127e+05	1.016885e+05	2.884233e+02	1.495218e-01	3.032761e-01	0.000000e+00	
7.969399e-02	4.459538e-02	1.228206e+00	6.062790e+01	-1.529957e+01	2.558128e+05	1.016884e+05	2.884235e+02	1.495350e-01	3.032024e-01	0.000000e+00	
8.302587e-02	4.245929e-02	1.228206e+00	6.063206e+01	-1.530118e+01	2.558130e+05	1.016884e+05	2.884236e+02	1.495456e-01	3.032096e-01	0.000000e+00	
8.634589e-02	4.011911e-02	1.228205e+00	6.063592e+01	-1.530287e+01	2.558130e+05	1.016884e+05	2.884235e+02	1.495556e-01	3.031432e-01	0.000000e+00	
6.543365e-02	5.105000e-02	1.228211e+00	6.060831e+01	-1.529385e+01	2.558122e+05	1.016886e+05	2.884228e+02	1.494858e-01	3.033521e-01	0.000000e+00	
8.968285e-02	3.793000e-02	1.228206e+00	6.063828e+01	-1.530400e+01	2.558131e+05	1.016884e+05	2.884234e+02	1.495618e-01	3.031302e-01	0.000000e+00	
9.304615e-02	3.582511e-02	1.228206e+00	6.063937e+01	-1.530485e+01	2.558131e+05	1.016883e+05	2.884232e+02	1.495648e-01	3.031002e-01	0.000000e+00	
9.642241e-02	3.377726e-02	1.228207e+00	6.063930e+01	-1.530542e+01	2.558130e+05	1.016883e+05	2.884229e+02	1.495650e-01	3.030705e-01	0.000000e+00	
9.982451e-02	2.777111e-02	1.228211e+00	6.062908e+01	-1.530413e+01	2.558124e+05	1.016882e+05	2.884218e+02	1.495403e-01	3.030415e-01	0.000000e+00	
1.030842e-01	2.142885e-03	1.228218e+00	6.058498e+01	-1.529274e+01	2.558100e+05	1.016882e+05	2.884200e+02	1.494309e-01	3.030069e-01	0.000000e+00	
1.030509e-01	5.574535e-03	1.228218e+00	6.057924e+01	-1.529073e+01	2.558097e+05	1.016882e+05	2.884202e+02	1.494165e-01	3.030268e-01	0.000000e+00	
1.031322e-01	9.568126e-03	1.228216e+00	6.057481e+01	-1.528945e+01	2.558094e+05	1.016882e+05	2.884205e+02	1.494055e-01	3.030097e-01	0.000000e+00	
9.980685e-02	3.176359e-02	1.228207e+00	6.063817e+01	-1.530570e+01	2.558129e+05	1.016882e+05	2.884227e+02	1.495625e-01	3.030410e-01	0.000000e+00	
1.031911e-01	1.374780e-02	1.228216e+00	6.057685e+01	-1.529061e+01	2.558096e+05	1.016882e+05	2.884206e+02	1.494110e-01	3.030128e-01	0.000000e+00	
1.032174e-01	1.784509e-02	1.228215e+00	6.058797e+01	-1.529426e+01	2.558102e+05	1.016882e+05	2.884207e+02	1.494389e-01	3.030098e-01	0.000000e+00	
1.032208e-01	2.184869e-02	1.228214e+00	6.060602e+01	-1.529915e+01	2.558111e+05	1.016882e+05	2.884210e+02	1.494837e-01	3.030118e-01	0.000000e+00	
1.032118e-01	2.580589e-02	1.228212e+00	6.062431e+01	-1.530344e+01	2.558121e+05	1.016882e+05	2.884216e+02	1.495288e-01	3.030107e-01	0.000000e+00	
7.332839e-02	5.105000e-02	1.228216e+00	6.060711e+01	-1.529570e+01	2.558120e+05	1.016886e+05	2.884214e+02	1.494838e-01	3.032975e-01	0.000000e+00	
7.727576e-02	5.105000e-02	1.228216e+00	6.060743e+01	-1.529567e+01	2.558117e+05	1.016884e+05	2.884213e+02	1.494847e-01	3.031932e-01	0.000000e+00	
7.954495e-02	4.836428e-02	1.228212e+00	6.061475e+01	-1.529683e+01	2.558123e+05	1.016885e+05	2.884223e+02	1.495025e-01	3.032561e-01	0.000000e+00	
8.314797e-02	4.772232e-02	1.228211e+00	6.061598e+01	-1.529782e+01	2.558121e+05	1.016884e+05	2.884223e+02	1.495061e-01	3.031694e-01	0.000000e+00	
8.643994e-02	4.459678e-02	1.228209e+00	6.062317e+01	-1.529978e+01	2.558125e+05	1.016884e+05	2.884229e+02	1.495240e-01	3.031836e-01	0.000000e+00	
8.969895e-02	4.229998e-02	1.228207e+00	6.062803e+01	-1.530134e+01	2.558126e+05	1.016884e+05	2.884231e+02	1.495363e-01	3.031413e-01	0.000000e+00	
9.304564e-02	4.007924e-02	1.228206e+00	6.063189e+01	-1.530273e+01	2.558127e+05	1.016883e+05	2.884232e+02	1.495462e-01	3.030985e-01	0.000000e+00	
9.640691e-02	3.794730e-02	1.228206e+00	6.063484e+01	-1.530391e+01	2.558128e+05	1.016883e+05	2.884232e+02	1.495538e-01	3.030751e-01	0.000000e+00	
9.978299e-02	3.586339e-02	1.228206e+00	6.063687e+01	-1.530489e+01	2.558128e+05	1.016882e+05	2.884231e+02	1.495591e-01	3.030395e-01	0.000000e+00	
1.031956e-01	2.977158e-02	1.228208e+00	6.063607e+01	-1.530574e+01	2.558127e+05	1.016882e+05	2.884224e+02	1.495576e-01	3.030098e-01	0.000000e+00	