TITLE = "Visualization of the volumetric solution"
VARIABLES = "x","y","Density","Momentum_x","Momentum_y","Energy","Pressure","Temperature","Mach","C<sub>p</sub>","Roe_Dissipation"
ZONE NODES= 1720, ELEMENTS= 3288, DATAPACKING=POINT, ZONETYPE=FEQUADRILATERAL
-2.000000e+00	-1.190476e+00	1.224126e+00	4.481160e+01	9.914086e-07	2.538537e+05	1.012134e+05	2.880331e+02	1.075956e-01	-1.573241e-01	0.000000e+00	
-1.913018e+00	-1.184272e+00	1.224126e+00	4.481158e+01	4.853264e-05	2.538537e+05	1.012134e+05	2.880331e+02	1.075955e-01	-1.573242e-01	0.000000e+00	
-1.954560e+00	-1.150209e+00	1.224126e+00	4.481162e+01	3.361561e-05	2.538537e+05	1.012134e+05	2.880331e+02	1.075956e-01	-1.573248e-01	0.000000e+00	
-1.849926e+00	-1.205140e+00	1.224126e+00	4.481153e+01	7.157498e-05	2.538537e+05	1.012134e+05	2.880331e+02	1.075954e-01	-1.573205e-01	0.000000e+00	
-1.903970e+00	-1.130852e+00	1.224126e+00	4.481162e+01	7.938631e-05	2.538537e+05	1.012134e+05	2.880331e+02	1.075956e-01	-1.573249e-01	0.000000e+00	
-2.000000e+00	-1.130952e+00	1.224126e+00	4.481164e+01	-2.746739e-07	2.538537e+05	1.012134e+05	2.880331e+02	1.075957e-01	-1.573261e-01	0.000000e+00	
-1.851543e+00	-1.159370e+00	1.224126e+00	4.481156e+01	1.061417e-04	2.538537e+05	1.012134e+05	2.880331e+02	1.075955e-01	-1.573230e-01	0.000000e+00	
-1.953167e+00	-1.099799e+00	1.224126e+00	4.481166e+01	4.590772e-05	2.538537e+05	1.012134e+05	2.880331e+02	1.075957e-01	-1.573276e-01	0.000000e+00	
-1.790653e+00	-1.186382e+00	1.224126e+00	4.481149e+01	1.176004e-04	2.538538e+05	1.012134e+05	2.880331e+02	1.075953e-01	-1.573185e-01	0.000000e+00	
-1.847749e+00	-1.098124e+00	1.224126e+00	4.481161e+01	1.487898e-04	2.538537e+05	1.012134e+05	2.880331e+02	1.075956e-01	-1.573243e-01	0.000000e+00	
-1.900004e+00	-1.068081e+00	1.224126e+00	4.481167e+01	1.098439e-04	2.538537e+05	1.012134e+05	2.880331e+02	1.075957e-01	-1.573286e-01	0.000000e+00	
-2.000000e+00	-1.071429e+00	1.224126e+00	4.481169e+01	-2.379473e-06	2.538537e+05	1.012134e+05	2.880331e+02	1.075958e-01	-1.573294e-01	0.000000e+00	
-1.792598e+00	-1.131714e+00	1.224126e+00	4.481154e+01	1.771984e-04	2.538537e+05	1.012134e+05	2.880331e+02	1.075954e-01	-1.573215e-01	0.000000e+00	
-1.951023e+00	-1.040587e+00	1.224126e+00	4.481172e+01	5.952254e-05	2.538537e+05	1.012134e+05	2.880331e+02	1.075959e-01	-1.573301e-01	0.000000e+00	
-1.731144e+00	-1.203552e+00	1.224126e+00	4.481140e+01	1.360001e-04	2.538538e+05	1.012134e+05	2.880331e+02	1.075951e-01	-1.573146e-01	0.000000e+00	
-1.734651e+00	-1.158217e+00	1.224126e+00	4.481145e+01	1.987771e-04	2.538538e+05	1.012134e+05	2.880331e+02	1.075952e-01	-1.573166e-01	0.000000e+00	
-1.793108e+00	-1.066236e+00	1.224126e+00	4.481161e+01	2.369852e-04	2.538537e+05	1.012134e+05	2.880331e+02	1.075956e-01	-1.573245e-01	0.000000e+00	
-1.846185e+00	-1.035678e+00	1.224126e+00	4.481168e+01	1.928247e-04	2.538537e+05	1.012134e+05	2.880331e+02	1.075958e-01	-1.573292e-01	0.000000e+00	
-1.899025e+00	-1.006433e+00	1.224126e+00	4.481175e+01	1.366921e-04	2.538537e+05	1.012134e+05	2.880331e+02	1.075959e-01	-1.573318e-01	0.000000e+00	
-2.000000e+00	-1.011905e+00	1.224126e+00	4.481176e+01	1.412343e-06	2.538537e+05	1.012134e+05	2.880331e+02	1.075960e-01	-1.573328e-01	0.000000e+00	
-1.739212e+00	-1.097073e+00	1.224126e+00	4.481151e+01	2.692847e-04	2.538537e+05	1.012134e+05	2.880331e+02	1.075954e-01	-1.573194e-01	0.000000e+00	
-1.943558e+00	-9.801168e-01	1.224126e+00	4.481180e+01	7.542138e-05	2.538537e+05	1.012134e+05	2.880331e+02	1.075961e-01	-1.573347e-01	0.000000e+00	
-1.679379e+00	-1.180956e+00	1.224126e+00	4.481133e+01	2.011118e-04	2.538538e+05	1.012134e+05	2.880331e+02	1.075949e-01	-1.573110e-01	0.000000e+00	
-1.685839e+00	-1.129056e+00	1.224126e+00	4.481141e+01	2.870209e-04	2.538538e+05	1.012134e+05	2.880331e+02	1.075951e-01	-1.573135e-01	0.000000e+00	
-1.740561e+00	-1.034368e+00	1.224126e+00	4.481160e+01	3.417149e-04	2.538537e+05	1.012134e+05	2.880331e+02	1.075956e-01	-1.573243e-01	0.000000e+00	
-1.792944e+00	-1.003990e+00	1.224126e+00	4.481169e+01	2.903324e-04	2.538537e+05	1.012134e+05	2.880331e+02	1.075958e-01	-1.573291e-01	0.000000e+00	
-1.845444e+00	-9.749924e-01	1.224126e+00	4.481177e+01	2.286742e-04	2.538537e+05	1.012134e+05	2.880331e+02	1.075960e-01	-1.573333e-01	0.000000e+00	
-1.898581e+00	-9.488258e-01	1.224126e+00	4.481183e+01	1.588432e-04	2.538537e+05	1.012134e+05	2.880331e+02	1.075961e-01	-1.573368e-01	0.000000e+00	
-2.000000e+00	-9.523810e-01	1.224126e+00	4.481185e+01	1.333808e-06	2.538537e+05	1.012134e+05	2.880331e+02	1.075962e-01	-1.573371e-01	0.000000e+00	
-1.688318e+00	-1.065673e+00	1.224126e+00	4.481148e+01	3.797047e-04	2.538538e+05	1.012134e+05	2.880331e+02	1.075953e-01	-1.573184e-01	0.000000e+00	
-1.950382e+00	-9.223557e-01	1.224126e+00	4.481189e+01	8.110931e-05	2.538537e+05	1.012134e+05	2.880331e+02	1.075963e-01	-1.573398e-01	0.000000e+00	
-1.607855e+00	-1.185371e+00	1.224126e+00	4.481119e+01	2.512362e-04	2.538538e+05	1.012134e+05	2.880331e+02	1.075946e-01	-1.573045e-01	0.000000e+00	
-1.639307e+00	-1.148507e+00	1.224126e+00	4.481130e+01	2.991815e-04	2.538538e+05	1.012134e+05	2.880331e+02	1.075948e-01	-1.573107e-01	0.000000e+00	
-1.636716e+00	-1.097558e+00	1.224126e+00	4.481135e+01	3.948825e-04	2.538538e+05	1.012134e+05	2.880331e+02	1.075950e-01	-1.573105e-01	0.000000e+00	
-1.689165e+00	-1.003589e+00	1.224126e+00	4.481158e+01	4.622841e-04	2.538537e+05	1.012134e+05	2.880331e+02	1.075955e-01	-1.573234e-01	0.000000e+00	
-1.740723e+00	-9.729752e-01	1.224126e+00	4.481170e+01	4.039337e-04	2.538537e+05	1.012134e+05	2.880331e+02	1.075958e-01	-1.573295e-01	0.000000e+00	
-1.792515e+00	-9.434304e-01	1.224126e+00	4.481179e+01	3.355545e-04	2.538537e+05	1.012134e+05	2.880331e+02	1.075960e-01	-1.573343e-01	0.000000e+00	
-1.844767e+00	-9.153378e-01	1.224126e+00	4.481187e+01	2.593336e-04	2.538537e+05	1.012134e+05	2.880331e+02	1.075962e-01	-1.573383e-01	0.000000e+00	
-1.897525e+00	-8.884422e-01	1.224126e+00	4.481193e+01	1.760174e-04	2.538537e+05	1.012134e+05	2.880331e+02	1.075964e-01	-1.573413e-01	0.000000e+00	
-2.000000e+00	-8.928571e-01	1.224126e+00	4.481194e+01	-3.420823e-06	2.538537e+05	1.012134e+05	2.880331e+02	1.075964e-01	-1.573418e-01	0.000000e+00	
-1.637687e+00	-1.035136e+00	1.224126e+00	4.481145e+01	5.087047e-04	2.538538e+05	1.012134e+05	2.880331e+02	1.075952e-01	-1.573173e-01	0.000000e+00	
-1.951486e+00	-8.621834e-01	1.224126e+00	4.481199e+01	8.728999e-05	2.538537e+05	1.012134e+05	2.880331e+02	1.075965e-01	-1.573446e-01	0.000000e+00	
-1.550264e+00	-1.185139e+00	1.224126e+00	4.481104e+01	3.085274e-04	2.538538e+05	1.012134e+05	2.880331e+02	1.075942e-01	-1.572953e-01	0.000000e+00	
-1.582082e+00	-1.140771e+00	1.224126e+00	4.481119e+01	3.922921e-04	2.538538e+05	1.012134e+05	2.880331e+02	1.075946e-01	-1.573030e-01	0.000000e+00	
-1.585659e+00	-1.068349e+00	1.224126e+00	4.481130e+01	5.389972e-04	2.538538e+05	1.012134e+05	2.880331e+02	1.075948e-01	-1.573083e-01	0.000000e+00	
-1.638167e+00	-9.734470e-01	1.224126e+00	4.481157e+01	6.022960e-04	2.538537e+05	1.012134e+05	2.880331e+02	1.075955e-01	-1.573230e-01	0.000000e+00	
-1.689207e+00	-9.427785e-01	1.224126e+00	4.481170e+01	5.340219e-04	2.538537e+05	1.012134e+05	2.880331e+02	1.075958e-01	-1.573298e-01	0.000000e+00	
-1.740389e+00	-9.128364e-01	1.224126e+00	4.481181e+01	4.565572e-04	2.538537e+05	1.012134e+05	2.880331e+02	1.075961e-01	-1.573353e-01	0.000000e+00	
-1.791943e+00	-8.838067e-01	1.224126e+00	4.481190e+01	3.732943e-04	2.538537e+05	1.012134e+05	2.880331e+02	1.075963e-01	-1.573401e-01	0.000000e+00	
-1.844135e+00	-8.558208e-01	1.224126e+00	4.481198e+01	2.846019e-04	2.538537e+05	1.012134e+05	2.880331e+02	1.075965e-01	-1.573442e-01	0.000000e+00	
-1.897320e+00	-8.288068e-01	1.224126e+00	4.481204e+01	1.907807e-04	2.538537e+05	1.012134e+05	2.880331e+02	1.075966e-01	-1.573474e-01	0.000000e+00	
-2.000000e+00	-8.333333e-01	1.224126e+00	4.481204e+01	-4.193564e-06	2.538537e+05	1.012134e+05	2.880331e+02	1.075966e-01	-1.573476e-01	0.000000e+00	
-1.587044e+00	-1.004740e+00	1.224126e+00	4.481142e+01	6.611504e-04	2.538538e+05	1.012134e+05	2.880331e+02	1.075951e-01	-1.573152e-01	0.000000e+00	
-1.951700e+00	-8.025383e-01	1.224126e+00	4.481210e+01	9.260270e-05	2.538537e+05	1.012134e+05	2.880331e+02	1.075968e-01	-1.573503e-01	0.000000e+00	
-1.482426e+00	-1.181198e+00	1.224126e+00	4.481085e+01	3.686059e-04	2.538538e+05	1.012134e+05	2.880331e+02	1.075937e-01	-1.572864e-01	0.000000e+00	
-1.524589e+00	-1.149206e+00	1.224126e+00	4.481103e+01	4.399965e-04	2.538538e+05	1.012134e+05	2.880331e+02	1.075942e-01	-1.572977e-01	0.000000e+00	
-1.533019e+00	-1.098254e+00	1.224126e+00	4.481113e+01	5.583913e-04	2.538538e+05	1.012134e+05	2.880331e+02	1.075944e-01	-1.572973e-01	0.000000e+00	
-1.535784e+00	-1.035922e+00	1.224126e+00	4.481125e+01	7.128585e-04	2.538538e+05	1.012134e+05	2.880331e+02	1.075947e-01	-1.573071e-01	0.000000e+00	
-1.638043e+00	-9.131350e-01	1.224126e+00	4.481171e+01	6.813344e-04	2.538537e+05	1.012134e+05	2.880331e+02	1.075958e-01	-1.573302e-01	0.000000e+00	
-1.587311e+00	-9.436131e-01	1.224126e+00	4.481157e+01	7.648711e-04	2.538537e+05	1.012134e+05	2.880331e+02	1.075955e-01	-1.573228e-01	0.000000e+00	
-1.688831e+00	-8.830544e-01	1.224126e+00	4.481183e+01	5.918850e-04	2.538537e+05	1.012134e+05	2.880331e+02	1.075961e-01	-1.573364e-01	0.000000e+00	
-1.739847e+00	-8.535053e-01	1.224126e+00	4.481193e+01	4.983093e-04	2.538537e+05	1.012134e+05	2.880331e+02	1.075964e-01	-1.573418e-01	0.000000e+00	
-1.791344e+00	-8.246529e-01	1.224126e+00	4.481202e+01	4.014221e-04	2.538537e+05	1.012134e+05	2.880331e+02	1.075966e-01	-1.573462e-01	0.000000e+00	
-1.843662e+00	-7.966422e-01	1.224126e+00	4.481209e+01	3.017838e-04	2.538537e+05	1.012134e+05	2.880331e+02	1.075968e-01	-1.573501e-01	0.000000e+00	
-1.897118e+00	-7.695048e-01	1.224126e+00	4.481215e+01	1.996081e-04	2.538537e+05	1.012134e+05	2.880331e+02	1.075969e-01	-1.573532e-01	0.000000e+00	
-2.000000e+00	-7.738095e-01	1.224126e+00	4.481215e+01	-5.060889e-06	2.538537e+05	1.012134e+05	2.880331e+02	1.075969e-01	-1.573533e-01	0.000000e+00	
-1.536563e+00	-9.743093e-01	1.224126e+00	4.481140e+01	8.405526e-04	2.538538e+05	1.012134e+05	2.880331e+02	1.075951e-01	-1.573137e-01	0.000000e+00	
-1.951774e+00	-7.430524e-01	1.224126e+00	4.481221e+01	9.582485e-05	2.538537e+05	1.012134e+05	2.880331e+02	1.075971e-01	-1.573562e-01	0.000000e+00	
-1.428477e+00	-1.207429e+00	1.224126e+00	4.481063e+01	3.315815e-04	2.538538e+05	1.012134e+05	2.880331e+02	1.075932e-01	-1.572763e-01	0.000000e+00	
-1.483039e+00	-1.130346e+00	1.224126e+00	4.481093e+01	5.551000e-04	2.538538e+05	1.012134e+05	2.880331e+02	1.075939e-01	-1.572891e-01	0.000000e+00	
-1.485010e+00	-1.067181e+00	1.224126e+00	4.481105e+01	7.452693e-04	2.538538e+05	1.012134e+05	2.880331e+02	1.075942e-01	-1.572958e-01	0.000000e+00	
-1.485902e+00	-1.005187e+00	1.224126e+00	4.481120e+01	9.090140e-04	2.538538e+05	1.012134e+05	2.880331e+02	1.075946e-01	-1.573036e-01	0.000000e+00	
-1.587023e+00	-8.838189e-01	1.224126e+00	4.481172e+01	8.485159e-04	2.538537e+05	1.012134e+05	2.880331e+02	1.075959e-01	-1.573309e-01	0.000000e+00	
-1.637592e+00	-8.537695e-01	1.224126e+00	4.481186e+01	7.431989e-04	2.538537e+05	1.012134e+05	2.880331e+02	1.075962e-01	-1.573379e-01	0.000000e+00	
-1.536482e+00	-9.140522e-01	1.224126e+00	4.481157e+01	9.511541e-04	2.538537e+05	1.012134e+05	2.880331e+02	1.075955e-01	-1.573228e-01	0.000000e+00	
-1.688274e+00	-8.239861e-01	1.224126e+00	4.481197e+01	6.361021e-04	2.538537e+05	1.012134e+05	2.880331e+02	1.075965e-01	-1.573437e-01	0.000000e+00	
-1.739242e+00	-7.945913e-01	1.224126e+00	4.481206e+01	5.284201e-04	2.538537e+05	1.012134e+05	2.880331e+02	1.075967e-01	-1.573487e-01	0.000000e+00	
-1.790775e+00	-7.657566e-01	1.224126e+00	4.481214e+01	4.206240e-04	2.538537e+05	1.012134e+05	2.880331e+02	1.075969e-01	-1.573528e-01	0.000000e+00	
-1.843232e+00	-7.376524e-01	1.224126e+00	4.481221e+01	3.125905e-04	2.538537e+05	1.012134e+05	2.880331e+02	1.075971e-01	-1.573564e-01	0.000000e+00	
-1.896909e+00	-7.103342e-01	1.224125e+00	4.481227e+01	2.043963e-04	2.538537e+05	1.012134e+05	2.880331e+02	1.075972e-01	-1.573593e-01	0.000000e+00	
-2.000000e+00	-7.142857e-01	1.224126e+00	4.481226e+01	-5.319165e-06	2.538537e+05	1.012134e+05	2.880331e+02	1.075972e-01	-1.573592e-01	0.000000e+00	
-1.436314e+00	-1.160707e+00	1.224126e+00	4.481070e+01	5.029838e-04	2.538538e+05	1.012134e+05	2.880331e+02	1.075934e-01	-1.572778e-01	0.000000e+00	
-1.485963e+00	-9.444475e-01	1.224126e+00	4.481138e+01	1.049616e-03	2.538538e+05	1.012134e+05	2.880331e+02	1.075950e-01	-1.573130e-01	0.000000e+00	
-1.951834e+00	-6.836189e-01	1.224125e+00	4.481232e+01	9.689426e-05	2.538537e+05	1.012134e+05	2.880331e+02	1.075973e-01	-1.573623e-01	0.000000e+00	
-1.381401e+00	-1.203049e+00	1.224126e+00	4.481043e+01	4.023563e-04	2.538538e+05	1.012135e+05	2.880331e+02	1.075927e-01	-1.572664e-01	0.000000e+00	
-1.435164e+00	-1.099511e+00	1.224126e+00	4.481082e+01	7.402951e-04	2.538538e+05	1.012134e+05	2.880331e+02	1.075937e-01	-1.572826e-01	0.000000e+00	
-1.435473e+00	-1.036658e+00	1.224126e+00	4.481098e+01	9.594794e-04	2.538538e+05	1.012134e+05	2.880331e+02	1.075941e-01	-1.572919e-01	0.000000e+00	
-1.435492e+00	-9.751382e-01	1.224126e+00	4.481116e+01	1.140054e-03	2.538538e+05	1.012134e+05	2.880331e+02	1.075945e-01	-1.573014e-01	0.000000e+00	
-1.586498e+00	-8.247520e-01	1.224126e+00	4.481189e+01	9.119423e-04	2.538537e+05	1.012134e+05	2.880331e+02	1.075963e-01	-1.573397e-01	0.000000e+00	
-1.536036e+00	-8.547237e-01	1.224126e+00	4.481175e+01	1.037657e-03	2.538537e+05	1.012134e+05	2.880331e+02	1.075959e-01	-1.573321e-01	0.000000e+00	
-1.637009e+00	-7.948977e-01	1.224126e+00	4.481201e+01	7.874627e-04	2.538537e+05	1.012134e+05	2.880331e+02	1.075966e-01	-1.573460e-01	0.000000e+00	
-1.485590e+00	-8.847930e-01	1.224126e+00	4.481158e+01	1.163709e-03	2.538537e+05	1.012134e+05	2.880331e+02	1.075955e-01	-1.573231e-01	0.000000e+00	
-1.687660e+00	-7.652266e-01	1.224126e+00	4.481212e+01	6.654344e-04	2.538537e+05	1.012134e+05	2.880331e+02	1.075968e-01	-1.573513e-01	0.000000e+00	
-1.738635e+00	-7.358608e-01	1.224126e+00	4.481220e+01	5.462840e-04	2.538537e+05	1.012134e+05	2.880331e+02	1.075970e-01	-1.573558e-01	0.000000e+00	
-1.790233e+00	-7.069758e-01	1.224125e+00	4.481227e+01	4.299352e-04	2.538537e+05	1.012134e+05	2.880331e+02	1.075972e-01	-1.573595e-01	0.000000e+00	
-1.842826e+00	-6.787423e-01	1.224125e+00	4.481233e+01	3.160782e-04	2.538537e+05	1.012134e+05	2.880331e+02	1.075974e-01	-1.573628e-01	0.000000e+00	
-1.896711e+00	-6.512112e-01	1.224125e+00	4.481239e+01	2.044343e-04	2.538537e+05	1.012134e+05	2.880331e+02	1.075975e-01	-1.573655e-01	0.000000e+00	
-2.000000e+00	-6.547619e-01	1.224125e+00	4.481238e+01	-5.441132e-06	2.538537e+05	1.012134e+05	2.880331e+02	1.075975e-01	-1.573652e-01	0.000000e+00	
-1.384569e+00	-1.135692e+00	1.224126e+00	4.481053e+01	6.831924e-04	2.538538e+05	1.012135e+05	2.880331e+02	1.075930e-01	-1.572697e-01	0.000000e+00	
-1.435154e+00	-9.150004e-01	1.224126e+00	4.481137e+01	1.288941e-03	2.538538e+05	1.012134e+05	2.880331e+02	1.075950e-01	-1.573124e-01	0.000000e+00	
-1.951901e+00	-6.242027e-01	1.224125e+00	4.481244e+01	9.574520e-05	2.538537e+05	1.012134e+05	2.880331e+02	1.075976e-01	-1.573683e-01	0.000000e+00	
-1.333934e+00	-1.179953e+00	1.224126e+00	4.481023e+01	6.083009e-04	2.538538e+05	1.012135e+05	2.880331e+02	1.075922e-01	-1.572493e-01	0.000000e+00	
-1.385051e+00	-1.069594e+00	1.224126e+00	4.481070e+01	9.705483e-04	2.538538e+05	1.012134e+05	2.880331e+02	1.075934e-01	-1.572782e-01	0.000000e+00	
-1.385044e+00	-1.006427e+00	1.224126e+00	4.481090e+01	1.211686e-03	2.538538e+05	1.012134e+05	2.880331e+02	1.075939e-01	-1.572879e-01	0.000000e+00	
-1.384722e+00	-9.454568e-01	1.224126e+00	4.481113e+01	1.407676e-03	2.538538e+05	1.012134e+05	2.880331e+02	1.075944e-01	-1.572995e-01	0.000000e+00	
-1.585892e+00	-7.660163e-01	1.224126e+00	4.481207e+01	9.537709e-04	2.538537e+05	1.012134e+05	2.880331e+02	1.075967e-01	-1.573490e-01	0.000000e+00	
-1.535455e+00	-7.958758e-01	1.224126e+00	4.481194e+01	1.099721e-03	2.538537e+05	1.012134e+05	2.880331e+02	1.075964e-01	-1.573423e-01	0.000000e+00	
-1.485037e+00	-8.257859e-01	1.224126e+00	4.481179e+01	1.250690e-03	2.538537e+05	1.012134e+05	2.880331e+02	1.075960e-01	-1.573341e-01	0.000000e+00	
-1.636386e+00	-7.362313e-01	1.224126e+00	4.481218e+01	8.136323e-04	2.538537e+05	1.012134e+05	2.880331e+02	1.075970e-01	-1.573546e-01	0.000000e+00	
-1.434624e+00	-8.557541e-01	1.224126e+00	4.481160e+01	1.405665e-03	2.538537e+05	1.012134e+05	2.880331e+02	1.075956e-01	-1.573243e-01	0.000000e+00	
-1.687037e+00	-7.065855e-01	1.224126e+00	4.481227e+01	6.797015e-04	2.538537e+05	1.012134e+05	2.880331e+02	1.075972e-01	-1.573592e-01	0.000000e+00	
-1.738039e+00	-6.771988e-01	1.224125e+00	4.481234e+01	5.518913e-04	2.538537e+05	1.012134e+05	2.880331e+02	1.075974e-01	-1.573631e-01	0.000000e+00	
-1.789710e+00	-6.482388e-01	1.224125e+00	4.481240e+01	4.297071e-04	2.538537e+05	1.012134e+05	2.880331e+02	1.075975e-01	-1.573663e-01	0.000000e+00	
-1.842437e+00	-6.198613e-01	1.224125e+00	4.481246e+01	3.125096e-04	2.538537e+05	1.012134e+05	2.880331e+02	1.075977e-01	-1.573692e-01	0.000000e+00	
-1.896524e+00	-5.921043e-01	1.224125e+00	4.481250e+01	1.998536e-04	2.538537e+05	1.012134e+05	2.880331e+02	1.075978e-01	-1.573716e-01	0.000000e+00	
-2.000000e+00	-5.952381e-01	1.224125e+00	4.481249e+01	-5.487198e-06	2.538537e+05	1.012134e+05	2.880331e+02	1.075977e-01	-1.573712e-01	0.000000e+00	
-1.285603e+00	-1.202634e+00	1.224126e+00	4.480994e+01	5.713640e-04	2.538538e+05	1.012135e+05	2.880331e+02	1.075915e-01	-1.572393e-01	0.000000e+00	
-1.334509e+00	-1.104381e+00	1.224126e+00	4.481037e+01	9.586247e-04	2.538538e+05	1.012135e+05	2.880331e+02	1.075926e-01	-1.572618e-01	0.000000e+00	
-1.384211e+00	-8.858197e-01	1.224126e+00	4.481137e+01	1.563068e-03	2.538538e+05	1.012134e+05	2.880331e+02	1.075950e-01	-1.573126e-01	0.000000e+00	
-1.951978e+00	-5.647922e-01	1.224125e+00	4.481255e+01	9.236916e-05	2.538537e+05	1.012134e+05	2.880331e+02	1.075979e-01	-1.573742e-01	0.000000e+00	
-1.284178e+00	-1.135987e+00	1.224126e+00	4.481006e+01	9.340960e-04	2.538538e+05	1.012135e+05	2.880331e+02	1.075918e-01	-1.572399e-01	0.000000e+00	
-1.334573e+00	-1.038434e+00	1.224126e+00	4.481059e+01	1.257078e-03	2.538538e+05	1.012135e+05	2.880331e+02	1.075931e-01	-1.572716e-01	0.000000e+00	
-1.334286e+00	-9.762514e-01	1.224126e+00	4.481083e+01	1.513361e-03	2.538538e+05	1.012134e+05	2.880331e+02	1.075937e-01	-1.572847e-01	0.000000e+00	
-1.333796e+00	-9.160353e-01	1.224126e+00	4.481110e+01	1.717571e-03	2.538538e+05	1.012134e+05	2.880331e+02	1.075944e-01	-1.572984e-01	0.000000e+00	
-1.585263e+00	-7.074028e-01	1.224126e+00	4.481225e+01	9.736333e-04	2.538537e+05	1.012134e+05	2.880331e+02	1.075972e-01	-1.573586e-01	0.000000e+00	
-1.534833e+00	-7.372253e-01	1.224126e+00	4.481214e+01	1.135951e-03	2.538537e+05	1.012134e+05	2.880331e+02	1.075969e-01	-1.573528e-01	0.000000e+00	
-1.484423e+00	-7.670749e-01	1.224126e+00	4.481201e+01	1.307946e-03	2.538537e+05	1.012134e+05	2.880331e+02	1.075966e-01	-1.573457e-01	0.000000e+00	
-1.434019e+00	-7.969472e-01	1.224126e+00	4.481184e+01	1.489245e-03	2.538537e+05	1.012134e+05	2.880331e+02	1.075962e-01	-1.573371e-01	0.000000e+00	
-1.635756e+00	-6.776342e-01	1.224125e+00	4.481234e+01	8.212472e-04	2.538537e+05	1.012134e+05	2.880331e+02	1.075974e-01	-1.573633e-01	0.000000e+00	
-1.383615e+00	-8.268533e-01	1.224126e+00	4.481164e+01	1.678961e-03	2.538537e+05	1.012134e+05	2.880331e+02	1.075957e-01	-1.573265e-01	0.000000e+00	
-1.686417e+00	-6.479821e-01	1.224125e+00	4.481242e+01	6.785834e-04	2.538537e+05	1.012134e+05	2.880331e+02	1.075976e-01	-1.573671e-01	0.000000e+00	
-1.737454e+00	-6.185590e-01	1.224125e+00	4.481248e+01	5.450301e-04	2.538537e+05	1.012134e+05	2.880331e+02	1.075977e-01	-1.573704e-01	0.000000e+00	
-1.789199e+00	-5.895163e-01	1.224125e+00	4.481253e+01	4.197491e-04	2.538537e+05	1.012134e+05	2.880331e+02	1.075978e-01	-1.573730e-01	0.000000e+00	
-1.842058e+00	-5.609896e-01	1.224125e+00	4.481258e+01	3.018548e-04	2.538537e+05	1.012134e+05	2.880331e+02	1.075979e-01	-1.573755e-01	0.000000e+00	
-1.896346e+00	-5.330022e-01	1.224125e+00	4.481262e+01	1.907224e-04	2.538537e+05	1.012134e+05	2.880331e+02	1.075980e-01	-1.573774e-01	0.000000e+00	
-2.000000e+00	-5.357143e-01	1.224125e+00	4.481260e+01	-5.424260e-06	2.538537e+05	1.012134e+05	2.880331e+02	1.075980e-01	-1.573769e-01	0.000000e+00	
-1.232677e+00	-1.161484e+00	1.224126e+00	4.480969e+01	9.098453e-04	2.538538e+05	1.012135e+05	2.880332e+02	1.075909e-01	-1.572256e-01	0.000000e+00	
-1.238042e+00	-1.207625e+00	1.224126e+00	4.480961e+01	5.501490e-04	2.538539e+05	1.012135e+05	2.880332e+02	1.075907e-01	-1.572174e-01	0.000000e+00	
-1.284181e+00	-1.070156e+00	1.224126e+00	4.481023e+01	1.290275e-03	2.538538e+05	1.012135e+05	2.880331e+02	1.075922e-01	-1.572549e-01	0.000000e+00	
-1.333210e+00	-8.568167e-01	1.224126e+00	4.481140e+01	1.875432e-03	2.538538e+05	1.012134e+05	2.880331e+02	1.075951e-01	-1.573138e-01	0.000000e+00	
-1.952062e+00	-5.053835e-01	1.224125e+00	4.481266e+01	8.689875e-05	2.538537e+05	1.012134e+05	2.880331e+02	1.075981e-01	-1.573799e-01	0.000000e+00	
-1.234074e+00	-1.100366e+00	1.224126e+00	4.480985e+01	1.296363e-03	2.538538e+05	1.012135e+05	2.880332e+02	1.075913e-01	-1.572329e-01	0.000000e+00	
-1.283894e+00	-1.007220e+00	1.224126e+00	4.481049e+01	1.599454e-03	2.538538e+05	1.012135e+05	2.880331e+02	1.075929e-01	-1.572661e-01	0.000000e+00	
-1.283398e+00	-9.464113e-01	1.224126e+00	4.481078e+01	1.864649e-03	2.538538e+05	1.012134e+05	2.880331e+02	1.075936e-01	-1.572818e-01	0.000000e+00	
-1.282810e+00	-8.868629e-01	1.224126e+00	4.481110e+01	2.074455e-03	2.538538e+05	1.012134e+05	2.880331e+02	1.075944e-01	-1.572984e-01	0.000000e+00	
-1.534200e+00	-6.786397e-01	1.224125e+00	4.481235e+01	1.145939e-03	2.538537e+05	1.012134e+05	2.880331e+02	1.075974e-01	-1.573635e-01	0.000000e+00	
-1.584629e+00	-6.488259e-01	1.224125e+00	4.481244e+01	9.713253e-04	2.538537e+05	1.012134e+05	2.880331e+02	1.075976e-01	-1.573682e-01	0.000000e+00	
-1.483792e+00	-7.084714e-01	1.224126e+00	4.481224e+01	1.334713e-03	2.538537e+05	1.012134e+05	2.880331e+02	1.075971e-01	-1.573577e-01	0.000000e+00	
-1.433390e+00	-7.383124e-01	1.224126e+00	4.481210e+01	1.537765e-03	2.538537e+05	1.012134e+05	2.880331e+02	1.075968e-01	-1.573504e-01	0.000000e+00	
-1.382989e+00	-7.681640e-01	1.224126e+00	4.481192e+01	1.755119e-03	2.538537e+05	1.012134e+05	2.880331e+02	1.075964e-01	-1.573413e-01	0.000000e+00	
-1.635126e+00	-6.190563e-01	1.224125e+00	4.481251e+01	8.103675e-04	2.538537e+05	1.012134e+05	2.880331e+02	1.075978e-01	-1.573719e-01	0.000000e+00	
-1.332588e+00	-7.980338e-01	1.224126e+00	4.481171e+01	1.986233e-03	2.538537e+05	1.012134e+05	2.880331e+02	1.075958e-01	-1.573302e-01	0.000000e+00	
-1.685802e+00	-5.893892e-01	1.224125e+00	4.481257e+01	6.622640e-04	2.538537e+05	1.012134e+05	2.880331e+02	1.075979e-01	-1.573750e-01	0.000000e+00	
-1.736874e+00	-5.599255e-01	1.224125e+00	4.481261e+01	5.259943e-04	2.538537e+05	1.012134e+05	2.880331e+02	1.075980e-01	-1.573775e-01	0.000000e+00	
-1.788694e+00	-5.307981e-01	1.224125e+00	4.481265e+01	4.004176e-04	2.538537e+05	1.012134e+05	2.880331e+02	1.075981e-01	-1.573795e-01	0.000000e+00	
-1.841686e+00	-5.021205e-01	1.224125e+00	4.481269e+01	2.844383e-04	2.538537e+05	1.012134e+05	2.880331e+02	1.075982e-01	-1.573814e-01	0.000000e+00	
-1.896174e+00	-4.739013e-01	1.224125e+00	4.481272e+01	1.773148e-04	2.538537e+05	1.012134e+05	2.880331e+02	1.075983e-01	-1.573829e-01	0.000000e+00	
-2.000000e+00	-4.761905e-01	1.224125e+00	4.481270e+01	-5.235803e-06	2.538537e+05	1.012134e+05	2.880331e+02	1.075983e-01	-1.573823e-01	0.000000e+00	
-1.185708e+00	-1.130828e+00	1.224126e+00	4.480944e+01	1.258860e-03	2.538539e+05	1.012135e+05	2.880332e+02	1.075903e-01	-1.572097e-01	0.000000e+00	
-1.184765e+00	-1.185808e+00	1.224127e+00	4.480924e+01	7.900777e-04	2.538539e+05	1.012135e+05	2.880332e+02	1.075898e-01	-1.571975e-01	0.000000e+00	
-1.233724e+00	-1.038016e+00	1.224126e+00	4.481008e+01	1.669584e-03	2.538538e+05	1.012135e+05	2.880331e+02	1.075919e-01	-1.572461e-01	0.000000e+00	
-1.282188e+00	-8.279355e-01	1.224126e+00	4.481145e+01	2.229551e-03	2.538538e+05	1.012134e+05	2.880331e+02	1.075952e-01	-1.573165e-01	0.000000e+00	
-1.952152e+00	-4.459755e-01	1.224125e+00	4.481276e+01	7.949275e-05	2.538537e+05	1.012134e+05	2.880331e+02	1.075984e-01	-1.573851e-01	0.000000e+00	
-1.184242e+00	-1.068796e+00	1.224126e+00	4.480964e+01	1.707951e-03	2.538539e+05	1.012135e+05	2.880332e+02	1.075908e-01	-1.572214e-01	0.000000e+00	
-1.233095e+00	-9.769027e-01	1.224126e+00	4.481039e+01	1.999062e-03	2.538538e+05	1.012135e+05	2.880331e+02	1.075926e-01	-1.572620e-01	0.000000e+00	
-1.232442e+00	-9.170133e-01	1.224126e+00	4.481075e+01	2.270997e-03	2.538538e+05	1.012134e+05	2.880331e+02	1.075935e-01	-1.572797e-01	0.000000e+00	
-1.231797e+00	-8.578882e-01	1.224126e+00	4.481113e+01	2.482354e-03	2.538538e+05	1.012134e+05	2.880331e+02	1.075944e-01	-1.572999e-01	0.000000e+00	
-1.533565e+00	-6.200713e-01	1.224125e+00	4.481255e+01	1.129794e-03	2.538537e+05	1.012134e+05	2.880331e+02	1.075979e-01	-1.573742e-01	0.000000e+00	
-1.483157e+00	-6.498991e-01	1.224125e+00	4.481247e+01	1.330558e-03	2.538537e+05	1.012134e+05	2.880331e+02	1.075977e-01	-1.573696e-01	0.000000e+00	
-1.583995e+00	-5.902579e-01	1.224125e+00	4.481262e+01	9.470929e-04	2.538537e+05	1.012134e+05	2.880331e+02	1.075980e-01	-1.573776e-01	0.000000e+00	
-1.432756e+00	-6.797320e-01	1.224125e+00	4.481236e+01	1.550335e-03	2.538537e+05	1.012134e+05	2.880331e+02	1.075974e-01	-1.573639e-01	0.000000e+00	
-1.382356e+00	-7.095681e-01	1.224126e+00	4.481221e+01	1.789823e-03	2.538537e+05	1.012134e+05	2.880331e+02	1.075971e-01	-1.573565e-01	0.000000e+00	
-1.331956e+00	-7.394092e-01	1.224126e+00	4.481204e+01	2.049535e-03	2.538537e+05	1.012134e+05	2.880331e+02	1.075966e-01	-1.573472e-01	0.000000e+00	
-1.634498e+00	-5.604830e-01	1.224125e+00	4.481267e+01	7.813129e-04	2.538537e+05	1.012134e+05	2.880331e+02	1.075982e-01	-1.573804e-01	0.000000e+00	
-1.281556e+00	-7.692600e-01	1.224126e+00	4.481181e+01	2.329592e-03	2.538537e+05	1.012134e+05	2.880331e+02	1.075961e-01	-1.573356e-01	0.000000e+00	
-1.685188e+00	-5.307987e-01	1.224125e+00	4.481271e+01	6.311541e-04	2.538537e+05	1.012134e+05	2.880331e+02	1.075983e-01	-1.573825e-01	0.000000e+00	
-1.736298e+00	-5.012935e-01	1.224125e+00	4.481274e+01	4.952415e-04	2.538537e+05	1.012134e+05	2.880331e+02	1.075984e-01	-1.573842e-01	0.000000e+00	
-1.788193e+00	-4.720809e-01	1.224125e+00	4.481277e+01	3.721795e-04	2.538537e+05	1.012134e+05	2.880331e+02	1.075984e-01	-1.573856e-01	0.000000e+00	
-1.841317e+00	-4.432518e-01	1.224125e+00	4.481280e+01	2.607029e-04	2.538537e+05	1.012134e+05	2.880331e+02	1.075985e-01	-1.573869e-01	0.000000e+00	
-1.896007e+00	-4.148005e-01	1.224125e+00	4.481282e+01	1.599760e-04	2.538537e+05	1.012134e+05	2.880331e+02	1.075985e-01	-1.573880e-01	0.000000e+00	
-2.000000e+00	-4.166667e-01	1.224125e+00	4.481280e+01	-4.908596e-06	2.538537e+05	1.012134e+05	2.880331e+02	1.075985e-01	-1.573872e-01	0.000000e+00	
-1.143479e+00	-1.149926e+00	1.224126e+00	4.480900e+01	1.214839e-03	2.538539e+05	1.012135e+05	2.880332e+02	1.075893e-01	-1.571971e-01	0.000000e+00	
-1.136036e+00	-1.099969e+00	1.224127e+00	4.480914e+01	1.663593e-03	2.538539e+05	1.012135e+05	2.880332e+02	1.075896e-01	-1.571914e-01	0.000000e+00	
-1.116564e+00	-1.191314e+00	1.224127e+00	4.480864e+01	8.945079e-04	2.538539e+05	1.012135e+05	2.880332e+02	1.075884e-01	-1.571710e-01	0.000000e+00	
-1.183052e+00	-1.007558e+00	1.224126e+00	4.480994e+01	2.113555e-03	2.538538e+05	1.012135e+05	2.880331e+02	1.075915e-01	-1.572379e-01	0.000000e+00	
-1.231159e+00	-7.991290e-01	1.224126e+00	4.481154e+01	2.628814e-03	2.538537e+05	1.012134e+05	2.880331e+02	1.075954e-01	-1.573210e-01	0.000000e+00	
-1.952249e+00	-3.865677e-01	1.224125e+00	4.481285e+01	7.035346e-05	2.538537e+05	1.012134e+05	2.880331e+02	1.075986e-01	-1.573898e-01	0.000000e+00	
-1.133422e+00	-1.038685e+00	1.224126e+00	4.480942e+01	2.195804e-03	2.538539e+05	1.012135e+05	2.880332e+02	1.075903e-01	-1.572138e-01	0.000000e+00	
-1.182166e+00	-9.473104e-01	1.224126e+00	4.481032e+01	2.461734e-03	2.538538e+05	1.012135e+05	2.880331e+02	1.075924e-01	-1.572579e-01	0.000000e+00	
-1.181435e+00	-8.879214e-01	1.224126e+00	4.481074e+01	2.739527e-03	2.538538e+05	1.012134e+05	2.880331e+02	1.075935e-01	-1.572794e-01	0.000000e+00	
-1.180769e+00	-8.290307e-01	1.224126e+00	4.481120e+01	2.945747e-03	2.538538e+05	1.012134e+05	2.880331e+02	1.075946e-01	-1.573033e-01	0.000000e+00	
-1.482521e+00	-5.913341e-01	1.224125e+00	4.481269e+01	1.296061e-03	2.538537e+05	1.012134e+05	2.880331e+02	1.075982e-01	-1.573814e-01	0.000000e+00	
-1.532929e+00	-5.615067e-01	1.224125e+00	4.481275e+01	1.088176e-03	2.538537e+05	1.012134e+05	2.880331e+02	1.075984e-01	-1.573845e-01	0.000000e+00	
-1.432120e+00	-6.211654e-01	1.224125e+00	4.481261e+01	1.527024e-03	2.538537e+05	1.012134e+05	2.880331e+02	1.075980e-01	-1.573773e-01	0.000000e+00	
-1.583362e+00	-5.316917e-01	1.224125e+00	4.481279e+01	9.017008e-04	2.538537e+05	1.012134e+05	2.880331e+02	1.075985e-01	-1.573867e-01	0.000000e+00	
-1.381720e+00	-6.509980e-01	1.224125e+00	4.481251e+01	1.782636e-03	2.538537e+05	1.012134e+05	2.880331e+02	1.075978e-01	-1.573718e-01	0.000000e+00	
-1.331321e+00	-6.808319e-01	1.224125e+00	4.481237e+01	2.064352e-03	2.538537e+05	1.012134e+05	2.880331e+02	1.075974e-01	-1.573645e-01	0.000000e+00	
-1.280921e+00	-7.106681e-01	1.224126e+00	4.481219e+01	2.373372e-03	2.538537e+05	1.012134e+05	2.880331e+02	1.075970e-01	-1.573552e-01	0.000000e+00	
-1.633870e+00	-5.019105e-01	1.224125e+00	4.481282e+01	7.349129e-04	2.538537e+05	1.012134e+05	2.880331e+02	1.075985e-01	-1.573884e-01	0.000000e+00	
-1.230522e+00	-7.405094e-01	1.224126e+00	4.481196e+01	2.710689e-03	2.538537e+05	1.012134e+05	2.880331e+02	1.075964e-01	-1.573433e-01	0.000000e+00	
-1.684576e+00	-4.722088e-01	1.224125e+00	4.481285e+01	5.861027e-04	2.538537e+05	1.012134e+05	2.880331e+02	1.075986e-01	-1.573895e-01	0.000000e+00	
-1.735722e+00	-4.426619e-01	1.224125e+00	4.481286e+01	4.535884e-04	2.538537e+05	1.012134e+05	2.880331e+02	1.075986e-01	-1.573905e-01	0.000000e+00	