TITLE = "Visualization of the volumetric solution"
VARIABLES = "x","y","Density","Momentum_x","Momentum_y","Energy","Pressure","Temperature","Mach","C<sub>p</sub>","Roe_Dissipation"
ZONE NODES= 1720, ELEMENTS= 3288, DATAPACKING=POINT, ZONETYPE=FEQUADRILATERAL
1.040621e+00	-1.209117e+00	1.237514e+00	4.477634e+01	-4.848078e+01	2.587026e+05	1.027771e+05	2.893189e+02	1.563947e-01	2.047368e+00	0.000000e+00	
1.000000e+00	-1.190476e+00	1.237512e+00	4.477749e+01	-4.848426e+01	2.587022e+05	1.027769e+05	2.893186e+02	1.564029e-01	2.047031e+00	0.000000e+00	
1.049910e+00	-1.157894e+00	1.237510e+00	4.478006e+01	-4.848062e+01	2.587023e+05	1.027770e+05	2.893193e+02	1.564008e-01	2.047125e+00	0.000000e+00	
1.093743e+00	-1.191849e+00	1.237511e+00	4.477797e+01	-4.847724e+01	2.587026e+05	1.027772e+05	2.893196e+02	1.563913e-01	2.047404e+00	0.000000e+00	
1.000000e+00	-1.130952e+00	1.237509e+00	4.478212e+01	-4.848415e+01	2.587018e+05	1.027767e+05	2.893188e+02	1.564105e-01	2.046719e+00	0.000000e+00	
1.095476e+00	-1.132804e+00	1.237507e+00	4.478317e+01	-4.847848e+01	2.587024e+05	1.027770e+05	2.893202e+02	1.564022e-01	2.047167e+00	0.000000e+00	
1.048314e+00	-1.101041e+00	1.237506e+00	4.478515e+01	-4.848135e+01	2.587021e+05	1.027768e+05	2.893197e+02	1.564106e-01	2.046882e+00	0.000000e+00	
1.144982e+00	-1.160302e+00	1.237507e+00	4.478221e+01	-4.847587e+01	2.587029e+05	1.027773e+05	2.893207e+02	1.563959e-01	2.047514e+00	0.000000e+00	
1.000000e+00	-1.071429e+00	1.237505e+00	4.478772e+01	-4.848418e+01	2.587016e+05	1.027765e+05	2.893192e+02	1.564200e-01	2.046488e+00	0.000000e+00	
1.148009e+00	-1.206784e+00	1.237512e+00	4.477822e+01	-4.847411e+01	2.587030e+05	1.027774e+05	2.893202e+02	1.563861e-01	2.047740e+00	0.000000e+00	
1.095648e+00	-1.071244e+00	1.237502e+00	4.478900e+01	-4.848015e+01	2.587024e+05	1.027769e+05	2.893209e+02	1.564149e-01	2.047006e+00	0.000000e+00	
1.145729e+00	-1.102380e+00	1.237503e+00	4.478760e+01	-4.847810e+01	2.587027e+05	1.027771e+05	2.893214e+02	1.564089e-01	2.047286e+00	0.000000e+00	
1.049733e+00	-1.041321e+00	1.237502e+00	4.479118e+01	-4.848221e+01	2.587019e+05	1.027767e+05	2.893204e+02	1.564222e-01	2.046675e+00	0.000000e+00	
1.192761e+00	-1.192577e+00	1.237507e+00	4.478128e+01	-4.847353e+01	2.587029e+05	1.027773e+05	2.893210e+02	1.563903e-01	2.047636e+00	0.000000e+00	
1.195107e+00	-1.133762e+00	1.237503e+00	4.478686e+01	-4.847647e+01	2.587031e+05	1.027773e+05	2.893218e+02	1.564047e-01	2.047567e+00	0.000000e+00	
1.000000e+00	-1.011905e+00	1.237500e+00	4.479398e+01	-4.848419e+01	2.587014e+05	1.027764e+05	2.893199e+02	1.564304e-01	2.046283e+00	0.000000e+00	
1.094413e+00	-1.012480e+00	1.237498e+00	4.479557e+01	-4.848195e+01	2.587024e+05	1.027768e+05	2.893215e+02	1.564290e-01	2.046817e+00	0.000000e+00	
1.144800e+00	-1.042146e+00	1.237499e+00	4.479404e+01	-4.848072e+01	2.587028e+05	1.027770e+05	2.893220e+02	1.564241e-01	2.047139e+00	0.000000e+00	
1.194807e+00	-1.073419e+00	1.237499e+00	4.479307e+01	-4.847959e+01	2.587031e+05	1.027771e+05	2.893224e+02	1.564205e-01	2.047358e+00	0.000000e+00	
1.046483e+00	-9.824203e-01	1.237497e+00	4.479781e+01	-4.848327e+01	2.587020e+05	1.027765e+05	2.893211e+02	1.564351e-01	2.046522e+00	0.000000e+00	
1.243114e+00	-1.166395e+00	1.237504e+00	4.478604e+01	-4.847513e+01	2.587035e+05	1.027774e+05	2.893221e+02	1.564009e-01	2.047790e+00	0.000000e+00	
1.243982e+00	-1.104797e+00	1.237499e+00	4.479268e+01	-4.847874e+01	2.587035e+05	1.027773e+05	2.893228e+02	1.564182e-01	2.047604e+00	0.000000e+00	
1.000000e+00	-9.523810e-01	1.237496e+00	4.480087e+01	-4.848450e+01	2.587014e+05	1.027763e+05	2.893206e+02	1.564424e-01	2.046126e+00	0.000000e+00	
1.143063e+00	-9.807371e-01	1.237495e+00	4.480099e+01	-4.848342e+01	2.587029e+05	1.027769e+05	2.893226e+02	1.564403e-01	2.046983e+00	0.000000e+00	
1.092059e+00	-9.503938e-01	1.237495e+00	4.480260e+01	-4.848379e+01	2.587025e+05	1.027767e+05	2.893222e+02	1.564437e-01	2.046739e+00	0.000000e+00	
1.193442e+00	-1.011838e+00	1.237496e+00	4.479989e+01	-4.848301e+01	2.587033e+05	1.027771e+05	2.893229e+02	1.564377e-01	2.047257e+00	0.000000e+00	
1.243532e+00	-1.043138e+00	1.237496e+00	4.479933e+01	-4.848270e+01	2.587037e+05	1.027772e+05	2.893232e+02	1.564361e-01	2.047472e+00	0.000000e+00	
1.045466e+00	-9.241753e-01	1.237494e+00	4.480489e+01	-4.848429e+01	2.587020e+05	1.027765e+05	2.893217e+02	1.564485e-01	2.046396e+00	0.000000e+00	
1.292216e+00	-1.195962e+00	1.237503e+00	4.478630e+01	-4.847409e+01	2.587036e+05	1.027775e+05	2.893225e+02	1.563995e-01	2.047897e+00	0.000000e+00	
1.293053e+00	-1.132219e+00	1.237500e+00	4.479284e+01	-4.847836e+01	2.587038e+05	1.027774e+05	2.893231e+02	1.564177e-01	2.047787e+00	0.000000e+00	
1.293488e+00	-1.073063e+00	1.237497e+00	4.479946e+01	-4.848262e+01	2.587040e+05	1.027774e+05	2.893234e+02	1.564360e-01	2.047675e+00	0.000000e+00	
1.000000e+00	-8.928571e-01	1.237493e+00	4.480825e+01	-4.848471e+01	2.587016e+05	1.027762e+05	2.893213e+02	1.564549e-01	2.046081e+00	0.000000e+00	
1.139604e+00	-9.191736e-01	1.237493e+00	4.480822e+01	-4.848599e+01	2.587032e+05	1.027768e+05	2.893229e+02	1.564566e-01	2.046927e+00	0.000000e+00	
1.191101e+00	-9.499658e-01	1.237494e+00	4.480704e+01	-4.848632e+01	2.587035e+05	1.027770e+05	2.893232e+02	1.564551e-01	2.047139e+00	0.000000e+00	
1.086165e+00	-8.914965e-01	1.237491e+00	4.480987e+01	-4.848554e+01	2.587026e+05	1.027766e+05	2.893226e+02	1.564588e-01	2.046568e+00	0.000000e+00	
1.242086e+00	-9.812383e-01	1.237495e+00	4.480632e+01	-4.848657e+01	2.587039e+05	1.027772e+05	2.893233e+02	1.564542e-01	2.047376e+00	0.000000e+00	
1.292812e+00	-1.012013e+00	1.237496e+00	4.480612e+01	-4.848685e+01	2.587042e+05	1.027773e+05	2.893234e+02	1.564542e-01	2.047559e+00	0.000000e+00	
1.036811e+00	-8.675911e-01	1.237491e+00	4.481140e+01	-4.848510e+01	2.587022e+05	1.027764e+05	2.893222e+02	1.564606e-01	2.046323e+00	0.000000e+00	
1.341812e+00	-1.209973e+00	1.237503e+00	4.478861e+01	-4.847422e+01	2.587041e+05	1.027777e+05	2.893230e+02	1.564033e-01	2.048145e+00	0.000000e+00	
1.346003e+00	-1.158948e+00	1.237500e+00	4.479381e+01	-4.847825e+01	2.587042e+05	1.027776e+05	2.893233e+02	1.564189e-01	2.047991e+00	0.000000e+00	
1.344501e+00	-1.101571e+00	1.237498e+00	4.480015e+01	-4.848276e+01	2.587043e+05	1.027775e+05	2.893236e+02	1.564372e-01	2.047828e+00	0.000000e+00	
1.343694e+00	-1.041833e+00	1.237498e+00	4.480650e+01	-4.848728e+01	2.587046e+05	1.027774e+05	2.893234e+02	1.564553e-01	2.047746e+00	0.000000e+00	
1.000000e+00	-8.333333e-01	1.237490e+00	4.481568e+01	-4.848447e+01	2.587019e+05	1.027762e+05	2.893221e+02	1.564666e-01	2.046094e+00	0.000000e+00	
1.135849e+00	-8.580295e-01	1.237492e+00	4.481553e+01	-4.848839e+01	2.587034e+05	1.027768e+05	2.893231e+02	1.564726e-01	2.046872e+00	0.000000e+00	
1.188203e+00	-8.888722e-01	1.237493e+00	4.481418e+01	-4.848932e+01	2.587038e+05	1.027770e+05	2.893232e+02	1.564719e-01	2.047092e+00	0.000000e+00	
1.240135e+00	-9.198651e-01	1.237495e+00	4.481327e+01	-4.849011e+01	2.587042e+05	1.027771e+05	2.893232e+02	1.564716e-01	2.047306e+00	0.000000e+00	
1.060587e+00	-8.131532e-01	1.237490e+00	4.481851e+01	-4.848675e+01	2.587028e+05	1.027765e+05	2.893228e+02	1.564749e-01	2.046484e+00	0.000000e+00	
1.291525e+00	-9.506591e-01	1.237497e+00	4.481286e+01	-4.849079e+01	2.587045e+05	1.027772e+05	2.893231e+02	1.564719e-01	2.047496e+00	0.000000e+00	
1.342746e+00	-9.809885e-01	1.237499e+00	4.481284e+01	-4.849142e+01	2.587048e+05	1.027774e+05	2.893230e+02	1.564727e-01	2.047658e+00	0.000000e+00	
1.396074e+00	-1.192578e+00	1.237500e+00	4.479433e+01	-4.847782e+01	2.587042e+05	1.027776e+05	2.893235e+02	1.564190e-01	2.047991e+00	0.000000e+00	
1.395764e+00	-1.131440e+00	1.237499e+00	4.480112e+01	-4.848331e+01	2.587047e+05	1.027776e+05	2.893236e+02	1.564396e-01	2.047994e+00	0.000000e+00	
1.394808e+00	-1.071143e+00	1.237499e+00	4.480722e+01	-4.848783e+01	2.587049e+05	1.027775e+05	2.893233e+02	1.564573e-01	2.047868e+00	0.000000e+00	
1.393992e+00	-1.010751e+00	1.237501e+00	4.481323e+01	-4.849211e+01	2.587052e+05	1.027775e+05	2.893228e+02	1.564743e-01	2.047814e+00	0.000000e+00	
1.000000e+00	-7.738095e-01	1.237487e+00	4.482277e+01	-4.848425e+01	2.587022e+05	1.027763e+05	2.893227e+02	1.564777e-01	2.046136e+00	0.000000e+00	
1.136070e+00	-7.973420e-01	1.237492e+00	4.482254e+01	-4.849051e+01	2.587038e+05	1.027768e+05	2.893230e+02	1.564875e-01	2.046908e+00	0.000000e+00	
1.187499e+00	-8.298549e-01	1.237494e+00	4.482088e+01	-4.849189e+01	2.587041e+05	1.027769e+05	2.893229e+02	1.564871e-01	2.047079e+00	0.000000e+00	
1.238805e+00	-8.599060e-01	1.237497e+00	4.481984e+01	-4.849311e+01	2.587045e+05	1.027771e+05	2.893228e+02	1.564872e-01	2.047282e+00	0.000000e+00	
1.290245e+00	-8.900452e-01	1.237499e+00	4.481923e+01	-4.849412e+01	2.587048e+05	1.027772e+05	2.893225e+02	1.564878e-01	2.047448e+00	0.000000e+00	
1.341669e+00	-9.201922e-01	1.237502e+00	4.481894e+01	-4.849501e+01	2.587051e+05	1.027773e+05	2.893222e+02	1.564886e-01	2.047612e+00	0.000000e+00	
1.393077e+00	-9.501287e-01	1.237504e+00	4.481894e+01	-4.849576e+01	2.587054e+05	1.027774e+05	2.893219e+02	1.564897e-01	2.047749e+00	0.000000e+00	
1.043305e+00	-7.483473e-01	1.237489e+00	4.482612e+01	-4.848690e+01	2.587030e+05	1.027765e+05	2.893230e+02	1.564875e-01	2.046465e+00	0.000000e+00	
1.446081e+00	-1.157621e+00	1.237500e+00	4.480247e+01	-4.848389e+01	2.587049e+05	1.027777e+05	2.893236e+02	1.564426e-01	2.048091e+00	0.000000e+00	
1.450844e+00	-1.210365e+00	1.237501e+00	4.479751e+01	-4.847963e+01	2.587049e+05	1.027778e+05	2.893238e+02	1.564270e-01	2.048293e+00	0.000000e+00	
1.445809e+00	-1.099210e+00	1.237501e+00	4.480829e+01	-4.848861e+01	2.587052e+05	1.027776e+05	2.893232e+02	1.564601e-01	2.048028e+00	0.000000e+00	
1.091832e+00	-7.665481e-01	1.237490e+00	4.482498e+01	-4.848927e+01	2.587035e+05	1.027767e+05	2.893231e+02	1.564896e-01	2.046698e+00	0.000000e+00	
1.445317e+00	-1.039826e+00	1.237504e+00	4.481386e+01	-4.849278e+01	2.587054e+05	1.027775e+05	2.893225e+02	1.564763e-01	2.047932e+00	0.000000e+00	
1.444508e+00	-9.797257e-01	1.237507e+00	4.481920e+01	-4.849646e+01	2.587057e+05	1.027775e+05	2.893215e+02	1.564911e-01	2.047880e+00	0.000000e+00	
1.000000e+00	-7.142857e-01	1.237487e+00	4.482925e+01	-4.848429e+01	2.587027e+05	1.027764e+05	2.893230e+02	1.564882e-01	2.046263e+00	0.000000e+00	
1.188570e+00	-7.715395e-01	1.237497e+00	4.482688e+01	-4.849397e+01	2.587045e+05	1.027770e+05	2.893223e+02	1.565001e-01	2.047111e+00	0.000000e+00	
1.141157e+00	-7.415263e-01	1.237495e+00	4.482840e+01	-4.849221e+01	2.587042e+05	1.027769e+05	2.893226e+02	1.564997e-01	2.046977e+00	0.000000e+00	
1.238579e+00	-8.011049e-01	1.237500e+00	4.482570e+01	-4.849550e+01	2.587048e+05	1.027771e+05	2.893220e+02	1.565006e-01	2.047292e+00	0.000000e+00	
1.289445e+00	-8.304909e-01	1.237503e+00	4.482494e+01	-4.849679e+01	2.587051e+05	1.027772e+05	2.893217e+02	1.565014e-01	2.047439e+00	0.000000e+00	
1.340723e+00	-8.600896e-01	1.237506e+00	4.482441e+01	-4.849784e+01	2.587054e+05	1.027773e+05	2.893213e+02	1.565021e-01	2.047586e+00	0.000000e+00	
1.392142e+00	-8.897883e-01	1.237509e+00	4.482411e+01	-4.849869e+01	2.587056e+05	1.027774e+05	2.893209e+02	1.565028e-01	2.047719e+00	0.000000e+00	
1.443585e+00	-9.194397e-01	1.237511e+00	4.482397e+01	-4.849936e+01	2.587059e+05	1.027775e+05	2.893204e+02	1.565036e-01	2.047840e+00	0.000000e+00	
1.090456e+00	-7.145167e-01	1.237492e+00	4.483002e+01	-4.849001e+01	2.587039e+05	1.027767e+05	2.893228e+02	1.564988e-01	2.046791e+00	0.000000e+00	
1.039997e+00	-6.903901e-01	1.237490e+00	4.483204e+01	-4.848725e+01	2.587035e+05	1.027766e+05	2.893229e+02	1.564974e-01	2.046613e+00	0.000000e+00	
1.498196e+00	-1.126038e+00	1.237503e+00	4.480966e+01	-4.848949e+01	2.587055e+05	1.027777e+05	2.893229e+02	1.564637e-01	2.048113e+00	0.000000e+00	
1.510399e+00	-1.196264e+00	1.237502e+00	4.480437e+01	-4.848457e+01	2.587053e+05	1.027778e+05	2.893234e+02	1.564467e-01	2.048225e+00	0.000000e+00	
1.497132e+00	-1.068254e+00	1.237506e+00	4.481483e+01	-4.849354e+01	2.587057e+05	1.027776e+05	2.893221e+02	1.564789e-01	2.048060e+00	0.000000e+00	
1.496082e+00	-1.009007e+00	1.237510e+00	4.481964e+01	-4.849707e+01	2.587059e+05	1.027776e+05	2.893211e+02	1.564926e-01	2.047992e+00	0.000000e+00	
1.495030e+00	-9.489896e-01	1.237514e+00	4.482399e+01	-4.849988e+01	2.587061e+05	1.027776e+05	2.893201e+02	1.565043e-01	2.047946e+00	0.000000e+00	
1.000000e+00	-6.547619e-01	1.237489e+00	4.483515e+01	-4.848424e+01	2.587034e+05	1.027766e+05	2.893231e+02	1.564973e-01	2.046546e+00	0.000000e+00	
1.238355e+00	-7.426163e-01	1.237504e+00	4.483083e+01	-4.849729e+01	2.587051e+05	1.027771e+05	2.893211e+02	1.565117e-01	2.047331e+00	0.000000e+00	
1.188580e+00	-7.135674e-01	1.237501e+00	4.483207e+01	-4.849548e+01	2.587049e+05	1.027770e+05	2.893215e+02	1.565108e-01	2.047194e+00	0.000000e+00	
1.138284e+00	-6.855143e-01	1.237499e+00	4.483348e+01	-4.849322e+01	2.587046e+05	1.027769e+05	2.893219e+02	1.565094e-01	2.047053e+00	0.000000e+00	
1.288905e+00	-7.716261e-01	1.237507e+00	4.482987e+01	-4.849874e+01	2.587054e+05	1.027772e+05	2.893206e+02	1.565124e-01	2.047458e+00	0.000000e+00	
1.339977e+00	-8.007426e-01	1.237510e+00	4.482910e+01	-4.849989e+01	2.587056e+05	1.027773e+05	2.893202e+02	1.565129e-01	2.047589e+00	0.000000e+00	
1.391303e+00	-8.300433e-01	1.237513e+00	4.482850e+01	-4.850076e+01	2.587058e+05	1.027774e+05	2.893198e+02	1.565132e-01	2.047707e+00	0.000000e+00	
1.442698e+00	-8.594594e-01	1.237515e+00	4.482803e+01	-4.850140e+01	2.587060e+05	1.027775e+05	2.893194e+02	1.565134e-01	2.047818e+00	0.000000e+00	
1.494070e+00	-8.889202e-01	1.237518e+00	4.482767e+01	-4.850185e+01	2.587062e+05	1.027775e+05	2.893191e+02	1.565134e-01	2.047921e+00	0.000000e+00	
1.087729e+00	-6.605235e-01	1.237496e+00	4.483500e+01	-4.849034e+01	2.587043e+05	1.027768e+05	2.893223e+02	1.565071e-01	2.046923e+00	0.000000e+00	
1.036519e+00	-6.389016e-01	1.237493e+00	4.483660e+01	-4.848727e+01	2.587039e+05	1.027767e+05	2.893227e+02	1.565046e-01	2.046743e+00	0.000000e+00	
1.547027e+00	-1.151126e+00	1.237505e+00	4.481128e+01	-4.849052e+01	2.587057e+05	1.027777e+05	2.893226e+02	1.564679e-01	2.048203e+00	0.000000e+00	
1.549649e+00	-1.096695e+00	1.237509e+00	4.481576e+01	-4.849428e+01	2.587059e+05	1.027777e+05	2.893217e+02	1.564815e-01	2.048161e+00	0.000000e+00	
1.572311e+00	-1.200555e+00	1.237505e+00	4.480907e+01	-4.848840e+01	2.587057e+05	1.027778e+05	2.893228e+02	1.564607e-01	2.048269e+00	0.000000e+00	
1.547814e+00	-1.038373e+00	1.237512e+00	4.482020e+01	-4.849758e+01	2.587061e+05	1.027776e+05	2.893207e+02	1.564942e-01	2.048076e+00	0.000000e+00	
1.546431e+00	-9.785191e-01	1.237516e+00	4.482411e+01	-4.850031e+01	2.587063e+05	1.027776e+05	2.893197e+02	1.565050e-01	2.048050e+00	0.000000e+00	
1.545361e+00	-9.183948e-01	1.237519e+00	4.482739e+01	-4.850211e+01	2.587064e+05	1.027776e+05	2.893189e+02	1.565132e-01	2.048009e+00	0.000000e+00	
1.000000e+00	-5.952381e-01	1.237493e+00	4.484008e+01	-4.848436e+01	2.587041e+05	1.027768e+05	2.893227e+02	1.565051e-01	2.046811e+00	0.000000e+00	
1.236479e+00	-6.844404e-01	1.237509e+00	4.483514e+01	-4.849832e+01	2.587054e+05	1.027772e+05	2.893200e+02	1.565200e-01	2.047397e+00	0.000000e+00	
1.287827e+00	-7.131044e-01	1.237512e+00	4.483397e+01	-4.849991e+01	2.587056e+05	1.027772e+05	2.893196e+02	1.565207e-01	2.047504e+00	0.000000e+00	
1.184572e+00	-6.562751e-01	1.237506e+00	4.483644e+01	-4.849623e+01	2.587052e+05	1.027771e+05	2.893205e+02	1.565188e-01	2.047279e+00	0.000000e+00	
1.131451e+00	-6.297704e-01	1.237503e+00	4.483776e+01	-4.849348e+01	2.587050e+05	1.027770e+05	2.893210e+02	1.565164e-01	2.047185e+00	0.000000e+00	
1.339147e+00	-7.419103e-01	1.237515e+00	4.483294e+01	-4.850111e+01	2.587059e+05	1.027773e+05	2.893192e+02	1.565209e-01	2.047615e+00	0.000000e+00	
1.390516e+00	-7.708705e-01	1.237517e+00	4.483205e+01	-4.850198e+01	2.587060e+05	1.027774e+05	2.893189e+02	1.565208e-01	2.047718e+00	0.000000e+00	
1.441888e+00	-7.999823e-01	1.237519e+00	4.483126e+01	-4.850257e+01	2.587062e+05	1.027775e+05	2.893187e+02	1.565204e-01	2.047818e+00	0.000000e+00	
1.493214e+00	-8.292045e-01	1.237520e+00	4.483057e+01	-4.850294e+01	2.587063e+05	1.027775e+05	2.893185e+02	1.565198e-01	2.047909e+00	0.000000e+00	
1.544461e+00	-8.584941e-01	1.237521e+00	4.482997e+01	-4.850313e+01	2.587065e+05	1.027776e+05	2.893185e+02	1.565191e-01	2.047996e+00	0.000000e+00	
1.076336e+00	-6.075870e-01	1.237499e+00	4.483908e+01	-4.848988e+01	2.587046e+05	1.027769e+05	2.893217e+02	1.565126e-01	2.047007e+00	0.000000e+00	
1.600550e+00	-1.133089e+00	1.237510e+00	4.481599e+01	-4.849422e+01	2.587060e+05	1.027777e+05	2.893215e+02	1.564816e-01	2.048210e+00	0.000000e+00	
1.598755e+00	-1.069283e+00	1.237515e+00	4.482077e+01	-4.849806e+01	2.587063e+05	1.027777e+05	2.893203e+02	1.564957e-01	2.048204e+00	0.000000e+00	
1.634718e+00	-1.200848e+00	1.237510e+00	4.481378e+01	-4.849172e+01	2.587061e+05	1.027779e+05	2.893219e+02	1.564737e-01	2.048372e+00	0.000000e+00	
1.597484e+00	-1.008162e+00	1.237518e+00	4.482429e+01	-4.850054e+01	2.587064e+05	1.027777e+05	2.893194e+02	1.565055e-01	2.048120e+00	0.000000e+00	
1.596469e+00	-9.478281e-01	1.237521e+00	4.482719e+01	-4.850227e+01	2.587065e+05	1.027777e+05	2.893187e+02	1.565130e-01	2.048097e+00	0.000000e+00	
1.595591e+00	-8.877928e-01	1.237522e+00	4.482944e+01	-4.850317e+01	2.587066e+05	1.027776e+05	2.893185e+02	1.565182e-01	2.048072e+00	0.000000e+00	
1.069329e+00	-5.546983e-01	1.237504e+00	4.484244e+01	-4.848926e+01	2.587050e+05	1.027770e+05	2.893210e+02	1.565165e-01	2.047210e+00	0.000000e+00	
1.232605e+00	-6.269239e-01	1.237514e+00	4.483846e+01	-4.849854e+01	2.587057e+05	1.027772e+05	2.893191e+02	1.565254e-01	2.047486e+00	0.000000e+00	
1.285629e+00	-6.549535e-01	1.237516e+00	4.483714e+01	-4.850025e+01	2.587059e+05	1.027773e+05	2.893187e+02	1.565261e-01	2.047573e+00	0.000000e+00	
1.337846e+00	-6.834172e-01	1.237518e+00	4.483588e+01	-4.850149e+01	2.587061e+05	1.027774e+05	2.893185e+02	1.565261e-01	2.047663e+00	0.000000e+00	
1.178506e+00	-5.999571e-01	1.237511e+00	4.483984e+01	-4.849622e+01	2.587055e+05	1.027772e+05	2.893196e+02	1.565239e-01	2.047391e+00	0.000000e+00	
1.123578e+00	-5.753637e-01	1.237508e+00	4.484112e+01	-4.849320e+01	2.587053e+05	1.027771e+05	2.893202e+02	1.565209e-01	2.047318e+00	0.000000e+00	
1.389598e+00	-7.121037e-01	1.237520e+00	4.483473e+01	-4.850236e+01	2.587062e+05	1.027774e+05	2.893183e+02	1.565256e-01	2.047749e+00	0.000000e+00	
1.441092e+00	-7.409554e-01	1.237521e+00	4.483367e+01	-4.850293e+01	2.587063e+05	1.027775e+05	2.893183e+02	1.565248e-01	2.047835e+00	0.000000e+00	
1.492432e+00	-7.699347e-01	1.237521e+00	4.483272e+01	-4.850327e+01	2.587065e+05	1.027775e+05	2.893184e+02	1.565238e-01	2.047916e+00	0.000000e+00	
1.543664e+00	-7.990048e-01	1.237521e+00	4.483186e+01	-4.850341e+01	2.587066e+05	1.027776e+05	2.893186e+02	1.565226e-01	2.047992e+00	0.000000e+00	
1.594803e+00	-8.281254e-01	1.237520e+00	4.483111e+01	-4.850343e+01	2.587067e+05	1.027776e+05	2.893189e+02	1.565214e-01	2.048064e+00	0.000000e+00	
1.000000e+00	-5.357143e-01	1.237499e+00	4.484373e+01	-4.848435e+01	2.587048e+05	1.027770e+05	2.893219e+02	1.565104e-01	2.047141e+00	0.000000e+00	
1.648946e+00	-1.094829e+00	1.237517e+00	4.482143e+01	-4.849861e+01	2.587065e+05	1.027778e+05	2.893199e+02	1.564976e-01	2.048248e+00	0.000000e+00	
1.654747e+00	-1.149486e+00	1.237514e+00	4.481838e+01	-4.849605e+01	2.587063e+05	1.027778e+05	2.893207e+02	1.564884e-01	2.048250e+00	0.000000e+00	
1.648102e+00	-1.036534e+00	1.237520e+00	4.482461e+01	-4.850077e+01	2.587066e+05	1.027777e+05	2.893191e+02	1.565063e-01	2.048196e+00	0.000000e+00	
1.696459e+00	-1.196388e+00	1.237515e+00	4.481800e+01	-4.849535e+01	2.587064e+05	1.027778e+05	2.893207e+02	1.564865e-01	2.048342e+00	0.000000e+00	
1.647343e+00	-9.768803e-01	1.237522e+00	4.482705e+01	-4.850230e+01	2.587067e+05	1.027777e+05	2.893187e+02	1.565128e-01	2.048169e+00	0.000000e+00	
1.646583e+00	-9.169782e-01	1.237521e+00	4.482900e+01	-4.850311e+01	2.587067e+05	1.027777e+05	2.893187e+02	1.565174e-01	2.048142e+00	0.000000e+00	
1.645850e+00	-8.572406e-01	1.237519e+00	4.483045e+01	-4.850334e+01	2.587068e+05	1.027777e+05	2.893193e+02	1.565203e-01	2.048129e+00	0.000000e+00	
1.118466e+00	-5.207647e-01	1.237513e+00	4.484356e+01	-4.849256e+01	2.587057e+05	1.027772e+05	2.893194e+02	1.565233e-01	2.047493e+00	0.000000e+00	
1.067657e+00	-4.976080e-01	1.237510e+00	4.484487e+01	-4.848871e+01	2.587055e+05	1.027772e+05	2.893200e+02	1.565190e-01	2.047440e+00	0.000000e+00	
1.282527e+00	-5.972533e-01	1.237519e+00	4.483933e+01	-4.849984e+01	2.587061e+05	1.027774e+05	2.893182e+02	1.565287e-01	2.047659e+00	0.000000e+00	
1.227972e+00	-5.700864e-01	1.237518e+00	4.484078e+01	-4.849806e+01	2.587060e+05	1.027773e+05	2.893184e+02	1.565280e-01	2.047598e+00	0.000000e+00	
1.335955e+00	-6.252197e-01	1.237520e+00	4.483791e+01	-4.850112e+01	2.587062e+05	1.027774e+05	2.893181e+02	1.565285e-01	2.047730e+00	0.000000e+00	
1.388405e+00	-6.536085e-01	1.237521e+00	4.483657e+01	-4.850201e+01	2.587063e+05	1.027775e+05	2.893182e+02	1.565279e-01	2.047799e+00	0.000000e+00	
1.172776e+00	-5.443829e-01	1.237516e+00	4.484223e+01	-4.849565e+01	2.587058e+05	1.027773e+05	2.893188e+02	1.565264e-01	2.047527e+00	0.000000e+00	
1.440217e+00	-6.822398e-01	1.237520e+00	4.483534e+01	-4.850260e+01	2.587064e+05	1.027775e+05	2.893184e+02	1.565269e-01	2.047869e+00	0.000000e+00	
1.491668e+00	-7.110241e-01	1.237519e+00	4.483420e+01	-4.850296e+01	2.587065e+05	1.027776e+05	2.893188e+02	1.565257e-01	2.047937e+00	0.000000e+00	
1.542926e+00	-7.399089e-01	1.237518e+00	4.483319e+01	-4.850315e+01	2.587066e+05	1.027776e+05	2.893192e+02	1.565245e-01	2.048004e+00	0.000000e+00	
1.594075e+00	-7.688581e-01	1.237516e+00	4.483230e+01	-4.850321e+01	2.587067e+05	1.027776e+05	2.893198e+02	1.565232e-01	2.048066e+00	0.000000e+00	
1.645149e+00	-7.978403e-01	1.237514e+00	4.483153e+01	-4.850320e+01	2.587068e+05	1.027777e+05	2.893205e+02	1.565221e-01	2.048125e+00	0.000000e+00	
1.000000e+00	-4.761905e-01	1.237507e+00	4.484614e+01	-4.848397e+01	2.587054e+05	1.027772e+05	2.893208e+02	1.565129e-01	2.047450e+00	0.000000e+00	
1.699338e+00	-1.064432e+00	1.237521e+00	4.482488e+01	-4.850091e+01	2.587067e+05	1.027778e+05	2.893189e+02	1.565068e-01	2.048257e+00	0.000000e+00	
1.701258e+00	-1.122386e+00	1.237519e+00	4.482200e+01	-4.849896e+01	2.587067e+05	1.027778e+05	2.893196e+02	1.564989e-01	2.048348e+00	0.000000e+00	
1.698266e+00	-1.005530e+00	1.237522e+00	4.482700e+01	-4.850227e+01	2.587068e+05	1.027778e+05	2.893187e+02	1.565126e-01	2.048238e+00	0.000000e+00	
1.751835e+00	-1.208439e+00	1.237518e+00	4.482009e+01	-4.849687e+01	2.587066e+05	1.027779e+05	2.893200e+02	1.564922e-01	2.048401e+00	0.000000e+00	
1.697504e+00	-9.459863e-01	1.237521e+00	4.482863e+01	-4.850296e+01	2.587068e+05	1.027777e+05	2.893190e+02	1.565165e-01	2.048202e+00	0.000000e+00	
1.696824e+00	-8.863085e-01	1.237517e+00	4.482990e+01	-4.850321e+01	2.587068e+05	1.027777e+05	2.893198e+02	1.565192e-01	2.048189e+00	0.000000e+00	
1.696166e+00	-8.268316e-01	1.237511e+00	4.483090e+01	-4.850315e+01	2.587069e+05	1.027777e+05	2.893213e+02	1.565211e-01	2.048180e+00	0.000000e+00	
1.116174e+00	-4.640064e-01	1.237518e+00	4.484500e+01	-4.849165e+01	2.587061e+05	1.027774e+05	2.893186e+02	1.565236e-01	2.047710e+00	0.000000e+00	
1.168895e+00	-4.883350e-01	1.237519e+00	4.484369e+01	-4.849465e+01	2.587061e+05	1.027774e+05	2.893183e+02	1.565266e-01	2.047694e+00	0.000000e+00	
1.066592e+00	-4.393951e-01	1.237516e+00	4.484621e+01	-4.848796e+01	2.587060e+05	1.027774e+05	2.893191e+02	1.565193e-01	2.047715e+00	0.000000e+00	
1.751889e+00	-1.152379e+00	1.237520e+00	4.482251e+01	-4.849906e+01	2.587067e+05	1.027778e+05	2.893194e+02	1.564998e-01	2.048343e+00	0.000000e+00	
1.333726e+00	-5.672619e-01	1.237520e+00	4.483912e+01	-4.850016e+01	2.587064e+05	1.027775e+05	2.893183e+02	1.565287e-01	2.047815e+00	0.000000e+00	
1.279278e+00	-5.398617e-01	1.237521e+00	4.484064e+01	-4.849883e+01	2.587063e+05	1.027774e+05	2.893181e+02	1.565289e-01	2.047765e+00	0.000000e+00	
1.223918e+00	-5.134628e-01	1.237521e+00	4.484217e+01	-4.849703e+01	2.587062e+05	1.027774e+05	2.893181e+02	1.565283e-01	2.047729e+00	0.000000e+00	
1.386957e+00	-5.953011e-01	1.237519e+00	4.483769e+01	-4.850111e+01	2.587065e+05	1.027775e+05	2.893187e+02	1.565281e-01	2.047865e+00	0.000000e+00	
1.439218e+00	-6.237155e-01	1.237518e+00	4.483637e+01	-4.850178e+01	2.587065e+05	1.027775e+05	2.893191e+02	1.565273e-01	2.047919e+00	0.000000e+00	
1.490873e+00	-6.523436e-01	1.237515e+00	4.483517e+01	-4.850224e+01	2.587066e+05	1.027776e+05	2.893198e+02	1.565262e-01	2.047973e+00	0.000000e+00	
1.542206e+00	-6.810933e-01	1.237513e+00	4.483411e+01	-4.850254e+01	2.587067e+05	1.027776e+05	2.893205e+02	1.565252e-01	2.048028e+00	0.000000e+00	
1.593379e+00	-7.099137e-01	1.237510e+00	4.483319e+01	-4.850275e+01	2.587068e+05	1.027777e+05	2.893213e+02	1.565242e-01	2.048081e+00	0.000000e+00	
1.644471e+00	-7.387760e-01	1.237506e+00	4.483241e+01	-4.850289e+01	2.587068e+05	1.027777e+05	2.893222e+02	1.565234e-01	2.048133e+00	0.000000e+00	
1.695515e+00	-7.676637e-01	1.237503e+00	4.483180e+01	-4.850302e+01	2.587069e+05	1.027777e+05	2.893232e+02	1.565229e-01	2.048182e+00	0.000000e+00	
1.000000e+00	-4.166667e-01	1.237514e+00	4.484735e+01	-4.848339e+01	2.587060e+05	1.027775e+05	2.893197e+02	1.565132e-01	2.047798e+00	0.000000e+00	
1.750541e+00	-1.093258e+00	1.237522e+00	4.482512e+01	-4.850100e+01	2.587068e+05	1.027778e+05	2.893189e+02	1.565073e-01	2.048315e+00	0.000000e+00	
1.749304e+00	-1.034386e+00	1.237522e+00	4.482697e+01	-4.850218e+01	2.587069e+05	1.027778e+05	2.893188e+02	1.565123e-01	2.048288e+00	0.000000e+00	
1.748434e+00	-9.750108e-01	1.237519e+00	4.482835e+01	-4.850278e+01	2.587069e+05	1.027778e+05	2.893194e+02	1.565158e-01	2.048259e+00	0.000000e+00	
1.800221e+00	-1.182159e+00	1.237522e+00	4.482309e+01	-4.849914e+01	2.587068e+05	1.027779e+05	2.893192e+02	1.565008e-01	2.048420e+00	0.000000e+00	
1.747758e+00	-9.153829e-01	1.237515e+00	4.482944e+01	-4.850304e+01	2.587069e+05	1.027778e+05	2.893205e+02	1.565183e-01	2.048242e+00	0.000000e+00	
1.747140e+00	-8.558444e-01	1.237507e+00	4.483040e+01	-4.850309e+01	2.587069e+05	1.027778e+05	2.893221e+02	1.565204e-01	2.048230e+00	0.000000e+00	
1.746524e+00	-7.965773e-01	1.237498e+00	4.483133e+01	-4.850314e+01	2.587070e+05	1.027778e+05	2.893242e+02	1.565226e-01	2.048228e+00	0.000000e+00	
1.114880e+00	-4.060739e-01	1.237522e+00	4.484538e+01	-4.849039e+01	2.587064e+05	1.027775e+05	2.893182e+02	1.565217e-01	2.047934e+00	0.000000e+00	
1.166696e+00	-4.311516e-01	1.237522e+00	4.484419e+01	-4.849327e+01	2.587064e+05	1.027775e+05	2.893181e+02	1.565248e-01	2.047878e+00	0.000000e+00	
1.221074e+00	-4.564179e-01	1.237521e+00	4.484271e+01	-4.849560e+01	2.587065e+05	1.027775e+05	2.893182e+02	1.565265e-01	2.047881e+00	0.000000e+00	
1.065819e+00	-3.806343e-01	1.237521e+00	4.484637e+01	-4.848688e+01	2.587064e+05	1.027776e+05	2.893185e+02	1.565172e-01	2.047983e+00	0.000000e+00	
1.800616e+00	-1.123297e+00	1.237523e+00	4.482526e+01	-4.850096e+01	2.587069e+05	1.027779e+05	2.893189e+02	1.565074e-01	2.048371e+00	0.000000e+00	
1.849631e+00	-1.210478e+00	1.237522e+00	4.482375e+01	-4.849938e+01	2.587069e+05	1.027779e+05	2.893191e+02	1.565022e-01	2.048421e+00	0.000000e+00	
1.385424e+00	-5.370981e-01	1.237516e+00	4.483824e+01	-4.849987e+01	2.587066e+05	1.027776e+05	2.893197e+02	1.565271e-01	2.047945e+00	0.000000e+00	
1.331571e+00	-5.093972e-01	1.237518e+00	4.483966e+01	-4.849881e+01	2.587065e+05	1.027775e+05	2.893190e+02	1.565274e-01	2.047915e+00	0.000000e+00	
1.276546e+00	-4.824460e-01	1.237520e+00	4.484118e+01	-4.849742e+01	2.587065e+05	1.027775e+05	2.893185e+02	1.565273e-01	2.047888e+00	0.000000e+00	
1.438132e+00	-5.652974e-01	1.237513e+00	4.483695e+01	-4.850069e+01	2.587066e+05	1.027776e+05	2.893204e+02	1.565266e-01	2.047982e+00	0.000000e+00	
1.490036e+00	-5.937899e-01	1.237509e+00	4.483580e+01	-4.850132e+01	2.587067e+05	1.027776e+05	2.893213e+02	1.565260e-01	2.048022e+00	0.000000e+00	
1.541481e+00	-6.224415e-01	1.237505e+00	4.483479e+01	-4.850182e+01	2.587068e+05	1.027776e+05	2.893223e+02	1.565255e-01	2.048064e+00	0.000000e+00	
1.592697e+00	-6.511767e-01	1.237502e+00	4.483394e+01	-4.850224e+01	2.587068e+05	1.027777e+05	2.893233e+02	1.565251e-01	2.048107e+00	0.000000e+00	
1.643806e+00	-6.799565e-01	1.237497e+00	4.483326e+01	-4.850262e+01	2.587069e+05	1.027777e+05	2.893244e+02	1.565249e-01	2.048150e+00	0.000000e+00	
1.694866e+00	-7.087628e-01	1.237493e+00	4.483274e+01	-4.850298e+01	2.587070e+05	1.027777e+05	2.893255e+02	1.565249e-01	2.048192e+00	0.000000e+00	
1.745898e+00	-7.375912e-01	1.237488e+00	4.483238e+01	-4.850334e+01	2.587070e+05	1.027778e+05	2.893266e+02	1.565252e-01	2.048232e+00	0.000000e+00	
1.000000e+00	-3.571429e-01	1.237521e+00	4.484721e+01	-4.848263e+01	2.587065e+05	1.027777e+05	2.893188e+02	1.565111e-01	2.048116e+00	0.000000e+00	
1.799997e+00	-1.063912e+00	1.237521e+00	4.482692e+01	-4.850203e+01	2.587069e+05	1.027778e+05	2.893191e+02	1.565120e-01	2.048341e+00	0.000000e+00	
1.799274e+00	-1.004360e+00	1.237518e+00	4.482811e+01	-4.850259e+01	2.587070e+05	1.027778e+05	2.893199e+02	1.565152e-01	2.048309e+00	0.000000e+00	
1.798648e+00	-9.446210e-01	1.237512e+00	4.482910e+01	-4.850287e+01	2.587070e+05	1.027778e+05	2.893212e+02	1.565176e-01	2.048291e+00	0.000000e+00	
1.850071e+00	-1.152401e+00	1.237523e+00	4.482552e+01	-4.850092e+01	2.587070e+05	1.027779e+05	2.893190e+02	1.565077e-01	2.048406e+00	0.000000e+00	
1.798078e+00	-8.849494e-01	1.237504e+00	4.483003e+01	-4.850305e+01	2.587070e+05	1.027778e+05	2.893231e+02	1.565200e-01	2.048276e+00	0.000000e+00	
1.797506e+00	-8.255463e-01	1.237494e+00	4.483102e+01	-4.850330e+01	2.587071e+05	1.027778e+05	2.893253e+02	1.565226e-01	2.048270e+00	0.000000e+00	
1.796910e+00	-7.664523e-01	1.237484e+00	4.483217e+01	-4.850373e+01	2.587071e+05	1.027778e+05	2.893277e+02	1.565258e-01	2.048270e+00	0.000000e+00	
1.165428e+00	-3.731207e-01	1.237522e+00	4.484378e+01	-4.849163e+01	2.587067e+05	1.027776e+05	2.893183e+02	1.565211e-01	2.048076e+00	0.000000e+00	
1.114066e+00	-3.475137e-01	1.237524e+00	4.484476e+01	-4.848890e+01	2.587068e+05	1.027777e+05	2.893182e+02	1.565178e-01	2.048167e+00	0.000000e+00	