TITLE = "SU2 Simulation"
VARIABLES = "Iteration","CL","CD","CSF","CMx","CMy","CMz","CFx","CFy","CFz","CL/CD","AoA","Custom_ObjFunc","Res_Flow[0]","Res_Flow[1]","Res_Flow[2]","Res_Flow[3]","Res_Flow[4]","Linear_Solver_Iterations","CFL_Number","Time(min)"
ZONE T= "Convergence history"
           0, 0.00000000e+00, 0.00000000e+00, 0.00000000e+00, 0.00000000e+00, 0.00000000e+00, 0.00000000e+00, 0.00000000e+00, 0.00000000e+00, 0.00000000e+00, 0.00000000e+00, 0.00000000e+00, 0.00000000e+00, -3.43373958e+00, -8.23975863e-01, -1.23277511e+01, 2.08572544e+00, 0.00000000e+00, 5.0000000000, 5.0000000000, 0.0017244543
           1, 0.00000000e+00, 0.00000000e+00, 0.00000000e+00, 0.00000000e+00, 0.00000000e+00, 0.00000000e+00, 0.00000000e+00, 0.00000000e+00, 0.00000000e+00, 0.00000000e+00, 0.00000000e+00, 0.00000000e+00, -1.72025350e+00, 7.64129860e-01, -1.79931514e+00, 3.72366607e+00, 0.00000000e+00, 5.0000000000, 5.0000000000, 0.0034963512
           2, 0.00000000e+00, 0.00000000e+00, 0.00000000e+00, 0.00000000e+00, 0.00000000e+00, 0.00000000e+00, 0.00000000e+00, 0.00000000e+00, 0.00000000e+00, 0.00000000e+00, 0.00000000e+00, 0.00000000e+00, -1.54828592e+00, 9.32498857e-01, -1.06256890e+00, 3.89408737e+00, 0.00000000e+00, 5.0000000000, 5.0000000000, 0.0052068126
           3, 0.00000000e+00, 0.00000000e+00, 0.00000000e+00, 0.00000000e+00, 0.00000000e+00, 0.00000000e+00, 0.00000000e+00, 0.00000000e+00, 0.00000000e+00, 0.00000000e+00, 0.00000000e+00, 0.00000000e+00, -1.49478967e+00, 9.84362400e-01, -8.04497031e-01, 3.94650159e+00, 0.00000000e+00, 5.0000000000, 5.0000000000, 0.0069034122
           4, 0.00000000e+00, 0.00000000e+00, 0.00000000e+00, 0.00000000e+00, 0.00000000e+00, 0.00000000e+00, 0.00000000e+00, 0.00000000e+00, 0.00000000e+00, 0.00000000e+00, 0.00000000e+00, 0.00000000e+00, -1.48136118e+00, 9.97195459e-01, -7.11673479e-01, 3.95906016e+00, 0.00000000e+00, 5.0000000000, 5.0000000000, 0.0086196467
           5, 0.00000000e+00, 0.00000000e+00, 0.00000000e+00, 0.00000000e+00, 0.00000000e+00, 0.00000000e+00, 0.00000000e+00, 0.00000000e+00, 0.00000000e+00, 0.00000000e+00, 0.00000000e+00, 0.00000000e+00, -1.48243122e+00, 9.95523396e-01, -6.97944995e-01, 3.95726587e+00, 0.00000000e+00, 5.0000000000, 5.0000000000, 0.0103580202
           6, 0.00000000e+00, 0.00000000e+00, 0.00000000e+00, 0.00000000e+00, 0.00000000e+00, 0.00000000e+00, 0.00000000e+00, 0.00000000e+00, 0.00000000e+00, 0.00000000e+00, 0.00000000e+00, 0.00000000e+00, -1.48797859e+00, 9.89058823e-01, -7.18471584e-01, 3.95115740e+00, 0.00000000e+00, 5.0000000000, 5.0000000000, 0.0120996097
           7, 0.00000000e+00, 0.00000000e+00, 0.00000000e+00, 0.00000000e+00, 0.00000000e+00, 0.00000000e+00, 0.00000000e+00, 0.00000000e+00, 0.00000000e+00, 0.00000000e+00, 0.00000000e+00, 0.00000000e+00, -1.49444882e+00, 9.81604595e-01, -7.38103831e-01, 3.94430384e+00, 0.00000000e+00, 5.0000000000, 5.0000000000, 0.0138603959
           8, 0.00000000e+00, 0.00000000e+00, 0.00000000e+00, 0.00000000e+00, 0.00000000e+00, 0.00000000e+00, 0.00000000e+00, 0.00000000e+00, 0.00000000e+00, 0.00000000e+00, 0.00000000e+00, 0.00000000e+00, -1.50087794e+00, 9.74391726e-01, -7.42806015e-01, 3.93764785e+00, 0.00000000e+00, 5.0000000000, 5.0000000000, 0.0158694636
           9, 0.00000000e+00, 0.00000000e+00, 0.00000000e+00, 0.00000000e+00, 0.00000000e+00, 0.00000000e+00, 0.00000000e+00, 0.00000000e+00, 0.00000000e+00, 0.00000000e+00, 0.00000000e+00, 0.00000000e+00, -1.50717344e+00, 9.67579475e-01, -7.41453341e-01, 3.93124049e+00, 0.00000000e+00, 5.0000000000, 5.0000000000, 0.0176283264
          10, 0.00000000e+00, 0.00000000e+00, 0.00000000e+00, 0.00000000e+00, 0.00000000e+00, 0.00000000e+00, 0.00000000e+00, 0.00000000e+00, 0.00000000e+00, 0.00000000e+00, 0.00000000e+00, 0.00000000e+00, -1.51348235e+00, 9.60956565e-01, -7.43819044e-01, 3.92489951e+00, 0.00000000e+00, 5.0000000000, 5.0000000000, 0.0193527473
          11, 0.00000000e+00, 0.00000000e+00, 0.00000000e+00, 0.00000000e+00, 0.00000000e+00, 0.00000000e+00, 0.00000000e+00, 0.00000000e+00, 0.00000000e+00, 0.00000000e+00, 0.00000000e+00, 0.00000000e+00, -1.51997581e+00, 9.54261017e-01, -7.50677704e-01, 3.91843391e+00, 0.00000000e+00, 5.0000000000, 5.0000000000, 0.0210565635
          12, 0.00000000e+00, 0.00000000e+00, 0.00000000e+00, 0.00000000e+00, 0.00000000e+00, 0.00000000e+00, 0.00000000e+00, 0.00000000e+00, 0.00000000e+00, 0.00000000e+00, 0.00000000e+00, 0.00000000e+00, -1.52674268e+00, 9.47331401e-01, -7.58913534e-01, 3.91174438e+00, 0.00000000e+00, 5.0000000000, 5.0000000000, 0.0227590617
          13, 0.00000000e+00, 0.00000000e+00, 0.00000000e+00, 0.00000000e+00, 0.00000000e+00, 0.00000000e+00, 0.00000000e+00, 0.00000000e+00, 0.00000000e+00, 0.00000000e+00, 0.00000000e+00, 0.00000000e+00, -1.53371372e+00, 9.40190314e-01, -7.67323878e-01, 3.90488876e+00, 0.00000000e+00, 5.0000000000, 5.0000000000, 0.0244548977
          14, 0.00000000e+00, 0.00000000e+00, 0.00000000e+00, 0.00000000e+00, 0.00000000e+00, 0.00000000e+00, 0.00000000e+00, 0.00000000e+00, 0.00000000e+00, 0.00000000e+00, 0.00000000e+00, 0.00000000e+00, -1.54061889e+00, 9.33092444e-01, -7.77583707e-01, 3.89811747e+00, 0.00000000e+00, 5.0000000000, 5.0000000000, 0.0261152248
          15, 0.00000000e+00, 0.00000000e+00, 0.00000000e+00, 0.00000000e+00, 0.00000000e+00, 0.00000000e+00, 0.00000000e+00, 0.00000000e+00, 0.00000000e+00, 0.00000000e+00, 0.00000000e+00, 0.00000000e+00, -1.54697263e+00, 9.26543439e-01, -7.91694477e-01, 3.89188519e+00, 0.00000000e+00, 5.0000000000, 5.0000000000, 0.0277831683
          16, 0.00000000e+00, 0.00000000e+00, 0.00000000e+00, 0.00000000e+00, 0.00000000e+00, 0.00000000e+00, 0.00000000e+00, 0.00000000e+00, 0.00000000e+00, 0.00000000e+00, 0.00000000e+00, 0.00000000e+00, -1.55213095e+00, 9.21236430e-01, -8.09562098e-01, 3.88679801e+00, 0.00000000e+00, 5.0000000000, 5.0000000000, 0.0294853235
          17, 0.00000000e+00, 0.00000000e+00, 0.00000000e+00, 0.00000000e+00, 0.00000000e+00, 0.00000000e+00, 0.00000000e+00, 0.00000000e+00, 0.00000000e+00, 0.00000000e+00, 0.00000000e+00, 0.00000000e+00, -1.55542852e+00, 9.17893713e-01, -8.28402470e-01, 3.88348743e+00, 0.00000000e+00, 5.0000000000, 5.0000000000, 0.0311901331
          18, 0.00000000e+00, 0.00000000e+00, 0.00000000e+00, 0.00000000e+00, 0.00000000e+00, 0.00000000e+00, 0.00000000e+00, 0.00000000e+00, 0.00000000e+00, 0.00000000e+00, 0.00000000e+00, 0.00000000e+00, -1.55637909e+00, 9.17038953e-01, -8.43800698e-01, 3.88242404e+00, 0.00000000e+00, 5.0000000000, 5.0000000000, 0.0329280584
          19, 0.00000000e+00, 0.00000000e+00, 0.00000000e+00, 0.00000000e+00, 0.00000000e+00, 0.00000000e+00, 0.00000000e+00, 0.00000000e+00, 0.00000000e+00, 0.00000000e+00, 0.00000000e+00, 0.00000000e+00, -1.55487124e+00, 9.18784327e-01, -8.51920795e-01, 3.88373114e+00, 0.00000000e+00, 5.0000000000, 5.0000000000, 0.0347200006
          20, 0.00000000e+00, 0.00000000e+00, 0.00000000e+00, 0.00000000e+00, 0.00000000e+00, 0.00000000e+00, 0.00000000e+00, 0.00000000e+00, 0.00000000e+00, 0.00000000e+00, 0.00000000e+00, 0.00000000e+00, -1.55125814e+00, 9.22745766e-01, -8.51539666e-01, 3.88709213e+00, 0.00000000e+00, 5.0000000000, 5.0000000000, 0.0365563799
          21, 0.00000000e+00, 0.00000000e+00, 0.00000000e+00, 0.00000000e+00, 0.00000000e+00, 0.00000000e+00, 0.00000000e+00, 0.00000000e+00, 0.00000000e+00, 0.00000000e+00, 0.00000000e+00, 0.00000000e+00, -1.54628094e+00, 9.28143991e-01, -8.44230312e-01, 3.89181250e+00, 0.00000000e+00, 5.0000000000, 5.0000000000, 0.0384088361
          22, 0.00000000e+00, 0.00000000e+00, 0.00000000e+00, 0.00000000e+00, 0.00000000e+00, 0.00000000e+00, 0.00000000e+00, 0.00000000e+00, 0.00000000e+00, 0.00000000e+00, 0.00000000e+00, 0.00000000e+00, -1.54086324e+00, 9.34041526e-01, -8.32819750e-01, 3.89700816e+00, 0.00000000e+00, 5.0000000000, 5.0000000000, 0.0402266960
          23, 0.00000000e+00, 0.00000000e+00, 0.00000000e+00, 0.00000000e+00, 0.00000000e+00, 0.00000000e+00, 0.00000000e+00, 0.00000000e+00, 0.00000000e+00, 0.00000000e+00, 0.00000000e+00, 0.00000000e+00, -1.53588298e+00, 9.39601666e-01, -8.19906952e-01, 3.90182280e+00, 0.00000000e+00, 5.0000000000, 5.0000000000, 0.0420231302
          24, 0.00000000e+00, 0.00000000e+00, 0.00000000e+00, 0.00000000e+00, 0.00000000e+00, 0.00000000e+00, 0.00000000e+00, 0.00000000e+00, 0.00000000e+00, 0.00000000e+00, 0.00000000e+00, 0.00000000e+00, -1.53201678e+00, 9.44275910e-01, -8.07369293e-01, 3.90558226e+00, 0.00000000e+00, 5.0000000000, 5.0000000000, 0.0437969070
          25, 0.00000000e+00, 0.00000000e+00, 0.00000000e+00, 0.00000000e+00, 0.00000000e+00, 0.00000000e+00, 0.00000000e+00, 0.00000000e+00, 0.00000000e+00, 0.00000000e+00, 0.00000000e+00, 0.00000000e+00, -1.52969268e+00, 9.47887980e-01, -7.96516986e-01, 3.90784597e+00, 0.00000000e+00, 5.0000000000, 5.0000000000, 0.0455241671
          26, 0.00000000e+00, 0.00000000e+00, 0.00000000e+00, 0.00000000e+00, 0.00000000e+00, 0.00000000e+00, 0.00000000e+00, 0.00000000e+00, 0.00000000e+00, 0.00000000e+00, 0.00000000e+00, 0.00000000e+00, -1.52913323e+00, 9.50629863e-01, -7.88342921e-01, 3.90836934e+00, 0.00000000e+00, 5.0000000000, 5.0000000000, 0.0472558416
          27, 0.00000000e+00, 0.00000000e+00, 0.00000000e+00, 0.00000000e+00, 0.00000000e+00, 0.00000000e+00, 0.00000000e+00, 0.00000000e+00, 0.00000000e+00, 0.00000000e+00, 0.00000000e+00, 0.00000000e+00, -1.53044694e+00, 9.52997900e-01, -7.83625993e-01, 3.90701655e+00, 0.00000000e+00, 5.0000000000, 5.0000000000, 0.0489541404
          28, 0.00000000e+00, 0.00000000e+00, 0.00000000e+00, 0.00000000e+00, 0.00000000e+00, 0.00000000e+00, 0.00000000e+00, 0.00000000e+00, 0.00000000e+00, 0.00000000e+00, 0.00000000e+00, 0.00000000e+00, -1.53372450e+00, 9.55689159e-01, -7.82904419e-01, 3.90366731e+00, 0.00000000e+00, 5.0000000000, 5.0000000000, 0.0506728398
          29, 0.00000000e+00, 0.00000000e+00, 0.00000000e+00, 0.00000000e+00, 0.00000000e+00, 0.00000000e+00, 0.00000000e+00, 0.00000000e+00, 0.00000000e+00, 0.00000000e+00, 0.00000000e+00, 0.00000000e+00, -1.53910931e+00, 9.59464877e-01, -7.86388665e-01, 3.89814881e+00, 0.00000000e+00, 5.0000000000, 5.0000000000, 0.0523817822
          30, 0.00000000e+00, 0.00000000e+00, 0.00000000e+00, 0.00000000e+00, 0.00000000e+00, 0.00000000e+00, 0.00000000e+00, 0.00000000e+00, 0.00000000e+00, 0.00000000e+00, 0.00000000e+00, 0.00000000e+00, -1.54682590e+00, 9.64987524e-01, -7.93885312e-01, 3.89021048e+00, 0.00000000e+00, 5.0000000000, 5.0000000000, 0.0540943563
          31, 0.00000000e+00, 0.00000000e+00, 0.00000000e+00, 0.00000000e+00, 0.00000000e+00, 0.00000000e+00, 0.00000000e+00, 0.00000000e+00, 0.00000000e+00, 0.00000000e+00, 0.00000000e+00, 0.00000000e+00, -1.55716204e+00, 9.72654556e-01, -8.04756926e-01, 3.87954647e+00, 0.00000000e+00, 5.0000000000, 5.0000000000, 0.0558001080
          32, 0.00000000e+00, 0.00000000e+00, 0.00000000e+00, 0.00000000e+00, 0.00000000e+00, 0.00000000e+00, 0.00000000e+00, 0.00000000e+00, 0.00000000e+00, 0.00000000e+00, 0.00000000e+00, 0.00000000e+00, -1.57040713e+00, 9.82471832e-01, -8.17937910e-01, 3.86586453e+00, 0.00000000e+00, 5.0000000000, 5.0000000000, 0.0576812243
          33, 0.00000000e+00, 0.00000000e+00, 0.00000000e+00, 0.00000000e+00, 0.00000000e+00, 0.00000000e+00, 0.00000000e+00, 0.00000000e+00, 0.00000000e+00, 0.00000000e+00, 0.00000000e+00, 0.00000000e+00, -1.58674855e+00, 9.94012173e-01, -8.32029607e-01, 3.84900113e+00, 0.00000000e+00, 5.0000000000, 5.0000000000, 0.0603983004
          34, 0.00000000e+00, 0.00000000e+00, 0.00000000e+00, 0.00000000e+00, 0.00000000e+00, 0.00000000e+00, 0.00000000e+00, 0.00000000e+00, 0.00000000e+00, 0.00000000e+00, 0.00000000e+00, 0.00000000e+00, -1.60611999e+00, 1.00647553e+00, -8.45457576e-01, 3.82909251e+00, 0.00000000e+00, 5.0000000000, 5.0000000000, 0.0625183317
          35, 0.00000000e+00, 0.00000000e+00, 0.00000000e+00, 0.00000000e+00, 0.00000000e+00, 0.00000000e+00, 0.00000000e+00, 0.00000000e+00, 0.00000000e+00, 0.00000000e+00, 0.00000000e+00, 0.00000000e+00, -1.62798800e+00, 1.01882246e+00, -8.56743821e-01, 3.80681786e+00, 0.00000000e+00, 5.0000000000, 5.0000000000, 0.0642651103
          36, 0.00000000e+00, 0.00000000e+00, 0.00000000e+00, 0.00000000e+00, 0.00000000e+00, 0.00000000e+00, 0.00000000e+00, 0.00000000e+00, 0.00000000e+00, 0.00000000e+00, 0.00000000e+00, 0.00000000e+00, -1.65107411e+00, 1.02992557e+00, -8.64813835e-01, 3.78371315e+00, 0.00000000e+00, 5.0000000000, 5.0000000000, 0.0660268931
          37, 0.00000000e+00, 0.00000000e+00, 0.00000000e+00, 0.00000000e+00, 0.00000000e+00, 0.00000000e+00, 0.00000000e+00, 0.00000000e+00, 0.00000000e+00, 0.00000000e+00, 0.00000000e+00, 0.00000000e+00, -1.67307282e+00, 1.03869083e+00, -8.69248460e-01, 3.76246577e+00, 0.00000000e+00, 5.0000000000, 5.0000000000, 0.0677882958
          38, 0.00000000e+00, 0.00000000e+00, 0.00000000e+00, 0.00000000e+00, 0.00000000e+00, 0.00000000e+00, 0.00000000e+00, 0.00000000e+00, 0.00000000e+00, 0.00000000e+00, 0.00000000e+00, 0.00000000e+00, -1.69058584e+00, 1.04412641e+00, -8.70374177e-01, 3.74689512e+00, 0.00000000e+00, 5.0000000000, 5.0000000000, 0.0695190825
          39, 0.00000000e+00, 0.00000000e+00, 0.00000000e+00, 0.00000000e+00, 0.00000000e+00, 0.00000000e+00, 0.00000000e+00, 0.00000000e+00, 0.00000000e+00, 0.00000000e+00, 0.00000000e+00, 0.00000000e+00, -1.69968336e+00, 1.04536216e+00, -8.69138639e-01, 3.74113449e+00, 0.00000000e+00, 5.0000000000, 5.0000000000, 0.0712522668
          40, 0.00000000e+00, 0.00000000e+00, 0.00000000e+00, 0.00000000e+00, 0.00000000e+00, 0.00000000e+00, 0.00000000e+00, 0.00000000e+00, 0.00000000e+00, 0.00000000e+00, 0.00000000e+00, 0.00000000e+00, -1.69732904e+00, 1.04163379e+00, -8.66853697e-01, 3.74790005e+00, 0.00000000e+00, 5.0000000000, 5.0000000000, 0.0729824942
          41, 0.00000000e+00, 0.00000000e+00, 0.00000000e+00, 0.00000000e+00, 0.00000000e+00, 0.00000000e+00, 0.00000000e+00, 0.00000000e+00, 0.00000000e+00, 0.00000000e+00, 0.00000000e+00, 0.00000000e+00, -1.68298484e+00, 1.03224667e+00, -8.64897336e-01, 3.76691729e+00, 0.00000000e+00, 5.0000000000, 5.0000000000, 0.0746945827
          42, 0.00000000e+00, 0.00000000e+00, 0.00000000e+00, 0.00000000e+00, 0.00000000e+00, 0.00000000e+00, 0.00000000e+00, 0.00000000e+00, 0.00000000e+00, 0.00000000e+00, 0.00000000e+00, 0.00000000e+00, -1.65898161e+00, 1.01652920e+00, -8.64475781e-01, 3.79503060e+00, 0.00000000e+00, 5.0000000000, 5.0000000000, 0.0764173195
          43, 0.00000000e+00, 0.00000000e+00, 0.00000000e+00, 0.00000000e+00, 0.00000000e+00, 0.00000000e+00, 0.00000000e+00, 0.00000000e+00, 0.00000000e+00, 0.00000000e+00, 0.00000000e+00, 0.00000000e+00, -1.62927363e+00, 9.93780506e-01, -8.66476306e-01, 3.82787388e+00, 0.00000000e+00, 5.0000000000, 5.0000000000, 0.0781282160
          44, 0.00000000e+00, 0.00000000e+00, 0.00000000e+00, 0.00000000e+00, 0.00000000e+00, 0.00000000e+00, 0.00000000e+00, 0.00000000e+00, 0.00000000e+00, 0.00000000e+00, 0.00000000e+00, 0.00000000e+00, -1.59779485e+00, 9.63213370e-01, -8.71399180e-01, 3.86152010e+00, 0.00000000e+00, 5.0000000000, 5.0000000000, 0.0798389748
          45, 0.00000000e+00, 0.00000000e+00, 0.00000000e+00, 0.00000000e+00, 0.00000000e+00, 0.00000000e+00, 0.00000000e+00, 0.00000000e+00, 0.00000000e+00, 0.00000000e+00, 0.00000000e+00, 0.00000000e+00, -1.56753817e+00, 9.23892973e-01, -8.79341909e-01, 3.89318342e+00, 0.00000000e+00, 5.0000000000, 5.0000000000, 0.0817340315
          46, 0.00000000e+00, 0.00000000e+00, 0.00000000e+00, 0.00000000e+00, 0.00000000e+00, 0.00000000e+00, 0.00000000e+00, 0.00000000e+00, 0.00000000e+00, 0.00000000e+00, 0.00000000e+00, 0.00000000e+00, -1.54041736e+00, 8.74677945e-01, -8.89996498e-01, 3.92118177e+00, 0.00000000e+00, 5.0000000000, 5.0000000000, 0.0842909075
          47, 0.00000000e+00, 0.00000000e+00, 0.00000000e+00, 0.00000000e+00, 0.00000000e+00, 0.00000000e+00, 0.00000000e+00, 0.00000000e+00, 0.00000000e+00, 0.00000000e+00, 0.00000000e+00, 0.00000000e+00, -1.51749283e+00, 8.14199446e-01, -9.02665417e-01, 3.94463964e+00, 0.00000000e+00, 5.0000000000, 5.0000000000, 0.0860406450
          48, 0.00000000e+00, 0.00000000e+00, 0.00000000e+00, 0.00000000e+00, 0.00000000e+00, 0.00000000e+00, 0.00000000e+00, 0.00000000e+00, 0.00000000e+00, 0.00000000e+00, 0.00000000e+00, 0.00000000e+00, -1.49925023e+00, 7.41017266e-01, -9.16278502e-01, 3.96319996e+00, 0.00000000e+00, 5.0000000000, 5.0000000000, 0.0874686911
          49, 0.00000000e+00, 0.00000000e+00, 0.00000000e+00, 0.00000000e+00, 0.00000000e+00, 0.00000000e+00, 0.00000000e+00, 0.00000000e+00, 0.00000000e+00, 0.00000000e+00, 0.00000000e+00, 0.00000000e+00, -1.48581679e+00, 6.54461802e-01, -9.29451146e-01, 3.97681975e+00, 0.00000000e+00, 5.0000000000, 5.0000000000, 0.0887983655
          50, 0.00000000e+00, 0.00000000e+00, 0.00000000e+00, 0.00000000e+00, 0.00000000e+00, 0.00000000e+00, 0.00000000e+00, 0.00000000e+00, 0.00000000e+00, 0.00000000e+00, 0.00000000e+00, 0.00000000e+00, -1.47710283e+00, 5.57868100e-01, -9.40629235e-01, 3.98564350e+00, 0.00000000e+00, 5.0000000000, 5.0000000000, 0.0901478182
          51, 0.00000000e+00, 0.00000000e+00, 0.00000000e+00, 0.00000000e+00, 0.00000000e+00, 0.00000000e+00, 0.00000000e+00, 0.00000000e+00, 0.00000000e+00, 0.00000000e+00, 0.00000000e+00, 0.00000000e+00, -1.47288630e+00, 4.68028174e-01, -9.48360369e-01, 3.98993060e+00, 0.00000000e+00, 5.0000000000, 5.0000000000, 0.0918509161
          52, 0.00000000e+00, 0.00000000e+00, 0.00000000e+00, 0.00000000e+00, 0.00000000e+00, 0.00000000e+00, 0.00000000e+00, 0.00000000e+00, 0.00000000e+00, 0.00000000e+00, 0.00000000e+00, 0.00000000e+00, -1.47286034e+00, 4.25009220e-01, -9.51626684e-01, 3.99001638e+00, 0.00000000e+00, 5.0000000000, 5.0000000000, 0.0935642714
          53, 0.00000000e+00, 0.00000000e+00, 0.00000000e+00, 0.00000000e+00, 0.00000000e+00, 0.00000000e+00, 0.00000000e+00, 0.00000000e+00, 0.00000000e+00, 0.00000000e+00, 0.00000000e+00, 0.00000000e+00, -1.47665858e+00, 4.55854039e-01, -9.50098820e-01, 3.98629244e+00, 0.00000000e+00, 5.0000000000, 5.0000000000, 0.0953102154
          54, 0.00000000e+00, 0.00000000e+00, 0.00000000e+00, 0.00000000e+00, 0.00000000e+00, 0.00000000e+00, 0.00000000e+00, 0.00000000e+00, 0.00000000e+00, 0.00000000e+00, 0.00000000e+00, 0.00000000e+00, -1.48386852e+00, 5.29517008e-01, -9.44171917e-01, 3.97919680e+00, 0.00000000e+00, 5.0000000000, 5.0000000000, 0.0970263878
          55, 0.00000000e+00, 0.00000000e+00, 0.00000000e+00, 0.00000000e+00, 0.00000000e+00, 0.00000000e+00, 0.00000000e+00, 0.00000000e+00, 0.00000000e+00, 0.00000000e+00, 0.00000000e+00, 0.00000000e+00, -1.49404027e+00, 6.07824820e-01, -9.34774877e-01, 3.96920667e+00, 0.00000000e+00, 5.0000000000, 5.0000000000, 0.0987468842
          56, 0.00000000e+00, 0.00000000e+00, 0.00000000e+00, 0.00000000e+00, 0.00000000e+00, 0.00000000e+00, 0.00000000e+00, 0.00000000e+00, 0.00000000e+00, 0.00000000e+00, 0.00000000e+00, 0.00000000e+00, -1.50669665e+00, 6.75985517e-01, -9.23070900e-01, 3.95682801e+00, 0.00000000e+00, 5.0000000000, 5.0000000000, 0.1004289081
          57, 0.00000000e+00, 0.00000000e+00, 0.00000000e+00, 0.00000000e+00, 0.00000000e+00, 0.00000000e+00, 0.00000000e+00, 0.00000000e+00, 0.00000000e+00, 0.00000000e+00, 0.00000000e+00, 0.00000000e+00, -1.52135016e+00, 7.31489478e-01, -9.10199526e-01, 3.94257632e+00, 0.00000000e+00, 5.0000000000, 5.0000000000, 0.1021753323
          58, 0.00000000e+00, 0.00000000e+00, 0.00000000e+00, 0.00000000e+00, 0.00000000e+00, 0.00000000e+00, 0.00000000e+00, 0.00000000e+00, 0.00000000e+00, 0.00000000e+00, 0.00000000e+00, 0.00000000e+00, -1.53753115e+00, 7.75366037e-01, -8.97121407e-01, 3.92694454e+00, 0.00000000e+00, 5.0000000000, 5.0000000000, 0.1038943483
          59, 0.00000000e+00, 0.00000000e+00, 0.00000000e+00, 0.00000000e+00, 0.00000000e+00, 0.00000000e+00, 0.00000000e+00, 0.00000000e+00, 0.00000000e+00, 0.00000000e+00, 0.00000000e+00, 0.00000000e+00, -1.55482648e+00, 8.09304280e-01, -8.84561825e-01, 3.91036015e+00, 0.00000000e+00, 5.0000000000, 5.0000000000, 0.1056215208
          60, 0.00000000e+00, 0.00000000e+00, 0.00000000e+00, 0.00000000e+00, 0.00000000e+00, 0.00000000e+00, 0.00000000e+00, 0.00000000e+00, 0.00000000e+00, 0.00000000e+00, 0.00000000e+00, 0.00000000e+00, -1.57293082e+00, 8.34921494e-01, -8.73040384e-01, 3.89312955e+00, 0.00000000e+00, 5.0000000000, 5.0000000000, 0.1073272338
          61, 0.00000000e+00, 0.00000000e+00, 0.00000000e+00, 0.00000000e+00, 0.00000000e+00, 0.00000000e+00, 0.00000000e+00, 0.00000000e+00, 0.00000000e+00, 0.00000000e+00, 0.00000000e+00, 0.00000000e+00, -1.59169808e+00, 8.53638937e-01, -8.62928143e-01, 3.87538535e+00, 0.00000000e+00, 5.0000000000, 5.0000000000, 0.1089791228
          62, 0.00000000e+00, 0.00000000e+00, 0.00000000e+00, 0.00000000e+00, 0.00000000e+00, 0.00000000e+00, 0.00000000e+00, 0.00000000e+00, 0.00000000e+00, 0.00000000e+00, 0.00000000e+00, 0.00000000e+00, -1.61118285e+00, 8.66706668e-01, -8.54506583e-01, 3.85704774e+00, 0.00000000e+00, 5.0000000000, 5.0000000000, 0.1120198423
          63, 0.00000000e+00, 0.00000000e+00, 0.00000000e+00, 0.00000000e+00, 0.00000000e+00, 0.00000000e+00, 0.00000000e+00, 0.00000000e+00, 0.00000000e+00, 0.00000000e+00, 0.00000000e+00, 0.00000000e+00, -1.63166171e+00, 8.75249159e-01, -8.48017852e-01, 3.83781020e+00, 0.00000000e+00, 5.0000000000, 5.0000000000, 0.1141403602
          64, 0.00000000e+00, 0.00000000e+00, 0.00000000e+00, 0.00000000e+00, 0.00000000e+00, 0.00000000e+00, 0.00000000e+00, 0.00000000e+00, 0.00000000e+00, 0.00000000e+00, 0.00000000e+00, 0.00000000e+00, -1.65363012e+00, 8.80296013e-01, -8.43699318e-01, 3.81715219e+00, 0.00000000e+00, 5.0000000000, 5.0000000000, 0.1155374658
          65, 0.00000000e+00, 0.00000000e+00, 0.00000000e+00, 0.00000000e+00, 0.00000000e+00, 0.00000000e+00, 0.00000000e+00, 0.00000000e+00, 0.00000000e+00, 0.00000000e+00, 0.00000000e+00, 0.00000000e+00, -1.67778000e+00, 8.82788691e-01, -8.41797968e-01, 3.79437164e+00, 0.00000000e+00, 5.0000000000, 5.0000000000, 0.1179257188
          66, 0.00000000e+00, 0.00000000e+00, 0.00000000e+00, 0.00000000e+00, 0.00000000e+00, 0.00000000e+00, 0.00000000e+00, 0.00000000e+00, 0.00000000e+00, 0.00000000e+00, 0.00000000e+00, 0.00000000e+00, -1.70497034e+00, 8.83563936e-01, -8.42566293e-01, 3.76862351e+00, 0.00000000e+00, 5.0000000000, 5.0000000000, 0.1209468725
          67, 0.00000000e+00, 0.00000000e+00, 0.00000000e+00, 0.00000000e+00, 0.00000000e+00, 0.00000000e+00, 0.00000000e+00, 0.00000000e+00, 0.00000000e+00, 0.00000000e+00, 0.00000000e+00, 0.00000000e+00, -1.73620554e+00, 8.83320924e-01, -8.46240745e-01, 3.73895046e+00, 0.00000000e+00, 5.0000000000, 5.0000000000, 0.1228996283
          68, 0.00000000e+00, 0.00000000e+00, 0.00000000e+00, 0.00000000e+00, 0.00000000e+00, 0.00000000e+00, 0.00000000e+00, 0.00000000e+00, 0.00000000e+00, 0.00000000e+00, 0.00000000e+00, 0.00000000e+00, -1.77263407e+00, 8.82584332e-01, -8.52999453e-01, 3.70429621e+00, 0.00000000e+00, 5.0000000000, 5.0000000000, 0.1251765300
          69, 0.00000000e+00, 0.00000000e+00, 0.00000000e+00, 0.00000000e+00, 0.00000000e+00, 0.00000000e+00, 0.00000000e+00, 0.00000000e+00, 0.00000000e+00, 0.00000000e+00, 0.00000000e+00, 0.00000000e+00, -1.81557408e+00, 8.81678081e-01, -8.62903853e-01, 3.66350115e+00, 0.00000000e+00, 5.0000000000, 5.0000000000, 0.1276823786
          70, 0.00000000e+00, 0.00000000e+00, 0.00000000e+00, 0.00000000e+00, 0.00000000e+00, 0.00000000e+00, 0.00000000e+00, 0.00000000e+00, 0.00000000e+00, 0.00000000e+00, 0.00000000e+00, 0.00000000e+00, -1.86656383e+00, 8.80721596e-01, -8.75825838e-01, 3.61529339e+00, 0.00000000e+00, 5.0000000000, 5.0000000000, 0.1302766002
          71, 0.00000000e+00, 0.00000000e+00, 0.00000000e+00, 0.00000000e+00, 0.00000000e+00, 0.00000000e+00, 0.00000000e+00, 0.00000000e+00, 0.00000000e+00, 0.00000000e+00, 0.00000000e+00, 0.00000000e+00, -1.92740874e+00, 8.79652793e-01, -8.91361963e-01, 3.55832259e+00, 0.00000000e+00, 5.0000000000, 5.0000000000, 0.1325571678
          72, 0.00000000e+00, 0.00000000e+00, 0.00000000e+00, 0.00000000e+00, 0.00000000e+00, 0.00000000e+00, 0.00000000e+00, 0.00000000e+00, 0.00000000e+00, 0.00000000e+00, 0.00000000e+00, 0.00000000e+00, -2.00010609e+00, 8.78272331e-01, -9.08742229e-01, 3.49138463e+00, 0.00000000e+00, 5.0000000000, 5.0000000000, 0.1348051115
          73, 0.00000000e+00, 0.00000000e+00, 0.00000000e+00, 0.00000000e+00, 0.00000000e+00, 0.00000000e+00, 0.00000000e+00, 0.00000000e+00, 0.00000000e+00, 0.00000000e+00, 0.00000000e+00, 0.00000000e+00, -2.08617573e+00, 8.76297616e-01, -9.26759483e-01, 3.41429677e+00, 0.00000000e+00, 5.0000000000, 5.0000000000, 0.1368904305
          74, 0.00000000e+00, 0.00000000e+00, 0.00000000e+00, 0.00000000e+00, 0.00000000e+00, 0.00000000e+00, 0.00000000e+00, 0.00000000e+00, 0.00000000e+00, 0.00000000e+00, 0.00000000e+00, 0.00000000e+00, -2.18362322e+00, 8.73414156e-01, -9.43782381e-01, 3.33073396e+00, 0.00000000e+00, 5.0000000000, 5.0000000000, 0.1389972429
          75, 0.00000000e+00, 0.00000000e+00, 0.00000000e+00, 0.00000000e+00, 0.00000000e+00, 0.00000000e+00, 0.00000000e+00, 0.00000000e+00, 0.00000000e+00, 0.00000000e+00, 0.00000000e+00, 0.00000000e+00, -2.27654739e+00, 8.69315811e-01, -9.57939790e-01, 3.25527460e+00, 0.00000000e+00, 5.0000000000, 5.0000000000, 0.1415175759
          76, 0.00000000e+00, 0.00000000e+00, 0.00000000e+00, 0.00000000e+00, 0.00000000e+00, 0.00000000e+00, 0.00000000e+00, 0.00000000e+00, 0.00000000e+00, 0.00000000e+00, 0.00000000e+00, 0.00000000e+00, -2.32001193e+00, 8.63730795e-01, -9.67527482e-01, 3.21923521e+00, 0.00000000e+00, 5.0000000000, 5.0000000000, 0.1436605238
          77, 0.00000000e+00, 0.00000000e+00, 0.00000000e+00, 0.00000000e+00, 0.00000000e+00, 0.00000000e+00, 0.00000000e+00, 0.00000000e+00, 0.00000000e+00, 0.00000000e+00, 0.00000000e+00, 0.00000000e+00, -2.27885714e+00, 8.56434753e-01, -9.71584759e-01, 3.24559964e+00, 0.00000000e+00, 5.0000000000, 5.0000000000, 0.1460288097
          78, 0.00000000e+00, 0.00000000e+00, 0.00000000e+00, 0.00000000e+00, 0.00000000e+00, 0.00000000e+00, 0.00000000e+00, 0.00000000e+00, 0.00000000e+00, 0.00000000e+00, 0.00000000e+00, 0.00000000e+00, -2.18938462e+00, 8.47254150e-01, -9.70445113e-01, 3.31455878e+00, 0.00000000e+00, 5.0000000000, 5.0000000000, 0.1480987831
          79, 0.00000000e+00, 0.00000000e+00, 0.00000000e+00, 0.00000000e+00, 0.00000000e+00, 0.00000000e+00, 0.00000000e+00, 0.00000000e+00, 0.00000000e+00, 0.00000000e+00, 0.00000000e+00, 0.00000000e+00, -2.09595179e+00, 8.36062872e-01, -9.65554464e-01, 3.39385126e+00, 0.00000000e+00, 5.0000000000, 5.0000000000, 0.1499079687
          80, 0.00000000e+00, 0.00000000e+00, 0.00000000e+00, 0.00000000e+00, 0.00000000e+00, 0.00000000e+00, 0.00000000e+00, 0.00000000e+00, 0.00000000e+00, 0.00000000e+00, 0.00000000e+00, 0.00000000e+00, -2.01398220e+00, 8.22775778e-01, -9.58915336e-01, 3.46746555e+00, 0.00000000e+00, 5.0000000000, 5.0000000000, 0.1516137607
          81, 0.00000000e+00, 0.00000000e+00, 0.00000000e+00, 0.00000000e+00, 0.00000000e+00, 0.00000000e+00, 0.00000000e+00, 0.00000000e+00, 0.00000000e+00, 0.00000000e+00, 0.00000000e+00, 0.00000000e+00, -1.94535918e+00, 8.07344353e-01, -9.52679143e-01, 3.53109339e+00, 0.00000000e+00, 5.0000000000, 5.0000000000, 0.1533391073
          82, 0.00000000e+00, 0.00000000e+00, 0.00000000e+00, 0.00000000e+00, 0.00000000e+00, 0.00000000e+00, 0.00000000e+00, 0.00000000e+00, 0.00000000e+00, 0.00000000e+00, 0.00000000e+00, 0.00000000e+00, -1.88861191e+00, 7.89752687e-01, -9.48796133e-01, 3.58467425e+00, 0.00000000e+00, 5.0000000000, 5.0000000000, 0.1558417180
          83, 0.00000000e+00, 0.00000000e+00, 0.00000000e+00, 0.00000000e+00, 0.00000000e+00, 0.00000000e+00, 0.00000000e+00, 0.00000000e+00, 0.00000000e+00, 0.00000000e+00, 0.00000000e+00, 0.00000000e+00, -1.84187529e+00, 7.70015030e-01, -9.48844061e-01, 3.62926083e+00, 0.00000000e+00, 5.0000000000, 5.0000000000, 0.1578238689
          84, 0.00000000e+00, 0.00000000e+00, 0.00000000e+00, 0.00000000e+00, 0.00000000e+00, 0.00000000e+00, 0.00000000e+00, 0.00000000e+00, 0.00000000e+00, 0.00000000e+00, 0.00000000e+00, 0.00000000e+00, -1.80354223e+00, 7.48175887e-01, -9.54012612e-01, 3.66603219e+00, 0.00000000e+00, 5.0000000000, 5.0000000000, 0.1596562699
          85, 0.00000000e+00, 0.00000000e+00, 0.00000000e+00, 0.00000000e+00, 0.00000000e+00, 0.00000000e+00, 0.00000000e+00, 0.00000000e+00, 0.00000000e+00, 0.00000000e+00, 0.00000000e+00, 0.00000000e+00, -1.77233511e+00, 7.24311614e-01, -9.65160350e-01, 3.69603336e+00, 0.00000000e+00, 5.0000000000, 5.0000000000, 0.1614530046
          86, 0.00000000e+00, 0.00000000e+00, 0.00000000e+00, 0.00000000e+00, 0.00000000e+00, 0.00000000e+00, 0.00000000e+00, 0.00000000e+00, 0.00000000e+00, 0.00000000e+00, 0.00000000e+00, 0.00000000e+00, -1.74725117e+00, 6.98532510e-01, -9.82875186e-01, 3.72013602e+00, 0.00000000e+00, 5.0000000000, 5.0000000000, 0.1632647955
          87, 0.00000000e+00, 0.00000000e+00, 0.00000000e+00, 0.00000000e+00, 0.00000000e+00, 0.00000000e+00, 0.00000000e+00, 0.00000000e+00, 0.00000000e+00, 0.00000000e+00, 0.00000000e+00, 0.00000000e+00, -1.72749465e+00, 6.70982513e-01, -1.00748898e+00, 3.73905995e+00, 0.00000000e+00, 5.0000000000, 5.0000000000, 0.1652497847
          88, 0.00000000e+00, 0.00000000e+00, 0.00000000e+00, 0.00000000e+00, 0.00000000e+00, 0.00000000e+00, 0.00000000e+00, 0.00000000e+00, 0.00000000e+00, 0.00000000e+00, 0.00000000e+00, 0.00000000e+00, -1.71241905e+00, 6.41834292e-01, -1.03900511e+00, 3.75340678e+00, 0.00000000e+00, 5.0000000000, 5.0000000000, 0.1670287127
          89, 0.00000000e+00, 0.00000000e+00, 0.00000000e+00, 0.00000000e+00, 0.00000000e+00, 0.00000000e+00, 0.00000000e+00, 0.00000000e+00, 0.00000000e+00, 0.00000000e+00, 0.00000000e+00, 0.00000000e+00, -1.70148243e+00, 6.11277156e-01, -1.07688372e+00, 3.76369188e+00, 0.00000000e+00, 5.0000000000, 5.0000000000, 0.1688670558