TITLE = "Visualization of the volumetric solution"
VARIABLES = "x","y","Density","Momentum_x","Momentum_y","Energy","Pressure","Temperature","Mach","C<sub>p</sub>","Roe_Dissipation"
ZONE NODES= 336, ELEMENTS= 606, DATAPACKING=POINT, ZONETYPE=FEQUADRILATERAL
0.000000e+00	3.002941e-03	1.228433e+00	4.506868e+01	7.270997e-02	2.551001e+05	1.017094e+05	2.884295e+02	1.077594e-01	3.206484e-01	0.000000e+00	
4.243543e-03	3.273079e-03	1.227271e+00	4.501585e+01	3.199261e+00	2.547918e+05	1.015848e+05	2.883492e+02	1.080216e-01	2.167605e-01	0.000000e+00	
2.445272e-03	5.049812e-03	1.227983e+00	4.500707e+01	1.865485e+00	2.549648e+05	1.016554e+05	2.883824e+02	1.077527e-01	2.756625e-01	0.000000e+00	
7.272933e-03	2.115680e-03	1.226995e+00	4.497194e+01	4.787232e+00	2.547024e+05	1.015475e+05	2.883082e+02	1.082850e-01	1.856569e-01	0.000000e+00	
4.666174e-03	5.943429e-03	1.227370e+00	4.497702e+01	3.481907e+00	2.548031e+05	1.015896e+05	2.883396e+02	1.079721e-01	2.207783e-01	0.000000e+00	
0.000000e+00	6.005882e-03	1.228438e+00	4.499503e+01	-4.829097e-02	2.551015e+05	1.017110e+05	2.884330e+02	1.075821e-01	3.220165e-01	0.000000e+00	
6.961844e-03	4.416064e-03	1.227046e+00	4.494620e+01	4.670401e+00	2.547123e+05	1.015521e+05	2.883091e+02	1.081898e-01	1.894392e-01	0.000000e+00	
2.487466e-03	7.556875e-03	1.227874e+00	4.494234e+01	1.974726e+00	2.549402e+05	1.016465e+05	2.883824e+02	1.076186e-01	2.681794e-01	0.000000e+00	
9.748904e-03	2.359894e-03	1.226722e+00	4.497876e+01	5.494532e+00	2.546306e+05	1.015175e+05	2.882871e+02	1.085217e-01	1.605776e-01	0.000000e+00	
4.856055e-03	9.027583e-03	1.227323e+00	4.493117e+01	3.631204e+00	2.547907e+05	1.015851e+05	2.883379e+02	1.078954e-01	2.170237e-01	0.000000e+00	
7.218485e-03	7.450790e-03	1.227029e+00	4.494229e+01	4.750714e+00	2.547060e+05	1.015495e+05	2.883058e+02	1.082026e-01	1.872921e-01	0.000000e+00	
0.000000e+00	9.008824e-03	1.228476e+00	4.497212e+01	-8.838231e-02	2.551103e+05	1.017148e+05	2.884351e+02	1.075238e-01	3.252264e-01	0.000000e+00	
9.701012e-03	5.671667e-03	1.226754e+00	4.495053e+01	5.487594e+00	2.546348e+05	1.015196e+05	2.882854e+02	1.084500e-01	1.623330e-01	0.000000e+00	
2.527248e-03	1.047816e-02	1.227849e+00	4.491479e+01	2.006223e+00	2.549344e+05	1.016445e+05	2.883827e+02	1.075583e-01	2.665338e-01	0.000000e+00	
1.220746e-02	3.491283e-03	1.226651e+00	4.495944e+01	5.856783e+00	2.546070e+05	1.015077e+05	2.882758e+02	1.085928e-01	1.523767e-01	0.000000e+00	
4.965415e-03	1.202837e-02	1.227266e+00	4.491853e+01	3.665980e+00	2.547778e+05	1.015801e+05	2.883370e+02	1.078772e-01	2.128244e-01	0.000000e+00	
7.353103e-03	1.054524e-02	1.226994e+00	4.491788e+01	4.809268e+00	2.546976e+05	1.015464e+05	2.883051e+02	1.081625e-01	1.847058e-01	0.000000e+00	
9.795139e-03	8.937440e-03	1.226747e+00	4.493465e+01	5.514950e+00	2.546317e+05	1.015186e+05	2.882842e+02	1.084211e-01	1.614705e-01	0.000000e+00	
0.000000e+00	1.201176e-02	1.228400e+00	4.496677e+01	-1.401716e-01	2.550954e+05	1.017090e+05	2.884362e+02	1.075178e-01	3.203222e-01	0.000000e+00	
1.459879e-02	2.322322e-03	1.226600e+00	4.496226e+01	5.913326e+00	2.545959e+05	1.015030e+05	2.882746e+02	1.086218e-01	1.485071e-01	0.000000e+00	
1.227400e-02	7.218871e-03	1.226661e+00	4.493466e+01	5.862095e+00	2.546074e+05	1.015081e+05	2.882748e+02	1.085349e-01	1.527810e-01	0.000000e+00	
2.342103e-03	1.349456e-02	1.227907e+00	4.490290e+01	1.987768e+00	2.549458e+05	1.016493e+05	2.883826e+02	1.075228e-01	2.705247e-01	0.000000e+00	
1.475027e-02	5.626733e-03	1.226648e+00	4.494470e+01	5.906115e+00	2.546045e+05	1.015068e+05	2.882740e+02	1.085737e-01	1.516307e-01	0.000000e+00	
5.012642e-03	1.510217e-02	1.227289e+00	4.494376e+01	3.689507e+00	2.547826e+05	1.015816e+05	2.883358e+02	1.079401e-01	2.140974e-01	0.000000e+00	
7.432778e-03	1.359675e-02	1.226991e+00	4.491947e+01	4.825564e+00	2.546967e+05	1.015460e+05	2.883046e+02	1.081708e-01	1.843577e-01	0.000000e+00	
9.879798e-03	1.206779e-02	1.226752e+00	4.492557e+01	5.530526e+00	2.546324e+05	1.015189e+05	2.882841e+02	1.084036e-01	1.617738e-01	0.000000e+00	
1.235169e-02	1.048827e-02	1.226659e+00	4.492667e+01	5.866270e+00	2.546063e+05	1.015078e+05	2.882743e+02	1.085174e-01	1.525246e-01	0.000000e+00	
0.000000e+00	1.501471e-02	1.228469e+00	4.494746e+01	-1.472200e-01	2.551097e+05	1.017149e+05	2.884369e+02	1.074655e-01	3.253172e-01	0.000000e+00	
1.698281e-02	1.931504e-03	1.226688e+00	4.496076e+01	5.740863e+00	2.546175e+05	1.015120e+05	2.882794e+02	1.085564e-01	1.560457e-01	0.000000e+00	
1.723227e-02	4.269350e-03	1.226718e+00	4.494484e+01	5.705216e+00	2.546236e+05	1.015148e+05	2.882804e+02	1.085050e-01	1.583465e-01	0.000000e+00	
1.484102e-02	8.905041e-03	1.226636e+00	4.493351e+01	5.904083e+00	2.546010e+05	1.015055e+05	2.882734e+02	1.085477e-01	1.506138e-01	0.000000e+00	
2.527845e-03	1.651974e-02	1.227931e+00	4.491679e+01	2.038213e+00	2.549508e+05	1.016511e+05	2.883821e+02	1.075594e-01	2.720113e-01	0.000000e+00	
1.734416e-02	7.370081e-03	1.226708e+00	4.494080e+01	5.694719e+00	2.546210e+05	1.015138e+05	2.882798e+02	1.084932e-01	1.575352e-01	0.000000e+00	
5.013603e-03	1.806799e-02	1.227234e+00	4.495664e+01	3.720966e+00	2.547713e+05	1.015769e+05	2.883354e+02	1.079819e-01	2.101450e-01	0.000000e+00	
7.475845e-03	1.660279e-02	1.226974e+00	4.492946e+01	4.849645e+00	2.546932e+05	1.015444e+05	2.883042e+02	1.082024e-01	1.830434e-01	0.000000e+00	
9.942006e-03	1.510322e-02	1.226739e+00	4.492876e+01	5.542567e+00	2.546300e+05	1.015179e+05	2.882840e+02	1.084159e-01	1.609078e-01	0.000000e+00	
1.241875e-02	1.357954e-02	1.226654e+00	4.492506e+01	5.870012e+00	2.546053e+05	1.015075e+05	2.882744e+02	1.085152e-01	1.522117e-01	0.000000e+00	
1.491054e-02	1.203713e-02	1.226643e+00	4.492730e+01	5.896945e+00	2.546023e+05	1.015062e+05	2.882734e+02	1.085301e-01	1.511293e-01	0.000000e+00	
0.000000e+00	1.801765e-02	1.228383e+00	4.495551e+01	-8.674226e-02	2.550914e+05	1.017075e+05	2.884362e+02	1.074920e-01	3.191241e-01	0.000000e+00	
1.982869e-02	2.404930e-03	1.226844e+00	4.494281e+01	5.257554e+00	2.546594e+05	1.015300e+05	2.882937e+02	1.083567e-01	1.709894e-01	0.000000e+00	
1.988549e-02	5.795028e-03	1.226826e+00	4.494275e+01	5.261541e+00	2.546549e+05	1.015282e+05	2.882929e+02	1.083595e-01	1.694942e-01	0.000000e+00	
1.741551e-02	1.049192e-02	1.226721e+00	4.493169e+01	5.681211e+00	2.546231e+05	1.015148e+05	2.882797e+02	1.084664e-01	1.583581e-01	0.000000e+00	
2.535503e-03	1.951227e-02	1.227884e+00	4.492459e+01	2.058973e+00	2.549412e+05	1.016470e+05	2.883817e+02	1.075845e-01	2.686662e-01	0.000000e+00	
1.993916e-02	8.929792e-03	1.226851e+00	4.493492e+01	5.252585e+00	2.546592e+05	1.015300e+05	2.882924e+02	1.083363e-01	1.710531e-01	0.000000e+00	
5.033772e-03	2.104961e-02	1.227265e+00	4.495123e+01	3.719148e+00	2.547777e+05	1.015795e+05	2.883355e+02	1.079659e-01	2.123480e-01	0.000000e+00	
7.502721e-03	1.956946e-02	1.226991e+00	4.493140e+01	4.858938e+00	2.546968e+05	1.015458e+05	2.883041e+02	1.082079e-01	1.842204e-01	0.000000e+00	
9.988786e-03	1.808215e-02	1.226744e+00	4.493636e+01	5.551834e+00	2.546311e+05	1.015182e+05	2.882839e+02	1.084363e-01	1.611715e-01	0.000000e+00	
1.247456e-02	1.658102e-02	1.226654e+00	4.493045e+01	5.871699e+00	2.546056e+05	1.015075e+05	2.882745e+02	1.085285e-01	1.522173e-01	0.000000e+00	
1.496903e-02	1.506493e-02	1.226642e+00	4.492863e+01	5.892708e+00	2.546024e+05	1.015062e+05	2.882737e+02	1.085320e-01	1.511582e-01	0.000000e+00	
1.747304e-02	1.353800e-02	1.226720e+00	4.493032e+01	5.670306e+00	2.546231e+05	1.015149e+05	2.882800e+02	1.084599e-01	1.584105e-01	0.000000e+00	
0.000000e+00	2.102059e-02	1.228445e+00	4.496775e+01	-9.701266e-02	2.551043e+05	1.017125e+05	2.884357e+02	1.075160e-01	3.232941e-01	0.000000e+00	
2.248153e-02	4.286811e-03	1.226989e+00	4.493701e+01	4.629529e+00	2.547024e+05	1.015483e+05	2.883119e+02	1.081623e-01	1.863146e-01	0.000000e+00	
2.245712e-02	1.682640e-03	1.227091e+00	4.496863e+01	4.607362e+00	2.547243e+05	1.015567e+05	2.883116e+02	1.082233e-01	1.932695e-01	0.000000e+00	
2.249185e-02	7.314985e-03	1.227030e+00	4.492949e+01	4.622763e+00	2.547100e+05	1.015515e+05	2.883113e+02	1.081393e-01	1.889490e-01	0.000000e+00	
1.998779e-02	1.199585e-02	1.226847e+00	4.493223e+01	5.243508e+00	2.546582e+05	1.015297e+05	2.882923e+02	1.083277e-01	1.707447e-01	0.000000e+00	
2.538896e-03	2.250682e-02	1.227875e+00	4.492672e+01	2.052950e+00	2.549392e+05	1.016462e+05	2.883815e+02	1.075897e-01	2.679864e-01	0.000000e+00	
2.251786e-02	1.041539e-02	1.227030e+00	4.493489e+01	4.619607e+00	2.547095e+05	1.015512e+05	2.883104e+02	1.081515e-01	1.887050e-01	0.000000e+00	
5.005949e-03	2.399609e-02	1.227261e+00	4.494552e+01	3.722835e+00	2.547765e+05	1.015791e+05	2.883353e+02	1.079534e-01	2.120019e-01	0.000000e+00	
7.489564e-03	2.251666e-02	1.226975e+00	4.493109e+01	4.868022e+00	2.546931e+05	1.015443e+05	2.883038e+02	1.082110e-01	1.829506e-01	0.000000e+00	
1.003572e-02	2.102738e-02	1.226729e+00	4.493949e+01	5.561654e+00	2.546280e+05	1.015169e+05	2.882837e+02	1.084479e-01	1.600916e-01	0.000000e+00	
1.252471e-02	1.953859e-02	1.226651e+00	4.493525e+01	5.876633e+00	2.546052e+05	1.015072e+05	2.882746e+02	1.085417e-01	1.520386e-01	0.000000e+00	
1.502177e-02	1.803478e-02	1.226641e+00	4.493320e+01	5.889801e+00	2.546026e+05	1.015062e+05	2.882740e+02	1.085419e-01	1.511733e-01	0.000000e+00	
1.752551e-02	1.652191e-02	1.226722e+00	4.493197e+01	5.660925e+00	2.546239e+05	1.015152e+05	2.882805e+02	1.084608e-01	1.586538e-01	0.000000e+00	
2.003580e-02	1.499906e-02	1.226853e+00	4.493142e+01	5.230093e+00	2.546599e+05	1.015304e+05	2.882927e+02	1.083214e-01	1.713401e-01	0.000000e+00	
0.000000e+00	2.402353e-02	1.228422e+00	4.496672e+01	-1.081556e-01	2.550997e+05	1.017107e+05	2.884359e+02	1.075156e-01	3.217526e-01	0.000000e+00	
2.515617e-02	2.301231e-03	1.227280e+00	4.496900e+01	3.884827e+00	2.547783e+05	1.015793e+05	2.883315e+02	1.080412e-01	2.121753e-01	0.000000e+00	
2.507688e-02	5.508971e-03	1.227305e+00	4.493914e+01	3.859951e+00	2.547837e+05	1.015820e+05	2.883330e+02	1.079624e-01	2.143739e-01	0.000000e+00	
2.506867e-02	8.745129e-03	1.227258e+00	4.493485e+01	3.862544e+00	2.547732e+05	1.015778e+05	2.883324e+02	1.079569e-01	2.109059e-01	0.000000e+00	
2.255429e-02	1.345623e-02	1.227038e+00	4.493366e+01	4.608956e+00	2.547110e+05	1.015519e+05	2.883103e+02	1.081453e-01	1.892615e-01	0.000000e+00	
2.497137e-03	2.549537e-02	1.227895e+00	4.492113e+01	2.046154e+00	2.549431e+05	1.016479e+05	2.883816e+02	1.075739e-01	2.693655e-01	0.000000e+00	
2.508476e-02	1.187157e-02	1.227275e+00	4.493316e+01	3.850646e+00	2.547763e+05	1.015791e+05	2.883319e+02	1.079490e-01	2.119636e-01	0.000000e+00	
7.565562e-03	2.548353e-02	1.226987e+00	4.493594e+01	4.878753e+00	2.546954e+05	1.015451e+05	2.883033e+02	1.082243e-01	1.836604e-01	0.000000e+00	
5.053624e-03	2.698482e-02	1.227267e+00	4.494857e+01	3.740667e+00	2.547774e+05	1.015794e+05	2.883349e+02	1.079638e-01	2.122704e-01	0.000000e+00	
1.007617e-02	2.398743e-02	1.226737e+00	4.494343e+01	5.565899e+00	2.546295e+05	1.015175e+05	2.882833e+02	1.084579e-01	1.605556e-01	0.000000e+00	
1.257195e-02	2.248162e-02	1.226654e+00	4.493876e+01	5.878437e+00	2.546059e+05	1.015075e+05	2.882745e+02	1.085503e-01	1.522171e-01	0.000000e+00	
1.507179e-02	2.097880e-02	1.226642e+00	4.493803e+01	5.887440e+00	2.546032e+05	1.015064e+05	2.882742e+02	1.085525e-01	1.513184e-01	0.000000e+00	
1.757613e-02	1.947179e-02	1.226724e+00	4.493634e+01	5.652790e+00	2.546247e+05	1.015155e+05	2.882809e+02	1.084685e-01	1.588988e-01	0.000000e+00	
2.008465e-02	1.795970e-02	1.226854e+00	4.493405e+01	5.218126e+00	2.546606e+05	1.015307e+05	2.882933e+02	1.083242e-01	1.715676e-01	0.000000e+00	
2.259780e-02	1.643891e-02	1.227040e+00	4.493538e+01	4.596044e+00	2.547118e+05	1.015522e+05	2.883108e+02	1.081460e-01	1.895238e-01	0.000000e+00	
0.000000e+00	2.702647e-02	1.228436e+00	4.496181e+01	-1.144159e-01	2.551026e+05	1.017119e+05	2.884362e+02	1.075026e-01	3.227680e-01	0.000000e+00	
2.764811e-02	3.278486e-03	1.227527e+00	4.495685e+01	2.956284e+00	2.548489e+05	1.016088e+05	2.883571e+02	1.078171e-01	2.367920e-01	0.000000e+00	
2.764231e-02	6.929348e-03	1.227501e+00	4.494170e+01	2.978351e+00	2.548430e+05	1.016067e+05	2.883570e+02	1.077866e-01	2.349821e-01	0.000000e+00	
2.763166e-02	1.022096e-02	1.227525e+00	4.493547e+01	2.976884e+00	2.548470e+05	1.016084e+05	2.883563e+02	1.077696e-01	2.364181e-01	0.000000e+00	
2.511777e-02	1.490065e-02	1.227273e+00	4.493465e+01	3.839177e+00	2.547760e+05	1.015789e+05	2.883320e+02	1.079504e-01	2.118579e-01	0.000000e+00	
2.524120e-03	2.849779e-02	1.227891e+00	4.492130e+01	2.060505e+00	2.549422e+05	1.016475e+05	2.883814e+02	1.075763e-01	2.690446e-01	0.000000e+00	
3.048660e-02	1.639266e-03	1.227812e+00	4.495839e+01	1.914971e+00	2.549301e+05	1.016422e+05	2.883848e+02	1.076558e-01	2.646134e-01	0.000000e+00	
2.764834e-02	1.333329e-02	1.227521e+00	4.493645e+01	2.972134e+00	2.548459e+05	1.016079e+05	2.883559e+02	1.077716e-01	2.360256e-01	0.000000e+00	
1.010765e-02	2.692559e-02	1.226726e+00	4.494451e+01	5.576003e+00	2.546271e+05	1.015164e+05	2.882831e+02	1.084645e-01	1.596979e-01	0.000000e+00	
7.592147e-03	2.843420e-02	1.226961e+00	4.493644e+01	4.893075e+00	2.546900e+05	1.015429e+05	2.883030e+02	1.082316e-01	1.818056e-01	0.000000e+00	
5.064854e-03	2.995416e-02	1.227250e+00	4.494936e+01	3.752332e+00	2.547737e+05	1.015779e+05	2.883346e+02	1.079696e-01	2.109896e-01	0.000000e+00	
1.261554e-02	2.541985e-02	1.226650e+00	4.494080e+01	5.882208e+00	2.546049e+05	1.015070e+05	2.882743e+02	1.085568e-01	1.518598e-01	0.000000e+00	
1.512002e-02	2.391381e-02	1.226642e+00	4.494097e+01	5.885385e+00	2.546033e+05	1.015064e+05	2.882742e+02	1.085589e-01	1.513094e-01	0.000000e+00	
1.762588e-02	2.240745e-02	1.226725e+00	4.494018e+01	5.645494e+00	2.546254e+05	1.015157e+05	2.882812e+02	1.084752e-01	1.590890e-01	0.000000e+00	
2.013415e-02	2.089932e-02	1.226858e+00	4.493783e+01	5.206420e+00	2.546618e+05	1.015311e+05	2.882938e+02	1.083295e-01	1.719528e-01	0.000000e+00	
2.264525e-02	1.938808e-02	1.227044e+00	4.493777e+01	4.581964e+00	2.547132e+05	1.015527e+05	2.883114e+02	1.081478e-01	1.899516e-01	0.000000e+00	
2.516058e-02	1.787081e-02	1.227279e+00	4.493621e+01	3.822817e+00	2.547776e+05	1.015796e+05	2.883325e+02	1.079502e-01	2.123810e-01	0.000000e+00	
0.000000e+00	3.002941e-02	1.228425e+00	4.496278e+01	-1.102187e-01	2.551005e+05	1.017110e+05	2.884362e+02	1.075058e-01	3.220524e-01	0.000000e+00	
3.027274e-02	5.088344e-03	1.227816e+00	4.493771e+01	1.977929e+00	2.549296e+05	1.016422e+05	2.883841e+02	1.076127e-01	2.646616e-01	0.000000e+00	
3.019845e-02	8.515187e-03	1.227797e+00	4.493507e+01	2.009177e+00	2.549246e+05	1.016403e+05	2.883830e+02	1.076116e-01	2.630076e-01	0.000000e+00	
3.019245e-02	1.173239e-02	1.227796e+00	4.493533e+01	2.014226e+00	2.549236e+05	1.016399e+05	2.883821e+02	1.076130e-01	2.626787e-01	0.000000e+00	
2.768336e-02	1.634299e-02	1.227529e+00	4.493753e+01	2.956441e+00	2.548477e+05	1.016086e+05	2.883561e+02	1.077710e-01	2.366120e-01	0.000000e+00	
2.518907e-03	3.149525e-02	1.227885e+00	4.492219e+01	2.062843e+00	2.549409e+05	1.016470e+05	2.883813e+02	1.075792e-01	2.685977e-01	0.000000e+00	
3.294023e-02	3.180998e-03	1.228161e+00	4.496793e+01	9.488310e-01	2.550230e+05	1.016798e+05	2.884094e+02	1.075698e-01	2.959736e-01	0.000000e+00	
3.021795e-02	1.480124e-02	1.227804e+00	4.493826e+01	2.003336e+00	2.549251e+05	1.016404e+05	2.883818e+02	1.076182e-01	2.631538e-01	0.000000e+00	
1.265776e-02	2.835431e-02	1.226654e+00	4.494104e+01	5.883201e+00	2.546057e+05	1.015073e+05	2.882743e+02	1.085573e-01	1.521191e-01	0.000000e+00	
1.014332e-02	2.986659e-02	1.226734e+00	4.494233e+01	5.579168e+00	2.546286e+05	1.015171e+05	2.882830e+02	1.084595e-01	1.602372e-01	0.000000e+00	
7.618771e-03	3.138927e-02	1.226971e+00	4.493313e+01	4.898467e+00	2.546917e+05	1.015437e+05	2.883029e+02	1.082242e-01	1.824400e-01	0.000000e+00	
5.076538e-03	3.293092e-02	1.227256e+00	4.494612e+01	3.757863e+00	2.547747e+05	1.015784e+05	2.883345e+02	1.079624e-01	2.113830e-01	0.000000e+00	
1.516701e-02	2.684592e-02	1.226645e+00	4.494282e+01	5.881898e+00	2.546040e+05	1.015066e+05	2.882742e+02	1.085619e-01	1.515196e-01	0.000000e+00	
1.767502e-02	2.533850e-02	1.226729e+00	4.494302e+01	5.637691e+00	2.546264e+05	1.015161e+05	2.882813e+02	1.084793e-01	1.593957e-01	0.000000e+00	
2.018384e-02	2.383105e-02	1.226862e+00	4.494150e+01	5.195078e+00	2.546630e+05	1.015316e+05	2.882941e+02	1.083347e-01	1.723218e-01	0.000000e+00	
2.269436e-02	2.232290e-02	1.227047e+00	4.494131e+01	4.568070e+00	2.547145e+05	1.015532e+05	2.883119e+02	1.081524e-01	1.903679e-01	0.000000e+00	
2.520782e-02	2.081340e-02	1.227281e+00	4.493908e+01	3.806121e+00	2.547788e+05	1.015800e+05	2.883332e+02	1.079533e-01	2.127698e-01	0.000000e+00	
2.772707e-02	1.930172e-02	1.227532e+00	4.493964e+01	2.938456e+00	2.548489e+05	1.016091e+05	2.883568e+02	1.077728e-01	2.370260e-01	0.000000e+00	
0.000000e+00	3.303235e-02	1.228433e+00	4.496429e+01	-1.185566e-01	2.551023e+05	1.017117e+05	2.884363e+02	1.075088e-01	3.226374e-01	0.000000e+00	
3.276120e-02	6.789287e-03	1.228064e+00	4.494427e+01	1.000067e+00	2.550022e+05	1.016717e+05	2.884094e+02	1.075244e-01	2.892722e-01	0.000000e+00	
3.274284e-02	1.010763e-02	1.228085e+00	4.493418e+01	9.941598e-01	2.550059e+05	1.016734e+05	2.884093e+02	1.074982e-01	2.906473e-01	0.000000e+00	
3.276632e-02	1.324711e-02	1.228082e+00	4.493577e+01	9.864350e-01	2.550049e+05	1.016729e+05	2.884088e+02	1.075020e-01	2.902721e-01	0.000000e+00	
3.025692e-02	1.778771e-02	1.227807e+00	4.494061e+01	1.987488e+00	2.549260e+05	1.016408e+05	2.883821e+02	1.076218e-01	2.634492e-01	0.000000e+00	
2.508208e-03	3.449775e-02	1.227887e+00	4.492039e+01	2.062861e+00	2.549413e+05	1.016472e+05	2.883814e+02	1.075747e-01	2.687716e-01	0.000000e+00	
3.510401e-02	2.179711e-03	1.228346e+00	4.500166e+01	7.353434e-02	2.550806e+05	1.017025e+05	2.884304e+02	1.076066e-01	3.149183e-01	0.000000e+00	
3.519093e-02	5.146021e-03	1.228358e+00	4.498440e+01	7.225291e-03	2.550844e+05	1.017043e+05	2.884328e+02	1.075637e-01	3.164117e-01	0.000000e+00	
3.280274e-02	1.627337e-02	1.228090e+00	4.494005e+01	9.714688e-01	2.550067e+05	1.016736e+05	2.884087e+02	1.075107e-01	2.908536e-01	0.000000e+00	
1.270134e-02	3.129144e-02	1.226647e+00	4.494064e+01	5.885187e+00	2.546044e+05	1.015068e+05	2.882742e+02	1.085576e-01	1.516760e-01	0.000000e+00	
1.521403e-02	2.977836e-02	1.226644e+00	4.494317e+01	5.878678e+00	2.546039e+05	1.015066e+05	2.882744e+02	1.085618e-01	1.514911e-01	0.000000e+00	
1.018134e-02	3.281405e-02	1.226727e+00	4.494124e+01	5.586442e+00	2.546270e+05	1.015164e+05	2.882829e+02	1.084597e-01	1.597129e-01	0.000000e+00	
7.647114e-03	3.435538e-02	1.226960e+00	4.493160e+01	4.908486e+00	2.546892e+05	1.015427e+05	2.883026e+02	1.082242e-01	1.816056e-01	0.000000e+00	
5.089171e-03	3.592396e-02	1.227254e+00	4.494263e+01	3.767566e+00	2.547742e+05	1.015782e+05	2.883343e+02	1.079562e-01	2.112279e-01	0.000000e+00	
1.772397e-02	2.826908e-02	1.226730e+00	4.494440e+01	5.629585e+00	2.546268e+05	1.015162e+05	2.882816e+02	1.084800e-01	1.595437e-01	0.000000e+00	
2.023354e-02	2.676100e-02	1.226865e+00	4.494391e+01	5.183490e+00	2.546641e+05	1.015320e+05	2.882944e+02	1.083369e-01	1.726647e-01	0.000000e+00	
2.274398e-02	2.525328e-02	1.227052e+00	4.494431e+01	4.554155e+00	2.547158e+05	1.015537e+05	2.883123e+02	1.081558e-01	1.907784e-01	0.000000e+00	
2.525658e-02	2.374595e-02	1.227286e+00	4.494224e+01	3.789194e+00	2.547803e+05	1.015806e+05	2.883337e+02	1.079569e-01	2.132644e-01	0.000000e+00	
2.777391e-02	2.223978e-02	1.227537e+00	4.494195e+01	2.919318e+00	2.548505e+05	1.016098e+05	2.883575e+02	1.077748e-01	2.375548e-01	0.000000e+00	
3.030062e-02	2.073682e-02	1.227813e+00	4.494277e+01	1.968249e+00	2.549279e+05	1.016415e+05	2.883828e+02	1.076243e-01	2.640395e-01	0.000000e+00	
0.000000e+00	3.603529e-02	1.228433e+00	4.496327e+01	-1.251060e-01	2.551024e+05	1.017118e+05	2.884365e+02	1.075064e-01	3.226999e-01	0.000000e+00	
3.526742e-02	8.480626e-03	1.228359e+00	4.494444e+01	-4.850569e-02	2.550856e+05	1.017054e+05	2.884356e+02	1.074676e-01	3.173158e-01	0.000000e+00	
3.532343e-02	1.168801e-02	1.228363e+00	4.493595e+01	-8.010413e-02	2.550867e+05	1.017059e+05	2.884363e+02	1.074470e-01	3.177701e-01	0.000000e+00	
3.536772e-02	1.476369e-02	1.228371e+00	4.493766e+01	-9.949327e-02	2.550883e+05	1.017065e+05	2.884362e+02	1.074505e-01	3.183046e-01	0.000000e+00	
3.284295e-02	1.924131e-02	1.228093e+00	4.494236e+01	9.539941e-01	2.550077e+05	1.016740e+05	2.884091e+02	1.075150e-01	2.911352e-01	0.000000e+00	
2.498258e-03	3.751618e-02	1.227889e+00	4.491595e+01	2.065660e+00	2.549417e+05	1.016474e+05	2.883815e+02	1.075642e-01	2.689561e-01	0.000000e+00	
3.736025e-02	3.236084e-03	1.228560e+00	4.499822e+01	-9.068854e-01	2.551466e+05	1.017289e+05	2.884552e+02	1.075968e-01	3.369343e-01	0.000000e+00	
3.773935e-02	6.829790e-03	1.228644e+00	4.497514e+01	-1.065249e+00	2.551670e+05	1.017373e+05	2.884594e+02	1.075418e-01	3.439886e-01	0.000000e+00	
3.540632e-02	1.775964e-02	1.228375e+00	4.494188e+01	-1.161640e-01	2.550894e+05	1.017069e+05	2.884363e+02	1.074603e-01	3.185968e-01	0.000000e+00	
1.526269e-02	3.271598e-02	1.226646e+00	4.494243e+01	5.873942e+00	2.546044e+05	1.015068e+05	2.882745e+02	1.085584e-01	1.516867e-01	0.000000e+00	
1.274759e-02	3.423789e-02	1.226651e+00	4.493836e+01	5.885877e+00	2.546050e+05	1.015071e+05	2.882743e+02	1.085521e-01	1.519127e-01	0.000000e+00	
1.777369e-02	3.120277e-02	1.226734e+00	4.494452e+01	5.621126e+00	2.546279e+05	1.015167e+05	2.882818e+02	1.084774e-01	1.599054e-01	0.000000e+00	
1.022286e-02	3.577831e-02	1.226724e+00	4.493838e+01	5.590387e+00	2.546262e+05	1.015162e+05	2.882827e+02	1.084544e-01	1.594758e-01	0.000000e+00	
7.679718e-03	3.734925e-02	1.226962e+00	4.492616e+01	4.918664e+00	2.546893e+05	1.015428e+05	2.883024e+02	1.082138e-01	1.816922e-01	0.000000e+00	
5.107482e-03	3.895638e-02	1.227247e+00	4.493669e+01	3.777560e+00	2.547723e+05	1.015775e+05	2.883340e+02	1.079447e-01	2.106507e-01	0.000000e+00	
2.028356e-02	2.969287e-02	1.226870e+00	4.494505e+01	5.171622e+00	2.546653e+05	1.015325e+05	2.882948e+02	1.083359e-01	1.730820e-01	0.000000e+00	
2.279384e-02	2.818419e-02	1.227057e+00	4.494630e+01	4.540189e+00	2.547172e+05	1.015543e+05	2.883127e+02	1.081566e-01	1.912573e-01	0.000000e+00	
2.530576e-02	2.667665e-02	1.227291e+00	4.494490e+01	3.772627e+00	2.547818e+05	1.015812e+05	2.883342e+02	1.079594e-01	2.137354e-01	0.000000e+00	
2.782151e-02	2.517164e-02	1.227542e+00	4.494440e+01	2.900668e+00	2.548522e+05	1.016104e+05	2.883581e+02	1.077772e-01	2.380935e-01	0.000000e+00	
3.034528e-02	2.367241e-02	1.227818e+00	4.494488e+01	1.949679e+00	2.549295e+05	1.016421e+05	2.883834e+02	1.076269e-01	2.645742e-01	0.000000e+00	
3.288326e-02	2.218483e-02	1.228096e+00	4.494374e+01	9.367176e-01	2.550090e+05	1.016745e+05	2.884098e+02	1.075170e-01	2.915738e-01	0.000000e+00	
0.000000e+00	3.903824e-02	1.228432e+00	4.496058e+01	-1.274938e-01	2.551023e+05	1.017118e+05	2.884368e+02	1.075000e-01	3.227078e-01	0.000000e+00	
3.788458e-02	1.013184e-02	1.228640e+00	4.494560e+01	-1.133342e+00	2.551677e+05	1.017380e+05	2.884623e+02	1.074749e-01	3.445854e-01	0.000000e+00	
3.795320e-02	1.326603e-02	1.228652e+00	4.493756e+01	-1.168945e+00	2.551706e+05	1.017393e+05	2.884631e+02	1.074567e-01	3.456443e-01	0.000000e+00	
3.977078e-02	1.788709e-03	1.228794e+00	4.496802e+01	-1.844070e+00	2.552184e+05	1.017577e+05	2.884817e+02	1.075676e-01	3.609605e-01	0.000000e+00	
3.799348e-02	1.629860e-02	1.228653e+00	4.493912e+01	-1.186561e+00	2.551710e+05	1.017394e+05	2.884631e+02	1.074614e-01	3.457355e-01	0.000000e+00	
3.544154e-02	2.071761e-02	1.228383e+00	4.494476e+01	-1.303089e-01	2.550915e+05	1.017077e+05	2.884366e+02	1.074665e-01	3.192666e-01	0.000000e+00	
2.495006e-03	4.057704e-02	1.227894e+00	4.490476e+01	2.074788e+00	2.549423e+05	1.016478e+05	2.883815e+02	1.075380e-01	2.692835e-01	0.000000e+00	
4.026966e-02	5.221982e-03	1.228922e+00	4.498812e+01	-2.021982e+00	2.552463e+05	1.017685e+05	2.884825e+02	1.076226e-01	3.699646e-01	0.000000e+00	
4.047810e-02	8.605361e-03	1.228944e+00	4.496911e+01	-2.103203e+00	2.552526e+05	1.017712e+05	2.884850e+02	1.075836e-01	3.722710e-01	0.000000e+00	
3.802281e-02	1.927925e-02	1.228662e+00	4.494338e+01	-1.197529e+00	2.551731e+05	1.017402e+05	2.884631e+02	1.074715e-01	3.463762e-01	0.000000e+00	
1.782604e-02	3.414613e-02	1.226733e+00	4.494271e+01	5.611799e+00	2.546278e+05	1.015167e+05	2.882821e+02	1.084703e-01	1.599231e-01	0.000000e+00	
1.531547e-02	3.566767e-02	1.226646e+00	4.494058e+01	5.869275e+00	2.546044e+05	1.015069e+05	2.882746e+02	1.085525e-01	1.517099e-01	0.000000e+00	
1.279962e-02	3.720694e-02	1.226644e+00	4.493680e+01	5.885631e+00	2.546036e+05	1.015065e+05	2.882741e+02	1.085489e-01	1.514461e-01	0.000000e+00	
2.033493e-02	3.263211e-02	1.226872e+00	4.494392e+01	5.159044e+00	2.546660e+05	1.015328e+05	2.882952e+02	1.083295e-01	1.733311e-01	0.000000e+00	
1.027186e-02	3.877950e-02	1.226729e+00	4.493601e+01	5.598063e+00	2.546269e+05	1.015165e+05	2.882824e+02	1.084506e-01	1.597198e-01	0.000000e+00	
7.721901e-03	4.039915e-02	1.226948e+00	4.492483e+01	4.926313e+00	2.546858e+05	1.015414e+05	2.883018e+02	1.082140e-01	1.805195e-01	0.000000e+00	
5.140418e-03	4.207263e-02	1.227260e+00	4.493340e+01	3.795979e+00	2.547744e+05	1.015784e+05	2.883334e+02	1.079395e-01	2.113777e-01	0.000000e+00	
2.284420e-02	3.112072e-02	1.227060e+00	4.494626e+01	4.525661e+00	2.547182e+05	1.015547e+05	2.883131e+02	1.081526e-01	1.916169e-01	0.000000e+00	
2.535513e-02	2.961094e-02	1.227295e+00	4.494570e+01	3.756272e+00	2.547831e+05	1.015817e+05	2.883347e+02	1.079576e-01	2.141795e-01	0.000000e+00	
2.786925e-02	2.810449e-02	1.227547e+00	4.494574e+01	2.882414e+00	2.548538e+05	1.016110e+05	2.883586e+02	1.077770e-01	2.386114e-01	0.000000e+00	
3.038985e-02	2.660553e-02	1.227824e+00	4.494654e+01	1.931741e+00	2.549313e+05	1.016428e+05	2.883840e+02	1.076283e-01	2.651582e-01	0.000000e+00	
3.292248e-02	2.512090e-02	1.228099e+00	4.494437e+01	9.205257e-01	2.550101e+05	1.016749e+05	2.884103e+02	1.075174e-01	2.919451e-01	0.000000e+00	
3.547357e-02	2.366032e-02	1.228387e+00	4.494569e+01	-1.440939e-01	2.550927e+05	1.017082e+05	2.884371e+02	1.074684e-01	3.196770e-01	0.000000e+00	
0.000000e+00	4.204118e-02	1.228429e+00	4.495535e+01	-1.114551e-01	2.551016e+05	1.017116e+05	2.884369e+02	1.074876e-01	3.225274e-01	0.000000e+00	
4.056727e-02	1.179413e-02	1.228950e+00	4.494934e+01	-2.148047e+00	2.552547e+05	1.017723e+05	2.884869e+02	1.075407e-01	3.731953e-01	0.000000e+00	
4.060674e-02	1.486398e-02	1.228952e+00	4.494317e+01	-2.169421e+00	2.552555e+05	1.017727e+05	2.884873e+02	1.075281e-01	3.734959e-01	0.000000e+00	
4.259207e-02	3.613248e-03	1.229107e+00	4.495159e+01	-3.123144e+00	2.553103e+05	1.017937e+05	2.885106e+02	1.076642e-01	3.910437e-01	0.000000e+00	
4.062653e-02	1.787269e-02	1.228958e+00	4.494630e+01	-2.179835e+00	2.552568e+05	1.017732e+05	2.884872e+02	1.075362e-01	3.739123e-01	0.000000e+00	
3.804734e-02	2.223608e-02	1.228654e+00	4.494228e+01	-1.210967e+00	2.551716e+05	1.017396e+05	2.884635e+02	1.074704e-01	3.459024e-01	0.000000e+00	
2.516072e-03	4.375984e-02	1.227898e+00	4.489471e+01	2.094521e+00	2.549423e+05	1.016479e+05	2.883810e+02	1.075160e-01	2.693814e-01	0.000000e+00	
4.271834e-02	7.167714e-03	1.229163e+00	4.496156e+01	-3.174199e+00	2.553219e+05	1.017982e+05	2.885100e+02	1.076917e-01	3.947671e-01	0.000000e+00	
4.279454e-02	1.037865e-02	1.229159e+00	4.495066e+01	-3.200850e+00	2.553216e+05	1.017982e+05	2.885110e+02	1.076704e-01	3.947847e-01	0.000000e+00	
4.063996e-02	2.085269e-02	1.228953e+00	4.495029e+01	-2.192134e+00	2.552559e+05	1.017728e+05	2.884872e+02	1.075476e-01	3.735598e-01	0.000000e+00	
2.039015e-02	3.558881e-02	1.226878e+00	4.494295e+01	5.146098e+00	2.546675e+05	1.015334e+05	2.882955e+02	1.083230e-01	1.738651e-01	0.000000e+00	
1.788492e-02	3.711082e-02	1.226740e+00	4.494147e+01	5.602903e+00	2.546294e+05	1.015173e+05	2.882823e+02	1.084641e-01	1.604598e-01	0.000000e+00	
1.537703e-02	3.864836e-02	1.226648e+00	4.494100e+01	5.863256e+00	2.546046e+05	1.015069e+05	2.882746e+02	1.085515e-01	1.517881e-01	0.000000e+00	
1.286317e-02	4.021874e-02	1.226649e+00	4.493778e+01	5.886278e+00	2.546043e+05	1.015068e+05	2.882738e+02	1.085510e-01	1.516792e-01	0.000000e+00	
2.289601e-02	3.407224e-02	1.227068e+00	4.494543e+01	4.511298e+00	2.547200e+05	1.015554e+05	2.883136e+02	1.081465e-01	1.922458e-01	0.000000e+00	
1.033541e-02	4.184656e-02	1.226708e+00	4.494236e+01	5.597182e+00	2.546221e+05	1.015144e+05	2.882817e+02	1.084675e-01	1.580214e-01	0.000000e+00	
7.779500e-03	4.353305e-02	1.226979e+00	4.493097e+01	4.945347e+00	2.546918e+05	1.015437e+05	2.883010e+02	1.082310e-01	1.824294e-01	0.000000e+00	
5.203854e-03	4.533834e-02	1.227190e+00	4.496996e+01	3.795763e+00	2.547597e+05	1.015719e+05	2.883317e+02	1.080332e-01	2.060154e-01	0.000000e+00	
2.540472e-02	3.255737e-02	1.227301e+00	4.494547e+01	3.740094e+00	2.547845e+05	1.015823e+05	2.883352e+02	1.079533e-01	2.146853e-01	0.000000e+00	
2.791708e-02	3.104581e-02	1.227553e+00	4.494582e+01	2.864781e+00	2.548555e+05	1.016117e+05	2.883591e+02	1.077739e-01	2.391926e-01	0.000000e+00	
3.043462e-02	2.954337e-02	1.227829e+00	4.494668e+01	1.914417e+00	2.549329e+05	1.016435e+05	2.883845e+02	1.076263e-01	2.657016e-01	0.000000e+00	
3.296135e-02	2.805854e-02	1.228103e+00	4.494428e+01	9.059639e-01	2.550113e+05	1.016754e+05	2.884108e+02	1.075160e-01	2.923598e-01	0.000000e+00	
3.550317e-02	2.660102e-02	1.228394e+00	4.494479e+01	-1.536847e-01	2.550945e+05	1.017089e+05	2.884376e+02	1.074656e-01	3.202852e-01	0.000000e+00	
3.806580e-02	2.517997e-02	1.228658e+00	4.494095e+01	-1.221102e+00	2.551729e+05	1.017401e+05	2.884639e+02	1.074674e-01	3.463362e-01	0.000000e+00	
0.000000e+00	4.504412e-02	1.228363e+00	4.493650e+01	-7.462669e-02	2.550869e+05	1.017060e+05	2.884363e+02	1.074482e-01	3.178197e-01	0.000000e+00	
4.282811e-02	1.346329e-02	1.229163e+00	4.493887e+01	-3.219788e+00	2.553227e+05	1.017988e+05	2.885118e+02	1.076450e-01	3.952516e-01	0.000000e+00	
4.284125e-02	1.648934e-02	1.229164e+00	4.493793e+01	-3.229091e+00	2.553229e+05	1.017989e+05	2.885118e+02	1.076443e-01	3.953366e-01	0.000000e+00	
4.569681e-02	3.002941e-03	1.229456e+00	4.497057e+01	-4.505726e+00	2.554129e+05	1.018329e+05	2.885395e+02	1.079525e-01	4.236843e-01	0.000000e+00	