TITLE = "SU2 Simulation"
VARIABLES = "Iteration","CL","CD","CSF","CMx","CMy","CMz","CFx","CFy","CFz","CL/CD","AoA","Custom_ObjFunc","Res_Flow[0]","Res_Flow[1]","Res_Flow[2]","Res_Flow[3]","Res_Flow[4]","Linear_Solver_Iterations","CFL_Number","Time(min)"
ZONE T= "Convergence history"
           0, 0.00000000e+00, 0.00000000e+00, 0.00000000e+00, 0.00000000e+00, 0.00000000e+00, 0.00000000e+00, 0.00000000e+00, 0.00000000e+00, 0.00000000e+00, 0.00000000e+00, 0.00000000e+00, 0.00000000e+00, -3.29190815e+00, -8.19452209e-01, -1.36462793e+01, 2.14870946e+00, 0.00000000e+00, 5.0000000000, 6.0000000000, 0.0004850667
           1, 0.00000000e+00, 0.00000000e+00, 0.00000000e+00, 0.00000000e+00, 0.00000000e+00, 0.00000000e+00, 0.00000000e+00, 0.00000000e+00, 0.00000000e+00, 0.00000000e+00, 0.00000000e+00, 0.00000000e+00, -3.53877944e+00, -1.07102664e+00, -2.92143190e+00, 1.90375808e+00, 0.00000000e+00, 5.0000000000, 6.0000000000, 0.0009960000
           2, 0.00000000e+00, 0.00000000e+00, 0.00000000e+00, 0.00000000e+00, 0.00000000e+00, 0.00000000e+00, 0.00000000e+00, 0.00000000e+00, 0.00000000e+00, 0.00000000e+00, 0.00000000e+00, 0.00000000e+00, -3.67384752e+00, -1.20096672e+00, -2.53348520e+00, 1.76941972e+00, 0.00000000e+00, 5.0000000000, 6.0000000000, 0.0014259500
           3, 0.00000000e+00, 0.00000000e+00, 0.00000000e+00, 0.00000000e+00, 0.00000000e+00, 0.00000000e+00, 0.00000000e+00, 0.00000000e+00, 0.00000000e+00, 0.00000000e+00, 0.00000000e+00, 0.00000000e+00, -3.72707711e+00, -1.25571963e+00, -2.30930203e+00, 1.71492048e+00, 0.00000000e+00, 5.0000000000, 6.0000000000, 0.0018761500
           4, 0.00000000e+00, 0.00000000e+00, 0.00000000e+00, 0.00000000e+00, 0.00000000e+00, 0.00000000e+00, 0.00000000e+00, 0.00000000e+00, 0.00000000e+00, 0.00000000e+00, 0.00000000e+00, 0.00000000e+00, -3.76146122e+00, -1.29213855e+00, -2.18765451e+00, 1.68018275e+00, 0.00000000e+00, 5.0000000000, 6.0000000000, 0.0023227500
           5, 0.00000000e+00, 0.00000000e+00, 0.00000000e+00, 0.00000000e+00, 0.00000000e+00, 0.00000000e+00, 0.00000000e+00, 0.00000000e+00, 0.00000000e+00, 0.00000000e+00, 0.00000000e+00, 0.00000000e+00, -3.78745221e+00, -1.31496318e+00, -2.10922596e+00, 1.65497725e+00, 0.00000000e+00, 5.0000000000, 6.0000000000, 0.0027870500
           6, 0.00000000e+00, 0.00000000e+00, 0.00000000e+00, 0.00000000e+00, 0.00000000e+00, 0.00000000e+00, 0.00000000e+00, 0.00000000e+00, 0.00000000e+00, 0.00000000e+00, 0.00000000e+00, 0.00000000e+00, -3.80182726e+00, -1.32198517e+00, -2.05401251e+00, 1.64261776e+00, 0.00000000e+00, 5.0000000000, 6.0000000000, 0.0032338333
           7, 0.00000000e+00, 0.00000000e+00, 0.00000000e+00, 0.00000000e+00, 0.00000000e+00, 0.00000000e+00, 0.00000000e+00, 0.00000000e+00, 0.00000000e+00, 0.00000000e+00, 0.00000000e+00, 0.00000000e+00, -3.80599620e+00, -1.31682534e+00, -2.01377556e+00, 1.64139269e+00, 0.00000000e+00, 5.0000000000, 6.0000000000, 0.0036867833
           8, 0.00000000e+00, 0.00000000e+00, 0.00000000e+00, 0.00000000e+00, 0.00000000e+00, 0.00000000e+00, 0.00000000e+00, 0.00000000e+00, 0.00000000e+00, 0.00000000e+00, 0.00000000e+00, 0.00000000e+00, -3.80480445e+00, -1.30642809e+00, -1.98381073e+00, 1.64569089e+00, 0.00000000e+00, 5.0000000000, 6.0000000000, 0.0041253167
           9, 0.00000000e+00, 0.00000000e+00, 0.00000000e+00, 0.00000000e+00, 0.00000000e+00, 0.00000000e+00, 0.00000000e+00, 0.00000000e+00, 0.00000000e+00, 0.00000000e+00, 0.00000000e+00, 0.00000000e+00, -3.80305251e+00, -1.29723917e+00, -1.96097835e+00, 1.65000953e+00, 0.00000000e+00, 5.0000000000, 6.0000000000, 0.0045743833
          10, 0.00000000e+00, 0.00000000e+00, 0.00000000e+00, 0.00000000e+00, 0.00000000e+00, 0.00000000e+00, 0.00000000e+00, 0.00000000e+00, 0.00000000e+00, 0.00000000e+00, 0.00000000e+00, 0.00000000e+00, -3.80396291e+00, -1.29324988e+00, -1.94325881e+00, 1.65078863e+00, 0.00000000e+00, 5.0000000000, 6.0000000000, 0.0050177667
          11, 0.00000000e+00, 0.00000000e+00, 0.00000000e+00, 0.00000000e+00, 0.00000000e+00, 0.00000000e+00, 0.00000000e+00, 0.00000000e+00, 0.00000000e+00, 0.00000000e+00, 0.00000000e+00, 0.00000000e+00, -3.80883789e+00, -1.29573089e+00, -1.92939332e+00, 1.64671929e+00, 0.00000000e+00, 5.0000000000, 6.0000000000, 0.0054295167
          12, 0.00000000e+00, 0.00000000e+00, 0.00000000e+00, 0.00000000e+00, 0.00000000e+00, 0.00000000e+00, 0.00000000e+00, 0.00000000e+00, 0.00000000e+00, 0.00000000e+00, 0.00000000e+00, 0.00000000e+00, -3.81730373e+00, -1.30379923e+00, -1.91856266e+00, 1.63836531e+00, 0.00000000e+00, 5.0000000000, 6.0000000000, 0.0058322333
          13, 0.00000000e+00, 0.00000000e+00, 0.00000000e+00, 0.00000000e+00, 0.00000000e+00, 0.00000000e+00, 0.00000000e+00, 0.00000000e+00, 0.00000000e+00, 0.00000000e+00, 0.00000000e+00, 0.00000000e+00, -3.82794196e+00, -1.31527595e+00, -1.91020595e+00, 1.62742013e+00, 0.00000000e+00, 5.0000000000, 6.0000000000, 0.0063151167
          14, 0.00000000e+00, 0.00000000e+00, 0.00000000e+00, 0.00000000e+00, 0.00000000e+00, 0.00000000e+00, 0.00000000e+00, 0.00000000e+00, 0.00000000e+00, 0.00000000e+00, 0.00000000e+00, 0.00000000e+00, -3.83913020e+00, -1.32760097e+00, -1.90394048e+00, 1.61577663e+00, 0.00000000e+00, 5.0000000000, 6.0000000000, 0.0067695167
          15, 0.00000000e+00, 0.00000000e+00, 0.00000000e+00, 0.00000000e+00, 0.00000000e+00, 0.00000000e+00, 0.00000000e+00, 0.00000000e+00, 0.00000000e+00, 0.00000000e+00, 0.00000000e+00, 0.00000000e+00, -3.84984362e+00, -1.33855945e+00, -1.89951049e+00, 1.60464680e+00, 0.00000000e+00, 5.0000000000, 6.0000000000, 0.0071990167
          16, 0.00000000e+00, 0.00000000e+00, 0.00000000e+00, 0.00000000e+00, 0.00000000e+00, 0.00000000e+00, 0.00000000e+00, 0.00000000e+00, 0.00000000e+00, 0.00000000e+00, 0.00000000e+00, 0.00000000e+00, -3.86015226e+00, -1.34653645e+00, -1.89673280e+00, 1.59401955e+00, 0.00000000e+00, 5.0000000000, 6.0000000000, 0.0076187667
          17, 0.00000000e+00, 0.00000000e+00, 0.00000000e+00, 0.00000000e+00, 0.00000000e+00, 0.00000000e+00, 0.00000000e+00, 0.00000000e+00, 0.00000000e+00, 0.00000000e+00, 0.00000000e+00, 0.00000000e+00, -3.87130693e+00, -1.35030460e+00, -1.89543500e+00, 1.58258482e+00, 0.00000000e+00, 5.0000000000, 6.0000000000, 0.0080598500
          18, 0.00000000e+00, 0.00000000e+00, 0.00000000e+00, 0.00000000e+00, 0.00000000e+00, 0.00000000e+00, 0.00000000e+00, 0.00000000e+00, 0.00000000e+00, 0.00000000e+00, 0.00000000e+00, 0.00000000e+00, -3.88553074e+00, -1.34877780e+00, -1.89540877e+00, 1.56798405e+00, 0.00000000e+00, 5.0000000000, 6.0000000000, 0.0084912500
          19, 0.00000000e+00, 0.00000000e+00, 0.00000000e+00, 0.00000000e+00, 0.00000000e+00, 0.00000000e+00, 0.00000000e+00, 0.00000000e+00, 0.00000000e+00, 0.00000000e+00, 0.00000000e+00, 0.00000000e+00, -3.90571435e+00, -1.34120424e+00, -1.89640585e+00, 1.54714299e+00, 0.00000000e+00, 5.0000000000, 6.0000000000, 0.0089212333
          20, 0.00000000e+00, 0.00000000e+00, 0.00000000e+00, 0.00000000e+00, 0.00000000e+00, 0.00000000e+00, 0.00000000e+00, 0.00000000e+00, 0.00000000e+00, 0.00000000e+00, 0.00000000e+00, 0.00000000e+00, -3.93516180e+00, -1.32780060e+00, -1.89816245e+00, 1.51650551e+00, 0.00000000e+00, 5.0000000000, 6.0000000000, 0.0093506833
          21, 0.00000000e+00, 0.00000000e+00, 0.00000000e+00, 0.00000000e+00, 0.00000000e+00, 0.00000000e+00, 0.00000000e+00, 0.00000000e+00, 0.00000000e+00, 0.00000000e+00, 0.00000000e+00, 0.00000000e+00, -3.97741055e+00, -1.31023587e+00, -1.90043696e+00, 1.47212221e+00, 0.00000000e+00, 5.0000000000, 6.0000000000, 0.0097865667
          22, 0.00000000e+00, 0.00000000e+00, 0.00000000e+00, 0.00000000e+00, 0.00000000e+00, 0.00000000e+00, 0.00000000e+00, 0.00000000e+00, 0.00000000e+00, 0.00000000e+00, 0.00000000e+00, 0.00000000e+00, -4.03594518e+00, -1.29140230e+00, -1.90303877e+00, 1.40972510e+00, 0.00000000e+00, 5.0000000000, 6.0000000000, 0.0102089333
          23, 0.00000000e+00, 0.00000000e+00, 0.00000000e+00, 0.00000000e+00, 0.00000000e+00, 0.00000000e+00, 0.00000000e+00, 0.00000000e+00, 0.00000000e+00, 0.00000000e+00, 0.00000000e+00, 0.00000000e+00, -4.11301250e+00, -1.27461076e+00, -1.90583894e+00, 1.32549408e+00, 0.00000000e+00, 5.0000000000, 6.0000000000, 0.0106284000
          24, 0.00000000e+00, 0.00000000e+00, 0.00000000e+00, 0.00000000e+00, 0.00000000e+00, 0.00000000e+00, 0.00000000e+00, 0.00000000e+00, 0.00000000e+00, 0.00000000e+00, 0.00000000e+00, 0.00000000e+00, -4.20453513e+00, -1.26280049e+00, -1.90875879e+00, 1.22091174e+00, 0.00000000e+00, 5.0000000000, 6.0000000000, 0.0110515500
          25, 0.00000000e+00, 0.00000000e+00, 0.00000000e+00, 0.00000000e+00, 0.00000000e+00, 0.00000000e+00, 0.00000000e+00, 0.00000000e+00, 0.00000000e+00, 0.00000000e+00, 0.00000000e+00, 0.00000000e+00, -4.28423883e+00, -1.25812391e+00, -1.91174493e+00, 1.12356462e+00, 0.00000000e+00, 5.0000000000, 6.0000000000, 0.0114691500
          26, 0.00000000e+00, 0.00000000e+00, 0.00000000e+00, 0.00000000e+00, 0.00000000e+00, 0.00000000e+00, 0.00000000e+00, 0.00000000e+00, 0.00000000e+00, 0.00000000e+00, 0.00000000e+00, 0.00000000e+00, -4.29583502e+00, -1.26186854e+00, -1.91474141e+00, 1.10970587e+00, 0.00000000e+00, 5.0000000000, 6.0000000000, 0.0118988000
          27, 0.00000000e+00, 0.00000000e+00, 0.00000000e+00, 0.00000000e+00, 0.00000000e+00, 0.00000000e+00, 0.00000000e+00, 0.00000000e+00, 0.00000000e+00, 0.00000000e+00, 0.00000000e+00, 0.00000000e+00, -4.22922777e+00, -1.27452635e+00, -1.91767185e+00, 1.19371057e+00, 0.00000000e+00, 5.0000000000, 6.0000000000, 0.0123551167
          28, 0.00000000e+00, 0.00000000e+00, 0.00000000e+00, 0.00000000e+00, 0.00000000e+00, 0.00000000e+00, 0.00000000e+00, 0.00000000e+00, 0.00000000e+00, 0.00000000e+00, 0.00000000e+00, 0.00000000e+00, -4.13967261e+00, -1.29586196e+00, -1.92043776e+00, 1.29800085e+00, 0.00000000e+00, 5.0000000000, 6.0000000000, 0.0127916500
          29, 0.00000000e+00, 0.00000000e+00, 0.00000000e+00, 0.00000000e+00, 0.00000000e+00, 0.00000000e+00, 0.00000000e+00, 0.00000000e+00, 0.00000000e+00, 0.00000000e+00, 0.00000000e+00, 0.00000000e+00, -4.06110489e+00, -1.32491777e+00, -1.92293084e+00, 1.38478598e+00, 0.00000000e+00, 5.0000000000, 6.0000000000, 0.0132455000
          30, 0.00000000e+00, 0.00000000e+00, 0.00000000e+00, 0.00000000e+00, 0.00000000e+00, 0.00000000e+00, 0.00000000e+00, 0.00000000e+00, 0.00000000e+00, 0.00000000e+00, 0.00000000e+00, 0.00000000e+00, -4.00066147e+00, -1.35995581e+00, -1.92505068e+00, 1.44966628e+00, 0.00000000e+00, 5.0000000000, 6.0000000000, 0.0137103833
          31, 0.00000000e+00, 0.00000000e+00, 0.00000000e+00, 0.00000000e+00, 0.00000000e+00, 0.00000000e+00, 0.00000000e+00, 0.00000000e+00, 0.00000000e+00, 0.00000000e+00, 0.00000000e+00, 0.00000000e+00, -3.95700855e+00, -1.39840013e+00, -1.92672073e+00, 1.49581660e+00, 0.00000000e+00, 5.0000000000, 6.0000000000, 0.0141634833
          32, 0.00000000e+00, 0.00000000e+00, 0.00000000e+00, 0.00000000e+00, 0.00000000e+00, 0.00000000e+00, 0.00000000e+00, 0.00000000e+00, 0.00000000e+00, 0.00000000e+00, 0.00000000e+00, 0.00000000e+00, -3.92720934e+00, -1.43692619e+00, -1.92789644e+00, 1.52707770e+00, 0.00000000e+00, 5.0000000000, 6.0000000000, 0.0146098500
          33, 0.00000000e+00, 0.00000000e+00, 0.00000000e+00, 0.00000000e+00, 0.00000000e+00, 0.00000000e+00, 0.00000000e+00, 0.00000000e+00, 0.00000000e+00, 0.00000000e+00, 0.00000000e+00, 0.00000000e+00, -3.90839384e+00, -1.47189420e+00, -1.92856489e+00, 1.54676397e+00, 0.00000000e+00, 5.0000000000, 6.0000000000, 0.0150672500
          34, 0.00000000e+00, 0.00000000e+00, 0.00000000e+00, 0.00000000e+00, 0.00000000e+00, 0.00000000e+00, 0.00000000e+00, 0.00000000e+00, 0.00000000e+00, 0.00000000e+00, 0.00000000e+00, 0.00000000e+00, -3.89810109e+00, -1.50018845e+00, -1.92873795e+00, 1.55756741e+00, 0.00000000e+00, 5.0000000000, 6.0000000000, 0.0155040167
          35, 0.00000000e+00, 0.00000000e+00, 0.00000000e+00, 0.00000000e+00, 0.00000000e+00, 0.00000000e+00, 0.00000000e+00, 0.00000000e+00, 0.00000000e+00, 0.00000000e+00, 0.00000000e+00, 0.00000000e+00, -3.89434049e+00, -1.52012844e+00, -1.92844369e+00, 1.56160587e+00, 0.00000000e+00, 5.0000000000, 6.0000000000, 0.0159777167
          36, 0.00000000e+00, 0.00000000e+00, 0.00000000e+00, 0.00000000e+00, 0.00000000e+00, 0.00000000e+00, 0.00000000e+00, 0.00000000e+00, 0.00000000e+00, 0.00000000e+00, 0.00000000e+00, 0.00000000e+00, -3.89560419e+00, -1.53183537e+00, -1.92771927e+00, 1.56045969e+00, 0.00000000e+00, 5.0000000000, 6.0000000000, 0.0164174333
          37, 0.00000000e+00, 0.00000000e+00, 0.00000000e+00, 0.00000000e+00, 0.00000000e+00, 0.00000000e+00, 0.00000000e+00, 0.00000000e+00, 0.00000000e+00, 0.00000000e+00, 0.00000000e+00, 0.00000000e+00, -3.90085855e+00, -1.53680161e+00, -1.92660663e+00, 1.55520321e+00, 0.00000000e+00, 5.0000000000, 6.0000000000, 0.0169044167
          38, 0.00000000e+00, 0.00000000e+00, 0.00000000e+00, 0.00000000e+00, 0.00000000e+00, 0.00000000e+00, 0.00000000e+00, 0.00000000e+00, 0.00000000e+00, 0.00000000e+00, 0.00000000e+00, 0.00000000e+00, -3.90950041e+00, -1.53708765e+00, -1.92514987e+00, 1.54646028e+00, 0.00000000e+00, 5.0000000000, 6.0000000000, 0.0174309833
          39, 0.00000000e+00, 0.00000000e+00, 0.00000000e+00, 0.00000000e+00, 0.00000000e+00, 0.00000000e+00, 0.00000000e+00, 0.00000000e+00, 0.00000000e+00, 0.00000000e+00, 0.00000000e+00, 0.00000000e+00, -3.92126928e+00, -1.53471495e+00, -1.92339411e+00, 1.53449911e+00, 0.00000000e+00, 5.0000000000, 6.0000000000, 0.0178226333
          40, 0.00000000e+00, 0.00000000e+00, 0.00000000e+00, 0.00000000e+00, 0.00000000e+00, 0.00000000e+00, 0.00000000e+00, 0.00000000e+00, 0.00000000e+00, 0.00000000e+00, 0.00000000e+00, 0.00000000e+00, -3.93612374e+00, -1.53143564e+00, -1.92138456e+00, 1.51936150e+00, 0.00000000e+00, 5.0000000000, 6.0000000000, 0.0182329000
          41, 0.00000000e+00, 0.00000000e+00, 0.00000000e+00, 0.00000000e+00, 0.00000000e+00, 0.00000000e+00, 0.00000000e+00, 0.00000000e+00, 0.00000000e+00, 0.00000000e+00, 0.00000000e+00, 0.00000000e+00, -3.95409984e+00, -1.52874125e+00, -1.91916549e+00, 1.50100951e+00, 0.00000000e+00, 5.0000000000, 6.0000000000, 0.0186323333
          42, 0.00000000e+00, 0.00000000e+00, 0.00000000e+00, 0.00000000e+00, 0.00000000e+00, 0.00000000e+00, 0.00000000e+00, 0.00000000e+00, 0.00000000e+00, 0.00000000e+00, 0.00000000e+00, 0.00000000e+00, -3.97516800e+00, -1.52793496e+00, -1.91677901e+00, 1.47947427e+00, 0.00000000e+00, 5.0000000000, 6.0000000000, 0.0190698000
          43, 0.00000000e+00, 0.00000000e+00, 0.00000000e+00, 0.00000000e+00, 0.00000000e+00, 0.00000000e+00, 0.00000000e+00, 0.00000000e+00, 0.00000000e+00, 0.00000000e+00, 0.00000000e+00, 0.00000000e+00, -3.99909743e+00, -1.53018237e+00, -1.91426371e+00, 1.45499848e+00, 0.00000000e+00, 5.0000000000, 6.0000000000, 0.0194777333
          44, 0.00000000e+00, 0.00000000e+00, 0.00000000e+00, 0.00000000e+00, 0.00000000e+00, 0.00000000e+00, 0.00000000e+00, 0.00000000e+00, 0.00000000e+00, 0.00000000e+00, 0.00000000e+00, 0.00000000e+00, -4.02533419e+00, -1.53653048e+00, -1.91165356e+00, 1.42816718e+00, 0.00000000e+00, 5.0000000000, 6.0000000000, 0.0199112833
          45, 0.00000000e+00, 0.00000000e+00, 0.00000000e+00, 0.00000000e+00, 0.00000000e+00, 0.00000000e+00, 0.00000000e+00, 0.00000000e+00, 0.00000000e+00, 0.00000000e+00, 0.00000000e+00, 0.00000000e+00, -4.05290820e+00, -1.54791205e+00, -1.90897698e+00, 1.40001032e+00, 0.00000000e+00, 5.0000000000, 6.0000000000, 0.0203143667
          46, 0.00000000e+00, 0.00000000e+00, 0.00000000e+00, 0.00000000e+00, 0.00000000e+00, 0.00000000e+00, 0.00000000e+00, 0.00000000e+00, 0.00000000e+00, 0.00000000e+00, 0.00000000e+00, 0.00000000e+00, -4.08040867e+00, -1.56515031e+00, -1.90625644e+00, 1.37203300e+00, 0.00000000e+00, 5.0000000000, 6.0000000000, 0.0207381333
          47, 0.00000000e+00, 0.00000000e+00, 0.00000000e+00, 0.00000000e+00, 0.00000000e+00, 0.00000000e+00, 0.00000000e+00, 0.00000000e+00, 0.00000000e+00, 0.00000000e+00, 0.00000000e+00, 0.00000000e+00, -4.10609382e+00, -1.58896967e+00, -1.90350843e+00, 1.34609722e+00, 0.00000000e+00, 5.0000000000, 6.0000000000, 0.0211281000
          48, 0.00000000e+00, 0.00000000e+00, 0.00000000e+00, 0.00000000e+00, 0.00000000e+00, 0.00000000e+00, 0.00000000e+00, 0.00000000e+00, 0.00000000e+00, 0.00000000e+00, 0.00000000e+00, 0.00000000e+00, -4.12819251e+00, -1.62000977e+00, -1.90074414e+00, 1.32408749e+00, 0.00000000e+00, 5.0000000000, 6.0000000000, 0.0215779167
          49, 0.00000000e+00, 0.00000000e+00, 0.00000000e+00, 0.00000000e+00, 0.00000000e+00, 0.00000000e+00, 0.00000000e+00, 0.00000000e+00, 0.00000000e+00, 0.00000000e+00, 0.00000000e+00, 0.00000000e+00, -4.14536247e+00, -1.65883456e+00, -1.89797058e+00, 1.30740089e+00, 0.00000000e+00, 5.0000000000, 6.0000000000, 0.0219631333
          50, 0.00000000e+00, 0.00000000e+00, 0.00000000e+00, 0.00000000e+00, 0.00000000e+00, 0.00000000e+00, 0.00000000e+00, 0.00000000e+00, 0.00000000e+00, 0.00000000e+00, 0.00000000e+00, 0.00000000e+00, -4.15711355e+00, -1.70592082e+00, -1.89519186e+00, 1.29648537e+00, 0.00000000e+00, 5.0000000000, 6.0000000000, 0.0223887167
          51, 0.00000000e+00, 0.00000000e+00, 0.00000000e+00, 0.00000000e+00, 0.00000000e+00, 0.00000000e+00, 0.00000000e+00, 0.00000000e+00, 0.00000000e+00, 0.00000000e+00, 0.00000000e+00, 0.00000000e+00, -4.16394085e+00, -1.76159438e+00, -1.89241041e+00, 1.29071728e+00, 0.00000000e+00, 5.0000000000, 6.0000000000, 0.0227966000
          52, 0.00000000e+00, 0.00000000e+00, 0.00000000e+00, 0.00000000e+00, 0.00000000e+00, 0.00000000e+00, 0.00000000e+00, 0.00000000e+00, 0.00000000e+00, 0.00000000e+00, 0.00000000e+00, 0.00000000e+00, -4.16707804e+00, -1.82584435e+00, -1.88962773e+00, 1.28870348e+00, 0.00000000e+00, 5.0000000000, 6.0000000000, 0.0232696667
          53, 0.00000000e+00, 0.00000000e+00, 0.00000000e+00, 0.00000000e+00, 0.00000000e+00, 0.00000000e+00, 0.00000000e+00, 0.00000000e+00, 0.00000000e+00, 0.00000000e+00, 0.00000000e+00, 0.00000000e+00, -4.16804045e+00, -1.89786627e+00, -1.88684496e+00, 1.28879554e+00, 0.00000000e+00, 5.0000000000, 6.0000000000, 0.0236880167
          54, 0.00000000e+00, 0.00000000e+00, 0.00000000e+00, 0.00000000e+00, 0.00000000e+00, 0.00000000e+00, 0.00000000e+00, 0.00000000e+00, 0.00000000e+00, 0.00000000e+00, 0.00000000e+00, 0.00000000e+00, -4.16821476e+00, -1.97506046e+00, -1.88406299e+00, 1.28952623e+00, 0.00000000e+00, 5.0000000000, 6.0000000000, 0.0241586500
          55, 0.00000000e+00, 0.00000000e+00, 0.00000000e+00, 0.00000000e+00, 0.00000000e+00, 0.00000000e+00, 0.00000000e+00, 0.00000000e+00, 0.00000000e+00, 0.00000000e+00, 0.00000000e+00, 0.00000000e+00, -4.16863352e+00, -2.05124320e+00, -1.88128258e+00, 1.28983089e+00, 0.00000000e+00, 5.0000000000, 6.0000000000, 0.0245875000
          56, 0.00000000e+00, 0.00000000e+00, 0.00000000e+00, 0.00000000e+00, 0.00000000e+00, 0.00000000e+00, 0.00000000e+00, 0.00000000e+00, 0.00000000e+00, 0.00000000e+00, 0.00000000e+00, 0.00000000e+00, -4.16992553e+00, -2.11500154e+00, -1.87850447e+00, 1.28908042e+00, 0.00000000e+00, 5.0000000000, 6.0000000000, 0.0250129167
          57, 0.00000000e+00, 0.00000000e+00, 0.00000000e+00, 0.00000000e+00, 0.00000000e+00, 0.00000000e+00, 0.00000000e+00, 0.00000000e+00, 0.00000000e+00, 0.00000000e+00, 0.00000000e+00, 0.00000000e+00, -4.17236951e+00, -2.15252602e+00, -1.87572944e+00, 1.28701194e+00, 0.00000000e+00, 5.0000000000, 6.0000000000, 0.0254465000
          58, 0.00000000e+00, 0.00000000e+00, 0.00000000e+00, 0.00000000e+00, 0.00000000e+00, 0.00000000e+00, 0.00000000e+00, 0.00000000e+00, 0.00000000e+00, 0.00000000e+00, 0.00000000e+00, 0.00000000e+00, -4.17598614e+00, -2.15797153e+00, -1.87295852e+00, 1.28362638e+00, 0.00000000e+00, 5.0000000000, 6.0000000000, 0.0258780000
          59, 0.00000000e+00, 0.00000000e+00, 0.00000000e+00, 0.00000000e+00, 0.00000000e+00, 0.00000000e+00, 0.00000000e+00, 0.00000000e+00, 0.00000000e+00, 0.00000000e+00, 0.00000000e+00, 0.00000000e+00, -4.18063094e+00, -2.13927873e+00, -1.87019344e+00, 1.27909033e+00, 0.00000000e+00, 5.0000000000, 6.0000000000, 0.0263374000
          60, 0.00000000e+00, 0.00000000e+00, 0.00000000e+00, 0.00000000e+00, 0.00000000e+00, 0.00000000e+00, 0.00000000e+00, 0.00000000e+00, 0.00000000e+00, 0.00000000e+00, 0.00000000e+00, 0.00000000e+00, -4.18607270e+00, -2.10965167e+00, -1.86743676e+00, 1.27365540e+00, 0.00000000e+00, 5.0000000000, 6.0000000000, 0.0267838000
          61, 0.00000000e+00, 0.00000000e+00, 0.00000000e+00, 0.00000000e+00, 0.00000000e+00, 0.00000000e+00, 0.00000000e+00, 0.00000000e+00, 0.00000000e+00, 0.00000000e+00, 0.00000000e+00, 0.00000000e+00, -4.19205371e+00, -2.07855343e+00, -1.86469207e+00, 1.26759745e+00, 0.00000000e+00, 5.0000000000, 6.0000000000, 0.0272446667
          62, 0.00000000e+00, 0.00000000e+00, 0.00000000e+00, 0.00000000e+00, 0.00000000e+00, 0.00000000e+00, 0.00000000e+00, 0.00000000e+00, 0.00000000e+00, 0.00000000e+00, 0.00000000e+00, 0.00000000e+00, -4.19833301e+00, -2.05047553e+00, -1.86196409e+00, 1.26117332e+00, 0.00000000e+00, 5.0000000000, 6.0000000000, 0.0276658333
          63, 0.00000000e+00, 0.00000000e+00, 0.00000000e+00, 0.00000000e+00, 0.00000000e+00, 0.00000000e+00, 0.00000000e+00, 0.00000000e+00, 0.00000000e+00, 0.00000000e+00, 0.00000000e+00, 0.00000000e+00, -4.20471539e+00, -2.02685927e+00, -1.85925875e+00, 1.25459204e+00, 0.00000000e+00, 5.0000000000, 6.0000000000, 0.0281028500
          64, 0.00000000e+00, 0.00000000e+00, 0.00000000e+00, 0.00000000e+00, 0.00000000e+00, 0.00000000e+00, 0.00000000e+00, 0.00000000e+00, 0.00000000e+00, 0.00000000e+00, 0.00000000e+00, 0.00000000e+00, -4.21106887e+00, -2.00770823e+00, -1.85658306e+00, 1.24799734e+00, 0.00000000e+00, 5.0000000000, 6.0000000000, 0.0285603500
          65, 0.00000000e+00, 0.00000000e+00, 0.00000000e+00, 0.00000000e+00, 0.00000000e+00, 0.00000000e+00, 0.00000000e+00, 0.00000000e+00, 0.00000000e+00, 0.00000000e+00, 0.00000000e+00, 0.00000000e+00, -4.21733280e+00, -1.99243297e+00, -1.85394517e+00, 1.24145936e+00, 0.00000000e+00, 5.0000000000, 6.0000000000, 0.0289767000
          66, 0.00000000e+00, 0.00000000e+00, 0.00000000e+00, 0.00000000e+00, 0.00000000e+00, 0.00000000e+00, 0.00000000e+00, 0.00000000e+00, 0.00000000e+00, 0.00000000e+00, 0.00000000e+00, 0.00000000e+00, -4.22351850e+00, -1.98022854e+00, -1.85135415e+00, 1.23497377e+00, 0.00000000e+00, 5.0000000000, 6.0000000000, 0.0294360667
          67, 0.00000000e+00, 0.00000000e+00, 0.00000000e+00, 0.00000000e+00, 0.00000000e+00, 0.00000000e+00, 0.00000000e+00, 0.00000000e+00, 0.00000000e+00, 0.00000000e+00, 0.00000000e+00, 0.00000000e+00, -4.22970367e+00, -1.97023476e+00, -1.84881989e+00, 1.22846703e+00, 0.00000000e+00, 5.0000000000, 6.0000000000, 0.0298136667
          68, 0.00000000e+00, 0.00000000e+00, 0.00000000e+00, 0.00000000e+00, 0.00000000e+00, 0.00000000e+00, 0.00000000e+00, 0.00000000e+00, 0.00000000e+00, 0.00000000e+00, 0.00000000e+00, 0.00000000e+00, -4.23602196e+00, -1.96161011e+00, -1.84635293e+00, 1.22180671e+00, 0.00000000e+00, 5.0000000000, 6.0000000000, 0.0301981333
          69, 0.00000000e+00, 0.00000000e+00, 0.00000000e+00, 0.00000000e+00, 0.00000000e+00, 0.00000000e+00, 0.00000000e+00, 0.00000000e+00, 0.00000000e+00, 0.00000000e+00, 0.00000000e+00, 0.00000000e+00, -4.24264939e+00, -1.95357853e+00, -1.84396424e+00, 1.21481501e+00, 0.00000000e+00, 5.0000000000, 6.0000000000, 0.0305647833
          70, 0.00000000e+00, 0.00000000e+00, 0.00000000e+00, 0.00000000e+00, 0.00000000e+00, 0.00000000e+00, 0.00000000e+00, 0.00000000e+00, 0.00000000e+00, 0.00000000e+00, 0.00000000e+00, 0.00000000e+00, -4.24978942e+00, -1.94547226e+00, -1.84166501e+00, 1.20728381e+00, 0.00000000e+00, 5.0000000000, 6.0000000000, 0.0308919333
          71, 0.00000000e+00, 0.00000000e+00, 0.00000000e+00, 0.00000000e+00, 0.00000000e+00, 0.00000000e+00, 0.00000000e+00, 0.00000000e+00, 0.00000000e+00, 0.00000000e+00, 0.00000000e+00, 0.00000000e+00, -4.25765870e+00, -1.93677320e+00, -1.83946638e+00, 1.19898917e+00, 0.00000000e+00, 5.0000000000, 6.0000000000, 0.0312402000
          72, 0.00000000e+00, 0.00000000e+00, 0.00000000e+00, 0.00000000e+00, 0.00000000e+00, 0.00000000e+00, 0.00000000e+00, 0.00000000e+00, 0.00000000e+00, 0.00000000e+00, 0.00000000e+00, 0.00000000e+00, -4.26647535e+00, -1.92714510e+00, -1.83737908e+00, 1.18970338e+00, 0.00000000e+00, 5.0000000000, 6.0000000000, 0.0315724333
          73, 0.00000000e+00, 0.00000000e+00, 0.00000000e+00, 0.00000000e+00, 0.00000000e+00, 0.00000000e+00, 0.00000000e+00, 0.00000000e+00, 0.00000000e+00, 0.00000000e+00, 0.00000000e+00, 0.00000000e+00, -4.27645092e+00, -1.91644546e+00, -1.83541276e+00, 1.17920310e+00, 0.00000000e+00, 5.0000000000, 6.0000000000, 0.0318971333
          74, 0.00000000e+00, 0.00000000e+00, 0.00000000e+00, 0.00000000e+00, 0.00000000e+00, 0.00000000e+00, 0.00000000e+00, 0.00000000e+00, 0.00000000e+00, 0.00000000e+00, 0.00000000e+00, 0.00000000e+00, -4.28778691e+00, -1.90471130e+00, -1.83357635e+00, 1.16727308e+00, 0.00000000e+00, 5.0000000000, 6.0000000000, 0.0322536167
          75, 0.00000000e+00, 0.00000000e+00, 0.00000000e+00, 0.00000000e+00, 0.00000000e+00, 0.00000000e+00, 0.00000000e+00, 0.00000000e+00, 0.00000000e+00, 0.00000000e+00, 0.00000000e+00, 0.00000000e+00, -4.30067608e+00, -1.89212163e+00, -1.83187995e+00, 1.15370459e+00, 0.00000000e+00, 5.0000000000, 6.0000000000, 0.0326025167
          76, 0.00000000e+00, 0.00000000e+00, 0.00000000e+00, 0.00000000e+00, 0.00000000e+00, 0.00000000e+00, 0.00000000e+00, 0.00000000e+00, 0.00000000e+00, 0.00000000e+00, 0.00000000e+00, 0.00000000e+00, -4.31530797e+00, -1.87894538e+00, -1.83033197e+00, 1.13828969e+00, 0.00000000e+00, 5.0000000000, 6.0000000000, 0.0330169333
          77, 0.00000000e+00, 0.00000000e+00, 0.00000000e+00, 0.00000000e+00, 0.00000000e+00, 0.00000000e+00, 0.00000000e+00, 0.00000000e+00, 0.00000000e+00, 0.00000000e+00, 0.00000000e+00, 0.00000000e+00, -4.33187831e+00, -1.86548891e+00, -1.82893921e+00, 1.12081116e+00, 0.00000000e+00, 5.0000000000, 6.0000000000, 0.0335430000
          78, 0.00000000e+00, 0.00000000e+00, 0.00000000e+00, 0.00000000e+00, 0.00000000e+00, 0.00000000e+00, 0.00000000e+00, 0.00000000e+00, 0.00000000e+00, 0.00000000e+00, 0.00000000e+00, 0.00000000e+00, -4.35060105e+00, -1.85205286e+00, -1.82770714e+00, 1.10102944e+00, 0.00000000e+00, 5.0000000000, 6.0000000000, 0.0340207167
          79, 0.00000000e+00, 0.00000000e+00, 0.00000000e+00, 0.00000000e+00, 0.00000000e+00, 0.00000000e+00, 0.00000000e+00, 0.00000000e+00, 0.00000000e+00, 0.00000000e+00, 0.00000000e+00, 0.00000000e+00, -4.37172176e+00, -1.83890369e+00, -1.82663991e+00, 1.07866774e+00, 0.00000000e+00, 5.0000000000, 6.0000000000, 0.0344899667
          80, 0.00000000e+00, 0.00000000e+00, 0.00000000e+00, 0.00000000e+00, 0.00000000e+00, 0.00000000e+00, 0.00000000e+00, 0.00000000e+00, 0.00000000e+00, 0.00000000e+00, 0.00000000e+00, 0.00000000e+00, -4.39553007e+00, -1.82626049e+00, -1.82574023e+00, 1.05339759e+00, 0.00000000e+00, 5.0000000000, 6.0000000000, 0.0349328667
          81, 0.00000000e+00, 0.00000000e+00, 0.00000000e+00, 0.00000000e+00, 0.00000000e+00, 0.00000000e+00, 0.00000000e+00, 0.00000000e+00, 0.00000000e+00, 0.00000000e+00, 0.00000000e+00, 0.00000000e+00, -4.42236785e+00, -1.81429405e+00, -1.82500936e+00, 1.02482815e+00, 0.00000000e+00, 5.0000000000, 6.0000000000, 0.0353830000
          82, 0.00000000e+00, 0.00000000e+00, 0.00000000e+00, 0.00000000e+00, 0.00000000e+00, 0.00000000e+00, 0.00000000e+00, 0.00000000e+00, 0.00000000e+00, 0.00000000e+00, 0.00000000e+00, 0.00000000e+00, -4.45262669e+00, -1.80313450e+00, -1.82444699e+00, 9.92506363e-01, 0.00000000e+00, 5.0000000000, 6.0000000000, 0.0358379333
          83, 0.00000000e+00, 0.00000000e+00, 0.00000000e+00, 0.00000000e+00, 0.00000000e+00, 0.00000000e+00, 0.00000000e+00, 0.00000000e+00, 0.00000000e+00, 0.00000000e+00, 0.00000000e+00, 0.00000000e+00, -4.48672232e+00, -1.79288335e+00, -1.82405121e+00, 9.55942618e-01, 0.00000000e+00, 5.0000000000, 6.0000000000, 0.0362799167
          84, 0.00000000e+00, 0.00000000e+00, 0.00000000e+00, 0.00000000e+00, 0.00000000e+00, 0.00000000e+00, 0.00000000e+00, 0.00000000e+00, 0.00000000e+00, 0.00000000e+00, 0.00000000e+00, 0.00000000e+00, -4.52502014e+00, -1.78362705e+00, -1.82381852e+00, 9.14693960e-01, 0.00000000e+00, 5.0000000000, 6.0000000000, 0.0367179333
          85, 0.00000000e+00, 0.00000000e+00, 0.00000000e+00, 0.00000000e+00, 0.00000000e+00, 0.00000000e+00, 0.00000000e+00, 0.00000000e+00, 0.00000000e+00, 0.00000000e+00, 0.00000000e+00, 0.00000000e+00, -4.56765710e+00, -1.77544945e+00, -1.82374382e+00, 8.68577317e-01, 0.00000000e+00, 5.0000000000, 6.0000000000, 0.0371925833
          86, 0.00000000e+00, 0.00000000e+00, 0.00000000e+00, 0.00000000e+00, 0.00000000e+00, 0.00000000e+00, 0.00000000e+00, 0.00000000e+00, 0.00000000e+00, 0.00000000e+00, 0.00000000e+00, 0.00000000e+00, -4.61415045e+00, -1.76844191e+00, -1.82382047e+00, 8.18166503e-01, 0.00000000e+00, 5.0000000000, 6.0000000000, 0.0376102500
          87, 0.00000000e+00, 0.00000000e+00, 0.00000000e+00, 0.00000000e+00, 0.00000000e+00, 0.00000000e+00, 0.00000000e+00, 0.00000000e+00, 0.00000000e+00, 0.00000000e+00, 0.00000000e+00, 0.00000000e+00, -4.66260784e+00, -1.76270995e+00, -1.82404033e+00, 7.65846682e-01, 0.00000000e+00, 5.0000000000, 6.0000000000, 0.0379934667
          88, 0.00000000e+00, 0.00000000e+00, 0.00000000e+00, 0.00000000e+00, 0.00000000e+00, 0.00000000e+00, 0.00000000e+00, 0.00000000e+00, 0.00000000e+00, 0.00000000e+00, 0.00000000e+00, 0.00000000e+00, -4.70840031e+00, -1.75837660e+00, -1.82439391e+00, 7.17624786e-01, 0.00000000e+00, 5.0000000000, 6.0000000000, 0.0384365333
          89, 0.00000000e+00, 0.00000000e+00, 0.00000000e+00, 0.00000000e+00, 0.00000000e+00, 0.00000000e+00, 0.00000000e+00, 0.00000000e+00, 0.00000000e+00, 0.00000000e+00, 0.00000000e+00, 0.00000000e+00, -4.74291754e+00, -1.75558316e+00, -1.82487045e+00, 6.84596838e-01, 0.00000000e+00, 5.0000000000, 6.0000000000, 0.0388962333