TITLE = "SU2 Simulation"
VARIABLES = "Iteration","CL","CD","CSF","CMx","CMy","CMz","CFx","CFy","CFz","CL/CD","AoA","Custom_ObjFunc","Res_Flow[0]","Res_Flow[1]","Res_Flow[2]","Res_Flow[3]","Res_Flow[4]","Linear_Solver_Iterations","CFL_Number","Time(min)"
ZONE T= "Convergence history"
           0, 0.00000000e+00, 0.00000000e+00, 0.00000000e+00, 0.00000000e+00, 0.00000000e+00, 0.00000000e+00, 0.00000000e+00, 0.00000000e+00, 0.00000000e+00, 0.00000000e+00, 0.00000000e+00, 0.00000000e+00, -3.43373958e+00, -8.23975863e-01, -1.23277511e+01, 2.08572544e+00, 0.00000000e+00, 5.0000000000, 5.0000000000, 0.0010716207
           1, 0.00000000e+00, 0.00000000e+00, 0.00000000e+00, 0.00000000e+00, 0.00000000e+00, 0.00000000e+00, 0.00000000e+00, 0.00000000e+00, 0.00000000e+00, 0.00000000e+00, 0.00000000e+00, 0.00000000e+00, -3.55599326e+00, -1.01401599e+00, -3.32826765e+00, 1.92497890e+00, 0.00000000e+00, 5.0000000000, 5.0000000000, 0.0021978500
           2, 0.00000000e+00, 0.00000000e+00, 0.00000000e+00, 0.00000000e+00, 0.00000000e+00, 0.00000000e+00, 0.00000000e+00, 0.00000000e+00, 0.00000000e+00, 0.00000000e+00, 0.00000000e+00, 0.00000000e+00, -3.41427581e+00, -9.16605972e-01, -2.90340005e+00, 2.03497619e+00, 0.00000000e+00, 5.0000000000, 5.0000000000, 0.0032637961
           3, 0.00000000e+00, 0.00000000e+00, 0.00000000e+00, 0.00000000e+00, 0.00000000e+00, 0.00000000e+00, 0.00000000e+00, 0.00000000e+00, 0.00000000e+00, 0.00000000e+00, 0.00000000e+00, 0.00000000e+00, -3.34305680e+00, -8.52377386e-01, -2.60952858e+00, 2.10138486e+00, 0.00000000e+00, 5.0000000000, 5.0000000000, 0.0042971364
           4, 0.00000000e+00, 0.00000000e+00, 0.00000000e+00, 0.00000000e+00, 0.00000000e+00, 0.00000000e+00, 0.00000000e+00, 0.00000000e+00, 0.00000000e+00, 0.00000000e+00, 0.00000000e+00, 0.00000000e+00, -3.31291315e+00, -8.23961342e-01, -2.47579229e+00, 2.13041542e+00, 0.00000000e+00, 5.0000000000, 5.0000000000, 0.0053336441
           5, 0.00000000e+00, 0.00000000e+00, 0.00000000e+00, 0.00000000e+00, 0.00000000e+00, 0.00000000e+00, 0.00000000e+00, 0.00000000e+00, 0.00000000e+00, 0.00000000e+00, 0.00000000e+00, 0.00000000e+00, -3.29908116e+00, -8.10642752e-01, -2.42868454e+00, 2.14395825e+00, 0.00000000e+00, 5.0000000000, 5.0000000000, 0.0063608925
           6, 0.00000000e+00, 0.00000000e+00, 0.00000000e+00, 0.00000000e+00, 0.00000000e+00, 0.00000000e+00, 0.00000000e+00, 0.00000000e+00, 0.00000000e+00, 0.00000000e+00, 0.00000000e+00, 0.00000000e+00, -3.29131901e+00, -8.03314165e-01, -2.43121255e+00, 2.15172782e+00, 0.00000000e+00, 5.0000000000, 5.0000000000, 0.0073686897
           7, 0.00000000e+00, 0.00000000e+00, 0.00000000e+00, 0.00000000e+00, 0.00000000e+00, 0.00000000e+00, 0.00000000e+00, 0.00000000e+00, 0.00000000e+00, 0.00000000e+00, 0.00000000e+00, 0.00000000e+00, -3.28601207e+00, -7.98585069e-01, -2.45571149e+00, 2.15716463e+00, 0.00000000e+00, 5.0000000000, 5.0000000000, 0.0083709962
           8, 0.00000000e+00, 0.00000000e+00, 0.00000000e+00, 0.00000000e+00, 0.00000000e+00, 0.00000000e+00, 0.00000000e+00, 0.00000000e+00, 0.00000000e+00, 0.00000000e+00, 0.00000000e+00, 0.00000000e+00, -3.28204107e+00, -7.95393177e-01, -2.48181038e+00, 2.16131845e+00, 0.00000000e+00, 5.0000000000, 5.0000000000, 0.0093825103
           9, 0.00000000e+00, 0.00000000e+00, 0.00000000e+00, 0.00000000e+00, 0.00000000e+00, 0.00000000e+00, 0.00000000e+00, 0.00000000e+00, 0.00000000e+00, 0.00000000e+00, 0.00000000e+00, 0.00000000e+00, -3.27906931e+00, -7.93733036e-01, -2.50205584e+00, 2.16450867e+00, 0.00000000e+00, 5.0000000000, 5.0000000000, 0.0103855818
          10, 0.00000000e+00, 0.00000000e+00, 0.00000000e+00, 0.00000000e+00, 0.00000000e+00, 0.00000000e+00, 0.00000000e+00, 0.00000000e+00, 0.00000000e+00, 0.00000000e+00, 0.00000000e+00, 0.00000000e+00, -3.27690922e+00, -7.94142282e-01, -2.51804802e+00, 2.16693802e+00, 0.00000000e+00, 5.0000000000, 5.0000000000, 0.0114700492
          11, 0.00000000e+00, 0.00000000e+00, 0.00000000e+00, 0.00000000e+00, 0.00000000e+00, 0.00000000e+00, 0.00000000e+00, 0.00000000e+00, 0.00000000e+00, 0.00000000e+00, 0.00000000e+00, 0.00000000e+00, -3.27529473e+00, -7.97403912e-01, -2.53095491e+00, 2.16890706e+00, 0.00000000e+00, 5.0000000000, 5.0000000000, 0.0125103228
          12, 0.00000000e+00, 0.00000000e+00, 0.00000000e+00, 0.00000000e+00, 0.00000000e+00, 0.00000000e+00, 0.00000000e+00, 0.00000000e+00, 0.00000000e+00, 0.00000000e+00, 0.00000000e+00, 0.00000000e+00, -3.27388377e+00, -8.04260423e-01, -2.54030210e+00, 2.17079146e+00, 0.00000000e+00, 5.0000000000, 5.0000000000, 0.0135478939
          13, 0.00000000e+00, 0.00000000e+00, 0.00000000e+00, 0.00000000e+00, 0.00000000e+00, 0.00000000e+00, 0.00000000e+00, 0.00000000e+00, 0.00000000e+00, 0.00000000e+00, 0.00000000e+00, 0.00000000e+00, -3.27244411e+00, -8.15034657e-01, -2.54830129e+00, 2.17282766e+00, 0.00000000e+00, 5.0000000000, 5.0000000000, 0.0145656890
          14, 0.00000000e+00, 0.00000000e+00, 0.00000000e+00, 0.00000000e+00, 0.00000000e+00, 0.00000000e+00, 0.00000000e+00, 0.00000000e+00, 0.00000000e+00, 0.00000000e+00, 0.00000000e+00, 0.00000000e+00, -3.27110347e+00, -8.29142386e-01, -2.56051530e+00, 2.17484002e+00, 0.00000000e+00, 5.0000000000, 5.0000000000, 0.0155904345
          15, 0.00000000e+00, 0.00000000e+00, 0.00000000e+00, 0.00000000e+00, 0.00000000e+00, 0.00000000e+00, 0.00000000e+00, 0.00000000e+00, 0.00000000e+00, 0.00000000e+00, 0.00000000e+00, 0.00000000e+00, -3.27047653e+00, -8.44619481e-01, -2.58205563e+00, 2.17611446e+00, 0.00000000e+00, 5.0000000000, 5.0000000000, 0.0167300959
          16, 0.00000000e+00, 0.00000000e+00, 0.00000000e+00, 0.00000000e+00, 0.00000000e+00, 0.00000000e+00, 0.00000000e+00, 0.00000000e+00, 0.00000000e+00, 0.00000000e+00, 0.00000000e+00, 0.00000000e+00, -3.27154254e+00, -8.58011743e-01, -2.61361663e+00, 2.17554692e+00, 0.00000000e+00, 5.0000000000, 5.0000000000, 0.0178666230
          17, 0.00000000e+00, 0.00000000e+00, 0.00000000e+00, 0.00000000e+00, 0.00000000e+00, 0.00000000e+00, 0.00000000e+00, 0.00000000e+00, 0.00000000e+00, 0.00000000e+00, 0.00000000e+00, 0.00000000e+00, -3.27531212e+00, -8.65181990e-01, -2.64866388e+00, 2.17201006e+00, 0.00000000e+00, 5.0000000000, 5.0000000000, 0.0189800907
          18, 0.00000000e+00, 0.00000000e+00, 0.00000000e+00, 0.00000000e+00, 0.00000000e+00, 0.00000000e+00, 0.00000000e+00, 0.00000000e+00, 0.00000000e+00, 0.00000000e+00, 0.00000000e+00, 0.00000000e+00, -3.28246134e+00, -8.63220886e-01, -2.67308976e+00, 2.16474372e+00, 0.00000000e+00, 5.0000000000, 5.0000000000, 0.0201468908
          19, 0.00000000e+00, 0.00000000e+00, 0.00000000e+00, 0.00000000e+00, 0.00000000e+00, 0.00000000e+00, 0.00000000e+00, 0.00000000e+00, 0.00000000e+00, 0.00000000e+00, 0.00000000e+00, 0.00000000e+00, -3.29305754e+00, -8.52234141e-01, -2.67348348e+00, 2.15364210e+00, 0.00000000e+00, 5.0000000000, 5.0000000000, 0.0213951146
          20, 0.00000000e+00, 0.00000000e+00, 0.00000000e+00, 0.00000000e+00, 0.00000000e+00, 0.00000000e+00, 0.00000000e+00, 0.00000000e+00, 0.00000000e+00, 0.00000000e+00, 0.00000000e+00, 0.00000000e+00, -3.30643707e+00, -8.35247368e-01, -2.65085439e+00, 2.13938752e+00, 0.00000000e+00, 5.0000000000, 5.0000000000, 0.0226567036
          21, 0.00000000e+00, 0.00000000e+00, 0.00000000e+00, 0.00000000e+00, 0.00000000e+00, 0.00000000e+00, 0.00000000e+00, 0.00000000e+00, 0.00000000e+00, 0.00000000e+00, 0.00000000e+00, 0.00000000e+00, -3.32124078e+00, -8.16385007e-01, -2.61866308e+00, 2.12343140e+00, 0.00000000e+00, 5.0000000000, 5.0000000000, 0.0240780296
          22, 0.00000000e+00, 0.00000000e+00, 0.00000000e+00, 0.00000000e+00, 0.00000000e+00, 0.00000000e+00, 0.00000000e+00, 0.00000000e+00, 0.00000000e+00, 0.00000000e+00, 0.00000000e+00, 0.00000000e+00, -3.33561465e+00, -7.99134257e-01, -2.58909064e+00, 2.10780768e+00, 0.00000000e+00, 5.0000000000, 5.0000000000, 0.0254764551
          23, 0.00000000e+00, 0.00000000e+00, 0.00000000e+00, 0.00000000e+00, 0.00000000e+00, 0.00000000e+00, 0.00000000e+00, 0.00000000e+00, 0.00000000e+00, 0.00000000e+00, 0.00000000e+00, 0.00000000e+00, -3.34758586e+00, -7.85676604e-01, -2.56765751e+00, 2.09474377e+00, 0.00000000e+00, 5.0000000000, 5.0000000000, 0.0265897591
          24, 0.00000000e+00, 0.00000000e+00, 0.00000000e+00, 0.00000000e+00, 0.00000000e+00, 0.00000000e+00, 0.00000000e+00, 0.00000000e+00, 0.00000000e+00, 0.00000000e+00, 0.00000000e+00, 0.00000000e+00, -3.35557087e+00, -7.76987514e-01, -2.55515974e+00, 2.08608839e+00, 0.00000000e+00, 5.0000000000, 5.0000000000, 0.0276740503
          25, 0.00000000e+00, 0.00000000e+00, 0.00000000e+00, 0.00000000e+00, 0.00000000e+00, 0.00000000e+00, 0.00000000e+00, 0.00000000e+00, 0.00000000e+00, 0.00000000e+00, 0.00000000e+00, 0.00000000e+00, -3.35885322e+00, -7.73155575e-01, -2.55032441e+00, 2.08273226e+00, 0.00000000e+00, 5.0000000000, 5.0000000000, 0.0287884158
          26, 0.00000000e+00, 0.00000000e+00, 0.00000000e+00, 0.00000000e+00, 0.00000000e+00, 0.00000000e+00, 0.00000000e+00, 0.00000000e+00, 0.00000000e+00, 0.00000000e+00, 0.00000000e+00, 0.00000000e+00, -3.35779952e+00, -7.73641332e-01, -2.55143298e+00, 2.08431880e+00, 0.00000000e+00, 5.0000000000, 5.0000000000, 0.0298168125
          27, 0.00000000e+00, 0.00000000e+00, 0.00000000e+00, 0.00000000e+00, 0.00000000e+00, 0.00000000e+00, 0.00000000e+00, 0.00000000e+00, 0.00000000e+00, 0.00000000e+00, 0.00000000e+00, 0.00000000e+00, -3.35369726e+00, -7.77422464e-01, -2.55706529e+00, 2.08941988e+00, 0.00000000e+00, 5.0000000000, 5.0000000000, 0.0308498393
          28, 0.00000000e+00, 0.00000000e+00, 0.00000000e+00, 0.00000000e+00, 0.00000000e+00, 0.00000000e+00, 0.00000000e+00, 0.00000000e+00, 0.00000000e+00, 0.00000000e+00, 0.00000000e+00, 0.00000000e+00, -3.34833268e+00, -7.83071813e-01, -2.56623126e+00, 2.09604093e+00, 0.00000000e+00, 5.0000000000, 5.0000000000, 0.0319130832
          29, 0.00000000e+00, 0.00000000e+00, 0.00000000e+00, 0.00000000e+00, 0.00000000e+00, 0.00000000e+00, 0.00000000e+00, 0.00000000e+00, 0.00000000e+00, 0.00000000e+00, 0.00000000e+00, 0.00000000e+00, -3.34355183e+00, -7.88849842e-01, -2.57813500e+00, 2.10214448e+00, 0.00000000e+00, 5.0000000000, 5.0000000000, 0.0331033196
          30, 0.00000000e+00, 0.00000000e+00, 0.00000000e+00, 0.00000000e+00, 0.00000000e+00, 0.00000000e+00, 0.00000000e+00, 0.00000000e+00, 0.00000000e+00, 0.00000000e+00, 0.00000000e+00, 0.00000000e+00, -3.34097329e+00, -7.92895554e-01, -2.59184391e+00, 2.10598006e+00, 0.00000000e+00, 5.0000000000, 5.0000000000, 0.0344929869
          31, 0.00000000e+00, 0.00000000e+00, 0.00000000e+00, 0.00000000e+00, 0.00000000e+00, 0.00000000e+00, 0.00000000e+00, 0.00000000e+00, 0.00000000e+00, 0.00000000e+00, 0.00000000e+00, 0.00000000e+00, -3.34187606e+00, -7.93556743e-01, -2.60609267e+00, 2.10619968e+00, 0.00000000e+00, 5.0000000000, 5.0000000000, 0.0356370107
          32, 0.00000000e+00, 0.00000000e+00, 0.00000000e+00, 0.00000000e+00, 0.00000000e+00, 0.00000000e+00, 0.00000000e+00, 0.00000000e+00, 0.00000000e+00, 0.00000000e+00, 0.00000000e+00, 0.00000000e+00, -3.34719930e+00, -7.89795536e-01, -2.61933604e+00, 2.10184382e+00, 0.00000000e+00, 5.0000000000, 5.0000000000, 0.0368505925
          33, 0.00000000e+00, 0.00000000e+00, 0.00000000e+00, 0.00000000e+00, 0.00000000e+00, 0.00000000e+00, 0.00000000e+00, 0.00000000e+00, 0.00000000e+00, 0.00000000e+00, 0.00000000e+00, 0.00000000e+00, -3.35757596e+00, -7.81491151e-01, -2.63003571e+00, 2.09229296e+00, 0.00000000e+00, 5.0000000000, 5.0000000000, 0.0382954602
          34, 0.00000000e+00, 0.00000000e+00, 0.00000000e+00, 0.00000000e+00, 0.00000000e+00, 0.00000000e+00, 0.00000000e+00, 0.00000000e+00, 0.00000000e+00, 0.00000000e+00, 0.00000000e+00, 0.00000000e+00, -3.37333668e+00, -7.69464349e-01, -2.63705142e+00, 2.07725545e+00, 0.00000000e+00, 5.0000000000, 5.0000000000, 0.0393931991
          35, 0.00000000e+00, 0.00000000e+00, 0.00000000e+00, 0.00000000e+00, 0.00000000e+00, 0.00000000e+00, 0.00000000e+00, 0.00000000e+00, 0.00000000e+00, 0.00000000e+00, 0.00000000e+00, 0.00000000e+00, -3.39443178e+00, -7.55211203e-01, -2.63994207e+00, 2.05684544e+00, 0.00000000e+00, 5.0000000000, 5.0000000000, 0.0404954555
          36, 0.00000000e+00, 0.00000000e+00, 0.00000000e+00, 0.00000000e+00, 0.00000000e+00, 0.00000000e+00, 0.00000000e+00, 0.00000000e+00, 0.00000000e+00, 0.00000000e+00, 0.00000000e+00, 0.00000000e+00, -3.42021827e+00, -7.40509754e-01, -2.63903012e+00, 2.03180282e+00, 0.00000000e+00, 5.0000000000, 5.0000000000, 0.0414950210
          37, 0.00000000e+00, 0.00000000e+00, 0.00000000e+00, 0.00000000e+00, 0.00000000e+00, 0.00000000e+00, 0.00000000e+00, 0.00000000e+00, 0.00000000e+00, 0.00000000e+00, 0.00000000e+00, 0.00000000e+00, -3.44906399e+00, -7.27088377e-01, -2.63522861e+00, 2.00389640e+00, 0.00000000e+00, 5.0000000000, 5.0000000000, 0.0425090589
          38, 0.00000000e+00, 0.00000000e+00, 0.00000000e+00, 0.00000000e+00, 0.00000000e+00, 0.00000000e+00, 0.00000000e+00, 0.00000000e+00, 0.00000000e+00, 0.00000000e+00, 0.00000000e+00, 0.00000000e+00, -3.47780308e+00, -7.16442852e-01, -2.62975459e+00, 1.97645458e+00, 0.00000000e+00, 5.0000000000, 5.0000000000, 0.0435303597
          39, 0.00000000e+00, 0.00000000e+00, 0.00000000e+00, 0.00000000e+00, 0.00000000e+00, 0.00000000e+00, 0.00000000e+00, 0.00000000e+00, 0.00000000e+00, 0.00000000e+00, 0.00000000e+00, 0.00000000e+00, -3.50139079e+00, -7.09787133e-01, -2.62386619e+00, 1.95463147e+00, 0.00000000e+00, 5.0000000000, 5.0000000000, 0.0445683262
          40, 0.00000000e+00, 0.00000000e+00, 0.00000000e+00, 0.00000000e+00, 0.00000000e+00, 0.00000000e+00, 0.00000000e+00, 0.00000000e+00, 0.00000000e+00, 0.00000000e+00, 0.00000000e+00, 0.00000000e+00, -3.51366623e+00, -7.08083791e-01, -2.61869368e+00, 1.94448308e+00, 0.00000000e+00, 5.0000000000, 5.0000000000, 0.0455795515
          41, 0.00000000e+00, 0.00000000e+00, 0.00000000e+00, 0.00000000e+00, 0.00000000e+00, 0.00000000e+00, 0.00000000e+00, 0.00000000e+00, 0.00000000e+00, 0.00000000e+00, 0.00000000e+00, 0.00000000e+00, -3.50999984e+00, -7.12107358e-01, -2.61516035e+00, 1.95023326e+00, 0.00000000e+00, 5.0000000000, 5.0000000000, 0.0466567632
          42, 0.00000000e+00, 0.00000000e+00, 0.00000000e+00, 0.00000000e+00, 0.00000000e+00, 0.00000000e+00, 0.00000000e+00, 0.00000000e+00, 0.00000000e+00, 0.00000000e+00, 0.00000000e+00, 0.00000000e+00, -3.49031476e+00, -7.22513747e-01, -2.61395477e+00, 1.97148314e+00, 0.00000000e+00, 5.0000000000, 5.0000000000, 0.0476931517
          43, 0.00000000e+00, 0.00000000e+00, 0.00000000e+00, 0.00000000e+00, 0.00000000e+00, 0.00000000e+00, 0.00000000e+00, 0.00000000e+00, 0.00000000e+00, 0.00000000e+00, 0.00000000e+00, 0.00000000e+00, -3.45915455e+00, -7.39904310e-01, -2.61552654e+00, 2.00349634e+00, 0.00000000e+00, 5.0000000000, 5.0000000000, 0.0486983246
          44, 0.00000000e+00, 0.00000000e+00, 0.00000000e+00, 0.00000000e+00, 0.00000000e+00, 0.00000000e+00, 0.00000000e+00, 0.00000000e+00, 0.00000000e+00, 0.00000000e+00, 0.00000000e+00, 0.00000000e+00, -3.42271264e+00, -7.64880427e-01, -2.62009883e+00, 2.04020192e+00, 0.00000000e+00, 5.0000000000, 5.0000000000, 0.0497468783
          45, 0.00000000e+00, 0.00000000e+00, 0.00000000e+00, 0.00000000e+00, 0.00000000e+00, 0.00000000e+00, 0.00000000e+00, 0.00000000e+00, 0.00000000e+00, 0.00000000e+00, 0.00000000e+00, 0.00000000e+00, -3.38612994e+00, -7.98084483e-01, -2.62769585e+00, 2.07668706e+00, 0.00000000e+00, 5.0000000000, 5.0000000000, 0.0507934511
          46, 0.00000000e+00, 0.00000000e+00, 0.00000000e+00, 0.00000000e+00, 0.00000000e+00, 0.00000000e+00, 0.00000000e+00, 0.00000000e+00, 0.00000000e+00, 0.00000000e+00, 0.00000000e+00, 0.00000000e+00, -3.35267748e+00, -8.40213663e-01, -2.63817626e+00, 2.10986654e+00, 0.00000000e+00, 5.0000000000, 5.0000000000, 0.0518028168
          47, 0.00000000e+00, 0.00000000e+00, 0.00000000e+00, 0.00000000e+00, 0.00000000e+00, 0.00000000e+00, 0.00000000e+00, 0.00000000e+00, 0.00000000e+00, 0.00000000e+00, 0.00000000e+00, 0.00000000e+00, -3.32408930e+00, -8.91963477e-01, -2.65125331e+00, 2.13812024e+00, 0.00000000e+00, 5.0000000000, 5.0000000000, 0.0528360228
          48, 0.00000000e+00, 0.00000000e+00, 0.00000000e+00, 0.00000000e+00, 0.00000000e+00, 0.00000000e+00, 0.00000000e+00, 0.00000000e+00, 0.00000000e+00, 0.00000000e+00, 0.00000000e+00, 0.00000000e+00, -3.30112387e+00, -9.53775633e-01, -2.66647818e+00, 2.16075097e+00, 0.00000000e+00, 5.0000000000, 5.0000000000, 0.0538536273
          49, 0.00000000e+00, 0.00000000e+00, 0.00000000e+00, 0.00000000e+00, 0.00000000e+00, 0.00000000e+00, 0.00000000e+00, 0.00000000e+00, 0.00000000e+00, 0.00000000e+00, 0.00000000e+00, 0.00000000e+00, -3.28399448e+00, -1.02504683e+00, -2.68317341e+00, 2.17757704e+00, 0.00000000e+00, 5.0000000000, 5.0000000000, 0.0548579050
          50, 0.00000000e+00, 0.00000000e+00, 0.00000000e+00, 0.00000000e+00, 0.00000000e+00, 0.00000000e+00, 0.00000000e+00, 0.00000000e+00, 0.00000000e+00, 0.00000000e+00, 0.00000000e+00, 0.00000000e+00, -3.27263354e+00, -1.10198539e+00, -2.70033189e+00, 2.18868341e+00, 0.00000000e+00, 5.0000000000, 5.0000000000, 0.0561320586
          51, 0.00000000e+00, 0.00000000e+00, 0.00000000e+00, 0.00000000e+00, 0.00000000e+00, 0.00000000e+00, 0.00000000e+00, 0.00000000e+00, 0.00000000e+00, 0.00000000e+00, 0.00000000e+00, 0.00000000e+00, -3.26684008e+00, -1.17313049e+00, -2.71653795e+00, 2.19428305e+00, 0.00000000e+00, 5.0000000000, 5.0000000000, 0.0573648671
          52, 0.00000000e+00, 0.00000000e+00, 0.00000000e+00, 0.00000000e+00, 0.00000000e+00, 0.00000000e+00, 0.00000000e+00, 0.00000000e+00, 0.00000000e+00, 0.00000000e+00, 0.00000000e+00, 0.00000000e+00, -3.26635788e+00, -1.21616253e+00, -2.73000759e+00, 2.19464374e+00, 0.00000000e+00, 5.0000000000, 5.0000000000, 0.0588494890
          53, 0.00000000e+00, 0.00000000e+00, 0.00000000e+00, 0.00000000e+00, 0.00000000e+00, 0.00000000e+00, 0.00000000e+00, 0.00000000e+00, 0.00000000e+00, 0.00000000e+00, 0.00000000e+00, 0.00000000e+00, -3.27091491e+00, -1.21175314e+00, -2.73883979e+00, 2.19005136e+00, 0.00000000e+00, 5.0000000000, 5.0000000000, 0.0600433080
          54, 0.00000000e+00, 0.00000000e+00, 0.00000000e+00, 0.00000000e+00, 0.00000000e+00, 0.00000000e+00, 0.00000000e+00, 0.00000000e+00, 0.00000000e+00, 0.00000000e+00, 0.00000000e+00, 0.00000000e+00, -3.28024142e+00, -1.16768341e+00, -2.74146893e+00, 2.18079366e+00, 0.00000000e+00, 5.0000000000, 5.0000000000, 0.0611585960
          55, 0.00000000e+00, 0.00000000e+00, 0.00000000e+00, 0.00000000e+00, 0.00000000e+00, 0.00000000e+00, 0.00000000e+00, 0.00000000e+00, 0.00000000e+00, 0.00000000e+00, 0.00000000e+00, 0.00000000e+00, -3.29407544e+00, -1.10790811e+00, -2.73716337e+00, 2.16715628e+00, 0.00000000e+00, 5.0000000000, 5.0000000000, 0.0621833500
          56, 0.00000000e+00, 0.00000000e+00, 0.00000000e+00, 0.00000000e+00, 0.00000000e+00, 0.00000000e+00, 0.00000000e+00, 0.00000000e+00, 0.00000000e+00, 0.00000000e+00, 0.00000000e+00, 0.00000000e+00, -3.31215940e+00, -1.04899113e+00, -2.72631768e+00, 2.14942738e+00, 0.00000000e+00, 5.0000000000, 5.0000000000, 0.0632087520
          57, 0.00000000e+00, 0.00000000e+00, 0.00000000e+00, 0.00000000e+00, 0.00000000e+00, 0.00000000e+00, 0.00000000e+00, 0.00000000e+00, 0.00000000e+00, 0.00000000e+00, 0.00000000e+00, 0.00000000e+00, -3.33422948e+00, -9.97461652e-01, -2.71034810e+00, 2.12790959e+00, 0.00000000e+00, 5.0000000000, 5.0000000000, 0.0642287647
          58, 0.00000000e+00, 0.00000000e+00, 0.00000000e+00, 0.00000000e+00, 0.00000000e+00, 0.00000000e+00, 0.00000000e+00, 0.00000000e+00, 0.00000000e+00, 0.00000000e+00, 0.00000000e+00, 0.00000000e+00, -3.35999798e+00, -9.54849455e-01, -2.69125627e+00, 2.10293854e+00, 0.00000000e+00, 5.0000000000, 5.0000000000, 0.0652464453
          59, 0.00000000e+00, 0.00000000e+00, 0.00000000e+00, 0.00000000e+00, 0.00000000e+00, 0.00000000e+00, 0.00000000e+00, 0.00000000e+00, 0.00000000e+00, 0.00000000e+00, 0.00000000e+00, 0.00000000e+00, -3.38912843e+00, -9.20892103e-01, -2.67112897e+00, 2.07490773e+00, 0.00000000e+00, 5.0000000000, 5.0000000000, 0.0662682155
          60, 0.00000000e+00, 0.00000000e+00, 0.00000000e+00, 0.00000000e+00, 0.00000000e+00, 0.00000000e+00, 0.00000000e+00, 0.00000000e+00, 0.00000000e+00, 0.00000000e+00, 0.00000000e+00, 0.00000000e+00, -3.42120375e+00, -8.94835915e-01, -2.65179676e+00, 2.04429826e+00, 0.00000000e+00, 5.0000000000, 5.0000000000, 0.0672735282
          61, 0.00000000e+00, 0.00000000e+00, 0.00000000e+00, 0.00000000e+00, 0.00000000e+00, 0.00000000e+00, 0.00000000e+00, 0.00000000e+00, 0.00000000e+00, 0.00000000e+00, 0.00000000e+00, 0.00000000e+00, -3.45568981e+00, -8.75886241e-01, -2.63469945e+00, 2.01170931e+00, 0.00000000e+00, 5.0000000000, 5.0000000000, 0.0682871269
          62, 0.00000000e+00, 0.00000000e+00, 0.00000000e+00, 0.00000000e+00, 0.00000000e+00, 0.00000000e+00, 0.00000000e+00, 0.00000000e+00, 0.00000000e+00, 0.00000000e+00, 0.00000000e+00, 0.00000000e+00, -3.49190071e+00, -8.63341427e-01, -2.62089382e+00, 1.97788073e+00, 0.00000000e+00, 5.0000000000, 5.0000000000, 0.0692820454
          63, 0.00000000e+00, 0.00000000e+00, 0.00000000e+00, 0.00000000e+00, 0.00000000e+00, 0.00000000e+00, 0.00000000e+00, 0.00000000e+00, 0.00000000e+00, 0.00000000e+00, 0.00000000e+00, 0.00000000e+00, -3.52897867e+00, -8.56616068e-01, -2.61112226e+00, 1.94369347e+00, 0.00000000e+00, 5.0000000000, 5.0000000000, 0.0702800162
          64, 0.00000000e+00, 0.00000000e+00, 0.00000000e+00, 0.00000000e+00, 0.00000000e+00, 0.00000000e+00, 0.00000000e+00, 0.00000000e+00, 0.00000000e+00, 0.00000000e+00, 0.00000000e+00, 0.00000000e+00, -3.56590891e+00, -8.55227332e-01, -2.60588928e+00, 1.91012932e+00, 0.00000000e+00, 5.0000000000, 5.0000000000, 0.0712849449
          65, 0.00000000e+00, 0.00000000e+00, 0.00000000e+00, 0.00000000e+00, 0.00000000e+00, 0.00000000e+00, 0.00000000e+00, 0.00000000e+00, 0.00000000e+00, 0.00000000e+00, 0.00000000e+00, 0.00000000e+00, -3.60159201e+00, -8.58770038e-01, -2.60552147e+00, 1.87817592e+00, 0.00000000e+00, 5.0000000000, 5.0000000000, 0.0723116110
          66, 0.00000000e+00, 0.00000000e+00, 0.00000000e+00, 0.00000000e+00, 0.00000000e+00, 0.00000000e+00, 0.00000000e+00, 0.00000000e+00, 0.00000000e+00, 0.00000000e+00, 0.00000000e+00, 0.00000000e+00, -3.63498367e+00, -8.66888819e-01, -2.61020312e+00, 1.84868280e+00, 0.00000000e+00, 5.0000000000, 5.0000000000, 0.0733322002
          67, 0.00000000e+00, 0.00000000e+00, 0.00000000e+00, 0.00000000e+00, 0.00000000e+00, 0.00000000e+00, 0.00000000e+00, 0.00000000e+00, 0.00000000e+00, 0.00000000e+00, 0.00000000e+00, 0.00000000e+00, -3.66527690e+00, -8.79249547e-01, -2.61998499e+00, 1.82220760e+00, 0.00000000e+00, 5.0000000000, 5.0000000000, 0.0743468402
          68, 0.00000000e+00, 0.00000000e+00, 0.00000000e+00, 0.00000000e+00, 0.00000000e+00, 0.00000000e+00, 0.00000000e+00, 0.00000000e+00, 0.00000000e+00, 0.00000000e+00, 0.00000000e+00, 0.00000000e+00, -3.69205708e+00, -8.95510094e-01, -2.63476379e+00, 1.79891946e+00, 0.00000000e+00, 5.0000000000, 5.0000000000, 0.0754251536
          69, 0.00000000e+00, 0.00000000e+00, 0.00000000e+00, 0.00000000e+00, 0.00000000e+00, 0.00000000e+00, 0.00000000e+00, 0.00000000e+00, 0.00000000e+00, 0.00000000e+00, 0.00000000e+00, 0.00000000e+00, -3.71534304e+00, -9.15290335e-01, -2.65422599e+00, 1.77861896e+00, 0.00000000e+00, 5.0000000000, 5.0000000000, 0.0767520261
          70, 0.00000000e+00, 0.00000000e+00, 0.00000000e+00, 0.00000000e+00, 0.00000000e+00, 0.00000000e+00, 0.00000000e+00, 0.00000000e+00, 0.00000000e+00, 0.00000000e+00, 0.00000000e+00, 0.00000000e+00, -3.73546740e+00, -9.38142194e-01, -2.67774744e+00, 1.76088566e+00, 0.00000000e+00, 5.0000000000, 5.0000000000, 0.0778019316
          71, 0.00000000e+00, 0.00000000e+00, 0.00000000e+00, 0.00000000e+00, 0.00000000e+00, 0.00000000e+00, 0.00000000e+00, 0.00000000e+00, 0.00000000e+00, 0.00000000e+00, 0.00000000e+00, 0.00000000e+00, -3.75282552e+00, -9.63522733e-01, -2.70424646e+00, 1.74530806e+00, 0.00000000e+00, 5.0000000000, 5.0000000000, 0.0790000427
          72, 0.00000000e+00, 0.00000000e+00, 0.00000000e+00, 0.00000000e+00, 0.00000000e+00, 0.00000000e+00, 0.00000000e+00, 0.00000000e+00, 0.00000000e+00, 0.00000000e+00, 0.00000000e+00, 0.00000000e+00, -3.76757939e+00, -9.90776706e-01, -2.73201549e+00, 1.73172390e+00, 0.00000000e+00, 5.0000000000, 5.0000000000, 0.0802583054
          73, 0.00000000e+00, 0.00000000e+00, 0.00000000e+00, 0.00000000e+00, 0.00000000e+00, 0.00000000e+00, 0.00000000e+00, 0.00000000e+00, 0.00000000e+00, 0.00000000e+00, 0.00000000e+00, 0.00000000e+00, -3.77941434e+00, -1.01913927e+00, -2.75862398e+00, 1.72040415e+00, 0.00000000e+00, 5.0000000000, 5.0000000000, 0.0815429275
          74, 0.00000000e+00, 0.00000000e+00, 0.00000000e+00, 0.00000000e+00, 0.00000000e+00, 0.00000000e+00, 0.00000000e+00, 0.00000000e+00, 0.00000000e+00, 0.00000000e+00, 0.00000000e+00, 0.00000000e+00, -3.78743812e+00, -1.04777246e+00, -2.78108294e+00, 1.71212397e+00, 0.00000000e+00, 5.0000000000, 5.0000000000, 0.0829708575
          75, 0.00000000e+00, 0.00000000e+00, 0.00000000e+00, 0.00000000e+00, 0.00000000e+00, 0.00000000e+00, 0.00000000e+00, 0.00000000e+00, 0.00000000e+00, 0.00000000e+00, 0.00000000e+00, 0.00000000e+00, -3.79030648e+00, -1.07584640e+00, -2.79647892e+00, 1.70806459e+00, 0.00000000e+00, 5.0000000000, 5.0000000000, 0.0841834545
          76, 0.00000000e+00, 0.00000000e+00, 0.00000000e+00, 0.00000000e+00, 0.00000000e+00, 0.00000000e+00, 0.00000000e+00, 0.00000000e+00, 0.00000000e+00, 0.00000000e+00, 0.00000000e+00, 0.00000000e+00, -3.78662208e+00, -1.10266311e+00, -2.80300349e+00, 1.70950883e+00, 0.00000000e+00, 5.0000000000, 5.0000000000, 0.0853756990
          77, 0.00000000e+00, 0.00000000e+00, 0.00000000e+00, 0.00000000e+00, 0.00000000e+00, 0.00000000e+00, 0.00000000e+00, 0.00000000e+00, 0.00000000e+00, 0.00000000e+00, 0.00000000e+00, 0.00000000e+00, -3.77551615e+00, -1.12779803e+00, -2.80077873e+00, 1.71738004e+00, 0.00000000e+00, 5.0000000000, 5.0000000000, 0.0866048746
          78, 0.00000000e+00, 0.00000000e+00, 0.00000000e+00, 0.00000000e+00, 0.00000000e+00, 0.00000000e+00, 0.00000000e+00, 0.00000000e+00, 0.00000000e+00, 0.00000000e+00, 0.00000000e+00, 0.00000000e+00, -3.75712901e+00, -1.15121328e+00, -2.79179349e+00, 1.73181436e+00, 0.00000000e+00, 5.0000000000, 5.0000000000, 0.0877842254
          79, 0.00000000e+00, 0.00000000e+00, 0.00000000e+00, 0.00000000e+00, 0.00000000e+00, 0.00000000e+00, 0.00000000e+00, 0.00000000e+00, 0.00000000e+00, 0.00000000e+00, 0.00000000e+00, 0.00000000e+00, -3.73268275e+00, -1.17329722e+00, -2.77900829e+00, 1.75200996e+00, 0.00000000e+00, 5.0000000000, 5.0000000000, 0.0889928335
          80, 0.00000000e+00, 0.00000000e+00, 0.00000000e+00, 0.00000000e+00, 0.00000000e+00, 0.00000000e+00, 0.00000000e+00, 0.00000000e+00, 0.00000000e+00, 0.00000000e+00, 0.00000000e+00, 0.00000000e+00, -3.70411277e+00, -1.19481574e+00, -2.76535784e+00, 1.77643980e+00, 0.00000000e+00, 5.0000000000, 5.0000000000, 0.0901676111
          81, 0.00000000e+00, 0.00000000e+00, 0.00000000e+00, 0.00000000e+00, 0.00000000e+00, 0.00000000e+00, 0.00000000e+00, 0.00000000e+00, 0.00000000e+00, 0.00000000e+00, 0.00000000e+00, 0.00000000e+00, -3.67353128e+00, -1.21680390e+00, -2.75319037e+00, 1.80327106e+00, 0.00000000e+00, 5.0000000000, 5.0000000000, 0.0913266563
          82, 0.00000000e+00, 0.00000000e+00, 0.00000000e+00, 0.00000000e+00, 0.00000000e+00, 0.00000000e+00, 0.00000000e+00, 0.00000000e+00, 0.00000000e+00, 0.00000000e+00, 0.00000000e+00, 0.00000000e+00, -3.64280869e+00, -1.24043274e+00, -2.74415528e+00, 1.83075847e+00, 0.00000000e+00, 5.0000000000, 5.0000000000, 0.0927152626
          83, 0.00000000e+00, 0.00000000e+00, 0.00000000e+00, 0.00000000e+00, 0.00000000e+00, 0.00000000e+00, 0.00000000e+00, 0.00000000e+00, 0.00000000e+00, 0.00000000e+00, 0.00000000e+00, 0.00000000e+00, -3.61338661e+00, -1.26690185e+00, -2.73931577e+00, 1.85747000e+00, 0.00000000e+00, 5.0000000000, 5.0000000000, 0.0939156088
          84, 0.00000000e+00, 0.00000000e+00, 0.00000000e+00, 0.00000000e+00, 0.00000000e+00, 0.00000000e+00, 0.00000000e+00, 0.00000000e+00, 0.00000000e+00, 0.00000000e+00, 0.00000000e+00, 0.00000000e+00, -3.58627301e+00, -1.29738320e+00, -2.73931175e+00, 1.88234541e+00, 0.00000000e+00, 5.0000000000, 5.0000000000, 0.0951210597
          85, 0.00000000e+00, 0.00000000e+00, 0.00000000e+00, 0.00000000e+00, 0.00000000e+00, 0.00000000e+00, 0.00000000e+00, 0.00000000e+00, 0.00000000e+00, 0.00000000e+00, 0.00000000e+00, 0.00000000e+00, -3.56211822e+00, -1.33299505e+00, -2.74449777e+00, 1.90465992e+00, 0.00000000e+00, 5.0000000000, 5.0000000000, 0.0963065480
          86, 0.00000000e+00, 0.00000000e+00, 0.00000000e+00, 0.00000000e+00, 0.00000000e+00, 0.00000000e+00, 0.00000000e+00, 0.00000000e+00, 0.00000000e+00, 0.00000000e+00, 0.00000000e+00, 0.00000000e+00, -3.54130918e+00, -1.37477713e+00, -2.75503310e+00, 1.92395221e+00, 0.00000000e+00, 5.0000000000, 5.0000000000, 0.0975753443
          87, 0.00000000e+00, 0.00000000e+00, 0.00000000e+00, 0.00000000e+00, 0.00000000e+00, 0.00000000e+00, 0.00000000e+00, 0.00000000e+00, 0.00000000e+00, 0.00000000e+00, 0.00000000e+00, 0.00000000e+00, -3.52405193e+00, -1.42360358e+00, -2.77092192e+00, 1.93995143e+00, 0.00000000e+00, 5.0000000000, 5.0000000000, 0.0990162783
          88, 0.00000000e+00, 0.00000000e+00, 0.00000000e+00, 0.00000000e+00, 0.00000000e+00, 0.00000000e+00, 0.00000000e+00, 0.00000000e+00, 0.00000000e+00, 0.00000000e+00, 0.00000000e+00, 0.00000000e+00, -3.51043406e+00, -1.47989212e+00, -2.79200380e+00, 1.95251722e+00, 0.00000000e+00, 5.0000000000, 5.0000000000, 0.1003738234
          89, 0.00000000e+00, 0.00000000e+00, 0.00000000e+00, 0.00000000e+00, 0.00000000e+00, 0.00000000e+00, 0.00000000e+00, 0.00000000e+00, 0.00000000e+00, 0.00000000e+00, 0.00000000e+00, 0.00000000e+00, -3.50046840e+00, -1.54277950e+00, -2.81788890e+00, 1.96159535e+00, 0.00000000e+00, 5.0000000000, 5.0000000000, 0.1018313994