TITLE = "Visualization of the volumetric solution"
VARIABLES = "x","y","Adjoint_Density","Adjoint_Momentum_x","Adjoint_Momentum_y","Adjoint_Energy","Sensitivity_x","Sensitivity_y","Surface_Sensitivity"
ZONE NODES= 2400, ELEMENTS= 2291, DATAPACKING=POINT, ZONETYPE=FEQUADRILATERAL
0.000000e+00	1.250000e+00	-9.136033e-01	2.543653e-02	8.238365e-05	3.123804e-05	0.000000e+00	0.000000e+00	0.000000e+00	
0.000000e+00	1.218354e+00	-7.786704e-01	2.168229e-02	-3.384526e-04	2.662134e-05	0.000000e+00	0.000000e+00	0.000000e+00	
3.448276e-02	1.218354e+00	-1.041158e+00	2.891331e-02	1.637716e-03	3.531924e-05	0.000000e+00	0.000000e+00	0.000000e+00	
3.448276e-02	1.250000e+00	-1.311157e+00	3.639986e-02	2.370395e-03	4.450156e-05	0.000000e+00	0.000000e+00	0.000000e+00	
0.000000e+00	1.186709e+00	-7.881329e-01	2.195647e-02	-3.662462e-04	2.673249e-05	0.000000e+00	0.000000e+00	0.000000e+00	
3.448276e-02	1.186709e+00	-1.055109e+00	2.931742e-02	1.626606e-03	3.553247e-05	0.000000e+00	0.000000e+00	0.000000e+00	
0.000000e+00	1.155063e+00	-7.882872e-01	2.195358e-02	-2.675397e-04	2.672034e-05	0.000000e+00	0.000000e+00	0.000000e+00	
3.448276e-02	1.155063e+00	-1.055047e+00	2.930549e-02	1.735460e-03	3.548249e-05	0.000000e+00	0.000000e+00	0.000000e+00	
0.000000e+00	1.123418e+00	-7.894655e-01	2.198428e-02	-2.223797e-04	2.674559e-05	0.000000e+00	0.000000e+00	0.000000e+00	
3.448276e-02	1.123418e+00	-1.056047e+00	2.933067e-02	1.775772e-03	3.552221e-05	0.000000e+00	0.000000e+00	0.000000e+00	
0.000000e+00	1.091772e+00	-7.897926e-01	2.199367e-02	-2.111441e-04	2.673767e-05	0.000000e+00	0.000000e+00	0.000000e+00	
3.448276e-02	1.091772e+00	-1.055010e+00	2.930057e-02	1.783902e-03	3.551364e-05	0.000000e+00	0.000000e+00	0.000000e+00	
0.000000e+00	1.060127e+00	-7.895543e-01	2.198906e-02	-2.276657e-04	2.673022e-05	0.000000e+00	0.000000e+00	0.000000e+00	
3.448276e-02	1.060127e+00	-1.053655e+00	2.926377e-02	1.767096e-03	3.551041e-05	0.000000e+00	0.000000e+00	0.000000e+00	
0.000000e+00	1.028481e+00	-7.893770e-01	2.198781e-02	-2.681507e-04	2.672379e-05	0.000000e+00	0.000000e+00	0.000000e+00	
3.448276e-02	1.028481e+00	-1.052895e+00	2.924597e-02	1.730233e-03	3.550604e-05	0.000000e+00	0.000000e+00	0.000000e+00	
0.000000e+00	9.968354e-01	-7.891274e-01	2.198428e-02	-3.110497e-04	2.672025e-05	0.000000e+00	0.000000e+00	0.000000e+00	
3.448276e-02	9.968354e-01	-1.052852e+00	2.924872e-02	1.692636e-03	3.550443e-05	0.000000e+00	0.000000e+00	0.000000e+00	
0.000000e+00	9.651899e-01	-7.890092e-01	2.198332e-02	-3.438376e-04	2.672039e-05	0.000000e+00	0.000000e+00	0.000000e+00	
3.448276e-02	9.651899e-01	-1.053538e+00	2.927128e-02	1.664346e-03	3.550590e-05	0.000000e+00	0.000000e+00	0.000000e+00	
0.000000e+00	9.335443e-01	-7.889620e-01	2.198263e-02	-3.571514e-04	2.672260e-05	0.000000e+00	0.000000e+00	0.000000e+00	
3.448276e-02	9.335443e-01	-1.054503e+00	2.930006e-02	1.653037e-03	3.550902e-05	0.000000e+00	0.000000e+00	0.000000e+00	
0.000000e+00	9.018987e-01	-7.889800e-01	2.198236e-02	-3.521649e-04	2.672552e-05	0.000000e+00	0.000000e+00	0.000000e+00	
3.448276e-02	9.018987e-01	-1.055358e+00	2.932412e-02	1.656704e-03	3.551222e-05	0.000000e+00	0.000000e+00	0.000000e+00	
0.000000e+00	8.702532e-01	-7.890292e-01	2.198216e-02	-3.350419e-04	2.672769e-05	0.000000e+00	0.000000e+00	0.000000e+00	
3.448276e-02	8.702532e-01	-1.055847e+00	2.933664e-02	1.670976e-03	3.551534e-05	0.000000e+00	0.000000e+00	0.000000e+00	
0.000000e+00	8.386076e-01	-7.890857e-01	2.198240e-02	-3.194271e-04	2.671709e-05	0.000000e+00	0.000000e+00	0.000000e+00	
3.448276e-02	8.386076e-01	-1.055906e+00	2.933672e-02	1.685507e-03	3.551493e-05	0.000000e+00	0.000000e+00	0.000000e+00	
0.000000e+00	8.069620e-01	-7.890156e-01	2.197850e-02	-3.006778e-04	2.675041e-05	0.000000e+00	0.000000e+00	0.000000e+00	
3.448276e-02	8.069620e-01	-1.055533e+00	2.932455e-02	1.698866e-03	3.551613e-05	0.000000e+00	0.000000e+00	0.000000e+00	
0.000000e+00	7.753165e-01	-7.891369e-01	2.198221e-02	-2.928686e-04	2.670437e-05	0.000000e+00	0.000000e+00	0.000000e+00	
3.448276e-02	7.753165e-01	-1.055329e+00	2.931806e-02	1.705461e-03	3.551333e-05	0.000000e+00	0.000000e+00	0.000000e+00	
0.000000e+00	7.436709e-01	-7.890321e-01	2.197857e-02	-2.955173e-04	2.673678e-05	0.000000e+00	0.000000e+00	0.000000e+00	
3.448276e-02	7.436709e-01	-1.054894e+00	2.930532e-02	1.705766e-03	3.551354e-05	0.000000e+00	0.000000e+00	0.000000e+00	
0.000000e+00	7.120253e-01	-7.890415e-01	2.197920e-02	-2.950979e-04	2.672435e-05	0.000000e+00	0.000000e+00	0.000000e+00	
3.448276e-02	7.120253e-01	-1.054722e+00	2.930047e-02	1.704843e-03	3.551118e-05	0.000000e+00	0.000000e+00	0.000000e+00	
0.000000e+00	6.803797e-01	-7.890344e-01	2.197931e-02	-3.002848e-04	2.672379e-05	0.000000e+00	0.000000e+00	0.000000e+00	
3.448276e-02	6.803797e-01	-1.054682e+00	2.929957e-02	1.700836e-03	3.551125e-05	0.000000e+00	0.000000e+00	0.000000e+00	
0.000000e+00	6.487342e-01	-7.890222e-01	2.197917e-02	-3.042977e-04	2.672359e-05	0.000000e+00	0.000000e+00	0.000000e+00	
3.448276e-02	6.487342e-01	-1.054714e+00	2.930069e-02	1.698208e-03	3.551079e-05	0.000000e+00	0.000000e+00	0.000000e+00	
0.000000e+00	6.170886e-01	-7.890177e-01	2.197916e-02	-3.067448e-04	2.672359e-05	0.000000e+00	0.000000e+00	0.000000e+00	
3.448276e-02	6.170886e-01	-1.054781e+00	2.930273e-02	1.696298e-03	3.551085e-05	0.000000e+00	0.000000e+00	0.000000e+00	
0.000000e+00	5.854430e-01	-7.890148e-01	2.197910e-02	-3.076553e-04	2.672364e-05	0.000000e+00	0.000000e+00	0.000000e+00	
3.448276e-02	5.854430e-01	-1.054841e+00	2.930448e-02	1.695530e-03	3.551092e-05	0.000000e+00	0.000000e+00	0.000000e+00	
0.000000e+00	5.537975e-01	-7.890140e-01	2.197905e-02	-3.076897e-04	2.672376e-05	0.000000e+00	0.000000e+00	0.000000e+00	
3.448276e-02	5.537975e-01	-1.054877e+00	2.930552e-02	1.695365e-03	3.551105e-05	0.000000e+00	0.000000e+00	0.000000e+00	
0.000000e+00	5.221519e-01	-7.890135e-01	2.197899e-02	-3.073145e-04	2.672381e-05	0.000000e+00	0.000000e+00	0.000000e+00	
3.448276e-02	5.221519e-01	-1.054891e+00	2.930587e-02	1.695523e-03	3.551111e-05	0.000000e+00	0.000000e+00	0.000000e+00	
0.000000e+00	4.905063e-01	-7.890136e-01	2.197896e-02	-3.069453e-04	2.672385e-05	0.000000e+00	0.000000e+00	0.000000e+00	
3.448276e-02	4.905063e-01	-1.054890e+00	2.930582e-02	1.695693e-03	3.551114e-05	0.000000e+00	0.000000e+00	0.000000e+00	
0.000000e+00	4.588608e-01	-7.890136e-01	2.197893e-02	-3.067149e-04	2.672384e-05	0.000000e+00	0.000000e+00	0.000000e+00	
3.448276e-02	4.588608e-01	-1.054884e+00	2.930561e-02	1.695798e-03	3.551113e-05	0.000000e+00	0.000000e+00	0.000000e+00	
0.000000e+00	4.272152e-01	-7.890138e-01	2.197893e-02	-3.066385e-04	2.672384e-05	0.000000e+00	0.000000e+00	0.000000e+00	
3.448276e-02	4.272152e-01	-1.054878e+00	2.930543e-02	1.695816e-03	3.551112e-05	0.000000e+00	0.000000e+00	0.000000e+00	
0.000000e+00	3.955696e-01	-7.890140e-01	2.197893e-02	-3.066499e-04	2.672383e-05	0.000000e+00	0.000000e+00	0.000000e+00	
3.448276e-02	3.955696e-01	-1.054875e+00	2.930534e-02	1.695791e-03	3.551111e-05	0.000000e+00	0.000000e+00	0.000000e+00	
0.000000e+00	3.639241e-01	-7.890142e-01	2.197893e-02	-3.066906e-04	2.672382e-05	0.000000e+00	0.000000e+00	0.000000e+00	
3.448276e-02	3.639241e-01	-1.054875e+00	2.930532e-02	1.695756e-03	3.551111e-05	0.000000e+00	0.000000e+00	0.000000e+00	
0.000000e+00	3.322785e-01	-7.890144e-01	2.197893e-02	-3.067219e-04	2.672382e-05	0.000000e+00	0.000000e+00	0.000000e+00	
3.448276e-02	3.322785e-01	-1.054875e+00	2.930533e-02	1.695733e-03	3.551110e-05	0.000000e+00	0.000000e+00	0.000000e+00	
0.000000e+00	3.006329e-01	-7.890145e-01	2.197893e-02	-3.067340e-04	2.672382e-05	0.000000e+00	0.000000e+00	0.000000e+00	
3.448276e-02	3.006329e-01	-1.054876e+00	2.930535e-02	1.695725e-03	3.551110e-05	0.000000e+00	0.000000e+00	0.000000e+00	
0.000000e+00	2.689873e-01	-7.890146e-01	2.197893e-02	-3.067304e-04	2.672382e-05	0.000000e+00	0.000000e+00	0.000000e+00	
3.448276e-02	2.689873e-01	-1.054877e+00	2.930537e-02	1.695728e-03	3.551110e-05	0.000000e+00	0.000000e+00	0.000000e+00	
0.000000e+00	2.373418e-01	-7.890146e-01	2.197892e-02	-3.067199e-04	2.672382e-05	0.000000e+00	0.000000e+00	0.000000e+00	
3.448276e-02	2.373418e-01	-1.054877e+00	2.930537e-02	1.695736e-03	3.551110e-05	0.000000e+00	0.000000e+00	0.000000e+00	
0.000000e+00	2.056962e-01	-7.890146e-01	2.197892e-02	-3.067089e-04	2.672382e-05	0.000000e+00	0.000000e+00	0.000000e+00	
3.448276e-02	2.056962e-01	-1.054877e+00	2.930537e-02	1.695745e-03	3.551110e-05	0.000000e+00	0.000000e+00	0.000000e+00	
0.000000e+00	1.740506e-01	-7.890145e-01	2.197892e-02	-3.067004e-04	2.672382e-05	0.000000e+00	0.000000e+00	0.000000e+00	
3.448276e-02	1.740506e-01	-1.054877e+00	2.930536e-02	1.695753e-03	3.551109e-05	0.000000e+00	0.000000e+00	0.000000e+00	
0.000000e+00	1.424051e-01	-7.890143e-01	2.197891e-02	-3.066948e-04	2.672381e-05	0.000000e+00	0.000000e+00	0.000000e+00	
3.448276e-02	1.424051e-01	-1.054877e+00	2.930535e-02	1.695759e-03	3.551109e-05	0.000000e+00	0.000000e+00	0.000000e+00	
0.000000e+00	1.107595e-01	-7.890142e-01	2.197891e-02	-3.066912e-04	2.672381e-05	0.000000e+00	0.000000e+00	0.000000e+00	
3.448276e-02	1.107595e-01	-1.054876e+00	2.930534e-02	1.695766e-03	3.551109e-05	0.000000e+00	0.000000e+00	0.000000e+00	
0.000000e+00	7.911392e-02	-7.890139e-01	2.197890e-02	-3.066885e-04	2.672380e-05	0.000000e+00	0.000000e+00	0.000000e+00	
3.448276e-02	7.911392e-02	-1.054876e+00	2.930533e-02	1.695772e-03	3.551108e-05	0.000000e+00	0.000000e+00	0.000000e+00	
0.000000e+00	4.746835e-02	-7.890136e-01	2.197889e-02	-3.066859e-04	2.672380e-05	0.000000e+00	0.000000e+00	0.000000e+00	
3.448276e-02	4.746835e-02	-1.054876e+00	2.930532e-02	1.695781e-03	3.551108e-05	0.000000e+00	0.000000e+00	0.000000e+00	
0.000000e+00	1.582278e-02	-7.890132e-01	2.197888e-02	-3.066829e-04	2.672379e-05	0.000000e+00	0.000000e+00	0.000000e+00	
3.448276e-02	1.582278e-02	-1.054875e+00	2.930530e-02	1.695792e-03	3.551107e-05	0.000000e+00	0.000000e+00	0.000000e+00	
0.000000e+00	-1.582278e-02	-7.890126e-01	2.197886e-02	-3.066793e-04	2.672379e-05	0.000000e+00	0.000000e+00	0.000000e+00	
3.448276e-02	-1.582278e-02	-1.054874e+00	2.930527e-02	1.695807e-03	3.551107e-05	0.000000e+00	0.000000e+00	0.000000e+00	
0.000000e+00	-4.746835e-02	-7.890119e-01	2.197884e-02	-3.066747e-04	2.672378e-05	0.000000e+00	0.000000e+00	0.000000e+00	
3.448276e-02	-4.746835e-02	-1.054873e+00	2.930524e-02	1.695828e-03	3.551106e-05	0.000000e+00	0.000000e+00	0.000000e+00	
0.000000e+00	-7.911392e-02	-7.890109e-01	2.197881e-02	-3.066686e-04	2.672377e-05	0.000000e+00	0.000000e+00	0.000000e+00	
3.448276e-02	-7.911392e-02	-1.054872e+00	2.930520e-02	1.695855e-03	3.551105e-05	0.000000e+00	0.000000e+00	0.000000e+00	
0.000000e+00	-1.107595e-01	-7.890096e-01	2.197878e-02	-3.066606e-04	2.672376e-05	0.000000e+00	0.000000e+00	0.000000e+00	
3.448276e-02	-1.107595e-01	-1.054870e+00	2.930515e-02	1.695892e-03	3.551104e-05	0.000000e+00	0.000000e+00	0.000000e+00	
0.000000e+00	-1.424051e-01	-7.890080e-01	2.197873e-02	-3.066500e-04	2.672375e-05	0.000000e+00	0.000000e+00	0.000000e+00	
3.448276e-02	-1.424051e-01	-1.054868e+00	2.930508e-02	1.695941e-03	3.551103e-05	0.000000e+00	0.000000e+00	0.000000e+00	
0.000000e+00	-1.740506e-01	-7.890059e-01	2.197867e-02	-3.066361e-04	2.672373e-05	0.000000e+00	0.000000e+00	0.000000e+00	
3.448276e-02	-1.740506e-01	-1.054865e+00	2.930498e-02	1.696004e-03	3.551102e-05	0.000000e+00	0.000000e+00	0.000000e+00	
0.000000e+00	-2.056962e-01	-7.890033e-01	2.197859e-02	-3.066180e-04	2.672372e-05	0.000000e+00	0.000000e+00	0.000000e+00	
3.448276e-02	-2.056962e-01	-1.054861e+00	2.930486e-02	1.696085e-03	3.551101e-05	0.000000e+00	0.000000e+00	0.000000e+00	
0.000000e+00	-2.373418e-01	-7.890000e-01	2.197849e-02	-3.065951e-04	2.672370e-05	0.000000e+00	0.000000e+00	0.000000e+00	
3.448276e-02	-2.373418e-01	-1.054856e+00	2.930471e-02	1.696187e-03	3.551100e-05	0.000000e+00	0.000000e+00	0.000000e+00	
0.000000e+00	-2.689873e-01	-7.889960e-01	2.197838e-02	-3.065666e-04	2.672369e-05	0.000000e+00	0.000000e+00	0.000000e+00	
3.448276e-02	-2.689873e-01	-1.054849e+00	2.930452e-02	1.696313e-03	3.551098e-05	0.000000e+00	0.000000e+00	0.000000e+00	
0.000000e+00	-3.006329e-01	-7.889912e-01	2.197823e-02	-3.065319e-04	2.672367e-05	0.000000e+00	0.000000e+00	0.000000e+00	
3.448276e-02	-3.006329e-01	-1.054842e+00	2.930429e-02	1.696464e-03	3.551096e-05	0.000000e+00	0.000000e+00	0.000000e+00	
0.000000e+00	-3.322785e-01	-7.889854e-01	2.197807e-02	-3.064908e-04	2.672365e-05	0.000000e+00	0.000000e+00	0.000000e+00	
3.448276e-02	-3.322785e-01	-1.054832e+00	2.930401e-02	1.696641e-03	3.551093e-05	0.000000e+00	0.000000e+00	0.000000e+00	
0.000000e+00	-3.639241e-01	-7.889788e-01	2.197787e-02	-3.064437e-04	2.672364e-05	0.000000e+00	0.000000e+00	0.000000e+00	
3.448276e-02	-3.639241e-01	-1.054822e+00	2.930369e-02	1.696843e-03	3.551090e-05	0.000000e+00	0.000000e+00	0.000000e+00	
0.000000e+00	-3.955696e-01	-7.889713e-01	2.197765e-02	-3.063912e-04	2.672363e-05	0.000000e+00	0.000000e+00	0.000000e+00	
3.448276e-02	-3.955696e-01	-1.054809e+00	2.930331e-02	1.697066e-03	3.551087e-05	0.000000e+00	0.000000e+00	0.000000e+00	
0.000000e+00	-4.272152e-01	-7.889630e-01	2.197741e-02	-3.063349e-04	2.672363e-05	0.000000e+00	0.000000e+00	0.000000e+00	
3.448276e-02	-4.272152e-01	-1.054795e+00	2.930290e-02	1.697302e-03	3.551084e-05	0.000000e+00	0.000000e+00	0.000000e+00	
0.000000e+00	-4.588608e-01	-7.889541e-01	2.197715e-02	-3.062780e-04	2.672364e-05	0.000000e+00	0.000000e+00	0.000000e+00	
3.448276e-02	-4.588608e-01	-1.054780e+00	2.930244e-02	1.697541e-03	3.551080e-05	0.000000e+00	0.000000e+00	0.000000e+00	
0.000000e+00	-4.905063e-01	-7.889448e-01	2.197687e-02	-3.062255e-04	2.672365e-05	0.000000e+00	0.000000e+00	0.000000e+00	
3.448276e-02	-4.905063e-01	-1.054764e+00	2.930196e-02	1.697766e-03	3.551076e-05	0.000000e+00	0.000000e+00	0.000000e+00	
0.000000e+00	-5.221519e-01	-7.889353e-01	2.197659e-02	-3.061868e-04	2.672366e-05	0.000000e+00	0.000000e+00	0.000000e+00	
3.448276e-02	-5.221519e-01	-1.054748e+00	2.930147e-02	1.697955e-03	3.551072e-05	0.000000e+00	0.000000e+00	0.000000e+00	
0.000000e+00	-5.537975e-01	-7.889260e-01	2.197632e-02	-3.061743e-04	2.672368e-05	0.000000e+00	0.000000e+00	0.000000e+00	
3.448276e-02	-5.537975e-01	-1.054731e+00	2.930098e-02	1.698082e-03	3.551069e-05	0.000000e+00	0.000000e+00	0.000000e+00	
0.000000e+00	-5.854430e-01	-7.889168e-01	2.197605e-02	-3.062019e-04	2.672370e-05	0.000000e+00	0.000000e+00	0.000000e+00	
3.448276e-02	-5.854430e-01	-1.054715e+00	2.930052e-02	1.698121e-03	3.551065e-05	0.000000e+00	0.000000e+00	0.000000e+00	
0.000000e+00	-6.170886e-01	-7.889080e-01	2.197580e-02	-3.062752e-04	2.672370e-05	0.000000e+00	0.000000e+00	0.000000e+00	
3.448276e-02	-6.170886e-01	-1.054701e+00	2.930013e-02	1.698054e-03	3.551061e-05	0.000000e+00	0.000000e+00	0.000000e+00	
0.000000e+00	-6.487342e-01	-7.888993e-01	2.197555e-02	-3.063848e-04	2.672368e-05	0.000000e+00	0.000000e+00	0.000000e+00	
3.448276e-02	-6.487342e-01	-1.054690e+00	2.929982e-02	1.697884e-03	3.551056e-05	0.000000e+00	0.000000e+00	0.000000e+00	
0.000000e+00	-6.803797e-01	-7.888900e-01	2.197528e-02	-3.064990e-04	2.672360e-05	0.000000e+00	0.000000e+00	0.000000e+00	
3.448276e-02	-6.803797e-01	-1.054681e+00	2.929958e-02	1.697649e-03	3.551051e-05	0.000000e+00	0.000000e+00	0.000000e+00	
0.000000e+00	-7.120253e-01	-7.888784e-01	2.197495e-02	-3.065881e-04	2.672342e-05	0.000000e+00	0.000000e+00	0.000000e+00	
3.448276e-02	-7.120253e-01	-1.054671e+00	2.929930e-02	1.697416e-03	3.551043e-05	0.000000e+00	0.000000e+00	0.000000e+00	
0.000000e+00	-7.436709e-01	-7.888615e-01	2.197445e-02	-3.066541e-04	2.672311e-05	0.000000e+00	0.000000e+00	0.000000e+00	
3.448276e-02	-7.436709e-01	-1.054653e+00	2.929877e-02	1.697275e-03	3.551030e-05	0.000000e+00	0.000000e+00	0.000000e+00	
0.000000e+00	-7.753165e-01	-7.888334e-01	2.197364e-02	-3.067842e-04	2.672260e-05	0.000000e+00	0.000000e+00	0.000000e+00	
3.448276e-02	-7.753165e-01	-1.054615e+00	2.929767e-02	1.697314e-03	3.551011e-05	0.000000e+00	0.000000e+00	0.000000e+00	
0.000000e+00	-8.069620e-01	-7.887865e-01	2.197228e-02	-3.071152e-04	2.672185e-05	0.000000e+00	0.000000e+00	0.000000e+00	
3.448276e-02	-8.069620e-01	-1.054548e+00	2.929571e-02	1.697667e-03	3.550984e-05	0.000000e+00	0.000000e+00	0.000000e+00	
0.000000e+00	-8.386076e-01	-7.887103e-01	2.197010e-02	-3.077251e-04	2.672082e-05	0.000000e+00	0.000000e+00	0.000000e+00	
3.448276e-02	-8.386076e-01	-1.054449e+00	2.929275e-02	1.698593e-03	3.550950e-05	0.000000e+00	0.000000e+00	0.000000e+00	
0.000000e+00	-8.702532e-01	-7.885945e-01	2.196676e-02	-3.083485e-04	2.671953e-05	0.000000e+00	0.000000e+00	0.000000e+00	
3.448276e-02	-8.702532e-01	-1.054320e+00	2.928886e-02	1.700713e-03	3.550913e-05	0.000000e+00	0.000000e+00	0.000000e+00	
0.000000e+00	-9.018987e-01	-7.884269e-01	2.196185e-02	-3.081775e-04	2.671794e-05	0.000000e+00	0.000000e+00	0.000000e+00	
3.448276e-02	-9.018987e-01	-1.054166e+00	2.928409e-02	1.705118e-03	3.550871e-05	0.000000e+00	0.000000e+00	0.000000e+00	
0.000000e+00	-9.335443e-01	-7.881954e-01	2.195492e-02	-3.058251e-04	2.671602e-05	0.000000e+00	0.000000e+00	0.000000e+00	
3.448276e-02	-9.335443e-01	-1.053971e+00	2.927784e-02	1.713434e-03	3.550813e-05	0.000000e+00	0.000000e+00	0.000000e+00	
0.000000e+00	-9.651899e-01	-7.878801e-01	2.194534e-02	-2.999064e-04	2.671358e-05	0.000000e+00	0.000000e+00	0.000000e+00	
3.448276e-02	-9.651899e-01	-1.053672e+00	2.926821e-02	1.727238e-03	3.550722e-05	0.000000e+00	0.000000e+00	0.000000e+00	
0.000000e+00	-9.968354e-01	-7.874558e-01	2.193239e-02	-2.899726e-04	2.671045e-05	0.000000e+00	0.000000e+00	0.000000e+00	
3.448276e-02	-9.968354e-01	-1.053143e+00	2.925152e-02	1.747491e-03	3.550539e-05	0.000000e+00	0.000000e+00	0.000000e+00	
0.000000e+00	-1.028481e+00	-7.868791e-01	2.191501e-02	-2.776451e-04	2.670632e-05	0.000000e+00	0.000000e+00	0.000000e+00	
3.448276e-02	-1.028481e+00	-1.052236e+00	2.922361e-02	1.773110e-03	3.550285e-05	0.000000e+00	0.000000e+00	0.000000e+00	
0.000000e+00	-1.060127e+00	-7.861192e-01	2.189263e-02	-2.669416e-04	2.670143e-05	0.000000e+00	0.000000e+00	0.000000e+00	
3.448276e-02	-1.060127e+00	-1.050781e+00	2.917990e-02	1.801793e-03	3.549766e-05	0.000000e+00	0.000000e+00	0.000000e+00	
0.000000e+00	-1.091772e+00	-7.851158e-01	2.186389e-02	-2.632247e-04	2.669605e-05	0.000000e+00	0.000000e+00	0.000000e+00	
3.448276e-02	-1.091772e+00	-1.048842e+00	2.912263e-02	1.827149e-03	3.549510e-05	0.000000e+00	0.000000e+00	0.000000e+00	
0.000000e+00	-1.123418e+00	-7.839391e-01	2.183103e-02	-2.714335e-04	2.669173e-05	0.000000e+00	0.000000e+00	0.000000e+00	
3.448276e-02	-1.123418e+00	-1.046353e+00	2.905014e-02	1.850620e-03	3.548394e-05	0.000000e+00	0.000000e+00	0.000000e+00	
0.000000e+00	-1.155063e+00	-7.824798e-01	2.179063e-02	-2.912496e-04	2.668925e-05	0.000000e+00	0.000000e+00	0.000000e+00	
3.448276e-02	-1.155063e+00	-1.044172e+00	2.898742e-02	1.850728e-03	3.550041e-05	0.000000e+00	0.000000e+00	0.000000e+00	
0.000000e+00	-1.186709e+00	-7.811632e-01	2.175438e-02	-3.190848e-04	2.670418e-05	0.000000e+00	0.000000e+00	0.000000e+00	
3.448276e-02	-1.186709e+00	-1.041971e+00	2.891765e-02	2.001170e-03	3.542783e-05	0.000000e+00	0.000000e+00	0.000000e+00	
0.000000e+00	-1.218354e+00	-7.818439e-01	2.176979e-02	-4.892261e-04	2.664809e-05	0.000000e+00	0.000000e+00	0.000000e+00	
3.448276e-02	-1.218354e+00	-1.044507e+00	2.902700e-02	1.155755e-03	3.567524e-05	0.000000e+00	0.000000e+00	0.000000e+00	
6.896552e-02	1.218354e+00	-1.043865e+00	2.892022e-02	2.968441e-03	3.539139e-05	0.000000e+00	0.000000e+00	0.000000e+00	
6.896552e-02	1.250000e+00	-1.321976e+00	3.661450e-02	4.014381e-03	4.449026e-05	0.000000e+00	0.000000e+00	0.000000e+00	
6.896552e-02	1.186709e+00	-1.060369e+00	2.939869e-02	2.954646e-03	3.563405e-05	0.000000e+00	0.000000e+00	0.000000e+00	
6.896552e-02	1.155063e+00	-1.060091e+00	2.937778e-02	3.064587e-03	3.558087e-05	0.000000e+00	0.000000e+00	0.000000e+00	
6.896552e-02	1.123418e+00	-1.061185e+00	2.940547e-02	3.096330e-03	3.563011e-05	0.000000e+00	0.000000e+00	0.000000e+00	
6.896552e-02	1.091772e+00	-1.059507e+00	2.935657e-02	3.103248e-03	3.562362e-05	0.000000e+00	0.000000e+00	0.000000e+00	
6.896552e-02	1.060127e+00	-1.057731e+00	2.930747e-02	3.089248e-03	3.562442e-05	0.000000e+00	0.000000e+00	0.000000e+00	
6.896552e-02	1.028481e+00	-1.056817e+00	2.928493e-02	3.061718e-03	3.562179e-05	0.000000e+00	0.000000e+00	0.000000e+00	
6.896552e-02	9.968354e-01	-1.057034e+00	2.929469e-02	3.036044e-03	3.562101e-05	0.000000e+00	0.000000e+00	0.000000e+00	
6.896552e-02	9.651899e-01	-1.058231e+00	2.933156e-02	3.018557e-03	3.562199e-05	0.000000e+00	0.000000e+00	0.000000e+00	
6.896552e-02	9.335443e-01	-1.059746e+00	2.937584e-02	3.013747e-03	3.562405e-05	0.000000e+00	0.000000e+00	0.000000e+00	
6.896552e-02	9.018987e-01	-1.060998e+00	2.941124e-02	3.018349e-03	3.562595e-05	0.000000e+00	0.000000e+00	0.000000e+00	
6.896552e-02	8.702532e-01	-1.061625e+00	2.942786e-02	3.028911e-03	3.562784e-05	0.000000e+00	0.000000e+00	0.000000e+00	
6.896552e-02	8.386076e-01	-1.061646e+00	2.942714e-02	3.038246e-03	3.562793e-05	0.000000e+00	0.000000e+00	0.000000e+00	
6.896552e-02	8.069620e-01	-1.061130e+00	2.941112e-02	3.046175e-03	3.562831e-05	0.000000e+00	0.000000e+00	0.000000e+00	
6.896552e-02	7.753165e-01	-1.060700e+00	2.939824e-02	3.049516e-03	3.562694e-05	0.000000e+00	0.000000e+00	0.000000e+00	
6.896552e-02	7.436709e-01	-1.060157e+00	2.938251e-02	3.049015e-03	3.562675e-05	0.000000e+00	0.000000e+00	0.000000e+00	
6.896552e-02	7.120253e-01	-1.059942e+00	2.937637e-02	3.048441e-03	3.562554e-05	0.000000e+00	0.000000e+00	0.000000e+00	
6.896552e-02	6.803797e-01	-1.059880e+00	2.937476e-02	3.046161e-03	3.562550e-05	0.000000e+00	0.000000e+00	0.000000e+00	
6.896552e-02	6.487342e-01	-1.059939e+00	2.937659e-02	3.045002e-03	3.562500e-05	0.000000e+00	0.000000e+00	0.000000e+00	
6.896552e-02	6.170886e-01	-1.060036e+00	2.937944e-02	3.044015e-03	3.562505e-05	0.000000e+00	0.000000e+00	0.000000e+00	
6.896552e-02	5.854430e-01	-1.060118e+00	2.938182e-02	3.043700e-03	3.562499e-05	0.000000e+00	0.000000e+00	0.000000e+00	
6.896552e-02	5.537975e-01	-1.060165e+00	2.938316e-02	3.043549e-03	3.562505e-05	0.000000e+00	0.000000e+00	0.000000e+00	
6.896552e-02	5.221519e-01	-1.060181e+00	2.938359e-02	3.043539e-03	3.562505e-05	0.000000e+00	0.000000e+00	0.000000e+00	
6.896552e-02	4.905063e-01	-1.060178e+00	2.938349e-02	3.043503e-03	3.562506e-05	0.000000e+00	0.000000e+00	0.000000e+00	
6.896552e-02	4.588608e-01	-1.060170e+00	2.938323e-02	3.043462e-03	3.562505e-05	0.000000e+00	0.000000e+00	0.000000e+00	
6.896552e-02	4.272152e-01	-1.060163e+00	2.938302e-02	3.043407e-03	3.562505e-05	0.000000e+00	0.000000e+00	0.000000e+00	
6.896552e-02	3.955696e-01	-1.060160e+00	2.938292e-02	3.043365e-03	3.562504e-05	0.000000e+00	0.000000e+00	0.000000e+00	
6.896552e-02	3.639241e-01	-1.060160e+00	2.938291e-02	3.043338e-03	3.562504e-05	0.000000e+00	0.000000e+00	0.000000e+00	
6.896552e-02	3.322785e-01	-1.060161e+00	2.938294e-02	3.043328e-03	3.562503e-05	0.000000e+00	0.000000e+00	0.000000e+00	
6.896552e-02	3.006329e-01	-1.060163e+00	2.938298e-02	3.043327e-03	3.562503e-05	0.000000e+00	0.000000e+00	0.000000e+00	
6.896552e-02	2.689873e-01	-1.060163e+00	2.938300e-02	3.043331e-03	3.562503e-05	0.000000e+00	0.000000e+00	0.000000e+00	
6.896552e-02	2.373418e-01	-1.060164e+00	2.938300e-02	3.043336e-03	3.562503e-05	0.000000e+00	0.000000e+00	0.000000e+00	
6.896552e-02	2.056962e-01	-1.060164e+00	2.938300e-02	3.043340e-03	3.562503e-05	0.000000e+00	0.000000e+00	0.000000e+00	
6.896552e-02	1.740506e-01	-1.060163e+00	2.938299e-02	3.043344e-03	3.562502e-05	0.000000e+00	0.000000e+00	0.000000e+00	
6.896552e-02	1.424051e-01	-1.060163e+00	2.938298e-02	3.043348e-03	3.562502e-05	0.000000e+00	0.000000e+00	0.000000e+00	
6.896552e-02	1.107595e-01	-1.060163e+00	2.938297e-02	3.043352e-03	3.562501e-05	0.000000e+00	0.000000e+00	0.000000e+00	
6.896552e-02	7.911392e-02	-1.060162e+00	2.938296e-02	3.043358e-03	3.562501e-05	0.000000e+00	0.000000e+00	0.000000e+00	
6.896552e-02	4.746835e-02	-1.060162e+00	2.938295e-02	3.043366e-03	3.562501e-05	0.000000e+00	0.000000e+00	0.000000e+00	
6.896552e-02	1.582278e-02	-1.060162e+00	2.938293e-02	3.043378e-03	3.562500e-05	0.000000e+00	0.000000e+00	0.000000e+00	
6.896552e-02	-1.582278e-02	-1.060161e+00	2.938291e-02	3.043394e-03	3.562500e-05	0.000000e+00	0.000000e+00	0.000000e+00	
6.896552e-02	-4.746835e-02	-1.060160e+00	2.938289e-02	3.043417e-03	3.562499e-05	0.000000e+00	0.000000e+00	0.000000e+00	
6.896552e-02	-7.911392e-02	-1.060159e+00	2.938285e-02	3.043450e-03	3.562498e-05	0.000000e+00	0.000000e+00	0.000000e+00	
6.896552e-02	-1.107595e-01	-1.060157e+00	2.938280e-02	3.043495e-03	3.562497e-05	0.000000e+00	0.000000e+00	0.000000e+00	
6.896552e-02	-1.424051e-01	-1.060155e+00	2.938274e-02	3.043557e-03	3.562496e-05	0.000000e+00	0.000000e+00	0.000000e+00	
6.896552e-02	-1.740506e-01	-1.060153e+00	2.938266e-02	3.043640e-03	3.562494e-05	0.000000e+00	0.000000e+00	0.000000e+00	
6.896552e-02	-2.056962e-01	-1.060149e+00	2.938255e-02	3.043749e-03	3.562492e-05	0.000000e+00	0.000000e+00	0.000000e+00	
6.896552e-02	-2.373418e-01	-1.060145e+00	2.938240e-02	3.043891e-03	3.562488e-05	0.000000e+00	0.000000e+00	0.000000e+00	
6.896552e-02	-2.689873e-01	-1.060139e+00	2.938222e-02	3.044069e-03	3.562484e-05	0.000000e+00	0.000000e+00	0.000000e+00	
6.896552e-02	-3.006329e-01	-1.060132e+00	2.938200e-02	3.044289e-03	3.562479e-05	0.000000e+00	0.000000e+00	0.000000e+00	
6.896552e-02	-3.322785e-01	-1.060124e+00	2.938173e-02	3.044553e-03	3.562473e-05	0.000000e+00	0.000000e+00	0.000000e+00	
6.896552e-02	-3.639241e-01	-1.060114e+00	2.938141e-02	3.044863e-03	3.562465e-05	0.000000e+00	0.000000e+00	0.000000e+00	
6.896552e-02	-3.955696e-01	-1.060102e+00	2.938104e-02	3.045213e-03	3.562456e-05	0.000000e+00	0.000000e+00	0.000000e+00	
6.896552e-02	-4.272152e-01	-1.060088e+00	2.938062e-02	3.045594e-03	3.562446e-05	0.000000e+00	0.000000e+00	0.000000e+00	
6.896552e-02	-4.588608e-01	-1.060074e+00	2.938016e-02	3.045988e-03	3.562434e-05	0.000000e+00	0.000000e+00	0.000000e+00	
6.896552e-02	-4.905063e-01	-1.060058e+00	2.937967e-02	3.046371e-03	3.562421e-05	0.000000e+00	0.000000e+00	0.000000e+00	
6.896552e-02	-5.221519e-01	-1.060042e+00	2.937917e-02	3.046706e-03	3.562408e-05	0.000000e+00	0.000000e+00	0.000000e+00	
6.896552e-02	-5.537975e-01	-1.060026e+00	2.937868e-02	3.046949e-03	3.562395e-05	0.000000e+00	0.000000e+00	0.000000e+00	
6.896552e-02	-5.854430e-01	-1.060011e+00	2.937825e-02	3.047046e-03	3.562382e-05	0.000000e+00	0.000000e+00	0.000000e+00	
6.896552e-02	-6.170886e-01	-1.059999e+00	2.937790e-02	3.046947e-03	3.562371e-05	0.000000e+00	0.000000e+00	0.000000e+00	
6.896552e-02	-6.487342e-01	-1.059990e+00	2.937771e-02	3.046610e-03	3.562363e-05	0.000000e+00	0.000000e+00	0.000000e+00	
6.896552e-02	-6.803797e-01	-1.059987e+00	2.937768e-02	3.046030e-03	3.562357e-05	0.000000e+00	0.000000e+00	0.000000e+00	
6.896552e-02	-7.120253e-01	-1.059986e+00	2.937772e-02	3.045236e-03	3.562352e-05	0.000000e+00	0.000000e+00	0.000000e+00	
6.896552e-02	-7.436709e-01	-1.059979e+00	2.937761e-02	3.044329e-03	3.562348e-05	0.000000e+00	0.000000e+00	0.000000e+00	
6.896552e-02	-7.753165e-01	-1.059956e+00	2.937700e-02	3.043460e-03	3.562341e-05	0.000000e+00	0.000000e+00	0.000000e+00	
6.896552e-02	-8.069620e-01	-1.059906e+00	2.937561e-02	3.042902e-03	3.562328e-05	0.000000e+00	0.000000e+00	0.000000e+00	
6.896552e-02	-8.386076e-01	-1.059830e+00	2.937338e-02	3.043070e-03	3.562302e-05	0.000000e+00	0.000000e+00	0.000000e+00	
6.896552e-02	-8.702532e-01	-1.059742e+00	2.937068e-02	3.044722e-03	3.562260e-05	0.000000e+00	0.000000e+00	0.000000e+00	
6.896552e-02	-9.018987e-01	-1.059660e+00	2.936786e-02	3.049017e-03	3.562185e-05	0.000000e+00	0.000000e+00	0.000000e+00	
6.896552e-02	-9.335443e-01	-1.059574e+00	2.936456e-02	3.057562e-03	3.562059e-05	0.000000e+00	0.000000e+00	0.000000e+00	
6.896552e-02	-9.651899e-01	-1.059418e+00	2.935863e-02	3.072237e-03	3.561850e-05	0.000000e+00	0.000000e+00	0.000000e+00	
6.896552e-02	-9.968354e-01	-1.059032e+00	2.934534e-02	3.094243e-03	3.561495e-05	0.000000e+00	0.000000e+00	0.000000e+00	
6.896552e-02	-1.028481e+00	-1.058239e+00	2.931952e-02	3.124724e-03	3.560989e-05	0.000000e+00	0.000000e+00	0.000000e+00	
6.896552e-02	-1.060127e+00	-1.056814e+00	2.927504e-02	3.160985e-03	3.560141e-05	0.000000e+00	0.000000e+00	0.000000e+00	
6.896552e-02	-1.091772e+00	-1.054926e+00	2.921667e-02	3.204939e-03	3.559317e-05	0.000000e+00	0.000000e+00	0.000000e+00	
6.896552e-02	-1.123418e+00	-1.052449e+00	2.914195e-02	3.246678e-03	3.557406e-05	0.000000e+00	0.000000e+00	0.000000e+00	
6.896552e-02	-1.155063e+00	-1.050893e+00	2.909211e-02	3.306878e-03	3.556973e-05	0.000000e+00	0.000000e+00	0.000000e+00	
6.896552e-02	-1.186709e+00	-1.049890e+00	2.904299e-02	3.573605e-03	3.543053e-05	0.000000e+00	0.000000e+00	0.000000e+00	
6.896552e-02	-1.218354e+00	-1.051202e+00	2.915764e-02	2.551522e-03	3.596299e-05	0.000000e+00	0.000000e+00	0.000000e+00	
1.034483e-01	1.218354e+00	-1.047217e+00	2.892783e-02	3.814764e-03	3.538042e-05	0.000000e+00	0.000000e+00	0.000000e+00	
1.034483e-01	1.250000e+00	-1.329374e+00	3.671065e-02	5.081758e-03	4.439866e-05	0.000000e+00	0.000000e+00	0.000000e+00	
1.034483e-01	1.186709e+00	-1.064459e+00	2.942797e-02	3.799765e-03	3.563079e-05	0.000000e+00	0.000000e+00	0.000000e+00	
1.034483e-01	1.155063e+00	-1.063936e+00	2.939935e-02	3.899845e-03	3.557567e-05	0.000000e+00	0.000000e+00	0.000000e+00	
1.034483e-01	1.123418e+00	-1.064951e+00	2.942492e-02	3.924535e-03	3.563112e-05	0.000000e+00	0.000000e+00	0.000000e+00	
1.034483e-01	1.091772e+00	-1.062929e+00	2.936599e-02	3.929348e-03	3.562752e-05	0.000000e+00	0.000000e+00	0.000000e+00	
1.034483e-01	1.060127e+00	-1.061021e+00	2.931279e-02	3.917087e-03	3.563187e-05	0.000000e+00	0.000000e+00	0.000000e+00	
1.034483e-01	1.028481e+00	-1.060178e+00	2.929165e-02	3.896771e-03	3.563080e-05	0.000000e+00	0.000000e+00	0.000000e+00	
1.034483e-01	9.968354e-01	-1.060708e+00	2.930958e-02	3.880498e-03	3.563061e-05	0.000000e+00	0.000000e+00	0.000000e+00	
1.034483e-01	9.651899e-01	-1.062309e+00	2.935727e-02	3.871787e-03	3.563112e-05	0.000000e+00	0.000000e+00	0.000000e+00	
1.034483e-01	9.335443e-01	-1.064174e+00	2.941114e-02	3.872321e-03	3.563226e-05	0.000000e+00	0.000000e+00	0.000000e+00	