TITLE = "Visualization of the volumetric solution"
VARIABLES = "x","y","Density","Momentum_x","Momentum_y","Energy","Pressure","Temperature","Mach","C<sub>p</sub>","Roe_Dissipation"
ZONE NODES= 3200, ELEMENTS= 3081, DATAPACKING=POINT, ZONETYPE=FEQUADRILATERAL
-2.000000e+00	1.250000e+00	1.225054e+00	4.180611e+01	-3.186605e-12	2.540155e+05	1.013209e+05	2.881204e+02	1.002879e-01	-5.825083e-03	0.000000e+00	
-2.000000e+00	1.218354e+00	1.225054e+00	4.180611e+01	-5.388399e-10	2.540155e+05	1.013209e+05	2.881204e+02	1.002879e-01	-5.825083e-03	0.000000e+00	
-1.948718e+00	1.218354e+00	1.225054e+00	4.180611e+01	-7.786542e-10	2.540155e+05	1.013209e+05	2.881204e+02	1.002879e-01	-5.825084e-03	0.000000e+00	
-1.948718e+00	1.250000e+00	1.225054e+00	4.180611e+01	-7.388719e-11	2.540155e+05	1.013209e+05	2.881204e+02	1.002879e-01	-5.825084e-03	0.000000e+00	
-2.000000e+00	1.186709e+00	1.225054e+00	4.180611e+01	-5.103877e-10	2.540155e+05	1.013209e+05	2.881204e+02	1.002879e-01	-5.825083e-03	0.000000e+00	
-1.948718e+00	1.186709e+00	1.225054e+00	4.180611e+01	-8.740324e-10	2.540155e+05	1.013209e+05	2.881204e+02	1.002879e-01	-5.825084e-03	0.000000e+00	
-2.000000e+00	1.155063e+00	1.225054e+00	4.180611e+01	-3.165612e-10	2.540155e+05	1.013209e+05	2.881204e+02	1.002879e-01	-5.825083e-03	0.000000e+00	
-1.948718e+00	1.155063e+00	1.225054e+00	4.180611e+01	-7.664798e-10	2.540155e+05	1.013209e+05	2.881204e+02	1.002879e-01	-5.825084e-03	0.000000e+00	
-2.000000e+00	1.123418e+00	1.225054e+00	4.180611e+01	-1.360609e-10	2.540155e+05	1.013209e+05	2.881204e+02	1.002879e-01	-5.825083e-03	0.000000e+00	
-1.948718e+00	1.123418e+00	1.225054e+00	4.180611e+01	-5.669620e-10	2.540155e+05	1.013209e+05	2.881204e+02	1.002879e-01	-5.825084e-03	0.000000e+00	
-2.000000e+00	1.091772e+00	1.225054e+00	4.180611e+01	-4.151361e-11	2.540155e+05	1.013209e+05	2.881204e+02	1.002879e-01	-5.825083e-03	0.000000e+00	
-1.948718e+00	1.091772e+00	1.225054e+00	4.180611e+01	-4.337101e-10	2.540155e+05	1.013209e+05	2.881204e+02	1.002879e-01	-5.825084e-03	0.000000e+00	
-2.000000e+00	1.060127e+00	1.225054e+00	4.180611e+01	-7.610768e-12	2.540155e+05	1.013209e+05	2.881204e+02	1.002879e-01	-5.825083e-03	0.000000e+00	
-1.948718e+00	1.060127e+00	1.225054e+00	4.180611e+01	-3.546276e-10	2.540155e+05	1.013209e+05	2.881204e+02	1.002879e-01	-5.825084e-03	0.000000e+00	
-2.000000e+00	1.028481e+00	1.225054e+00	4.180611e+01	-2.472749e-12	2.540155e+05	1.013209e+05	2.881204e+02	1.002879e-01	-5.825083e-03	0.000000e+00	
-1.948718e+00	1.028481e+00	1.225054e+00	4.180611e+01	-3.178032e-10	2.540155e+05	1.013209e+05	2.881204e+02	1.002879e-01	-5.825084e-03	0.000000e+00	
-2.000000e+00	9.968354e-01	1.225054e+00	4.180611e+01	-2.929732e-12	2.540155e+05	1.013209e+05	2.881204e+02	1.002879e-01	-5.825083e-03	0.000000e+00	
-1.948718e+00	9.968354e-01	1.225054e+00	4.180611e+01	-2.930224e-10	2.540155e+05	1.013209e+05	2.881204e+02	1.002879e-01	-5.825084e-03	0.000000e+00	
-2.000000e+00	9.651899e-01	1.225054e+00	4.180611e+01	-2.905122e-12	2.540155e+05	1.013209e+05	2.881204e+02	1.002879e-01	-5.825083e-03	0.000000e+00	
-1.948718e+00	9.651899e-01	1.225054e+00	4.180611e+01	-2.728904e-10	2.540155e+05	1.013209e+05	2.881204e+02	1.002879e-01	-5.825084e-03	0.000000e+00	
-2.000000e+00	9.335443e-01	1.225054e+00	4.180611e+01	-1.585905e-12	2.540155e+05	1.013209e+05	2.881204e+02	1.002879e-01	-5.825083e-03	0.000000e+00	
-1.948718e+00	9.335443e-01	1.225054e+00	4.180611e+01	-2.527412e-10	2.540155e+05	1.013209e+05	2.881204e+02	1.002879e-01	-5.825084e-03	0.000000e+00	
-2.000000e+00	9.018987e-01	1.225054e+00	4.180611e+01	-6.142981e-13	2.540155e+05	1.013209e+05	2.881204e+02	1.002879e-01	-5.825083e-03	0.000000e+00	
-1.948718e+00	9.018987e-01	1.225054e+00	4.180611e+01	-2.345342e-10	2.540155e+05	1.013209e+05	2.881204e+02	1.002879e-01	-5.825084e-03	0.000000e+00	
-2.000000e+00	8.702532e-01	1.225054e+00	4.180611e+01	-4.873409e-13	2.540155e+05	1.013209e+05	2.881204e+02	1.002879e-01	-5.825083e-03	0.000000e+00	
-1.948718e+00	8.702532e-01	1.225054e+00	4.180611e+01	-2.181332e-10	2.540155e+05	1.013209e+05	2.881204e+02	1.002879e-01	-5.825084e-03	0.000000e+00	
-2.000000e+00	8.386076e-01	1.225054e+00	4.180611e+01	-7.417195e-13	2.540155e+05	1.013209e+05	2.881204e+02	1.002879e-01	-5.825083e-03	0.000000e+00	
-1.948718e+00	8.386076e-01	1.225054e+00	4.180611e+01	-2.034404e-10	2.540155e+05	1.013209e+05	2.881204e+02	1.002879e-01	-5.825084e-03	0.000000e+00	
-2.000000e+00	8.069620e-01	1.225054e+00	4.180611e+01	-1.072275e-12	2.540155e+05	1.013209e+05	2.881204e+02	1.002879e-01	-5.825083e-03	0.000000e+00	
-1.948718e+00	8.069620e-01	1.225054e+00	4.180611e+01	-1.899605e-10	2.540155e+05	1.013209e+05	2.881204e+02	1.002879e-01	-5.825084e-03	0.000000e+00	
-2.000000e+00	7.753165e-01	1.225054e+00	4.180611e+01	-1.628396e-12	2.540155e+05	1.013209e+05	2.881204e+02	1.002879e-01	-5.825083e-03	0.000000e+00	
-1.948718e+00	7.753165e-01	1.225054e+00	4.180611e+01	-1.774293e-10	2.540155e+05	1.013209e+05	2.881204e+02	1.002879e-01	-5.825084e-03	0.000000e+00	
-2.000000e+00	7.436709e-01	1.225054e+00	4.180611e+01	-1.836832e-12	2.540155e+05	1.013209e+05	2.881204e+02	1.002879e-01	-5.825083e-03	0.000000e+00	
-1.948718e+00	7.436709e-01	1.225054e+00	4.180611e+01	-1.651910e-10	2.540155e+05	1.013209e+05	2.881204e+02	1.002879e-01	-5.825084e-03	0.000000e+00	
-2.000000e+00	7.120253e-01	1.225054e+00	4.180611e+01	-2.088510e-12	2.540155e+05	1.013209e+05	2.881204e+02	1.002879e-01	-5.825083e-03	0.000000e+00	
-1.948718e+00	7.120253e-01	1.225054e+00	4.180611e+01	-1.534876e-10	2.540155e+05	1.013209e+05	2.881204e+02	1.002879e-01	-5.825084e-03	0.000000e+00	
-2.000000e+00	6.803797e-01	1.225054e+00	4.180611e+01	-2.114415e-12	2.540155e+05	1.013209e+05	2.881204e+02	1.002879e-01	-5.825083e-03	0.000000e+00	
-1.948718e+00	6.803797e-01	1.225054e+00	4.180611e+01	-1.417469e-10	2.540155e+05	1.013209e+05	2.881204e+02	1.002879e-01	-5.825084e-03	0.000000e+00	
-2.000000e+00	6.487342e-01	1.225054e+00	4.180611e+01	-2.204089e-12	2.540155e+05	1.013209e+05	2.881204e+02	1.002879e-01	-5.825083e-03	0.000000e+00	
-1.948718e+00	6.487342e-01	1.225054e+00	4.180611e+01	-1.304585e-10	2.540155e+05	1.013209e+05	2.881204e+02	1.002879e-01	-5.825084e-03	0.000000e+00	
-2.000000e+00	6.170886e-01	1.225054e+00	4.180611e+01	-2.240607e-12	2.540155e+05	1.013209e+05	2.881204e+02	1.002879e-01	-5.825083e-03	0.000000e+00	
-1.948718e+00	6.170886e-01	1.225054e+00	4.180611e+01	-1.191503e-10	2.540155e+05	1.013209e+05	2.881204e+02	1.002879e-01	-5.825084e-03	0.000000e+00	
-2.000000e+00	5.854430e-01	1.225054e+00	4.180611e+01	-2.284923e-12	2.540155e+05	1.013209e+05	2.881204e+02	1.002879e-01	-5.825083e-03	0.000000e+00	
-1.948718e+00	5.854430e-01	1.225054e+00	4.180611e+01	-1.081989e-10	2.540155e+05	1.013209e+05	2.881204e+02	1.002879e-01	-5.825084e-03	0.000000e+00	
-2.000000e+00	5.537975e-01	1.225054e+00	4.180611e+01	-2.447072e-12	2.540155e+05	1.013209e+05	2.881204e+02	1.002879e-01	-5.825083e-03	0.000000e+00	
-1.948718e+00	5.537975e-01	1.225054e+00	4.180611e+01	-9.731034e-11	2.540155e+05	1.013209e+05	2.881204e+02	1.002879e-01	-5.825084e-03	0.000000e+00	
-2.000000e+00	5.221519e-01	1.225054e+00	4.180611e+01	-2.533132e-12	2.540155e+05	1.013209e+05	2.881204e+02	1.002879e-01	-5.825083e-03	0.000000e+00	
-1.948718e+00	5.221519e-01	1.225054e+00	4.180611e+01	-8.654149e-11	2.540155e+05	1.013209e+05	2.881204e+02	1.002879e-01	-5.825084e-03	0.000000e+00	
-2.000000e+00	4.905063e-01	1.225054e+00	4.180611e+01	-2.488017e-12	2.540155e+05	1.013209e+05	2.881204e+02	1.002879e-01	-5.825083e-03	0.000000e+00	
-1.948718e+00	4.905063e-01	1.225054e+00	4.180611e+01	-7.578251e-11	2.540155e+05	1.013209e+05	2.881204e+02	1.002879e-01	-5.825084e-03	0.000000e+00	
-2.000000e+00	4.588608e-01	1.225054e+00	4.180611e+01	-2.574593e-12	2.540155e+05	1.013209e+05	2.881204e+02	1.002879e-01	-5.825083e-03	0.000000e+00	
-1.948718e+00	4.588608e-01	1.225054e+00	4.180611e+01	-6.533681e-11	2.540155e+05	1.013209e+05	2.881204e+02	1.002879e-01	-5.825084e-03	0.000000e+00	
-2.000000e+00	4.272152e-01	1.225054e+00	4.180611e+01	-2.731609e-12	2.540155e+05	1.013209e+05	2.881204e+02	1.002879e-01	-5.825083e-03	0.000000e+00	
-1.948718e+00	4.272152e-01	1.225054e+00	4.180611e+01	-5.488467e-11	2.540155e+05	1.013209e+05	2.881204e+02	1.002879e-01	-5.825084e-03	0.000000e+00	
-2.000000e+00	3.955696e-01	1.225054e+00	4.180611e+01	-2.485430e-12	2.540155e+05	1.013209e+05	2.881204e+02	1.002879e-01	-5.825083e-03	0.000000e+00	
-1.948718e+00	3.955696e-01	1.225054e+00	4.180611e+01	-4.451858e-11	2.540155e+05	1.013209e+05	2.881204e+02	1.002879e-01	-5.825084e-03	0.000000e+00	
-2.000000e+00	3.639241e-01	1.225054e+00	4.180611e+01	-2.466680e-12	2.540155e+05	1.013209e+05	2.881204e+02	1.002879e-01	-5.825083e-03	0.000000e+00	
-1.948718e+00	3.639241e-01	1.225054e+00	4.180611e+01	-3.412839e-11	2.540155e+05	1.013209e+05	2.881204e+02	1.002879e-01	-5.825084e-03	0.000000e+00	
-2.000000e+00	3.322785e-01	1.225054e+00	4.180611e+01	-2.393032e-12	2.540155e+05	1.013209e+05	2.881204e+02	1.002879e-01	-5.825083e-03	0.000000e+00	
-1.948718e+00	3.322785e-01	1.225054e+00	4.180611e+01	-2.398726e-11	2.540155e+05	1.013209e+05	2.881204e+02	1.002879e-01	-5.825084e-03	0.000000e+00	
-2.000000e+00	3.006329e-01	1.225054e+00	4.180611e+01	-2.475901e-12	2.540155e+05	1.013209e+05	2.881204e+02	1.002879e-01	-5.825083e-03	0.000000e+00	
-1.948718e+00	3.006329e-01	1.225054e+00	4.180611e+01	-1.402545e-11	2.540155e+05	1.013209e+05	2.881204e+02	1.002879e-01	-5.825084e-03	0.000000e+00	
-2.000000e+00	2.689873e-01	1.225054e+00	4.180611e+01	-2.414083e-12	2.540155e+05	1.013209e+05	2.881204e+02	1.002879e-01	-5.825083e-03	0.000000e+00	
-1.948718e+00	2.689873e-01	1.225054e+00	4.180611e+01	-4.264563e-12	2.540155e+05	1.013209e+05	2.881204e+02	1.002879e-01	-5.825084e-03	0.000000e+00	
-2.000000e+00	2.373418e-01	1.225054e+00	4.180611e+01	-2.572433e-12	2.540155e+05	1.013209e+05	2.881204e+02	1.002879e-01	-5.825083e-03	0.000000e+00	
-1.948718e+00	2.373418e-01	1.225054e+00	4.180611e+01	5.325248e-12	2.540155e+05	1.013209e+05	2.881204e+02	1.002879e-01	-5.825084e-03	0.000000e+00	
-2.000000e+00	2.056962e-01	1.225054e+00	4.180611e+01	-2.430451e-12	2.540155e+05	1.013209e+05	2.881204e+02	1.002879e-01	-5.825083e-03	0.000000e+00	
-1.948718e+00	2.056962e-01	1.225054e+00	4.180611e+01	1.480747e-11	2.540155e+05	1.013209e+05	2.881204e+02	1.002879e-01	-5.825084e-03	0.000000e+00	
-2.000000e+00	1.740506e-01	1.225054e+00	4.180611e+01	-2.205113e-12	2.540155e+05	1.013209e+05	2.881204e+02	1.002879e-01	-5.825083e-03	0.000000e+00	
-1.948718e+00	1.740506e-01	1.225054e+00	4.180611e+01	2.416582e-11	2.540155e+05	1.013209e+05	2.881204e+02	1.002879e-01	-5.825084e-03	0.000000e+00	
-2.000000e+00	1.424051e-01	1.225054e+00	4.180611e+01	-2.177335e-12	2.540155e+05	1.013209e+05	2.881204e+02	1.002879e-01	-5.825083e-03	0.000000e+00	
-1.948718e+00	1.424051e-01	1.225054e+00	4.180611e+01	3.323004e-11	2.540155e+05	1.013209e+05	2.881204e+02	1.002879e-01	-5.825084e-03	0.000000e+00	
-2.000000e+00	1.107595e-01	1.225054e+00	4.180611e+01	-2.260232e-12	2.540155e+05	1.013209e+05	2.881204e+02	1.002879e-01	-5.825083e-03	0.000000e+00	
-1.948718e+00	1.107595e-01	1.225054e+00	4.180611e+01	4.190927e-11	2.540155e+05	1.013209e+05	2.881204e+02	1.002879e-01	-5.825084e-03	0.000000e+00	
-2.000000e+00	7.911392e-02	1.225054e+00	4.180611e+01	-2.282144e-12	2.540155e+05	1.013209e+05	2.881204e+02	1.002879e-01	-5.825083e-03	0.000000e+00	
-1.948718e+00	7.911392e-02	1.225054e+00	4.180611e+01	5.042875e-11	2.540155e+05	1.013209e+05	2.881204e+02	1.002879e-01	-5.825084e-03	0.000000e+00	
-2.000000e+00	4.746835e-02	1.225054e+00	4.180611e+01	-2.190154e-12	2.540155e+05	1.013209e+05	2.881204e+02	1.002879e-01	-5.825083e-03	0.000000e+00	
-1.948718e+00	4.746835e-02	1.225054e+00	4.180611e+01	5.876231e-11	2.540155e+05	1.013209e+05	2.881204e+02	1.002879e-01	-5.825084e-03	0.000000e+00	
-2.000000e+00	1.582278e-02	1.225054e+00	4.180611e+01	-2.348130e-12	2.540155e+05	1.013209e+05	2.881204e+02	1.002879e-01	-5.825083e-03	0.000000e+00	
-1.948718e+00	1.582278e-02	1.225054e+00	4.180611e+01	6.667444e-11	2.540155e+05	1.013209e+05	2.881204e+02	1.002879e-01	-5.825084e-03	0.000000e+00	
-2.000000e+00	-1.582278e-02	1.225054e+00	4.180611e+01	-2.211390e-12	2.540155e+05	1.013209e+05	2.881204e+02	1.002879e-01	-5.825083e-03	0.000000e+00	
-1.948718e+00	-1.582278e-02	1.225054e+00	4.180611e+01	7.438682e-11	2.540155e+05	1.013209e+05	2.881204e+02	1.002879e-01	-5.825084e-03	0.000000e+00	
-2.000000e+00	-4.746835e-02	1.225054e+00	4.180611e+01	-2.163272e-12	2.540155e+05	1.013209e+05	2.881204e+02	1.002879e-01	-5.825083e-03	0.000000e+00	
-1.948718e+00	-4.746835e-02	1.225054e+00	4.180611e+01	8.168638e-11	2.540155e+05	1.013209e+05	2.881204e+02	1.002879e-01	-5.825084e-03	0.000000e+00	
-2.000000e+00	-7.911392e-02	1.225054e+00	4.180611e+01	-2.126519e-12	2.540155e+05	1.013209e+05	2.881204e+02	1.002879e-01	-5.825083e-03	0.000000e+00	
-1.948718e+00	-7.911392e-02	1.225054e+00	4.180611e+01	8.871463e-11	2.540155e+05	1.013209e+05	2.881204e+02	1.002879e-01	-5.825084e-03	0.000000e+00	
-2.000000e+00	-1.107595e-01	1.225054e+00	4.180611e+01	-2.095187e-12	2.540155e+05	1.013209e+05	2.881204e+02	1.002879e-01	-5.825083e-03	0.000000e+00	
-1.948718e+00	-1.107595e-01	1.225054e+00	4.180611e+01	9.529851e-11	2.540155e+05	1.013209e+05	2.881204e+02	1.002879e-01	-5.825084e-03	0.000000e+00	
-2.000000e+00	-1.424051e-01	1.225054e+00	4.180611e+01	-2.128021e-12	2.540155e+05	1.013209e+05	2.881204e+02	1.002879e-01	-5.825083e-03	0.000000e+00	
-1.948718e+00	-1.424051e-01	1.225054e+00	4.180611e+01	1.015044e-10	2.540155e+05	1.013209e+05	2.881204e+02	1.002879e-01	-5.825084e-03	0.000000e+00	
-2.000000e+00	-1.740506e-01	1.225054e+00	4.180611e+01	-2.108969e-12	2.540155e+05	1.013209e+05	2.881204e+02	1.002879e-01	-5.825083e-03	0.000000e+00	
-1.948718e+00	-1.740506e-01	1.225054e+00	4.180611e+01	1.072590e-10	2.540155e+05	1.013209e+05	2.881204e+02	1.002879e-01	-5.825084e-03	0.000000e+00	
-2.000000e+00	-2.056962e-01	1.225054e+00	4.180611e+01	-2.061481e-12	2.540155e+05	1.013209e+05	2.881204e+02	1.002879e-01	-5.825083e-03	0.000000e+00	
-1.948718e+00	-2.056962e-01	1.225054e+00	4.180611e+01	1.127206e-10	2.540155e+05	1.013209e+05	2.881204e+02	1.002879e-01	-5.825084e-03	0.000000e+00	
-2.000000e+00	-2.373418e-01	1.225054e+00	4.180611e+01	-1.935530e-12	2.540155e+05	1.013209e+05	2.881204e+02	1.002879e-01	-5.825083e-03	0.000000e+00	
-1.948718e+00	-2.373418e-01	1.225054e+00	4.180611e+01	1.176126e-10	2.540155e+05	1.013209e+05	2.881204e+02	1.002879e-01	-5.825084e-03	0.000000e+00	
-2.000000e+00	-2.689873e-01	1.225054e+00	4.180611e+01	-1.881519e-12	2.540155e+05	1.013209e+05	2.881204e+02	1.002879e-01	-5.825083e-03	0.000000e+00	
-1.948718e+00	-2.689873e-01	1.225054e+00	4.180611e+01	1.220456e-10	2.540155e+05	1.013209e+05	2.881204e+02	1.002879e-01	-5.825084e-03	0.000000e+00	
-2.000000e+00	-3.006329e-01	1.225054e+00	4.180611e+01	-2.056310e-12	2.540155e+05	1.013209e+05	2.881204e+02	1.002879e-01	-5.825083e-03	0.000000e+00	
-1.948718e+00	-3.006329e-01	1.225054e+00	4.180611e+01	1.258990e-10	2.540155e+05	1.013209e+05	2.881204e+02	1.002879e-01	-5.825084e-03	0.000000e+00	
-2.000000e+00	-3.322785e-01	1.225054e+00	4.180611e+01	-2.032333e-12	2.540155e+05	1.013209e+05	2.881204e+02	1.002879e-01	-5.825083e-03	0.000000e+00	
-1.948718e+00	-3.322785e-01	1.225054e+00	4.180611e+01	1.294547e-10	2.540155e+05	1.013209e+05	2.881204e+02	1.002879e-01	-5.825084e-03	0.000000e+00	
-2.000000e+00	-3.639241e-01	1.225054e+00	4.180611e+01	-1.901558e-12	2.540155e+05	1.013209e+05	2.881204e+02	1.002879e-01	-5.825083e-03	0.000000e+00	
-1.948718e+00	-3.639241e-01	1.225054e+00	4.180611e+01	1.324578e-10	2.540155e+05	1.013209e+05	2.881204e+02	1.002879e-01	-5.825084e-03	0.000000e+00	
-2.000000e+00	-3.955696e-01	1.225054e+00	4.180611e+01	-1.835318e-12	2.540155e+05	1.013209e+05	2.881204e+02	1.002879e-01	-5.825083e-03	0.000000e+00	
-1.948718e+00	-3.955696e-01	1.225054e+00	4.180611e+01	1.351137e-10	2.540155e+05	1.013209e+05	2.881204e+02	1.002879e-01	-5.825084e-03	0.000000e+00	
-2.000000e+00	-4.272152e-01	1.225054e+00	4.180611e+01	-1.941030e-12	2.540155e+05	1.013209e+05	2.881204e+02	1.002879e-01	-5.825083e-03	0.000000e+00	
-1.948718e+00	-4.272152e-01	1.225054e+00	4.180611e+01	1.370167e-10	2.540155e+05	1.013209e+05	2.881204e+02	1.002879e-01	-5.825084e-03	0.000000e+00	
-2.000000e+00	-4.588608e-01	1.225054e+00	4.180611e+01	-1.974782e-12	2.540155e+05	1.013209e+05	2.881204e+02	1.002879e-01	-5.825083e-03	0.000000e+00	
-1.948718e+00	-4.588608e-01	1.225054e+00	4.180611e+01	1.386515e-10	2.540155e+05	1.013209e+05	2.881204e+02	1.002879e-01	-5.825084e-03	0.000000e+00	
-2.000000e+00	-4.905063e-01	1.225054e+00	4.180611e+01	-2.009735e-12	2.540155e+05	1.013209e+05	2.881204e+02	1.002879e-01	-5.825083e-03	0.000000e+00	
-1.948718e+00	-4.905063e-01	1.225054e+00	4.180611e+01	1.396649e-10	2.540155e+05	1.013209e+05	2.881204e+02	1.002879e-01	-5.825084e-03	0.000000e+00	
-2.000000e+00	-5.221519e-01	1.225054e+00	4.180611e+01	-2.131779e-12	2.540155e+05	1.013209e+05	2.881204e+02	1.002879e-01	-5.825083e-03	0.000000e+00	
-1.948718e+00	-5.221519e-01	1.225054e+00	4.180611e+01	1.402891e-10	2.540155e+05	1.013209e+05	2.881204e+02	1.002879e-01	-5.825084e-03	0.000000e+00	
-2.000000e+00	-5.537975e-01	1.225054e+00	4.180611e+01	-2.314114e-12	2.540155e+05	1.013209e+05	2.881204e+02	1.002879e-01	-5.825083e-03	0.000000e+00	
-1.948718e+00	-5.537975e-01	1.225054e+00	4.180611e+01	1.404016e-10	2.540155e+05	1.013209e+05	2.881204e+02	1.002879e-01	-5.825084e-03	0.000000e+00	
-2.000000e+00	-5.854430e-01	1.225054e+00	4.180611e+01	-2.438618e-12	2.540155e+05	1.013209e+05	2.881204e+02	1.002879e-01	-5.825083e-03	0.000000e+00	
-1.948718e+00	-5.854430e-01	1.225054e+00	4.180611e+01	1.402686e-10	2.540155e+05	1.013209e+05	2.881204e+02	1.002879e-01	-5.825084e-03	0.000000e+00	
-2.000000e+00	-6.170886e-01	1.225054e+00	4.180611e+01	-2.524024e-12	2.540155e+05	1.013209e+05	2.881204e+02	1.002879e-01	-5.825083e-03	0.000000e+00	
-1.948718e+00	-6.170886e-01	1.225054e+00	4.180611e+01	1.398911e-10	2.540155e+05	1.013209e+05	2.881204e+02	1.002879e-01	-5.825084e-03	0.000000e+00	
-2.000000e+00	-6.487342e-01	1.225054e+00	4.180611e+01	-2.853949e-12	2.540155e+05	1.013209e+05	2.881204e+02	1.002879e-01	-5.825083e-03	0.000000e+00	
-1.948718e+00	-6.487342e-01	1.225054e+00	4.180611e+01	1.393019e-10	2.540155e+05	1.013209e+05	2.881204e+02	1.002879e-01	-5.825084e-03	0.000000e+00	
-2.000000e+00	-6.803797e-01	1.225054e+00	4.180611e+01	-3.167369e-12	2.540155e+05	1.013209e+05	2.881204e+02	1.002879e-01	-5.825083e-03	0.000000e+00	
-1.948718e+00	-6.803797e-01	1.225054e+00	4.180611e+01	1.386518e-10	2.540155e+05	1.013209e+05	2.881204e+02	1.002879e-01	-5.825084e-03	0.000000e+00	
-2.000000e+00	-7.120253e-01	1.225054e+00	4.180611e+01	-3.285990e-12	2.540155e+05	1.013209e+05	2.881204e+02	1.002879e-01	-5.825083e-03	0.000000e+00	
-1.948718e+00	-7.120253e-01	1.225054e+00	4.180611e+01	1.382178e-10	2.540155e+05	1.013209e+05	2.881204e+02	1.002879e-01	-5.825084e-03	0.000000e+00	
-2.000000e+00	-7.436709e-01	1.225054e+00	4.180611e+01	-3.481802e-12	2.540155e+05	1.013209e+05	2.881204e+02	1.002879e-01	-5.825083e-03	0.000000e+00	
-1.948718e+00	-7.436709e-01	1.225054e+00	4.180611e+01	1.379632e-10	2.540155e+05	1.013209e+05	2.881204e+02	1.002879e-01	-5.825084e-03	0.000000e+00	
-2.000000e+00	-7.753165e-01	1.225054e+00	4.180611e+01	-3.916232e-12	2.540155e+05	1.013209e+05	2.881204e+02	1.002879e-01	-5.825083e-03	0.000000e+00	
-1.948718e+00	-7.753165e-01	1.225054e+00	4.180611e+01	1.379578e-10	2.540155e+05	1.013209e+05	2.881204e+02	1.002879e-01	-5.825084e-03	0.000000e+00	
-2.000000e+00	-8.069620e-01	1.225054e+00	4.180611e+01	-4.467782e-12	2.540155e+05	1.013209e+05	2.881204e+02	1.002879e-01	-5.825083e-03	0.000000e+00	
-1.948718e+00	-8.069620e-01	1.225054e+00	4.180611e+01	1.383875e-10	2.540155e+05	1.013209e+05	2.881204e+02	1.002879e-01	-5.825084e-03	0.000000e+00	
-2.000000e+00	-8.386076e-01	1.225054e+00	4.180611e+01	-5.298201e-12	2.540155e+05	1.013209e+05	2.881204e+02	1.002879e-01	-5.825083e-03	0.000000e+00	
-1.948718e+00	-8.386076e-01	1.225054e+00	4.180611e+01	1.397548e-10	2.540155e+05	1.013209e+05	2.881204e+02	1.002879e-01	-5.825084e-03	0.000000e+00	
-2.000000e+00	-8.702532e-01	1.225054e+00	4.180611e+01	-5.749218e-12	2.540155e+05	1.013209e+05	2.881204e+02	1.002879e-01	-5.825083e-03	0.000000e+00	
-1.948718e+00	-8.702532e-01	1.225054e+00	4.180611e+01	1.427426e-10	2.540155e+05	1.013209e+05	2.881204e+02	1.002879e-01	-5.825084e-03	0.000000e+00	
-2.000000e+00	-9.018987e-01	1.225054e+00	4.180611e+01	-5.657026e-12	2.540155e+05	1.013209e+05	2.881204e+02	1.002879e-01	-5.825083e-03	0.000000e+00	
-1.948718e+00	-9.018987e-01	1.225054e+00	4.180611e+01	1.480756e-10	2.540155e+05	1.013209e+05	2.881204e+02	1.002879e-01	-5.825084e-03	0.000000e+00	
-2.000000e+00	-9.335443e-01	1.225054e+00	4.180611e+01	-4.713433e-12	2.540155e+05	1.013209e+05	2.881204e+02	1.002879e-01	-5.825083e-03	0.000000e+00	
-1.948718e+00	-9.335443e-01	1.225054e+00	4.180611e+01	1.558164e-10	2.540155e+05	1.013209e+05	2.881204e+02	1.002879e-01	-5.825084e-03	0.000000e+00	
-2.000000e+00	-9.651899e-01	1.225054e+00	4.180611e+01	-3.497307e-12	2.540155e+05	1.013209e+05	2.881204e+02	1.002879e-01	-5.825083e-03	0.000000e+00	
-1.948718e+00	-9.651899e-01	1.225054e+00	4.180611e+01	1.660670e-10	2.540155e+05	1.013209e+05	2.881204e+02	1.002879e-01	-5.825084e-03	0.000000e+00	
-2.000000e+00	-9.968354e-01	1.225054e+00	4.180611e+01	-3.527495e-12	2.540155e+05	1.013209e+05	2.881204e+02	1.002879e-01	-5.825083e-03	0.000000e+00	
-1.948718e+00	-9.968354e-01	1.225054e+00	4.180611e+01	1.770092e-10	2.540155e+05	1.013209e+05	2.881204e+02	1.002879e-01	-5.825084e-03	0.000000e+00	
-2.000000e+00	-1.028481e+00	1.225054e+00	4.180611e+01	-4.170824e-12	2.540155e+05	1.013209e+05	2.881204e+02	1.002879e-01	-5.825083e-03	0.000000e+00	
-1.948718e+00	-1.028481e+00	1.225054e+00	4.180611e+01	1.934238e-10	2.540155e+05	1.013209e+05	2.881204e+02	1.002879e-01	-5.825084e-03	0.000000e+00	
-2.000000e+00	-1.060127e+00	1.225054e+00	4.180611e+01	7.187648e-13	2.540155e+05	1.013209e+05	2.881204e+02	1.002879e-01	-5.825083e-03	0.000000e+00	
-1.948718e+00	-1.060127e+00	1.225054e+00	4.180611e+01	2.227831e-10	2.540155e+05	1.013209e+05	2.881204e+02	1.002879e-01	-5.825084e-03	0.000000e+00	
-2.000000e+00	-1.091772e+00	1.225054e+00	4.180611e+01	3.430979e-11	2.540155e+05	1.013209e+05	2.881204e+02	1.002879e-01	-5.825083e-03	0.000000e+00	
-1.948718e+00	-1.091772e+00	1.225054e+00	4.180611e+01	2.954872e-10	2.540155e+05	1.013209e+05	2.881204e+02	1.002879e-01	-5.825084e-03	0.000000e+00	
-2.000000e+00	-1.123418e+00	1.225054e+00	4.180611e+01	1.287092e-10	2.540155e+05	1.013209e+05	2.881204e+02	1.002879e-01	-5.825083e-03	0.000000e+00	
-1.948718e+00	-1.123418e+00	1.225054e+00	4.180611e+01	4.237012e-10	2.540155e+05	1.013209e+05	2.881204e+02	1.002879e-01	-5.825084e-03	0.000000e+00	
-2.000000e+00	-1.155063e+00	1.225054e+00	4.180611e+01	3.091830e-10	2.540155e+05	1.013209e+05	2.881204e+02	1.002879e-01	-5.825083e-03	0.000000e+00	
-1.948718e+00	-1.155063e+00	1.225054e+00	4.180611e+01	6.196561e-10	2.540155e+05	1.013209e+05	2.881204e+02	1.002879e-01	-5.825084e-03	0.000000e+00	
-2.000000e+00	-1.186709e+00	1.225054e+00	4.180611e+01	5.030085e-10	2.540155e+05	1.013209e+05	2.881204e+02	1.002879e-01	-5.825083e-03	0.000000e+00	
-1.948718e+00	-1.186709e+00	1.225054e+00	4.180611e+01	7.253452e-10	2.540155e+05	1.013209e+05	2.881204e+02	1.002879e-01	-5.825084e-03	0.000000e+00	
-2.000000e+00	-1.218354e+00	1.225054e+00	4.180611e+01	5.325649e-10	2.540155e+05	1.013209e+05	2.881204e+02	1.002879e-01	-5.825083e-03	0.000000e+00	
-1.948718e+00	-1.218354e+00	1.225054e+00	4.180611e+01	6.293370e-10	2.540155e+05	1.013209e+05	2.881204e+02	1.002879e-01	-5.825084e-03	0.000000e+00	
-1.897436e+00	1.218354e+00	1.225054e+00	4.180611e+01	-9.143780e-10	2.540155e+05	1.013209e+05	2.881204e+02	1.002879e-01	-5.825085e-03	0.000000e+00	
-1.897436e+00	1.250000e+00	1.225054e+00	4.180611e+01	-1.498064e-10	2.540155e+05	1.013209e+05	2.881204e+02	1.002879e-01	-5.825085e-03	0.000000e+00	
-1.897436e+00	1.186709e+00	1.225054e+00	4.180611e+01	-1.167053e-09	2.540155e+05	1.013209e+05	2.881204e+02	1.002879e-01	-5.825085e-03	0.000000e+00	
-1.897436e+00	1.155063e+00	1.225054e+00	4.180611e+01	-1.146103e-09	2.540155e+05	1.013209e+05	2.881204e+02	1.002879e-01	-5.825085e-03	0.000000e+00	
-1.897436e+00	1.123418e+00	1.225054e+00	4.180611e+01	-9.544825e-10	2.540155e+05	1.013209e+05	2.881204e+02	1.002879e-01	-5.825085e-03	0.000000e+00	
-1.897436e+00	1.091772e+00	1.225054e+00	4.180611e+01	-7.931286e-10	2.540155e+05	1.013209e+05	2.881204e+02	1.002879e-01	-5.825085e-03	0.000000e+00	
-1.897436e+00	1.060127e+00	1.225054e+00	4.180611e+01	-6.757535e-10	2.540155e+05	1.013209e+05	2.881204e+02	1.002879e-01	-5.825085e-03	0.000000e+00	
-1.897436e+00	1.028481e+00	1.225054e+00	4.180611e+01	-6.109435e-10	2.540155e+05	1.013209e+05	2.881204e+02	1.002879e-01	-5.825085e-03	0.000000e+00	
-1.897436e+00	9.968354e-01	1.225054e+00	4.180611e+01	-5.651444e-10	2.540155e+05	1.013209e+05	2.881204e+02	1.002879e-01	-5.825085e-03	0.000000e+00	
-1.897436e+00	9.651899e-01	1.225054e+00	4.180611e+01	-5.291734e-10	2.540155e+05	1.013209e+05	2.881204e+02	1.002879e-01	-5.825085e-03	0.000000e+00	
-1.897436e+00	9.335443e-01	1.225054e+00	4.180611e+01	-4.938954e-10	2.540155e+05	1.013209e+05	2.881204e+02	1.002879e-01	-5.825085e-03	0.000000e+00	
-1.897436e+00	9.018987e-01	1.225054e+00	4.180611e+01	-4.611274e-10	2.540155e+05	1.013209e+05	2.881204e+02	1.002879e-01	-5.825085e-03	0.000000e+00	
-1.897436e+00	8.702532e-01	1.225054e+00	4.180611e+01	-4.303261e-10	2.540155e+05	1.013209e+05	2.881204e+02	1.002879e-01	-5.825085e-03	0.000000e+00	
-1.897436e+00	8.386076e-01	1.225054e+00	4.180611e+01	-4.021685e-10	2.540155e+05	1.013209e+05	2.881204e+02	1.002879e-01	-5.825085e-03	0.000000e+00	
-1.897436e+00	8.069620e-01	1.225054e+00	4.180611e+01	-3.757966e-10	2.540155e+05	1.013209e+05	2.881204e+02	1.002879e-01	-5.825085e-03	0.000000e+00	
-1.897436e+00	7.753165e-01	1.225054e+00	4.180611e+01	-3.509667e-10	2.540155e+05	1.013209e+05	2.881204e+02	1.002879e-01	-5.825085e-03	0.000000e+00	
-1.897436e+00	7.436709e-01	1.225054e+00	4.180611e+01	-3.268383e-10	2.540155e+05	1.013209e+05	2.881204e+02	1.002879e-01	-5.825085e-03	0.000000e+00	
-1.897436e+00	7.120253e-01	1.225054e+00	4.180611e+01	-3.035668e-10	2.540155e+05	1.013209e+05	2.881204e+02	1.002879e-01	-5.825085e-03	0.000000e+00	
-1.897436e+00	6.803797e-01	1.225054e+00	4.180611e+01	-2.804375e-10	2.540155e+05	1.013209e+05	2.881204e+02	1.002879e-01	-5.825085e-03	0.000000e+00	
-1.897436e+00	6.487342e-01	1.225054e+00	4.180611e+01	-2.578988e-10	2.540155e+05	1.013209e+05	2.881204e+02	1.002879e-01	-5.825085e-03	0.000000e+00	
-1.897436e+00	6.170886e-01	1.225054e+00	4.180611e+01	-2.355151e-10	2.540155e+05	1.013209e+05	2.881204e+02	1.002879e-01	-5.825085e-03	0.000000e+00	
-1.897436e+00	5.854430e-01	1.225054e+00	4.180611e+01	-2.135685e-10	2.540155e+05	1.013209e+05	2.881204e+02	1.002879e-01	-5.825085e-03	0.000000e+00	
-1.897436e+00	5.537975e-01	1.225054e+00	4.180611e+01	-1.917372e-10	2.540155e+05	1.013209e+05	2.881204e+02	1.002879e-01	-5.825085e-03	0.000000e+00	
-1.897436e+00	5.221519e-01	1.225054e+00	4.180611e+01	-1.702343e-10	2.540155e+05	1.013209e+05	2.881204e+02	1.002879e-01	-5.825085e-03	0.000000e+00	
-1.897436e+00	4.905063e-01	1.225054e+00	4.180611e+01	-1.488008e-10	2.540155e+05	1.013209e+05	2.881204e+02	1.002879e-01	-5.825085e-03	0.000000e+00	
-1.897436e+00	4.588608e-01	1.225054e+00	4.180611e+01	-1.277174e-10	2.540155e+05	1.013209e+05	2.881204e+02	1.002879e-01	-5.825085e-03	0.000000e+00	
-1.897436e+00	4.272152e-01	1.225054e+00	4.180611e+01	-1.067815e-10	2.540155e+05	1.013209e+05	2.881204e+02	1.002879e-01	-5.825085e-03	0.000000e+00	
-1.897436e+00	3.955696e-01	1.225054e+00	4.180611e+01	-8.596121e-11	2.540155e+05	1.013209e+05	2.881204e+02	1.002879e-01	-5.825085e-03	0.000000e+00	
-1.897436e+00	3.639241e-01	1.225054e+00	4.180611e+01	-6.546538e-11	2.540155e+05	1.013209e+05	2.881204e+02	1.002879e-01	-5.825085e-03	0.000000e+00	
-1.897436e+00	3.322785e-01	1.225054e+00	4.180611e+01	-4.513455e-11	2.540155e+05	1.013209e+05	2.881204e+02	1.002879e-01	-5.825085e-03	0.000000e+00	
-1.897436e+00	3.006329e-01	1.225054e+00	4.180611e+01	-2.518192e-11	2.540155e+05	1.013209e+05	2.881204e+02	1.002879e-01	-5.825085e-03	0.000000e+00	
-1.897436e+00	2.689873e-01	1.225054e+00	4.180611e+01	-5.552327e-12	2.540155e+05	1.013209e+05	2.881204e+02	1.002879e-01	-5.825085e-03	0.000000e+00	
-1.897436e+00	2.373418e-01	1.225054e+00	4.180611e+01	1.364097e-11	2.540155e+05	1.013209e+05	2.881204e+02	1.002879e-01	-5.825085e-03	0.000000e+00	
-1.897436e+00	2.056962e-01	1.225054e+00	4.180611e+01	3.264119e-11	2.540155e+05	1.013209e+05	2.881204e+02	1.002879e-01	-5.825085e-03	0.000000e+00	
-1.897436e+00	1.740506e-01	1.225054e+00	4.180611e+01	5.124044e-11	2.540155e+05	1.013209e+05	2.881204e+02	1.002879e-01	-5.825085e-03	0.000000e+00	
-1.897436e+00	1.424051e-01	1.225054e+00	4.180611e+01	6.931163e-11	2.540155e+05	1.013209e+05	2.881204e+02	1.002879e-01	-5.825085e-03	0.000000e+00	
-1.897436e+00	1.107595e-01	1.225054e+00	4.180611e+01	8.692512e-11	2.540155e+05	1.013209e+05	2.881204e+02	1.002879e-01	-5.825085e-03	0.000000e+00	
-1.897436e+00	7.911392e-02	1.225054e+00	4.180611e+01	1.040698e-10	2.540155e+05	1.013209e+05	2.881204e+02	1.002879e-01	-5.825085e-03	0.000000e+00	
-1.897436e+00	4.746835e-02	1.225054e+00	4.180611e+01	1.206833e-10	2.540155e+05	1.013209e+05	2.881204e+02	1.002879e-01	-5.825085e-03	0.000000e+00	
-1.897436e+00	1.582278e-02	1.225054e+00	4.180611e+01	1.366334e-10	2.540155e+05	1.013209e+05	2.881204e+02	1.002879e-01	-5.825085e-03	0.000000e+00	
-1.897436e+00	-1.582278e-02	1.225054e+00	4.180611e+01	1.520622e-10	2.540155e+05	1.013209e+05	2.881204e+02	1.002879e-01	-5.825085e-03	0.000000e+00	
-1.897436e+00	-4.746835e-02	1.225054e+00	4.180611e+01	1.668192e-10	2.540155e+05	1.013209e+05	2.881204e+02	1.002879e-01	-5.825085e-03	0.000000e+00	
-1.897436e+00	-7.911392e-02	1.225054e+00	4.180611e+01	1.808333e-10	2.540155e+05	1.013209e+05	2.881204e+02	1.002879e-01	-5.825085e-03	0.000000e+00	
-1.897436e+00	-1.107595e-01	1.225054e+00	4.180611e+01	1.941263e-10	2.540155e+05	1.013209e+05	2.881204e+02	1.002879e-01	-5.825085e-03	0.000000e+00	