VARIABLES = "x"
 "y"
 "Density"
 "Momentum_x"
 "Momentum_y"
 "Energy"
 "Pressure"
 "Temperature"
 "Mach"
 "C<sub>p</sub>"
 "Roe_Dissipation"
ZONE
DT=(DOUBLE,DOUBLE,DOUBLE,DOUBLE,DOUBLE,DOUBLE,DOUBLE,DOUBLE,DOUBLE,DOUBLE,DOUBLE)
                     -2                     0.6        1.22505402565002        41.8061103820801   -2.26453758121804E-12                254015.5          101320.8984375        288.120391845703       0.100287899374962    -0.00582508277148008                       0 
      -1.99749874937469                     0.6        1.22505402565002        41.8061103820801    -7.6985819335162E-12                254015.5          101320.8984375        288.120391845703       0.100287899374962    -0.00582508283961712                       0 
      -1.99499749874937                     0.6        1.22505402565002        41.8061103820801   -1.31326262858148E-11                254015.5          101320.8984375        288.120391845703       0.100287899374962    -0.00582508290775415                       0 
      -1.99249624812406                     0.6        1.22505402565002        41.8061103820801    -1.8566670638113E-11                254015.5          101320.8984375        288.120391845703       0.100287899374962    -0.00582508297589119                       0 
      -1.98999499749875                     0.6        1.22505402565002        41.8061103820801   -2.40007149904112E-11                254015.5          101320.8984375        288.120391845703       0.100287899374962    -0.00582508304402823                       0 
      -1.98749374687344                     0.6        1.22505402565002        41.8061103820801   -2.94347593427093E-11                254015.5          101320.8984375        288.120391845703       0.100287899374962    -0.00582508311216526                       0 
      -1.98499249624812                     0.6        1.22505402565002        41.8061103820801    -3.4868803695008E-11                254015.5          101320.8984375        288.120391845703       0.100287899374962     -0.0058250831803023                       0 
      -1.98249124562281                     0.6        1.22505402565002        41.8061103820801   -4.03028480473061E-11                254015.5          101320.8984375        288.120391845703       0.100287899374962    -0.00582508324843933                       0 
       -1.9799899949975                     0.6        1.22505402565002        41.8061103820801   -4.57368923996043E-11                254015.5          101320.8984375        288.120391845703       0.100287899374962    -0.00582508331657637                       0 
      -1.97748874437219                     0.6        1.22505402565002        41.8061103820801   -5.11709367519029E-11                254015.5          101320.8984375        288.120391845703       0.100287899374962    -0.00582508338471341                       0 
      -1.97498749374687                     0.6        1.22505402565002        41.8061103820801     -5.645245011986E-11                254015.5          101320.8984375        288.120391845703       0.100287899374962    -0.00582508345285044                       0 
      -1.97248624312156                     0.6        1.22505402565002        41.8061103820801   -6.16183398158359E-11                254015.5          101320.8984375        288.120391845703       0.100287899374962    -0.00582508352098748                       0 
      -1.96998499249625                     0.6        1.22505402565002        41.8061103820801   -6.70332432636105E-11                254015.5          101320.8984375        288.120391845703       0.100287899374962    -0.00582508358912451                       0 
      -1.96748374187094                     0.6        1.22505402565002        41.8061103820801   -7.24672876159087E-11                254015.5          101320.8984375        288.120391845703       0.100287899374962    -0.00582508365726155                       0 
      -1.96498249124562                     0.6        1.22505402565002        41.8061103820801   -7.79013319682069E-11                254015.5          101320.8984375        288.120391845703       0.100287899374962    -0.00582508372539858                       0 
      -1.96248124062031                     0.6        1.22505402565002        41.8061103820801    -8.3335376320505E-11                254015.5          101320.8984375        288.120391845703       0.100287899374962    -0.00582508379353562                       0 
        -1.959979989995                     0.6        1.22505402565002        41.8061103820801   -8.87694206728037E-11                254015.5          101320.8984375        288.120391845703       0.100287899374962    -0.00582508386167266                       0 
      -1.95747873936968                     0.6        1.22505402565002        41.8061103820801   -9.42034650251018E-11                254015.5          101320.8984375        288.120391845703       0.100287899374962    -0.00582508392980969                       0 
      -1.95497748874437                     0.6        1.22505402565002        41.8061103820801      -9.96375093774E-11                254015.5          101320.8984375        288.120391845703       0.100287899374962    -0.00582508399794673                       0 
      -1.95247623811906                     0.6        1.22505402565002        41.8061103820801   -1.05071553729699E-10                254015.5          101320.8984375        288.120391845703       0.100287899374962    -0.00582508406608376                       0 
      -1.94997498749375                     0.6        1.22505402565002        41.8061103820801   -1.10505598081997E-10                254015.5          101320.8984375        288.120391845703       0.100287899374962     -0.0058250841342208                       0 
      -1.94747373686843                     0.6        1.22505402565002        41.8061103820801   -1.15926434643496E-10                254015.5          101320.8984375        288.120391845703       0.100287899374962    -0.00582508419105993                       0 
      -1.94497248624312                     0.6        1.22505402565002        41.8061103820801   -1.21333927316635E-10                254015.5          101320.8984375        288.120391845703       0.100287899374962    -0.00582508423648472                       0 
      -1.94247123561781                     0.6        1.22505402565002        41.8061103820801   -1.26741419989773E-10                254015.5          101320.8984375        288.120391845703       0.100287899374962    -0.00582508428190952                       0 
       -1.9399699849925                     0.6        1.22505402565002        41.8061103820801   -1.32148912662911E-10                254015.5          101320.8984375        288.120391845703       0.100287899374962    -0.00582508432733431                       0 
      -1.93746873436718                     0.6        1.22505402565002        41.8061103820801   -1.37556405336049E-10                254015.5          101320.8984375        288.120391845703       0.100287899374962    -0.00582508437275911                       0 
      -1.93496748374187                     0.6        1.22505402565002        41.8061103820801   -1.42963898009188E-10                254015.5          101320.8984375        288.120391845703       0.100287899374962    -0.00582508441818391                       0 
      -1.93246623311656                     0.6        1.22505402565002        41.8061103820801   -1.48371390682326E-10                254015.5          101320.8984375        288.120391845703       0.100287899374962     -0.0058250844636087                       0 
      -1.92996498249125                     0.6        1.22505402565002        41.8061103820801   -1.53778883355464E-10                254015.5          101320.8984375        288.120391845703       0.100287899374962     -0.0058250845090335                       0 
      -1.92746373186593                     0.6        1.22505402565002        41.8061103820801   -1.59186376028603E-10                254015.5          101320.8984375        288.120391845703       0.100287899374962    -0.00582508455445829                       0 
      -1.92496248124062                     0.6        1.22505402565002        41.8061103820801    -1.6457609718785E-10                254015.5          101320.8984375        288.120391845703       0.100287899374962    -0.00582508459988309                       0 
      -1.92246123061531                     0.6        1.22505402565002        41.8061103820801   -1.69715446865672E-10                254015.5          101320.8984375        288.120391845703       0.100287899374962    -0.00582508464530789                       0 
      -1.91995997998999                     0.6        1.22505402565002        41.8061103820801   -1.74969047651549E-10                254015.5          101320.8984375        288.120391845703       0.100287899374962    -0.00582508469073268                       0 
      -1.91745872936468                     0.6        1.22505402565002        41.8061103820801   -1.80376540324687E-10                254015.5          101320.8984375        288.120391845703       0.100287899374962    -0.00582508473615748                       0 
      -1.91495747873937                     0.6        1.22505402565002        41.8061103820801   -1.85784032997825E-10                254015.5          101320.8984375        288.120391845703       0.100287899374962    -0.00582508478158228                       0 
      -1.91245622811406                     0.6        1.22505402565002        41.8061103820801   -1.91191525670963E-10                254015.5          101320.8984375        288.120391845703       0.100287899374962    -0.00582508482700707                       0 
      -1.90995497748874                     0.6        1.22505402565002        41.8061103820801   -1.96599018344102E-10                254015.5          101320.8984375        288.120391845703       0.100287899374962    -0.00582508487243187                       0 
      -1.90745372686343                     0.6        1.22505402565002        41.8061103820801    -2.0200651101724E-10                254015.5          101320.8984375        288.120391845703       0.100287899374962    -0.00582508491785666                       0 
      -1.90495247623812                     0.6        1.22505402565002        41.8061103820801   -2.07414003690378E-10                254015.5          101320.8984375        288.120391845703       0.100287899374962    -0.00582508496328146                       0 
      -1.90245122561281                     0.6        1.22505402565002        41.8061103820801   -2.12821496363517E-10                254015.5          101320.8984375        288.120391845703       0.100287899374962    -0.00582508500870626                       0 
      -1.89994997498749                     0.6        1.22505402565002        41.8061103820801   -2.18228989036655E-10                254015.5          101320.8984375        288.120391845703       0.100287899374962    -0.00582508505413105                       0 
      -1.89744872436218                     0.6        1.22505402565002        41.8061103820801   -2.23636481709793E-10                254015.5          101320.8984375        288.120391845703       0.100287899374962    -0.00582508509955585                       0 
      -1.89494747373687                     0.6        1.22505402565002        41.8061103820801    -2.2911224381493E-10                254015.5          101320.8984375        288.120391845703       0.100287899374962    -0.00582508514498054                       0 
      -1.89244622311156                     0.6        1.22505402565002        41.8061103820801   -2.34588354368605E-10                254015.5          101320.8984375        288.120391845703       0.100287899374962    -0.00582508519040523                       0 
      -1.88994497248624                     0.6        1.22505402565002        41.8061103820801    -2.4006446492228E-10                254015.5          101320.8984375        288.120391845703       0.100287899374962    -0.00582508523582992                       0 
      -1.88744372186093                     0.6        1.22505402565002        41.8061103820801   -2.45540575475956E-10                254015.5          101320.8984375        288.120391845703       0.100287899374962    -0.00582508528125461                       0 
      -1.88494247123562                     0.6        1.22505402565002        41.8061103820801   -2.51016686029631E-10                254015.5          101320.8984375        288.120391845703       0.100287899374962     -0.0058250853266793                       0 
      -1.88244122061031                     0.6        1.22505402565002        41.8061103820801   -2.56492796583306E-10                254015.5          101320.8984375        288.120391845703       0.100287899374962    -0.00582508537210399                       0 
      -1.87993996998499                     0.6        1.22505402565002        41.8061103820801   -2.61968907136982E-10                254015.5          101320.8984375        288.120391845703       0.100287899374962    -0.00582508541752868                       0 
      -1.87743871935968                     0.6        1.22505402565002        41.8061103820801   -2.67445017690657E-10                254015.5          101320.8984375        288.120391845703       0.100287899374962    -0.00582508546295337                       0 
      -1.87493746873437                     0.6        1.22505402565002        41.8061103820801   -2.72921128244332E-10                254015.5          101320.8984375        288.120391845703       0.100287899374962    -0.00582508550837806                       0 
      -1.87243621810905                     0.6        1.22505402565002        41.8061103820801   -2.78247454069249E-10                254015.5          101320.8984375        288.120391845703       0.100287899374962    -0.00582508555380275                       0 
      -1.86993496748374                     0.6        1.22505402565002        41.8061103820801   -2.83457865959246E-10                254015.5          101320.8984375        288.120391845703       0.100287899374962    -0.00582508559922744                       0 
      -1.86743371685843                     0.6        1.22505402565002        41.8061103820801    -2.8891366167269E-10                254015.5          101320.8984375        288.120391845703       0.100287899374962    -0.00582508564465214                       0 
      -1.86493246623312                     0.6        1.22505402565002        41.8061103820801   -2.94389772226365E-10                254015.5          101320.8984375        288.120391845703       0.100287899374962    -0.00582508569007683                       0 
       -1.8624312156078                     0.6        1.22505402565002        41.8061103820801   -2.99865882780041E-10                254015.5          101320.8984375        288.120391845703       0.100287899374962    -0.00582508573550152                       0 
      -1.85992996498249                     0.6        1.22505402565002        41.8061103820801   -3.05341993333716E-10                254015.5          101320.8984375        288.120391845703       0.100287899374962    -0.00582508578092621                       0 
      -1.85742871435718                     0.6        1.22505402565002        41.8061103820801   -3.10818103887391E-10                254015.5          101320.8984375        288.120391845703       0.100287899374962     -0.0058250858263509                       0 
      -1.85492746373187                     0.6        1.22505402565002        41.8061103820801   -3.16294214441067E-10                254015.5          101320.8984375        288.120391845703       0.100287899374962    -0.00582508587177559                       0 
      -1.85242621310655                     0.6        1.22505402565002        41.8061103820801   -3.21770324994742E-10                254015.5          101320.8984375        288.120391845703       0.100287899374962    -0.00582508591720028                       0 
      -1.84992496248124                     0.6        1.22505402565002        41.8061103820801   -3.27246435548417E-10                254015.5          101320.8984375        288.120391845703       0.100287899374962    -0.00582508596262497                       0 
      -1.84742371185593                     0.6        1.22505402565002        41.8061103820801   -3.32722546102092E-10                254015.5          101320.8984375        288.120391845703       0.100287899374962    -0.00582508600804966                       0 
      -1.84492246123062                     0.6        1.22505402565002        41.8061103820801   -3.38220369403783E-10                254015.5          101320.8984375        288.120391845703       0.100287899374962    -0.00582508603110909                       0 
       -1.8424212106053                     0.6        1.22505402565002        41.8061103820801   -3.43740579379238E-10                254015.5          101320.8984375        288.120391845703       0.100287899374962    -0.00582508603110909                       0 
      -1.83991995997999                     0.6        1.22505402565002        41.8061103820801   -3.49260789354691E-10                254015.5          101320.8984375        288.120391845703       0.100287899374962    -0.00582508603110909                       0 
      -1.83741870935468                     0.6        1.22505402565002        41.8061103820801   -3.54780999330145E-10                254015.5          101320.8984375        288.120391845703       0.100287899374962    -0.00582508603110909                       0 
      -1.83491745872936                     0.6        1.22505402565002        41.8061103820801   -3.60301209305599E-10                254015.5          101320.8984375        288.120391845703       0.100287899374962    -0.00582508603110909                       0 
      -1.83241620810405                     0.6        1.22505402565002        41.8061103820801   -3.65821419281053E-10                254015.5          101320.8984375        288.120391845703       0.100287899374962    -0.00582508603110909                       0 
      -1.82991495747874                     0.6        1.22505402565002        41.8061103820801   -3.71341629256507E-10                254015.5          101320.8984375        288.120391845703       0.100287899374962    -0.00582508603110909                       0 
      -1.82741370685343                     0.6        1.22505402565002        41.8061103820801   -3.76861839231961E-10                254015.5          101320.8984375        288.120391845703       0.100287899374962    -0.00582508603110909                       0 
      -1.82491245622811                     0.6        1.22505402565002        41.8061103820801   -3.82382049207415E-10                254015.5          101320.8984375        288.120391845703       0.100287899374962    -0.00582508603110909                       0 
       -1.8224112056028                     0.6        1.22505402565002        41.8061103820801   -3.87886137398685E-10                254015.5          101320.8984375        288.120391845703       0.100287899374962    -0.00582508603110909                       0 
      -1.81990995497749                     0.6        1.22505402565002        41.8061103820801    -3.9314291158693E-10                254015.5          101320.8984375        288.120391845703       0.100287899374962    -0.00582508603110909                       0 
      -1.81740870435218                     0.6        1.22505402565002        41.8061103820801   -3.98510593469421E-10                254015.5          101320.8984375        288.120391845703       0.100287899374962    -0.00582508603110909                       0 
      -1.81490745372686                     0.6        1.22505402565002        41.8061103820801   -4.04030803444875E-10                254015.5          101320.8984375        288.120391845703       0.100287899374962    -0.00582508603110909                       0 
      -1.81240620310155                     0.6        1.22505402565002        41.8061103820801   -4.09551013420329E-10                254015.5          101320.8984375        288.120391845703       0.100287899374962    -0.00582508603110909                       0 
      -1.80990495247624                     0.6        1.22505402565002        41.8061103820801   -4.15071223395783E-10                254015.5          101320.8984375        288.120391845703       0.100287899374962    -0.00582508603110909                       0 
      -1.80740370185093                     0.6        1.22505402565002        41.8061103820801   -4.20591433371237E-10                254015.5          101320.8984375        288.120391845703       0.100287899374962    -0.00582508603110909                       0 
      -1.80490245122561                     0.6        1.22505402565002        41.8061103820801   -4.26111643346691E-10                254015.5          101320.8984375        288.120391845703       0.100287899374962    -0.00582508603110909                       0 
       -1.8024012006003                     0.6        1.22505402565002        41.8061103820801   -4.31631853322145E-10                254015.5          101320.8984375        288.120391845703       0.100287899374962    -0.00582508603110909                       0 
      -1.79989994997499                     0.6        1.22505402565002        41.8061103820801   -4.37152063297599E-10                254015.5          101320.8984375        288.120391845703       0.100287899374962    -0.00582508603110909                       0 
      -1.79739869934967                     0.6        1.22505402565002        41.8061103820801   -4.42672273273052E-10                254015.5          101320.8984375        288.120391845703       0.100287899374962    -0.00582508603110909                       0 
      -1.79489744872436                     0.6        1.22505402565002        41.8061103820801   -4.48192483248506E-10                254015.5          101320.8984375        288.120391845703       0.100287899374962    -0.00582508603110909                       0 
      -1.79239619809905                     0.6        1.22505402565002        41.8061103820801   -4.53735021205494E-10                254015.5          101320.8984375        288.120391845703       0.100287899374962    -0.00582508607607244                       0 
      -1.78989494747374                     0.6        1.22505402565002        41.8061103820801   -4.59277788256707E-10                254015.5          101320.8984375        288.120391845703       0.100287899374962    -0.00582508612149713                       0 
      -1.78739369684842                     0.6        1.22505402565002        41.8061103820801   -4.64820555307921E-10                254015.5          101320.8984375        288.120391845703       0.100287899374962    -0.00582508616692182                       0 
      -1.78489244622311                     0.6        1.22505402565002        41.8061103820801   -4.70363322359134E-10                254015.5          101320.8984375        288.120391845703       0.100287899374962    -0.00582508621234652                       0 
       -1.7823911955978                     0.6        1.22505402565002        41.8061103820801   -4.75906089410347E-10                254015.5          101320.8984375        288.120391845703       0.100287899374962    -0.00582508625777121                       0 
      -1.77988994497249                     0.6        1.22505402565002        41.8061103820801   -4.81448856461559E-10                254015.5          101320.8984375        288.120391845703       0.100287899374962     -0.0058250863031959                       0 
      -1.77738869434717                     0.6        1.22505402565002        41.8061103820801   -4.86991623512773E-10                254015.5          101320.8984375        288.120391845703       0.100287899374962    -0.00582508634862059                       0 
      -1.77488744372186                     0.6        1.22505402565002        41.8061103820801   -4.92534390563986E-10                254015.5          101320.8984375        288.120391845703       0.100287899374962    -0.00582508639404528                       0 
      -1.77238619309655                     0.6        1.22505402565002        41.8061103820801   -4.98077157615199E-10                254015.5          101320.8984375        288.120391845703       0.100287899374962    -0.00582508643946997                       0 
      -1.76988494247124                     0.6        1.22505402565002        41.8061103820801   -5.03472704546227E-10                254015.5          101320.8984375        288.120391845703       0.100287899374962    -0.00582508648489466                       0 
      -1.76738369184592                     0.6        1.22505402565002        41.8061103820801   -5.08751948428125E-10                254015.5          101320.8984375        288.120391845703       0.100287899374962    -0.00582508653031935                       0 
      -1.76488244122061                     0.6        1.22505402565002        41.8061103820801   -5.14273228776169E-10                254015.5          101320.8984375        288.120391845703       0.100287899374962    -0.00582508657574404                       0 
       -1.7623811905953                     0.6        1.22505402565002        41.8061103820801   -5.19815995827382E-10                254015.5          101320.8984375        288.120391845703       0.100287899374962    -0.00582508662116873                       0 
      -1.75987993996998                     0.6        1.22505402565002        41.8061103820801   -5.25358762878595E-10                254015.5          101320.8984375        288.120391845703       0.100287899374962    -0.00582508666659342                       0 
      -1.75737868934467                     0.6        1.22505402565002        41.8061103820801   -5.30901529929808E-10                254015.5          101320.8984375        288.120391845703       0.100287899374962    -0.00582508671201811                       0 
      -1.75487743871936                     0.6        1.22505402565002        41.8061103820801   -5.36444296981021E-10                254015.5          101320.8984375        288.120391845703       0.100287899374962     -0.0058250867574428                       0 
      -1.75237618809405                     0.6        1.22505402565002        41.8061103820801   -5.41987064032234E-10                254015.5          101320.8984375        288.120391845703       0.100287899374962    -0.00582508680286749                       0 
      -1.74987493746873                     0.6        1.22505402565002        41.8061103820801   -5.47529831083447E-10                254015.5          101320.8984375        288.120391845703       0.100287899374962    -0.00582508684829218                       0 
      -1.74737368684342                     0.6        1.22505402565002        41.8061103820801    -5.5307259813466E-10                254015.5          101320.8984375        288.120391845703       0.100287899374962    -0.00582508689371687                       0 
      -1.74487243621811                     0.6        1.22505402565002        41.8061103820801   -5.58615365185873E-10                254015.5          101320.8984375        288.120391845703       0.100287899374962    -0.00582508693914156                       0 
       -1.7423711855928                     0.6        1.22505402565002        41.8061103820801   -5.64160154760884E-10                254015.5          101320.8984375        288.120391845703       0.100287899374962    -0.00582508698456625                       0 
      -1.73986993496748                     0.6        1.22505402565002        41.8061103820801   -5.69707072444159E-10                254015.5          101320.8984375        288.120391845703       0.100287899374962    -0.00582508702999094                       0 
      -1.73736868434217                     0.6        1.22505402565002        41.8061103820801   -5.75253990127434E-10                254015.5          101320.8984375        288.120391845703       0.100287899374962    -0.00582508707541564                       0 
      -1.73486743371686                     0.6        1.22505402565002        41.8061103820801   -5.80800907810708E-10                254015.5          101320.8984375        288.120391845703       0.100287899374962    -0.00582508712084033                       0 
      -1.73236618309155                     0.6        1.22505402565002        41.8061103820801   -5.86347825493983E-10                254015.5          101320.8984375        288.120391845703       0.100287899374962    -0.00582508716626502                       0 
      -1.72986493246623                     0.6        1.22505402565002        41.8061103820801   -5.91894743177257E-10                254015.5          101320.8984375        288.120391845703       0.100287899374962    -0.00582508721168971                       0 
      -1.72736368184092                     0.6        1.22505402565002        41.8061103820801   -5.97441660860532E-10                254015.5          101320.8984375        288.120391845703       0.100287899374962     -0.0058250872571144                       0 
      -1.72486243121561                     0.6        1.22505402565002        41.8061103820801   -6.02988578543807E-10                254015.5          101320.8984375        288.120391845703       0.100287899374962    -0.00582508730253909                       0 
       -1.7223611805903                     0.6        1.22505402565002        41.8061103820801   -6.08535496227081E-10                254015.5          101320.8984375        288.120391845703       0.100287899374962    -0.00582508734796378                       0 