VARIABLES = "x"
 "y"
 "Density"
 "Momentum_x"
 "Momentum_y"
 "Energy"
 "Pressure"
 "Temperature"
 "Mach"
 "C<sub>p</sub>"
 "Roe_Dissipation"
ZONE
DT=(DOUBLE,DOUBLE,DOUBLE,DOUBLE,DOUBLE,DOUBLE,DOUBLE,DOUBLE,DOUBLE,DOUBLE,DOUBLE)
                     -1                    1.25        1.22505402565002        41.8061103820801   -5.66025786195436E-09                254015.5          101320.8984375        288.120391845703       0.100287899374962    -0.00582509860396331                       0 
                     -1         1.2474974974975        1.22505402565002        41.8061103820801   -5.72668113268475E-09                254015.5          101320.8984375        288.120391845703       0.100287899374962    -0.00582509860396331                       0 
                     -1        1.24499499499499        1.22505402565002        41.8061103820801   -5.79310440341514E-09                254015.5          101320.8984375        288.120391845703       0.100287899374962    -0.00582509860396331                       0 
                     -1        1.24249249249249        1.22505402565002        41.8061103820801   -5.85952767414553E-09                254015.5          101320.8984375        288.120391845703       0.100287899374962    -0.00582509860396331                       0 
                     -1        1.23998998998999        1.22505402565002        41.8061103820801   -5.92595094487592E-09                254015.5          101320.8984375        288.120391845703       0.100287899374962    -0.00582509860396331                       0 
                     -1        1.23748748748749        1.22505402565002        41.8061103820801   -5.99237421560631E-09                254015.5          101320.8984375        288.120391845703       0.100287899374962    -0.00582509860396331                       0 
                     -1        1.23498498498498        1.22505402565002        41.8061103820801   -6.05879748633669E-09                254015.5          101320.8984375        288.120391845703       0.100287899374962    -0.00582509860396331                       0 
                     -1        1.23248248248248        1.22505402565002        41.8061103820801   -6.12522074210021E-09                254015.5          101320.8984375        288.120391845703       0.100287899374962    -0.00582509860396331                       0 
                     -1        1.22997997997998        1.22505402565002        41.8061103820801    -6.1916440128306E-09                254015.5          101320.8984375        288.120391845703       0.100287899374962    -0.00582509860396331                       0 
                     -1        1.22747747747748        1.22505402565002        41.8061103820801   -6.25806728356099E-09                254015.5          101320.8984375        288.120391845703       0.100287899374962    -0.00582509860396331                       0 
                     -1        1.22497497497497        1.22505402565002        41.8061103820801   -6.32449055429138E-09                254015.5          101320.8984375        288.120391845703       0.100287899374962    -0.00582509860396331                       0 
                     -1        1.22247247247247        1.22505402565002        41.8061103820801   -6.39091382502177E-09                254015.5          101320.8984375        288.120391845703       0.100287899374962    -0.00582509860396331                       0 
                     -1        1.21996996996997        1.22505402565002        41.8061103820801   -6.45733709575216E-09                254015.5          101320.8984375        288.120391845703       0.100287899374962    -0.00582509860396331                       0 
                     -1        1.21746746746747        1.22505402565002        41.8061103820801   -6.51775885201703E-09                254015.5          101320.8984375        288.120391845703       0.100287899374962    -0.00582509860396331                       0 
                     -1        1.21496496496496        1.22505402565002        41.8061103820801   -6.56724080468226E-09                254015.5          101320.8984375        288.120391845703       0.100287899374962    -0.00582509860396331                       0 
                     -1        1.21246246246246        1.22505402565002        41.8061103820801   -6.61672275734749E-09                254015.5          101320.8984375        288.120391845703       0.100287899374962    -0.00582509860396331                       0 
                     -1        1.20995995995996        1.22505402565002        41.8061103820801   -6.66620471001273E-09                254015.5          101320.8984375        288.120391845703       0.100287899374962    -0.00582509860396331                       0 
                     -1        1.20745745745746        1.22505402565002        41.8061103820801   -6.71568666267796E-09                254015.5          101320.8984375        288.120391845703       0.100287899374962    -0.00582509860396331                       0 
                     -1        1.20495495495495        1.22505402565002        41.8061103820801   -6.76516861534319E-09                254015.5          101320.8984375        288.120391845703       0.100287899374962    -0.00582509860396331                       0 
                     -1        1.20245245245245        1.22505402565002        41.8061103820801   -6.81465056616727E-09                254015.5          101320.8984375        288.120391845703       0.100287899374962    -0.00582509860396331                       0 
                     -1        1.19994994994995        1.22505402565002        41.8061103820801   -6.86413251883251E-09                254015.5          101320.8984375        288.120391845703       0.100287899374962    -0.00582509860396331                       0 
                     -1        1.19744744744745        1.22505402565002        41.8061103820801   -6.91361447149774E-09                254015.5          101320.8984375        288.120391845703       0.100287899374962    -0.00582509860396331                       0 
                     -1        1.19494494494494        1.22505402565002        41.8061103820801   -6.96309642416297E-09                254015.5          101320.8984375        288.120391845703       0.100287899374962    -0.00582509860396331                       0 
                     -1        1.19244244244244        1.22505402565002        41.8061103820801    -7.0125783768282E-09                254015.5          101320.8984375        288.120391845703       0.100287899374962    -0.00582509860396331                       0 
                     -1        1.18993993993994        1.22505402565002        41.8061103820801   -7.06206032949344E-09                254015.5          101320.8984375        288.120391845703       0.100287899374962    -0.00582509860396331                       0 
                     -1        1.18743743743744        1.22505402565002        41.8061103820801   -7.11154228215867E-09                254015.5          101320.8984375        288.120391845703       0.100287899374962    -0.00582509860396331                       0 
                     -1        1.18493493493493        1.22505402565002        41.8061103820801   -7.14852164536932E-09                254015.5          101320.8984375        288.120391845703       0.100287899374962    -0.00582509860396331                       0 
                     -1        1.18243243243243        1.22505402565002        41.8061103820801   -7.18036786169451E-09                254015.5          101320.8984375        288.120391845703       0.100287899374962    -0.00582509860396331                       0 
                     -1        1.17992992992993        1.22505402565002        41.8061103820801    -7.2122140780197E-09                254015.5          101320.8984375        288.120391845703       0.100287899374962    -0.00582509860396331                       0 
                     -1        1.17742742742743        1.22505402565002        41.8061103820801   -7.24406029434489E-09                254015.5          101320.8984375        288.120391845703       0.100287899374962    -0.00582509860396331                       0 
                     -1        1.17492492492492        1.22505402565002        41.8061103820801   -7.27590651067008E-09                254015.5          101320.8984375        288.120391845703       0.100287899374962    -0.00582509860396331                       0 
                     -1        1.17242242242242        1.22505402565002        41.8061103820801   -7.30775272699527E-09                254015.5          101320.8984375        288.120391845703       0.100287899374962    -0.00582509860396331                       0 
                     -1        1.16991991991992        1.22505402565002        41.8061103820801   -7.33959895397971E-09                254015.5          101320.8984375        288.120391845703       0.100287899374962    -0.00582509860396331                       0 
                     -1        1.16741741741742        1.22505402565002        41.8061103820801    -7.3714451703049E-09                254015.5          101320.8984375        288.120391845703       0.100287899374962    -0.00582509860396331                       0 
                     -1        1.16491491491491        1.22505402565002        41.8061103820801   -7.40329138663009E-09                254015.5          101320.8984375        288.120391845703       0.100287899374962    -0.00582509860396331                       0 
                     -1        1.16241241241241        1.22505402565002        41.8061103820801   -7.43513760295529E-09                254015.5          101320.8984375        288.120391845703       0.100287899374962    -0.00582509860396331                       0 
                     -1        1.15990990990991        1.22505402565002        41.8061103820801   -7.46698381928048E-09                254015.5          101320.8984375        288.120391845703       0.100287899374962    -0.00582509860396331                       0 
                     -1        1.15740740740741        1.22505402565002        41.8061103820801   -7.49883003560567E-09                254015.5          101320.8984375        288.120391845703       0.100287899374962    -0.00582509860396331                       0 
                     -1         1.1549049049049        1.22505402565002        41.8061103820801   -7.52932441699927E-09                254015.5          101320.8984375        288.120391845703       0.100287899374962    -0.00582509860396331                       0 
                     -1         1.1524024024024        1.22505402565002        41.8061103820801   -7.53977678757241E-09                254015.5          101320.8984375        288.120391845703       0.100287899374962    -0.00582509860396331                       0 
                     -1         1.1498998998999        1.22505402565002        41.8061103820801   -7.55022915814554E-09                254015.5          101320.8984375        288.120391845703       0.100287899374962    -0.00582509860396331                       0 
                     -1         1.1473973973974        1.22505402565002        41.8061103820801   -7.56068152871867E-09                254015.5          101320.8984375        288.120391845703       0.100287899374962    -0.00582509860396331                       0 
                     -1        1.14489489489489        1.22505402565002        41.8061103820801    -7.5711338992918E-09                254015.5          101320.8984375        288.120391845703       0.100287899374962    -0.00582509860396331                       0 
                     -1        1.14239239239239        1.22505402565002        41.8061103820801   -7.58158626986494E-09                254015.5          101320.8984375        288.120391845703       0.100287899374962    -0.00582509860396331                       0 
                     -1        1.13988988988989        1.22505402565002        41.8061103820801   -7.59203864043807E-09                254015.5          101320.8984375        288.120391845703       0.100287899374962    -0.00582509860396331                       0 
                     -1        1.13738738738739        1.22505402565002        41.8061103820801   -7.60249103284973E-09                254015.5          101320.8984375        288.120391845703       0.100287899374962    -0.00582509860396331                       0 
                     -1        1.13488488488488        1.22505402565002        41.8061103820801   -7.61294340342287E-09                254015.5          101320.8984375        288.120391845703       0.100287899374962    -0.00582509860396331                       0 
                     -1        1.13238238238238        1.22505402565002        41.8061103820801     -7.623395773996E-09                254015.5          101320.8984375        288.120391845703       0.100287899374962    -0.00582509860396331                       0 
                     -1        1.12987987987988        1.22505402565002        41.8061103820801   -7.63384814456913E-09                254015.5          101320.8984375        288.120391845703       0.100287899374962    -0.00582509860396331                       0 
                     -1        1.12737737737738        1.22505402565002        41.8061103820801   -7.64430051514226E-09                254015.5          101320.8984375        288.120391845703       0.100287899374962    -0.00582509860396331                       0 
                     -1        1.12487487487487        1.22505402565002        41.8061103820801    -7.6547528857154E-09                254015.5          101320.8984375        288.120391845703       0.100287899374962    -0.00582509860396331                       0 
                     -1        1.12237237237237        1.22505402565002        41.8061103820801   -7.65792749842122E-09                254015.5          101320.8984375        288.120391845703       0.100287899374962    -0.00582509860396331                       0 
                     -1        1.11986986986987        1.22505402565002        41.8061103820801   -7.65096155671988E-09                254015.5          101320.8984375        288.120391845703       0.100287899374962    -0.00582509860396331                       0 
                     -1        1.11736736736737        1.22505402565002        41.8061103820801   -7.64399561501855E-09                254015.5          101320.8984375        288.120391845703       0.100287899374962    -0.00582509860396331                       0 
                     -1        1.11486486486486        1.22505402565002        41.8061103820801   -7.63702967331721E-09                254015.5          101320.8984375        288.120391845703       0.100287899374962    -0.00582509860396331                       0 
                     -1        1.11236236236236        1.22505402565002        41.8061103820801   -7.63006373161587E-09                254015.5          101320.8984375        288.120391845703       0.100287899374962    -0.00582509860396331                       0 
                     -1        1.10985985985986        1.22505402565002        41.8061103820801   -7.62309778991454E-09                254015.5          101320.8984375        288.120391845703       0.100287899374962    -0.00582509860396331                       0 
                     -1        1.10735735735736        1.22505402565002        41.8061103820801   -7.61613188097499E-09                254015.5          101320.8984375        288.120391845703       0.100287899374962    -0.00582509860396331                       0 
                     -1        1.10485485485485        1.22505402565002        41.8061103820801   -7.60916593927366E-09                254015.5          101320.8984375        288.120391845703       0.100287899374962    -0.00582509860396331                       0 
                     -1        1.10235235235235        1.22505402565002        41.8061103820801   -7.60219999757232E-09                254015.5          101320.8984375        288.120391845703       0.100287899374962    -0.00582509860396331                       0 
                     -1        1.09984984984985        1.22505402565002        41.8061103820801   -7.59523405587098E-09                254015.5          101320.8984375        288.120391845703       0.100287899374962    -0.00582509860396331                       0 
                     -1        1.09734734734735        1.22505402565002        41.8061103820801   -7.58826811416965E-09                254015.5          101320.8984375        288.120391845703       0.100287899374962    -0.00582509860396331                       0 
                     -1        1.09484484484484        1.22505402565002        41.8061103820801   -7.58130217246831E-09                254015.5          101320.8984375        288.120391845703       0.100287899374962    -0.00582509860396331                       0 
                     -1        1.09234234234234        1.22505402565002        41.8061103820801   -7.57433623076697E-09                254015.5          101320.8984375        288.120391845703       0.100287899374962    -0.00582509860396331                       0 
                     -1        1.08983983983984        1.22505402565002        41.8061103820801   -7.55655614865377E-09                254015.5          101320.8984375        288.120391845703       0.100287899374962    -0.00582509860396331                       0 
                     -1        1.08733733733734        1.22505402565002        41.8061103820801   -7.53558361958761E-09                254015.5          101320.8984375        288.120391845703       0.100287899374962    -0.00582509860396331                       0 
                     -1        1.08483483483483        1.22505402565002        41.8061103820801   -7.51461109052144E-09                254015.5          101320.8984375        288.120391845703       0.100287899374962    -0.00582509860396331                       0 
                     -1        1.08233233233233        1.22505402565002        41.8061103820801   -7.49363856145527E-09                254015.5          101320.8984375        288.120391845703       0.100287899374962    -0.00582509860396331                       0 
                     -1        1.07982982982983        1.22505402565002        41.8061103820801   -7.47266603238911E-09                254015.5          101320.8984375        288.120391845703       0.100287899374962    -0.00582509860396331                       0 
                     -1        1.07732732732733        1.22505402565002        41.8061103820801   -7.45169350332294E-09                254015.5          101320.8984375        288.120391845703       0.100287899374962    -0.00582509860396331                       0 
                     -1        1.07482482482482        1.22505402565002        41.8061103820801   -7.43072101681686E-09                254015.5          101320.8984375        288.120391845703       0.100287899374962    -0.00582509860396331                       0 
                     -1        1.07232232232232        1.22505402565002        41.8061103820801   -7.40974848775069E-09                254015.5          101320.8984375        288.120391845703       0.100287899374962    -0.00582509860396331                       0 
                     -1        1.06981981981982        1.22505402565002        41.8061103820801   -7.38877595868453E-09                254015.5          101320.8984375        288.120391845703       0.100287899374962    -0.00582509860396331                       0 
                     -1        1.06731731731732        1.22505402565002        41.8061103820801   -7.36780342961836E-09                254015.5          101320.8984375        288.120391845703       0.100287899374962    -0.00582509860396331                       0 
                     -1        1.06481481481481        1.22505402565002        41.8061103820801   -7.34683090055219E-09                254015.5          101320.8984375        288.120391845703       0.100287899374962    -0.00582509860396331                       0 
                     -1        1.06231231231231        1.22505402565002        41.8061103820801   -7.32585837148603E-09                254015.5          101320.8984375        288.120391845703       0.100287899374962    -0.00582509860396331                       0 
                     -1        1.05980980980981        1.22505402565002        41.8061103820801    -7.3038531350336E-09                254015.5          101320.8984375        288.120391845703       0.100287899374962    -0.00582509860396331                       0 
                     -1        1.05730730730731        1.22505402565002        41.8061103820801   -7.27473347243225E-09                254015.5          101320.8984375        288.120391845703       0.100287899374962    -0.00582509860396331                       0 
                     -1         1.0548048048048        1.22505402565002        41.8061103820801   -7.24561380983091E-09                254015.5          101320.8984375        288.120391845703       0.100287899374962    -0.00582509860396331                       0 
                     -1         1.0523023023023        1.22505402565002        41.8061103820801   -7.21649414722957E-09                254015.5          101320.8984375        288.120391845703       0.100287899374962    -0.00582509860396331                       0 
                     -1         1.0497997997998        1.22505402565002        41.8061103820801   -7.18737448462823E-09                254015.5          101320.8984375        288.120391845703       0.100287899374962    -0.00582509860396331                       0 
                     -1         1.0472972972973        1.22505402565002        41.8061103820801   -7.15825482202688E-09                254015.5          101320.8984375        288.120391845703       0.100287899374962    -0.00582509860396331                       0 
                     -1        1.04479479479479        1.22505402565002        41.8061103820801   -7.12913515942554E-09                254015.5          101320.8984375        288.120391845703       0.100287899374962    -0.00582509860396331                       0 
                     -1        1.04229229229229        1.22505402565002        41.8061103820801   -7.10001554754866E-09                254015.5          101320.8984375        288.120391845703       0.100287899374962    -0.00582509860396331                       0 
                     -1        1.03978978978979        1.22505402565002        41.8061103820801   -7.07089588494732E-09                254015.5          101320.8984375        288.120391845703       0.100287899374962    -0.00582509860396331                       0 
                     -1        1.03728728728729        1.22505402565002        41.8061103820801   -7.04177622234598E-09                254015.5          101320.8984375        288.120391845703       0.100287899374962    -0.00582509860396331                       0 
                     -1        1.03478478478478        1.22505402565002        41.8061103820801   -7.01265655974463E-09                254015.5          101320.8984375        288.120391845703       0.100287899374962    -0.00582509860396331                       0 
                     -1        1.03228228228228        1.22505402565002        41.8061103820801   -6.98353689714329E-09                254015.5          101320.8984375        288.120391845703       0.100287899374962    -0.00582509860396331                       0 
                     -1        1.02977977977978        1.22505402565002        41.8061103820801   -6.95441723454195E-09                254015.5          101320.8984375        288.120391845703       0.100287899374962    -0.00582509860396331                       0 
                     -1        1.02727727727728        1.22505402565002        41.8061103820801   -6.92323014719347E-09                254015.5          101320.8984375        288.120391845703       0.100287899374962    -0.00582509860396331                       0 
                     -1        1.02477477477477        1.22505402565002        41.8061103820801   -6.88981239580267E-09                254015.5          101320.8984375        288.120391845703       0.100287899374962    -0.00582509860396331                       0 
                     -1        1.02227227227227        1.22505402565002        41.8061103820801   -6.85639464441187E-09                254015.5          101320.8984375        288.120391845703       0.100287899374962    -0.00582509860396331                       0 
                     -1        1.01976976976977        1.22505402565002        41.8061103820801   -6.82297689302107E-09                254015.5          101320.8984375        288.120391845703       0.100287899374962    -0.00582509860396331                       0 
                     -1        1.01726726726727        1.22505402565002        41.8061103820801   -6.78955914163027E-09                254015.5          101320.8984375        288.120391845703       0.100287899374962    -0.00582509860396331                       0 
                     -1        1.01476476476476        1.22505402565002        41.8061103820801   -6.75614139023947E-09                254015.5          101320.8984375        288.120391845703       0.100287899374962    -0.00582509860396331                       0 
                     -1        1.01226226226226        1.22505402565002        41.8061103820801   -6.72272369518406E-09                254015.5          101320.8984375        288.120391845703       0.100287899374962    -0.00582509860396331                       0 
                     -1        1.00975975975976        1.22505402565002        41.8061103820801   -6.68930594379326E-09                254015.5          101320.8984375        288.120391845703       0.100287899374962    -0.00582509860396331                       0 
                     -1        1.00725725725726        1.22505402565002        41.8061103820801   -6.65588819240246E-09                254015.5          101320.8984375        288.120391845703       0.100287899374962    -0.00582509860396331                       0 
                     -1        1.00475475475475        1.22505402565002        41.8061103820801   -6.62247044101166E-09                254015.5          101320.8984375        288.120391845703       0.100287899374962    -0.00582509860396331                       0 
                     -1        1.00225225225225        1.22505402565002        41.8061103820801   -6.58905268962086E-09                254015.5          101320.8984375        288.120391845703       0.100287899374962    -0.00582509860396331                       0 
                     -1        0.99974974974975        1.22505402565002        41.8061103820801   -6.55563493823006E-09                254015.5          101320.8984375        288.120391845703       0.100287899374962    -0.00582509860396331                       0 
                     -1       0.997247247247247        1.22505402565002        41.8061103820801   -6.52221718683926E-09                254015.5          101320.8984375        288.120391845703       0.100287899374962    -0.00582509860396331                       0 
                     -1       0.994744744744745        1.22505402565002        41.8061103820801   -6.48791943882808E-09                254015.5          101320.8984375        288.120391845703       0.100287899374962    -0.00582509860396331                       0 
                     -1       0.992242242242242        1.22505402565002        41.8061103820801   -6.45344834180364E-09                254015.5          101320.8984375        288.120391845703       0.100287899374962    -0.00582509860396331                       0 
                     -1        0.98973973973974        1.22505402565002        41.8061103820801    -6.4189772447792E-09                254015.5          101320.8984375        288.120391845703       0.100287899374962    -0.00582509860396331                       0 
                     -1       0.987237237237237        1.22505402565002        41.8061103820801   -6.38450614775476E-09                254015.5          101320.8984375        288.120391845703       0.100287899374962    -0.00582509860396331                       0 
                     -1       0.984734734734735        1.22505402565002        41.8061103820801   -6.35003505073032E-09                254015.5          101320.8984375        288.120391845703       0.100287899374962    -0.00582509860396331                       0 
                     -1       0.982232232232232        1.22505402565002        41.8061103820801   -6.31556395370589E-09                254015.5          101320.8984375        288.120391845703       0.100287899374962    -0.00582509860396331                       0 
                     -1        0.97972972972973        1.22505402565002        41.8061103820801   -6.28109291540383E-09                254015.5          101320.8984375        288.120391845703       0.100287899374962    -0.00582509860396331                       0 
                     -1       0.977227227227227        1.22505402565002        41.8061103820801   -6.24662181837939E-09                254015.5          101320.8984375        288.120391845703       0.100287899374962    -0.00582509860396331                       0 
                     -1       0.974724724724725        1.22505402565002        41.8061103820801   -6.21215072135495E-09                254015.5          101320.8984375        288.120391845703       0.100287899374962    -0.00582509860396331                       0 
                     -1       0.972222222222222        1.22505402565002        41.8061103820801   -6.17767962433051E-09                254015.5          101320.8984375        288.120391845703       0.100287899374962    -0.00582509860396331                       0 