TITLE = "Visualization of the volumetric solution"
VARIABLES = "x","y","Density","Momentum_x","Momentum_y","Energy","Pressure","Temperature","Mach","C<sub>p</sub>","Roe_Dissipation"
ZONE NODES= 2400, ELEMENTS= 2291, DATAPACKING=POINT, ZONETYPE=FEQUADRILATERAL
0.000000e+00	1.250000e+00	1.222452e+00	5.271181e+01	-9.871881e+00	2.547062e+05	1.014119e+05	2.889933e+02	1.287269e-01	1.225649e-01	0.000000e+00	
0.000000e+00	1.218354e+00	1.222471e+00	5.271448e+01	-9.840469e+00	2.547032e+05	1.014108e+05	2.889856e+02	1.287190e-01	1.209970e-01	0.000000e+00	
3.448276e-02	1.218354e+00	1.278099e+00	5.061804e+01	-4.757052e+01	2.706670e+05	1.075118e+05	2.930365e+02	1.583728e-01	8.722657e+00	0.000000e+00	
3.448276e-02	1.250000e+00	1.278035e+00	5.061637e+01	-4.758399e+01	2.706526e+05	1.075058e+05	2.930351e+02	1.583995e-01	8.714242e+00	0.000000e+00	
0.000000e+00	1.186709e+00	1.222481e+00	5.272772e+01	-9.822251e+00	2.547009e+05	1.014097e+05	2.889801e+02	1.287424e-01	1.194576e-01	0.000000e+00	
3.448276e-02	1.186709e+00	1.278110e+00	5.061831e+01	-4.757364e+01	2.706681e+05	1.075121e+05	2.930351e+02	1.583772e-01	8.723177e+00	0.000000e+00	
0.000000e+00	1.155063e+00	1.222484e+00	5.273530e+01	-9.813962e+00	2.547001e+05	1.014093e+05	2.889781e+02	1.287567e-01	1.188773e-01	0.000000e+00	
3.448276e-02	1.155063e+00	1.278126e+00	5.062004e+01	-4.757465e+01	2.706704e+05	1.075130e+05	2.930338e+02	1.583800e-01	8.724464e+00	0.000000e+00	
0.000000e+00	1.123418e+00	1.222483e+00	5.273785e+01	-9.810062e+00	2.546996e+05	1.014091e+05	2.889778e+02	1.287613e-01	1.185563e-01	0.000000e+00	
3.448276e-02	1.123418e+00	1.278135e+00	5.062066e+01	-4.757634e+01	2.706715e+05	1.075134e+05	2.930329e+02	1.583828e-01	8.725019e+00	0.000000e+00	
0.000000e+00	1.091772e+00	1.222480e+00	5.273802e+01	-9.807538e+00	2.546993e+05	1.014090e+05	2.889780e+02	1.287607e-01	1.183916e-01	0.000000e+00	
3.448276e-02	1.091772e+00	1.278140e+00	5.062048e+01	-4.757724e+01	2.706723e+05	1.075137e+05	2.930325e+02	1.583834e-01	8.725447e+00	0.000000e+00	
0.000000e+00	1.060127e+00	1.222478e+00	5.273788e+01	-9.805676e+00	2.546991e+05	1.014089e+05	2.889783e+02	1.287598e-01	1.182946e-01	0.000000e+00	
3.448276e-02	1.060127e+00	1.278143e+00	5.062024e+01	-4.757765e+01	2.706728e+05	1.075139e+05	2.930324e+02	1.583833e-01	8.725736e+00	0.000000e+00	
0.000000e+00	1.028481e+00	1.222477e+00	5.273795e+01	-9.804337e+00	2.546990e+05	1.014089e+05	2.889785e+02	1.287594e-01	1.182383e-01	0.000000e+00	
3.448276e-02	1.028481e+00	1.278145e+00	5.062016e+01	-4.757779e+01	2.706732e+05	1.075141e+05	2.930324e+02	1.583832e-01	8.725949e+00	0.000000e+00	
0.000000e+00	9.968354e-01	1.222476e+00	5.273816e+01	-9.803448e+00	2.546990e+05	1.014088e+05	2.889786e+02	1.287596e-01	1.182082e-01	0.000000e+00	
3.448276e-02	9.968354e-01	1.278146e+00	5.062019e+01	-4.757787e+01	2.706734e+05	1.075142e+05	2.930324e+02	1.583832e-01	8.726096e+00	0.000000e+00	
0.000000e+00	9.651899e-01	1.222476e+00	5.273832e+01	-9.802898e+00	2.546990e+05	1.014088e+05	2.889787e+02	1.287597e-01	1.181899e-01	0.000000e+00	
3.448276e-02	9.651899e-01	1.278147e+00	5.062022e+01	-4.757794e+01	2.706736e+05	1.075143e+05	2.930325e+02	1.583832e-01	8.726196e+00	0.000000e+00	
0.000000e+00	9.335443e-01	1.222475e+00	5.273837e+01	-9.802555e+00	2.546989e+05	1.014088e+05	2.889788e+02	1.287597e-01	1.181801e-01	0.000000e+00	
3.448276e-02	9.335443e-01	1.278147e+00	5.062020e+01	-4.757800e+01	2.706737e+05	1.075143e+05	2.930325e+02	1.583832e-01	8.726267e+00	0.000000e+00	
0.000000e+00	9.018987e-01	1.222475e+00	5.273835e+01	-9.802324e+00	2.546989e+05	1.014088e+05	2.889788e+02	1.287596e-01	1.181748e-01	0.000000e+00	
3.448276e-02	9.018987e-01	1.278147e+00	5.062014e+01	-4.757804e+01	2.706738e+05	1.075144e+05	2.930326e+02	1.583832e-01	8.726319e+00	0.000000e+00	
0.000000e+00	8.702532e-01	1.222475e+00	5.273830e+01	-9.802149e+00	2.546989e+05	1.014088e+05	2.889788e+02	1.287594e-01	1.181734e-01	0.000000e+00	
3.448276e-02	8.702532e-01	1.278147e+00	5.062007e+01	-4.757806e+01	2.706739e+05	1.075144e+05	2.930326e+02	1.583831e-01	8.726359e+00	0.000000e+00	
0.000000e+00	8.386076e-01	1.222475e+00	5.273825e+01	-9.802007e+00	2.546989e+05	1.014088e+05	2.889788e+02	1.287592e-01	1.181738e-01	0.000000e+00	
3.448276e-02	8.386076e-01	1.278148e+00	5.062001e+01	-4.757806e+01	2.706739e+05	1.075144e+05	2.930327e+02	1.583829e-01	8.726391e+00	0.000000e+00	
0.000000e+00	8.069620e-01	1.222475e+00	5.273821e+01	-9.801889e+00	2.546989e+05	1.014088e+05	2.889788e+02	1.287591e-01	1.181755e-01	0.000000e+00	
3.448276e-02	8.069620e-01	1.278148e+00	5.061996e+01	-4.757806e+01	2.706740e+05	1.075144e+05	2.930327e+02	1.583828e-01	8.726417e+00	0.000000e+00	
0.000000e+00	7.753165e-01	1.222475e+00	5.273818e+01	-9.801792e+00	2.546989e+05	1.014088e+05	2.889788e+02	1.287590e-01	1.181775e-01	0.000000e+00	
3.448276e-02	7.753165e-01	1.278148e+00	5.061992e+01	-4.757805e+01	2.706740e+05	1.075144e+05	2.930327e+02	1.583827e-01	8.726439e+00	0.000000e+00	
0.000000e+00	7.436709e-01	1.222475e+00	5.273816e+01	-9.801711e+00	2.546989e+05	1.014088e+05	2.889788e+02	1.287589e-01	1.181799e-01	0.000000e+00	
3.448276e-02	7.436709e-01	1.278148e+00	5.061988e+01	-4.757804e+01	2.706740e+05	1.075145e+05	2.930327e+02	1.583826e-01	8.726457e+00	0.000000e+00	
0.000000e+00	7.120253e-01	1.222475e+00	5.273814e+01	-9.801644e+00	2.546989e+05	1.014088e+05	2.889788e+02	1.287588e-01	1.181824e-01	0.000000e+00	
3.448276e-02	7.120253e-01	1.278148e+00	5.061985e+01	-4.757803e+01	2.706741e+05	1.075145e+05	2.930327e+02	1.583826e-01	8.726473e+00	0.000000e+00	
0.000000e+00	6.803797e-01	1.222475e+00	5.273812e+01	-9.801587e+00	2.546989e+05	1.014088e+05	2.889788e+02	1.287587e-01	1.181850e-01	0.000000e+00	
3.448276e-02	6.803797e-01	1.278148e+00	5.061983e+01	-4.757802e+01	2.706741e+05	1.075145e+05	2.930327e+02	1.583825e-01	8.726486e+00	0.000000e+00	
0.000000e+00	6.487342e-01	1.222475e+00	5.273811e+01	-9.801538e+00	2.546989e+05	1.014088e+05	2.889788e+02	1.287587e-01	1.181877e-01	0.000000e+00	
3.448276e-02	6.487342e-01	1.278148e+00	5.061981e+01	-4.757801e+01	2.706741e+05	1.075145e+05	2.930328e+02	1.583824e-01	8.726498e+00	0.000000e+00	
0.000000e+00	6.170886e-01	1.222475e+00	5.273810e+01	-9.801496e+00	2.546989e+05	1.014088e+05	2.889788e+02	1.287586e-01	1.181903e-01	0.000000e+00	
3.448276e-02	6.170886e-01	1.278148e+00	5.061979e+01	-4.757800e+01	2.706741e+05	1.075145e+05	2.930328e+02	1.583824e-01	8.726509e+00	0.000000e+00	
0.000000e+00	5.854430e-01	1.222475e+00	5.273808e+01	-9.801459e+00	2.546989e+05	1.014088e+05	2.889788e+02	1.287586e-01	1.181929e-01	0.000000e+00	
3.448276e-02	5.854430e-01	1.278148e+00	5.061977e+01	-4.757800e+01	2.706742e+05	1.075145e+05	2.930328e+02	1.583823e-01	8.726518e+00	0.000000e+00	
0.000000e+00	5.537975e-01	1.222475e+00	5.273808e+01	-9.801426e+00	2.546989e+05	1.014088e+05	2.889788e+02	1.287586e-01	1.181954e-01	0.000000e+00	
3.448276e-02	5.537975e-01	1.278148e+00	5.061976e+01	-4.757799e+01	2.706742e+05	1.075145e+05	2.930328e+02	1.583823e-01	8.726526e+00	0.000000e+00	
0.000000e+00	5.221519e-01	1.222475e+00	5.273807e+01	-9.801397e+00	2.546989e+05	1.014088e+05	2.889788e+02	1.287585e-01	1.181977e-01	0.000000e+00	
3.448276e-02	5.221519e-01	1.278148e+00	5.061975e+01	-4.757798e+01	2.706742e+05	1.075145e+05	2.930328e+02	1.583823e-01	8.726533e+00	0.000000e+00	
0.000000e+00	4.905063e-01	1.222475e+00	5.273806e+01	-9.801370e+00	2.546990e+05	1.014088e+05	2.889788e+02	1.287585e-01	1.181999e-01	0.000000e+00	
3.448276e-02	4.905063e-01	1.278148e+00	5.061974e+01	-4.757798e+01	2.706742e+05	1.075145e+05	2.930328e+02	1.583822e-01	8.726540e+00	0.000000e+00	
0.000000e+00	4.588608e-01	1.222475e+00	5.273805e+01	-9.801346e+00	2.546990e+05	1.014088e+05	2.889788e+02	1.287585e-01	1.182019e-01	0.000000e+00	
3.448276e-02	4.588608e-01	1.278148e+00	5.061973e+01	-4.757797e+01	2.706742e+05	1.075145e+05	2.930328e+02	1.583822e-01	8.726546e+00	0.000000e+00	
0.000000e+00	4.272152e-01	1.222475e+00	5.273805e+01	-9.801323e+00	2.546990e+05	1.014088e+05	2.889788e+02	1.287584e-01	1.182038e-01	0.000000e+00	
3.448276e-02	4.272152e-01	1.278148e+00	5.061972e+01	-4.757797e+01	2.706742e+05	1.075145e+05	2.930328e+02	1.583822e-01	8.726552e+00	0.000000e+00	
0.000000e+00	3.955696e-01	1.222475e+00	5.273804e+01	-9.801301e+00	2.546990e+05	1.014088e+05	2.889788e+02	1.287584e-01	1.182055e-01	0.000000e+00	
3.448276e-02	3.955696e-01	1.278148e+00	5.061971e+01	-4.757796e+01	2.706742e+05	1.075145e+05	2.930328e+02	1.583821e-01	8.726557e+00	0.000000e+00	
0.000000e+00	3.639241e-01	1.222475e+00	5.273804e+01	-9.801281e+00	2.546990e+05	1.014088e+05	2.889788e+02	1.287584e-01	1.182072e-01	0.000000e+00	
3.448276e-02	3.639241e-01	1.278149e+00	5.061971e+01	-4.757795e+01	2.706742e+05	1.075145e+05	2.930328e+02	1.583821e-01	8.726562e+00	0.000000e+00	
0.000000e+00	3.322785e-01	1.222475e+00	5.273803e+01	-9.801263e+00	2.546990e+05	1.014088e+05	2.889788e+02	1.287584e-01	1.182087e-01	0.000000e+00	
3.448276e-02	3.322785e-01	1.278149e+00	5.061970e+01	-4.757794e+01	2.706742e+05	1.075145e+05	2.930328e+02	1.583821e-01	8.726566e+00	0.000000e+00	
0.000000e+00	3.006329e-01	1.222475e+00	5.273803e+01	-9.801245e+00	2.546990e+05	1.014088e+05	2.889788e+02	1.287584e-01	1.182101e-01	0.000000e+00	
3.448276e-02	3.006329e-01	1.278149e+00	5.061970e+01	-4.757794e+01	2.706742e+05	1.075145e+05	2.930328e+02	1.583821e-01	8.726570e+00	0.000000e+00	
0.000000e+00	2.689873e-01	1.222475e+00	5.273803e+01	-9.801227e+00	2.546990e+05	1.014088e+05	2.889788e+02	1.287583e-01	1.182113e-01	0.000000e+00	
3.448276e-02	2.689873e-01	1.278149e+00	5.061970e+01	-4.757793e+01	2.706742e+05	1.075145e+05	2.930328e+02	1.583820e-01	8.726574e+00	0.000000e+00	
0.000000e+00	2.373418e-01	1.222475e+00	5.273803e+01	-9.801211e+00	2.546990e+05	1.014088e+05	2.889788e+02	1.287583e-01	1.182125e-01	0.000000e+00	
3.448276e-02	2.373418e-01	1.278149e+00	5.061969e+01	-4.757792e+01	2.706742e+05	1.075145e+05	2.930328e+02	1.583820e-01	8.726577e+00	0.000000e+00	
0.000000e+00	2.056962e-01	1.222475e+00	5.273803e+01	-9.801195e+00	2.546990e+05	1.014088e+05	2.889788e+02	1.287583e-01	1.182135e-01	0.000000e+00	
3.448276e-02	2.056962e-01	1.278149e+00	5.061969e+01	-4.757792e+01	2.706743e+05	1.075145e+05	2.930328e+02	1.583820e-01	8.726581e+00	0.000000e+00	
0.000000e+00	1.740506e-01	1.222475e+00	5.273803e+01	-9.801180e+00	2.546990e+05	1.014088e+05	2.889788e+02	1.287583e-01	1.182144e-01	0.000000e+00	
3.448276e-02	1.740506e-01	1.278149e+00	5.061969e+01	-4.757791e+01	2.706743e+05	1.075145e+05	2.930328e+02	1.583820e-01	8.726584e+00	0.000000e+00	
0.000000e+00	1.424051e-01	1.222475e+00	5.273803e+01	-9.801165e+00	2.546990e+05	1.014088e+05	2.889788e+02	1.287583e-01	1.182152e-01	0.000000e+00	
3.448276e-02	1.424051e-01	1.278149e+00	5.061969e+01	-4.757790e+01	2.706743e+05	1.075145e+05	2.930328e+02	1.583820e-01	8.726586e+00	0.000000e+00	
0.000000e+00	1.107595e-01	1.222475e+00	5.273803e+01	-9.801150e+00	2.546990e+05	1.014088e+05	2.889788e+02	1.287583e-01	1.182159e-01	0.000000e+00	
3.448276e-02	1.107595e-01	1.278149e+00	5.061969e+01	-4.757789e+01	2.706743e+05	1.075146e+05	2.930328e+02	1.583820e-01	8.726589e+00	0.000000e+00	
0.000000e+00	7.911392e-02	1.222475e+00	5.273803e+01	-9.801136e+00	2.546990e+05	1.014088e+05	2.889788e+02	1.287583e-01	1.182165e-01	0.000000e+00	
3.448276e-02	7.911392e-02	1.278149e+00	5.061969e+01	-4.757788e+01	2.706743e+05	1.075146e+05	2.930328e+02	1.583820e-01	8.726591e+00	0.000000e+00	
0.000000e+00	4.746835e-02	1.222475e+00	5.273804e+01	-9.801122e+00	2.546990e+05	1.014088e+05	2.889788e+02	1.287583e-01	1.182170e-01	0.000000e+00	
3.448276e-02	4.746835e-02	1.278149e+00	5.061970e+01	-4.757787e+01	2.706743e+05	1.075146e+05	2.930328e+02	1.583819e-01	8.726593e+00	0.000000e+00	
0.000000e+00	1.582278e-02	1.222475e+00	5.273804e+01	-9.801108e+00	2.546990e+05	1.014088e+05	2.889788e+02	1.287583e-01	1.182173e-01	0.000000e+00	
3.448276e-02	1.582278e-02	1.278149e+00	5.061970e+01	-4.757787e+01	2.706743e+05	1.075146e+05	2.930328e+02	1.583819e-01	8.726595e+00	0.000000e+00	
0.000000e+00	-1.582278e-02	1.222475e+00	5.273804e+01	-9.801094e+00	2.546990e+05	1.014088e+05	2.889788e+02	1.287583e-01	1.182176e-01	0.000000e+00	
3.448276e-02	-1.582278e-02	1.278149e+00	5.061970e+01	-4.757786e+01	2.706743e+05	1.075146e+05	2.930328e+02	1.583819e-01	8.726597e+00	0.000000e+00	
0.000000e+00	-4.746835e-02	1.222475e+00	5.273805e+01	-9.801081e+00	2.546990e+05	1.014088e+05	2.889788e+02	1.287583e-01	1.182177e-01	0.000000e+00	
3.448276e-02	-4.746835e-02	1.278149e+00	5.061971e+01	-4.757785e+01	2.706743e+05	1.075146e+05	2.930328e+02	1.583819e-01	8.726599e+00	0.000000e+00	
0.000000e+00	-7.911392e-02	1.222475e+00	5.273805e+01	-9.801067e+00	2.546990e+05	1.014088e+05	2.889788e+02	1.287583e-01	1.182177e-01	0.000000e+00	
3.448276e-02	-7.911392e-02	1.278149e+00	5.061971e+01	-4.757784e+01	2.706743e+05	1.075146e+05	2.930328e+02	1.583819e-01	8.726600e+00	0.000000e+00	
0.000000e+00	-1.107595e-01	1.222475e+00	5.273806e+01	-9.801054e+00	2.546990e+05	1.014088e+05	2.889788e+02	1.287583e-01	1.182177e-01	0.000000e+00	
3.448276e-02	-1.107595e-01	1.278149e+00	5.061971e+01	-4.757783e+01	2.706743e+05	1.075146e+05	2.930328e+02	1.583819e-01	8.726602e+00	0.000000e+00	
0.000000e+00	-1.424051e-01	1.222475e+00	5.273806e+01	-9.801040e+00	2.546990e+05	1.014088e+05	2.889788e+02	1.287583e-01	1.182175e-01	0.000000e+00	
3.448276e-02	-1.424051e-01	1.278149e+00	5.061972e+01	-4.757782e+01	2.706743e+05	1.075146e+05	2.930328e+02	1.583819e-01	8.726603e+00	0.000000e+00	
0.000000e+00	-1.740506e-01	1.222475e+00	5.273807e+01	-9.801026e+00	2.546990e+05	1.014088e+05	2.889788e+02	1.287583e-01	1.182171e-01	0.000000e+00	
3.448276e-02	-1.740506e-01	1.278149e+00	5.061973e+01	-4.757781e+01	2.706743e+05	1.075146e+05	2.930328e+02	1.583819e-01	8.726604e+00	0.000000e+00	
0.000000e+00	-2.056962e-01	1.222475e+00	5.273808e+01	-9.801012e+00	2.546990e+05	1.014088e+05	2.889788e+02	1.287584e-01	1.182167e-01	0.000000e+00	
3.448276e-02	-2.056962e-01	1.278149e+00	5.061973e+01	-4.757780e+01	2.706743e+05	1.075146e+05	2.930328e+02	1.583819e-01	8.726604e+00	0.000000e+00	
0.000000e+00	-2.373418e-01	1.222475e+00	5.273808e+01	-9.800998e+00	2.546990e+05	1.014088e+05	2.889788e+02	1.287584e-01	1.182161e-01	0.000000e+00	
3.448276e-02	-2.373418e-01	1.278149e+00	5.061974e+01	-4.757779e+01	2.706743e+05	1.075146e+05	2.930328e+02	1.583819e-01	8.726605e+00	0.000000e+00	
0.000000e+00	-2.689873e-01	1.222475e+00	5.273809e+01	-9.800984e+00	2.546990e+05	1.014088e+05	2.889788e+02	1.287584e-01	1.182155e-01	0.000000e+00	
3.448276e-02	-2.689873e-01	1.278149e+00	5.061975e+01	-4.757778e+01	2.706743e+05	1.075146e+05	2.930328e+02	1.583819e-01	8.726605e+00	0.000000e+00	
0.000000e+00	-3.006329e-01	1.222475e+00	5.273810e+01	-9.800970e+00	2.546990e+05	1.014088e+05	2.889788e+02	1.287584e-01	1.182147e-01	0.000000e+00	
3.448276e-02	-3.006329e-01	1.278149e+00	5.061976e+01	-4.757777e+01	2.706743e+05	1.075146e+05	2.930328e+02	1.583819e-01	8.726606e+00	0.000000e+00	
0.000000e+00	-3.322785e-01	1.222475e+00	5.273811e+01	-9.800956e+00	2.546990e+05	1.014088e+05	2.889788e+02	1.287584e-01	1.182137e-01	0.000000e+00	
3.448276e-02	-3.322785e-01	1.278149e+00	5.061977e+01	-4.757776e+01	2.706743e+05	1.075146e+05	2.930328e+02	1.583819e-01	8.726606e+00	0.000000e+00	
0.000000e+00	-3.639241e-01	1.222475e+00	5.273812e+01	-9.800941e+00	2.546990e+05	1.014088e+05	2.889788e+02	1.287584e-01	1.182127e-01	0.000000e+00	
3.448276e-02	-3.639241e-01	1.278149e+00	5.061978e+01	-4.757775e+01	2.706743e+05	1.075146e+05	2.930328e+02	1.583819e-01	8.726606e+00	0.000000e+00	
0.000000e+00	-3.955696e-01	1.222475e+00	5.273813e+01	-9.800926e+00	2.546990e+05	1.014088e+05	2.889788e+02	1.287585e-01	1.182114e-01	0.000000e+00	
3.448276e-02	-3.955696e-01	1.278149e+00	5.061979e+01	-4.757773e+01	2.706743e+05	1.075146e+05	2.930328e+02	1.583819e-01	8.726605e+00	0.000000e+00	
0.000000e+00	-4.272152e-01	1.222475e+00	5.273814e+01	-9.800910e+00	2.546990e+05	1.014088e+05	2.889788e+02	1.287585e-01	1.182101e-01	0.000000e+00	
3.448276e-02	-4.272152e-01	1.278149e+00	5.061980e+01	-4.757772e+01	2.706743e+05	1.075146e+05	2.930328e+02	1.583819e-01	8.726605e+00	0.000000e+00	
0.000000e+00	-4.588608e-01	1.222475e+00	5.273816e+01	-9.800895e+00	2.546990e+05	1.014088e+05	2.889788e+02	1.287585e-01	1.182086e-01	0.000000e+00	
3.448276e-02	-4.588608e-01	1.278149e+00	5.061981e+01	-4.757771e+01	2.706743e+05	1.075146e+05	2.930328e+02	1.583819e-01	8.726604e+00	0.000000e+00	
0.000000e+00	-4.905063e-01	1.222475e+00	5.273817e+01	-9.800879e+00	2.546990e+05	1.014088e+05	2.889788e+02	1.287585e-01	1.182069e-01	0.000000e+00	
3.448276e-02	-4.905063e-01	1.278149e+00	5.061983e+01	-4.757770e+01	2.706743e+05	1.075146e+05	2.930328e+02	1.583819e-01	8.726603e+00	0.000000e+00	
0.000000e+00	-5.221519e-01	1.222475e+00	5.273819e+01	-9.800863e+00	2.546990e+05	1.014088e+05	2.889788e+02	1.287586e-01	1.182050e-01	0.000000e+00	
3.448276e-02	-5.221519e-01	1.278149e+00	5.061985e+01	-4.757768e+01	2.706743e+05	1.075146e+05	2.930328e+02	1.583819e-01	8.726601e+00	0.000000e+00	
0.000000e+00	-5.537975e-01	1.222475e+00	5.273821e+01	-9.800846e+00	2.546990e+05	1.014088e+05	2.889788e+02	1.287586e-01	1.182028e-01	0.000000e+00	
3.448276e-02	-5.537975e-01	1.278149e+00	5.061987e+01	-4.757767e+01	2.706743e+05	1.075146e+05	2.930328e+02	1.583819e-01	8.726599e+00	0.000000e+00	
0.000000e+00	-5.854430e-01	1.222475e+00	5.273823e+01	-9.800829e+00	2.546990e+05	1.014088e+05	2.889788e+02	1.287587e-01	1.182005e-01	0.000000e+00	
3.448276e-02	-5.854430e-01	1.278149e+00	5.061989e+01	-4.757766e+01	2.706743e+05	1.075146e+05	2.930328e+02	1.583819e-01	8.726597e+00	0.000000e+00	
0.000000e+00	-6.170886e-01	1.222475e+00	5.273825e+01	-9.800811e+00	2.546990e+05	1.014088e+05	2.889788e+02	1.287587e-01	1.181980e-01	0.000000e+00	
3.448276e-02	-6.170886e-01	1.278149e+00	5.061991e+01	-4.757764e+01	2.706743e+05	1.075146e+05	2.930328e+02	1.583819e-01	8.726595e+00	0.000000e+00	
0.000000e+00	-6.487342e-01	1.222475e+00	5.273828e+01	-9.800791e+00	2.546989e+05	1.014088e+05	2.889788e+02	1.287588e-01	1.181953e-01	0.000000e+00	
3.448276e-02	-6.487342e-01	1.278149e+00	5.061994e+01	-4.757762e+01	2.706743e+05	1.075146e+05	2.930328e+02	1.583820e-01	8.726592e+00	0.000000e+00	
0.000000e+00	-6.803797e-01	1.222475e+00	5.273831e+01	-9.800769e+00	2.546989e+05	1.014088e+05	2.889788e+02	1.287588e-01	1.181924e-01	0.000000e+00	
3.448276e-02	-6.803797e-01	1.278149e+00	5.061997e+01	-4.757760e+01	2.706743e+05	1.075146e+05	2.930328e+02	1.583820e-01	8.726588e+00	0.000000e+00	
0.000000e+00	-7.120253e-01	1.222475e+00	5.273835e+01	-9.800745e+00	2.546989e+05	1.014088e+05	2.889788e+02	1.287589e-01	1.181894e-01	0.000000e+00	
3.448276e-02	-7.120253e-01	1.278149e+00	5.062001e+01	-4.757758e+01	2.706743e+05	1.075145e+05	2.930328e+02	1.583820e-01	8.726584e+00	0.000000e+00	
0.000000e+00	-7.436709e-01	1.222475e+00	5.273839e+01	-9.800717e+00	2.546989e+05	1.014088e+05	2.889788e+02	1.287590e-01	1.181862e-01	0.000000e+00	
3.448276e-02	-7.436709e-01	1.278149e+00	5.062006e+01	-4.757756e+01	2.706743e+05	1.075145e+05	2.930328e+02	1.583821e-01	8.726579e+00	0.000000e+00	
0.000000e+00	-7.753165e-01	1.222475e+00	5.273845e+01	-9.800686e+00	2.546989e+05	1.014088e+05	2.889788e+02	1.287591e-01	1.181828e-01	0.000000e+00	
3.448276e-02	-7.753165e-01	1.278149e+00	5.062011e+01	-4.757754e+01	2.706742e+05	1.075145e+05	2.930328e+02	1.583821e-01	8.726573e+00	0.000000e+00	
0.000000e+00	-8.069620e-01	1.222475e+00	5.273851e+01	-9.800650e+00	2.546989e+05	1.014088e+05	2.889788e+02	1.287593e-01	1.181789e-01	0.000000e+00	
3.448276e-02	-8.069620e-01	1.278149e+00	5.062017e+01	-4.757752e+01	2.706742e+05	1.075145e+05	2.930328e+02	1.583822e-01	8.726565e+00	0.000000e+00	
0.000000e+00	-8.386076e-01	1.222475e+00	5.273859e+01	-9.800612e+00	2.546989e+05	1.014088e+05	2.889788e+02	1.287594e-01	1.181751e-01	0.000000e+00	
3.448276e-02	-8.386076e-01	1.278148e+00	5.062025e+01	-4.757751e+01	2.706742e+05	1.075145e+05	2.930328e+02	1.583823e-01	8.726555e+00	0.000000e+00	
0.000000e+00	-8.702532e-01	1.222475e+00	5.273870e+01	-9.800576e+00	2.546989e+05	1.014088e+05	2.889788e+02	1.287597e-01	1.181704e-01	0.000000e+00	
3.448276e-02	-8.702532e-01	1.278148e+00	5.062033e+01	-4.757750e+01	2.706742e+05	1.075145e+05	2.930328e+02	1.583825e-01	8.726541e+00	0.000000e+00	
0.000000e+00	-9.018987e-01	1.222475e+00	5.273881e+01	-9.800557e+00	2.546989e+05	1.014088e+05	2.889788e+02	1.287599e-01	1.181665e-01	0.000000e+00	
3.448276e-02	-9.018987e-01	1.278148e+00	5.062041e+01	-4.757752e+01	2.706742e+05	1.075145e+05	2.930327e+02	1.583826e-01	8.726523e+00	0.000000e+00	
0.000000e+00	-9.335443e-01	1.222475e+00	5.273894e+01	-9.800556e+00	2.546989e+05	1.014088e+05	2.889788e+02	1.287602e-01	1.181604e-01	0.000000e+00	
3.448276e-02	-9.335443e-01	1.278148e+00	5.062049e+01	-4.757756e+01	2.706741e+05	1.075145e+05	2.930327e+02	1.583829e-01	8.726495e+00	0.000000e+00	
0.000000e+00	-9.651899e-01	1.222475e+00	5.273900e+01	-9.800571e+00	2.546989e+05	1.014088e+05	2.889788e+02	1.287604e-01	1.181596e-01	0.000000e+00	
3.448276e-02	-9.651899e-01	1.278148e+00	5.062054e+01	-4.757764e+01	2.706741e+05	1.075145e+05	2.930327e+02	1.583831e-01	8.726466e+00	0.000000e+00	
0.000000e+00	-9.968354e-01	1.222475e+00	5.273899e+01	-9.800506e+00	2.546989e+05	1.014088e+05	2.889788e+02	1.287603e-01	1.181610e-01	0.000000e+00	
3.448276e-02	-9.968354e-01	1.278148e+00	5.062057e+01	-4.757767e+01	2.706740e+05	1.075144e+05	2.930327e+02	1.583832e-01	8.726415e+00	0.000000e+00	
0.000000e+00	-1.028481e+00	1.222476e+00	5.273892e+01	-9.800228e+00	2.546990e+05	1.014088e+05	2.889788e+02	1.287600e-01	1.182005e-01	0.000000e+00	
3.448276e-02	-1.028481e+00	1.278147e+00	5.062063e+01	-4.757771e+01	2.706739e+05	1.075144e+05	2.930327e+02	1.583834e-01	8.726383e+00	0.000000e+00	
0.000000e+00	-1.060127e+00	1.222476e+00	5.273927e+01	-9.799399e+00	2.546991e+05	1.014089e+05	2.889788e+02	1.287604e-01	1.182716e-01	0.000000e+00	
3.448276e-02	-1.060127e+00	1.278147e+00	5.062100e+01	-4.757752e+01	2.706738e+05	1.075143e+05	2.930327e+02	1.583839e-01	8.726279e+00	0.000000e+00	
0.000000e+00	-1.091772e+00	1.222478e+00	5.274071e+01	-9.798032e+00	2.546995e+05	1.014090e+05	2.889787e+02	1.287630e-01	1.184667e-01	0.000000e+00	
3.448276e-02	-1.091772e+00	1.278146e+00	5.062184e+01	-4.757777e+01	2.706737e+05	1.075143e+05	2.930326e+02	1.583857e-01	8.726208e+00	0.000000e+00	
0.000000e+00	-1.123418e+00	1.222480e+00	5.274461e+01	-9.796187e+00	2.546999e+05	1.014091e+05	2.889785e+02	1.287713e-01	1.185770e-01	0.000000e+00	
3.448276e-02	-1.123418e+00	1.278144e+00	5.062344e+01	-4.757830e+01	2.706730e+05	1.075140e+05	2.930323e+02	1.583896e-01	8.725765e+00	0.000000e+00	
0.000000e+00	-1.155063e+00	1.222482e+00	5.274990e+01	-9.796792e+00	2.547004e+05	1.014092e+05	2.889783e+02	1.287838e-01	1.187625e-01	0.000000e+00	
3.448276e-02	-1.155063e+00	1.278142e+00	5.062360e+01	-4.758217e+01	2.706723e+05	1.075136e+05	2.930317e+02	1.583962e-01	8.725305e+00	0.000000e+00	
0.000000e+00	-1.186709e+00	1.222470e+00	5.275273e+01	-9.801796e+00	2.546989e+05	1.014086e+05	2.889793e+02	1.287937e-01	1.178292e-01	0.000000e+00	
3.448276e-02	-1.186709e+00	1.278127e+00	5.061769e+01	-4.758703e+01	2.706691e+05	1.075123e+05	2.930318e+02	1.583959e-01	8.723483e+00	0.000000e+00	
0.000000e+00	-1.218354e+00	1.222416e+00	5.273535e+01	-9.815704e+00	2.546917e+05	1.014059e+05	2.889846e+02	1.287634e-01	1.140842e-01	0.000000e+00	
3.448276e-02	-1.218354e+00	1.278122e+00	5.060135e+01	-4.760300e+01	2.706696e+05	1.075126e+05	2.930336e+02	1.583938e-01	8.723839e+00	0.000000e+00	
6.896552e-02	1.218354e+00	1.300251e+00	5.158349e+01	-7.612264e+01	2.788456e+05	1.102376e+05	2.953474e+02	2.052710e-01	1.256583e+01	0.000000e+00	
6.896552e-02	1.250000e+00	1.300297e+00	5.156828e+01	-7.611606e+01	2.788534e+05	1.102412e+05	2.953464e+02	2.052327e-01	1.257088e+01	0.000000e+00	
6.896552e-02	1.186709e+00	1.300247e+00	5.159160e+01	-7.612159e+01	2.788458e+05	1.102376e+05	2.953482e+02	2.052795e-01	1.256579e+01	0.000000e+00	
6.896552e-02	1.155063e+00	1.300247e+00	5.159690e+01	-7.612136e+01	2.788458e+05	1.102375e+05	2.953480e+02	2.052858e-01	1.256568e+01	0.000000e+00	
6.896552e-02	1.123418e+00	1.300246e+00	5.159929e+01	-7.612199e+01	2.788454e+05	1.102373e+05	2.953476e+02	2.052902e-01	1.256538e+01	0.000000e+00	
6.896552e-02	1.091772e+00	1.300247e+00	5.160033e+01	-7.612226e+01	2.788452e+05	1.102372e+05	2.953471e+02	2.052920e-01	1.256527e+01	0.000000e+00	
6.896552e-02	1.060127e+00	1.300248e+00	5.160081e+01	-7.612241e+01	2.788451e+05	1.102372e+05	2.953467e+02	2.052928e-01	1.256520e+01	0.000000e+00	
6.896552e-02	1.028481e+00	1.300249e+00	5.160110e+01	-7.612246e+01	2.788451e+05	1.102372e+05	2.953465e+02	2.052932e-01	1.256519e+01	0.000000e+00	
6.896552e-02	9.968354e-01	1.300250e+00	5.160130e+01	-7.612252e+01	2.788451e+05	1.102372e+05	2.953463e+02	2.052935e-01	1.256518e+01	0.000000e+00	
6.896552e-02	9.651899e-01	1.300250e+00	5.160142e+01	-7.612259e+01	2.788451e+05	1.102372e+05	2.953462e+02	2.052938e-01	1.256518e+01	0.000000e+00	
6.896552e-02	9.335443e-01	1.300251e+00	5.160147e+01	-7.612266e+01	2.788451e+05	1.102372e+05	2.953462e+02	2.052939e-01	1.256519e+01	0.000000e+00	
6.896552e-02	9.018987e-01	1.300251e+00	5.160146e+01	-7.612273e+01	2.788452e+05	1.102372e+05	2.953462e+02	2.052940e-01	1.256520e+01	0.000000e+00	
6.896552e-02	8.702532e-01	1.300251e+00	5.160143e+01	-7.612278e+01	2.788452e+05	1.102372e+05	2.953462e+02	2.052941e-01	1.256521e+01	0.000000e+00	
6.896552e-02	8.386076e-01	1.300251e+00	5.160139e+01	-7.612282e+01	2.788452e+05	1.102372e+05	2.953462e+02	2.052941e-01	1.256522e+01	0.000000e+00	
6.896552e-02	8.069620e-01	1.300251e+00	5.160135e+01	-7.612285e+01	2.788452e+05	1.102372e+05	2.953462e+02	2.052941e-01	1.256524e+01	0.000000e+00	
6.896552e-02	7.753165e-01	1.300251e+00	5.160131e+01	-7.612288e+01	2.788453e+05	1.102372e+05	2.953463e+02	2.052941e-01	1.256525e+01	0.000000e+00	
6.896552e-02	7.436709e-01	1.300251e+00	5.160128e+01	-7.612290e+01	2.788453e+05	1.102372e+05	2.953463e+02	2.052941e-01	1.256527e+01	0.000000e+00	
6.896552e-02	7.120253e-01	1.300251e+00	5.160125e+01	-7.612292e+01	2.788453e+05	1.102372e+05	2.953463e+02	2.052941e-01	1.256528e+01	0.000000e+00	
6.896552e-02	6.803797e-01	1.300251e+00	5.160123e+01	-7.612294e+01	2.788453e+05	1.102372e+05	2.953463e+02	2.052941e-01	1.256529e+01	0.000000e+00	
6.896552e-02	6.487342e-01	1.300251e+00	5.160120e+01	-7.612295e+01	2.788453e+05	1.102373e+05	2.953464e+02	2.052940e-01	1.256530e+01	0.000000e+00	
6.896552e-02	6.170886e-01	1.300251e+00	5.160119e+01	-7.612296e+01	2.788454e+05	1.102373e+05	2.953464e+02	2.052940e-01	1.256531e+01	0.000000e+00	
6.896552e-02	5.854430e-01	1.300251e+00	5.160117e+01	-7.612297e+01	2.788454e+05	1.102373e+05	2.953464e+02	2.052940e-01	1.256532e+01	0.000000e+00	
6.896552e-02	5.537975e-01	1.300251e+00	5.160116e+01	-7.612299e+01	2.788454e+05	1.102373e+05	2.953464e+02	2.052940e-01	1.256532e+01	0.000000e+00	
6.896552e-02	5.221519e-01	1.300251e+00	5.160115e+01	-7.612300e+01	2.788454e+05	1.102373e+05	2.953464e+02	2.052940e-01	1.256533e+01	0.000000e+00	
6.896552e-02	4.905063e-01	1.300251e+00	5.160114e+01	-7.612300e+01	2.788454e+05	1.102373e+05	2.953464e+02	2.052940e-01	1.256534e+01	0.000000e+00	
6.896552e-02	4.588608e-01	1.300251e+00	5.160113e+01	-7.612301e+01	2.788454e+05	1.102373e+05	2.953464e+02	2.052940e-01	1.256534e+01	0.000000e+00	
6.896552e-02	4.272152e-01	1.300251e+00	5.160113e+01	-7.612302e+01	2.788454e+05	1.102373e+05	2.953464e+02	2.052940e-01	1.256535e+01	0.000000e+00	
6.896552e-02	3.955696e-01	1.300251e+00	5.160112e+01	-7.612302e+01	2.788454e+05	1.102373e+05	2.953464e+02	2.052940e-01	1.256536e+01	0.000000e+00	
6.896552e-02	3.639241e-01	1.300251e+00	5.160112e+01	-7.612303e+01	2.788455e+05	1.102373e+05	2.953464e+02	2.052940e-01	1.256536e+01	0.000000e+00	
6.896552e-02	3.322785e-01	1.300251e+00	5.160111e+01	-7.612303e+01	2.788455e+05	1.102373e+05	2.953464e+02	2.052940e-01	1.256537e+01	0.000000e+00	
6.896552e-02	3.006329e-01	1.300251e+00	5.160111e+01	-7.612303e+01	2.788455e+05	1.102373e+05	2.953464e+02	2.052940e-01	1.256537e+01	0.000000e+00	
6.896552e-02	2.689873e-01	1.300251e+00	5.160111e+01	-7.612303e+01	2.788455e+05	1.102373e+05	2.953464e+02	2.052940e-01	1.256537e+01	0.000000e+00	
6.896552e-02	2.373418e-01	1.300251e+00	5.160111e+01	-7.612303e+01	2.788455e+05	1.102373e+05	2.953464e+02	2.052940e-01	1.256538e+01	0.000000e+00	
6.896552e-02	2.056962e-01	1.300251e+00	5.160111e+01	-7.612303e+01	2.788455e+05	1.102373e+05	2.953464e+02	2.052940e-01	1.256538e+01	0.000000e+00	
6.896552e-02	1.740506e-01	1.300251e+00	5.160111e+01	-7.612303e+01	2.788455e+05	1.102373e+05	2.953464e+02	2.052940e-01	1.256538e+01	0.000000e+00	
6.896552e-02	1.424051e-01	1.300251e+00	5.160111e+01	-7.612303e+01	2.788455e+05	1.102373e+05	2.953464e+02	2.052940e-01	1.256539e+01	0.000000e+00	
6.896552e-02	1.107595e-01	1.300251e+00	5.160111e+01	-7.612302e+01	2.788455e+05	1.102373e+05	2.953464e+02	2.052940e-01	1.256539e+01	0.000000e+00	
6.896552e-02	7.911392e-02	1.300251e+00	5.160112e+01	-7.612302e+01	2.788455e+05	1.102373e+05	2.953464e+02	2.052940e-01	1.256539e+01	0.000000e+00	
6.896552e-02	4.746835e-02	1.300251e+00	5.160112e+01	-7.612302e+01	2.788455e+05	1.102373e+05	2.953464e+02	2.052940e-01	1.256540e+01	0.000000e+00	
6.896552e-02	1.582278e-02	1.300251e+00	5.160112e+01	-7.612301e+01	2.788455e+05	1.102373e+05	2.953464e+02	2.052939e-01	1.256540e+01	0.000000e+00	
6.896552e-02	-1.582278e-02	1.300251e+00	5.160112e+01	-7.612301e+01	2.788455e+05	1.102373e+05	2.953464e+02	2.052939e-01	1.256540e+01	0.000000e+00	
6.896552e-02	-4.746835e-02	1.300251e+00	5.160113e+01	-7.612300e+01	2.788455e+05	1.102373e+05	2.953464e+02	2.052939e-01	1.256540e+01	0.000000e+00	
6.896552e-02	-7.911392e-02	1.300251e+00	5.160113e+01	-7.612300e+01	2.788455e+05	1.102373e+05	2.953464e+02	2.052939e-01	1.256540e+01	0.000000e+00	
6.896552e-02	-1.107595e-01	1.300251e+00	5.160114e+01	-7.612299e+01	2.788455e+05	1.102373e+05	2.953464e+02	2.052939e-01	1.256541e+01	0.000000e+00	
6.896552e-02	-1.424051e-01	1.300251e+00	5.160114e+01	-7.612298e+01	2.788455e+05	1.102373e+05	2.953464e+02	2.052939e-01	1.256541e+01	0.000000e+00	
6.896552e-02	-1.740506e-01	1.300251e+00	5.160115e+01	-7.612298e+01	2.788455e+05	1.102373e+05	2.953464e+02	2.052939e-01	1.256541e+01	0.000000e+00	