TITLE = "Visualization of the volumetric solution"
VARIABLES = "x","y","Density","Momentum_x","Momentum_y","Energy","Pressure","Temperature","Mach","C<sub>p</sub>","Roe_Dissipation"
ZONE NODES= 3200, ELEMENTS= 3081, DATAPACKING=POINT, ZONETYPE=FEQUADRILATERAL
1.000000e+00	1.250000e+00	1.343557e+00	5.130553e+01	-1.498763e+02	2.978311e+05	1.153968e+05	2.992044e+02	3.400211e-01	1.983972e+01	0.000000e+00	
1.000000e+00	1.218354e+00	1.343557e+00	5.130556e+01	-1.498762e+02	2.978311e+05	1.153968e+05	2.992044e+02	3.400210e-01	1.983972e+01	0.000000e+00	
1.051282e+00	1.218354e+00	1.343562e+00	5.130501e+01	-1.498704e+02	2.978316e+05	1.153973e+05	2.992047e+02	3.400075e-01	1.984042e+01	0.000000e+00	
1.051282e+00	1.250000e+00	1.343562e+00	5.130499e+01	-1.498705e+02	2.978316e+05	1.153973e+05	2.992047e+02	3.400077e-01	1.984041e+01	0.000000e+00	
1.000000e+00	1.186709e+00	1.343557e+00	5.130553e+01	-1.498761e+02	2.978312e+05	1.153968e+05	2.992045e+02	3.400207e-01	1.983975e+01	0.000000e+00	
1.051282e+00	1.186709e+00	1.343562e+00	5.130498e+01	-1.498703e+02	2.978317e+05	1.153973e+05	2.992047e+02	3.400073e-01	1.984045e+01	0.000000e+00	
1.000000e+00	1.155063e+00	1.343557e+00	5.130548e+01	-1.498760e+02	2.978312e+05	1.153969e+05	2.992045e+02	3.400204e-01	1.983977e+01	0.000000e+00	
1.051282e+00	1.155063e+00	1.343562e+00	5.130493e+01	-1.498702e+02	2.978317e+05	1.153973e+05	2.992047e+02	3.400071e-01	1.984046e+01	0.000000e+00	
1.000000e+00	1.123418e+00	1.343557e+00	5.130543e+01	-1.498759e+02	2.978312e+05	1.153969e+05	2.992045e+02	3.400202e-01	1.983979e+01	0.000000e+00	
1.051282e+00	1.123418e+00	1.343562e+00	5.130488e+01	-1.498701e+02	2.978317e+05	1.153974e+05	2.992048e+02	3.400069e-01	1.984048e+01	0.000000e+00	
1.000000e+00	1.091772e+00	1.343557e+00	5.130540e+01	-1.498758e+02	2.978312e+05	1.153969e+05	2.992046e+02	3.400200e-01	1.983980e+01	0.000000e+00	
1.051282e+00	1.091772e+00	1.343562e+00	5.130484e+01	-1.498701e+02	2.978317e+05	1.153974e+05	2.992048e+02	3.400066e-01	1.984049e+01	0.000000e+00	
1.000000e+00	1.060127e+00	1.343557e+00	5.130538e+01	-1.498757e+02	2.978312e+05	1.153969e+05	2.992046e+02	3.400198e-01	1.983982e+01	0.000000e+00	
1.051282e+00	1.060127e+00	1.343562e+00	5.130481e+01	-1.498700e+02	2.978317e+05	1.153974e+05	2.992048e+02	3.400064e-01	1.984051e+01	0.000000e+00	
1.000000e+00	1.028481e+00	1.343557e+00	5.130538e+01	-1.498757e+02	2.978312e+05	1.153969e+05	2.992046e+02	3.400197e-01	1.983983e+01	0.000000e+00	
1.051282e+00	1.028481e+00	1.343562e+00	5.130478e+01	-1.498699e+02	2.978318e+05	1.153974e+05	2.992049e+02	3.400063e-01	1.984052e+01	0.000000e+00	
1.000000e+00	9.968354e-01	1.343557e+00	5.130537e+01	-1.498756e+02	2.978313e+05	1.153969e+05	2.992046e+02	3.400196e-01	1.983985e+01	0.000000e+00	
1.051282e+00	9.968354e-01	1.343562e+00	5.130475e+01	-1.498698e+02	2.978318e+05	1.153974e+05	2.992049e+02	3.400061e-01	1.984053e+01	0.000000e+00	
1.000000e+00	9.651899e-01	1.343557e+00	5.130538e+01	-1.498756e+02	2.978313e+05	1.153969e+05	2.992047e+02	3.400195e-01	1.983986e+01	0.000000e+00	
1.051282e+00	9.651899e-01	1.343562e+00	5.130474e+01	-1.498698e+02	2.978318e+05	1.153974e+05	2.992049e+02	3.400060e-01	1.984054e+01	0.000000e+00	
1.000000e+00	9.335443e-01	1.343557e+00	5.130539e+01	-1.498756e+02	2.978313e+05	1.153969e+05	2.992047e+02	3.400195e-01	1.983987e+01	0.000000e+00	
1.051282e+00	9.335443e-01	1.343562e+00	5.130473e+01	-1.498697e+02	2.978318e+05	1.153974e+05	2.992049e+02	3.400059e-01	1.984056e+01	0.000000e+00	
1.000000e+00	9.018987e-01	1.343558e+00	5.130541e+01	-1.498756e+02	2.978313e+05	1.153969e+05	2.992047e+02	3.400195e-01	1.983989e+01	0.000000e+00	
1.051282e+00	9.018987e-01	1.343562e+00	5.130472e+01	-1.498697e+02	2.978318e+05	1.153974e+05	2.992050e+02	3.400058e-01	1.984057e+01	0.000000e+00	
1.000000e+00	8.702532e-01	1.343558e+00	5.130542e+01	-1.498756e+02	2.978313e+05	1.153969e+05	2.992047e+02	3.400195e-01	1.983990e+01	0.000000e+00	
1.051282e+00	8.702532e-01	1.343562e+00	5.130472e+01	-1.498697e+02	2.978318e+05	1.153974e+05	2.992050e+02	3.400058e-01	1.984057e+01	0.000000e+00	
1.000000e+00	8.386076e-01	1.343558e+00	5.130544e+01	-1.498757e+02	2.978314e+05	1.153969e+05	2.992046e+02	3.400196e-01	1.983991e+01	0.000000e+00	
1.051282e+00	8.386076e-01	1.343562e+00	5.130472e+01	-1.498697e+02	2.978318e+05	1.153974e+05	2.992050e+02	3.400057e-01	1.984058e+01	0.000000e+00	
1.000000e+00	8.069620e-01	1.343558e+00	5.130546e+01	-1.498757e+02	2.978314e+05	1.153970e+05	2.992046e+02	3.400197e-01	1.983991e+01	0.000000e+00	
1.051282e+00	8.069620e-01	1.343562e+00	5.130473e+01	-1.498697e+02	2.978319e+05	1.153974e+05	2.992050e+02	3.400057e-01	1.984059e+01	0.000000e+00	
1.000000e+00	7.753165e-01	1.343558e+00	5.130548e+01	-1.498757e+02	2.978314e+05	1.153970e+05	2.992046e+02	3.400197e-01	1.983992e+01	0.000000e+00	
1.051282e+00	7.753165e-01	1.343562e+00	5.130474e+01	-1.498697e+02	2.978319e+05	1.153974e+05	2.992050e+02	3.400058e-01	1.984060e+01	0.000000e+00	
1.000000e+00	7.436709e-01	1.343558e+00	5.130550e+01	-1.498758e+02	2.978314e+05	1.153970e+05	2.992046e+02	3.400198e-01	1.983993e+01	0.000000e+00	
1.051282e+00	7.436709e-01	1.343562e+00	5.130475e+01	-1.498697e+02	2.978319e+05	1.153974e+05	2.992050e+02	3.400058e-01	1.984060e+01	0.000000e+00	
1.000000e+00	7.120253e-01	1.343558e+00	5.130552e+01	-1.498758e+02	2.978314e+05	1.153970e+05	2.992046e+02	3.400199e-01	1.983993e+01	0.000000e+00	
1.051282e+00	7.120253e-01	1.343562e+00	5.130477e+01	-1.498698e+02	2.978319e+05	1.153974e+05	2.992050e+02	3.400058e-01	1.984061e+01	0.000000e+00	
1.000000e+00	6.803797e-01	1.343559e+00	5.130554e+01	-1.498759e+02	2.978315e+05	1.153970e+05	2.992045e+02	3.400200e-01	1.983994e+01	0.000000e+00	
1.051282e+00	6.803797e-01	1.343562e+00	5.130478e+01	-1.498698e+02	2.978319e+05	1.153975e+05	2.992050e+02	3.400059e-01	1.984061e+01	0.000000e+00	
1.000000e+00	6.487342e-01	1.343559e+00	5.130556e+01	-1.498759e+02	2.978315e+05	1.153970e+05	2.992045e+02	3.400201e-01	1.983994e+01	0.000000e+00	
1.051282e+00	6.487342e-01	1.343562e+00	5.130480e+01	-1.498698e+02	2.978319e+05	1.153975e+05	2.992050e+02	3.400060e-01	1.984062e+01	0.000000e+00	
1.000000e+00	6.170886e-01	1.343559e+00	5.130558e+01	-1.498760e+02	2.978315e+05	1.153970e+05	2.992045e+02	3.400201e-01	1.983995e+01	0.000000e+00	
1.051282e+00	6.170886e-01	1.343562e+00	5.130481e+01	-1.498699e+02	2.978319e+05	1.153975e+05	2.992049e+02	3.400061e-01	1.984062e+01	0.000000e+00	
1.000000e+00	5.854430e-01	1.343559e+00	5.130559e+01	-1.498760e+02	2.978315e+05	1.153970e+05	2.992044e+02	3.400202e-01	1.983995e+01	0.000000e+00	
1.051282e+00	5.854430e-01	1.343562e+00	5.130483e+01	-1.498699e+02	2.978319e+05	1.153975e+05	2.992049e+02	3.400062e-01	1.984063e+01	0.000000e+00	
1.000000e+00	5.537975e-01	1.343559e+00	5.130561e+01	-1.498761e+02	2.978315e+05	1.153970e+05	2.992044e+02	3.400203e-01	1.983996e+01	0.000000e+00	
1.051282e+00	5.537975e-01	1.343563e+00	5.130484e+01	-1.498700e+02	2.978320e+05	1.153975e+05	2.992049e+02	3.400062e-01	1.984063e+01	0.000000e+00	
1.000000e+00	5.221519e-01	1.343559e+00	5.130562e+01	-1.498761e+02	2.978315e+05	1.153970e+05	2.992044e+02	3.400203e-01	1.983996e+01	0.000000e+00	
1.051282e+00	5.221519e-01	1.343563e+00	5.130486e+01	-1.498700e+02	2.978320e+05	1.153975e+05	2.992049e+02	3.400063e-01	1.984063e+01	0.000000e+00	
1.000000e+00	4.905063e-01	1.343560e+00	5.130563e+01	-1.498762e+02	2.978315e+05	1.153970e+05	2.992043e+02	3.400204e-01	1.983996e+01	0.000000e+00	
1.051282e+00	4.905063e-01	1.343563e+00	5.130487e+01	-1.498701e+02	2.978320e+05	1.153975e+05	2.992048e+02	3.400064e-01	1.984063e+01	0.000000e+00	
1.000000e+00	4.588608e-01	1.343560e+00	5.130564e+01	-1.498762e+02	2.978315e+05	1.153970e+05	2.992043e+02	3.400205e-01	1.983996e+01	0.000000e+00	
1.051282e+00	4.588608e-01	1.343563e+00	5.130489e+01	-1.498701e+02	2.978320e+05	1.153975e+05	2.992048e+02	3.400065e-01	1.984064e+01	0.000000e+00	
1.000000e+00	4.272152e-01	1.343560e+00	5.130565e+01	-1.498762e+02	2.978315e+05	1.153970e+05	2.992043e+02	3.400205e-01	1.983996e+01	0.000000e+00	
1.051282e+00	4.272152e-01	1.343563e+00	5.130490e+01	-1.498702e+02	2.978320e+05	1.153975e+05	2.992048e+02	3.400066e-01	1.984064e+01	0.000000e+00	
1.000000e+00	3.955696e-01	1.343560e+00	5.130566e+01	-1.498762e+02	2.978315e+05	1.153970e+05	2.992043e+02	3.400206e-01	1.983997e+01	0.000000e+00	
1.051282e+00	3.955696e-01	1.343563e+00	5.130491e+01	-1.498702e+02	2.978320e+05	1.153975e+05	2.992048e+02	3.400067e-01	1.984064e+01	0.000000e+00	
1.000000e+00	3.639241e-01	1.343560e+00	5.130566e+01	-1.498763e+02	2.978315e+05	1.153970e+05	2.992042e+02	3.400206e-01	1.983997e+01	0.000000e+00	
1.051282e+00	3.639241e-01	1.343563e+00	5.130492e+01	-1.498702e+02	2.978320e+05	1.153975e+05	2.992047e+02	3.400067e-01	1.984064e+01	0.000000e+00	
1.000000e+00	3.322785e-01	1.343560e+00	5.130567e+01	-1.498763e+02	2.978315e+05	1.153970e+05	2.992042e+02	3.400206e-01	1.983997e+01	0.000000e+00	
1.051282e+00	3.322785e-01	1.343564e+00	5.130493e+01	-1.498703e+02	2.978320e+05	1.153975e+05	2.992047e+02	3.400068e-01	1.984064e+01	0.000000e+00	
1.000000e+00	3.006329e-01	1.343560e+00	5.130567e+01	-1.498763e+02	2.978315e+05	1.153970e+05	2.992042e+02	3.400207e-01	1.983997e+01	0.000000e+00	
1.051282e+00	3.006329e-01	1.343564e+00	5.130494e+01	-1.498703e+02	2.978320e+05	1.153975e+05	2.992047e+02	3.400069e-01	1.984064e+01	0.000000e+00	
1.000000e+00	2.689873e-01	1.343560e+00	5.130568e+01	-1.498763e+02	2.978315e+05	1.153970e+05	2.992042e+02	3.400207e-01	1.983997e+01	0.000000e+00	
1.051282e+00	2.689873e-01	1.343564e+00	5.130495e+01	-1.498704e+02	2.978320e+05	1.153975e+05	2.992047e+02	3.400069e-01	1.984064e+01	0.000000e+00	
1.000000e+00	2.373418e-01	1.343560e+00	5.130568e+01	-1.498763e+02	2.978315e+05	1.153970e+05	2.992042e+02	3.400207e-01	1.983997e+01	0.000000e+00	
1.051282e+00	2.373418e-01	1.343564e+00	5.130495e+01	-1.498704e+02	2.978320e+05	1.153975e+05	2.992046e+02	3.400070e-01	1.984064e+01	0.000000e+00	
1.000000e+00	2.056962e-01	1.343560e+00	5.130568e+01	-1.498763e+02	2.978315e+05	1.153970e+05	2.992042e+02	3.400207e-01	1.983996e+01	0.000000e+00	
1.051282e+00	2.056962e-01	1.343564e+00	5.130496e+01	-1.498704e+02	2.978320e+05	1.153975e+05	2.992046e+02	3.400071e-01	1.984064e+01	0.000000e+00	
1.000000e+00	1.740506e-01	1.343560e+00	5.130568e+01	-1.498764e+02	2.978315e+05	1.153970e+05	2.992042e+02	3.400208e-01	1.983996e+01	0.000000e+00	
1.051282e+00	1.740506e-01	1.343564e+00	5.130496e+01	-1.498704e+02	2.978320e+05	1.153975e+05	2.992046e+02	3.400071e-01	1.984064e+01	0.000000e+00	
1.000000e+00	1.424051e-01	1.343560e+00	5.130568e+01	-1.498764e+02	2.978315e+05	1.153970e+05	2.992042e+02	3.400208e-01	1.983996e+01	0.000000e+00	
1.051282e+00	1.424051e-01	1.343564e+00	5.130497e+01	-1.498705e+02	2.978320e+05	1.153975e+05	2.992046e+02	3.400072e-01	1.984064e+01	0.000000e+00	
1.000000e+00	1.107595e-01	1.343560e+00	5.130568e+01	-1.498764e+02	2.978315e+05	1.153970e+05	2.992042e+02	3.400208e-01	1.983996e+01	0.000000e+00	
1.051282e+00	1.107595e-01	1.343564e+00	5.130497e+01	-1.498705e+02	2.978320e+05	1.153975e+05	2.992046e+02	3.400072e-01	1.984063e+01	0.000000e+00	
1.000000e+00	7.911392e-02	1.343560e+00	5.130568e+01	-1.498764e+02	2.978315e+05	1.153970e+05	2.992042e+02	3.400208e-01	1.983996e+01	0.000000e+00	
1.051282e+00	7.911392e-02	1.343564e+00	5.130497e+01	-1.498705e+02	2.978320e+05	1.153975e+05	2.992046e+02	3.400072e-01	1.984063e+01	0.000000e+00	
1.000000e+00	4.746835e-02	1.343560e+00	5.130568e+01	-1.498764e+02	2.978315e+05	1.153970e+05	2.992042e+02	3.400209e-01	1.983995e+01	0.000000e+00	
1.051282e+00	4.746835e-02	1.343564e+00	5.130497e+01	-1.498705e+02	2.978320e+05	1.153975e+05	2.992046e+02	3.400073e-01	1.984063e+01	0.000000e+00	
1.000000e+00	1.582278e-02	1.343560e+00	5.130568e+01	-1.498764e+02	2.978315e+05	1.153970e+05	2.992042e+02	3.400209e-01	1.983995e+01	0.000000e+00	
1.051282e+00	1.582278e-02	1.343564e+00	5.130497e+01	-1.498706e+02	2.978320e+05	1.153975e+05	2.992046e+02	3.400073e-01	1.984063e+01	0.000000e+00	
1.000000e+00	-1.582278e-02	1.343560e+00	5.130568e+01	-1.498764e+02	2.978315e+05	1.153970e+05	2.992042e+02	3.400209e-01	1.983995e+01	0.000000e+00	
1.051282e+00	-1.582278e-02	1.343564e+00	5.130497e+01	-1.498706e+02	2.978320e+05	1.153975e+05	2.992046e+02	3.400074e-01	1.984062e+01	0.000000e+00	
1.000000e+00	-4.746835e-02	1.343560e+00	5.130568e+01	-1.498764e+02	2.978315e+05	1.153970e+05	2.992042e+02	3.400209e-01	1.983994e+01	0.000000e+00	
1.051282e+00	-4.746835e-02	1.343564e+00	5.130497e+01	-1.498706e+02	2.978320e+05	1.153975e+05	2.992046e+02	3.400074e-01	1.984062e+01	0.000000e+00	
1.000000e+00	-7.911392e-02	1.343560e+00	5.130567e+01	-1.498764e+02	2.978315e+05	1.153970e+05	2.992042e+02	3.400210e-01	1.983994e+01	0.000000e+00	
1.051282e+00	-7.911392e-02	1.343564e+00	5.130497e+01	-1.498706e+02	2.978320e+05	1.153975e+05	2.992046e+02	3.400075e-01	1.984061e+01	0.000000e+00	
1.000000e+00	-1.107595e-01	1.343560e+00	5.130567e+01	-1.498764e+02	2.978315e+05	1.153970e+05	2.992042e+02	3.400210e-01	1.983993e+01	0.000000e+00	
1.051282e+00	-1.107595e-01	1.343564e+00	5.130497e+01	-1.498706e+02	2.978320e+05	1.153974e+05	2.992046e+02	3.400075e-01	1.984061e+01	0.000000e+00	
1.000000e+00	-1.424051e-01	1.343560e+00	5.130567e+01	-1.498764e+02	2.978315e+05	1.153970e+05	2.992043e+02	3.400210e-01	1.983993e+01	0.000000e+00	
1.051282e+00	-1.424051e-01	1.343564e+00	5.130496e+01	-1.498706e+02	2.978320e+05	1.153974e+05	2.992046e+02	3.400075e-01	1.984060e+01	0.000000e+00	
1.000000e+00	-1.740506e-01	1.343560e+00	5.130566e+01	-1.498764e+02	2.978315e+05	1.153970e+05	2.992043e+02	3.400211e-01	1.983992e+01	0.000000e+00	
1.051282e+00	-1.740506e-01	1.343564e+00	5.130496e+01	-1.498706e+02	2.978320e+05	1.153974e+05	2.992046e+02	3.400076e-01	1.984060e+01	0.000000e+00	
1.000000e+00	-2.056962e-01	1.343560e+00	5.130565e+01	-1.498764e+02	2.978315e+05	1.153970e+05	2.992043e+02	3.400211e-01	1.983992e+01	0.000000e+00	
1.051282e+00	-2.056962e-01	1.343564e+00	5.130495e+01	-1.498707e+02	2.978320e+05	1.153974e+05	2.992046e+02	3.400076e-01	1.984059e+01	0.000000e+00	
1.000000e+00	-2.373418e-01	1.343559e+00	5.130565e+01	-1.498765e+02	2.978315e+05	1.153970e+05	2.992043e+02	3.400211e-01	1.983991e+01	0.000000e+00	
1.051282e+00	-2.373418e-01	1.343564e+00	5.130495e+01	-1.498707e+02	2.978320e+05	1.153974e+05	2.992046e+02	3.400077e-01	1.984059e+01	0.000000e+00	
1.000000e+00	-2.689873e-01	1.343559e+00	5.130564e+01	-1.498765e+02	2.978315e+05	1.153969e+05	2.992043e+02	3.400211e-01	1.983990e+01	0.000000e+00	
1.051282e+00	-2.689873e-01	1.343564e+00	5.130494e+01	-1.498707e+02	2.978320e+05	1.153974e+05	2.992046e+02	3.400077e-01	1.984058e+01	0.000000e+00	
1.000000e+00	-3.006329e-01	1.343559e+00	5.130563e+01	-1.498765e+02	2.978314e+05	1.153969e+05	2.992043e+02	3.400212e-01	1.983990e+01	0.000000e+00	
1.051282e+00	-3.006329e-01	1.343563e+00	5.130493e+01	-1.498707e+02	2.978319e+05	1.153974e+05	2.992046e+02	3.400077e-01	1.984058e+01	0.000000e+00	
1.000000e+00	-3.322785e-01	1.343559e+00	5.130562e+01	-1.498765e+02	2.978314e+05	1.153969e+05	2.992043e+02	3.400212e-01	1.983989e+01	0.000000e+00	
1.051282e+00	-3.322785e-01	1.343563e+00	5.130492e+01	-1.498707e+02	2.978319e+05	1.153974e+05	2.992046e+02	3.400078e-01	1.984057e+01	0.000000e+00	
1.000000e+00	-3.639241e-01	1.343559e+00	5.130561e+01	-1.498765e+02	2.978314e+05	1.153969e+05	2.992043e+02	3.400212e-01	1.983988e+01	0.000000e+00	
1.051282e+00	-3.639241e-01	1.343563e+00	5.130491e+01	-1.498707e+02	2.978319e+05	1.153974e+05	2.992046e+02	3.400078e-01	1.984056e+01	0.000000e+00	
1.000000e+00	-3.955696e-01	1.343559e+00	5.130560e+01	-1.498765e+02	2.978314e+05	1.153969e+05	2.992043e+02	3.400213e-01	1.983987e+01	0.000000e+00	
1.051282e+00	-3.955696e-01	1.343563e+00	5.130490e+01	-1.498708e+02	2.978319e+05	1.153974e+05	2.992046e+02	3.400079e-01	1.984055e+01	0.000000e+00	
1.000000e+00	-4.272152e-01	1.343559e+00	5.130558e+01	-1.498765e+02	2.978314e+05	1.153969e+05	2.992043e+02	3.400213e-01	1.983986e+01	0.000000e+00	
1.051282e+00	-4.272152e-01	1.343563e+00	5.130488e+01	-1.498708e+02	2.978319e+05	1.153974e+05	2.992046e+02	3.400079e-01	1.984055e+01	0.000000e+00	
1.000000e+00	-4.588608e-01	1.343559e+00	5.130557e+01	-1.498765e+02	2.978314e+05	1.153969e+05	2.992043e+02	3.400213e-01	1.983986e+01	0.000000e+00	
1.051282e+00	-4.588608e-01	1.343563e+00	5.130487e+01	-1.498708e+02	2.978319e+05	1.153974e+05	2.992046e+02	3.400079e-01	1.984054e+01	0.000000e+00	
1.000000e+00	-4.905063e-01	1.343559e+00	5.130555e+01	-1.498766e+02	2.978314e+05	1.153969e+05	2.992043e+02	3.400214e-01	1.983985e+01	0.000000e+00	
1.051282e+00	-4.905063e-01	1.343563e+00	5.130485e+01	-1.498708e+02	2.978319e+05	1.153974e+05	2.992046e+02	3.400080e-01	1.984053e+01	0.000000e+00	
1.000000e+00	-5.221519e-01	1.343559e+00	5.130553e+01	-1.498766e+02	2.978313e+05	1.153969e+05	2.992043e+02	3.400214e-01	1.983984e+01	0.000000e+00	
1.051282e+00	-5.221519e-01	1.343563e+00	5.130483e+01	-1.498708e+02	2.978319e+05	1.153974e+05	2.992046e+02	3.400080e-01	1.984052e+01	0.000000e+00	
1.000000e+00	-5.537975e-01	1.343559e+00	5.130551e+01	-1.498766e+02	2.978313e+05	1.153969e+05	2.992043e+02	3.400214e-01	1.983983e+01	0.000000e+00	
1.051282e+00	-5.537975e-01	1.343563e+00	5.130481e+01	-1.498708e+02	2.978318e+05	1.153974e+05	2.992046e+02	3.400080e-01	1.984051e+01	0.000000e+00	
1.000000e+00	-5.854430e-01	1.343559e+00	5.130549e+01	-1.498766e+02	2.978313e+05	1.153969e+05	2.992042e+02	3.400215e-01	1.983982e+01	0.000000e+00	
1.051282e+00	-5.854430e-01	1.343563e+00	5.130478e+01	-1.498708e+02	2.978318e+05	1.153974e+05	2.992046e+02	3.400080e-01	1.984051e+01	0.000000e+00	
1.000000e+00	-6.170886e-01	1.343559e+00	5.130546e+01	-1.498766e+02	2.978313e+05	1.153969e+05	2.992042e+02	3.400215e-01	1.983981e+01	0.000000e+00	
1.051282e+00	-6.170886e-01	1.343563e+00	5.130476e+01	-1.498709e+02	2.978318e+05	1.153974e+05	2.992046e+02	3.400081e-01	1.984050e+01	0.000000e+00	
1.000000e+00	-6.487342e-01	1.343559e+00	5.130543e+01	-1.498766e+02	2.978313e+05	1.153969e+05	2.992042e+02	3.400215e-01	1.983980e+01	0.000000e+00	
1.051282e+00	-6.487342e-01	1.343563e+00	5.130473e+01	-1.498709e+02	2.978318e+05	1.153974e+05	2.992046e+02	3.400081e-01	1.984049e+01	0.000000e+00	
1.000000e+00	-6.803797e-01	1.343559e+00	5.130540e+01	-1.498766e+02	2.978313e+05	1.153969e+05	2.992042e+02	3.400215e-01	1.983979e+01	0.000000e+00	
1.051282e+00	-6.803797e-01	1.343563e+00	5.130470e+01	-1.498709e+02	2.978318e+05	1.153974e+05	2.992046e+02	3.400081e-01	1.984048e+01	0.000000e+00	
1.000000e+00	-7.120253e-01	1.343559e+00	5.130537e+01	-1.498766e+02	2.978313e+05	1.153969e+05	2.992042e+02	3.400215e-01	1.983979e+01	0.000000e+00	
1.051282e+00	-7.120253e-01	1.343563e+00	5.130467e+01	-1.498709e+02	2.978318e+05	1.153974e+05	2.992046e+02	3.400081e-01	1.984048e+01	0.000000e+00	
1.000000e+00	-7.436709e-01	1.343559e+00	5.130533e+01	-1.498767e+02	2.978312e+05	1.153969e+05	2.992042e+02	3.400215e-01	1.983978e+01	0.000000e+00	
1.051282e+00	-7.436709e-01	1.343563e+00	5.130464e+01	-1.498709e+02	2.978318e+05	1.153973e+05	2.992046e+02	3.400081e-01	1.984047e+01	0.000000e+00	
1.000000e+00	-7.753165e-01	1.343559e+00	5.130530e+01	-1.498767e+02	2.978312e+05	1.153969e+05	2.992042e+02	3.400215e-01	1.983977e+01	0.000000e+00	
1.051282e+00	-7.753165e-01	1.343563e+00	5.130461e+01	-1.498709e+02	2.978318e+05	1.153973e+05	2.992046e+02	3.400081e-01	1.984046e+01	0.000000e+00	
1.000000e+00	-8.069620e-01	1.343559e+00	5.130526e+01	-1.498767e+02	2.978312e+05	1.153968e+05	2.992042e+02	3.400215e-01	1.983976e+01	0.000000e+00	
1.051282e+00	-8.069620e-01	1.343563e+00	5.130457e+01	-1.498709e+02	2.978318e+05	1.153973e+05	2.992046e+02	3.400081e-01	1.984046e+01	0.000000e+00	
1.000000e+00	-8.386076e-01	1.343559e+00	5.130522e+01	-1.498767e+02	2.978312e+05	1.153968e+05	2.992042e+02	3.400215e-01	1.983976e+01	0.000000e+00	
1.051282e+00	-8.386076e-01	1.343563e+00	5.130454e+01	-1.498709e+02	2.978317e+05	1.153973e+05	2.992046e+02	3.400081e-01	1.984045e+01	0.000000e+00	
1.000000e+00	-8.702532e-01	1.343559e+00	5.130518e+01	-1.498767e+02	2.978312e+05	1.153968e+05	2.992042e+02	3.400215e-01	1.983975e+01	0.000000e+00	
1.051282e+00	-8.702532e-01	1.343563e+00	5.130450e+01	-1.498709e+02	2.978317e+05	1.153973e+05	2.992046e+02	3.400080e-01	1.984045e+01	0.000000e+00	
1.000000e+00	-9.018987e-01	1.343559e+00	5.130514e+01	-1.498767e+02	2.978312e+05	1.153968e+05	2.992042e+02	3.400215e-01	1.983975e+01	0.000000e+00	
1.051282e+00	-9.018987e-01	1.343563e+00	5.130447e+01	-1.498709e+02	2.978317e+05	1.153973e+05	2.992046e+02	3.400080e-01	1.984045e+01	0.000000e+00	
1.000000e+00	-9.335443e-01	1.343559e+00	5.130511e+01	-1.498767e+02	2.978312e+05	1.153968e+05	2.992042e+02	3.400214e-01	1.983975e+01	0.000000e+00	
1.051282e+00	-9.335443e-01	1.343563e+00	5.130443e+01	-1.498709e+02	2.978317e+05	1.153973e+05	2.992046e+02	3.400080e-01	1.984044e+01	0.000000e+00	
1.000000e+00	-9.651899e-01	1.343558e+00	5.130507e+01	-1.498766e+02	2.978312e+05	1.153968e+05	2.992042e+02	3.400214e-01	1.983975e+01	0.000000e+00	
1.051282e+00	-9.651899e-01	1.343563e+00	5.130440e+01	-1.498709e+02	2.978317e+05	1.153973e+05	2.992046e+02	3.400079e-01	1.984044e+01	0.000000e+00	
1.000000e+00	-9.968354e-01	1.343558e+00	5.130503e+01	-1.498766e+02	2.978312e+05	1.153968e+05	2.992042e+02	3.400213e-01	1.983975e+01	0.000000e+00	
1.051282e+00	-9.968354e-01	1.343563e+00	5.130437e+01	-1.498708e+02	2.978317e+05	1.153973e+05	2.992046e+02	3.400079e-01	1.984044e+01	0.000000e+00	
1.000000e+00	-1.028481e+00	1.343558e+00	5.130500e+01	-1.498766e+02	2.978312e+05	1.153968e+05	2.992042e+02	3.400213e-01	1.983975e+01	0.000000e+00	
1.051282e+00	-1.028481e+00	1.343563e+00	5.130435e+01	-1.498708e+02	2.978317e+05	1.153973e+05	2.992046e+02	3.400078e-01	1.984044e+01	0.000000e+00	
1.000000e+00	-1.060127e+00	1.343558e+00	5.130498e+01	-1.498766e+02	2.978312e+05	1.153968e+05	2.992042e+02	3.400212e-01	1.983975e+01	0.000000e+00	
1.051282e+00	-1.060127e+00	1.343562e+00	5.130433e+01	-1.498708e+02	2.978317e+05	1.153973e+05	2.992046e+02	3.400077e-01	1.984044e+01	0.000000e+00	
1.000000e+00	-1.091772e+00	1.343558e+00	5.130495e+01	-1.498766e+02	2.978312e+05	1.153968e+05	2.992043e+02	3.400212e-01	1.983975e+01	0.000000e+00	
1.051282e+00	-1.091772e+00	1.343562e+00	5.130431e+01	-1.498708e+02	2.978317e+05	1.153973e+05	2.992046e+02	3.400077e-01	1.984045e+01	0.000000e+00	
1.000000e+00	-1.123418e+00	1.343558e+00	5.130495e+01	-1.498765e+02	2.978312e+05	1.153968e+05	2.992043e+02	3.400211e-01	1.983975e+01	0.000000e+00	
1.051282e+00	-1.123418e+00	1.343562e+00	5.130430e+01	-1.498707e+02	2.978317e+05	1.153973e+05	2.992046e+02	3.400076e-01	1.984044e+01	0.000000e+00	
1.000000e+00	-1.155063e+00	1.343558e+00	5.130495e+01	-1.498765e+02	2.978312e+05	1.153968e+05	2.992043e+02	3.400211e-01	1.983977e+01	0.000000e+00	
1.051282e+00	-1.155063e+00	1.343562e+00	5.130433e+01	-1.498707e+02	2.978317e+05	1.153973e+05	2.992046e+02	3.400076e-01	1.984046e+01	0.000000e+00	
1.000000e+00	-1.186709e+00	1.343558e+00	5.130488e+01	-1.498764e+02	2.978312e+05	1.153968e+05	2.992044e+02	3.400208e-01	1.983975e+01	0.000000e+00	
1.051282e+00	-1.186709e+00	1.343562e+00	5.130427e+01	-1.498706e+02	2.978317e+05	1.153973e+05	2.992046e+02	3.400073e-01	1.984043e+01	0.000000e+00	
1.000000e+00	-1.218354e+00	1.343558e+00	5.130483e+01	-1.498765e+02	2.978313e+05	1.153969e+05	2.992044e+02	3.400209e-01	1.983981e+01	0.000000e+00	
1.051282e+00	-1.218354e+00	1.343563e+00	5.130411e+01	-1.498707e+02	2.978318e+05	1.153974e+05	2.992047e+02	3.400074e-01	1.984049e+01	0.000000e+00	
1.102564e+00	1.218354e+00	1.343566e+00	5.130464e+01	-1.498659e+02	2.978322e+05	1.153978e+05	2.992050e+02	3.399970e-01	1.984104e+01	0.000000e+00	
1.102564e+00	1.250000e+00	1.343565e+00	5.130461e+01	-1.498660e+02	2.978322e+05	1.153977e+05	2.992050e+02	3.399973e-01	1.984102e+01	0.000000e+00	
1.102564e+00	1.186709e+00	1.343566e+00	5.130461e+01	-1.498658e+02	2.978322e+05	1.153978e+05	2.992050e+02	3.399969e-01	1.984105e+01	0.000000e+00	
1.102564e+00	1.155063e+00	1.343566e+00	5.130457e+01	-1.498658e+02	2.978322e+05	1.153978e+05	2.992050e+02	3.399967e-01	1.984107e+01	0.000000e+00	
1.102564e+00	1.123418e+00	1.343566e+00	5.130453e+01	-1.498657e+02	2.978323e+05	1.153978e+05	2.992051e+02	3.399965e-01	1.984108e+01	0.000000e+00	
1.102564e+00	1.091772e+00	1.343566e+00	5.130449e+01	-1.498656e+02	2.978323e+05	1.153978e+05	2.992051e+02	3.399963e-01	1.984109e+01	0.000000e+00	
1.102564e+00	1.060127e+00	1.343566e+00	5.130445e+01	-1.498656e+02	2.978323e+05	1.153978e+05	2.992051e+02	3.399961e-01	1.984111e+01	0.000000e+00	
1.102564e+00	1.028481e+00	1.343565e+00	5.130441e+01	-1.498655e+02	2.978323e+05	1.153978e+05	2.992052e+02	3.399959e-01	1.984112e+01	0.000000e+00	
1.102564e+00	9.968354e-01	1.343565e+00	5.130438e+01	-1.498654e+02	2.978323e+05	1.153978e+05	2.992052e+02	3.399958e-01	1.984113e+01	0.000000e+00	
1.102564e+00	9.651899e-01	1.343565e+00	5.130435e+01	-1.498653e+02	2.978323e+05	1.153978e+05	2.992052e+02	3.399956e-01	1.984114e+01	0.000000e+00	
1.102564e+00	9.335443e-01	1.343565e+00	5.130433e+01	-1.498653e+02	2.978323e+05	1.153978e+05	2.992052e+02	3.399954e-01	1.984115e+01	0.000000e+00	
1.102564e+00	9.018987e-01	1.343565e+00	5.130431e+01	-1.498652e+02	2.978323e+05	1.153978e+05	2.992053e+02	3.399953e-01	1.984116e+01	0.000000e+00	
1.102564e+00	8.702532e-01	1.343565e+00	5.130429e+01	-1.498652e+02	2.978323e+05	1.153978e+05	2.992053e+02	3.399952e-01	1.984117e+01	0.000000e+00	
1.102564e+00	8.386076e-01	1.343565e+00	5.130427e+01	-1.498651e+02	2.978324e+05	1.153979e+05	2.992053e+02	3.399951e-01	1.984118e+01	0.000000e+00	
1.102564e+00	8.069620e-01	1.343565e+00	5.130426e+01	-1.498651e+02	2.978324e+05	1.153979e+05	2.992053e+02	3.399950e-01	1.984119e+01	0.000000e+00	
1.102564e+00	7.753165e-01	1.343565e+00	5.130425e+01	-1.498651e+02	2.978324e+05	1.153979e+05	2.992053e+02	3.399950e-01	1.984119e+01	0.000000e+00	
1.102564e+00	7.436709e-01	1.343565e+00	5.130425e+01	-1.498651e+02	2.978324e+05	1.153979e+05	2.992054e+02	3.399950e-01	1.984120e+01	0.000000e+00	
1.102564e+00	7.120253e-01	1.343565e+00	5.130425e+01	-1.498651e+02	2.978324e+05	1.153979e+05	2.992054e+02	3.399950e-01	1.984120e+01	0.000000e+00	
1.102564e+00	6.803797e-01	1.343565e+00	5.130425e+01	-1.498651e+02	2.978324e+05	1.153979e+05	2.992054e+02	3.399950e-01	1.984121e+01	0.000000e+00	
1.102564e+00	6.487342e-01	1.343565e+00	5.130426e+01	-1.498651e+02	2.978324e+05	1.153979e+05	2.992054e+02	3.399950e-01	1.984121e+01	0.000000e+00	
1.102564e+00	6.170886e-01	1.343565e+00	5.130426e+01	-1.498651e+02	2.978324e+05	1.153979e+05	2.992054e+02	3.399950e-01	1.984122e+01	0.000000e+00	
1.102564e+00	5.854430e-01	1.343565e+00	5.130427e+01	-1.498652e+02	2.978324e+05	1.153979e+05	2.992054e+02	3.399951e-01	1.984122e+01	0.000000e+00	
1.102564e+00	5.537975e-01	1.343565e+00	5.130428e+01	-1.498652e+02	2.978324e+05	1.153979e+05	2.992054e+02	3.399952e-01	1.984122e+01	0.000000e+00	
1.102564e+00	5.221519e-01	1.343566e+00	5.130429e+01	-1.498652e+02	2.978325e+05	1.153979e+05	2.992054e+02	3.399953e-01	1.984123e+01	0.000000e+00	
1.102564e+00	4.905063e-01	1.343566e+00	5.130430e+01	-1.498653e+02	2.978325e+05	1.153979e+05	2.992053e+02	3.399953e-01	1.984123e+01	0.000000e+00	
1.102564e+00	4.588608e-01	1.343566e+00	5.130432e+01	-1.498653e+02	2.978325e+05	1.153979e+05	2.992053e+02	3.399954e-01	1.984123e+01	0.000000e+00	
1.102564e+00	4.272152e-01	1.343566e+00	5.130433e+01	-1.498654e+02	2.978325e+05	1.153979e+05	2.992053e+02	3.399955e-01	1.984123e+01	0.000000e+00	
1.102564e+00	3.955696e-01	1.343566e+00	5.130434e+01	-1.498654e+02	2.978325e+05	1.153979e+05	2.992053e+02	3.399956e-01	1.984123e+01	0.000000e+00	
1.102564e+00	3.639241e-01	1.343566e+00	5.130436e+01	-1.498655e+02	2.978325e+05	1.153979e+05	2.992053e+02	3.399957e-01	1.984124e+01	0.000000e+00	
1.102564e+00	3.322785e-01	1.343566e+00	5.130437e+01	-1.498655e+02	2.978325e+05	1.153979e+05	2.992052e+02	3.399958e-01	1.984124e+01	0.000000e+00	
1.102564e+00	3.006329e-01	1.343566e+00	5.130438e+01	-1.498656e+02	2.978325e+05	1.153979e+05	2.992052e+02	3.399959e-01	1.984124e+01	0.000000e+00	
1.102564e+00	2.689873e-01	1.343566e+00	5.130439e+01	-1.498656e+02	2.978325e+05	1.153979e+05	2.992052e+02	3.399960e-01	1.984124e+01	0.000000e+00	
1.102564e+00	2.373418e-01	1.343566e+00	5.130440e+01	-1.498657e+02	2.978325e+05	1.153979e+05	2.992052e+02	3.399961e-01	1.984124e+01	0.000000e+00	
1.102564e+00	2.056962e-01	1.343567e+00	5.130441e+01	-1.498657e+02	2.978325e+05	1.153979e+05	2.992051e+02	3.399962e-01	1.984124e+01	0.000000e+00	
1.102564e+00	1.740506e-01	1.343567e+00	5.130442e+01	-1.498658e+02	2.978325e+05	1.153979e+05	2.992051e+02	3.399963e-01	1.984123e+01	0.000000e+00	
1.102564e+00	1.424051e-01	1.343567e+00	5.130443e+01	-1.498658e+02	2.978325e+05	1.153979e+05	2.992051e+02	3.399963e-01	1.984123e+01	0.000000e+00	
1.102564e+00	1.107595e-01	1.343567e+00	5.130443e+01	-1.498658e+02	2.978325e+05	1.153979e+05	2.992051e+02	3.399964e-01	1.984123e+01	0.000000e+00	
1.102564e+00	7.911392e-02	1.343567e+00	5.130444e+01	-1.498659e+02	2.978325e+05	1.153979e+05	2.992050e+02	3.399965e-01	1.984123e+01	0.000000e+00	
1.102564e+00	4.746835e-02	1.343567e+00	5.130444e+01	-1.498659e+02	2.978325e+05	1.153979e+05	2.992050e+02	3.399965e-01	1.984123e+01	0.000000e+00	
1.102564e+00	1.582278e-02	1.343567e+00	5.130445e+01	-1.498659e+02	2.978325e+05	1.153979e+05	2.992050e+02	3.399966e-01	1.984122e+01	0.000000e+00	
1.102564e+00	-1.582278e-02	1.343567e+00	5.130445e+01	-1.498660e+02	2.978325e+05	1.153979e+05	2.992050e+02	3.399967e-01	1.984122e+01	0.000000e+00	
1.102564e+00	-4.746835e-02	1.343567e+00	5.130445e+01	-1.498660e+02	2.978325e+05	1.153979e+05	2.992050e+02	3.399967e-01	1.984122e+01	0.000000e+00	
1.102564e+00	-7.911392e-02	1.343567e+00	5.130445e+01	-1.498660e+02	2.978325e+05	1.153979e+05	2.992050e+02	3.399968e-01	1.984121e+01	0.000000e+00	
1.102564e+00	-1.107595e-01	1.343567e+00	5.130445e+01	-1.498660e+02	2.978325e+05	1.153979e+05	2.992050e+02	3.399968e-01	1.984121e+01	0.000000e+00	
1.102564e+00	-1.424051e-01	1.343567e+00	5.130445e+01	-1.498661e+02	2.978325e+05	1.153979e+05	2.992050e+02	3.399969e-01	1.984120e+01	0.000000e+00	
1.102564e+00	-1.740506e-01	1.343567e+00	5.130445e+01	-1.498661e+02	2.978325e+05	1.153979e+05	2.992050e+02	3.399969e-01	1.984120e+01	0.000000e+00	