TITLE = "SU2 Simulation"
VARIABLES = "Iteration","CL","CD","CSF","CMx","CMy","CMz","CFx","CFy","CFz","CL/CD","AoA","Custom_ObjFunc","Res_Flow[0]","Res_Flow[1]","Res_Flow[2]","Res_Flow[3]","Res_Flow[4]","Linear_Solver_Iterations","CFL_Number","Time(min)"
ZONE T= "Convergence history"
           0, 0.00000000e+00, 0.00000000e+00, 0.00000000e+00, 0.00000000e+00, 0.00000000e+00, 0.00000000e+00, 0.00000000e+00, 0.00000000e+00, 0.00000000e+00, 0.00000000e+00, 0.00000000e+00, 0.00000000e+00, -7.10464726e-01, 1.80273605e+00, -1.26119551e+01, 4.75093713e+00, 0.00000000e+00, 5.0000000000, 5.0000000000, 0.0012725500
           1, 0.00000000e+00, 0.00000000e+00, 0.00000000e+00, 0.00000000e+00, 0.00000000e+00, 0.00000000e+00, 0.00000000e+00, 0.00000000e+00, 0.00000000e+00, 0.00000000e+00, 0.00000000e+00, 0.00000000e+00, -8.94449343e-01, 1.61526599e+00, -5.07109438e-01, 4.57059932e+00, 0.00000000e+00, 5.0000000000, 5.0000000000, 0.0026051333
           2, 0.00000000e+00, 0.00000000e+00, 0.00000000e+00, 0.00000000e+00, 0.00000000e+00, 0.00000000e+00, 0.00000000e+00, 0.00000000e+00, 0.00000000e+00, 0.00000000e+00, 0.00000000e+00, 0.00000000e+00, -9.23493215e-01, 1.61533570e+00, 6.61854631e-02, 4.54792075e+00, 0.00000000e+00, 5.0000000000, 5.0000000000, 0.0039402500
           3, 0.00000000e+00, 0.00000000e+00, 0.00000000e+00, 0.00000000e+00, 0.00000000e+00, 0.00000000e+00, 0.00000000e+00, 0.00000000e+00, 0.00000000e+00, 0.00000000e+00, 0.00000000e+00, 0.00000000e+00, -8.79693431e-01, 1.67896502e+00, 4.49535623e-01, 4.59912158e+00, 0.00000000e+00, 5.0000000000, 5.0000000000, 0.0051961500
           4, 0.00000000e+00, 0.00000000e+00, 0.00000000e+00, 0.00000000e+00, 0.00000000e+00, 0.00000000e+00, 0.00000000e+00, 0.00000000e+00, 0.00000000e+00, 0.00000000e+00, 0.00000000e+00, 0.00000000e+00, -8.72447901e-01, 1.69282209e+00, 6.70700333e-01, 4.61119176e+00, 0.00000000e+00, 5.0000000000, 5.0000000000, 0.0064407333
           5, 0.00000000e+00, 0.00000000e+00, 0.00000000e+00, 0.00000000e+00, 0.00000000e+00, 0.00000000e+00, 0.00000000e+00, 0.00000000e+00, 0.00000000e+00, 0.00000000e+00, 0.00000000e+00, 0.00000000e+00, -8.88264907e-01, 1.68056731e+00, 8.08983241e-01, 4.59809137e+00, 0.00000000e+00, 5.0000000000, 5.0000000000, 0.0077885167
           6, 0.00000000e+00, 0.00000000e+00, 0.00000000e+00, 0.00000000e+00, 0.00000000e+00, 0.00000000e+00, 0.00000000e+00, 0.00000000e+00, 0.00000000e+00, 0.00000000e+00, 0.00000000e+00, 0.00000000e+00, -9.08931741e-01, 1.66253223e+00, 8.99479575e-01, 4.57876358e+00, 0.00000000e+00, 5.0000000000, 5.0000000000, 0.0090533333
           7, 0.00000000e+00, 0.00000000e+00, 0.00000000e+00, 0.00000000e+00, 0.00000000e+00, 0.00000000e+00, 0.00000000e+00, 0.00000000e+00, 0.00000000e+00, 0.00000000e+00, 0.00000000e+00, 0.00000000e+00, -9.26495251e-01, 1.64654164e+00, 9.60526201e-01, 4.56185753e+00, 0.00000000e+00, 5.0000000000, 5.0000000000, 0.0102766500
           8, 0.00000000e+00, 0.00000000e+00, 0.00000000e+00, 0.00000000e+00, 0.00000000e+00, 0.00000000e+00, 0.00000000e+00, 0.00000000e+00, 0.00000000e+00, 0.00000000e+00, 0.00000000e+00, 0.00000000e+00, -9.40207695e-01, 1.63344171e+00, 1.00250682e+00, 4.54853374e+00, 0.00000000e+00, 5.0000000000, 5.0000000000, 0.0115761667
           9, 0.00000000e+00, 0.00000000e+00, 0.00000000e+00, 0.00000000e+00, 0.00000000e+00, 0.00000000e+00, 0.00000000e+00, 0.00000000e+00, 0.00000000e+00, 0.00000000e+00, 0.00000000e+00, 0.00000000e+00, -9.51417867e-01, 1.62242840e+00, 1.03206563e+00, 4.53760295e+00, 0.00000000e+00, 5.0000000000, 5.0000000000, 0.0128794000
          10, 0.00000000e+00, 0.00000000e+00, 0.00000000e+00, 0.00000000e+00, 0.00000000e+00, 0.00000000e+00, 0.00000000e+00, 0.00000000e+00, 0.00000000e+00, 0.00000000e+00, 0.00000000e+00, 0.00000000e+00, -9.61141698e-01, 1.61289213e+00, 1.05320897e+00, 4.52810427e+00, 0.00000000e+00, 5.0000000000, 5.0000000000, 0.0141020333
          11, 0.00000000e+00, 0.00000000e+00, 0.00000000e+00, 0.00000000e+00, 0.00000000e+00, 0.00000000e+00, 0.00000000e+00, 0.00000000e+00, 0.00000000e+00, 0.00000000e+00, 0.00000000e+00, 0.00000000e+00, -9.69832766e-01, 1.60441980e+00, 1.06843468e+00, 4.51960150e+00, 0.00000000e+00, 5.0000000000, 5.0000000000, 0.0153308333
          12, 0.00000000e+00, 0.00000000e+00, 0.00000000e+00, 0.00000000e+00, 0.00000000e+00, 0.00000000e+00, 0.00000000e+00, 0.00000000e+00, 0.00000000e+00, 0.00000000e+00, 0.00000000e+00, 0.00000000e+00, -9.77655928e-01, 1.59666271e+00, 1.07938380e+00, 4.51192544e+00, 0.00000000e+00, 5.0000000000, 5.0000000000, 0.0166705500
          13, 0.00000000e+00, 0.00000000e+00, 0.00000000e+00, 0.00000000e+00, 0.00000000e+00, 0.00000000e+00, 0.00000000e+00, 0.00000000e+00, 0.00000000e+00, 0.00000000e+00, 0.00000000e+00, 0.00000000e+00, -9.84609328e-01, 1.58928996e+00, 1.08720050e+00, 4.50505951e+00, 0.00000000e+00, 5.0000000000, 5.0000000000, 0.0179092000
          14, 0.00000000e+00, 0.00000000e+00, 0.00000000e+00, 0.00000000e+00, 0.00000000e+00, 0.00000000e+00, 0.00000000e+00, 0.00000000e+00, 0.00000000e+00, 0.00000000e+00, 0.00000000e+00, 0.00000000e+00, -9.90479056e-01, 1.58190942e+00, 1.09270637e+00, 4.49918404e+00, 0.00000000e+00, 5.0000000000, 5.0000000000, 0.0191120167
          15, 0.00000000e+00, 0.00000000e+00, 0.00000000e+00, 0.00000000e+00, 0.00000000e+00, 0.00000000e+00, 0.00000000e+00, 0.00000000e+00, 0.00000000e+00, 0.00000000e+00, 0.00000000e+00, 0.00000000e+00, -9.94738163e-01, 1.57392824e+00, 1.09649402e+00, 4.49477077e+00, 0.00000000e+00, 5.0000000000, 5.0000000000, 0.0209069333
          16, 0.00000000e+00, 0.00000000e+00, 0.00000000e+00, 0.00000000e+00, 0.00000000e+00, 0.00000000e+00, 0.00000000e+00, 0.00000000e+00, 0.00000000e+00, 0.00000000e+00, 0.00000000e+00, 0.00000000e+00, -9.96483593e-01, 1.56440382e+00, 1.09898118e+00, 4.49264794e+00, 0.00000000e+00, 5.0000000000, 5.0000000000, 0.0223704500
          17, 0.00000000e+00, 0.00000000e+00, 0.00000000e+00, 0.00000000e+00, 0.00000000e+00, 0.00000000e+00, 0.00000000e+00, 0.00000000e+00, 0.00000000e+00, 0.00000000e+00, 0.00000000e+00, 0.00000000e+00, -9.94529892e-01, 1.55192991e+00, 1.10045069e+00, 4.49393394e+00, 0.00000000e+00, 5.0000000000, 5.0000000000, 0.0237186500
          18, 0.00000000e+00, 0.00000000e+00, 0.00000000e+00, 0.00000000e+00, 0.00000000e+00, 0.00000000e+00, 0.00000000e+00, 0.00000000e+00, 0.00000000e+00, 0.00000000e+00, 0.00000000e+00, 0.00000000e+00, -9.87775658e-01, 1.53458518e+00, 1.10108387e+00, 4.49972825e+00, 0.00000000e+00, 5.0000000000, 5.0000000000, 0.0251390667
          19, 0.00000000e+00, 0.00000000e+00, 0.00000000e+00, 0.00000000e+00, 0.00000000e+00, 0.00000000e+00, 0.00000000e+00, 0.00000000e+00, 0.00000000e+00, 0.00000000e+00, 0.00000000e+00, 0.00000000e+00, -9.75811102e-01, 1.50995074e+00, 1.10098762e+00, 4.51056013e+00, 0.00000000e+00, 5.0000000000, 5.0000000000, 0.0263797833
          20, 0.00000000e+00, 0.00000000e+00, 0.00000000e+00, 0.00000000e+00, 0.00000000e+00, 0.00000000e+00, 0.00000000e+00, 0.00000000e+00, 0.00000000e+00, 0.00000000e+00, 0.00000000e+00, 0.00000000e+00, -9.59453257e-01, 1.47519541e+00, 1.10021806e+00, 4.52584717e+00, 0.00000000e+00, 5.0000000000, 5.0000000000, 0.0276325833
          21, 0.00000000e+00, 0.00000000e+00, 0.00000000e+00, 0.00000000e+00, 0.00000000e+00, 0.00000000e+00, 0.00000000e+00, 0.00000000e+00, 0.00000000e+00, 0.00000000e+00, 0.00000000e+00, 0.00000000e+00, -9.40794289e-01, 1.42728019e+00, 1.09879769e+00, 4.54375584e+00, 0.00000000e+00, 5.0000000000, 5.0000000000, 0.0289012333
          22, 0.00000000e+00, 0.00000000e+00, 0.00000000e+00, 0.00000000e+00, 0.00000000e+00, 0.00000000e+00, 0.00000000e+00, 0.00000000e+00, 0.00000000e+00, 0.00000000e+00, 0.00000000e+00, 0.00000000e+00, -9.22676951e-01, 1.36359454e+00, 1.09673026e+00, 4.56161560e+00, 0.00000000e+00, 5.0000000000, 5.0000000000, 0.0298867500
          23, 0.00000000e+00, 0.00000000e+00, 0.00000000e+00, 0.00000000e+00, 0.00000000e+00, 0.00000000e+00, 0.00000000e+00, 0.00000000e+00, 0.00000000e+00, 0.00000000e+00, 0.00000000e+00, 0.00000000e+00, -9.07946106e-01, 1.28424996e+00, 1.09401488e+00, 4.57661819e+00, 0.00000000e+00, 5.0000000000, 5.0000000000, 0.0308757500
          24, 0.00000000e+00, 0.00000000e+00, 0.00000000e+00, 0.00000000e+00, 0.00000000e+00, 0.00000000e+00, 0.00000000e+00, 0.00000000e+00, 0.00000000e+00, 0.00000000e+00, 0.00000000e+00, 0.00000000e+00, -8.98867779e-01, 1.19964939e+00, 1.09065756e+00, 4.58641958e+00, 0.00000000e+00, 5.0000000000, 5.0000000000, 0.0318645167
          25, 0.00000000e+00, 0.00000000e+00, 0.00000000e+00, 0.00000000e+00, 0.00000000e+00, 0.00000000e+00, 0.00000000e+00, 0.00000000e+00, 0.00000000e+00, 0.00000000e+00, 0.00000000e+00, 0.00000000e+00, -8.96844766e-01, 1.14452154e+00, 1.08667876e+00, 4.58947353e+00, 0.00000000e+00, 5.0000000000, 5.0000000000, 0.0330087333
          26, 0.00000000e+00, 0.00000000e+00, 0.00000000e+00, 0.00000000e+00, 0.00000000e+00, 0.00000000e+00, 0.00000000e+00, 0.00000000e+00, 0.00000000e+00, 0.00000000e+00, 0.00000000e+00, 0.00000000e+00, -9.02349511e-01, 1.15992568e+00, 1.08211406e+00, 4.58514152e+00, 0.00000000e+00, 5.0000000000, 5.0000000000, 0.0340089333
          27, 0.00000000e+00, 0.00000000e+00, 0.00000000e+00, 0.00000000e+00, 0.00000000e+00, 0.00000000e+00, 0.00000000e+00, 0.00000000e+00, 0.00000000e+00, 0.00000000e+00, 0.00000000e+00, 0.00000000e+00, -9.14960051e-01, 1.22870389e+00, 1.07701020e+00, 4.57368475e+00, 0.00000000e+00, 5.0000000000, 5.0000000000, 0.0350879833
          28, 0.00000000e+00, 0.00000000e+00, 0.00000000e+00, 0.00000000e+00, 0.00000000e+00, 0.00000000e+00, 0.00000000e+00, 0.00000000e+00, 0.00000000e+00, 0.00000000e+00, 0.00000000e+00, 0.00000000e+00, -9.33445239e-01, 1.30614068e+00, 1.07142034e+00, 4.55619842e+00, 0.00000000e+00, 5.0000000000, 5.0000000000, 0.0361792667
          29, 0.00000000e+00, 0.00000000e+00, 0.00000000e+00, 0.00000000e+00, 0.00000000e+00, 0.00000000e+00, 0.00000000e+00, 0.00000000e+00, 0.00000000e+00, 0.00000000e+00, 0.00000000e+00, 0.00000000e+00, -9.55936688e-01, 1.37169474e+00, 1.06539942e+00, 4.53445738e+00, 0.00000000e+00, 5.0000000000, 5.0000000000, 0.0375108333
          30, 0.00000000e+00, 0.00000000e+00, 0.00000000e+00, 0.00000000e+00, 0.00000000e+00, 0.00000000e+00, 0.00000000e+00, 0.00000000e+00, 0.00000000e+00, 0.00000000e+00, 0.00000000e+00, 0.00000000e+00, -9.80244325e-01, 1.42198830e+00, 1.05900599e+00, 4.51061711e+00, 0.00000000e+00, 5.0000000000, 5.0000000000, 0.0387530833
          31, 0.00000000e+00, 0.00000000e+00, 0.00000000e+00, 0.00000000e+00, 0.00000000e+00, 0.00000000e+00, 0.00000000e+00, 0.00000000e+00, 0.00000000e+00, 0.00000000e+00, 0.00000000e+00, 0.00000000e+00, -1.00432676e+00, 1.45903613e+00, 1.05230098e+00, 4.48675236e+00, 0.00000000e+00, 5.0000000000, 5.0000000000, 0.0399698833
          32, 0.00000000e+00, 0.00000000e+00, 0.00000000e+00, 0.00000000e+00, 0.00000000e+00, 0.00000000e+00, 0.00000000e+00, 0.00000000e+00, 0.00000000e+00, 0.00000000e+00, 0.00000000e+00, 0.00000000e+00, -1.02679933e+00, 1.48597081e+00, 1.04535859e+00, 4.46433632e+00, 0.00000000e+00, 5.0000000000, 5.0000000000, 0.0412226167
          33, 0.00000000e+00, 0.00000000e+00, 0.00000000e+00, 0.00000000e+00, 0.00000000e+00, 0.00000000e+00, 0.00000000e+00, 0.00000000e+00, 0.00000000e+00, 0.00000000e+00, 0.00000000e+00, 0.00000000e+00, -1.04723867e+00, 1.50581141e+00, 1.03826599e+00, 4.44390101e+00, 0.00000000e+00, 5.0000000000, 5.0000000000, 0.0425153167
          34, 0.00000000e+00, 0.00000000e+00, 0.00000000e+00, 0.00000000e+00, 0.00000000e+00, 0.00000000e+00, 0.00000000e+00, 0.00000000e+00, 0.00000000e+00, 0.00000000e+00, 0.00000000e+00, 0.00000000e+00, -1.06611835e+00, 1.52108456e+00, 1.03110199e+00, 4.42506418e+00, 0.00000000e+00, 5.0000000000, 5.0000000000, 0.0437716833
          35, 0.00000000e+00, 0.00000000e+00, 0.00000000e+00, 0.00000000e+00, 0.00000000e+00, 0.00000000e+00, 0.00000000e+00, 0.00000000e+00, 0.00000000e+00, 0.00000000e+00, 0.00000000e+00, 0.00000000e+00, -1.08445599e+00, 1.53369352e+00, 1.02393821e+00, 4.40686478e+00, 0.00000000e+00, 5.0000000000, 5.0000000000, 0.0450284667
          36, 0.00000000e+00, 0.00000000e+00, 0.00000000e+00, 0.00000000e+00, 0.00000000e+00, 0.00000000e+00, 0.00000000e+00, 0.00000000e+00, 0.00000000e+00, 0.00000000e+00, 0.00000000e+00, 0.00000000e+00, -1.10341634e+00, 1.54490497e+00, 1.01683063e+00, 4.38816520e+00, 0.00000000e+00, 5.0000000000, 5.0000000000, 0.0462617500
          37, 0.00000000e+00, 0.00000000e+00, 0.00000000e+00, 0.00000000e+00, 0.00000000e+00, 0.00000000e+00, 0.00000000e+00, 0.00000000e+00, 0.00000000e+00, 0.00000000e+00, 0.00000000e+00, 0.00000000e+00, -1.12405837e+00, 1.55542384e+00, 1.00979827e+00, 4.36791642e+00, 0.00000000e+00, 5.0000000000, 5.0000000000, 0.0474415833
          38, 0.00000000e+00, 0.00000000e+00, 0.00000000e+00, 0.00000000e+00, 0.00000000e+00, 0.00000000e+00, 0.00000000e+00, 0.00000000e+00, 0.00000000e+00, 0.00000000e+00, 0.00000000e+00, 0.00000000e+00, -1.14725371e+00, 1.56551692e+00, 1.00281665e+00, 4.34524354e+00, 0.00000000e+00, 5.0000000000, 5.0000000000, 0.0486062000
          39, 0.00000000e+00, 0.00000000e+00, 0.00000000e+00, 0.00000000e+00, 0.00000000e+00, 0.00000000e+00, 0.00000000e+00, 0.00000000e+00, 0.00000000e+00, 0.00000000e+00, 0.00000000e+00, 0.00000000e+00, -1.17369512e+00, 1.57513654e+00, 9.95825056e-01, 4.31942868e+00, 0.00000000e+00, 5.0000000000, 5.0000000000, 0.0500584000
          40, 0.00000000e+00, 0.00000000e+00, 0.00000000e+00, 0.00000000e+00, 0.00000000e+00, 0.00000000e+00, 0.00000000e+00, 0.00000000e+00, 0.00000000e+00, 0.00000000e+00, 0.00000000e+00, 0.00000000e+00, -1.20389244e+00, 1.58401359e+00, 9.88721462e-01, 4.28989400e+00, 0.00000000e+00, 5.0000000000, 5.0000000000, 0.0513806167
          41, 0.00000000e+00, 0.00000000e+00, 0.00000000e+00, 0.00000000e+00, 0.00000000e+00, 0.00000000e+00, 0.00000000e+00, 0.00000000e+00, 0.00000000e+00, 0.00000000e+00, 0.00000000e+00, 0.00000000e+00, -1.23806321e+00, 1.59171770e+00, 9.81370296e-01, 4.25627688e+00, 0.00000000e+00, 5.0000000000, 5.0000000000, 0.0526784833
          42, 0.00000000e+00, 0.00000000e+00, 0.00000000e+00, 0.00000000e+00, 0.00000000e+00, 0.00000000e+00, 0.00000000e+00, 0.00000000e+00, 0.00000000e+00, 0.00000000e+00, 0.00000000e+00, 0.00000000e+00, -1.27582840e+00, 1.59770091e+00, 9.73606586e-01, 4.21868725e+00, 0.00000000e+00, 5.0000000000, 5.0000000000, 0.0539619167
          43, 0.00000000e+00, 0.00000000e+00, 0.00000000e+00, 0.00000000e+00, 0.00000000e+00, 0.00000000e+00, 0.00000000e+00, 0.00000000e+00, 0.00000000e+00, 0.00000000e+00, 0.00000000e+00, 0.00000000e+00, -1.31564482e+00, 1.60134176e+00, 9.65256409e-01, 4.17822134e+00, 0.00000000e+00, 5.0000000000, 5.0000000000, 0.0552567667
          44, 0.00000000e+00, 0.00000000e+00, 0.00000000e+00, 0.00000000e+00, 0.00000000e+00, 0.00000000e+00, 0.00000000e+00, 0.00000000e+00, 0.00000000e+00, 0.00000000e+00, 0.00000000e+00, 0.00000000e+00, -1.35400143e+00, 1.60199616e+00, 9.56151332e-01, 4.13777701e+00, 0.00000000e+00, 5.0000000000, 5.0000000000, 0.0565289667
          45, 0.00000000e+00, 0.00000000e+00, 0.00000000e+00, 0.00000000e+00, 0.00000000e+00, 0.00000000e+00, 0.00000000e+00, 0.00000000e+00, 0.00000000e+00, 0.00000000e+00, 0.00000000e+00, 0.00000000e+00, -1.38490229e+00, 1.59904910e+00, 9.46136398e-01, 4.10284330e+00, 0.00000000e+00, 5.0000000000, 5.0000000000, 0.0577866500
          46, 0.00000000e+00, 0.00000000e+00, 0.00000000e+00, 0.00000000e+00, 0.00000000e+00, 0.00000000e+00, 0.00000000e+00, 0.00000000e+00, 0.00000000e+00, 0.00000000e+00, 0.00000000e+00, 0.00000000e+00, -1.40106094e+00, 1.59195766e+00, 9.35101718e-01, 4.08100240e+00, 0.00000000e+00, 5.0000000000, 5.0000000000, 0.0590803000
          47, 0.00000000e+00, 0.00000000e+00, 0.00000000e+00, 0.00000000e+00, 0.00000000e+00, 0.00000000e+00, 0.00000000e+00, 0.00000000e+00, 0.00000000e+00, 0.00000000e+00, 0.00000000e+00, 0.00000000e+00, -1.39780148e+00, 1.58027727e+00, 9.22978482e-01, 4.07850722e+00, 0.00000000e+00, 5.0000000000, 5.0000000000, 0.0603318500
          48, 0.00000000e+00, 0.00000000e+00, 0.00000000e+00, 0.00000000e+00, 0.00000000e+00, 0.00000000e+00, 0.00000000e+00, 0.00000000e+00, 0.00000000e+00, 0.00000000e+00, 0.00000000e+00, 0.00000000e+00, -1.37670350e+00, 1.56366850e+00, 9.09735163e-01, 4.09563989e+00, 0.00000000e+00, 5.0000000000, 5.0000000000, 0.0616160833
          49, 0.00000000e+00, 0.00000000e+00, 0.00000000e+00, 0.00000000e+00, 0.00000000e+00, 0.00000000e+00, 0.00000000e+00, 0.00000000e+00, 0.00000000e+00, 0.00000000e+00, 0.00000000e+00, 0.00000000e+00, -1.34435648e+00, 1.54188592e+00, 8.95390775e-01, 4.12641764e+00, 0.00000000e+00, 5.0000000000, 5.0000000000, 0.0628060500
          50, 0.00000000e+00, 0.00000000e+00, 0.00000000e+00, 0.00000000e+00, 0.00000000e+00, 0.00000000e+00, 0.00000000e+00, 0.00000000e+00, 0.00000000e+00, 0.00000000e+00, 0.00000000e+00, 0.00000000e+00, -1.30790734e+00, 1.51475531e+00, 8.79985709e-01, 4.16308553e+00, 0.00000000e+00, 5.0000000000, 5.0000000000, 0.0639964333
          51, 0.00000000e+00, 0.00000000e+00, 0.00000000e+00, 0.00000000e+00, 0.00000000e+00, 0.00000000e+00, 0.00000000e+00, 0.00000000e+00, 0.00000000e+00, 0.00000000e+00, 0.00000000e+00, 0.00000000e+00, -1.27232905e+00, 1.48214385e+00, 8.63620620e-01, 4.19980242e+00, 0.00000000e+00, 5.0000000000, 5.0000000000, 0.0651468333
          52, 0.00000000e+00, 0.00000000e+00, 0.00000000e+00, 0.00000000e+00, 0.00000000e+00, 0.00000000e+00, 0.00000000e+00, 0.00000000e+00, 0.00000000e+00, 0.00000000e+00, 0.00000000e+00, 0.00000000e+00, -1.24020988e+00, 1.44392774e+00, 8.46472187e-01, 4.23336599e+00, 0.00000000e+00, 5.0000000000, 5.0000000000, 0.0663303333
          53, 0.00000000e+00, 0.00000000e+00, 0.00000000e+00, 0.00000000e+00, 0.00000000e+00, 0.00000000e+00, 0.00000000e+00, 0.00000000e+00, 0.00000000e+00, 0.00000000e+00, 0.00000000e+00, 0.00000000e+00, -1.21251594e+00, 1.39995939e+00, 8.28805769e-01, 4.26248042e+00, 0.00000000e+00, 5.0000000000, 5.0000000000, 0.0675094667
          54, 0.00000000e+00, 0.00000000e+00, 0.00000000e+00, 0.00000000e+00, 0.00000000e+00, 0.00000000e+00, 0.00000000e+00, 0.00000000e+00, 0.00000000e+00, 0.00000000e+00, 0.00000000e+00, 0.00000000e+00, -1.18932090e+00, 1.35003656e+00, 8.10986700e-01, 4.28692316e+00, 0.00000000e+00, 5.0000000000, 5.0000000000, 0.0686326833
          55, 0.00000000e+00, 0.00000000e+00, 0.00000000e+00, 0.00000000e+00, 0.00000000e+00, 0.00000000e+00, 0.00000000e+00, 0.00000000e+00, 0.00000000e+00, 0.00000000e+00, 0.00000000e+00, 0.00000000e+00, -1.17028728e+00, 1.29387233e+00, 7.93474287e-01, 4.30697698e+00, 0.00000000e+00, 5.0000000000, 5.0000000000, 0.0697377500
          56, 0.00000000e+00, 0.00000000e+00, 0.00000000e+00, 0.00000000e+00, 0.00000000e+00, 0.00000000e+00, 0.00000000e+00, 0.00000000e+00, 0.00000000e+00, 0.00000000e+00, 0.00000000e+00, 0.00000000e+00, -1.15494284e+00, 1.23107018e+00, 7.76793768e-01, 4.32310397e+00, 0.00000000e+00, 5.0000000000, 5.0000000000, 0.0708823167
          57, 0.00000000e+00, 0.00000000e+00, 0.00000000e+00, 0.00000000e+00, 0.00000000e+00, 0.00000000e+00, 0.00000000e+00, 0.00000000e+00, 0.00000000e+00, 0.00000000e+00, 0.00000000e+00, 0.00000000e+00, -1.14282656e+00, 1.16112414e+00, 7.61498490e-01, 4.33577493e+00, 0.00000000e+00, 5.0000000000, 5.0000000000, 0.0720148667
          58, 0.00000000e+00, 0.00000000e+00, 0.00000000e+00, 0.00000000e+00, 0.00000000e+00, 0.00000000e+00, 0.00000000e+00, 0.00000000e+00, 0.00000000e+00, 0.00000000e+00, 0.00000000e+00, 0.00000000e+00, -1.13355478e+00, 1.08352359e+00, 7.48100630e-01, 4.34539150e+00, 0.00000000e+00, 5.0000000000, 5.0000000000, 0.0731386000
          59, 0.00000000e+00, 0.00000000e+00, 0.00000000e+00, 0.00000000e+00, 0.00000000e+00, 0.00000000e+00, 0.00000000e+00, 0.00000000e+00, 0.00000000e+00, 0.00000000e+00, 0.00000000e+00, 0.00000000e+00, -1.12684283e+00, 9.98185806e-01, 7.37001534e-01, 4.35225884e+00, 0.00000000e+00, 5.0000000000, 5.0000000000, 0.0742835500
          60, 0.00000000e+00, 0.00000000e+00, 0.00000000e+00, 0.00000000e+00, 0.00000000e+00, 0.00000000e+00, 0.00000000e+00, 0.00000000e+00, 0.00000000e+00, 0.00000000e+00, 0.00000000e+00, 0.00000000e+00, -1.12249956e+00, 9.06851149e-01, 7.28452671e-01, 4.35658862e+00, 0.00000000e+00, 5.0000000000, 5.0000000000, 0.0754888500
          61, 0.00000000e+00, 0.00000000e+00, 0.00000000e+00, 0.00000000e+00, 0.00000000e+00, 0.00000000e+00, 0.00000000e+00, 0.00000000e+00, 0.00000000e+00, 0.00000000e+00, 0.00000000e+00, 0.00000000e+00, -1.12040960e+00, 8.16807878e-01, 7.22504692e-01, 4.35851526e+00, 0.00000000e+00, 5.0000000000, 5.0000000000, 0.0766549333
          62, 0.00000000e+00, 0.00000000e+00, 0.00000000e+00, 0.00000000e+00, 0.00000000e+00, 0.00000000e+00, 0.00000000e+00, 0.00000000e+00, 0.00000000e+00, 0.00000000e+00, 0.00000000e+00, 0.00000000e+00, -1.12051050e+00, 7.47153363e-01, 7.19036016e-01, 4.35811826e+00, 0.00000000e+00, 5.0000000000, 5.0000000000, 0.0777968000
          63, 0.00000000e+00, 0.00000000e+00, 0.00000000e+00, 0.00000000e+00, 0.00000000e+00, 0.00000000e+00, 0.00000000e+00, 0.00000000e+00, 0.00000000e+00, 0.00000000e+00, 0.00000000e+00, 0.00000000e+00, -1.12277341e+00, 7.25390788e-01, 7.17785894e-01, 4.35544056e+00, 0.00000000e+00, 5.0000000000, 5.0000000000, 0.0789165500
          64, 0.00000000e+00, 0.00000000e+00, 0.00000000e+00, 0.00000000e+00, 0.00000000e+00, 0.00000000e+00, 0.00000000e+00, 0.00000000e+00, 0.00000000e+00, 0.00000000e+00, 0.00000000e+00, 0.00000000e+00, -1.12718600e+00, 7.57885444e-01, 7.18403965e-01, 4.35050520e+00, 0.00000000e+00, 5.0000000000, 5.0000000000, 0.0800789833
          65, 0.00000000e+00, 0.00000000e+00, 0.00000000e+00, 0.00000000e+00, 0.00000000e+00, 0.00000000e+00, 0.00000000e+00, 0.00000000e+00, 0.00000000e+00, 0.00000000e+00, 0.00000000e+00, 0.00000000e+00, -1.13374071e+00, 8.20400895e-01, 7.20501435e-01, 4.34332621e+00, 0.00000000e+00, 5.0000000000, 5.0000000000, 0.0812890167
          66, 0.00000000e+00, 0.00000000e+00, 0.00000000e+00, 0.00000000e+00, 0.00000000e+00, 0.00000000e+00, 0.00000000e+00, 0.00000000e+00, 0.00000000e+00, 0.00000000e+00, 0.00000000e+00, 0.00000000e+00, -1.14242554e+00, 8.89046993e-01, 7.23693060e-01, 4.33391731e+00, 0.00000000e+00, 5.0000000000, 5.0000000000, 0.0825740333
          67, 0.00000000e+00, 0.00000000e+00, 0.00000000e+00, 0.00000000e+00, 0.00000000e+00, 0.00000000e+00, 0.00000000e+00, 0.00000000e+00, 0.00000000e+00, 0.00000000e+00, 0.00000000e+00, 0.00000000e+00, -1.15321681e+00, 9.53035004e-01, 7.27632853e-01, 4.32229863e+00, 0.00000000e+00, 5.0000000000, 5.0000000000, 0.0839190167
          68, 0.00000000e+00, 0.00000000e+00, 0.00000000e+00, 0.00000000e+00, 0.00000000e+00, 0.00000000e+00, 0.00000000e+00, 0.00000000e+00, 0.00000000e+00, 0.00000000e+00, 0.00000000e+00, 0.00000000e+00, -1.16607256e+00, 1.00934620e+00, 7.32026238e-01, 4.30850305e+00, 0.00000000e+00, 5.0000000000, 5.0000000000, 0.0856569500
          69, 0.00000000e+00, 0.00000000e+00, 0.00000000e+00, 0.00000000e+00, 0.00000000e+00, 0.00000000e+00, 0.00000000e+00, 0.00000000e+00, 0.00000000e+00, 0.00000000e+00, 0.00000000e+00, 0.00000000e+00, -1.18092515e+00, 1.05784276e+00, 7.36642593e-01, 4.29258344e+00, 0.00000000e+00, 5.0000000000, 5.0000000000, 0.0869234333
          70, 0.00000000e+00, 0.00000000e+00, 0.00000000e+00, 0.00000000e+00, 0.00000000e+00, 0.00000000e+00, 0.00000000e+00, 0.00000000e+00, 0.00000000e+00, 0.00000000e+00, 0.00000000e+00, 0.00000000e+00, -1.19767183e+00, 1.09921586e+00, 7.41313390e-01, 4.27462215e+00, 0.00000000e+00, 5.0000000000, 5.0000000000, 0.0881267500
          71, 0.00000000e+00, 0.00000000e+00, 0.00000000e+00, 0.00000000e+00, 0.00000000e+00, 0.00000000e+00, 0.00000000e+00, 0.00000000e+00, 0.00000000e+00, 0.00000000e+00, 0.00000000e+00, 0.00000000e+00, -1.21616237e+00, 1.13429057e+00, 7.45928197e-01, 4.25474392e+00, 0.00000000e+00, 5.0000000000, 5.0000000000, 0.0893862333
          72, 0.00000000e+00, 0.00000000e+00, 0.00000000e+00, 0.00000000e+00, 0.00000000e+00, 0.00000000e+00, 0.00000000e+00, 0.00000000e+00, 0.00000000e+00, 0.00000000e+00, 0.00000000e+00, 0.00000000e+00, -1.23618306e+00, 1.16381941e+00, 7.50428852e-01, 4.23313327e+00, 0.00000000e+00, 5.0000000000, 5.0000000000, 0.0905770167
          73, 0.00000000e+00, 0.00000000e+00, 0.00000000e+00, 0.00000000e+00, 0.00000000e+00, 0.00000000e+00, 0.00000000e+00, 0.00000000e+00, 0.00000000e+00, 0.00000000e+00, 0.00000000e+00, 0.00000000e+00, -1.25743707e+00, 1.18843785e+00, 7.54800418e-01, 4.21005660e+00, 0.00000000e+00, 5.0000000000, 5.0000000000, 0.0917370833
          74, 0.00000000e+00, 0.00000000e+00, 0.00000000e+00, 0.00000000e+00, 0.00000000e+00, 0.00000000e+00, 0.00000000e+00, 0.00000000e+00, 0.00000000e+00, 0.00000000e+00, 0.00000000e+00, 0.00000000e+00, -1.27952305e+00, 1.20866953e+00, 7.59061118e-01, 4.18588864e+00, 0.00000000e+00, 5.0000000000, 5.0000000000, 0.0929185500
          75, 0.00000000e+00, 0.00000000e+00, 0.00000000e+00, 0.00000000e+00, 0.00000000e+00, 0.00000000e+00, 0.00000000e+00, 0.00000000e+00, 0.00000000e+00, 0.00000000e+00, 0.00000000e+00, 0.00000000e+00, -1.30191588e+00, 1.22494420e+00, 7.63257307e-01, 4.16113965e+00, 0.00000000e+00, 5.0000000000, 5.0000000000, 0.0941025167
          76, 0.00000000e+00, 0.00000000e+00, 0.00000000e+00, 0.00000000e+00, 0.00000000e+00, 0.00000000e+00, 0.00000000e+00, 0.00000000e+00, 0.00000000e+00, 0.00000000e+00, 0.00000000e+00, 0.00000000e+00, -1.32395709e+00, 1.23761636e+00, 7.67452536e-01, 4.13647660e+00, 0.00000000e+00, 5.0000000000, 5.0000000000, 0.0952762000
          77, 0.00000000e+00, 0.00000000e+00, 0.00000000e+00, 0.00000000e+00, 0.00000000e+00, 0.00000000e+00, 0.00000000e+00, 0.00000000e+00, 0.00000000e+00, 0.00000000e+00, 0.00000000e+00, 0.00000000e+00, -1.34486659e+00, 1.24698154e+00, 7.71721524e-01, 4.11272574e+00, 0.00000000e+00, 5.0000000000, 5.0000000000, 0.0964805167
          78, 0.00000000e+00, 0.00000000e+00, 0.00000000e+00, 0.00000000e+00, 0.00000000e+00, 0.00000000e+00, 0.00000000e+00, 0.00000000e+00, 0.00000000e+00, 0.00000000e+00, 0.00000000e+00, 0.00000000e+00, -1.36378890e+00, 1.25328992e+00, 7.76143889e-01, 4.09083877e+00, 0.00000000e+00, 5.0000000000, 5.0000000000, 0.0976500667
          79, 0.00000000e+00, 0.00000000e+00, 0.00000000e+00, 0.00000000e+00, 0.00000000e+00, 0.00000000e+00, 0.00000000e+00, 0.00000000e+00, 0.00000000e+00, 0.00000000e+00, 0.00000000e+00, 0.00000000e+00, -1.37988259e+00, 1.25675718e+00, 7.80798392e-01, 4.07180628e+00, 0.00000000e+00, 5.0000000000, 5.0000000000, 0.0988306167
          80, 0.00000000e+00, 0.00000000e+00, 0.00000000e+00, 0.00000000e+00, 0.00000000e+00, 0.00000000e+00, 0.00000000e+00, 0.00000000e+00, 0.00000000e+00, 0.00000000e+00, 0.00000000e+00, 0.00000000e+00, -1.39244611e+00, 1.25757350e+00, 7.85758295e-01, 4.05651596e+00, 0.00000000e+00, 5.0000000000, 5.0000000000, 0.0999740000
          81, 0.00000000e+00, 0.00000000e+00, 0.00000000e+00, 0.00000000e+00, 0.00000000e+00, 0.00000000e+00, 0.00000000e+00, 0.00000000e+00, 0.00000000e+00, 0.00000000e+00, 0.00000000e+00, 0.00000000e+00, -1.40105001e+00, 1.25591071e+00, 7.91087263e-01, 4.04558305e+00, 0.00000000e+00, 5.0000000000, 5.0000000000, 0.1010959333
          82, 0.00000000e+00, 0.00000000e+00, 0.00000000e+00, 0.00000000e+00, 0.00000000e+00, 0.00000000e+00, 0.00000000e+00, 0.00000000e+00, 0.00000000e+00, 0.00000000e+00, 0.00000000e+00, 0.00000000e+00, -1.40562907e+00, 1.25192818e+00, 7.96836116e-01, 4.03921072e+00, 0.00000000e+00, 5.0000000000, 5.0000000000, 0.1022138000
          83, 0.00000000e+00, 0.00000000e+00, 0.00000000e+00, 0.00000000e+00, 0.00000000e+00, 0.00000000e+00, 0.00000000e+00, 0.00000000e+00, 0.00000000e+00, 0.00000000e+00, 0.00000000e+00, 0.00000000e+00, -1.40649545e+00, 1.24577758e+00, 8.03040623e-01, 4.03714124e+00, 0.00000000e+00, 5.0000000000, 5.0000000000, 0.1033988667
          84, 0.00000000e+00, 0.00000000e+00, 0.00000000e+00, 0.00000000e+00, 0.00000000e+00, 0.00000000e+00, 0.00000000e+00, 0.00000000e+00, 0.00000000e+00, 0.00000000e+00, 0.00000000e+00, 0.00000000e+00, -1.40426665e+00, 1.23760694e+00, 8.09720322e-01, 4.03872207e+00, 0.00000000e+00, 5.0000000000, 5.0000000000, 0.1046139667
          85, 0.00000000e+00, 0.00000000e+00, 0.00000000e+00, 0.00000000e+00, 0.00000000e+00, 0.00000000e+00, 0.00000000e+00, 0.00000000e+00, 0.00000000e+00, 0.00000000e+00, 0.00000000e+00, 0.00000000e+00, -1.39973949e+00, 1.22756384e+00, 8.16878262e-01, 4.04305497e+00, 0.00000000e+00, 5.0000000000, 5.0000000000, 0.1057895500
          86, 0.00000000e+00, 0.00000000e+00, 0.00000000e+00, 0.00000000e+00, 0.00000000e+00, 0.00000000e+00, 0.00000000e+00, 0.00000000e+00, 0.00000000e+00, 0.00000000e+00, 0.00000000e+00, 0.00000000e+00, -1.39375749e+00, 1.21579805e+00, 8.24501688e-01, 4.04916492e+00, 0.00000000e+00, 5.0000000000, 5.0000000000, 0.1069964000
          87, 0.00000000e+00, 0.00000000e+00, 0.00000000e+00, 0.00000000e+00, 0.00000000e+00, 0.00000000e+00, 0.00000000e+00, 0.00000000e+00, 0.00000000e+00, 0.00000000e+00, 0.00000000e+00, 0.00000000e+00, -1.38710810e+00, 1.20246336e+00, 8.32564510e-01, 4.05613459e+00, 0.00000000e+00, 5.0000000000, 5.0000000000, 0.1082771500
          88, 0.00000000e+00, 0.00000000e+00, 0.00000000e+00, 0.00000000e+00, 0.00000000e+00, 0.00000000e+00, 0.00000000e+00, 0.00000000e+00, 0.00000000e+00, 0.00000000e+00, 0.00000000e+00, 0.00000000e+00, -1.38046295e+00, 1.18771902e+00, 8.41028206e-01, 4.06318318e+00, 0.00000000e+00, 5.0000000000, 5.0000000000, 0.1095321000
          89, 0.00000000e+00, 0.00000000e+00, 0.00000000e+00, 0.00000000e+00, 0.00000000e+00, 0.00000000e+00, 0.00000000e+00, 0.00000000e+00, 0.00000000e+00, 0.00000000e+00, 0.00000000e+00, 0.00000000e+00, -1.37435654e+00, 1.17173030e+00, 8.49843918e-01, 4.06969405e+00, 0.00000000e+00, 5.0000000000, 5.0000000000, 0.1107934667