/*--------------------------------*- C++ -*----------------------------------*\
  =========                 |
  \\      /  F ield         | OpenFOAM: The Open Source CFD Toolbox
   \\    /   O peration     | Website:  https://openfoam.org
    \\  /    A nd           | Version:  6
     \\/     M anipulation  |
\*---------------------------------------------------------------------------*/
FoamFile
{
    version     2.0;
    format      ascii;
    class       surfaceScalarField;
    location    "130";
    object      phi;
}
// * * * * * * * * * * * * * * * * * * * * * * * * * * * * * * * * * * * * * //

dimensions      [0 3 -1 0 0 0 0];

internalField   nonuniform List<scalar> 
7780
(
2
1.53615e-16
2
-8.77262e-17
2
-2.68387e-17
2
6.93777e-17
2
3.27949e-17
2
3.733e-17
2
4.51017e-17
2
7.41796e-17
2
1.2892e-16
2
1.80067e-16
2
2.83882e-16
2
2.12016e-16
2
8.29325e-17
2
1.56284e-16
2
2.81676e-16
2
3.74013e-16
2
1.30794e-16
2
6.7812e-17
2
2.17096e-16
2
1.49694e-16
2
1.19318e-16
2
-2.36463e-17
2
9.14004e-17
2
-1.93044e-17
2
-1.7162e-16
2
-1.24845e-17
2
-1.45e-17
2
-2.17203e-17
2
2.07671e-17
2
-1.29747e-16
2
-9.47669e-17
2
-4.67992e-17
2
7.39284e-17
2
-6.87756e-17
2
-1.24989e-16
2
-9.632e-17
2
-4.26186e-17
2
-1.49852e-16
2
-1.39418e-16
2
-2.8389e-16
2
-8.98067e-17
2
1.85499e-16
2
-5.59814e-17
2
-8.72441e-17
2
-1.9539e-17
2
-1.3319e-16
2
2.9962e-17
2
-9.38277e-17
2
-1.30251e-16
2
7.44554e-17
2
-7.39481e-17
2
-2.57184e-16
2
-1.32983e-16
2
-3.954e-17
2
-1.41034e-16
2
-8.50745e-17
2
5.08635e-18
2
4.72881e-17
2
-3.2749e-17
2
-2.25723e-17
2
1.44727e-16
2
3.13919e-16
2
2.54014e-16
2
1.98433e-16
2
2.53566e-16
2
3.93266e-16
2
3.99649e-16
2
2.92295e-16
2
3.13288e-16
2
2.98393e-16
2
2.99776e-16
2
2.72427e-16
2
2.61165e-16
2
4.10714e-16
2
3.14695e-16
2
2.19399e-16
2
2.15727e-16
2
2.82137e-16
2
3.24066e-16
2
2.24923e-16
2
3.57728e-16
2
4.95031e-16
2
2.89169e-16
2
2.01226e-16
2
-9.5122e-17
2
7.94841e-17
2
1.66518e-16
2
-2.41554e-19
2
8.16593e-17
2
8.14559e-18
2
4.11667e-18
2
4.28542e-17
2
1.01491e-16
2
5.21389e-17
2
1.09016e-16
2
2.59019e-16
2
1.30968e-17
2
-2.55517e-17
2
-1.41256e-17
2
-3.29032e-17
2
-7.20278e-17
2
-6.06755e-17
2
-9.25948e-17
2
-1.86176e-16
2
-1.46792e-16
2
-1.53574e-16
2
-3.20387e-17
2
-1.33668e-16
2
-1.28864e-16
2
-2.29248e-16
2
-1.00222e-16
2
-2.52902e-17
2
-1.32252e-16
2
8.00261e-17
2
1.78319e-16
2
2.22137e-16
2
2.37482e-16
2
4.38913e-17
2
1.05736e-16
2
2.22379e-16
2
2.91302e-16
2
2.24508e-16
2
8.18035e-17
2
1.29578e-16
2
2.77016e-16
2
3.72934e-16
2
2.15536e-16
2
1.54126e-16
2
-1.12978e-17
2
2.99073e-16
2
2.89323e-16
2
4.06012e-16
2
2.01412e-16
2
3.21442e-16
2
3.22037e-16
2
1.34834e-16
2
5.15691e-17
2
6.31394e-17
2
1.14976e-16
2
-2.05973e-17
2
7.66899e-17
2
1.3463e-16
2
2.87691e-16
2
2.36725e-16
2
2.04448e-16
2
2.5871e-16
2
3.78419e-16
2
2.17007e-16
2
7.18408e-17
2
1.57206e-16
2
2.36695e-16
2
2.62212e-16
2
4.7774e-16
2
3.34605e-16
2
2.2263e-16
2
2.37938e-16
2
1.36548e-16
2
1.21519e-16
2
1.8625e-16
2
2.68316e-16
2
1.93685e-16
2
9.8823e-17
2
1.38631e-16
2
3.29687e-16
2
2.19926e-16
2
1.0961e-16
2
9.10733e-17
2
1.1989e-16
2
4.93108e-17
2
4.48991e-17
2
-1.10388e-16
2
8.82958e-19
2
1.93036e-16
2
1.24658e-17
2
-1.0786e-16
2
-2.89327e-16
2
-1.65075e-16
2
1.12757e-16
2
1.12134e-16
2
-7.49269e-18
2
-1.13058e-16
2
-3.28175e-17
2
-2.12074e-16
2
-2.56808e-17
2
-2.31697e-16
2
-3.53409e-16
2
-1.879e-16
2
-1.62957e-16
2
-3.36921e-16
2
-1.30858e-16
2
1.26466e-17
2
6.05828e-18
2
-4.73911e-17
2
-2.77358e-16
2
-1.17967e-16
2
-2.7778e-16
2
-1.40821e-16
2
-2.10108e-16
2
-3.37259e-16
-2.13375e-16
2
9.6838e-18
2
9.45684e-17
2
-2.17276e-16
2
-2.16965e-16
2
-8.60228e-17
2
-3.40946e-17
2
6.10362e-17
2
-7.89925e-17
2
1.14334e-16
2
7.65525e-17
2
1.20454e-17
2
8.36014e-17
2
1.65029e-16
2
1.48197e-16
2
2.05057e-16
2
1.74812e-16
2
3.53635e-16
2
2.86084e-16
2
1.2413e-16
2
5.43436e-17
2
5.12649e-17
2
-1.07023e-16
2
-2.00763e-16
2
2.93361e-16
2
2.69729e-16
2
1.66527e-16
2
7.59491e-17
2
2.72642e-17
2
2.0933e-19
2
1.04689e-16
2
2.19382e-16
2
1.71677e-16
2
-6.33102e-17
2
-8.10362e-17
2
1.71243e-18
2
1.13659e-16
2
4.15758e-17
2
-2.67907e-17
2
-1.40696e-16
2
-9.44307e-17
2
-2.58127e-17
2
-1.42251e-16
2
-5.55434e-17
2
-1.52904e-16
2
-2.02867e-16
2
-2.06627e-17
2
-3.09244e-17
2
-1.39943e-17
2
1.81893e-16
2
-5.44192e-17
2
-5.71863e-17
2
1.48285e-17
2
-1.0604e-16
2
-2.30174e-17
2
-1.24072e-17
2
3.8523e-17
2
7.50268e-17
2
1.36767e-16
2
1.9513e-16
2
1.23914e-17
2
1.21908e-16
2
2.73419e-16
2
2.20127e-16
2
5.18478e-17
2
2.69117e-16
2
4.16983e-16
2
2.56744e-16
2
2.15819e-16
2
1.70546e-17
2
3.29282e-16
2
4.03882e-16
2
4.1589e-16
2
4.18819e-16
2
4.5002e-16
2
4.87112e-16
2
3.37941e-16
2
2.35982e-16
2
4.16392e-16
2
2.95218e-16
2
2.97171e-16
2
2.91892e-16
2
1.73122e-16
2
3.0008e-16
2
2.14038e-16
2
2.35132e-16
2
1.79957e-16
2
1.00498e-16
2
1.32641e-16
2
1.40101e-16
2
1.16404e-16
2
7.32717e-17
2
6.76875e-18
2
-3.17259e-17
2
1.15085e-16
2
1.46436e-16
2
1.21818e-16
2
7.21251e-17
2
-1.9922e-17
2
1.20054e-17
2
-7.57917e-17
2
-9.84921e-17
2
-1.23766e-16
2
-4.60901e-17
2
2.07929e-17
2
-8.88833e-17
2
-1.20036e-16
2
-2.09154e-16
2
-1.30873e-16
2
-1.47815e-16
2
-3.52615e-17
2
-8.80599e-17
2
-1.78059e-16
2
-1.54136e-16
2
1.41872e-16
2
7.99359e-17
2
-2.35233e-16
2
-5.05176e-17
2
-8.69618e-18
2
-5.29342e-17
2
2.08586e-16
2
2.54788e-16
2
3.30653e-16
2
5.74123e-17
2
7.78672e-20
2
1.21266e-16
2
1.49521e-16
2
1.22614e-16
2
-1.37373e-16
2
-1.27274e-16
2
2.49377e-17
2
2.78005e-16
2
1.76891e-16
2
2.64891e-16
2
7.85163e-17
2
1.2378e-16
2
2.87118e-16
2
2.34881e-16
2
7.0048e-17
2
1.18197e-16
2
1.01328e-16
2
1.0917e-18
2
2.04792e-16
2
9.25279e-17
2
2.68026e-16
2
4.18755e-16
2
4.46258e-16
2
4.1265e-16
2
4.19628e-16
2
3.37361e-16
2
2.04699e-16
2
3.20823e-16
2
2.89245e-16
2
3.44133e-16
2
1.71972e-16
2
1.84493e-16
2
1.68152e-16
2
-1.39055e-17
2
-2.06824e-17
2
3.13144e-16
2
2.53124e-16
2
2.8223e-16
2
3.78424e-16
2
3.04057e-16
2
3.80766e-16
2
2.13164e-16
2
1.88016e-16
2
8.20812e-17
2
-2.27248e-18
2
-1.24931e-16
2
-7.74156e-17
2
-7.00673e-17
2
1.94085e-17
2
1.58498e-16
2
8.96275e-17
2
1.96878e-17
2
7.9612e-17
2
6.7628e-17
2
1.46897e-16
2
-1.92543e-19
2
-4.16522e-17
2
5.09071e-17
2
3.0972e-17
2
1.25337e-16
2
8.45815e-17
2
2.78172e-18
2
-1.8229e-16
2
-2.27115e-16
2
-1.64158e-16
2
-1.42556e-16
2
-1.34081e-16
2
-4.77414e-17
2
-2.22937e-17
2
-4.12098e-17
2
-2.43628e-16
2
-3.37554e-16
2
-2.73741e-16
2
-2.81299e-16
2
-1.41814e-16
2
-8.43284e-17
-2.1657e-16
2
-5.54659e-17
2
-1.57888e-16
2
6.07601e-17
2
-6.98984e-17
2
-5.93409e-17
2
-7.16678e-17
2
-1.52346e-16
2
-7.79309e-17
2
8.92415e-18
2
3.70977e-17
2
9.51207e-18
2
-2.29393e-17
2
-2.44603e-17
2
5.06522e-17
2
1.64281e-16
2
2.33456e-16
2
-1.29681e-17
2
1.75584e-16
2
1.80013e-16
2
2.36887e-16
2
1.64673e-17
2
1.1603e-16
2
2.83655e-16
2
2.5979e-16
2
2.18558e-16
2
3.05659e-16
2
1.84344e-16
2
8.3878e-17
2
2.48495e-16
2
3.72653e-16
2
3.0531e-16
2
1.19042e-16
2
1.82864e-17
2
2.57836e-16
2
1.1975e-17
2
4.00688e-17
2
1.25712e-16
2
1.89968e-16
2
1.14518e-16
2
1.21414e-16
2
-9.13305e-17
2
-2.23449e-17
2
-1.32441e-16
2
-5.1332e-17
2
-2.40397e-17
2
2.1778e-17
2
-6.22552e-18
2
4.41299e-17
2
9.64503e-17
2
5.45009e-17
2
3.90003e-17
2
1.72623e-16
2
1.84443e-16
2
8.42347e-17
2
6.50675e-17
2
2.09726e-16
2
1.14256e-16
2
1.13662e-16
2
7.40397e-17
2
9.65253e-17
2
3.70512e-17
2
-7.32043e-17
2
1.78933e-16
2
4.07016e-16
2
3.75729e-16
2
2.83828e-16
2
1.60161e-16
2
-2.90165e-17
2
1.6644e-16
2
1.58938e-16
2
1.01966e-16
2
1.06341e-16
2
2.12396e-16
2
1.53843e-16
2
2.26395e-16
2
1.65218e-16
2
2.30688e-16
2
1.84087e-16
2
2.7078e-16
2
4.73629e-16
2
3.62014e-16
2
6.14564e-17
2
1.63666e-16
2
2.06737e-16
2
1.82741e-16
2
2.57942e-16
2
2.17306e-16
2
4.33553e-16
2
3.6605e-16
2
2.41952e-16
2
2.03744e-16
2
-9.44115e-17
2
2.20504e-17
2
-9.65196e-18
2
2.64779e-17
2
1.30708e-16
2
-6.92889e-17
2
-5.88401e-17
2
-1.03886e-16
2
-1.91979e-16
2
-1.65731e-16
2
-1.06232e-16
2
-1.76885e-16
2
-3.13847e-16
2
-2.97434e-16
2
-2.49693e-16
2
-9.67184e-17
2
-3.78101e-17
2
-5.02736e-17
2
5.33012e-17
2
1.02827e-16
2
1.10724e-16
2
1.075e-16
2
-1.45149e-17
2
6.51339e-17
2
7.69948e-17
2
-2.63656e-17
2
9.38532e-17
2
-8.9215e-17
2
-5.39949e-17
2
1.86738e-16
2
2.29058e-16
2
1.12144e-16
2
5.41156e-17
2
1.98052e-17
2
4.22881e-17
2
-5.27839e-18
2
2.09091e-17
2
-7.66357e-17
2
-1.95115e-16
2
-1.53821e-16
2
-6.15255e-17
2
2.48543e-16
2
9.80634e-17
2
2.96352e-17
2
-5.91903e-17
2
1.23273e-16
2
3.27986e-16
2
1.85617e-16
2
2.77093e-16
2
4.55983e-16
2
3.92069e-16
2
3.69247e-16
2
3.24011e-16
2
3.02937e-16
2
3.16437e-16
2
3.92212e-16
2
3.94587e-16
2
3.82567e-16
2
4.15921e-16
2
2.64016e-16
2
2.49708e-16
2
1.6092e-16
2
2.72428e-16
2
1.90017e-16
2
2.14346e-16
2
3.23431e-16
2
1.99727e-16
2
-5.52869e-17
2
6.55123e-17
2
2.13291e-16
2
1.21803e-16
2
1.01737e-16
2
2.41979e-16
2
2.27178e-16
2
9.47141e-17
2
-1.19697e-16
2
-2.52205e-16
2
-1.96867e-16
2
-1.49906e-16
2
-1.0123e-16
2
-5.46286e-17
2
-6.07757e-19
2
7.35073e-17
2
3.08012e-16
2
3.29192e-16
2
7.73324e-17
2
1.333e-16
2
3.71191e-16
2
4.15292e-16
2
2.58092e-16
2
2.13206e-16
2
2.89556e-16
2
1.8937e-16
2
1.02067e-16
2
1.24371e-16
2
2.607e-17
2
-1.07511e-16
2
-9.00431e-17
2
-2.34415e-16
2
-5.51282e-17
2
-1.43758e-16
2
-2.20437e-16
2
-2.12261e-16
2
-1.71331e-16
2
-2.19257e-16
2
-2.37887e-16
2
-1.36888e-16
2
-1.4087e-16
-2.62843e-16
2
8.36843e-17
2
1.0885e-16
2
-3.47386e-17
2
1.95118e-17
2
6.2231e-17
2
3.05689e-17
2
3.03784e-17
2
7.29547e-17
2
1.0611e-16
2
1.09812e-16
2
1.35598e-16
2
-2.36701e-17
2
-1.55484e-16
2
4.0292e-17
2
1.89934e-16
2
5.17704e-17
2
2.44499e-17
2
1.35962e-16
2
8.11464e-17
2
1.70857e-16
2
5.43543e-16
2
3.32161e-16
2
1.34994e-16
2
2.81694e-16
2
4.53602e-16
2
2.89453e-16
2
3.11808e-16
2
3.26672e-16
2
2.1428e-16
2
6.22621e-17
2
1.72251e-16
2
4.42098e-17
2
-1.68952e-17
2
-5.41683e-17
2
1.649e-16
2
-8.41744e-18
2
-8.23003e-17
2
-1.5779e-16
2
-2.69974e-17
2
1.52819e-16
2
7.14382e-17
2
-3.15976e-17
2
1.59922e-16
2
1.44459e-16
2
1.66105e-16
2
1.43861e-16
2
2.76524e-17
2
1.20855e-16
2
1.12412e-16
2
1.14365e-16
2
1.1759e-16
2
7.80456e-17
2
2.38305e-16
2
1.47512e-16
2
1.81638e-16
2
-5.40346e-17
2
2.01457e-16
2
2.46742e-16
2
3.40229e-16
2
3.25515e-16
2
1.85133e-16
2
-5.39163e-17
2
8.80128e-17
2
1.90209e-16
2
1.62552e-16
2
2.23118e-16
2
2.1421e-16
2
1.38131e-16
2
1.0851e-16
2
9.08472e-17
2
6.95092e-17
2
2.1549e-16
2
1.80298e-16
2
2.43703e-16
2
1.81395e-16
2
2.99319e-17
2
2.32549e-16
2
1.64529e-16
2
2.63719e-16
2
1.03795e-16
2
6.83507e-17
2
3.4855e-16
2
1.53788e-16
2
1.53694e-16
2
1.67598e-16
2
8.4172e-17
2
1.5612e-16
2
1.25559e-16
2
1.40472e-16
2
1.97481e-16
2
1.16771e-16
2
2.08871e-16
2
-1.31911e-16
2
-1.17904e-16
2
-4.5098e-17
2
5.97492e-17
2
3.38598e-16
2
1.40471e-16
2
-5.22824e-17
2
-5.01344e-17
2
-6.89565e-17
2
-1.49176e-16
2
-2.45841e-16
2
-1.35509e-16
2
-7.99678e-17
2
-2.28663e-16
2
-1.86687e-16
2
-1.23313e-16
2
-8.38595e-17
2
-2.3675e-16
2
-8.33671e-17
2
-1.79549e-17
2
1.36136e-16
2
2.34971e-17
2
-8.74422e-17
2
-3.42866e-17
2
1.81245e-16
2
-4.27942e-17
2
2.72573e-16
2
1.64139e-16
2
8.08834e-17
2
9.2908e-17
2
3.55534e-16
2
3.63967e-16
2
1.70367e-16
2
-2.603e-17
2
-1.15889e-16
2
2.18201e-17
2
1.07284e-16
2
-1.85456e-17
2
-1.31783e-17
2
9.91494e-17
2
-4.35812e-17
2
1.31242e-16
2
9.66815e-17
2
1.11204e-16
2
1.39609e-16
2
3.35798e-16
2
2.77762e-16
2
3.4417e-16
2
4.85051e-16
2
2.05014e-16
2
3.33213e-16
2
3.00261e-16
2
2.33455e-16
2
1.96031e-16
2
1.80472e-16
2
9.81659e-17
2
1.14563e-16
2
1.47916e-16
2
1.91988e-16
2
2.94068e-16
2
3.58075e-16
2
3.1612e-16
2
1.46565e-16
2
2.21868e-16
2
2.11464e-16
2
7.89565e-17
2
1.09925e-16
2
1.41663e-16
2
1.50824e-16
2
2.64985e-16
2
3.67908e-16
2
1.7988e-16
2
1.30158e-16
2
5.62806e-17
2
5.58671e-17
2
-1.17028e-17
2
-8.72458e-17
2
-1.28898e-16
2
4.83131e-17
2
-2.72423e-17
2
-1.31816e-16
2
2.59647e-16
2
2.36247e-16
2
2.65452e-16
2
4.94471e-16
2
3.84031e-16
2
4.53513e-16
2
4.96969e-16
2
5.79741e-16
2
5.95586e-16
2
5.38412e-16
2
5.3583e-16
2
2.88158e-16
2
2.72697e-16
2
3.35463e-16
2
7.30012e-17
2
-1.56651e-17
2
-7.06006e-17
2
-3.39436e-16
2
-3.28387e-16
2
-1.48395e-16
2
-1.89464e-16
2
-1.0445e-16
2
-6.5278e-17
2
-8.1852e-17
2
-2.04502e-16
2
-4.42347e-16
-3.90744e-16
2
1.12678e-16
2
1.02829e-16
2
-1.07123e-16
2
-5.40757e-17
2
4.26836e-17
2
1.22103e-16
2
6.35038e-17
2
1.15166e-16
2
9.22581e-17
2
-1.32891e-16
2
-1.10121e-16
2
7.19837e-17
2
2.1061e-16
2
1.00614e-16
2
1.86505e-17
2
8.35827e-17
2
2.91091e-16
2
1.59188e-16
2
2.11062e-16
2
2.36172e-16
2
1.30707e-16
2
3.71883e-16
2
3.72364e-16
2
1.74585e-16
2
1.99068e-16
2
2.30991e-16
2
1.46419e-16
2
8.99019e-17
2
8.7881e-18
2
4.73859e-17
2
-2.42058e-17
2
2.33878e-18
2
6.82038e-17
2
-4.63724e-17
2
-1.59621e-17
2
-2.57822e-17
2
1.55296e-17
2
-6.67517e-18
2
6.08418e-17
2
-2.74246e-16
2
-1.19804e-16
2
1.28898e-18
2
1.28121e-16
2
1.89379e-16
2
1.75217e-16
2
1.81998e-16
2
1.68459e-16
2
1.51034e-16
2
2.18615e-17
2
8.25999e-17
2
1.68475e-16
2
2.25751e-16
2
1.76351e-16
2
2.78591e-16
2
1.45488e-16
2
1.78718e-16
2
1.802e-16
2
2.77979e-16
2
2.64735e-16
2
2.18978e-16
2
9.47144e-17
2
1.6479e-16
2
1.57584e-16
2
1.02446e-16
2
-1.06191e-16
2
-1.77432e-16
2
-1.43348e-16
2
9.82758e-17
2
1.17378e-16
2
1.21562e-16
2
2.19269e-16
2
1.51139e-16
2
7.43851e-17
2
5.6289e-17
2
2.13748e-16
2
4.18963e-16
2
2.72649e-16
2
1.77094e-16
2
1.64479e-17
2
4.87159e-18
2
-3.81758e-17
2
-1.59109e-16
2
-2.39614e-17
2
-8.4679e-17
2
-2.90086e-17
2
-2.49069e-17
2
1.29789e-17
2
8.37865e-18
2
-2.38296e-17
2
1.36217e-16
2
1.06268e-16
2
2.14497e-16
2
6.86594e-17
2
-3.04872e-17
2
6.04224e-17
2
2.94478e-17
2
-1.99637e-16
2
-4.25621e-18
2
-1.71925e-16
2
-9.45631e-17
2
2.3778e-17
2
-4.85789e-17
2
-1.08001e-16
2
-2.09502e-16
2
-1.41619e-16
2
-2.09406e-16
2
-1.09264e-16
2
-5.37576e-17
2
7.6392e-18
2
2.08922e-17
2
1.21126e-16
2
9.102e-17
2
-1.26718e-16
2
9.06282e-17
2
-4.43236e-17
2
-4.09977e-17
2
-3.06673e-16
2
-2.9432e-17
2
1.28554e-16
2
1.54765e-16
2
2.10456e-16
2
6.70109e-17
2
6.30747e-17
2
1.94654e-17
2
-5.93671e-17
2
-1.66517e-16
2
-3.1357e-17
2
9.07071e-17
2
1.07254e-16
2
1.37823e-16
2
1.44392e-16
2
1.80146e-16
2
-1.25573e-16
2
-4.10933e-17
2
4.1821e-17
2
3.19671e-17
2
2.03062e-17
2
-2.16395e-17
2
4.8637e-17
2
2.65396e-16
2
1.6757e-16
2
1.49289e-16
2
3.15667e-17
2
1.69118e-16
2
2.28037e-16
2
7.09273e-17
2
4.27473e-17
2
2.55628e-16
2
1.02795e-16
2
1.36345e-16
2
2.63344e-16
2
1.57907e-16
2
6.21188e-17
2
2.58624e-16
2
4.03682e-16
2
2.96506e-16
2
2.39656e-16
2
1.23655e-16
2
1.14832e-16
2
1.52455e-16
2
2.99727e-16
2
1.9755e-16
2
7.64761e-17
2
3.0423e-17
2
6.40894e-17
2
-4.12699e-17
2
-1.76111e-17
2
-1.01333e-16
2
-2.99827e-18
2
1.18257e-16
2
-8.92883e-19
2
6.08318e-17
2
7.41952e-17
2
2.73769e-16
2
3.63639e-16
2
3.04709e-16
2
2.6696e-16
2
3.77455e-16
2
4.88458e-16
2
3.34483e-16
2
3.95853e-16
2
3.56006e-16
2
5.93171e-16
2
3.88073e-16
2
2.71855e-16
2
1.94381e-16
2
-6.96263e-17
2
1.77896e-16
2
2.23043e-16
2
9.36505e-17
2
1.41054e-16
2
2.13567e-16
2
1.01232e-16
2
7.50836e-17
2
-1.28056e-16
2
-1.26184e-16
2
-1.20507e-16
2
-2.50383e-16
2
-1.86841e-16
-9.44844e-17
2
7.35187e-17
2
-2.25536e-17
2
1.95729e-16
2
1.24324e-16
2
-1.1539e-16
2
1.27963e-16
2
1.54616e-16
2
-1.98853e-17
2
-1.35341e-16
2
-1.51255e-16
2
3.69512e-17
2
1.15103e-16
2
3.09556e-16
2
2.19424e-16
2
1.63492e-16
2
1.99455e-16
2
2.38935e-16
2
1.87121e-16
2
8.8159e-17
2
8.43407e-17
2
1.01521e-16
2
1.03238e-16
2
2.338e-16
2
2.32189e-16
2
6.91585e-17
2
-1.36172e-17
2
1.73529e-16
2
2.20176e-16
2
2.85602e-16
2
1.71977e-16
2
2.02245e-16
2
1.24229e-17
2
-1.35697e-16
2
-1.306e-16
2
-8.29359e-17
2
-6.87067e-17
2
-1.62638e-16
2
-1.63919e-16
2
-1.27892e-16
2
-9.16803e-17
2
-1.27409e-16
2
2.51839e-17
2
1.29612e-16
2
3.38797e-16
2
1.97947e-16
2
2.01712e-16
2
1.9614e-16
2
1.86239e-16
2
1.45474e-16
2
6.86499e-17
2
2.32007e-16
2
9.68204e-18
2
7.7788e-17
2
1.70144e-16
2
3.04497e-16
2
2.73059e-16
2
3.68799e-16
2
2.27643e-16
2
2.14651e-16
2
2.03951e-16
2
1.88795e-16
2
-7.57697e-17
2
-1.95811e-16
2
-1.91543e-16
2
-4.03519e-17
2
-1.43364e-16
2
-1.26506e-16
2
-7.11215e-17
2
2.46441e-16
2
1.84328e-16
2
1.93445e-16
2
1.38945e-16
2
2.11778e-17
2
2.11202e-16
2
1.93656e-16
2
2.14054e-16
2
1.16358e-16
2
8.56102e-17
2
-3.11038e-17
2
-1.75841e-16
2
-1.94343e-17
2
6.01945e-17
2
-4.57234e-17
2
1.17314e-16
2
5.73147e-17
2
8.79141e-17
2
1.20922e-16
2
1.61751e-16
2
2.59312e-17
2
-2.5409e-16
2
-1.63026e-16
2
-8.68962e-17
2
-3.16116e-18
2
1.48146e-17
2
-6.36995e-17
2
-2.18926e-16
2
-1.18329e-16
2
-2.19381e-16
2
-1.69134e-16
2
-2.21043e-16
2
-2.36978e-16
2
8.78649e-18
2
-6.66098e-17
2
-9.80488e-17
2
-1.61667e-16
2
-1.13417e-17
2
-2.63898e-17
2
-7.40123e-17
2
4.84595e-17
2
6.20046e-17
2
-1.12099e-16
2
-2.09679e-16
2
-7.47419e-17
2
-1.00667e-16
2
1.47032e-16
2
7.66348e-17
2
-3.17946e-17
2
1.02412e-16
2
1.57362e-16
2
2.34105e-16
2
2.08346e-16
2
1.70383e-16
2
7.72428e-17
2
3.87105e-17
2
4.63804e-17
2
6.49577e-17
2
1.60453e-16
2
2.32669e-16
2
1.70032e-16
2
1.08265e-17
2
2.22985e-17
2
-1.55259e-16
2
-7.12247e-17
2
-1.50433e-16
2
7.3892e-17
2
8.62903e-17
2
5.37642e-17
2
1.24091e-16
2
2.76225e-16
2
4.86282e-17
2
-1.38686e-16
2
7.75946e-17
2
2.99654e-16
2
8.32054e-17
2
4.79346e-17
2
1.75608e-16
2
5.74744e-17
2
5.33356e-18
2
1.18823e-16
2
2.59015e-16
2
2.96487e-16
2
2.78891e-16
2
1.57727e-16
2
7.57175e-17
2
2.13686e-16
2
1.58619e-16
2
6.89915e-17
2
1.07102e-16
2
8.09837e-17
2
4.58875e-17
2
-1.80342e-16
2
-2.73185e-16
2
-3.57265e-16
2
-2.3947e-16
2
5.05113e-17
2
1.52223e-16
2
5.11011e-18
2
4.9334e-17
2
8.01546e-17
2
8.54623e-17
2
6.35566e-17
2
8.20391e-17
2
3.14041e-17
2
-1.21347e-17
2
2.18588e-16
2
2.1398e-16
2
3.14995e-16
2
4.10828e-16
2
3.04342e-16
2
4.38457e-16
2
3.54732e-16
2
3.79204e-16
2
1.86192e-16
2
9.3008e-17
2
2.42401e-16
2
1.62233e-16
2
2.09035e-16
2
-6.82947e-17
2
-4.49609e-18
2
2.26292e-16
2
3.79741e-16
2
3.19421e-16
2
1.56527e-16
2
2.49599e-16
2
3.50738e-16
2
4.47901e-17
2
-8.66204e-17
2
1.20391e-18
2
9.06489e-17
-1.54623e-16
2
8.80327e-17
2
-2.64548e-17
2
1.33868e-16
2
2.69719e-16
2
1.81187e-16
2
-3.37041e-17
2
7.51459e-18
2
1.26471e-17
2
-5.16072e-17
2
1.49601e-16
2
-1.26499e-16
2
-1.66317e-16
2
1.20663e-17
2
1.97197e-16
2
1.07147e-16
2
4.82102e-17
2
-6.41438e-17
2
-1.04933e-17
2
1.28774e-17
2
3.93841e-17
2
1.34339e-16
2
1.93657e-16
2
3.13218e-16
2
1.45379e-16
2
6.68273e-17
2
2.12653e-16
2
1.28492e-16
2
1.43123e-16
2
9.22843e-17
2
-9.10189e-17
2
-1.30606e-17
2
8.75275e-17
2
9.06516e-17
2
-9.56438e-17
2
2.94646e-17
2
5.6225e-17
2
8.39178e-18
2
6.70269e-17
2
9.75469e-17
2
2.12022e-16
2
1.87729e-16
2
7.83282e-17
2
-3.51489e-17
2
-1.17693e-16
2
1.16318e-16
2
1.79198e-16
2
1.02238e-16
2
6.24198e-17
2
1.19187e-16
2
2.2689e-16
2
7.32504e-17
2
1.65541e-16
2
1.2946e-16
2
2.1506e-16
2
3.41986e-16
2
4.19243e-16
2
1.82045e-16
2
1.09349e-16
2
2.01685e-16
2
2.98833e-16
2
1.3758e-16
2
1.51781e-16
2
-7.01236e-18
2
-6.70403e-17
2
-8.72042e-17
2
-1.70818e-16
2
-6.8984e-17
2
1.03431e-17
2
-1.06808e-16
2
1.94577e-16
2
1.34424e-16
2
1.5866e-16
2
1.34989e-16
2
9.62897e-17
2
7.48428e-17
2
3.34039e-17
2
2.81196e-16
2
2.45493e-17
2
-1.14138e-16
2
-9.84134e-17
2
-3.11368e-16
2
5.11677e-17
2
2.44079e-16
2
2.21811e-16
2
2.33528e-16
2
1.69931e-16
2
1.05361e-16
2
-2.26618e-17
2
-9.49901e-17
2
-9.57651e-18
2
-1.11873e-16
2
-1.56309e-16
2
3.3103e-17
2
3.82254e-17
2
-4.1075e-17
2
-2.10198e-16
2
-2.74565e-17
2
-6.87311e-17
2
6.51916e-17
2
-7.19101e-20
2
-8.88225e-17
2
-4.29073e-17
2
2.88964e-17
2
-1.69123e-16
2
-5.58203e-17
2
4.32939e-17
2
6.52566e-18
2
-8.89744e-17
2
-1.24532e-16
2
-1.44894e-16
2
-3.9098e-16
2
-2.78869e-16
2
-2.50308e-16
2
-2.52754e-16
2
-2.29491e-16
2
-1.56233e-16
2
1.20216e-16
2
2.57392e-16
2
1.68803e-16
2
2.15677e-17
2
-6.87304e-17
2
1.50576e-17
2
3.67735e-17
2
6.38477e-17
2
1.18238e-16
2
2.52379e-16
2
2.65375e-16
2
3.38246e-16
2
2.01001e-16
2
1.36895e-16
2
7.32439e-17
2
1.25852e-16
2
1.26515e-16
2
1.65844e-16
2
-3.60512e-19
2
8.39352e-17
2
1.19349e-16
2
-1.80394e-17
2
1.77428e-17
2
-4.766e-17
2
-1.21696e-16
2
5.5731e-17
2
-2.72594e-17
2
1.40178e-16
2
5.50577e-17
2
3.64954e-17
2
3.19431e-17
2
-1.2943e-17
2
1.22276e-16
2
1.32048e-16
2
1.23877e-16
2
1.57065e-16
2
2.61626e-16
2
2.08563e-16
2
6.80998e-17
2
1.76511e-17
2
6.90201e-17
2
-1.33593e-17
2
-1.53441e-16
2
-1.03258e-16
2
-1.26117e-16
2
-1.04162e-16
2
-2.24654e-17
2
-2.77263e-16
2
-1.22721e-16
2
7.84422e-17
2
9.15563e-17
2
7.61775e-17
2
1.79889e-17
2
7.05939e-17
2
1.98398e-17
2
2.7018e-17
2
3.92347e-17
2
-2.10691e-17
2
-7.53194e-17
2
2.03589e-17
2
-5.55125e-17
2
7.44833e-17
2
2.44602e-16
2
2.85869e-16
2
3.22907e-16
2
2.38803e-16
2
1.57516e-16
2
8.10796e-17
2
3.96987e-17
2
2.09182e-17
2
-6.93624e-17
2
1.64437e-16
2
3.3202e-16
2
3.32083e-16
2
2.47191e-16
2
3.69892e-16
2
5.49014e-16
2
4.33224e-16
2
2.96779e-16
2
3.69048e-16
2
1.15174e-16
2
2.18262e-16
2
1.70254e-17
-3.59932e-17
2
1.69758e-16
2
3.96808e-16
2
2.68004e-16
2
2.23693e-16
2
4.99242e-16
2
1.83099e-16
2
-4.45179e-17
2
-8.83793e-17
2
1.74819e-17
2
1.05312e-17
2
5.60427e-17
2
9.02267e-17
2
-1.19522e-16
2
-1.15517e-16
2
-1.15533e-16
2
-7.92128e-17
2
-3.54236e-17
2
-1.26586e-16
2
4.0361e-17
2
9.34164e-17
2
-1.34974e-16
2
-7.1682e-17
2
-7.27095e-17
2
1.03972e-16
2
1.37782e-16
2
2.01522e-17
2
1.09755e-16
2
2.16852e-16
2
1.74325e-16
2
6.64475e-17
2
-1.12231e-16
2
-5.29577e-17
2
1.08898e-16
2
1.5475e-16
2
-3.61336e-17
2
-5.49613e-17
2
1.02975e-16
2
1.97884e-16
2
2.23906e-16
2
2.56749e-16
2
2.03797e-16
2
2.24576e-16
2
2.21859e-16
2
1.0073e-16
2
-1.5591e-16
2
-3.87311e-17
2
-4.38447e-17
2
-2.14713e-16
2
-3.95215e-16
2
-2.42586e-16
2
-2.27355e-17
2
-2.02729e-16
2
1.67716e-16
2
3.72729e-16
2
1.72915e-16
2
1.95195e-16
2
1.90546e-16
2
2.84767e-16
2
2.41722e-16
2
1.40943e-16
2
5.57065e-17
2
2.7164e-16
2
8.19946e-17
2
1.35697e-17
2
-1.78947e-16
2
-6.08268e-17
2
-1.57846e-16
2
-3.70588e-16
2
-1.32716e-16
2
-9.91568e-17
2
1.81203e-16
2
1.33146e-16
2
1.02366e-16
2
-1.33551e-16
2
-6.61858e-17
2
4.11041e-17
2
-3.5647e-16
2
-2.30986e-16
2
-2.81683e-16
2
-1.2642e-16
2
-1.11726e-16
2
5.43671e-18
2
3.69671e-17
2
1.95899e-18
2
5.57763e-17
2
7.01779e-17
2
1.37625e-17
2
-6.72516e-17
2
4.95159e-18
2
-3.64591e-17
2
5.17453e-18
2
1.16707e-16
2
7.64006e-17
2
9.87047e-18
2
3.56996e-17
2
5.16262e-17
2
-8.81253e-17
2
-5.43701e-17
2
1.36215e-16
2
1.35582e-16
2
9.14285e-17
2
-4.44737e-17
2
2.41696e-17
2
1.84219e-16
2
5.04941e-17
2
-2.92272e-17
2
8.04015e-17
2
2.75764e-17
2
-8.58828e-17
2
-6.17693e-17
2
2.51076e-17
2
-5.47444e-17
2
-2.0917e-16
2
-3.75434e-16
2
-5.0072e-16
2
-3.75346e-16
2
-4.32172e-16
2
-1.82735e-16
2
-1.70433e-16
2
-1.22847e-16
2
2.79379e-17
2
-6.03199e-17
2
-8.82552e-17
2
-6.3776e-17
2
-8.41431e-17
2
-1.23308e-16
2
-2.71103e-16
2
-3.50715e-16
2
2.08852e-17
2
9.76195e-17
2
-3.96743e-17
2
-4.2736e-17
2
-3.37575e-17
2
-2.36167e-16
2
-1.09161e-16
2
3.526e-18
2
-8.8735e-17
2
-6.42652e-17
2
1.94599e-17
2
4.2731e-17
2
2.47717e-17
2
-1.64922e-16
2
-1.19016e-16
2
-1.18488e-17
2
-2.64122e-17
2
-5.63125e-17
2
6.74243e-17
2
2.17284e-16
2
2.07638e-16
2
1.15531e-16
2
8.35824e-17
2
5.53739e-17
2
1.82195e-16
2
1.22897e-16
2
2.76466e-17
2
-1.48676e-17
2
-4.26029e-17
2
2.24652e-17
2
-4.39843e-18
2
-1.03609e-16
2
-1.18763e-16
2
-7.71675e-18
2
1.30501e-16
2
8.41448e-17
2
4.68261e-17
2
1.24996e-16
2
1.96833e-17
2
-4.87591e-17
2
-2.03661e-16
2
-2.3382e-16
2
-5.72153e-17
2
1.19665e-17
2
1.27005e-16
2
-3.23285e-17
2
-7.70867e-17
2
5.07515e-17
2
5.51134e-17
2
-7.75264e-17
2
1.42814e-16
2
1.19975e-16
2
-7.4544e-17
2
4.6935e-17
2
1.36369e-16
2
2.97413e-17
2
-1.74443e-16
2
-7.90852e-17
2
2.23204e-16
2
3.86068e-16
2
2.98667e-16
2
4.10228e-16
2
2.75618e-16
2
2.81748e-16
2
2.25681e-16
2
2.342e-16
2
8.37857e-17
2
6.10407e-17
2
2.05521e-16
2
1.12601e-16
2
1.74878e-16
-2.34135e-17
2
5.92179e-17
2
3.53239e-17
2
9.29102e-17
2
7.86287e-17
2
-8.40622e-17
2
1.56075e-16
2
3.26237e-17
2
1.90414e-17
2
4.06518e-17
2
3.97108e-17
2
1.28231e-17
2
-2.35342e-17
2
-2.0806e-16
2
-5.54614e-17
2
1.20707e-16
2
-5.02331e-17
2
-1.24391e-16
2
1.16907e-16
2
5.18522e-19
2
-1.86184e-16
2
9.02768e-17
2
-5.75956e-17
2
3.51275e-18
2
-1.89437e-17
2
8.45915e-17
2
7.22892e-17
2
2.0688e-17
2
-1.56216e-16
2
-1.98149e-16
2
-1.47619e-16
2
-1.15486e-16
2
1.48129e-17
2
8.76806e-17
2
3.34922e-17
2
1.52426e-16
2
1.29777e-16
2
2.06357e-16
2
1.92107e-16
2
2.28318e-16
2
4.80355e-16
2
2.72224e-16
2
1.94888e-16
2
1.48932e-17
2
-2.1409e-16
2
-8.40971e-17
2
-3.12766e-16
2
-1.76397e-16
2
-2.00042e-16
2
-1.72489e-16
2
-1.17342e-16
2
-3.47107e-16
2
-9.21868e-17
2
5.58813e-18
2
5.4651e-17
2
2.55234e-16
2
5.36997e-17
2
4.48912e-17
2
8.54178e-17
2
1.94561e-16
2
2.67341e-16
2
1.98307e-16
2
-7.93433e-18
2
4.49868e-18
2
2.7995e-17
2
1.58705e-16
2
1.31097e-17
2
2.44284e-17
2
3.64772e-17
2
-4.95629e-17
2
1.67345e-17
2
3.26875e-18
2
-3.61273e-17
2
-1.70257e-16
2
-2.75852e-16
2
-1.81368e-16
2
-2.74108e-16
2
-1.49419e-16
2
-2.15899e-16
2
-7.42261e-17
2
5.15893e-17
2
1.21959e-16
2
-4.73466e-18
2
3.4749e-17
2
1.61363e-16
2
9.84387e-17
2
8.90611e-17
2
1.04992e-16
2
-1.17487e-16
2
-5.87105e-17
2
7.77046e-17
2
8.33909e-17
2
7.41269e-17
2
9.10054e-17
2
1.03457e-16
2
3.22918e-17
2
-6.1341e-17
2
-8.57256e-17
2
-3.35795e-17
2
1.23037e-16
2
7.01404e-17
2
8.53901e-17
2
1.25669e-16
2
1.20853e-16
2
1.22987e-16
2
2.50253e-16
2
3.31359e-16
2
1.1444e-16
2
8.3198e-17
2
4.99328e-17
2
-9.43845e-17
2
-8.9649e-17
2
-1.57695e-18
2
1.38257e-16
2
-1.82445e-16
2
-1.4194e-16
2
-1.2118e-16
2
3.30675e-17
2
-3.0411e-16
2
6.35315e-17
2
-1.51541e-16
2
-2.45562e-16
2
-1.83544e-16
2
-1.1732e-16
2
-9.38101e-17
2
-1.92092e-17
2
-1.71011e-16
2
-2.93952e-16
2
-2.50019e-16
2
-2.53008e-16
2
-1.8366e-16
2
-1.06699e-16
2
-8.20061e-17
2
-7.27984e-17
2
-9.35426e-17
2
-3.18806e-16
2
-3.62806e-16
2
-2.2691e-16
2
-5.92269e-17
2
-3.78467e-17
2
-1.37398e-16
2
-3.03782e-16
2
-2.35187e-16
2
-1.91485e-16
2
-9.1369e-17
2
4.34265e-17
2
2.6709e-16
2
2.22945e-16
2
1.50425e-17
2
1.57067e-16
2
2.10839e-16
2
2.59809e-16
2
1.09861e-16
2
-7.1865e-17
2
-1.33056e-17
2
8.05366e-18
2
9.55812e-17
2
-7.3515e-18
2
1.59544e-17
2
1.29337e-16
2
2.16e-16
2
4.24229e-17
2
2.61125e-17
2
-9.31905e-17
2
1.50295e-16
2
1.79881e-16
2
-4.86154e-18
2
3.59183e-17
2
7.2988e-17
2
8.22055e-17
2
9.88005e-17
2
2.5146e-17
2
6.52499e-17
2
1.34582e-16
2
1.7626e-18
2
-3.71107e-17
2
-1.17737e-16
2
9.78151e-17
2
9.69684e-17
2
1.34655e-16
2
1.9568e-16
2
2.83995e-16
2
1.11694e-17
2
-6.76672e-17
2
-6.90716e-17
2
1.21209e-16
2
2.92734e-16
2
3.73141e-16
2
3.35909e-16
2
2.78076e-16
2
5.23676e-18
2
8.79385e-17
2
2.57377e-16
2
3.69108e-16
2
2.91316e-16
2
2.30286e-16
2
2.3898e-16
2
1.85685e-16
2
1.19264e-16
2
2.0289e-16
3.66698e-17
2
-6.22948e-17
2
9.9007e-17
2
-3.75235e-17
2
-2.47889e-16
2
-9.56069e-17
2
-3.4328e-16
2
-4.10447e-17
2
1.02812e-17
2
-1.83924e-17
2
-2.8453e-17
2
-6.37519e-17
2
-1.39501e-16
2
2.43988e-17
2
-6.0061e-17
2
-8.14647e-17
2
-8.47436e-17
2
2.32355e-17
2
-5.66958e-17
2
1.19482e-17
2
6.29641e-17
2
6.79652e-18
2
-7.11369e-17
2
-9.53722e-17
2
-1.11902e-16
2
1.81077e-16
2
5.36015e-17
2
-3.9338e-17
2
4.1434e-17
2
2.79421e-17
2
-5.89569e-17
2
1.23425e-16
2
1.45406e-16
2
1.89808e-16
2
1.55077e-16
2
-8.95736e-18
2
1.85071e-16
2
2.72596e-16
2
4.41236e-16
2
3.77209e-16
2
3.00067e-16
2
1.83884e-16
2
-8.78477e-17
2
-9.29957e-17
2
-3.67965e-17
2
-1.17251e-16
2
-4.97375e-16
2
-4.72867e-16
2
-2.32968e-16
2
-8.18575e-17
2
-2.28166e-16
2
-2.11032e-16
2
-2.09152e-16
2
-5.61264e-17
2
-2.90861e-16
2
-1.19693e-16
2
1.40643e-16
2
1.12498e-16
2
7.08946e-17
2
4.06254e-17
2
-5.1122e-17
2
-8.42481e-17
2
-1.11226e-16
2
-1.3099e-16
2
-7.84764e-17
2
1.43015e-16
2
1.65096e-16
2
7.93833e-17
2
1.2695e-16
2
-1.07963e-16
2
-1.34567e-16
2
-5.1041e-16
2
-5.22671e-16
2
-4.68853e-16
2
-5.0856e-16
2
-5.43024e-16
2
-3.71923e-16
2
-2.02917e-16
2
-2.24937e-16
2
-1.52146e-16
2
-8.98413e-17
2
9.75681e-17
2
5.09437e-17
2
1.71045e-17
2
6.73724e-17
2
1.89739e-16
2
1.84187e-16
2
8.87579e-17
2
1.65865e-16
2
1.78899e-18
2
8.41405e-17
2
7.81322e-17
2
3.28746e-17
2
2.06401e-16
2
1.79034e-16
2
2.70543e-17
2
2.51708e-17
2
7.09343e-17
2
1.56581e-16
2
6.05664e-17
2
5.44094e-17
2
1.2525e-16
2
1.71084e-16
2
2.08984e-16
2
3.53698e-16
2
1.79426e-16
2
9.10231e-17
2
1.93004e-16
2
-7.17771e-17
2
-5.82238e-17
2
4.54894e-17
2
7.80275e-17
2
-2.66111e-17
2
8.89414e-17
2
1.14809e-16
2
8.89613e-18
2
-1.71401e-16
2
-2.12029e-16
2
-1.02669e-16
2
-3.8088e-16
2
-2.99709e-16
2
-4.59844e-16
2
-2.31166e-16
2
-5.5177e-17
2
-1.79828e-16
2
-3.4453e-16
2
-3.1617e-16
2
-3.73385e-16
2
-2.82393e-16
2
-1.79196e-16
2
2.46988e-18
2
3.35519e-17
2
-9.92141e-17
2
-1.45354e-16
2
-2.11595e-17
2
-1.70637e-16
2
-9.4866e-17
2
-1.98247e-16
2
-3.28209e-16
2
-2.50368e-16
2
-2.59952e-16
2
-1.72988e-16
2
-1.42345e-16
2
-9.14143e-17
2
-1.79589e-16
2
-9.30772e-17
2
-1.55927e-16
2
-1.5257e-16
2
-1.56917e-16
2
1.33831e-17
2
8.96836e-17
2
-7.33458e-17
2
-8.53948e-17
2
-1.75443e-16
2
-3.2799e-16
2
-1.34085e-16
2
1.62173e-17
2
9.45812e-17
2
1.54845e-16
2
2.46471e-16
2
2.08888e-16
2
2.99731e-16
2
1.69289e-16
2
9.65632e-17
2
1.92941e-16
2
9.54357e-17
2
1.48052e-16
2
1.25195e-16
2
2.64666e-16
2
3.22462e-16
2
3.18067e-16
2
3.37973e-16
2
2.45272e-16
2
4.71599e-17
2
1.55654e-16
2
2.28234e-16
2
-2.50928e-17
2
-1.26193e-16
2
1.12262e-16
2
-3.02513e-17
2
-5.9095e-17
2
-7.66412e-17
2
-1.35604e-16
2
-2.33088e-16
2
-9.1543e-17
2
2.75471e-16
2
3.59937e-16
2
2.31868e-16
2
1.93481e-16
2
2.00938e-16
2
2.48574e-16
2
1.42469e-16
2
1.48927e-16
2
1.47457e-16
2
2.76979e-16
2
2.7662e-16
2
2.04862e-16
2
6.46037e-17
2
1.0386e-16
2
8.04946e-17
2.56479e-16
2
8.5791e-17
2
-1.42174e-16
2
-1.15861e-17
2
8.42381e-17
2
-1.27395e-17
2
-3.20884e-18
2
1.38538e-16
2
1.40294e-18
2
-1.07704e-16
2
-3.87003e-17
2
-1.42413e-18
2
8.71485e-17
2
7.25963e-17
2
-9.25073e-17
2
-2.66928e-16
2
-1.40599e-16
2
-9.87309e-18
2
9.03419e-17
2
-5.93389e-18
2
-5.72684e-17
2
-2.0171e-16
2
-1.75143e-16
2
-1.79069e-16
2
-8.37302e-17
2
-3.40828e-16
2
-4.5032e-17
2
1.8211e-16
2
2.54043e-16
2
5.92689e-17
2
8.86513e-17
2
1.05668e-16
2
3.17004e-16
2
4.67679e-16
2
4.08969e-16
2
2.6781e-16
2
1.96342e-16
2
2.09278e-16
2
1.57742e-16
2
2.05749e-16
2
9.35699e-17
2
2.14008e-16
2
1.78341e-16
2
1.47431e-16
2
7.90046e-17
2
-4.32039e-17
2
1.22483e-16
2
-1.46816e-16
2
-2.02299e-16
2
-2.32142e-16
2
-2.20804e-16
2
-1.37176e-16
2
-3.79996e-16
2
-6.18706e-16
2
-3.93645e-16
2
-3.87292e-16
2
-3.55914e-16
2
-2.30976e-16
2