TITLE = "Visualization of the volumetric solution"
VARIABLES = "x","y","Density","Momentum_x","Momentum_y","Energy","Pressure","Temperature","Mach","C<sub>p</sub>","Roe_Dissipation"
ZONE NODES= 2368, ELEMENTS= 4532, DATAPACKING=POINT, ZONETYPE=FEQUADRILATERAL
4.768107e-02	1.220150e-03	1.228216e+00	6.051816e+01	-1.513527e+01	2.558052e+05	1.016884e+05	2.884210e+02	1.491842e-01	3.031594e-01	0.000000e+00	
4.569681e-02	1.963462e-03	1.228205e+00	6.051553e+01	-1.513279e+01	2.558030e+05	1.016876e+05	2.884212e+02	1.491779e-01	3.024751e-01	0.000000e+00	
4.745044e-02	2.995146e-03	1.228217e+00	6.051787e+01	-1.513413e+01	2.558047e+05	1.016882e+05	2.884203e+02	1.491829e-01	3.029893e-01	0.000000e+00	
4.954719e-02	2.004144e-03	1.228214e+00	6.051667e+01	-1.513451e+01	2.558042e+05	1.016880e+05	2.884205e+02	1.491807e-01	3.028546e-01	0.000000e+00	
4.569681e-02	3.926923e-03	1.228225e+00	6.052333e+01	-1.513478e+01	2.558059e+05	1.016886e+05	2.884195e+02	1.491952e-01	3.033210e-01	0.000000e+00	
5.159399e-02	1.165041e-03	1.228215e+00	6.051673e+01	-1.513527e+01	2.558046e+05	1.016882e+05	2.884207e+02	1.491811e-01	3.029861e-01	0.000000e+00	
4.945755e-02	4.022997e-03	1.228217e+00	6.051685e+01	-1.513315e+01	2.558045e+05	1.016881e+05	2.884201e+02	1.491800e-01	3.029590e-01	0.000000e+00	
4.735376e-02	4.959046e-03	1.228216e+00	6.051959e+01	-1.513076e+01	2.558041e+05	1.016880e+05	2.884199e+02	1.491852e-01	3.028040e-01	0.000000e+00	
5.146586e-02	3.079064e-03	1.228217e+00	6.051501e+01	-1.513426e+01	2.558045e+05	1.016882e+05	2.884203e+02	1.491764e-01	3.029967e-01	0.000000e+00	
4.569681e-02	5.890385e-03	1.228214e+00	6.051981e+01	-1.512667e+01	2.558039e+05	1.016879e+05	2.884201e+02	1.491835e-01	3.027267e-01	0.000000e+00	
5.347195e-02	2.069816e-03	1.228217e+00	6.051456e+01	-1.513507e+01	2.558046e+05	1.016882e+05	2.884204e+02	1.491758e-01	3.030133e-01	0.000000e+00	
5.138027e-02	5.088540e-03	1.228218e+00	6.051690e+01	-1.513368e+01	2.558047e+05	1.016882e+05	2.884202e+02	1.491804e-01	3.030284e-01	0.000000e+00	
4.939854e-02	6.015006e-03	1.228218e+00	6.051792e+01	-1.513239e+01	2.558048e+05	1.016883e+05	2.884203e+02	1.491819e-01	3.030594e-01	0.000000e+00	
4.731945e-02	6.927681e-03	1.228217e+00	6.051797e+01	-1.513029e+01	2.558049e+05	1.016883e+05	2.884205e+02	1.491808e-01	3.030844e-01	0.000000e+00	
5.330192e-02	4.140638e-03	1.228217e+00	6.051556e+01	-1.513449e+01	2.558046e+05	1.016882e+05	2.884203e+02	1.491778e-01	3.030041e-01	0.000000e+00	
4.569681e-02	7.853846e-03	1.228215e+00	6.051769e+01	-1.512782e+01	2.558046e+05	1.016882e+05	2.884207e+02	1.491789e-01	3.030051e-01	0.000000e+00	
5.520820e-02	3.178327e-03	1.228217e+00	6.051437e+01	-1.513528e+01	2.558046e+05	1.016882e+05	2.884203e+02	1.491754e-01	3.030200e-01	0.000000e+00	
5.552752e-02	1.199090e-03	1.228216e+00	6.051429e+01	-1.513589e+01	2.558045e+05	1.016882e+05	2.884205e+02	1.491757e-01	3.029736e-01	0.000000e+00	
5.132909e-02	7.076554e-03	1.228216e+00	6.051956e+01	-1.513375e+01	2.558049e+05	1.016882e+05	2.884205e+02	1.491866e-01	3.030413e-01	0.000000e+00	
5.320813e-02	6.149496e-03	1.228217e+00	6.051856e+01	-1.513465e+01	2.558049e+05	1.016883e+05	2.884204e+02	1.491848e-01	3.030469e-01	0.000000e+00	
4.936665e-02	7.990023e-03	1.228216e+00	6.052024e+01	-1.513262e+01	2.558050e+05	1.016883e+05	2.884207e+02	1.491876e-01	3.030564e-01	0.000000e+00	
4.730602e-02	8.893408e-03	1.228217e+00	6.052067e+01	-1.513126e+01	2.558052e+05	1.016884e+05	2.884208e+02	1.491876e-01	3.031435e-01	0.000000e+00	
5.504298e-02	5.206360e-03	1.228217e+00	6.051725e+01	-1.513528e+01	2.558048e+05	1.016882e+05	2.884204e+02	1.491821e-01	3.030373e-01	0.000000e+00	
4.569681e-02	9.817308e-03	1.228218e+00	6.052150e+01	-1.512990e+01	2.558056e+05	1.016885e+05	2.884209e+02	1.491886e-01	3.032554e-01	0.000000e+00	
5.707174e-02	2.163413e-03	1.228217e+00	6.051353e+01	-1.513564e+01	2.558045e+05	1.016882e+05	2.884204e+02	1.491737e-01	3.030200e-01	0.000000e+00	
5.683942e-02	4.240962e-03	1.228217e+00	6.051585e+01	-1.513572e+01	2.558047e+05	1.016882e+05	2.884204e+02	1.491791e-01	3.030359e-01	0.000000e+00	
5.315858e-02	8.128032e-03	1.228216e+00	6.052230e+01	-1.513538e+01	2.558052e+05	1.016883e+05	2.884207e+02	1.491939e-01	3.030816e-01	0.000000e+00	
5.129995e-02	9.047996e-03	1.228216e+00	6.052324e+01	-1.513472e+01	2.558053e+05	1.016883e+05	2.884208e+02	1.491957e-01	3.031100e-01	0.000000e+00	
5.496222e-02	7.195605e-03	1.228216e+00	6.052122e+01	-1.513588e+01	2.558051e+05	1.016883e+05	2.884206e+02	1.491917e-01	3.030629e-01	0.000000e+00	
4.934950e-02	9.957488e-03	1.228216e+00	6.052409e+01	-1.513374e+01	2.558054e+05	1.016884e+05	2.884209e+02	1.491970e-01	3.031424e-01	0.000000e+00	
4.729889e-02	1.085858e-02	1.228217e+00	6.052465e+01	-1.513243e+01	2.558056e+05	1.016884e+05	2.884210e+02	1.491975e-01	3.031902e-01	0.000000e+00	
5.673690e-02	6.246236e-03	1.228217e+00	6.051989e+01	-1.513625e+01	2.558050e+05	1.016883e+05	2.884206e+02	1.491888e-01	3.030509e-01	0.000000e+00	
4.569681e-02	1.178077e-02	1.228218e+00	6.052458e+01	-1.513127e+01	2.558059e+05	1.016886e+05	2.884211e+02	1.491965e-01	3.032935e-01	0.000000e+00	
5.861605e-02	1.517465e-03	1.228217e+00	6.051348e+01	-1.513567e+01	2.558046e+05	1.016882e+05	2.884204e+02	1.491736e-01	3.030245e-01	0.000000e+00	
5.853985e-02	3.284818e-03	1.228217e+00	6.051463e+01	-1.513594e+01	2.558047e+05	1.016882e+05	2.884203e+02	1.491764e-01	3.030381e-01	0.000000e+00	
5.847590e-02	5.279078e-03	1.228217e+00	6.051840e+01	-1.513648e+01	2.558049e+05	1.016882e+05	2.884205e+02	1.491855e-01	3.030421e-01	0.000000e+00	
5.492197e-02	9.164404e-03	1.228216e+00	6.052520e+01	-1.513672e+01	2.558053e+05	1.016883e+05	2.884209e+02	1.492014e-01	3.030865e-01	0.000000e+00	
5.313206e-02	1.009490e-02	1.228216e+00	6.052615e+01	-1.513624e+01	2.558054e+05	1.016883e+05	2.884209e+02	1.492033e-01	3.031085e-01	0.000000e+00	
5.128311e-02	1.101487e-02	1.228216e+00	6.052692e+01	-1.513558e+01	2.558056e+05	1.016884e+05	2.884210e+02	1.492047e-01	3.031397e-01	0.000000e+00	
5.668659e-02	8.221332e-03	1.228216e+00	6.052411e+01	-1.513705e+01	2.558052e+05	1.016883e+05	2.884208e+02	1.491991e-01	3.030716e-01	0.000000e+00	
4.933923e-02	1.192438e-02	1.228217e+00	6.052727e+01	-1.513473e+01	2.558057e+05	1.016884e+05	2.884210e+02	1.492049e-01	3.031973e-01	0.000000e+00	
4.729396e-02	1.282431e-02	1.228217e+00	6.052696e+01	-1.513377e+01	2.558059e+05	1.016885e+05	2.884211e+02	1.492036e-01	3.032606e-01	0.000000e+00	
5.843711e-02	7.261712e-03	1.228216e+00	6.052285e+01	-1.513728e+01	2.558052e+05	1.016883e+05	2.884207e+02	1.491963e-01	3.030605e-01	0.000000e+00	
4.569681e-02	1.374423e-02	1.228218e+00	6.052615e+01	-1.513321e+01	2.558061e+05	1.016886e+05	2.884212e+02	1.492012e-01	3.033533e-01	0.000000e+00	
6.009394e-02	2.184318e-03	1.228217e+00	6.051379e+01	-1.513607e+01	2.558046e+05	1.016882e+05	2.884204e+02	1.491746e-01	3.030166e-01	0.000000e+00	
6.016119e-02	4.266586e-03	1.228217e+00	6.051684e+01	-1.513663e+01	2.558048e+05	1.016882e+05	2.884204e+02	1.491820e-01	3.030383e-01	0.000000e+00	
6.016698e-02	6.275993e-03	1.228216e+00	6.052137e+01	-1.513741e+01	2.558050e+05	1.016883e+05	2.884206e+02	1.491929e-01	3.030484e-01	0.000000e+00	
5.666166e-02	1.018625e-02	1.228216e+00	6.052767e+01	-1.513784e+01	2.558055e+05	1.016883e+05	2.884209e+02	1.492078e-01	3.030930e-01	0.000000e+00	
5.490158e-02	1.112944e-02	1.228216e+00	6.052841e+01	-1.513747e+01	2.558056e+05	1.016883e+05	2.884210e+02	1.492093e-01	3.031149e-01	0.000000e+00	
5.311758e-02	1.206180e-02	1.228216e+00	6.052892e+01	-1.513698e+01	2.558057e+05	1.016884e+05	2.884210e+02	1.492101e-01	3.031442e-01	0.000000e+00	
5.127318e-02	1.298314e-02	1.228216e+00	6.052908e+01	-1.513635e+01	2.558058e+05	1.016884e+05	2.884210e+02	1.492101e-01	3.031772e-01	0.000000e+00	
5.841588e-02	9.230133e-03	1.228216e+00	6.052676e+01	-1.513808e+01	2.558054e+05	1.016883e+05	2.884209e+02	1.492059e-01	3.030749e-01	0.000000e+00	
4.933276e-02	1.389236e-02	1.228217e+00	6.052870e+01	-1.513566e+01	2.558059e+05	1.016885e+05	2.884211e+02	1.492087e-01	3.032309e-01	0.000000e+00	
4.729041e-02	1.479025e-02	1.228218e+00	6.052780e+01	-1.513508e+01	2.558061e+05	1.016885e+05	2.884211e+02	1.492062e-01	3.032927e-01	0.000000e+00	
6.172056e-02	1.220216e-03	1.228217e+00	6.051340e+01	-1.513616e+01	2.558046e+05	1.016883e+05	2.884204e+02	1.491737e-01	3.030535e-01	0.000000e+00	
6.016320e-02	8.256398e-03	1.228216e+00	6.052567e+01	-1.513824e+01	2.558053e+05	1.016883e+05	2.884208e+02	1.492034e-01	3.030624e-01	0.000000e+00	
4.569681e-02	1.570769e-02	1.228218e+00	6.052673e+01	-1.513490e+01	2.558062e+05	1.016886e+05	2.884212e+02	1.492036e-01	3.033491e-01	0.000000e+00	
6.182036e-02	3.229436e-03	1.228217e+00	6.051541e+01	-1.513655e+01	2.558047e+05	1.016882e+05	2.884204e+02	1.491786e-01	3.030286e-01	0.000000e+00	
6.187469e-02	5.263666e-03	1.228216e+00	6.051974e+01	-1.513744e+01	2.558050e+05	1.016883e+05	2.884206e+02	1.491892e-01	3.030453e-01	0.000000e+00	
6.189623e-02	7.261205e-03	1.228216e+00	6.052434e+01	-1.513831e+01	2.558052e+05	1.016883e+05	2.884208e+02	1.492004e-01	3.030497e-01	0.000000e+00	
5.840547e-02	1.119679e-02	1.228216e+00	6.052953e+01	-1.513871e+01	2.558056e+05	1.016883e+05	2.884209e+02	1.492127e-01	3.030918e-01	0.000000e+00	
5.664976e-02	1.215307e-02	1.228216e+00	6.053001e+01	-1.513840e+01	2.558057e+05	1.016883e+05	2.884210e+02	1.492135e-01	3.031118e-01	0.000000e+00	
5.489151e-02	1.309790e-02	1.228216e+00	6.053026e+01	-1.513801e+01	2.558058e+05	1.016884e+05	2.884210e+02	1.492139e-01	3.031364e-01	0.000000e+00	
5.310998e-02	1.403153e-02	1.228216e+00	6.053021e+01	-1.513756e+01	2.558058e+05	1.016884e+05	2.884210e+02	1.492134e-01	3.031697e-01	0.000000e+00	
5.126772e-02	1.495270e-02	1.228217e+00	6.052984e+01	-1.513708e+01	2.558059e+05	1.016884e+05	2.884210e+02	1.492122e-01	3.032059e-01	0.000000e+00	
6.016028e-02	1.022716e-02	1.228215e+00	6.052887e+01	-1.513893e+01	2.558055e+05	1.016883e+05	2.884209e+02	1.492113e-01	3.030748e-01	0.000000e+00	
4.932903e-02	1.586028e-02	1.228217e+00	6.052910e+01	-1.513664e+01	2.558061e+05	1.016885e+05	2.884211e+02	1.492102e-01	3.032614e-01	0.000000e+00	
4.728805e-02	1.675569e-02	1.228218e+00	6.052813e+01	-1.513635e+01	2.558062e+05	1.016886e+05	2.884211e+02	1.492077e-01	3.033145e-01	0.000000e+00	
6.351066e-02	2.156064e-03	1.228217e+00	6.051459e+01	-1.513652e+01	2.558047e+05	1.016882e+05	2.884204e+02	1.491767e-01	3.030352e-01	0.000000e+00	
6.190616e-02	9.241864e-03	1.228215e+00	6.052803e+01	-1.513906e+01	2.558054e+05	1.016883e+05	2.884209e+02	1.492094e-01	3.030620e-01	0.000000e+00	
4.569681e-02	1.767115e-02	1.228218e+00	6.052734e+01	-1.513634e+01	2.558063e+05	1.016886e+05	2.884212e+02	1.492058e-01	3.033637e-01	0.000000e+00	
6.357322e-02	4.225600e-03	1.228217e+00	6.051817e+01	-1.513731e+01	2.558048e+05	1.016882e+05	2.884205e+02	1.491855e-01	3.030349e-01	0.000000e+00	
6.361211e-02	6.240246e-03	1.228216e+00	6.052285e+01	-1.513829e+01	2.558051e+05	1.016882e+05	2.884207e+02	1.491969e-01	3.030417e-01	0.000000e+00	
6.363607e-02	8.238880e-03	1.228215e+00	6.052696e+01	-1.513911e+01	2.558053e+05	1.016883e+05	2.884208e+02	1.492070e-01	3.030493e-01	0.000000e+00	
6.015983e-02	1.219919e-02	1.228215e+00	6.053080e+01	-1.513939e+01	2.558057e+05	1.016883e+05	2.884209e+02	1.492160e-01	3.030880e-01	0.000000e+00	
5.840149e-02	1.316764e-02	1.228216e+00	6.053104e+01	-1.513913e+01	2.558057e+05	1.016883e+05	2.884209e+02	1.492164e-01	3.031070e-01	0.000000e+00	
5.664495e-02	1.412409e-02	1.228216e+00	6.053109e+01	-1.513882e+01	2.558058e+05	1.016884e+05	2.884210e+02	1.492163e-01	3.031304e-01	0.000000e+00	
5.488731e-02	1.506901e-02	1.228216e+00	6.053094e+01	-1.513847e+01	2.558059e+05	1.016884e+05	2.884210e+02	1.492157e-01	3.031570e-01	0.000000e+00	
5.310680e-02	1.600187e-02	1.228217e+00	6.053057e+01	-1.513813e+01	2.558059e+05	1.016884e+05	2.884210e+02	1.492146e-01	3.031906e-01	0.000000e+00	
5.126546e-02	1.692136e-02	1.228217e+00	6.053004e+01	-1.513781e+01	2.558060e+05	1.016885e+05	2.884210e+02	1.492131e-01	3.032258e-01	0.000000e+00	
6.191225e-02	1.121806e-02	1.228215e+00	6.053039e+01	-1.513958e+01	2.558056e+05	1.016883e+05	2.884209e+02	1.492152e-01	3.030712e-01	0.000000e+00	
4.932741e-02	1.782678e-02	1.228218e+00	6.052931e+01	-1.513755e+01	2.558061e+05	1.016885e+05	2.884211e+02	1.492112e-01	3.032769e-01	0.000000e+00	
4.728663e-02	1.872021e-02	1.228218e+00	6.052853e+01	-1.513739e+01	2.558062e+05	1.016886e+05	2.884211e+02	1.492092e-01	3.033230e-01	0.000000e+00	
6.525732e-02	3.183370e-03	1.228217e+00	6.051671e+01	-1.513719e+01	2.558048e+05	1.016882e+05	2.884204e+02	1.491820e-01	3.030311e-01	0.000000e+00	
6.495144e-02	1.446441e-03	1.228217e+00	6.051381e+01	-1.513663e+01	2.558045e+05	1.016882e+05	2.884204e+02	1.491750e-01	3.030064e-01	0.000000e+00	
6.365060e-02	1.022415e-02	1.228215e+00	6.052982e+01	-1.513971e+01	2.558055e+05	1.016883e+05	2.884209e+02	1.492140e-01	3.030579e-01	0.000000e+00	
4.569681e-02	1.963462e-02	1.228219e+00	6.052792e+01	-1.513740e+01	2.558063e+05	1.016886e+05	2.884211e+02	1.492077e-01	3.033656e-01	0.000000e+00	
6.531005e-02	5.183434e-03	1.228216e+00	6.052122e+01	-1.513817e+01	2.558050e+05	1.016882e+05	2.884206e+02	1.491931e-01	3.030284e-01	0.000000e+00	
6.534854e-02	7.215670e-03	1.228215e+00	6.052570e+01	-1.513911e+01	2.558053e+05	1.016882e+05	2.884208e+02	1.492040e-01	3.030414e-01	0.000000e+00	
6.537191e-02	9.218092e-03	1.228215e+00	6.052905e+01	-1.513977e+01	2.558054e+05	1.016883e+05	2.884209e+02	1.492122e-01	3.030446e-01	0.000000e+00	
6.191738e-02	1.319600e-02	1.228215e+00	6.053163e+01	-1.513992e+01	2.558057e+05	1.016883e+05	2.884209e+02	1.492182e-01	3.030817e-01	0.000000e+00	
6.016157e-02	1.417452e-02	1.228216e+00	6.053171e+01	-1.513971e+01	2.558057e+05	1.016883e+05	2.884209e+02	1.492183e-01	3.030994e-01	0.000000e+00	
5.840139e-02	1.514124e-02	1.228216e+00	6.053166e+01	-1.513946e+01	2.558058e+05	1.016883e+05	2.884209e+02	1.492180e-01	3.031204e-01	0.000000e+00	
5.664426e-02	1.609616e-02	1.228216e+00	6.053148e+01	-1.513920e+01	2.558059e+05	1.016884e+05	2.884209e+02	1.492174e-01	3.031449e-01	0.000000e+00	
5.488674e-02	1.703933e-02	1.228217e+00	6.053119e+01	-1.513896e+01	2.558059e+05	1.016884e+05	2.884210e+02	1.492165e-01	3.031725e-01	0.000000e+00	
5.310657e-02	1.797015e-02	1.228217e+00	6.053078e+01	-1.513874e+01	2.558060e+05	1.016884e+05	2.884210e+02	1.492154e-01	3.032066e-01	0.000000e+00	
5.126545e-02	1.888758e-02	1.228217e+00	6.053028e+01	-1.513855e+01	2.558061e+05	1.016885e+05	2.884210e+02	1.492141e-01	3.032407e-01	0.000000e+00	
6.366044e-02	1.220640e-02	1.228215e+00	6.053141e+01	-1.514010e+01	2.558056e+05	1.016883e+05	2.884209e+02	1.492179e-01	3.030658e-01	0.000000e+00	
4.932726e-02	1.979133e-02	1.228218e+00	6.052964e+01	-1.513840e+01	2.558062e+05	1.016885e+05	2.884211e+02	1.492124e-01	3.032903e-01	0.000000e+00	
4.728583e-02	2.068383e-02	1.228218e+00	6.052895e+01	-1.513830e+01	2.558063e+05	1.016886e+05	2.884211e+02	1.492107e-01	3.033293e-01	0.000000e+00	
6.700099e-02	4.036072e-03	1.228216e+00	6.051953e+01	-1.513794e+01	2.558049e+05	1.016882e+05	2.884205e+02	1.491890e-01	3.030178e-01	0.000000e+00	
6.690713e-02	1.956953e-03	1.228217e+00	6.051514e+01	-1.513700e+01	2.558047e+05	1.016882e+05	2.884204e+02	1.491782e-01	3.030346e-01	0.000000e+00	
6.538693e-02	1.120757e-02	1.228215e+00	6.053107e+01	-1.514022e+01	2.558056e+05	1.016883e+05	2.884209e+02	1.492172e-01	3.030528e-01	0.000000e+00	
4.569681e-02	2.159808e-02	1.228219e+00	6.052838e+01	-1.513826e+01	2.558064e+05	1.016886e+05	2.884211e+02	1.492093e-01	3.033696e-01	0.000000e+00	
6.705003e-02	6.168320e-03	1.228216e+00	6.052424e+01	-1.513900e+01	2.558052e+05	1.016882e+05	2.884207e+02	1.492006e-01	3.030309e-01	0.000000e+00	
6.707943e-02	8.201515e-03	1.228215e+00	6.052810e+01	-1.513978e+01	2.558054e+05	1.016882e+05	2.884208e+02	1.492100e-01	3.030348e-01	0.000000e+00	
6.709851e-02	1.020248e-02	1.228215e+00	6.053057e+01	-1.514030e+01	2.558055e+05	1.016882e+05	2.884209e+02	1.492161e-01	3.030397e-01	0.000000e+00	
6.366831e-02	1.418895e-02	1.228215e+00	6.053221e+01	-1.514037e+01	2.558057e+05	1.016883e+05	2.884209e+02	1.492198e-01	3.030737e-01	0.000000e+00	
6.192263e-02	1.517477e-02	1.228216e+00	6.053224e+01	-1.514020e+01	2.558057e+05	1.016883e+05	2.884209e+02	1.492198e-01	3.030904e-01	0.000000e+00	
6.016494e-02	1.614990e-02	1.228216e+00	6.053218e+01	-1.514002e+01	2.558058e+05	1.016883e+05	2.884209e+02	1.492195e-01	3.031098e-01	0.000000e+00	
5.840369e-02	1.711356e-02	1.228216e+00	6.053205e+01	-1.513984e+01	2.558058e+05	1.016884e+05	2.884209e+02	1.492191e-01	3.031315e-01	0.000000e+00	
5.664610e-02	1.806572e-02	1.228216e+00	6.053186e+01	-1.513967e+01	2.558059e+05	1.016884e+05	2.884209e+02	1.492185e-01	3.031566e-01	0.000000e+00	
5.488847e-02	1.900642e-02	1.228217e+00	6.053160e+01	-1.513953e+01	2.558060e+05	1.016884e+05	2.884210e+02	1.492178e-01	3.031839e-01	0.000000e+00	
5.310826e-02	1.993519e-02	1.228217e+00	6.053127e+01	-1.513943e+01	2.558061e+05	1.016885e+05	2.884210e+02	1.492169e-01	3.032167e-01	0.000000e+00	
5.126688e-02	2.085116e-02	1.228217e+00	6.053084e+01	-1.513936e+01	2.558061e+05	1.016885e+05	2.884210e+02	1.492158e-01	3.032496e-01	0.000000e+00	
6.539782e-02	1.319431e-02	1.228215e+00	6.053210e+01	-1.514051e+01	2.558056e+05	1.016883e+05	2.884209e+02	1.492197e-01	3.030584e-01	0.000000e+00	
4.932801e-02	2.175422e-02	1.228218e+00	6.053023e+01	-1.513932e+01	2.558062e+05	1.016886e+05	2.884211e+02	1.492143e-01	3.032966e-01	0.000000e+00	
4.728541e-02	2.264680e-02	1.228218e+00	6.052951e+01	-1.513928e+01	2.558063e+05	1.016886e+05	2.884211e+02	1.492126e-01	3.033369e-01	0.000000e+00	
6.866492e-02	3.056624e-03	1.228216e+00	6.051810e+01	-1.513782e+01	2.558048e+05	1.016882e+05	2.884205e+02	1.491856e-01	3.030209e-01	0.000000e+00	
6.874578e-02	5.124854e-03	1.228216e+00	6.052279e+01	-1.513883e+01	2.558051e+05	1.016882e+05	2.884207e+02	1.491971e-01	3.030268e-01	0.000000e+00	
6.870691e-02	1.392898e-03	1.228216e+00	6.051468e+01	-1.513702e+01	2.558045e+05	1.016882e+05	2.884204e+02	1.491772e-01	3.029917e-01	0.000000e+00	
6.711202e-02	1.219390e-02	1.228215e+00	6.053191e+01	-1.514062e+01	2.558056e+05	1.016883e+05	2.884209e+02	1.492194e-01	3.030455e-01	0.000000e+00	
4.569681e-02	2.356154e-02	1.228218e+00	6.052893e+01	-1.513928e+01	2.558064e+05	1.016886e+05	2.884211e+02	1.492112e-01	3.033571e-01	0.000000e+00	
6.878053e-02	7.182613e-03	1.228215e+00	6.052697e+01	-1.513970e+01	2.558053e+05	1.016882e+05	2.884208e+02	1.492074e-01	3.030215e-01	0.000000e+00	
6.880084e-02	9.196034e-03	1.228215e+00	6.052993e+01	-1.514034e+01	2.558054e+05	1.016882e+05	2.884209e+02	1.492146e-01	3.030305e-01	0.000000e+00	
6.881523e-02	1.119173e-02	1.228215e+00	6.053162e+01	-1.514071e+01	2.558055e+05	1.016882e+05	2.884209e+02	1.492187e-01	3.030323e-01	0.000000e+00	
6.367549e-02	1.616939e-02	1.228216e+00	6.053282e+01	-1.514066e+01	2.558057e+05	1.016883e+05	2.884209e+02	1.492214e-01	3.030803e-01	0.000000e+00	
6.540682e-02	1.517925e-02	1.228215e+00	6.053277e+01	-1.514077e+01	2.558057e+05	1.016883e+05	2.884209e+02	1.492214e-01	3.030647e-01	0.000000e+00	
6.192826e-02	1.715068e-02	1.228216e+00	6.053284e+01	-1.514055e+01	2.558058e+05	1.016883e+05	2.884209e+02	1.492214e-01	3.030980e-01	0.000000e+00	
6.016944e-02	1.812166e-02	1.228216e+00	6.053282e+01	-1.514044e+01	2.558059e+05	1.016883e+05	2.884209e+02	1.492212e-01	3.031177e-01	0.000000e+00	
5.840746e-02	1.908181e-02	1.228216e+00	6.053276e+01	-1.514035e+01	2.558059e+05	1.016884e+05	2.884209e+02	1.492210e-01	3.031397e-01	0.000000e+00	
5.664946e-02	2.003117e-02	1.228217e+00	6.053266e+01	-1.514029e+01	2.558060e+05	1.016884e+05	2.884209e+02	1.492207e-01	3.031647e-01	0.000000e+00	
5.489159e-02	2.096982e-02	1.228217e+00	6.053252e+01	-1.514027e+01	2.558061e+05	1.016884e+05	2.884210e+02	1.492203e-01	3.031912e-01	0.000000e+00	
5.311109e-02	2.189730e-02	1.228217e+00	6.053228e+01	-1.514030e+01	2.558061e+05	1.016885e+05	2.884210e+02	1.492197e-01	3.032234e-01	0.000000e+00	
5.126915e-02	2.281276e-02	1.228217e+00	6.053195e+01	-1.514037e+01	2.558062e+05	1.016885e+05	2.884210e+02	1.492190e-01	3.032534e-01	0.000000e+00	
6.712273e-02	1.418270e-02	1.228215e+00	6.053268e+01	-1.514088e+01	2.558057e+05	1.016883e+05	2.884209e+02	1.492213e-01	3.030502e-01	0.000000e+00	
4.932927e-02	2.371604e-02	1.228218e+00	6.053140e+01	-1.514048e+01	2.558063e+05	1.016886e+05	2.884211e+02	1.492177e-01	3.033033e-01	0.000000e+00	
4.728517e-02	2.460944e-02	1.228218e+00	6.053071e+01	-1.514059e+01	2.558064e+05	1.016886e+05	2.884211e+02	1.492161e-01	3.033401e-01	0.000000e+00	
7.049479e-02	4.096815e-03	1.228216e+00	6.052132e+01	-1.513861e+01	2.558049e+05	1.016882e+05	2.884206e+02	1.491936e-01	3.030021e-01	0.000000e+00	
7.057211e-02	1.818122e-03	1.228217e+00	6.051649e+01	-1.513768e+01	2.558047e+05	1.016882e+05	2.884204e+02	1.491818e-01	3.030247e-01	0.000000e+00	
7.049332e-02	6.170961e-03	1.228215e+00	6.052579e+01	-1.513961e+01	2.558052e+05	1.016882e+05	2.884208e+02	1.492046e-01	3.030180e-01	0.000000e+00	
6.882682e-02	1.318296e-02	1.228215e+00	6.053255e+01	-1.514097e+01	2.558056e+05	1.016882e+05	2.884209e+02	1.492210e-01	3.030376e-01	0.000000e+00	
4.569681e-02	2.552500e-02	1.228219e+00	6.053016e+01	-1.514058e+01	2.558065e+05	1.016887e+05	2.884212e+02	1.492147e-01	3.033814e-01	0.000000e+00	
7.050271e-02	8.193777e-03	1.228215e+00	6.052913e+01	-1.514031e+01	2.558054e+05	1.016882e+05	2.884208e+02	1.492128e-01	3.030169e-01	0.000000e+00	
7.051338e-02	1.019209e-02	1.228215e+00	6.053122e+01	-1.514076e+01	2.558055e+05	1.016882e+05	2.884209e+02	1.492179e-01	3.030220e-01	0.000000e+00	
7.052387e-02	1.218357e-02	1.228215e+00	6.053236e+01	-1.514105e+01	2.558056e+05	1.016882e+05	2.884209e+02	1.492207e-01	3.030250e-01	0.000000e+00	
6.541497e-02	1.715936e-02	1.228216e+00	6.053360e+01	-1.514113e+01	2.558058e+05	1.016883e+05	2.884209e+02	1.492235e-01	3.030695e-01	0.000000e+00	
6.368248e-02	1.814448e-02	1.228216e+00	6.053373e+01	-1.514108e+01	2.558058e+05	1.016883e+05	2.884209e+02	1.492238e-01	3.030859e-01	0.000000e+00	
6.713205e-02	1.616754e-02	1.228215e+00	6.053346e+01	-1.514119e+01	2.558057e+05	1.016883e+05	2.884208e+02	1.492232e-01	3.030549e-01	0.000000e+00	
6.193425e-02	1.912112e-02	1.228216e+00	6.053385e+01	-1.514104e+01	2.558059e+05	1.016883e+05	2.884209e+02	1.492240e-01	3.031037e-01	0.000000e+00	
6.017465e-02	2.008823e-02	1.228216e+00	6.053395e+01	-1.514103e+01	2.558059e+05	1.016883e+05	2.884209e+02	1.492242e-01	3.031235e-01	0.000000e+00	
5.841210e-02	2.104545e-02	1.228216e+00	6.053402e+01	-1.514104e+01	2.558060e+05	1.016884e+05	2.884209e+02	1.492243e-01	3.031451e-01	0.000000e+00	
5.665370e-02	2.199283e-02	1.228217e+00	6.053406e+01	-1.514109e+01	2.558061e+05	1.016884e+05	2.884210e+02	1.492244e-01	3.031692e-01	0.000000e+00	
5.489549e-02	2.293036e-02	1.228217e+00	6.053404e+01	-1.514120e+01	2.558062e+05	1.016884e+05	2.884210e+02	1.492244e-01	3.031944e-01	0.000000e+00	
5.311454e-02	2.385751e-02	1.228217e+00	6.053394e+01	-1.514137e+01	2.558062e+05	1.016885e+05	2.884210e+02	1.492242e-01	3.032248e-01	0.000000e+00	
5.127186e-02	2.477334e-02	1.228217e+00	6.053374e+01	-1.514160e+01	2.558063e+05	1.016885e+05	2.884210e+02	1.492238e-01	3.032539e-01	0.000000e+00	
6.883696e-02	1.517133e-02	1.228215e+00	6.053331e+01	-1.514125e+01	2.558057e+05	1.016882e+05	2.884208e+02	1.492229e-01	3.030410e-01	0.000000e+00	
4.933079e-02	2.567751e-02	1.228218e+00	6.053333e+01	-1.514190e+01	2.558064e+05	1.016886e+05	2.884211e+02	1.492230e-01	3.033003e-01	0.000000e+00	
4.728504e-02	2.657209e-02	1.228218e+00	6.053270e+01	-1.514224e+01	2.558066e+05	1.016886e+05	2.884211e+02	1.492216e-01	3.033510e-01	0.000000e+00	
7.227081e-02	3.147519e-03	1.228216e+00	6.052006e+01	-1.513853e+01	2.558049e+05	1.016882e+05	2.884205e+02	1.491906e-01	3.030137e-01	0.000000e+00	
7.222042e-02	5.185416e-03	1.228215e+00	6.052452e+01	-1.513944e+01	2.558051e+05	1.016882e+05	2.884207e+02	1.492015e-01	3.030037e-01	0.000000e+00	
7.220934e-02	7.202050e-03	1.228215e+00	6.052825e+01	-1.514025e+01	2.558053e+05	1.016882e+05	2.884208e+02	1.492107e-01	3.030097e-01	0.000000e+00	
7.244846e-02	1.399231e-03	1.228216e+00	6.051619e+01	-1.513770e+01	2.558046e+05	1.016882e+05	2.884204e+02	1.491812e-01	3.029889e-01	0.000000e+00	
7.053392e-02	1.417339e-02	1.228215e+00	6.053316e+01	-1.514131e+01	2.558056e+05	1.016882e+05	2.884208e+02	1.492227e-01	3.030285e-01	0.000000e+00	
4.569681e-02	2.748846e-02	1.228219e+00	6.053206e+01	-1.514276e+01	2.558066e+05	1.016887e+05	2.884212e+02	1.492204e-01	3.033812e-01	0.000000e+00	
7.221135e-02	9.198444e-03	1.228215e+00	6.053070e+01	-1.514077e+01	2.558054e+05	1.016882e+05	2.884209e+02	1.492167e-01	3.030104e-01	0.000000e+00	
7.221818e-02	1.118747e-02	1.228215e+00	6.053211e+01	-1.514111e+01	2.558055e+05	1.016882e+05	2.884209e+02	1.492201e-01	3.030139e-01	0.000000e+00	
7.222682e-02	1.317617e-02	1.228215e+00	6.053299e+01	-1.514136e+01	2.558056e+05	1.016882e+05	2.884208e+02	1.492223e-01	3.030163e-01	0.000000e+00	
6.542269e-02	1.913245e-02	1.228216e+00	6.053488e+01	-1.514162e+01	2.558058e+05	1.016883e+05	2.884209e+02	1.492268e-01	3.030735e-01	0.000000e+00	
6.714060e-02	1.814555e-02	1.228215e+00	6.053462e+01	-1.514162e+01	2.558058e+05	1.016883e+05	2.884208e+02	1.492262e-01	3.030584e-01	0.000000e+00	
6.368941e-02	2.011296e-02	1.228216e+00	6.053513e+01	-1.514164e+01	2.558059e+05	1.016883e+05	2.884209e+02	1.492273e-01	3.030897e-01	0.000000e+00	
6.884620e-02	1.715389e-02	1.228215e+00	6.053436e+01	-1.514163e+01	2.558057e+05	1.016883e+05	2.884208e+02	1.492256e-01	3.030445e-01	0.000000e+00	
6.194048e-02	2.108580e-02	1.228216e+00	6.053538e+01	-1.514168e+01	2.558060e+05	1.016883e+05	2.884209e+02	1.492279e-01	3.031074e-01	0.000000e+00	
6.018027e-02	2.205010e-02	1.228216e+00	6.053559e+01	-1.514175e+01	2.558060e+05	1.016884e+05	2.884209e+02	1.492284e-01	3.031267e-01	0.000000e+00	
5.841722e-02	2.300550e-02	1.228216e+00	6.053577e+01	-1.514185e+01	2.558061e+05	1.016884e+05	2.884209e+02	1.492289e-01	3.031475e-01	0.000000e+00	
5.665840e-02	2.395197e-02	1.228217e+00	6.053591e+01	-1.514200e+01	2.558062e+05	1.016884e+05	2.884210e+02	1.492292e-01	3.031703e-01	0.000000e+00	
5.489978e-02	2.488938e-02	1.228217e+00	6.053599e+01	-1.514222e+01	2.558063e+05	1.016884e+05	2.884210e+02	1.492295e-01	3.031937e-01	0.000000e+00	
5.311831e-02	2.581706e-02	1.228217e+00	6.053599e+01	-1.514250e+01	2.558063e+05	1.016885e+05	2.884210e+02	1.492296e-01	3.032225e-01	0.000000e+00	
5.127481e-02	2.673391e-02	1.228217e+00	6.053591e+01	-1.514286e+01	2.558064e+05	1.016885e+05	2.884210e+02	1.492296e-01	3.032486e-01	0.000000e+00	
7.054345e-02	1.615929e-02	1.228215e+00	6.053412e+01	-1.514164e+01	2.558057e+05	1.016882e+05	2.884208e+02	1.492251e-01	3.030313e-01	0.000000e+00	
4.933248e-02	2.763937e-02	1.228218e+00	6.053562e+01	-1.514334e+01	2.558066e+05	1.016886e+05	2.884211e+02	1.492291e-01	3.032940e-01	0.000000e+00	
4.728501e-02	2.853510e-02	1.228218e+00	6.053511e+01	-1.514402e+01	2.558067e+05	1.016886e+05	2.884211e+02	1.492283e-01	3.033441e-01	0.000000e+00	
7.394810e-02	2.138740e-03	1.228216e+00	6.051863e+01	-1.513825e+01	2.558047e+05	1.016882e+05	2.884205e+02	1.491872e-01	3.029758e-01	0.000000e+00	
7.393413e-02	4.192336e-03	1.228215e+00	6.052321e+01	-1.513931e+01	2.558050e+05	1.016882e+05	2.884206e+02	1.491984e-01	3.029992e-01	0.000000e+00	
7.391613e-02	6.213059e-03	1.228215e+00	6.052722e+01	-1.514014e+01	2.558052e+05	1.016882e+05	2.884208e+02	1.492082e-01	3.029961e-01	0.000000e+00	
7.391030e-02	8.209561e-03	1.228215e+00	6.053008e+01	-1.514075e+01	2.558054e+05	1.016882e+05	2.884208e+02	1.492153e-01	3.030007e-01	0.000000e+00	
7.223595e-02	1.516351e-02	1.228215e+00	6.053389e+01	-1.514166e+01	2.558056e+05	1.016882e+05	2.884208e+02	1.492246e-01	3.030190e-01	0.000000e+00	
4.569681e-02	2.945192e-02	1.228219e+00	6.053472e+01	-1.514507e+01	2.558069e+05	1.016887e+05	2.884212e+02	1.492279e-01	3.034203e-01	0.000000e+00	
7.391230e-02	1.019561e-02	1.228215e+00	6.053179e+01	-1.514114e+01	2.558055e+05	1.016882e+05	2.884208e+02	1.492194e-01	3.030025e-01	0.000000e+00	
7.568528e-02	1.210863e-03	1.228216e+00	6.051758e+01	-1.513805e+01	2.558047e+05	1.016882e+05	2.884205e+02	1.491846e-01	3.029907e-01	0.000000e+00	
7.391840e-02	1.218127e-02	1.228215e+00	6.053280e+01	-1.514141e+01	2.558055e+05	1.016882e+05	2.884208e+02	1.492219e-01	3.030048e-01	0.000000e+00	
7.392633e-02	1.416796e-02	1.228215e+00	6.053368e+01	-1.514169e+01	2.558056e+05	1.016882e+05	2.884208e+02	1.492241e-01	3.030071e-01	0.000000e+00	
6.714865e-02	2.011576e-02	1.228215e+00	6.053619e+01	-1.514216e+01	2.558059e+05	1.016883e+05	2.884209e+02	1.492301e-01	3.030611e-01	0.000000e+00	
6.543017e-02	2.109856e-02	1.228216e+00	6.053655e+01	-1.514221e+01	2.558059e+05	1.016883e+05	2.884209e+02	1.492310e-01	3.030760e-01	0.000000e+00	
6.885479e-02	1.912850e-02	1.228215e+00	6.053583e+01	-1.514212e+01	2.558058e+05	1.016883e+05	2.884208e+02	1.492293e-01	3.030470e-01	0.000000e+00	
6.369631e-02	2.207569e-02	1.228216e+00	6.053688e+01	-1.514228e+01	2.558060e+05	1.016883e+05	2.884209e+02	1.492318e-01	3.030920e-01	0.000000e+00	
7.055241e-02	1.813803e-02	1.228215e+00	6.053548e+01	-1.514209e+01	2.558058e+05	1.016882e+05	2.884208e+02	1.492285e-01	3.030338e-01	0.000000e+00	
6.194684e-02	2.304605e-02	1.228216e+00	6.053718e+01	-1.514237e+01	2.558061e+05	1.016883e+05	2.884209e+02	1.492325e-01	3.031091e-01	0.000000e+00	
6.018611e-02	2.400883e-02	1.228216e+00	6.053743e+01	-1.514249e+01	2.558061e+05	1.016884e+05	2.884209e+02	1.492331e-01	3.031275e-01	0.000000e+00	
5.842258e-02	2.496360e-02	1.228216e+00	6.053763e+01	-1.514265e+01	2.558062e+05	1.016884e+05	2.884209e+02	1.492336e-01	3.031468e-01	0.000000e+00	
5.666332e-02	2.591020e-02	1.228217e+00	6.053776e+01	-1.514285e+01	2.558063e+05	1.016884e+05	2.884210e+02	1.492340e-01	3.031678e-01	0.000000e+00	
5.490427e-02	2.684837e-02	1.228217e+00	6.053783e+01	-1.514312e+01	2.558063e+05	1.016884e+05	2.884210e+02	1.492343e-01	3.031890e-01	0.000000e+00	
5.312225e-02	2.777728e-02	1.228217e+00	6.053779e+01	-1.514346e+01	2.558064e+05	1.016885e+05	2.884210e+02	1.492344e-01	3.032144e-01	0.000000e+00	
5.127793e-02	2.869563e-02	1.228217e+00	6.053764e+01	-1.514389e+01	2.558065e+05	1.016885e+05	2.884210e+02	1.492342e-01	3.032376e-01	0.000000e+00	
7.224491e-02	1.714549e-02	1.228215e+00	6.053514e+01	-1.514206e+01	2.558057e+05	1.016882e+05	2.884208e+02	1.492277e-01	3.030211e-01	0.000000e+00	