/*--------------------------------*- C++ -*----------------------------------*\
  =========                 |
  \\      /  F ield         | OpenFOAM: The Open Source CFD Toolbox
   \\    /   O peration     | Website:  https://openfoam.org
    \\  /    A nd           | Version:  6
     \\/     M anipulation  |
\*---------------------------------------------------------------------------*/
FoamFile
{
    version     2.0;
    format      ascii;
    class       volScalarField;
    location    "70";
    object      p;
}
// * * * * * * * * * * * * * * * * * * * * * * * * * * * * * * * * * * * * * //

dimensions      [0 2 -2 0 0 0 0];

internalField   nonuniform List<scalar> 
4000
(
-6.77892e-09
-6.77041e-09
-6.74052e-09
-6.73089e-09
-6.71751e-09
-6.69184e-09
-6.68589e-09
-6.6803e-09
-6.67626e-09
-6.6743e-09
-6.68042e-09
-6.67828e-09
-6.66536e-09
-6.66675e-09
-6.66511e-09
-6.65229e-09
-6.63178e-09
-6.60903e-09
-6.61442e-09
-6.59837e-09
-6.58256e-09
-6.56484e-09
-6.55512e-09
-6.53751e-09
-6.52539e-09
-6.49653e-09
-6.46785e-09
-6.43207e-09
-6.40168e-09
-6.39023e-09
-6.36467e-09
-6.34535e-09
-6.32241e-09
-6.31557e-09
-6.3011e-09
-6.29697e-09
-6.28987e-09
-6.26179e-09
-6.2259e-09
-6.19748e-09
-6.16341e-09
-6.12946e-09
-6.08847e-09
-6.05129e-09
-6.00535e-09
-5.96145e-09
-5.91969e-09
-5.88142e-09
-5.85069e-09
-5.81294e-09
-5.75903e-09
-5.71893e-09
-5.67178e-09
-5.64469e-09
-5.63233e-09
-5.61129e-09
-5.59291e-09
-5.5722e-09
-5.55321e-09
-5.53271e-09
-5.51187e-09
-5.4984e-09
-5.47822e-09
-5.46897e-09
-5.44756e-09
-5.42086e-09
-5.40542e-09
-5.38473e-09
-5.34601e-09
-5.3056e-09
-5.25924e-09
-5.23665e-09
-5.20423e-09
-5.16435e-09
-5.11337e-09
-5.07844e-09
-5.03628e-09
-4.9921e-09
-4.94745e-09
-4.91237e-09
-4.88306e-09
-4.86258e-09
-4.84209e-09
-4.81507e-09
-4.78224e-09
-4.73059e-09
-4.68267e-09
-4.62884e-09
-4.57566e-09
-4.54247e-09
-4.50179e-09
-4.46889e-09
-4.44659e-09
-4.41612e-09
-4.38658e-09
-4.36208e-09
-4.33901e-09
-4.33184e-09
-4.31919e-09
-4.30016e-09
-4.26043e-09
-4.22553e-09
-4.19917e-09
-4.17176e-09
-4.13417e-09
-4.09996e-09
-4.07264e-09
-4.03746e-09
-4.00199e-09
-3.96137e-09
-3.93171e-09
-3.89603e-09
-3.85687e-09
-3.83191e-09
-3.80283e-09
-3.77266e-09
-3.74237e-09
-3.70272e-09
-3.66383e-09
-3.63133e-09
-3.58901e-09
-3.53985e-09
-3.48821e-09
-3.45547e-09
-3.41954e-09
-3.39017e-09
-3.37356e-09
-3.3259e-09
-3.28006e-09
-3.24216e-09
-3.18563e-09
-3.12746e-09
-3.07638e-09
-3.0297e-09
-2.99375e-09
-2.94882e-09
-2.91269e-09
-2.87295e-09
-2.82898e-09
-2.79312e-09
-2.752e-09
-2.72792e-09
-2.69774e-09
-2.65655e-09
-2.62777e-09
-2.61352e-09
-2.60101e-09
-2.5673e-09
-2.52867e-09
-2.49704e-09
-2.46244e-09
-2.43486e-09
-2.40477e-09
-2.35671e-09
-2.31173e-09
-2.27499e-09
-2.24971e-09
-2.23029e-09
-2.20229e-09
-2.17159e-09
-2.14287e-09
-2.10215e-09
-2.05168e-09
-1.99326e-09
-1.93857e-09
-1.88706e-09
-1.82676e-09
-1.75958e-09
-1.68933e-09
-1.64031e-09
-1.59041e-09
-1.53914e-09
-1.49138e-09
-1.4556e-09
-1.41322e-09
-1.37304e-09
-1.3284e-09
-1.27865e-09
-1.21239e-09
-1.1635e-09
-1.10207e-09
-1.05952e-09
-1.00196e-09
-9.42106e-10
-8.87829e-10
-8.19167e-10
-7.5308e-10
-6.84564e-10
-6.2085e-10
-5.77986e-10
-5.2652e-10
-4.81369e-10
-4.31167e-10
-3.7674e-10
-3.14962e-10
-2.46665e-10
-1.7883e-10
-1.16304e-10
-6.57999e-11
-2.01793e-11
-6.7867e-09
-6.76363e-09
-6.7344e-09
-6.72745e-09
-6.71355e-09
-6.69714e-09
-6.69471e-09
-6.69366e-09
-6.68713e-09
-6.68296e-09
-6.68993e-09
-6.67366e-09
-6.65747e-09
-6.6645e-09
-6.66787e-09
-6.66277e-09
-6.63138e-09
-6.6088e-09
-6.61302e-09
-6.60496e-09
-6.5821e-09
-6.57064e-09
-6.56107e-09
-6.53511e-09
-6.52519e-09
-6.49641e-09
-6.47382e-09
-6.4342e-09
-6.38582e-09
-6.37799e-09
-6.36196e-09
-6.33802e-09
-6.33472e-09
-6.30265e-09
-6.29688e-09
-6.29712e-09
-6.29511e-09
-6.26699e-09
-6.22423e-09
-6.19051e-09
-6.16803e-09
-6.12583e-09
-6.079e-09
-6.04568e-09
-6.0052e-09
-5.96552e-09
-5.91918e-09
-5.88411e-09
-5.84832e-09
-5.80431e-09
-5.76043e-09
-5.71639e-09
-5.67965e-09
-5.65754e-09
-5.63158e-09
-5.60853e-09
-5.5856e-09
-5.56558e-09
-5.54927e-09
-5.53151e-09
-5.51839e-09
-5.49546e-09
-5.47866e-09
-5.46643e-09
-5.44671e-09
-5.42767e-09
-5.40788e-09
-5.39069e-09
-5.35832e-09
-5.31633e-09
-5.27648e-09
-5.23987e-09
-5.20071e-09
-5.15654e-09
-5.1143e-09
-5.07483e-09
-5.03246e-09
-5.00012e-09
-4.95339e-09
-4.90597e-09
-4.89694e-09
-4.87777e-09
-4.84749e-09
-4.81324e-09
-4.77443e-09
-4.72449e-09
-4.68316e-09
-4.61792e-09
-4.55724e-09
-4.52571e-09
-4.49945e-09
-4.47584e-09
-4.44501e-09
-4.41137e-09
-4.38458e-09
-4.36749e-09
-4.34034e-09
-4.344e-09
-4.32692e-09
-4.29846e-09
-4.26299e-09
-4.23342e-09
-4.20324e-09
-4.1777e-09
-4.13679e-09
-4.09909e-09
-4.07698e-09
-4.05283e-09
-4.01105e-09
-3.95892e-09
-3.92322e-09
-3.90014e-09
-3.8589e-09
-3.83264e-09
-3.80333e-09
-3.77218e-09
-3.74187e-09
-3.7101e-09
-3.67662e-09
-3.64234e-09
-3.59503e-09
-3.54905e-09
-3.49905e-09
-3.45549e-09
-3.42431e-09
-3.40234e-09
-3.37046e-09
-3.32751e-09
-3.28227e-09
-3.2379e-09
-3.18739e-09
-3.13129e-09
-3.07527e-09
-3.03996e-09
-3.00728e-09
-2.96021e-09
-2.91329e-09
-2.87444e-09
-2.82572e-09
-2.7935e-09
-2.75928e-09
-2.72918e-09
-2.69745e-09
-2.65109e-09
-2.61724e-09
-2.60218e-09
-2.58491e-09
-2.55725e-09
-2.52786e-09
-2.49466e-09
-2.44975e-09
-2.42021e-09
-2.39941e-09
-2.34976e-09
-2.30353e-09
-2.25796e-09
-2.24039e-09
-2.2273e-09
-2.19675e-09
-2.16402e-09
-2.14031e-09
-2.11565e-09
-2.06561e-09
-2.0056e-09
-1.94483e-09
-1.90296e-09
-1.83514e-09
-1.76977e-09
-1.71802e-09
-1.65589e-09
-1.60031e-09
-1.55847e-09
-1.50775e-09
-1.46428e-09
-1.4126e-09
-1.36721e-09
-1.33203e-09
-1.28791e-09
-1.22024e-09
-1.16277e-09
-1.10982e-09
-1.06327e-09
-1.00185e-09
-9.47617e-10
-8.88811e-10
-8.22386e-10
-7.6435e-10
-6.86713e-10
-6.23895e-10
-5.77363e-10
-5.35726e-10
-4.82282e-10
-4.28857e-10
-3.78823e-10
-3.21034e-10
-2.44758e-10
-1.63363e-10
-1.01328e-10
-6.05679e-11
-1.75515e-11
-6.77262e-09
-6.76452e-09
-6.73921e-09
-6.72461e-09
-6.71351e-09
-6.70515e-09
-6.69915e-09
-6.69906e-09
-6.69259e-09
-6.6886e-09
-6.68827e-09
-6.67478e-09
-6.65398e-09
-6.66252e-09
-6.67402e-09
-6.65268e-09
-6.63439e-09
-6.62507e-09
-6.61822e-09
-6.61198e-09
-6.58908e-09
-6.57026e-09
-6.5574e-09
-6.54911e-09
-6.5278e-09
-6.49682e-09
-6.4751e-09
-6.43443e-09
-6.39149e-09
-6.37627e-09
-6.34494e-09
-6.32985e-09
-6.31785e-09
-6.30159e-09
-6.28586e-09
-6.28454e-09
-6.2786e-09
-6.25635e-09
-6.22166e-09
-6.1981e-09
-6.17345e-09
-6.133e-09
-6.08967e-09
-6.05273e-09
-6.01203e-09
-5.97077e-09
-5.91411e-09
-5.87748e-09
-5.82881e-09
-5.77391e-09
-5.75926e-09
-5.72577e-09
-5.68019e-09
-5.6512e-09
-5.62499e-09
-5.60615e-09
-5.58694e-09
-5.57402e-09
-5.56192e-09
-5.53769e-09
-5.52424e-09
-5.50428e-09
-5.47756e-09
-5.46016e-09
-5.44609e-09
-5.42545e-09
-5.4086e-09
-5.39536e-09
-5.36955e-09
-5.31933e-09
-5.28068e-09
-5.24034e-09
-5.19964e-09
-5.16364e-09
-5.12041e-09
-5.07574e-09
-5.04342e-09
-5.00742e-09
-4.95092e-09
-4.91208e-09
-4.89603e-09
-4.87856e-09
-4.83689e-09
-4.81145e-09
-4.77615e-09
-4.71875e-09
-4.66161e-09
-4.60786e-09
-4.56265e-09
-4.52266e-09
-4.49402e-09
-4.47435e-09
-4.43996e-09
-4.4194e-09
-4.39215e-09
-4.37145e-09
-4.35074e-09
-4.32872e-09
-4.33015e-09
-4.30767e-09
-4.26911e-09
-4.23541e-09
-4.19688e-09
-4.16965e-09
-4.13835e-09
-4.09749e-09
-4.0739e-09
-4.04766e-09
-4.02063e-09
-3.96202e-09
-3.92828e-09
-3.90308e-09
-3.86647e-09
-3.82993e-09
-3.78817e-09
-3.75715e-09
-3.74108e-09
-3.7197e-09
-3.68197e-09
-3.64483e-09
-3.6037e-09
-3.56231e-09
-3.51131e-09
-3.46095e-09
-3.42574e-09
-3.40486e-09
-3.37077e-09
-3.31365e-09
-3.28765e-09
-3.24488e-09
-3.17911e-09
-3.14259e-09
-3.09186e-09
-3.04826e-09
-3.02134e-09
-2.97777e-09
-2.93228e-09
-2.88966e-09
-2.83253e-09
-2.79467e-09
-2.77199e-09
-2.72164e-09
-2.6829e-09
-2.65406e-09
-2.62306e-09
-2.58513e-09
-2.56384e-09
-2.53843e-09
-2.51803e-09
-2.48922e-09
-2.4442e-09
-2.41969e-09
-2.39749e-09
-2.34591e-09
-2.29819e-09
-2.2511e-09
-2.22614e-09
-2.21571e-09
-2.19714e-09
-2.155e-09
-2.11859e-09
-2.1061e-09
-2.06795e-09
-2.00846e-09
-1.94493e-09
-1.90737e-09
-1.84899e-09
-1.78881e-09
-1.72572e-09
-1.66862e-09
-1.61422e-09
-1.57231e-09
-1.52458e-09
-1.47016e-09
-1.41434e-09
-1.36769e-09
-1.33097e-09
-1.28842e-09
-1.22324e-09
-1.16648e-09
-1.11232e-09
-1.05378e-09
-1.0019e-09
-9.38763e-10
-8.78045e-10
-8.13432e-10
-7.59887e-10
-6.84528e-10
-6.30643e-10
-5.84185e-10
-5.33726e-10
-4.77866e-10
-4.24475e-10
-3.70587e-10
-3.0317e-10
-2.27181e-10
-1.56807e-10
-9.79525e-11
-5.85089e-11
-2.04278e-11
-6.76281e-09
-6.75486e-09
-6.73795e-09
-6.71713e-09
-6.71133e-09
-6.71547e-09
-6.70599e-09
-6.70409e-09
-6.70102e-09
-6.68719e-09
-6.68537e-09
-6.67221e-09
-6.65074e-09
-6.66336e-09
-6.66885e-09
-6.66004e-09
-6.64498e-09
-6.64184e-09
-6.62763e-09
-6.6066e-09
-6.58726e-09
-6.56406e-09
-6.55619e-09
-6.56281e-09
-6.52489e-09
-6.50478e-09
-6.4713e-09
-6.42983e-09
-6.40356e-09
-6.37184e-09
-6.34127e-09
-6.30792e-09
-6.2906e-09
-6.2889e-09
-6.26071e-09
-6.26293e-09
-6.2597e-09
-6.24754e-09
-6.21723e-09
-6.19049e-09
-6.16241e-09
-6.13808e-09
-6.08586e-09
-6.05705e-09
-6.00784e-09
-5.96692e-09
-5.91232e-09
-5.86712e-09
-5.81565e-09
-5.76329e-09
-5.74934e-09
-5.73758e-09
-5.69917e-09
-5.65841e-09
-5.63725e-09
-5.62332e-09
-5.60494e-09
-5.59015e-09
-5.56638e-09
-5.55449e-09
-5.53731e-09
-5.51366e-09
-5.49261e-09
-5.47544e-09
-5.44647e-09
-5.41093e-09
-5.39607e-09
-5.38645e-09
-5.35631e-09
-5.30825e-09
-5.27036e-09
-5.2359e-09
-5.19762e-09
-5.16148e-09
-5.12138e-09
-5.0714e-09
-5.03944e-09
-5.00868e-09
-4.95763e-09
-4.92752e-09
-4.91163e-09
-4.87963e-09
-4.84131e-09
-4.81416e-09
-4.77817e-09
-4.72808e-09
-4.66753e-09
-4.61027e-09
-4.56537e-09
-4.52161e-09
-4.49654e-09
-4.48332e-09
-4.45155e-09
-4.43477e-09
-4.40831e-09
-4.39754e-09
-4.359e-09
-4.34103e-09
-4.33358e-09
-4.30983e-09
-4.27218e-09
-4.23501e-09
-4.20103e-09
-4.16153e-09
-4.13372e-09
-4.10234e-09
-4.06916e-09
-4.03998e-09
-4.01173e-09
-3.97109e-09
-3.92895e-09
-3.89981e-09
-3.86988e-09
-3.82238e-09
-3.78363e-09
-3.76031e-09
-3.7408e-09
-3.72009e-09
-3.67805e-09
-3.63977e-09
-3.59951e-09
-3.5695e-09
-3.53382e-09
-3.4848e-09
-3.439e-09
-3.40913e-09
-3.37591e-09
-3.33266e-09
-3.29731e-09
-3.25408e-09
-3.20666e-09
-3.15549e-09
-3.10526e-09
-3.06383e-09
-3.02796e-09
-2.98976e-09
-2.94732e-09
-2.8938e-09
-2.84339e-09
-2.80682e-09
-2.76865e-09
-2.71876e-09
-2.68084e-09
-2.65228e-09
-2.61543e-09
-2.57916e-09
-2.55498e-09
-2.53686e-09
-2.49811e-09
-2.45699e-09
-2.42926e-09
-2.40713e-09
-2.38591e-09
-2.33853e-09
-2.29844e-09
-2.25901e-09
-2.21803e-09
-2.20284e-09
-2.19509e-09
-2.14878e-09
-2.12326e-09
-2.09556e-09
-2.06807e-09
-2.00833e-09
-1.95226e-09
-1.89808e-09
-1.85447e-09
-1.79549e-09
-1.73317e-09
-1.67962e-09
-1.62084e-09
-1.57817e-09
-1.52313e-09
-1.47673e-09
-1.43685e-09
-1.38904e-09
-1.34448e-09
-1.29812e-09
-1.23871e-09
-1.17013e-09
-1.10146e-09
-1.04763e-09
-1.00528e-09
-9.41674e-10
-8.78819e-10
-8.15096e-10
-7.57734e-10
-6.90015e-10
-6.38882e-10
-5.84134e-10
-5.2232e-10
-4.75323e-10
-4.21239e-10
-3.62405e-10
-2.93086e-10
-2.2288e-10
-1.59354e-10
-9.90656e-11
-5.27247e-11
-1.68143e-11
-6.76095e-09
-6.7549e-09
-6.74071e-09
-6.72622e-09
-6.71728e-09
-6.71144e-09
-6.71573e-09
-6.72286e-09
-6.70631e-09
-6.69703e-09
-6.69045e-09
-6.66815e-09
-6.64717e-09
-6.66894e-09
-6.67835e-09
-6.65782e-09
-6.64315e-09
-6.65165e-09
-6.63325e-09
-6.61493e-09
-6.59445e-09
-6.58159e-09
-6.56667e-09
-6.55786e-09
-6.52159e-09
-6.49694e-09
-6.4784e-09
-6.44498e-09
-6.41184e-09
-6.38494e-09
-6.3501e-09
-6.29688e-09
-6.26633e-09
-6.2642e-09
-6.25412e-09
-6.25784e-09
-6.24749e-09
-6.22669e-09
-6.20302e-09
-6.18559e-09
-6.15024e-09
-6.11663e-09
-6.0761e-09
-6.04858e-09
-5.98817e-09
-5.9433e-09
-5.90157e-09
-5.86449e-09
-5.81378e-09
-5.76496e-09
-5.75194e-09
-5.73203e-09
-5.70428e-09
-5.67867e-09
-5.64988e-09
-5.63967e-09
-5.62483e-09
-5.59471e-09
-5.56727e-09
-5.56267e-09
-5.53779e-09
-5.50639e-09
-5.4924e-09
-5.47441e-09
-5.43627e-09
-5.40034e-09
-5.36967e-09
-5.35906e-09
-5.33747e-09
-5.2968e-09
-5.26565e-09
-5.23256e-09
-5.19297e-09
-5.15593e-09
-5.11759e-09
-5.07608e-09
-5.04026e-09
-5.01468e-09
-4.97862e-09
-4.92914e-09
-4.89455e-09
-4.8773e-09
-4.84882e-09
-4.82946e-09
-4.77064e-09
-4.72254e-09
-4.67726e-09
-4.62761e-09
-4.58321e-09
-4.52783e-09
-4.50925e-09
-4.4907e-09
-4.45909e-09
-4.44035e-09
-4.41766e-09
-4.3987e-09
-4.36108e-09
-4.34514e-09
-4.33843e-09
-4.31207e-09
-4.27417e-09
-4.23574e-09
-4.19268e-09
-4.15322e-09
-4.12285e-09
-4.09505e-09
-4.05379e-09
-4.01757e-09
-3.99294e-09
-3.95745e-09
-3.92357e-09
-3.89667e-09
-3.86212e-09
-3.81736e-09
-3.78291e-09
-3.75402e-09
-3.73376e-09
-3.70114e-09
-3.67557e-09
-3.63148e-09
-3.59566e-09
-3.56899e-09
-3.55176e-09
-3.49965e-09
-3.45336e-09
-3.41827e-09
-3.38752e-09
-3.34959e-09
-3.31332e-09
-3.27275e-09
-3.21731e-09
-3.1644e-09
-3.1123e-09
-3.07492e-09
-3.0325e-09
-2.99125e-09
-2.95627e-09
-2.89967e-09
-2.86267e-09
-2.81036e-09
-2.76709e-09
-2.71199e-09
-2.67401e-09
-2.65806e-09
-2.62435e-09
-2.58049e-09
-2.54986e-09
-2.517e-09
-2.4869e-09
-2.4539e-09
-2.42851e-09
-2.39579e-09
-2.36837e-09
-2.33086e-09
-2.28258e-09
-2.24854e-09
-2.2133e-09
-2.19322e-09
-2.18786e-09
-2.14029e-09
-2.11362e-09
-2.09045e-09
-2.0495e-09
-1.99749e-09
-1.941e-09
-1.89169e-09
-1.84925e-09
-1.78937e-09
-1.73489e-09
-1.66267e-09
-1.62362e-09
-1.5815e-09
-1.5316e-09
-1.48507e-09
-1.45178e-09
-1.4049e-09
-1.35127e-09
-1.29852e-09
-1.2518e-09
-1.17166e-09
-1.11785e-09
-1.05457e-09
-1.0008e-09
-9.34458e-10
-8.67389e-10
-8.23568e-10
-7.55336e-10
-6.88933e-10
-6.305e-10
-5.80011e-10
-5.27975e-10
-4.63129e-10
-4.05261e-10
-3.48176e-10
-2.65811e-10
-2.19338e-10
-1.5766e-10
-9.96971e-11
-5.54471e-11
-5.39837e-12
-6.76368e-09
-6.75443e-09
-6.73303e-09
-6.72463e-09
-6.72209e-09
-6.71297e-09
-6.71211e-09
-6.72927e-09
-6.7158e-09
-6.71502e-09
-6.69821e-09
-6.66995e-09
-6.66767e-09
-6.68183e-09
-6.68334e-09
-6.65858e-09
-6.65252e-09
-6.65316e-09
-6.63717e-09
-6.61835e-09
-6.59761e-09
-6.58353e-09
-6.57224e-09
-6.55514e-09
-6.5279e-09
-6.50265e-09
-6.4814e-09
-6.45173e-09
-6.41425e-09
-6.38571e-09
-6.33887e-09
-6.29486e-09
-6.26881e-09
-6.2528e-09
-6.25081e-09
-6.24959e-09
-6.23714e-09
-6.21789e-09
-6.1909e-09
-6.16963e-09
-6.14193e-09
-6.10097e-09
-6.06543e-09
-6.02731e-09
-5.97543e-09
-5.93522e-09
-5.89728e-09
-5.85547e-09
-5.8039e-09
-5.76835e-09
-5.75485e-09
-5.7293e-09
-5.71337e-09
-5.69042e-09
-5.66245e-09
-5.64981e-09
-5.63443e-09
-5.60642e-09
-5.56916e-09
-5.56062e-09
-5.54623e-09
-5.51804e-09
-5.49066e-09
-5.45924e-09
-5.42955e-09
-5.38802e-09
-5.35919e-09
-5.34358e-09
-5.31808e-09
-5.29125e-09
-5.26098e-09
-5.21692e-09
-5.18284e-09
-5.15256e-09
-5.11053e-09
-5.08252e-09
-5.04864e-09
-5.02151e-09
-4.97696e-09
-4.91687e-09
-4.88356e-09
-4.87062e-09
-4.85541e-09
-4.82688e-09
-4.78322e-09
-4.72949e-09
-4.6764e-09
-4.63159e-09
-4.58356e-09
-4.53651e-09
-4.52993e-09
-4.49849e-09
-4.4693e-09
-4.43948e-09
-4.42242e-09
-4.3975e-09
-4.36359e-09
-4.35199e-09
-4.3327e-09
-4.30616e-09
-4.27955e-09
-4.24191e-09
-4.19323e-09
-4.14984e-09
-4.1106e-09
-4.07732e-09
-4.0395e-09
-4.00349e-09
-3.96766e-09
-3.94046e-09
-3.90954e-09
-3.88129e-09
-3.84647e-09
-3.81576e-09
-3.78359e-09
-3.74872e-09
-3.73084e-09
-3.70182e-09
-3.66666e-09
-3.62193e-09
-3.59267e-09
-3.57363e-09
-3.56066e-09
-3.52393e-09
-3.47934e-09
-3.44362e-09
-3.40757e-09
-3.37376e-09
-3.33273e-09
-3.27584e-09
-3.22817e-09
-3.17863e-09
-3.12835e-09
-3.08036e-09
-3.03252e-09
-2.98492e-09
-2.95111e-09
-2.90844e-09
-2.86365e-09
-2.81059e-09
-2.75905e-09
-2.71625e-09
-2.67003e-09
-2.64969e-09
-2.61636e-09
-2.58338e-09
-2.55091e-09
-2.52336e-09
-2.49459e-09
-2.46581e-09
-2.43561e-09
-2.40103e-09
-2.36549e-09
-2.32715e-09
-2.28789e-09
-2.2507e-09
-2.21618e-09
-2.196e-09
-2.17217e-09
-2.13978e-09
-2.11109e-09
-2.0707e-09
-2.02233e-09
-1.98621e-09
-1.94079e-09
-1.87333e-09
-1.82701e-09
-1.79092e-09
-1.74496e-09
-1.67592e-09
-1.62649e-09
-1.58769e-09
-1.536e-09
-1.50835e-09
-1.47806e-09
-1.4127e-09
-1.34434e-09
-1.29872e-09
-1.24367e-09
-1.18702e-09
-1.1235e-09
-1.05467e-09
-9.94287e-10
-9.33965e-10
-8.76822e-10
-8.21888e-10
-7.52773e-10
-6.98957e-10
-6.38751e-10
-5.74598e-10
-5.1453e-10
-4.53897e-10
-3.9807e-10
-3.35565e-10
-2.51254e-10
-1.99386e-10
-1.56954e-10
-1.08725e-10
-5.7664e-11
-8.56236e-12
-6.76835e-09
-6.76101e-09
-6.72863e-09
-6.72918e-09
-6.72669e-09
-6.71323e-09
-6.71673e-09
-6.73017e-09
-6.72896e-09
-6.72741e-09
-6.71492e-09
-6.69083e-09
-6.68293e-09
-6.68571e-09
-6.68559e-09
-6.66344e-09
-6.65673e-09
-6.66611e-09
-6.64088e-09
-6.62075e-09
-6.61172e-09
-6.59706e-09
-6.58521e-09
-6.56646e-09
-6.53753e-09
-6.50964e-09
-6.47348e-09
-6.45457e-09
-6.42898e-09
-6.38196e-09
-6.33104e-09
-6.28919e-09
-6.26428e-09
-6.24822e-09
-6.24282e-09
-6.23549e-09
-6.21922e-09
-6.20263e-09
-6.17662e-09
-6.15323e-09
-6.14883e-09
-6.1022e-09
-6.05378e-09
-6.01556e-09
-5.967e-09
-5.93459e-09
-5.8901e-09
-5.85384e-09
-5.80322e-09
-5.77001e-09
-5.77347e-09
-5.7361e-09
-5.71413e-09
-5.68945e-09
-5.66342e-09
-5.65604e-09
-5.63812e-09
-5.60363e-09
-5.57195e-09
-5.56133e-09
-5.53931e-09
-5.50678e-09
-5.48685e-09
-5.46498e-09
-5.42902e-09
-5.37972e-09
-5.35105e-09
-5.33405e-09
-5.3093e-09
-5.28286e-09
-5.25108e-09
-5.20959e-09
-5.17116e-09
-5.15181e-09
-5.10468e-09
-5.0728e-09
-5.03925e-09
-5.01064e-09
-4.97361e-09
-4.92636e-09
-4.89281e-09
-4.87376e-09
-4.85042e-09
-4.82147e-09
-4.78514e-09
-4.74304e-09
-4.67884e-09
-4.63483e-09
-4.58984e-09
-4.55138e-09
-4.53859e-09
-4.50856e-09
-4.48259e-09
-4.45103e-09
-4.43627e-09
-4.39387e-09
-4.37098e-09
-4.35873e-09
-4.33589e-09
-4.31269e-09
-4.27925e-09
-4.22867e-09
-4.18779e-09
-4.14314e-09
-4.10762e-09
-4.06337e-09
-4.02466e-09
-3.99584e-09
-3.94141e-09
-3.91155e-09
-3.8957e-09
-3.8753e-09
-3.83325e-09
-3.80875e-09
-3.77008e-09
-3.74405e-09
-3.72992e-09
-3.69204e-09
-3.65903e-09
-3.62592e-09
-3.59689e-09
-3.57661e-09
-3.56251e-09
-3.52679e-09
-3.48767e-09
-3.46198e-09
-3.42938e-09
-3.39205e-09
-3.34305e-09
-3.28918e-09
-3.23948e-09
-3.19327e-09
-3.13032e-09
-3.07556e-09
-3.03008e-09
-2.9795e-09
-2.94909e-09
-2.91262e-09
-2.85878e-09
-2.8169e-09
-2.76724e-09
-2.72929e-09
-2.67596e-09
-2.64547e-09
-2.61732e-09
-2.59257e-09
-2.55161e-09
-2.51415e-09
-2.48921e-09
-2.47534e-09
-2.44492e-09
-2.41487e-09
-2.37311e-09
-2.33404e-09
-2.28395e-09
-2.25302e-09
-2.22735e-09
-2.18203e-09
-2.14654e-09
-2.12144e-09
-2.07829e-09
-2.02966e-09
-1.99772e-09
-1.95925e-09
-1.92035e-09
-1.86158e-09
-1.81482e-09
-1.78602e-09
-1.74316e-09
-1.69764e-09
-1.64514e-09
-1.59155e-09
-1.54944e-09
-1.51649e-09
-1.47423e-09
-1.41764e-09
-1.35875e-09
-1.30552e-09
-1.24314e-09
-1.18591e-09
-1.12712e-09
-1.06267e-09
-1.00965e-09
-9.33364e-10
-8.71296e-10
-8.18503e-10
-7.58187e-10
-7.08313e-10
-6.40617e-10
-5.69612e-10
-5.14786e-10
-4.58878e-10
-3.95698e-10
-3.30179e-10
-2.5501e-10
-1.90957e-10
-1.57826e-10
-1.11493e-10
-6.57537e-11
-2.50531e-11
-6.75672e-09
-6.75083e-09
-6.74567e-09
-6.73934e-09
-6.72262e-09
-6.70797e-09
-6.7163e-09
-6.7221e-09
-6.73607e-09
-6.74277e-09
-6.73696e-09
-6.71463e-09
-6.70771e-09
-6.69567e-09
-6.68599e-09
-6.67618e-09
-6.6569e-09
-6.65394e-09
-6.63917e-09
-6.62627e-09
-6.60524e-09
-6.59898e-09
-6.58877e-09
-6.57745e-09
-6.5529e-09
-6.51872e-09
-6.48365e-09
-6.45261e-09
-6.40939e-09
-6.36676e-09
-6.3261e-09
-6.29073e-09
-6.25258e-09
-6.23128e-09
-6.23728e-09
-6.22988e-09
-6.20565e-09
-6.19154e-09
-6.16524e-09
-6.16136e-09
-6.14223e-09
-6.09387e-09
-6.05592e-09
-6.02048e-09
-5.96561e-09
-5.92644e-09
-5.88163e-09
-5.85804e-09
-5.81931e-09
-5.79334e-09
-5.77912e-09
-5.74752e-09
-5.72189e-09
-5.69864e-09
-5.6857e-09
-5.66231e-09
-5.63964e-09
-5.60392e-09
-5.58123e-09
-5.56087e-09
-5.53978e-09
-5.5074e-09
-5.47892e-09
-5.45396e-09
-5.42468e-09
-5.37965e-09
-5.36214e-09
-5.32673e-09
-5.29984e-09
-5.27746e-09
-5.23234e-09
-5.21003e-09
-5.1748e-09
-5.14522e-09
-5.11008e-09
-5.07273e-09
-5.05094e-09
-5.01281e-09
-4.96205e-09
-4.93341e-09
-4.90263e-09
-4.88243e-09
-4.85262e-09
-4.82608e-09
-4.78783e-09
-4.73805e-09
-4.68442e-09
-4.63617e-09
-4.5997e-09
-4.56856e-09
-4.54113e-09
-4.52011e-09
-4.49433e-09
-4.47008e-09
-4.43463e-09
-4.40229e-09
-4.38467e-09
-4.35624e-09
-4.34237e-09
-4.31303e-09
-4.27703e-09
-4.22891e-09
-4.18053e-09
-4.14055e-09
-4.08889e-09
-4.0522e-09
-4.02538e-09
-3.9805e-09
-3.92875e-09
-3.89488e-09
-3.87974e-09
-3.86406e-09
-3.82789e-09
-3.79515e-09
-3.75675e-09
-3.73736e-09
-3.72953e-09
-3.68155e-09
-3.65779e-09
-3.62647e-09
-3.60677e-09
-3.58506e-09
-3.5511e-09
-3.52759e-09
-3.495e-09
-3.4725e-09
-3.44155e-09
-3.39611e-09
-3.34887e-09
-3.28994e-09
-3.24986e-09
-3.2085e-09
-3.14369e-09
-3.08832e-09
-3.02665e-09
-2.98335e-09
-2.94819e-09
-2.90174e-09
-2.85275e-09
-2.81438e-09
-2.77468e-09
-2.74122e-09
-2.68327e-09
-2.65236e-09
-2.61912e-09
-2.59518e-09
-2.56423e-09
-2.51976e-09
-2.49495e-09
-2.47177e-09
-2.45655e-09
-2.42727e-09
-2.39078e-09
-2.33901e-09
-2.29311e-09
-2.24826e-09
-2.21795e-09
-2.17148e-09
-2.13721e-09
-2.10457e-09
-2.06597e-09
-2.02102e-09
-1.98896e-09
-1.94183e-09
-1.90719e-09
-1.86559e-09
-1.82104e-09
-1.78372e-09
-1.74466e-09
-1.69502e-09
-1.64381e-09
-1.59574e-09
-1.5652e-09
-1.51959e-09
-1.46984e-09
-1.42215e-09
-1.37216e-09
-1.31893e-09
-1.25599e-09
-1.18822e-09
-1.12703e-09
-1.06897e-09
-1.00808e-09
-9.39725e-10
-8.78197e-10
-8.21465e-10
-7.64777e-10
-7.11797e-10
-6.50701e-10
-5.88138e-10
-5.22557e-10
-4.57284e-10
-3.92053e-10
-3.2418e-10
-2.45259e-10
-1.93889e-10
-1.50866e-10
-1.00008e-10
-5.69266e-11
-1.2446e-11
-6.75551e-09
-6.76023e-09
-6.74759e-09
-6.74162e-09
-6.73187e-09
-6.70994e-09
-6.71257e-09
-6.7274e-09
-6.73712e-09
-6.74315e-09
-6.73391e-09
-6.71647e-09
-6.71537e-09
-6.70519e-09
-6.6875e-09
-6.67153e-09
-6.64755e-09
-6.63343e-09
-6.6334e-09
-6.63027e-09
-6.61153e-09
-6.59003e-09
-6.57441e-09
-6.56609e-09
-6.54947e-09
-6.5205e-09
-6.48733e-09
-6.44236e-09
-6.39764e-09
-6.36162e-09
-6.32057e-09
-6.28232e-09
-6.25596e-09
-6.23296e-09
-6.23618e-09
-6.2211e-09
-6.20336e-09
-6.18799e-09
-6.16767e-09
-6.15617e-09
-6.13429e-09
-6.09707e-09
-6.0622e-09
-6.03065e-09
-5.97725e-09
-5.92963e-09
-5.88801e-09
-5.8666e-09
-5.83119e-09
-5.81223e-09
-5.79805e-09
-5.7513e-09
-5.73218e-09
-5.70892e-09
-5.68916e-09
-5.66947e-09
-5.64948e-09
-5.61084e-09
-5.58927e-09
-5.55681e-09
-5.53605e-09
-5.51829e-09
-5.47512e-09
-5.43962e-09
-5.41411e-09
-5.38094e-09
-5.35234e-09
-5.31997e-09
-5.29275e-09
-5.26272e-09
-5.2338e-09
-5.20773e-09
-5.17112e-09
-5.13869e-09
-5.11011e-09
-5.08652e-09
-5.05281e-09
-5.01196e-09
-4.96413e-09
-4.92948e-09
-4.8952e-09
-4.88779e-09
-4.85509e-09
-4.81527e-09
-4.78302e-09
-4.74274e-09
-4.70511e-09
-4.65165e-09
-4.60459e-09
-4.58231e-09
-4.56285e-09
-4.53097e-09
-4.49972e-09
-4.46548e-09
-4.43368e-09
-4.4015e-09
-4.39221e-09
-4.36468e-09
-4.32434e-09
-4.30088e-09
-4.26986e-09
-4.22608e-09
-4.17304e-09
-4.14161e-09
-4.0861e-09
-4.04631e-09
-4.01214e-09
-3.9755e-09
-3.92872e-09
-3.89044e-09
-3.87791e-09
-3.8554e-09
-3.81879e-09
-3.79234e-09
-3.7514e-09
-3.7262e-09
-3.71326e-09
-3.67782e-09
-3.65335e-09
-3.63028e-09
-3.60701e-09
-3.57161e-09
-3.54371e-09
-3.51272e-09
-3.49074e-09
-3.45948e-09
-3.42118e-09
-3.3836e-09
-3.3376e-09
-3.29153e-09
-3.24929e-09
-3.20743e-09
-3.14273e-09
-3.09338e-09
-3.05407e-09
-3.00039e-09
-2.94352e-09
-2.89946e-09
-2.85372e-09
-2.82081e-09
-2.7841e-09
-2.73818e-09
-2.6872e-09
-2.65653e-09
-2.6393e-09
-2.6025e-09
-2.56972e-09
-2.53503e-09
-2.50438e-09
-2.4869e-09
-2.45905e-09
-2.439e-09
-2.40805e-09
-2.3557e-09
-2.29991e-09
-2.24173e-09
-2.20638e-09
-2.17369e-09
-2.13054e-09
-2.09801e-09
-2.06655e-09
-2.02704e-09
-1.98971e-09
-1.94494e-09
-1.89928e-09
-1.85385e-09
-1.81645e-09
-1.76944e-09
-1.72966e-09
-1.68424e-09
-1.64374e-09
-1.6067e-09
-1.56241e-09
-1.51165e-09
-1.46126e-09
-1.41762e-09
-1.37901e-09
-1.31653e-09
-1.25753e-09
-1.19694e-09
-1.13775e-09
-1.08436e-09
-1.02341e-09
-9.44597e-10
-8.79666e-10
-8.17949e-10
-7.67581e-10
-7.16457e-10
-6.59018e-10
-5.95931e-10
-5.19446e-10
-4.61689e-10
-3.98522e-10
-3.21426e-10
-2.46176e-10
-1.87756e-10
-1.51137e-10
-1.11357e-10
-6.0597e-11
-1.23849e-11
-6.75094e-09
-6.75911e-09
-6.74733e-09
-6.74251e-09
-6.7413e-09
-6.72821e-09
-6.71921e-09
-6.72301e-09
-6.72909e-09
-6.73403e-09
-6.73161e-09
-6.72685e-09
-6.72086e-09
-6.70567e-09
-6.68544e-09
-6.65217e-09
-6.63858e-09
-6.64177e-09
-6.62142e-09
-6.60904e-09
-6.59608e-09
-6.58231e-09
-6.5702e-09
-6.56335e-09
-6.53685e-09
-6.50824e-09
-6.4823e-09
-6.43175e-09
-6.38134e-09
-6.34663e-09
-6.31308e-09
-6.28757e-09
-6.26324e-09
-6.24036e-09
-6.23727e-09
-6.22247e-09
-6.21218e-09
-6.19336e-09
-6.17497e-09
-6.17171e-09
-6.14568e-09
-6.10528e-09
-6.0663e-09
-6.02945e-09
-5.99099e-09
-5.93641e-09
-5.89895e-09
-5.87399e-09
-5.83511e-09
-5.81596e-09
-5.79674e-09
-5.76423e-09
-5.74492e-09
-5.72064e-09
-5.69816e-09
-5.676e-09
-5.65282e-09
-5.62065e-09
-5.59268e-09
-5.55935e-09
-5.53147e-09
-5.50789e-09
-5.47595e-09
-5.44889e-09
-5.41835e-09
-5.38119e-09
-5.35696e-09
-5.3261e-09
-5.30691e-09
-5.2652e-09
-5.23793e-09
-5.20624e-09
-5.17363e-09
-5.14532e-09
-5.11156e-09
-5.08531e-09
-5.05302e-09
-5.02261e-09
-4.98456e-09
-4.93852e-09
-4.90294e-09
-4.87114e-09
-4.83936e-09
-4.80993e-09
-4.7759e-09
-4.74417e-09
-4.72283e-09
-4.66381e-09
-4.62307e-09
-4.58894e-09
-4.56122e-09
-4.53495e-09
-4.48962e-09
-4.45346e-09
-4.43053e-09
-4.40598e-09
-4.38811e-09
-4.35969e-09
-4.3379e-09
-4.3046e-09
-4.2632e-09
-4.21513e-09
-4.16957e-09
-4.13696e-09
-4.09136e-09
-4.04895e-09
-4.0055e-09
-3.96546e-09
-3.92633e-09
-3.88497e-09
-3.86815e-09
-3.83683e-09
-3.8149e-09
-3.78555e-09
-3.75249e-09
-3.73522e-09
-3.71199e-09
-3.67127e-09
-3.65331e-09
-3.62604e-09
-3.61093e-09
-3.57852e-09
-3.54158e-09
-3.49878e-09
-3.47032e-09
-3.44506e-09
-3.41715e-09
-3.36711e-09
-3.32627e-09
-3.28978e-09
-3.2428e-09
-3.19508e-09
-3.14924e-09
-3.09984e-09
-3.05966e-09
-3.00866e-09
-2.95468e-09
-2.90458e-09
-2.85809e-09
-2.82362e-09
-2.78984e-09
-2.74441e-09
-2.70333e-09
-2.67423e-09
-2.64934e-09
-2.61568e-09
-2.5813e-09
-2.55211e-09
-2.52254e-09
-2.49319e-09
-2.47092e-09
-2.44512e-09
-2.41097e-09
-2.3693e-09
-2.30747e-09
-2.25982e-09
-2.2194e-09
-2.16848e-09
-2.13105e-09
-2.0953e-09
-2.06386e-09
-2.02657e-09
-1.9838e-09
-1.94372e-09
-1.89587e-09
-1.86184e-09
-1.81979e-09
-1.768e-09
-1.72073e-09
-1.6842e-09
-1.64274e-09
-1.59541e-09
-1.54171e-09
-1.50138e-09
-1.4529e-09
-1.40019e-09
-1.36162e-09
-1.30421e-09
-1.23984e-09
-1.19883e-09
-1.14596e-09
-1.08439e-09
-1.01762e-09
-9.48022e-10
-8.90764e-10
-8.24121e-10
-7.63818e-10
-7.20848e-10
-6.62762e-10
-5.97715e-10
-5.38915e-10
-4.65597e-10
-3.90378e-10
-3.19022e-10
-2.5163e-10
-2.02056e-10
-1.62133e-10
-1.14755e-10
-6.6401e-11
-1.79874e-11
-6.73921e-09
-6.75981e-09
-6.74933e-09
-6.73912e-09
-6.7432e-09
-6.72381e-09
-6.72459e-09
-6.73087e-09
-6.73891e-09
-6.7281e-09
-6.73273e-09
-6.73073e-09
-6.70316e-09
-6.69954e-09
-6.6884e-09
-6.65391e-09
-6.64418e-09
-6.64079e-09
-6.61015e-09
-6.60438e-09
-6.59542e-09
-6.58255e-09
-6.56993e-09
-6.54771e-09
-6.52623e-09
-6.48839e-09
-6.45663e-09
-6.4241e-09
-6.36245e-09
-6.34193e-09
-6.32447e-09
-6.30906e-09
-6.28543e-09
-6.25579e-09
-6.24562e-09
-6.23095e-09
-6.21606e-09
-6.20082e-09
-6.18893e-09
-6.18127e-09
-6.15111e-09
-6.11721e-09
-6.07478e-09
-6.03391e-09
-5.99026e-09
-5.946e-09
-5.91186e-09
-5.88038e-09
-5.84269e-09
-5.81902e-09
-5.78761e-09
-5.7628e-09
-5.7454e-09
-5.72977e-09
-5.70371e-09
-5.68214e-09
-5.66107e-09
-5.63141e-09
-5.60033e-09
-5.57195e-09
-5.54623e-09
-5.50934e-09
-5.47944e-09
-5.45464e-09
-5.42287e-09
-5.38677e-09
-5.36496e-09
-5.33236e-09
-5.31078e-09
-5.2721e-09
-5.23205e-09
-5.19317e-09
-5.16381e-09
-5.14017e-09
-5.11259e-09
-5.08076e-09
-5.04747e-09
-5.02366e-09
-4.98905e-09
-4.94003e-09
-4.90499e-09
-4.86956e-09
-4.83761e-09
-4.80009e-09
-4.76834e-09
-4.74132e-09
-4.72142e-09
-4.67762e-09
-4.63519e-09
-4.60407e-09
-4.56719e-09
-4.5214e-09
-4.48318e-09
-4.45194e-09
-4.42805e-09
-4.40668e-09
-4.38697e-09
-4.35827e-09
-4.33988e-09
-4.29987e-09
-4.25161e-09
-4.20653e-09
-4.16855e-09
-4.13822e-09
-4.09412e-09
-4.04103e-09
-4.00087e-09
-3.95632e-09
-3.9278e-09
-3.89296e-09
-3.8692e-09
-3.83288e-09
-3.80389e-09
-3.78628e-09
-3.7644e-09
-3.74536e-09
-3.71214e-09
-3.66953e-09
-3.64036e-09
-3.61827e-09
-3.60363e-09
-3.57608e-09
-3.53856e-09
-3.48973e-09
-3.45409e-09
-3.43575e-09
-3.402e-09
-3.35255e-09
-3.31628e-09
-3.27396e-09
-3.23402e-09
-3.20458e-09
-3.1534e-09
-3.09702e-09
-3.051e-09
-3.00331e-09
-2.95442e-09
-2.90192e-09
-2.85057e-09
-2.82031e-09
-2.79293e-09
-2.75328e-09
-2.71483e-09
-2.68387e-09
-2.66117e-09
-2.6296e-09
-2.59287e-09
-2.56101e-09
-2.53184e-09
-2.51218e-09
-2.48495e-09
-2.46065e-09
-2.42817e-09
-2.37838e-09
-2.31633e-09
-2.2695e-09
-2.22639e-09
-2.16823e-09
-2.1138e-09
-2.09218e-09
-2.0531e-09
-2.02212e-09
-1.9804e-09
-1.95542e-09
-1.90399e-09
-1.86087e-09
-1.81125e-09
-1.76267e-09
-1.71077e-09
-1.67041e-09
-1.63678e-09
-1.58603e-09
-1.5377e-09
-1.47405e-09
-1.44314e-09
-1.40216e-09
-1.35482e-09
-1.29418e-09
-1.23226e-09
-1.18799e-09
-1.14976e-09
-1.08289e-09
-1.0131e-09
-9.36465e-10
-8.67168e-10
-8.23783e-10
-7.7161e-10
-7.14326e-10
-6.53452e-10
-5.90557e-10
-5.44363e-10
-4.6421e-10
-3.87325e-10
-3.11657e-10
-2.56946e-10
-2.09108e-10
-1.60667e-10
-1.11868e-10
-6.82948e-11
-2.37327e-11
-6.74305e-09
-6.76015e-09
-6.75932e-09
-6.74194e-09
-6.74728e-09
-6.73645e-09
-6.73184e-09
-6.73596e-09
-6.73626e-09
-6.73099e-09
-6.72968e-09
-6.71989e-09
-6.69405e-09
-6.68604e-09
-6.67373e-09
-6.65993e-09
-6.65136e-09
-6.63739e-09
-6.60533e-09
-6.58859e-09
-6.58729e-09
-6.57272e-09
-6.56836e-09
-6.54886e-09
-6.507e-09
-6.48312e-09
-6.46727e-09
-6.42783e-09
-6.36457e-09
-6.3411e-09
-6.34845e-09
-6.33846e-09
-6.31312e-09
-6.27133e-09
-6.2495e-09
-6.22939e-09
-6.21849e-09
-6.20727e-09
-6.19308e-09
-6.17206e-09
-6.15173e-09
-6.12488e-09
-6.08644e-09
-6.04646e-09
-5.99203e-09
-5.95697e-09
-5.9296e-09
-5.89564e-09
-5.84706e-09
-5.81729e-09
-5.79491e-09
-5.76391e-09
-5.74623e-09
-5.72991e-09
-5.70624e-09
-5.68188e-09
-5.66187e-09
-5.63358e-09
-5.60059e-09
-5.58212e-09
-5.55391e-09
-5.51292e-09
-5.47811e-09
-5.45558e-09
-5.43195e-09
-5.39562e-09
-5.36501e-09
-5.33895e-09
-5.30892e-09
-5.27423e-09
-5.23093e-09
-5.1888e-09
-5.16173e-09
-5.13483e-09