TITLE = "Visualization of the volumetric solution"
VARIABLES = "x","y","Density","Momentum_x","Momentum_y","Energy","Pressure","Temperature","Mach","C<sub>p</sub>","Roe_Dissipation"
ZONE NODES= 2400, ELEMENTS= 2291, DATAPACKING=POINT, ZONETYPE=FEQUADRILATERAL
0.000000e+00	1.250000e+00	1.225090e+00	4.171666e+01	2.713429e-01	2.540221e+05	1.013247e+05	2.881229e+02	1.000721e-01	-4.121268e-04	0.000000e+00	
0.000000e+00	1.218354e+00	1.225089e+00	4.171673e+01	2.702851e-01	2.540219e+05	1.013246e+05	2.881229e+02	1.000723e-01	-5.076376e-04	0.000000e+00	
3.448276e-02	1.218354e+00	1.225073e+00	4.171279e+01	2.545936e+00	2.540193e+05	1.013226e+05	2.881209e+02	1.002486e-01	-3.364036e-03	0.000000e+00	
3.448276e-02	1.250000e+00	1.225073e+00	4.171310e+01	2.545773e+00	2.540192e+05	1.013226e+05	2.881209e+02	1.002494e-01	-3.422633e-03	0.000000e+00	
0.000000e+00	1.186709e+00	1.225089e+00	4.171681e+01	2.698308e-01	2.540220e+05	1.013247e+05	2.881229e+02	1.000725e-01	-4.441145e-04	0.000000e+00	
3.448276e-02	1.186709e+00	1.225073e+00	4.171291e+01	2.545781e+00	2.540193e+05	1.013226e+05	2.881209e+02	1.002489e-01	-3.393171e-03	0.000000e+00	
0.000000e+00	1.155063e+00	1.225090e+00	4.171675e+01	2.695713e-01	2.540220e+05	1.013247e+05	2.881229e+02	1.000723e-01	-4.256265e-04	0.000000e+00	
3.448276e-02	1.155063e+00	1.225073e+00	4.171300e+01	2.545710e+00	2.540193e+05	1.013226e+05	2.881209e+02	1.002491e-01	-3.398090e-03	0.000000e+00	
0.000000e+00	1.123418e+00	1.225090e+00	4.171670e+01	2.694486e-01	2.540221e+05	1.013247e+05	2.881229e+02	1.000722e-01	-4.210067e-04	0.000000e+00	
3.448276e-02	1.123418e+00	1.225073e+00	4.171304e+01	2.545672e+00	2.540193e+05	1.013226e+05	2.881209e+02	1.002492e-01	-3.404777e-03	0.000000e+00	
0.000000e+00	1.091772e+00	1.225090e+00	4.171667e+01	2.693975e-01	2.540221e+05	1.013247e+05	2.881229e+02	1.000721e-01	-4.180335e-04	0.000000e+00	
3.448276e-02	1.091772e+00	1.225073e+00	4.171306e+01	2.545666e+00	2.540193e+05	1.013226e+05	2.881209e+02	1.002493e-01	-3.406470e-03	0.000000e+00	
0.000000e+00	1.060127e+00	1.225090e+00	4.171667e+01	2.693695e-01	2.540221e+05	1.013247e+05	2.881229e+02	1.000721e-01	-4.173595e-04	0.000000e+00	
3.448276e-02	1.060127e+00	1.225073e+00	4.171307e+01	2.545663e+00	2.540193e+05	1.013226e+05	2.881209e+02	1.002493e-01	-3.408802e-03	0.000000e+00	
0.000000e+00	1.028481e+00	1.225090e+00	4.171668e+01	2.693529e-01	2.540221e+05	1.013247e+05	2.881229e+02	1.000721e-01	-4.167162e-04	0.000000e+00	
3.448276e-02	1.028481e+00	1.225073e+00	4.171308e+01	2.545663e+00	2.540193e+05	1.013226e+05	2.881209e+02	1.002493e-01	-3.409532e-03	0.000000e+00	
0.000000e+00	9.968354e-01	1.225090e+00	4.171669e+01	2.693423e-01	2.540221e+05	1.013247e+05	2.881229e+02	1.000721e-01	-4.164820e-04	0.000000e+00	
3.448276e-02	9.968354e-01	1.225073e+00	4.171309e+01	2.545661e+00	2.540193e+05	1.013226e+05	2.881209e+02	1.002494e-01	-3.410340e-03	0.000000e+00	
0.000000e+00	9.651899e-01	1.225090e+00	4.171669e+01	2.693362e-01	2.540221e+05	1.013247e+05	2.881229e+02	1.000722e-01	-4.162570e-04	0.000000e+00	
3.448276e-02	9.651899e-01	1.225073e+00	4.171310e+01	2.545661e+00	2.540193e+05	1.013226e+05	2.881209e+02	1.002494e-01	-3.410664e-03	0.000000e+00	
0.000000e+00	9.335443e-01	1.225090e+00	4.171669e+01	2.693329e-01	2.540221e+05	1.013247e+05	2.881229e+02	1.000722e-01	-4.161860e-04	0.000000e+00	
3.448276e-02	9.335443e-01	1.225073e+00	4.171310e+01	2.545660e+00	2.540193e+05	1.013226e+05	2.881209e+02	1.002494e-01	-3.410979e-03	0.000000e+00	
0.000000e+00	9.018987e-01	1.225090e+00	4.171669e+01	2.693313e-01	2.540221e+05	1.013247e+05	2.881229e+02	1.000722e-01	-4.161349e-04	0.000000e+00	
3.448276e-02	9.018987e-01	1.225073e+00	4.171311e+01	2.545661e+00	2.540193e+05	1.013226e+05	2.881209e+02	1.002494e-01	-3.411133e-03	0.000000e+00	
0.000000e+00	8.702532e-01	1.225090e+00	4.171669e+01	2.693304e-01	2.540221e+05	1.013247e+05	2.881229e+02	1.000722e-01	-4.161336e-04	0.000000e+00	
3.448276e-02	8.702532e-01	1.225073e+00	4.171311e+01	2.545661e+00	2.540193e+05	1.013226e+05	2.881209e+02	1.002494e-01	-3.411269e-03	0.000000e+00	
0.000000e+00	8.386076e-01	1.225090e+00	4.171669e+01	2.693300e-01	2.540221e+05	1.013247e+05	2.881229e+02	1.000722e-01	-4.161348e-04	0.000000e+00	
3.448276e-02	8.386076e-01	1.225073e+00	4.171311e+01	2.545661e+00	2.540193e+05	1.013226e+05	2.881209e+02	1.002494e-01	-3.411347e-03	0.000000e+00	
0.000000e+00	8.069620e-01	1.225090e+00	4.171670e+01	2.693298e-01	2.540221e+05	1.013247e+05	2.881229e+02	1.000722e-01	-4.161477e-04	0.000000e+00	
3.448276e-02	8.069620e-01	1.225073e+00	4.171311e+01	2.545661e+00	2.540193e+05	1.013226e+05	2.881209e+02	1.002494e-01	-3.411412e-03	0.000000e+00	
0.000000e+00	7.753165e-01	1.225090e+00	4.171670e+01	2.693297e-01	2.540221e+05	1.013247e+05	2.881229e+02	1.000722e-01	-4.161586e-04	0.000000e+00	
3.448276e-02	7.753165e-01	1.225073e+00	4.171311e+01	2.545662e+00	2.540193e+05	1.013226e+05	2.881209e+02	1.002494e-01	-3.411454e-03	0.000000e+00	
0.000000e+00	7.436709e-01	1.225090e+00	4.171670e+01	2.693298e-01	2.540221e+05	1.013247e+05	2.881229e+02	1.000722e-01	-4.161717e-04	0.000000e+00	
3.448276e-02	7.436709e-01	1.225073e+00	4.171311e+01	2.545662e+00	2.540193e+05	1.013226e+05	2.881209e+02	1.002494e-01	-3.411488e-03	0.000000e+00	
0.000000e+00	7.120253e-01	1.225090e+00	4.171670e+01	2.693299e-01	2.540221e+05	1.013247e+05	2.881229e+02	1.000722e-01	-4.161829e-04	0.000000e+00	
3.448276e-02	7.120253e-01	1.225073e+00	4.171311e+01	2.545662e+00	2.540193e+05	1.013226e+05	2.881209e+02	1.002494e-01	-3.411512e-03	0.000000e+00	
0.000000e+00	6.803797e-01	1.225090e+00	4.171670e+01	2.693301e-01	2.540221e+05	1.013247e+05	2.881229e+02	1.000722e-01	-4.161938e-04	0.000000e+00	
3.448276e-02	6.803797e-01	1.225073e+00	4.171311e+01	2.545662e+00	2.540193e+05	1.013226e+05	2.881209e+02	1.002494e-01	-3.411532e-03	0.000000e+00	
0.000000e+00	6.487342e-01	1.225090e+00	4.171670e+01	2.693302e-01	2.540221e+05	1.013247e+05	2.881229e+02	1.000722e-01	-4.162031e-04	0.000000e+00	
3.448276e-02	6.487342e-01	1.225073e+00	4.171311e+01	2.545663e+00	2.540193e+05	1.013226e+05	2.881209e+02	1.002494e-01	-3.411547e-03	0.000000e+00	
0.000000e+00	6.170886e-01	1.225090e+00	4.171670e+01	2.693304e-01	2.540221e+05	1.013247e+05	2.881229e+02	1.000722e-01	-4.162115e-04	0.000000e+00	
3.448276e-02	6.170886e-01	1.225073e+00	4.171311e+01	2.545663e+00	2.540193e+05	1.013226e+05	2.881209e+02	1.002494e-01	-3.411559e-03	0.000000e+00	
0.000000e+00	5.854430e-01	1.225090e+00	4.171670e+01	2.693306e-01	2.540221e+05	1.013247e+05	2.881229e+02	1.000722e-01	-4.162185e-04	0.000000e+00	
3.448276e-02	5.854430e-01	1.225073e+00	4.171311e+01	2.545663e+00	2.540193e+05	1.013226e+05	2.881209e+02	1.002494e-01	-3.411569e-03	0.000000e+00	
0.000000e+00	5.537975e-01	1.225090e+00	4.171670e+01	2.693308e-01	2.540221e+05	1.013247e+05	2.881229e+02	1.000722e-01	-4.162245e-04	0.000000e+00	
3.448276e-02	5.537975e-01	1.225073e+00	4.171311e+01	2.545663e+00	2.540193e+05	1.013226e+05	2.881209e+02	1.002494e-01	-3.411577e-03	0.000000e+00	
0.000000e+00	5.221519e-01	1.225090e+00	4.171670e+01	2.693309e-01	2.540221e+05	1.013247e+05	2.881229e+02	1.000722e-01	-4.162296e-04	0.000000e+00	
3.448276e-02	5.221519e-01	1.225073e+00	4.171311e+01	2.545663e+00	2.540193e+05	1.013226e+05	2.881209e+02	1.002494e-01	-3.411583e-03	0.000000e+00	
0.000000e+00	4.905063e-01	1.225090e+00	4.171670e+01	2.693311e-01	2.540221e+05	1.013247e+05	2.881229e+02	1.000722e-01	-4.162339e-04	0.000000e+00	
3.448276e-02	4.905063e-01	1.225073e+00	4.171311e+01	2.545664e+00	2.540193e+05	1.013226e+05	2.881209e+02	1.002494e-01	-3.411588e-03	0.000000e+00	
0.000000e+00	4.588608e-01	1.225090e+00	4.171670e+01	2.693313e-01	2.540221e+05	1.013247e+05	2.881229e+02	1.000722e-01	-4.162375e-04	0.000000e+00	
3.448276e-02	4.588608e-01	1.225073e+00	4.171311e+01	2.545664e+00	2.540193e+05	1.013226e+05	2.881209e+02	1.002494e-01	-3.411592e-03	0.000000e+00	
0.000000e+00	4.272152e-01	1.225090e+00	4.171670e+01	2.693314e-01	2.540221e+05	1.013247e+05	2.881229e+02	1.000722e-01	-4.162405e-04	0.000000e+00	
3.448276e-02	4.272152e-01	1.225073e+00	4.171311e+01	2.545664e+00	2.540193e+05	1.013226e+05	2.881209e+02	1.002494e-01	-3.411596e-03	0.000000e+00	
0.000000e+00	3.955696e-01	1.225090e+00	4.171670e+01	2.693316e-01	2.540221e+05	1.013247e+05	2.881229e+02	1.000722e-01	-4.162430e-04	0.000000e+00	
3.448276e-02	3.955696e-01	1.225073e+00	4.171311e+01	2.545664e+00	2.540193e+05	1.013226e+05	2.881209e+02	1.002494e-01	-3.411598e-03	0.000000e+00	
0.000000e+00	3.639241e-01	1.225090e+00	4.171670e+01	2.693317e-01	2.540221e+05	1.013247e+05	2.881229e+02	1.000722e-01	-4.162450e-04	0.000000e+00	
3.448276e-02	3.639241e-01	1.225073e+00	4.171311e+01	2.545664e+00	2.540193e+05	1.013226e+05	2.881209e+02	1.002494e-01	-3.411601e-03	0.000000e+00	
0.000000e+00	3.322785e-01	1.225090e+00	4.171670e+01	2.693318e-01	2.540221e+05	1.013247e+05	2.881229e+02	1.000722e-01	-4.162467e-04	0.000000e+00	
3.448276e-02	3.322785e-01	1.225073e+00	4.171311e+01	2.545664e+00	2.540193e+05	1.013226e+05	2.881209e+02	1.002494e-01	-3.411603e-03	0.000000e+00	
0.000000e+00	3.006329e-01	1.225090e+00	4.171670e+01	2.693320e-01	2.540221e+05	1.013247e+05	2.881229e+02	1.000722e-01	-4.162481e-04	0.000000e+00	
3.448276e-02	3.006329e-01	1.225073e+00	4.171311e+01	2.545664e+00	2.540193e+05	1.013226e+05	2.881209e+02	1.002494e-01	-3.411604e-03	0.000000e+00	
0.000000e+00	2.689873e-01	1.225090e+00	4.171670e+01	2.693321e-01	2.540221e+05	1.013247e+05	2.881229e+02	1.000722e-01	-4.162492e-04	0.000000e+00	
3.448276e-02	2.689873e-01	1.225073e+00	4.171311e+01	2.545664e+00	2.540193e+05	1.013226e+05	2.881209e+02	1.002494e-01	-3.411605e-03	0.000000e+00	
0.000000e+00	2.373418e-01	1.225090e+00	4.171670e+01	2.693322e-01	2.540221e+05	1.013247e+05	2.881229e+02	1.000722e-01	-4.162501e-04	0.000000e+00	
3.448276e-02	2.373418e-01	1.225073e+00	4.171311e+01	2.545665e+00	2.540193e+05	1.013226e+05	2.881209e+02	1.002494e-01	-3.411606e-03	0.000000e+00	
0.000000e+00	2.056962e-01	1.225090e+00	4.171670e+01	2.693323e-01	2.540221e+05	1.013247e+05	2.881229e+02	1.000722e-01	-4.162507e-04	0.000000e+00	
3.448276e-02	2.056962e-01	1.225073e+00	4.171311e+01	2.545665e+00	2.540193e+05	1.013226e+05	2.881209e+02	1.002494e-01	-3.411607e-03	0.000000e+00	
0.000000e+00	1.740506e-01	1.225090e+00	4.171670e+01	2.693324e-01	2.540221e+05	1.013247e+05	2.881229e+02	1.000722e-01	-4.162512e-04	0.000000e+00	
3.448276e-02	1.740506e-01	1.225073e+00	4.171311e+01	2.545665e+00	2.540193e+05	1.013226e+05	2.881209e+02	1.002494e-01	-3.411608e-03	0.000000e+00	
0.000000e+00	1.424051e-01	1.225090e+00	4.171670e+01	2.693325e-01	2.540221e+05	1.013247e+05	2.881229e+02	1.000722e-01	-4.162515e-04	0.000000e+00	
3.448276e-02	1.424051e-01	1.225073e+00	4.171311e+01	2.545665e+00	2.540193e+05	1.013226e+05	2.881209e+02	1.002494e-01	-3.411608e-03	0.000000e+00	
0.000000e+00	1.107595e-01	1.225090e+00	4.171670e+01	2.693326e-01	2.540221e+05	1.013247e+05	2.881229e+02	1.000722e-01	-4.162518e-04	0.000000e+00	
3.448276e-02	1.107595e-01	1.225073e+00	4.171311e+01	2.545665e+00	2.540193e+05	1.013226e+05	2.881209e+02	1.002494e-01	-3.411608e-03	0.000000e+00	
0.000000e+00	7.911392e-02	1.225090e+00	4.171670e+01	2.693327e-01	2.540221e+05	1.013247e+05	2.881229e+02	1.000722e-01	-4.162519e-04	0.000000e+00	
3.448276e-02	7.911392e-02	1.225073e+00	4.171311e+01	2.545665e+00	2.540193e+05	1.013226e+05	2.881209e+02	1.002494e-01	-3.411608e-03	0.000000e+00	
0.000000e+00	4.746835e-02	1.225090e+00	4.171670e+01	2.693328e-01	2.540221e+05	1.013247e+05	2.881229e+02	1.000722e-01	-4.162519e-04	0.000000e+00	
3.448276e-02	4.746835e-02	1.225073e+00	4.171311e+01	2.545665e+00	2.540193e+05	1.013226e+05	2.881209e+02	1.002494e-01	-3.411609e-03	0.000000e+00	
0.000000e+00	1.582278e-02	1.225090e+00	4.171670e+01	2.693329e-01	2.540221e+05	1.013247e+05	2.881229e+02	1.000722e-01	-4.162518e-04	0.000000e+00	
3.448276e-02	1.582278e-02	1.225073e+00	4.171311e+01	2.545665e+00	2.540193e+05	1.013226e+05	2.881209e+02	1.002494e-01	-3.411609e-03	0.000000e+00	
0.000000e+00	-1.582278e-02	1.225090e+00	4.171670e+01	2.693330e-01	2.540221e+05	1.013247e+05	2.881229e+02	1.000722e-01	-4.162517e-04	0.000000e+00	
3.448276e-02	-1.582278e-02	1.225073e+00	4.171311e+01	2.545665e+00	2.540193e+05	1.013226e+05	2.881209e+02	1.002494e-01	-3.411609e-03	0.000000e+00	
0.000000e+00	-4.746835e-02	1.225090e+00	4.171670e+01	2.693331e-01	2.540221e+05	1.013247e+05	2.881229e+02	1.000722e-01	-4.162515e-04	0.000000e+00	
3.448276e-02	-4.746835e-02	1.225073e+00	4.171311e+01	2.545665e+00	2.540193e+05	1.013226e+05	2.881209e+02	1.002494e-01	-3.411609e-03	0.000000e+00	
0.000000e+00	-7.911392e-02	1.225090e+00	4.171670e+01	2.693332e-01	2.540221e+05	1.013247e+05	2.881229e+02	1.000722e-01	-4.162513e-04	0.000000e+00	
3.448276e-02	-7.911392e-02	1.225073e+00	4.171311e+01	2.545665e+00	2.540193e+05	1.013226e+05	2.881209e+02	1.002494e-01	-3.411609e-03	0.000000e+00	
0.000000e+00	-1.107595e-01	1.225090e+00	4.171670e+01	2.693333e-01	2.540221e+05	1.013247e+05	2.881229e+02	1.000722e-01	-4.162511e-04	0.000000e+00	
3.448276e-02	-1.107595e-01	1.225073e+00	4.171311e+01	2.545666e+00	2.540193e+05	1.013226e+05	2.881209e+02	1.002494e-01	-3.411608e-03	0.000000e+00	
0.000000e+00	-1.424051e-01	1.225090e+00	4.171670e+01	2.693334e-01	2.540221e+05	1.013247e+05	2.881229e+02	1.000722e-01	-4.162508e-04	0.000000e+00	
3.448276e-02	-1.424051e-01	1.225073e+00	4.171311e+01	2.545666e+00	2.540193e+05	1.013226e+05	2.881209e+02	1.002494e-01	-3.411608e-03	0.000000e+00	
0.000000e+00	-1.740506e-01	1.225090e+00	4.171670e+01	2.693335e-01	2.540221e+05	1.013247e+05	2.881229e+02	1.000722e-01	-4.162506e-04	0.000000e+00	
3.448276e-02	-1.740506e-01	1.225073e+00	4.171311e+01	2.545666e+00	2.540193e+05	1.013226e+05	2.881209e+02	1.002494e-01	-3.411608e-03	0.000000e+00	
0.000000e+00	-2.056962e-01	1.225090e+00	4.171670e+01	2.693335e-01	2.540221e+05	1.013247e+05	2.881229e+02	1.000722e-01	-4.162504e-04	0.000000e+00	
3.448276e-02	-2.056962e-01	1.225073e+00	4.171311e+01	2.545666e+00	2.540193e+05	1.013226e+05	2.881209e+02	1.002494e-01	-3.411608e-03	0.000000e+00	
0.000000e+00	-2.373418e-01	1.225090e+00	4.171670e+01	2.693336e-01	2.540221e+05	1.013247e+05	2.881229e+02	1.000722e-01	-4.162502e-04	0.000000e+00	
3.448276e-02	-2.373418e-01	1.225073e+00	4.171311e+01	2.545666e+00	2.540193e+05	1.013226e+05	2.881209e+02	1.002494e-01	-3.411608e-03	0.000000e+00	
0.000000e+00	-2.689873e-01	1.225090e+00	4.171670e+01	2.693337e-01	2.540221e+05	1.013247e+05	2.881229e+02	1.000722e-01	-4.162501e-04	0.000000e+00	
3.448276e-02	-2.689873e-01	1.225073e+00	4.171311e+01	2.545666e+00	2.540193e+05	1.013226e+05	2.881209e+02	1.002494e-01	-3.411608e-03	0.000000e+00	
0.000000e+00	-3.006329e-01	1.225090e+00	4.171670e+01	2.693338e-01	2.540221e+05	1.013247e+05	2.881229e+02	1.000722e-01	-4.162501e-04	0.000000e+00	
3.448276e-02	-3.006329e-01	1.225073e+00	4.171311e+01	2.545666e+00	2.540193e+05	1.013226e+05	2.881209e+02	1.002494e-01	-3.411609e-03	0.000000e+00	
0.000000e+00	-3.322785e-01	1.225090e+00	4.171670e+01	2.693339e-01	2.540221e+05	1.013247e+05	2.881229e+02	1.000722e-01	-4.162501e-04	0.000000e+00	
3.448276e-02	-3.322785e-01	1.225073e+00	4.171311e+01	2.545666e+00	2.540193e+05	1.013226e+05	2.881209e+02	1.002494e-01	-3.411609e-03	0.000000e+00	
0.000000e+00	-3.639241e-01	1.225090e+00	4.171670e+01	2.693339e-01	2.540221e+05	1.013247e+05	2.881229e+02	1.000722e-01	-4.162504e-04	0.000000e+00	
3.448276e-02	-3.639241e-01	1.225073e+00	4.171311e+01	2.545666e+00	2.540193e+05	1.013226e+05	2.881209e+02	1.002494e-01	-3.411610e-03	0.000000e+00	
0.000000e+00	-3.955696e-01	1.225090e+00	4.171670e+01	2.693340e-01	2.540221e+05	1.013247e+05	2.881229e+02	1.000722e-01	-4.162507e-04	0.000000e+00	
3.448276e-02	-3.955696e-01	1.225073e+00	4.171311e+01	2.545666e+00	2.540193e+05	1.013226e+05	2.881209e+02	1.002494e-01	-3.411611e-03	0.000000e+00	
0.000000e+00	-4.272152e-01	1.225090e+00	4.171670e+01	2.693341e-01	2.540221e+05	1.013247e+05	2.881229e+02	1.000722e-01	-4.162514e-04	0.000000e+00	
3.448276e-02	-4.272152e-01	1.225073e+00	4.171311e+01	2.545666e+00	2.540193e+05	1.013226e+05	2.881209e+02	1.002494e-01	-3.411612e-03	0.000000e+00	
0.000000e+00	-4.588608e-01	1.225090e+00	4.171670e+01	2.693342e-01	2.540221e+05	1.013247e+05	2.881229e+02	1.000722e-01	-4.162522e-04	0.000000e+00	
3.448276e-02	-4.588608e-01	1.225073e+00	4.171311e+01	2.545666e+00	2.540193e+05	1.013226e+05	2.881209e+02	1.002494e-01	-3.411613e-03	0.000000e+00	
0.000000e+00	-4.905063e-01	1.225090e+00	4.171670e+01	2.693343e-01	2.540221e+05	1.013247e+05	2.881229e+02	1.000722e-01	-4.162534e-04	0.000000e+00	
3.448276e-02	-4.905063e-01	1.225073e+00	4.171311e+01	2.545666e+00	2.540193e+05	1.013226e+05	2.881209e+02	1.002494e-01	-3.411616e-03	0.000000e+00	
0.000000e+00	-5.221519e-01	1.225090e+00	4.171670e+01	2.693344e-01	2.540221e+05	1.013247e+05	2.881229e+02	1.000722e-01	-4.162550e-04	0.000000e+00	
3.448276e-02	-5.221519e-01	1.225073e+00	4.171311e+01	2.545666e+00	2.540193e+05	1.013226e+05	2.881209e+02	1.002494e-01	-3.411618e-03	0.000000e+00	
0.000000e+00	-5.537975e-01	1.225090e+00	4.171670e+01	2.693345e-01	2.540221e+05	1.013247e+05	2.881229e+02	1.000722e-01	-4.162570e-04	0.000000e+00	
3.448276e-02	-5.537975e-01	1.225073e+00	4.171311e+01	2.545666e+00	2.540193e+05	1.013226e+05	2.881209e+02	1.002494e-01	-3.411622e-03	0.000000e+00	
0.000000e+00	-5.854430e-01	1.225090e+00	4.171670e+01	2.693346e-01	2.540221e+05	1.013247e+05	2.881229e+02	1.000722e-01	-4.162596e-04	0.000000e+00	
3.448276e-02	-5.854430e-01	1.225073e+00	4.171311e+01	2.545667e+00	2.540193e+05	1.013226e+05	2.881209e+02	1.002494e-01	-3.411627e-03	0.000000e+00	
0.000000e+00	-6.170886e-01	1.225090e+00	4.171670e+01	2.693347e-01	2.540221e+05	1.013247e+05	2.881229e+02	1.000722e-01	-4.162627e-04	0.000000e+00	
3.448276e-02	-6.170886e-01	1.225073e+00	4.171311e+01	2.545667e+00	2.540193e+05	1.013226e+05	2.881209e+02	1.002494e-01	-3.411634e-03	0.000000e+00	
0.000000e+00	-6.487342e-01	1.225090e+00	4.171670e+01	2.693349e-01	2.540221e+05	1.013247e+05	2.881229e+02	1.000722e-01	-4.162665e-04	0.000000e+00	
3.448276e-02	-6.487342e-01	1.225073e+00	4.171311e+01	2.545667e+00	2.540193e+05	1.013226e+05	2.881209e+02	1.002494e-01	-3.411643e-03	0.000000e+00	
0.000000e+00	-6.803797e-01	1.225090e+00	4.171670e+01	2.693351e-01	2.540221e+05	1.013247e+05	2.881229e+02	1.000722e-01	-4.162707e-04	0.000000e+00	
3.448276e-02	-6.803797e-01	1.225073e+00	4.171311e+01	2.545667e+00	2.540193e+05	1.013226e+05	2.881209e+02	1.002494e-01	-3.411655e-03	0.000000e+00	
0.000000e+00	-7.120253e-01	1.225090e+00	4.171670e+01	2.693353e-01	2.540221e+05	1.013247e+05	2.881229e+02	1.000722e-01	-4.162756e-04	0.000000e+00	
3.448276e-02	-7.120253e-01	1.225073e+00	4.171311e+01	2.545667e+00	2.540193e+05	1.013226e+05	2.881209e+02	1.002494e-01	-3.411672e-03	0.000000e+00	
0.000000e+00	-7.436709e-01	1.225090e+00	4.171670e+01	2.693356e-01	2.540221e+05	1.013247e+05	2.881229e+02	1.000722e-01	-4.162799e-04	0.000000e+00	
3.448276e-02	-7.436709e-01	1.225073e+00	4.171311e+01	2.545667e+00	2.540193e+05	1.013226e+05	2.881209e+02	1.002494e-01	-3.411694e-03	0.000000e+00	
0.000000e+00	-7.753165e-01	1.225090e+00	4.171670e+01	2.693360e-01	2.540221e+05	1.013247e+05	2.881229e+02	1.000722e-01	-4.162842e-04	0.000000e+00	
3.448276e-02	-7.753165e-01	1.225073e+00	4.171311e+01	2.545667e+00	2.540193e+05	1.013226e+05	2.881209e+02	1.002494e-01	-3.411725e-03	0.000000e+00	
0.000000e+00	-8.069620e-01	1.225090e+00	4.171670e+01	2.693365e-01	2.540221e+05	1.013247e+05	2.881229e+02	1.000722e-01	-4.162843e-04	0.000000e+00	
3.448276e-02	-8.069620e-01	1.225073e+00	4.171311e+01	2.545667e+00	2.540193e+05	1.013226e+05	2.881209e+02	1.002494e-01	-3.411767e-03	0.000000e+00	
0.000000e+00	-8.386076e-01	1.225090e+00	4.171670e+01	2.693373e-01	2.540221e+05	1.013247e+05	2.881229e+02	1.000722e-01	-4.162827e-04	0.000000e+00	
3.448276e-02	-8.386076e-01	1.225073e+00	4.171311e+01	2.545668e+00	2.540193e+05	1.013226e+05	2.881209e+02	1.002494e-01	-3.411832e-03	0.000000e+00	
0.000000e+00	-8.702532e-01	1.225090e+00	4.171670e+01	2.693383e-01	2.540221e+05	1.013247e+05	2.881229e+02	1.000722e-01	-4.162671e-04	0.000000e+00	
3.448276e-02	-8.702532e-01	1.225073e+00	4.171311e+01	2.545668e+00	2.540193e+05	1.013226e+05	2.881209e+02	1.002494e-01	-3.411915e-03	0.000000e+00	
0.000000e+00	-9.018987e-01	1.225090e+00	4.171670e+01	2.693399e-01	2.540221e+05	1.013247e+05	2.881229e+02	1.000722e-01	-4.162442e-04	0.000000e+00	
3.448276e-02	-9.018987e-01	1.225073e+00	4.171312e+01	2.545668e+00	2.540193e+05	1.013226e+05	2.881209e+02	1.002494e-01	-3.412060e-03	0.000000e+00	
0.000000e+00	-9.335443e-01	1.225090e+00	4.171670e+01	2.693422e-01	2.540221e+05	1.013247e+05	2.881229e+02	1.000722e-01	-4.161698e-04	0.000000e+00	
3.448276e-02	-9.335443e-01	1.225073e+00	4.171312e+01	2.545669e+00	2.540192e+05	1.013226e+05	2.881209e+02	1.002494e-01	-3.412236e-03	0.000000e+00	
0.000000e+00	-9.651899e-01	1.225090e+00	4.171670e+01	2.693463e-01	2.540221e+05	1.013247e+05	2.881229e+02	1.000722e-01	-4.160630e-04	0.000000e+00	
3.448276e-02	-9.651899e-01	1.225073e+00	4.171312e+01	2.545670e+00	2.540192e+05	1.013226e+05	2.881209e+02	1.002494e-01	-3.412579e-03	0.000000e+00	
0.000000e+00	-9.968354e-01	1.225090e+00	4.171671e+01	2.693533e-01	2.540221e+05	1.013247e+05	2.881229e+02	1.000722e-01	-4.157933e-04	0.000000e+00	
3.448276e-02	-9.968354e-01	1.225073e+00	4.171313e+01	2.545672e+00	2.540192e+05	1.013226e+05	2.881209e+02	1.002494e-01	-3.412973e-03	0.000000e+00	
0.000000e+00	-1.028481e+00	1.225090e+00	4.171671e+01	2.693651e-01	2.540221e+05	1.013247e+05	2.881229e+02	1.000722e-01	-4.154769e-04	0.000000e+00	
3.448276e-02	-1.028481e+00	1.225073e+00	4.171314e+01	2.545675e+00	2.540192e+05	1.013226e+05	2.881209e+02	1.002495e-01	-3.413869e-03	0.000000e+00	
0.000000e+00	-1.060127e+00	1.225090e+00	4.171672e+01	2.693832e-01	2.540221e+05	1.013247e+05	2.881229e+02	1.000722e-01	-4.147427e-04	0.000000e+00	
3.448276e-02	-1.060127e+00	1.225073e+00	4.171315e+01	2.545678e+00	2.540192e+05	1.013226e+05	2.881209e+02	1.002495e-01	-3.414804e-03	0.000000e+00	
0.000000e+00	-1.091772e+00	1.225090e+00	4.171672e+01	2.694129e-01	2.540221e+05	1.013247e+05	2.881229e+02	1.000722e-01	-4.139101e-04	0.000000e+00	
3.448276e-02	-1.091772e+00	1.225073e+00	4.171316e+01	2.545684e+00	2.540192e+05	1.013226e+05	2.881209e+02	1.002495e-01	-3.417367e-03	0.000000e+00	
0.000000e+00	-1.123418e+00	1.225090e+00	4.171670e+01	2.694660e-01	2.540221e+05	1.013247e+05	2.881229e+02	1.000722e-01	-4.108301e-04	0.000000e+00	
3.448276e-02	-1.123418e+00	1.225073e+00	4.171318e+01	2.545693e+00	2.540192e+05	1.013226e+05	2.881209e+02	1.002496e-01	-3.419650e-03	0.000000e+00	
0.000000e+00	-1.155063e+00	1.225090e+00	4.171664e+01	2.695883e-01	2.540221e+05	1.013247e+05	2.881229e+02	1.000720e-01	-4.057236e-04	0.000000e+00	
3.448276e-02	-1.155063e+00	1.225073e+00	4.171321e+01	2.545732e+00	2.540192e+05	1.013226e+05	2.881209e+02	1.002497e-01	-3.426978e-03	0.000000e+00	
0.000000e+00	-1.186709e+00	1.225090e+00	4.171657e+01	2.698451e-01	2.540221e+05	1.013247e+05	2.881229e+02	1.000719e-01	-3.869179e-04	0.000000e+00	
3.448276e-02	-1.186709e+00	1.225073e+00	4.171328e+01	2.545798e+00	2.540192e+05	1.013226e+05	2.881209e+02	1.002498e-01	-3.434254e-03	0.000000e+00	
0.000000e+00	-1.218354e+00	1.225090e+00	4.171661e+01	2.702978e-01	2.540222e+05	1.013248e+05	2.881229e+02	1.000719e-01	-3.245725e-04	0.000000e+00	
3.448276e-02	-1.218354e+00	1.225072e+00	4.171338e+01	2.545923e+00	2.540192e+05	1.013225e+05	2.881209e+02	1.002501e-01	-3.462260e-03	0.000000e+00	
6.896552e-02	1.218354e+00	1.225011e+00	4.171485e+01	4.543808e+00	2.540081e+05	1.013158e+05	2.881161e+02	1.006652e-01	-1.300420e-02	0.000000e+00	
6.896552e-02	1.250000e+00	1.225011e+00	4.171490e+01	4.543598e+00	2.540081e+05	1.013158e+05	2.881161e+02	1.006653e-01	-1.301403e-02	0.000000e+00	
6.896552e-02	1.186709e+00	1.225011e+00	4.171486e+01	4.543846e+00	2.540081e+05	1.013158e+05	2.881161e+02	1.006653e-01	-1.302650e-02	0.000000e+00	
6.896552e-02	1.155063e+00	1.225011e+00	4.171491e+01	4.543897e+00	2.540081e+05	1.013158e+05	2.881161e+02	1.006654e-01	-1.302060e-02	0.000000e+00	
6.896552e-02	1.123418e+00	1.225011e+00	4.171493e+01	4.543900e+00	2.540081e+05	1.013158e+05	2.881161e+02	1.006654e-01	-1.302438e-02	0.000000e+00	
6.896552e-02	1.091772e+00	1.225011e+00	4.171494e+01	4.543912e+00	2.540081e+05	1.013158e+05	2.881161e+02	1.006655e-01	-1.302317e-02	0.000000e+00	
6.896552e-02	1.060127e+00	1.225011e+00	4.171495e+01	4.543916e+00	2.540081e+05	1.013158e+05	2.881161e+02	1.006655e-01	-1.302404e-02	0.000000e+00	
6.896552e-02	1.028481e+00	1.225011e+00	4.171496e+01	4.543921e+00	2.540081e+05	1.013158e+05	2.881161e+02	1.006655e-01	-1.302373e-02	0.000000e+00	
6.896552e-02	9.968354e-01	1.225011e+00	4.171497e+01	4.543922e+00	2.540081e+05	1.013158e+05	2.881161e+02	1.006655e-01	-1.302399e-02	0.000000e+00	
6.896552e-02	9.651899e-01	1.225011e+00	4.171497e+01	4.543924e+00	2.540081e+05	1.013158e+05	2.881161e+02	1.006655e-01	-1.302392e-02	0.000000e+00	
6.896552e-02	9.335443e-01	1.225011e+00	4.171498e+01	4.543924e+00	2.540081e+05	1.013158e+05	2.881161e+02	1.006656e-01	-1.302402e-02	0.000000e+00	
6.896552e-02	9.018987e-01	1.225011e+00	4.171498e+01	4.543925e+00	2.540081e+05	1.013158e+05	2.881161e+02	1.006656e-01	-1.302403e-02	0.000000e+00	
6.896552e-02	8.702532e-01	1.225011e+00	4.171498e+01	4.543926e+00	2.540081e+05	1.013158e+05	2.881161e+02	1.006656e-01	-1.302408e-02	0.000000e+00	
6.896552e-02	8.386076e-01	1.225011e+00	4.171498e+01	4.543926e+00	2.540081e+05	1.013158e+05	2.881161e+02	1.006656e-01	-1.302410e-02	0.000000e+00	
6.896552e-02	8.069620e-01	1.225011e+00	4.171498e+01	4.543926e+00	2.540081e+05	1.013158e+05	2.881161e+02	1.006656e-01	-1.302413e-02	0.000000e+00	
6.896552e-02	7.753165e-01	1.225011e+00	4.171498e+01	4.543927e+00	2.540081e+05	1.013158e+05	2.881161e+02	1.006656e-01	-1.302415e-02	0.000000e+00	
6.896552e-02	7.436709e-01	1.225011e+00	4.171498e+01	4.543927e+00	2.540081e+05	1.013158e+05	2.881161e+02	1.006656e-01	-1.302417e-02	0.000000e+00	
6.896552e-02	7.120253e-01	1.225011e+00	4.171498e+01	4.543928e+00	2.540081e+05	1.013158e+05	2.881161e+02	1.006656e-01	-1.302418e-02	0.000000e+00	
6.896552e-02	6.803797e-01	1.225011e+00	4.171498e+01	4.543928e+00	2.540081e+05	1.013158e+05	2.881161e+02	1.006656e-01	-1.302419e-02	0.000000e+00	
6.896552e-02	6.487342e-01	1.225011e+00	4.171498e+01	4.543928e+00	2.540081e+05	1.013158e+05	2.881161e+02	1.006656e-01	-1.302420e-02	0.000000e+00	
6.896552e-02	6.170886e-01	1.225011e+00	4.171498e+01	4.543928e+00	2.540081e+05	1.013158e+05	2.881161e+02	1.006656e-01	-1.302421e-02	0.000000e+00	
6.896552e-02	5.854430e-01	1.225011e+00	4.171498e+01	4.543929e+00	2.540081e+05	1.013158e+05	2.881161e+02	1.006656e-01	-1.302422e-02	0.000000e+00	
6.896552e-02	5.537975e-01	1.225011e+00	4.171498e+01	4.543929e+00	2.540081e+05	1.013158e+05	2.881161e+02	1.006656e-01	-1.302423e-02	0.000000e+00	
6.896552e-02	5.221519e-01	1.225011e+00	4.171498e+01	4.543929e+00	2.540081e+05	1.013158e+05	2.881161e+02	1.006656e-01	-1.302423e-02	0.000000e+00	
6.896552e-02	4.905063e-01	1.225011e+00	4.171498e+01	4.543929e+00	2.540081e+05	1.013158e+05	2.881161e+02	1.006656e-01	-1.302424e-02	0.000000e+00	
6.896552e-02	4.588608e-01	1.225011e+00	4.171498e+01	4.543929e+00	2.540081e+05	1.013158e+05	2.881161e+02	1.006656e-01	-1.302424e-02	0.000000e+00	
6.896552e-02	4.272152e-01	1.225011e+00	4.171498e+01	4.543929e+00	2.540081e+05	1.013158e+05	2.881161e+02	1.006656e-01	-1.302424e-02	0.000000e+00	
6.896552e-02	3.955696e-01	1.225011e+00	4.171498e+01	4.543929e+00	2.540081e+05	1.013158e+05	2.881161e+02	1.006656e-01	-1.302425e-02	0.000000e+00	
6.896552e-02	3.639241e-01	1.225011e+00	4.171498e+01	4.543930e+00	2.540081e+05	1.013158e+05	2.881161e+02	1.006656e-01	-1.302425e-02	0.000000e+00	
6.896552e-02	3.322785e-01	1.225011e+00	4.171498e+01	4.543930e+00	2.540081e+05	1.013158e+05	2.881161e+02	1.006656e-01	-1.302425e-02	0.000000e+00	
6.896552e-02	3.006329e-01	1.225011e+00	4.171498e+01	4.543930e+00	2.540081e+05	1.013158e+05	2.881161e+02	1.006656e-01	-1.302425e-02	0.000000e+00	
6.896552e-02	2.689873e-01	1.225011e+00	4.171498e+01	4.543930e+00	2.540081e+05	1.013158e+05	2.881161e+02	1.006656e-01	-1.302425e-02	0.000000e+00	
6.896552e-02	2.373418e-01	1.225011e+00	4.171498e+01	4.543930e+00	2.540081e+05	1.013158e+05	2.881161e+02	1.006656e-01	-1.302425e-02	0.000000e+00	
6.896552e-02	2.056962e-01	1.225011e+00	4.171498e+01	4.543930e+00	2.540081e+05	1.013158e+05	2.881161e+02	1.006656e-01	-1.302425e-02	0.000000e+00	
6.896552e-02	1.740506e-01	1.225011e+00	4.171498e+01	4.543930e+00	2.540081e+05	1.013158e+05	2.881161e+02	1.006656e-01	-1.302425e-02	0.000000e+00	
6.896552e-02	1.424051e-01	1.225011e+00	4.171498e+01	4.543930e+00	2.540081e+05	1.013158e+05	2.881161e+02	1.006656e-01	-1.302425e-02	0.000000e+00	
6.896552e-02	1.107595e-01	1.225011e+00	4.171498e+01	4.543930e+00	2.540081e+05	1.013158e+05	2.881161e+02	1.006656e-01	-1.302425e-02	0.000000e+00	
6.896552e-02	7.911392e-02	1.225011e+00	4.171498e+01	4.543930e+00	2.540081e+05	1.013158e+05	2.881161e+02	1.006656e-01	-1.302425e-02	0.000000e+00	
6.896552e-02	4.746835e-02	1.225011e+00	4.171498e+01	4.543930e+00	2.540081e+05	1.013158e+05	2.881161e+02	1.006656e-01	-1.302425e-02	0.000000e+00	
6.896552e-02	1.582278e-02	1.225011e+00	4.171498e+01	4.543931e+00	2.540081e+05	1.013158e+05	2.881161e+02	1.006656e-01	-1.302425e-02	0.000000e+00	
6.896552e-02	-1.582278e-02	1.225011e+00	4.171498e+01	4.543931e+00	2.540081e+05	1.013158e+05	2.881161e+02	1.006656e-01	-1.302425e-02	0.000000e+00	
6.896552e-02	-4.746835e-02	1.225011e+00	4.171498e+01	4.543931e+00	2.540081e+05	1.013158e+05	2.881161e+02	1.006656e-01	-1.302425e-02	0.000000e+00	
6.896552e-02	-7.911392e-02	1.225011e+00	4.171498e+01	4.543931e+00	2.540081e+05	1.013158e+05	2.881161e+02	1.006656e-01	-1.302425e-02	0.000000e+00	
6.896552e-02	-1.107595e-01	1.225011e+00	4.171498e+01	4.543931e+00	2.540081e+05	1.013158e+05	2.881161e+02	1.006656e-01	-1.302425e-02	0.000000e+00	
6.896552e-02	-1.424051e-01	1.225011e+00	4.171498e+01	4.543931e+00	2.540081e+05	1.013158e+05	2.881161e+02	1.006656e-01	-1.302425e-02	0.000000e+00	
6.896552e-02	-1.740506e-01	1.225011e+00	4.171498e+01	4.543931e+00	2.540081e+05	1.013158e+05	2.881161e+02	1.006656e-01	-1.302425e-02	0.000000e+00	