TITLE = "Visualization of the volumetric solution"
VARIABLES = "x","y","Density","Momentum_x","Momentum_y","Energy","Pressure","Temperature","Mach","C<sub>p</sub>","Roe_Dissipation"
ZONE NODES= 3200, ELEMENTS= 3081, DATAPACKING=POINT, ZONETYPE=FEQUADRILATERAL
-2.000000e+00	1.250000e+00	1.225081e+00	4.171441e+01	-2.499481e-11	2.540203e+05	1.013240e+05	2.881230e+02	1.000653e-01	-1.373482e-03	0.000000e+00	
-2.000000e+00	1.218354e+00	1.225081e+00	4.171441e+01	-3.162802e-09	2.540203e+05	1.013240e+05	2.881230e+02	1.000653e-01	-1.373483e-03	0.000000e+00	
-1.948718e+00	1.218354e+00	1.225081e+00	4.171441e+01	-6.975043e-09	2.540203e+05	1.013240e+05	2.881230e+02	1.000653e-01	-1.373486e-03	0.000000e+00	
-1.948718e+00	1.250000e+00	1.225081e+00	4.171441e+01	-8.586918e-10	2.540203e+05	1.013240e+05	2.881230e+02	1.000653e-01	-1.373486e-03	0.000000e+00	
-2.000000e+00	1.186709e+00	1.225081e+00	4.171441e+01	-3.210380e-09	2.540203e+05	1.013240e+05	2.881230e+02	1.000653e-01	-1.373483e-03	0.000000e+00	
-1.948718e+00	1.186709e+00	1.225081e+00	4.171441e+01	-9.149484e-09	2.540203e+05	1.013240e+05	2.881230e+02	1.000653e-01	-1.373486e-03	0.000000e+00	
-2.000000e+00	1.155063e+00	1.225081e+00	4.171441e+01	-1.922518e-09	2.540203e+05	1.013240e+05	2.881230e+02	1.000653e-01	-1.373483e-03	0.000000e+00	
-1.948718e+00	1.155063e+00	1.225081e+00	4.171441e+01	-9.060116e-09	2.540203e+05	1.013240e+05	2.881230e+02	1.000653e-01	-1.373487e-03	0.000000e+00	
-2.000000e+00	1.123418e+00	1.225081e+00	4.171441e+01	-6.385010e-10	2.540203e+05	1.013240e+05	2.881230e+02	1.000653e-01	-1.373484e-03	0.000000e+00	
-1.948718e+00	1.123418e+00	1.225081e+00	4.171441e+01	-8.006516e-09	2.540203e+05	1.013240e+05	2.881230e+02	1.000653e-01	-1.373487e-03	0.000000e+00	
-2.000000e+00	1.091772e+00	1.225081e+00	4.171441e+01	-1.514398e-11	2.540203e+05	1.013240e+05	2.881230e+02	1.000653e-01	-1.373484e-03	0.000000e+00	
-1.948718e+00	1.091772e+00	1.225081e+00	4.171441e+01	-7.339186e-09	2.540203e+05	1.013240e+05	2.881230e+02	1.000653e-01	-1.373487e-03	0.000000e+00	
-2.000000e+00	1.060127e+00	1.225081e+00	4.171441e+01	8.054853e-11	2.540203e+05	1.013240e+05	2.881230e+02	1.000653e-01	-1.373484e-03	0.000000e+00	
-1.948718e+00	1.060127e+00	1.225081e+00	4.171441e+01	-7.213252e-09	2.540203e+05	1.013240e+05	2.881230e+02	1.000653e-01	-1.373487e-03	0.000000e+00	
-2.000000e+00	1.028481e+00	1.225081e+00	4.171441e+01	-2.696352e-11	2.540203e+05	1.013240e+05	2.881230e+02	1.000653e-01	-1.373484e-03	0.000000e+00	
-1.948718e+00	1.028481e+00	1.225081e+00	4.171441e+01	-7.432029e-09	2.540203e+05	1.013240e+05	2.881230e+02	1.000653e-01	-1.373487e-03	0.000000e+00	
-2.000000e+00	9.968354e-01	1.225081e+00	4.171441e+01	-1.087351e-10	2.540203e+05	1.013240e+05	2.881230e+02	1.000653e-01	-1.373485e-03	0.000000e+00	
-1.948718e+00	9.968354e-01	1.225081e+00	4.171441e+01	-7.686920e-09	2.540203e+05	1.013240e+05	2.881230e+02	1.000653e-01	-1.373488e-03	0.000000e+00	
-2.000000e+00	9.651899e-01	1.225081e+00	4.171441e+01	-1.142502e-10	2.540203e+05	1.013240e+05	2.881230e+02	1.000653e-01	-1.373485e-03	0.000000e+00	
-1.948718e+00	9.651899e-01	1.225081e+00	4.171441e+01	-7.857924e-09	2.540203e+05	1.013240e+05	2.881230e+02	1.000653e-01	-1.373488e-03	0.000000e+00	
-2.000000e+00	9.335443e-01	1.225081e+00	4.171441e+01	-7.766563e-11	2.540203e+05	1.013240e+05	2.881230e+02	1.000653e-01	-1.373485e-03	0.000000e+00	
-1.948718e+00	9.335443e-01	1.225081e+00	4.171441e+01	-7.937368e-09	2.540203e+05	1.013240e+05	2.881230e+02	1.000653e-01	-1.373488e-03	0.000000e+00	
-2.000000e+00	9.018987e-01	1.225081e+00	4.171441e+01	-4.223602e-11	2.540203e+05	1.013240e+05	2.881230e+02	1.000653e-01	-1.373485e-03	0.000000e+00	
-1.948718e+00	9.018987e-01	1.225081e+00	4.171441e+01	-7.971868e-09	2.540203e+05	1.013240e+05	2.881230e+02	1.000653e-01	-1.373488e-03	0.000000e+00	
-2.000000e+00	8.702532e-01	1.225081e+00	4.171441e+01	-2.504940e-11	2.540203e+05	1.013240e+05	2.881230e+02	1.000653e-01	-1.373485e-03	0.000000e+00	
-1.948718e+00	8.702532e-01	1.225081e+00	4.171441e+01	-7.991099e-09	2.540203e+05	1.013240e+05	2.881230e+02	1.000653e-01	-1.373488e-03	0.000000e+00	
-2.000000e+00	8.386076e-01	1.225081e+00	4.171441e+01	-2.362050e-11	2.540203e+05	1.013240e+05	2.881230e+02	1.000653e-01	-1.373486e-03	0.000000e+00	
-1.948718e+00	8.386076e-01	1.225081e+00	4.171441e+01	-8.003642e-09	2.540203e+05	1.013240e+05	2.881230e+02	1.000653e-01	-1.373489e-03	0.000000e+00	
-2.000000e+00	8.069620e-01	1.225081e+00	4.171441e+01	-2.912682e-11	2.540203e+05	1.013240e+05	2.881230e+02	1.000653e-01	-1.373486e-03	0.000000e+00	
-1.948718e+00	8.069620e-01	1.225081e+00	4.171441e+01	-8.002734e-09	2.540203e+05	1.013240e+05	2.881230e+02	1.000653e-01	-1.373489e-03	0.000000e+00	
-2.000000e+00	7.753165e-01	1.225081e+00	4.171441e+01	-3.547311e-11	2.540203e+05	1.013240e+05	2.881230e+02	1.000653e-01	-1.373486e-03	0.000000e+00	
-1.948718e+00	7.753165e-01	1.225081e+00	4.171441e+01	-7.980189e-09	2.540203e+05	1.013240e+05	2.881230e+02	1.000653e-01	-1.373489e-03	0.000000e+00	
-2.000000e+00	7.436709e-01	1.225081e+00	4.171441e+01	-4.029982e-11	2.540203e+05	1.013240e+05	2.881230e+02	1.000653e-01	-1.373486e-03	0.000000e+00	
-1.948718e+00	7.436709e-01	1.225081e+00	4.171441e+01	-7.930690e-09	2.540203e+05	1.013240e+05	2.881230e+02	1.000653e-01	-1.373489e-03	0.000000e+00	
-2.000000e+00	7.120253e-01	1.225081e+00	4.171441e+01	-4.356738e-11	2.540203e+05	1.013240e+05	2.881230e+02	1.000653e-01	-1.373487e-03	0.000000e+00	
-1.948718e+00	7.120253e-01	1.225081e+00	4.171441e+01	-7.851754e-09	2.540203e+05	1.013240e+05	2.881230e+02	1.000653e-01	-1.373490e-03	0.000000e+00	
-2.000000e+00	6.803797e-01	1.225081e+00	4.171441e+01	-4.587487e-11	2.540203e+05	1.013240e+05	2.881230e+02	1.000653e-01	-1.373487e-03	0.000000e+00	
-1.948718e+00	6.803797e-01	1.225081e+00	4.171441e+01	-7.742842e-09	2.540203e+05	1.013240e+05	2.881230e+02	1.000653e-01	-1.373490e-03	0.000000e+00	
-2.000000e+00	6.487342e-01	1.225081e+00	4.171441e+01	-4.783402e-11	2.540203e+05	1.013240e+05	2.881230e+02	1.000653e-01	-1.373487e-03	0.000000e+00	
-1.948718e+00	6.487342e-01	1.225081e+00	4.171441e+01	-7.603825e-09	2.540203e+05	1.013240e+05	2.881230e+02	1.000653e-01	-1.373490e-03	0.000000e+00	
-2.000000e+00	6.170886e-01	1.225081e+00	4.171441e+01	-4.946671e-11	2.540203e+05	1.013240e+05	2.881230e+02	1.000653e-01	-1.373487e-03	0.000000e+00	
-1.948718e+00	6.170886e-01	1.225081e+00	4.171441e+01	-7.434260e-09	2.540203e+05	1.013240e+05	2.881230e+02	1.000653e-01	-1.373490e-03	0.000000e+00	
-2.000000e+00	5.854430e-01	1.225081e+00	4.171441e+01	-5.069274e-11	2.540203e+05	1.013240e+05	2.881230e+02	1.000653e-01	-1.373488e-03	0.000000e+00	
-1.948718e+00	5.854430e-01	1.225081e+00	4.171441e+01	-7.234237e-09	2.540203e+05	1.013240e+05	2.881230e+02	1.000653e-01	-1.373491e-03	0.000000e+00	
-2.000000e+00	5.537975e-01	1.225081e+00	4.171441e+01	-5.132263e-11	2.540203e+05	1.013240e+05	2.881230e+02	1.000653e-01	-1.373488e-03	0.000000e+00	
-1.948718e+00	5.537975e-01	1.225081e+00	4.171441e+01	-7.003443e-09	2.540203e+05	1.013240e+05	2.881230e+02	1.000653e-01	-1.373491e-03	0.000000e+00	
-2.000000e+00	5.221519e-01	1.225081e+00	4.171441e+01	-5.149999e-11	2.540203e+05	1.013240e+05	2.881230e+02	1.000653e-01	-1.373488e-03	0.000000e+00	
-1.948718e+00	5.221519e-01	1.225081e+00	4.171441e+01	-6.742451e-09	2.540203e+05	1.013240e+05	2.881230e+02	1.000653e-01	-1.373491e-03	0.000000e+00	
-2.000000e+00	4.905063e-01	1.225081e+00	4.171441e+01	-5.074414e-11	2.540203e+05	1.013240e+05	2.881230e+02	1.000653e-01	-1.373488e-03	0.000000e+00	
-1.948718e+00	4.905063e-01	1.225081e+00	4.171441e+01	-6.451316e-09	2.540203e+05	1.013240e+05	2.881230e+02	1.000653e-01	-1.373491e-03	0.000000e+00	
-2.000000e+00	4.588608e-01	1.225081e+00	4.171441e+01	-4.980413e-11	2.540203e+05	1.013240e+05	2.881230e+02	1.000653e-01	-1.373488e-03	0.000000e+00	
-1.948718e+00	4.588608e-01	1.225081e+00	4.171441e+01	-6.131619e-09	2.540203e+05	1.013240e+05	2.881230e+02	1.000653e-01	-1.373491e-03	0.000000e+00	
-2.000000e+00	4.272152e-01	1.225081e+00	4.171441e+01	-4.843852e-11	2.540203e+05	1.013240e+05	2.881230e+02	1.000653e-01	-1.373489e-03	0.000000e+00	
-1.948718e+00	4.272152e-01	1.225081e+00	4.171441e+01	-5.784012e-09	2.540203e+05	1.013240e+05	2.881230e+02	1.000653e-01	-1.373492e-03	0.000000e+00	
-2.000000e+00	3.955696e-01	1.225081e+00	4.171441e+01	-4.695418e-11	2.540203e+05	1.013240e+05	2.881230e+02	1.000653e-01	-1.373489e-03	0.000000e+00	
-1.948718e+00	3.955696e-01	1.225081e+00	4.171441e+01	-5.410127e-09	2.540203e+05	1.013240e+05	2.881230e+02	1.000653e-01	-1.373492e-03	0.000000e+00	
-2.000000e+00	3.639241e-01	1.225081e+00	4.171441e+01	-4.500163e-11	2.540203e+05	1.013240e+05	2.881230e+02	1.000653e-01	-1.373489e-03	0.000000e+00	
-1.948718e+00	3.639241e-01	1.225081e+00	4.171441e+01	-5.011143e-09	2.540203e+05	1.013240e+05	2.881230e+02	1.000653e-01	-1.373492e-03	0.000000e+00	
-2.000000e+00	3.322785e-01	1.225081e+00	4.171441e+01	-4.266580e-11	2.540203e+05	1.013240e+05	2.881230e+02	1.000653e-01	-1.373489e-03	0.000000e+00	
-1.948718e+00	3.322785e-01	1.225081e+00	4.171441e+01	-4.588762e-09	2.540203e+05	1.013240e+05	2.881230e+02	1.000653e-01	-1.373492e-03	0.000000e+00	
-2.000000e+00	3.006329e-01	1.225081e+00	4.171441e+01	-4.004761e-11	2.540203e+05	1.013240e+05	2.881230e+02	1.000653e-01	-1.373489e-03	0.000000e+00	
-1.948718e+00	3.006329e-01	1.225081e+00	4.171441e+01	-4.144719e-09	2.540203e+05	1.013240e+05	2.881230e+02	1.000653e-01	-1.373492e-03	0.000000e+00	
-2.000000e+00	2.689873e-01	1.225081e+00	4.171441e+01	-3.715106e-11	2.540203e+05	1.013240e+05	2.881230e+02	1.000653e-01	-1.373489e-03	0.000000e+00	
-1.948718e+00	2.689873e-01	1.225081e+00	4.171441e+01	-3.680962e-09	2.540203e+05	1.013240e+05	2.881230e+02	1.000653e-01	-1.373492e-03	0.000000e+00	
-2.000000e+00	2.373418e-01	1.225081e+00	4.171441e+01	-3.412957e-11	2.540203e+05	1.013240e+05	2.881230e+02	1.000653e-01	-1.373489e-03	0.000000e+00	
-1.948718e+00	2.373418e-01	1.225081e+00	4.171441e+01	-3.199615e-09	2.540203e+05	1.013240e+05	2.881230e+02	1.000653e-01	-1.373492e-03	0.000000e+00	
-2.000000e+00	2.056962e-01	1.225081e+00	4.171441e+01	-3.087586e-11	2.540203e+05	1.013240e+05	2.881230e+02	1.000653e-01	-1.373489e-03	0.000000e+00	
-1.948718e+00	2.056962e-01	1.225081e+00	4.171441e+01	-2.702908e-09	2.540203e+05	1.013240e+05	2.881230e+02	1.000653e-01	-1.373492e-03	0.000000e+00	
-2.000000e+00	1.740506e-01	1.225081e+00	4.171441e+01	-2.744334e-11	2.540203e+05	1.013240e+05	2.881230e+02	1.000653e-01	-1.373490e-03	0.000000e+00	
-1.948718e+00	1.740506e-01	1.225081e+00	4.171441e+01	-2.193163e-09	2.540203e+05	1.013240e+05	2.881230e+02	1.000653e-01	-1.373492e-03	0.000000e+00	
-2.000000e+00	1.424051e-01	1.225081e+00	4.171441e+01	-2.380412e-11	2.540203e+05	1.013240e+05	2.881230e+02	1.000653e-01	-1.373490e-03	0.000000e+00	
-1.948718e+00	1.424051e-01	1.225081e+00	4.171441e+01	-1.672649e-09	2.540203e+05	1.013240e+05	2.881230e+02	1.000653e-01	-1.373493e-03	0.000000e+00	
-2.000000e+00	1.107595e-01	1.225081e+00	4.171441e+01	-2.004737e-11	2.540203e+05	1.013240e+05	2.881230e+02	1.000653e-01	-1.373490e-03	0.000000e+00	
-1.948718e+00	1.107595e-01	1.225081e+00	4.171441e+01	-1.144033e-09	2.540203e+05	1.013240e+05	2.881230e+02	1.000653e-01	-1.373493e-03	0.000000e+00	
-2.000000e+00	7.911392e-02	1.225081e+00	4.171441e+01	-1.633386e-11	2.540203e+05	1.013240e+05	2.881230e+02	1.000653e-01	-1.373490e-03	0.000000e+00	
-1.948718e+00	7.911392e-02	1.225081e+00	4.171441e+01	-6.096966e-10	2.540203e+05	1.013240e+05	2.881230e+02	1.000653e-01	-1.373493e-03	0.000000e+00	
-2.000000e+00	4.746835e-02	1.225081e+00	4.171441e+01	-1.241095e-11	2.540203e+05	1.013240e+05	2.881230e+02	1.000653e-01	-1.373490e-03	0.000000e+00	
-1.948718e+00	4.746835e-02	1.225081e+00	4.171441e+01	-7.231271e-11	2.540203e+05	1.013240e+05	2.881230e+02	1.000653e-01	-1.373493e-03	0.000000e+00	
-2.000000e+00	1.582278e-02	1.225081e+00	4.171441e+01	-8.572575e-12	2.540203e+05	1.013240e+05	2.881230e+02	1.000653e-01	-1.373490e-03	0.000000e+00	
-1.948718e+00	1.582278e-02	1.225081e+00	4.171441e+01	4.655171e-10	2.540203e+05	1.013240e+05	2.881230e+02	1.000653e-01	-1.373493e-03	0.000000e+00	
-2.000000e+00	-1.582278e-02	1.225081e+00	4.171441e+01	-4.615752e-12	2.540203e+05	1.013240e+05	2.881230e+02	1.000653e-01	-1.373490e-03	0.000000e+00	
-1.948718e+00	-1.582278e-02	1.225081e+00	4.171441e+01	1.001140e-09	2.540203e+05	1.013240e+05	2.881230e+02	1.000653e-01	-1.373493e-03	0.000000e+00	
-2.000000e+00	-4.746835e-02	1.225081e+00	4.171441e+01	-6.342450e-13	2.540203e+05	1.013240e+05	2.881230e+02	1.000653e-01	-1.373490e-03	0.000000e+00	
-1.948718e+00	-4.746835e-02	1.225081e+00	4.171441e+01	1.532001e-09	2.540203e+05	1.013240e+05	2.881230e+02	1.000653e-01	-1.373493e-03	0.000000e+00	
-2.000000e+00	-7.911392e-02	1.225081e+00	4.171441e+01	3.257336e-12	2.540203e+05	1.013240e+05	2.881230e+02	1.000653e-01	-1.373490e-03	0.000000e+00	
-1.948718e+00	-7.911392e-02	1.225081e+00	4.171441e+01	2.055144e-09	2.540203e+05	1.013240e+05	2.881230e+02	1.000653e-01	-1.373493e-03	0.000000e+00	
-2.000000e+00	-1.107595e-01	1.225081e+00	4.171441e+01	6.925858e-12	2.540203e+05	1.013240e+05	2.881230e+02	1.000653e-01	-1.373490e-03	0.000000e+00	
-1.948718e+00	-1.107595e-01	1.225081e+00	4.171441e+01	2.568160e-09	2.540203e+05	1.013240e+05	2.881230e+02	1.000653e-01	-1.373492e-03	0.000000e+00	
-2.000000e+00	-1.424051e-01	1.225081e+00	4.171441e+01	1.066346e-11	2.540203e+05	1.013240e+05	2.881230e+02	1.000653e-01	-1.373489e-03	0.000000e+00	
-1.948718e+00	-1.424051e-01	1.225081e+00	4.171441e+01	3.068365e-09	2.540203e+05	1.013240e+05	2.881230e+02	1.000653e-01	-1.373492e-03	0.000000e+00	
-2.000000e+00	-1.740506e-01	1.225081e+00	4.171441e+01	1.402730e-11	2.540203e+05	1.013240e+05	2.881230e+02	1.000653e-01	-1.373489e-03	0.000000e+00	
-1.948718e+00	-1.740506e-01	1.225081e+00	4.171441e+01	3.553182e-09	2.540203e+05	1.013240e+05	2.881230e+02	1.000653e-01	-1.373492e-03	0.000000e+00	
-2.000000e+00	-2.056962e-01	1.225081e+00	4.171441e+01	1.742958e-11	2.540203e+05	1.013240e+05	2.881230e+02	1.000653e-01	-1.373489e-03	0.000000e+00	
-1.948718e+00	-2.056962e-01	1.225081e+00	4.171441e+01	4.020162e-09	2.540203e+05	1.013240e+05	2.881230e+02	1.000653e-01	-1.373492e-03	0.000000e+00	
-2.000000e+00	-2.373418e-01	1.225081e+00	4.171441e+01	2.051577e-11	2.540203e+05	1.013240e+05	2.881230e+02	1.000653e-01	-1.373489e-03	0.000000e+00	
-1.948718e+00	-2.373418e-01	1.225081e+00	4.171441e+01	4.466950e-09	2.540203e+05	1.013240e+05	2.881230e+02	1.000653e-01	-1.373492e-03	0.000000e+00	
-2.000000e+00	-2.689873e-01	1.225081e+00	4.171441e+01	2.358774e-11	2.540203e+05	1.013240e+05	2.881230e+02	1.000653e-01	-1.373489e-03	0.000000e+00	
-1.948718e+00	-2.689873e-01	1.225081e+00	4.171441e+01	4.891312e-09	2.540203e+05	1.013240e+05	2.881230e+02	1.000653e-01	-1.373492e-03	0.000000e+00	
-2.000000e+00	-3.006329e-01	1.225081e+00	4.171441e+01	2.638723e-11	2.540203e+05	1.013240e+05	2.881230e+02	1.000653e-01	-1.373489e-03	0.000000e+00	
-1.948718e+00	-3.006329e-01	1.225081e+00	4.171441e+01	5.290944e-09	2.540203e+05	1.013240e+05	2.881230e+02	1.000653e-01	-1.373492e-03	0.000000e+00	
-2.000000e+00	-3.322785e-01	1.225081e+00	4.171441e+01	2.876718e-11	2.540203e+05	1.013240e+05	2.881230e+02	1.000653e-01	-1.373489e-03	0.000000e+00	
-1.948718e+00	-3.322785e-01	1.225081e+00	4.171441e+01	5.663810e-09	2.540203e+05	1.013240e+05	2.881230e+02	1.000653e-01	-1.373492e-03	0.000000e+00	
-2.000000e+00	-3.639241e-01	1.225081e+00	4.171441e+01	3.091003e-11	2.540203e+05	1.013240e+05	2.881230e+02	1.000653e-01	-1.373488e-03	0.000000e+00	
-1.948718e+00	-3.639241e-01	1.225081e+00	4.171441e+01	6.008253e-09	2.540203e+05	1.013240e+05	2.881230e+02	1.000653e-01	-1.373491e-03	0.000000e+00	
-2.000000e+00	-3.955696e-01	1.225081e+00	4.171441e+01	3.245122e-11	2.540203e+05	1.013240e+05	2.881230e+02	1.000653e-01	-1.373488e-03	0.000000e+00	
-1.948718e+00	-3.955696e-01	1.225081e+00	4.171441e+01	6.322342e-09	2.540203e+05	1.013240e+05	2.881230e+02	1.000653e-01	-1.373491e-03	0.000000e+00	
-2.000000e+00	-4.272152e-01	1.225081e+00	4.171441e+01	3.372665e-11	2.540203e+05	1.013240e+05	2.881230e+02	1.000653e-01	-1.373488e-03	0.000000e+00	
-1.948718e+00	-4.272152e-01	1.225081e+00	4.171441e+01	6.604770e-09	2.540203e+05	1.013240e+05	2.881230e+02	1.000653e-01	-1.373491e-03	0.000000e+00	
-2.000000e+00	-4.588608e-01	1.225081e+00	4.171441e+01	3.430118e-11	2.540203e+05	1.013240e+05	2.881230e+02	1.000653e-01	-1.373488e-03	0.000000e+00	
-1.948718e+00	-4.588608e-01	1.225081e+00	4.171441e+01	6.854234e-09	2.540203e+05	1.013240e+05	2.881230e+02	1.000653e-01	-1.373491e-03	0.000000e+00	
-2.000000e+00	-4.905063e-01	1.225081e+00	4.171441e+01	3.458222e-11	2.540203e+05	1.013240e+05	2.881230e+02	1.000653e-01	-1.373488e-03	0.000000e+00	
-1.948718e+00	-4.905063e-01	1.225081e+00	4.171441e+01	7.070044e-09	2.540203e+05	1.013240e+05	2.881230e+02	1.000653e-01	-1.373491e-03	0.000000e+00	
-2.000000e+00	-5.221519e-01	1.225081e+00	4.171441e+01	3.454792e-11	2.540203e+05	1.013240e+05	2.881230e+02	1.000653e-01	-1.373487e-03	0.000000e+00	
-1.948718e+00	-5.221519e-01	1.225081e+00	4.171441e+01	7.251395e-09	2.540203e+05	1.013240e+05	2.881230e+02	1.000653e-01	-1.373490e-03	0.000000e+00	
-2.000000e+00	-5.537975e-01	1.225081e+00	4.171441e+01	3.376281e-11	2.540203e+05	1.013240e+05	2.881230e+02	1.000653e-01	-1.373487e-03	0.000000e+00	
-1.948718e+00	-5.537975e-01	1.225081e+00	4.171441e+01	7.397769e-09	2.540203e+05	1.013240e+05	2.881230e+02	1.000653e-01	-1.373490e-03	0.000000e+00	
-2.000000e+00	-5.854430e-01	1.225081e+00	4.171441e+01	3.213677e-11	2.540203e+05	1.013240e+05	2.881230e+02	1.000653e-01	-1.373487e-03	0.000000e+00	
-1.948718e+00	-5.854430e-01	1.225081e+00	4.171441e+01	7.509088e-09	2.540203e+05	1.013240e+05	2.881230e+02	1.000653e-01	-1.373490e-03	0.000000e+00	
-2.000000e+00	-6.170886e-01	1.225081e+00	4.171441e+01	2.994779e-11	2.540203e+05	1.013240e+05	2.881230e+02	1.000653e-01	-1.373487e-03	0.000000e+00	
-1.948718e+00	-6.170886e-01	1.225081e+00	4.171441e+01	7.585621e-09	2.540203e+05	1.013240e+05	2.881230e+02	1.000653e-01	-1.373490e-03	0.000000e+00	
-2.000000e+00	-6.487342e-01	1.225081e+00	4.171441e+01	2.707832e-11	2.540203e+05	1.013240e+05	2.881230e+02	1.000653e-01	-1.373487e-03	0.000000e+00	
-1.948718e+00	-6.487342e-01	1.225081e+00	4.171441e+01	7.628294e-09	2.540203e+05	1.013240e+05	2.881230e+02	1.000653e-01	-1.373490e-03	0.000000e+00	
-2.000000e+00	-6.803797e-01	1.225081e+00	4.171441e+01	2.376404e-11	2.540203e+05	1.013240e+05	2.881230e+02	1.000653e-01	-1.373486e-03	0.000000e+00	
-1.948718e+00	-6.803797e-01	1.225081e+00	4.171441e+01	7.637776e-09	2.540203e+05	1.013240e+05	2.881230e+02	1.000653e-01	-1.373489e-03	0.000000e+00	
-2.000000e+00	-7.120253e-01	1.225081e+00	4.171441e+01	2.008626e-11	2.540203e+05	1.013240e+05	2.881230e+02	1.000653e-01	-1.373486e-03	0.000000e+00	
-1.948718e+00	-7.120253e-01	1.225081e+00	4.171441e+01	7.615570e-09	2.540203e+05	1.013240e+05	2.881230e+02	1.000653e-01	-1.373489e-03	0.000000e+00	
-2.000000e+00	-7.436709e-01	1.225081e+00	4.171441e+01	1.528898e-11	2.540203e+05	1.013240e+05	2.881230e+02	1.000653e-01	-1.373486e-03	0.000000e+00	
-1.948718e+00	-7.436709e-01	1.225081e+00	4.171441e+01	7.562558e-09	2.540203e+05	1.013240e+05	2.881230e+02	1.000653e-01	-1.373489e-03	0.000000e+00	
-2.000000e+00	-7.753165e-01	1.225081e+00	4.171441e+01	9.069499e-12	2.540203e+05	1.013240e+05	2.881230e+02	1.000653e-01	-1.373486e-03	0.000000e+00	
-1.948718e+00	-7.753165e-01	1.225081e+00	4.171441e+01	7.480679e-09	2.540203e+05	1.013240e+05	2.881230e+02	1.000653e-01	-1.373489e-03	0.000000e+00	
-2.000000e+00	-8.069620e-01	1.225081e+00	4.171441e+01	9.660242e-13	2.540203e+05	1.013240e+05	2.881230e+02	1.000653e-01	-1.373485e-03	0.000000e+00	
-1.948718e+00	-8.069620e-01	1.225081e+00	4.171441e+01	7.373074e-09	2.540203e+05	1.013240e+05	2.881230e+02	1.000653e-01	-1.373488e-03	0.000000e+00	
-2.000000e+00	-8.386076e-01	1.225081e+00	4.171441e+01	-6.247785e-12	2.540203e+05	1.013240e+05	2.881230e+02	1.000653e-01	-1.373485e-03	0.000000e+00	
-1.948718e+00	-8.386076e-01	1.225081e+00	4.171441e+01	7.246304e-09	2.540203e+05	1.013240e+05	2.881230e+02	1.000653e-01	-1.373488e-03	0.000000e+00	
-2.000000e+00	-8.702532e-01	1.225081e+00	4.171441e+01	-6.705501e-12	2.540203e+05	1.013240e+05	2.881230e+02	1.000653e-01	-1.373485e-03	0.000000e+00	
-1.948718e+00	-8.702532e-01	1.225081e+00	4.171441e+01	7.109779e-09	2.540203e+05	1.013240e+05	2.881230e+02	1.000653e-01	-1.373488e-03	0.000000e+00	
-2.000000e+00	-9.018987e-01	1.225081e+00	4.171441e+01	8.854673e-12	2.540203e+05	1.013240e+05	2.881230e+02	1.000653e-01	-1.373485e-03	0.000000e+00	
-1.948718e+00	-9.018987e-01	1.225081e+00	4.171441e+01	6.971371e-09	2.540203e+05	1.013240e+05	2.881230e+02	1.000653e-01	-1.373488e-03	0.000000e+00	
-2.000000e+00	-9.335443e-01	1.225081e+00	4.171441e+01	4.250360e-11	2.540203e+05	1.013240e+05	2.881230e+02	1.000653e-01	-1.373485e-03	0.000000e+00	
-1.948718e+00	-9.335443e-01	1.225081e+00	4.171441e+01	6.823801e-09	2.540203e+05	1.013240e+05	2.881230e+02	1.000653e-01	-1.373488e-03	0.000000e+00	
-2.000000e+00	-9.651899e-01	1.225081e+00	4.171441e+01	7.763391e-11	2.540203e+05	1.013240e+05	2.881230e+02	1.000653e-01	-1.373484e-03	0.000000e+00	
-1.948718e+00	-9.651899e-01	1.225081e+00	4.171441e+01	6.638845e-09	2.540203e+05	1.013240e+05	2.881230e+02	1.000653e-01	-1.373487e-03	0.000000e+00	
-2.000000e+00	-9.968354e-01	1.225081e+00	4.171441e+01	7.108826e-11	2.540203e+05	1.013240e+05	2.881230e+02	1.000653e-01	-1.373484e-03	0.000000e+00	
-1.948718e+00	-9.968354e-01	1.225081e+00	4.171441e+01	6.371332e-09	2.540203e+05	1.013240e+05	2.881230e+02	1.000653e-01	-1.373487e-03	0.000000e+00	
-2.000000e+00	-1.028481e+00	1.225081e+00	4.171441e+01	-1.014156e-11	2.540203e+05	1.013240e+05	2.881230e+02	1.000653e-01	-1.373484e-03	0.000000e+00	
-1.948718e+00	-1.028481e+00	1.225081e+00	4.171441e+01	6.030785e-09	2.540203e+05	1.013240e+05	2.881230e+02	1.000653e-01	-1.373487e-03	0.000000e+00	
-2.000000e+00	-1.060127e+00	1.225081e+00	4.171441e+01	-1.153572e-10	2.540203e+05	1.013240e+05	2.881230e+02	1.000653e-01	-1.373484e-03	0.000000e+00	
-1.948718e+00	-1.060127e+00	1.225081e+00	4.171441e+01	5.737929e-09	2.540203e+05	1.013240e+05	2.881230e+02	1.000653e-01	-1.373487e-03	0.000000e+00	
-2.000000e+00	-1.091772e+00	1.225081e+00	4.171441e+01	-1.590628e-11	2.540203e+05	1.013240e+05	2.881230e+02	1.000653e-01	-1.373484e-03	0.000000e+00	
-1.948718e+00	-1.091772e+00	1.225081e+00	4.171441e+01	5.800765e-09	2.540203e+05	1.013240e+05	2.881230e+02	1.000653e-01	-1.373487e-03	0.000000e+00	
-2.000000e+00	-1.123418e+00	1.225081e+00	4.171441e+01	6.098934e-10	2.540203e+05	1.013240e+05	2.881230e+02	1.000653e-01	-1.373483e-03	0.000000e+00	
-1.948718e+00	-1.123418e+00	1.225081e+00	4.171441e+01	6.413689e-09	2.540203e+05	1.013240e+05	2.881230e+02	1.000653e-01	-1.373487e-03	0.000000e+00	
-2.000000e+00	-1.155063e+00	1.225081e+00	4.171441e+01	1.892342e-09	2.540203e+05	1.013240e+05	2.881230e+02	1.000653e-01	-1.373483e-03	0.000000e+00	
-1.948718e+00	-1.155063e+00	1.225081e+00	4.171441e+01	7.419134e-09	2.540203e+05	1.013240e+05	2.881230e+02	1.000653e-01	-1.373487e-03	0.000000e+00	
-2.000000e+00	-1.186709e+00	1.225081e+00	4.171441e+01	3.173762e-09	2.540203e+05	1.013240e+05	2.881230e+02	1.000653e-01	-1.373483e-03	0.000000e+00	
-1.948718e+00	-1.186709e+00	1.225081e+00	4.171441e+01	7.468204e-09	2.540203e+05	1.013240e+05	2.881230e+02	1.000653e-01	-1.373486e-03	0.000000e+00	
-2.000000e+00	-1.218354e+00	1.225081e+00	4.171441e+01	3.119792e-09	2.540203e+05	1.013240e+05	2.881230e+02	1.000653e-01	-1.373483e-03	0.000000e+00	
-1.948718e+00	-1.218354e+00	1.225081e+00	4.171441e+01	5.262610e-09	2.540203e+05	1.013240e+05	2.881230e+02	1.000653e-01	-1.373486e-03	0.000000e+00	
-1.897436e+00	1.218354e+00	1.225081e+00	4.171441e+01	-1.082154e-08	2.540203e+05	1.013240e+05	2.881230e+02	1.000653e-01	-1.373489e-03	0.000000e+00	
-1.897436e+00	1.250000e+00	1.225081e+00	4.171441e+01	-1.728899e-09	2.540203e+05	1.013240e+05	2.881230e+02	1.000653e-01	-1.373489e-03	0.000000e+00	
-1.897436e+00	1.186709e+00	1.225081e+00	4.171441e+01	-1.559940e-08	2.540203e+05	1.013240e+05	2.881230e+02	1.000653e-01	-1.373489e-03	0.000000e+00	
-1.897436e+00	1.155063e+00	1.225081e+00	4.171441e+01	-1.682989e-08	2.540203e+05	1.013240e+05	2.881230e+02	1.000653e-01	-1.373489e-03	0.000000e+00	
-1.897436e+00	1.123418e+00	1.225081e+00	4.171441e+01	-1.601316e-08	2.540203e+05	1.013240e+05	2.881230e+02	1.000653e-01	-1.373489e-03	0.000000e+00	
-1.897436e+00	1.091772e+00	1.225081e+00	4.171441e+01	-1.511805e-08	2.540203e+05	1.013240e+05	2.881230e+02	1.000653e-01	-1.373489e-03	0.000000e+00	
-1.897436e+00	1.060127e+00	1.225081e+00	4.171441e+01	-1.476591e-08	2.540203e+05	1.013240e+05	2.881230e+02	1.000653e-01	-1.373489e-03	0.000000e+00	
-1.897436e+00	1.028481e+00	1.225081e+00	4.171441e+01	-1.496017e-08	2.540203e+05	1.013240e+05	2.881230e+02	1.000653e-01	-1.373490e-03	0.000000e+00	
-1.897436e+00	9.968354e-01	1.225081e+00	4.171441e+01	-1.533677e-08	2.540203e+05	1.013240e+05	2.881230e+02	1.000653e-01	-1.373490e-03	0.000000e+00	
-1.897436e+00	9.651899e-01	1.225081e+00	4.171441e+01	-1.567230e-08	2.540203e+05	1.013240e+05	2.881230e+02	1.000653e-01	-1.373490e-03	0.000000e+00	
-1.897436e+00	9.335443e-01	1.225081e+00	4.171441e+01	-1.588410e-08	2.540203e+05	1.013240e+05	2.881230e+02	1.000653e-01	-1.373490e-03	0.000000e+00	
-1.897436e+00	9.018987e-01	1.225081e+00	4.171441e+01	-1.600174e-08	2.540203e+05	1.013240e+05	2.881230e+02	1.000653e-01	-1.373491e-03	0.000000e+00	
-1.897436e+00	8.702532e-01	1.225081e+00	4.171441e+01	-1.606429e-08	2.540203e+05	1.013240e+05	2.881230e+02	1.000653e-01	-1.373491e-03	0.000000e+00	
-1.897436e+00	8.386076e-01	1.225081e+00	4.171441e+01	-1.609359e-08	2.540203e+05	1.013240e+05	2.881230e+02	1.000653e-01	-1.373491e-03	0.000000e+00	
-1.897436e+00	8.069620e-01	1.225081e+00	4.171441e+01	-1.608889e-08	2.540203e+05	1.013240e+05	2.881230e+02	1.000653e-01	-1.373491e-03	0.000000e+00	
-1.897436e+00	7.753165e-01	1.225081e+00	4.171441e+01	-1.604072e-08	2.540203e+05	1.013240e+05	2.881230e+02	1.000653e-01	-1.373491e-03	0.000000e+00	
-1.897436e+00	7.436709e-01	1.225081e+00	4.171441e+01	-1.594073e-08	2.540203e+05	1.013240e+05	2.881230e+02	1.000653e-01	-1.373492e-03	0.000000e+00	
-1.897436e+00	7.120253e-01	1.225081e+00	4.171441e+01	-1.578314e-08	2.540203e+05	1.013240e+05	2.881230e+02	1.000653e-01	-1.373492e-03	0.000000e+00	
-1.897436e+00	6.803797e-01	1.225081e+00	4.171441e+01	-1.556562e-08	2.540203e+05	1.013240e+05	2.881230e+02	1.000653e-01	-1.373492e-03	0.000000e+00	
-1.897436e+00	6.487342e-01	1.225081e+00	4.171441e+01	-1.528708e-08	2.540203e+05	1.013240e+05	2.881230e+02	1.000653e-01	-1.373492e-03	0.000000e+00	
-1.897436e+00	6.170886e-01	1.225081e+00	4.171441e+01	-1.494689e-08	2.540203e+05	1.013240e+05	2.881230e+02	1.000653e-01	-1.373493e-03	0.000000e+00	
-1.897436e+00	5.854430e-01	1.225081e+00	4.171441e+01	-1.454494e-08	2.540203e+05	1.013240e+05	2.881230e+02	1.000653e-01	-1.373493e-03	0.000000e+00	
-1.897436e+00	5.537975e-01	1.225081e+00	4.171441e+01	-1.408099e-08	2.540203e+05	1.013240e+05	2.881230e+02	1.000653e-01	-1.373493e-03	0.000000e+00	
-1.897436e+00	5.221519e-01	1.225081e+00	4.171441e+01	-1.355611e-08	2.540203e+05	1.013240e+05	2.881230e+02	1.000653e-01	-1.373493e-03	0.000000e+00	
-1.897436e+00	4.905063e-01	1.225081e+00	4.171441e+01	-1.297116e-08	2.540203e+05	1.013240e+05	2.881230e+02	1.000653e-01	-1.373493e-03	0.000000e+00	
-1.897436e+00	4.588608e-01	1.225081e+00	4.171441e+01	-1.232820e-08	2.540203e+05	1.013240e+05	2.881230e+02	1.000653e-01	-1.373494e-03	0.000000e+00	
-1.897436e+00	4.272152e-01	1.225081e+00	4.171441e+01	-1.162916e-08	2.540203e+05	1.013240e+05	2.881230e+02	1.000653e-01	-1.373494e-03	0.000000e+00	
-1.897436e+00	3.955696e-01	1.225081e+00	4.171441e+01	-1.087690e-08	2.540203e+05	1.013240e+05	2.881230e+02	1.000653e-01	-1.373494e-03	0.000000e+00	
-1.897436e+00	3.639241e-01	1.225081e+00	4.171441e+01	-1.007416e-08	2.540203e+05	1.013240e+05	2.881230e+02	1.000653e-01	-1.373494e-03	0.000000e+00	
-1.897436e+00	3.322785e-01	1.225081e+00	4.171441e+01	-9.224288e-09	2.540203e+05	1.013240e+05	2.881230e+02	1.000653e-01	-1.373494e-03	0.000000e+00	
-1.897436e+00	3.006329e-01	1.225081e+00	4.171441e+01	-8.330804e-09	2.540203e+05	1.013240e+05	2.881230e+02	1.000653e-01	-1.373494e-03	0.000000e+00	
-1.897436e+00	2.689873e-01	1.225081e+00	4.171441e+01	-7.397641e-09	2.540203e+05	1.013240e+05	2.881230e+02	1.000653e-01	-1.373495e-03	0.000000e+00	
-1.897436e+00	2.373418e-01	1.225081e+00	4.171441e+01	-6.429117e-09	2.540203e+05	1.013240e+05	2.881230e+02	1.000653e-01	-1.373495e-03	0.000000e+00	
-1.897436e+00	2.056962e-01	1.225081e+00	4.171441e+01	-5.429502e-09	2.540203e+05	1.013240e+05	2.881230e+02	1.000653e-01	-1.373495e-03	0.000000e+00	
-1.897436e+00	1.740506e-01	1.225081e+00	4.171441e+01	-4.403594e-09	2.540203e+05	1.013240e+05	2.881230e+02	1.000653e-01	-1.373495e-03	0.000000e+00	
-1.897436e+00	1.424051e-01	1.225081e+00	4.171441e+01	-3.356044e-09	2.540203e+05	1.013240e+05	2.881230e+02	1.000653e-01	-1.373495e-03	0.000000e+00	
-1.897436e+00	1.107595e-01	1.225081e+00	4.171441e+01	-2.292146e-09	2.540203e+05	1.013240e+05	2.881230e+02	1.000653e-01	-1.373495e-03	0.000000e+00	
-1.897436e+00	7.911392e-02	1.225081e+00	4.171441e+01	-1.216635e-09	2.540203e+05	1.013240e+05	2.881230e+02	1.000653e-01	-1.373495e-03	0.000000e+00	
-1.897436e+00	4.746835e-02	1.225081e+00	4.171441e+01	-1.350037e-10	2.540203e+05	1.013240e+05	2.881230e+02	1.000653e-01	-1.373495e-03	0.000000e+00	
-1.897436e+00	1.582278e-02	1.225081e+00	4.171441e+01	9.477818e-10	2.540203e+05	1.013240e+05	2.881230e+02	1.000653e-01	-1.373495e-03	0.000000e+00	
-1.897436e+00	-1.582278e-02	1.225081e+00	4.171441e+01	2.025909e-09	2.540203e+05	1.013240e+05	2.881230e+02	1.000653e-01	-1.373495e-03	0.000000e+00	
-1.897436e+00	-4.746835e-02	1.225081e+00	4.171441e+01	3.094446e-09	2.540203e+05	1.013240e+05	2.881230e+02	1.000653e-01	-1.373495e-03	0.000000e+00	
-1.897436e+00	-7.911392e-02	1.225081e+00	4.171441e+01	4.147736e-09	2.540203e+05	1.013240e+05	2.881230e+02	1.000653e-01	-1.373495e-03	0.000000e+00	
-1.897436e+00	-1.107595e-01	1.225081e+00	4.171441e+01	5.180678e-09	2.540203e+05	1.013240e+05	2.881230e+02	1.000653e-01	-1.373495e-03	0.000000e+00	