TITLE = "SU2 Simulation"
VARIABLES = "Iteration","CL","CD","CSF","CMx","CMy","CMz","CFx","CFy","CFz","CL/CD","AoA","Custom_ObjFunc","Res_Flow[0]","Res_Flow[1]","Res_Flow[2]","Res_Flow[3]","Res_Flow[4]","Linear_Solver_Iterations","CFL_Number","Time(min)"
ZONE T= "Convergence history"
           0, 0.00000000e+00, 0.00000000e+00, 0.00000000e+00, 0.00000000e+00, 0.00000000e+00, 0.00000000e+00, 0.00000000e+00, 0.00000000e+00, 0.00000000e+00, 0.00000000e+00, 0.00000000e+00, 0.00000000e+00, -1.62443716e+01, -1.32514527e+01, 4.49695324e-01, -1.09138774e+01, 0.00000000e+00, 5.0000000000, 5.0000000000, 0.0021627193
           1, 0.00000000e+00, 0.00000000e+00, 0.00000000e+00, 0.00000000e+00, 0.00000000e+00, 0.00000000e+00, 0.00000000e+00, 0.00000000e+00, 0.00000000e+00, 0.00000000e+00, 0.00000000e+00, 0.00000000e+00, -4.14186484e+00, -1.71677389e+00, 4.40367473e-01, 1.30931817e+00, 0.00000000e+00, 5.0000000000, 5.0000000000, 0.0043411352
           2, 0.00000000e+00, 0.00000000e+00, 0.00000000e+00, 0.00000000e+00, 0.00000000e+00, 0.00000000e+00, 0.00000000e+00, 0.00000000e+00, 0.00000000e+00, 0.00000000e+00, 0.00000000e+00, 0.00000000e+00, -4.04313686e+00, -1.43530668e+00, 4.31020317e-01, 1.40255382e+00, 0.00000000e+00, 5.0000000000, 5.0000000000, 0.0063637846
           3, 0.00000000e+00, 0.00000000e+00, 0.00000000e+00, 0.00000000e+00, 0.00000000e+00, 0.00000000e+00, 0.00000000e+00, 0.00000000e+00, 0.00000000e+00, 0.00000000e+00, 0.00000000e+00, 0.00000000e+00, -4.09478247e+00, -1.28031118e+00, 4.21670560e-01, 1.34603791e+00, 0.00000000e+00, 5.0000000000, 5.0000000000, 0.0084184842
           4, 0.00000000e+00, 0.00000000e+00, 0.00000000e+00, 0.00000000e+00, 0.00000000e+00, 0.00000000e+00, 0.00000000e+00, 0.00000000e+00, 0.00000000e+00, 0.00000000e+00, 0.00000000e+00, 0.00000000e+00, -4.18014798e+00, -1.17709139e+00, 4.12289043e-01, 1.26200037e+00, 0.00000000e+00, 5.0000000000, 5.0000000000, 0.0104043016
           5, 0.00000000e+00, 0.00000000e+00, 0.00000000e+00, 0.00000000e+00, 0.00000000e+00, 0.00000000e+00, 0.00000000e+00, 0.00000000e+00, 0.00000000e+00, 0.00000000e+00, 0.00000000e+00, 0.00000000e+00, -4.21238464e+00, -1.10236458e+00, 4.02872820e-01, 1.24003313e+00, 0.00000000e+00, 5.0000000000, 5.0000000000, 0.0124327022
           6, 0.00000000e+00, 0.00000000e+00, 0.00000000e+00, 0.00000000e+00, 0.00000000e+00, 0.00000000e+00, 0.00000000e+00, 0.00000000e+00, 0.00000000e+00, 0.00000000e+00, 0.00000000e+00, 0.00000000e+00, -4.18093496e+00, -1.04581376e+00, 3.93427827e-01, 1.27912541e+00, 0.00000000e+00, 5.0000000000, 5.0000000000, 0.0146194031
           7, 0.00000000e+00, 0.00000000e+00, 0.00000000e+00, 0.00000000e+00, 0.00000000e+00, 0.00000000e+00, 0.00000000e+00, 0.00000000e+00, 0.00000000e+00, 0.00000000e+00, 0.00000000e+00, 0.00000000e+00, -4.12620838e+00, -1.00198000e+00, 3.83958818e-01, 1.33594782e+00, 0.00000000e+00, 5.0000000000, 5.0000000000, 0.0172165472
           8, 0.00000000e+00, 0.00000000e+00, 0.00000000e+00, 0.00000000e+00, 0.00000000e+00, 0.00000000e+00, 0.00000000e+00, 0.00000000e+00, 0.00000000e+00, 0.00000000e+00, 0.00000000e+00, 0.00000000e+00, -4.06742231e+00, -9.67658950e-01, 3.74470624e-01, 1.39473571e+00, 0.00000000e+00, 5.0000000000, 5.0000000000, 0.0199230494
           9, 0.00000000e+00, 0.00000000e+00, 0.00000000e+00, 0.00000000e+00, 0.00000000e+00, 0.00000000e+00, 0.00000000e+00, 0.00000000e+00, 0.00000000e+00, 0.00000000e+00, 0.00000000e+00, 0.00000000e+00, -4.00961031e+00, -9.40819510e-01, 3.64966371e-01, 1.45222403e+00, 0.00000000e+00, 5.0000000000, 5.0000000000, 0.0234913213
          10, 0.00000000e+00, 0.00000000e+00, 0.00000000e+00, 0.00000000e+00, 0.00000000e+00, 0.00000000e+00, 0.00000000e+00, 0.00000000e+00, 0.00000000e+00, 0.00000000e+00, 0.00000000e+00, 0.00000000e+00, -3.95495875e+00, -9.20102743e-01, 3.55447688e-01, 1.50666504e+00, 0.00000000e+00, 5.0000000000, 5.0000000000, 0.0260145424
          11, 0.00000000e+00, 0.00000000e+00, 0.00000000e+00, 0.00000000e+00, 0.00000000e+00, 0.00000000e+00, 0.00000000e+00, 0.00000000e+00, 0.00000000e+00, 0.00000000e+00, 0.00000000e+00, 0.00000000e+00, -3.90460224e+00, -9.04560720e-01, 3.45915662e-01, 1.55693931e+00, 0.00000000e+00, 5.0000000000, 5.0000000000, 0.0280567369
          12, 0.00000000e+00, 0.00000000e+00, 0.00000000e+00, 0.00000000e+00, 0.00000000e+00, 0.00000000e+00, 0.00000000e+00, 0.00000000e+00, 0.00000000e+00, 0.00000000e+00, 0.00000000e+00, 0.00000000e+00, -3.85895194e+00, -8.93506121e-01, 3.36371510e-01, 1.60257845e+00, 0.00000000e+00, 5.0000000000, 5.0000000000, 0.0300127030
          13, 0.00000000e+00, 0.00000000e+00, 0.00000000e+00, 0.00000000e+00, 0.00000000e+00, 0.00000000e+00, 0.00000000e+00, 0.00000000e+00, 0.00000000e+00, 0.00000000e+00, 0.00000000e+00, 0.00000000e+00, -3.81809163e+00, -8.86419769e-01, 3.26816890e-01, 1.64345600e+00, 0.00000000e+00, 5.0000000000, 5.0000000000, 0.0320656029
          14, 0.00000000e+00, 0.00000000e+00, 0.00000000e+00, 0.00000000e+00, 0.00000000e+00, 0.00000000e+00, 0.00000000e+00, 0.00000000e+00, 0.00000000e+00, 0.00000000e+00, 0.00000000e+00, 0.00000000e+00, -3.78201081e+00, -8.82891653e-01, 3.17253919e-01, 1.67956148e+00, 0.00000000e+00, 5.0000000000, 5.0000000000, 0.0341516133
          15, 0.00000000e+00, 0.00000000e+00, 0.00000000e+00, 0.00000000e+00, 0.00000000e+00, 0.00000000e+00, 0.00000000e+00, 0.00000000e+00, 0.00000000e+00, 0.00000000e+00, 0.00000000e+00, 0.00000000e+00, -3.75067357e+00, -8.82583534e-01, 3.07685026e-01, 1.71092312e+00, 0.00000000e+00, 5.0000000000, 5.0000000000, 0.0365491073
          16, 0.00000000e+00, 0.00000000e+00, 0.00000000e+00, 0.00000000e+00, 0.00000000e+00, 0.00000000e+00, 0.00000000e+00, 0.00000000e+00, 0.00000000e+00, 0.00000000e+00, 0.00000000e+00, 0.00000000e+00, -3.72402194e+00, -8.85206913e-01, 2.98112764e-01, 1.73759710e+00, 0.00000000e+00, 5.0000000000, 5.0000000000, 0.0393059591
          17, 0.00000000e+00, 0.00000000e+00, 0.00000000e+00, 0.00000000e+00, 0.00000000e+00, 0.00000000e+00, 0.00000000e+00, 0.00000000e+00, 0.00000000e+00, 0.00000000e+00, 0.00000000e+00, 0.00000000e+00, -3.70196685e+00, -8.90512063e-01, 2.88539667e-01, 1.75967283e+00, 0.00000000e+00, 5.0000000000, 5.0000000000, 0.0420810359
          18, 0.00000000e+00, 0.00000000e+00, 0.00000000e+00, 0.00000000e+00, 0.00000000e+00, 0.00000000e+00, 0.00000000e+00, 0.00000000e+00, 0.00000000e+00, 0.00000000e+00, 0.00000000e+00, 0.00000000e+00, -3.68438266e+00, -8.98284289e-01, 2.78968173e-01, 1.77727704e+00, 0.00000000e+00, 5.0000000000, 5.0000000000, 0.0449186701
          19, 0.00000000e+00, 0.00000000e+00, 0.00000000e+00, 0.00000000e+00, 0.00000000e+00, 0.00000000e+00, 0.00000000e+00, 0.00000000e+00, 0.00000000e+00, 0.00000000e+00, 0.00000000e+00, 0.00000000e+00, -3.67110860e+00, -9.08343691e-01, 2.69400582e-01, 1.79057204e+00, 0.00000000e+00, 5.0000000000, 5.0000000000, 0.0474589652
          20, 0.00000000e+00, 0.00000000e+00, 0.00000000e+00, 0.00000000e+00, 0.00000000e+00, 0.00000000e+00, 0.00000000e+00, 0.00000000e+00, 0.00000000e+00, 0.00000000e+00, 0.00000000e+00, 0.00000000e+00, -3.66195667e+00, -9.20545306e-01, 2.59839050e-01, 1.79974791e+00, 0.00000000e+00, 5.0000000000, 5.0000000000, 0.0494712480
          21, 0.00000000e+00, 0.00000000e+00, 0.00000000e+00, 0.00000000e+00, 0.00000000e+00, 0.00000000e+00, 0.00000000e+00, 0.00000000e+00, 0.00000000e+00, 0.00000000e+00, 0.00000000e+00, 0.00000000e+00, -3.65672348e+00, -9.34777608e-01, 2.50285581e-01, 1.80501080e+00, 0.00000000e+00, 5.0000000000, 5.0000000000, 0.0515467330
          22, 0.00000000e+00, 0.00000000e+00, 0.00000000e+00, 0.00000000e+00, 0.00000000e+00, 0.00000000e+00, 0.00000000e+00, 0.00000000e+00, 0.00000000e+00, 0.00000000e+00, 0.00000000e+00, 0.00000000e+00, -3.65520297e+00, -9.50958635e-01, 2.40742018e-01, 1.80657030e+00, 0.00000000e+00, 5.0000000000, 5.0000000000, 0.0535969486
          23, 0.00000000e+00, 0.00000000e+00, 0.00000000e+00, 0.00000000e+00, 0.00000000e+00, 0.00000000e+00, 0.00000000e+00, 0.00000000e+00, 0.00000000e+00, 0.00000000e+00, 0.00000000e+00, 0.00000000e+00, -3.65719747e+00, -9.69030141e-01, 2.31210030e-01, 1.80462838e+00, 0.00000000e+00, 5.0000000000, 5.0000000000, 0.0557051039
          24, 0.00000000e+00, 0.00000000e+00, 0.00000000e+00, 0.00000000e+00, 0.00000000e+00, 0.00000000e+00, 0.00000000e+00, 0.00000000e+00, 0.00000000e+00, 0.00000000e+00, 0.00000000e+00, 0.00000000e+00, -3.66252581e+00, -9.88950785e-01, 2.21691091e-01, 1.79937128e+00, 0.00000000e+00, 5.0000000000, 5.0000000000, 0.0578369644
          25, 0.00000000e+00, 0.00000000e+00, 0.00000000e+00, 0.00000000e+00, 0.00000000e+00, 0.00000000e+00, 0.00000000e+00, 0.00000000e+00, 0.00000000e+00, 0.00000000e+00, 0.00000000e+00, 0.00000000e+00, -3.67102792e+00, -1.01068950e+00, 2.12186465e-01, 1.79096473e+00, 0.00000000e+00, 5.0000000000, 5.0000000000, 0.0598170264
          26, 0.00000000e+00, 0.00000000e+00, 0.00000000e+00, 0.00000000e+00, 0.00000000e+00, 0.00000000e+00, 0.00000000e+00, 0.00000000e+00, 0.00000000e+00, 0.00000000e+00, 0.00000000e+00, 0.00000000e+00, -3.68256601e+00, -1.03421991e+00, 2.02697194e-01, 1.77955241e+00, 0.00000000e+00, 5.0000000000, 5.0000000000, 0.0617768250
          27, 0.00000000e+00, 0.00000000e+00, 0.00000000e+00, 0.00000000e+00, 0.00000000e+00, 0.00000000e+00, 0.00000000e+00, 0.00000000e+00, 0.00000000e+00, 0.00000000e+00, 0.00000000e+00, 0.00000000e+00, -3.69702271e+00, -1.05951638e+00, 1.93224084e-01, 1.76525714e+00, 0.00000000e+00, 5.0000000000, 5.0000000000, 0.0642000927
          28, 0.00000000e+00, 0.00000000e+00, 0.00000000e+00, 0.00000000e+00, 0.00000000e+00, 0.00000000e+00, 0.00000000e+00, 0.00000000e+00, 0.00000000e+00, 0.00000000e+00, 0.00000000e+00, 0.00000000e+00, -3.71429599e+00, -1.08655187e+00, 1.83767713e-01, 1.74818486e+00, 0.00000000e+00, 5.0000000000, 5.0000000000, 0.0673977946
          29, 0.00000000e+00, 0.00000000e+00, 0.00000000e+00, 0.00000000e+00, 0.00000000e+00, 0.00000000e+00, 0.00000000e+00, 0.00000000e+00, 0.00000000e+00, 0.00000000e+00, 0.00000000e+00, 0.00000000e+00, -3.73429040e+00, -1.11529773e+00, 1.74328428e-01, 1.72843140e+00, 0.00000000e+00, 5.0000000000, 5.0000000000, 0.0700965361
          30, 0.00000000e+00, 0.00000000e+00, 0.00000000e+00, 0.00000000e+00, 0.00000000e+00, 0.00000000e+00, 0.00000000e+00, 0.00000000e+00, 0.00000000e+00, 0.00000000e+00, 0.00000000e+00, 0.00000000e+00, -3.75690338e+00, -1.14572529e+00, 1.64906361e-01, 1.70609293e+00, 0.00000000e+00, 5.0000000000, 5.0000000000, 0.0732715648
          31, 0.00000000e+00, 0.00000000e+00, 0.00000000e+00, 0.00000000e+00, 0.00000000e+00, 0.00000000e+00, 0.00000000e+00, 0.00000000e+00, 0.00000000e+00, 0.00000000e+00, 0.00000000e+00, 0.00000000e+00, -3.78200462e+00, -1.17780884e+00, 1.55501451e-01, 1.68128115e+00, 0.00000000e+00, 5.0000000000, 5.0000000000, 0.0756026695
          32, 0.00000000e+00, 0.00000000e+00, 0.00000000e+00, 0.00000000e+00, 0.00000000e+00, 0.00000000e+00, 0.00000000e+00, 0.00000000e+00, 0.00000000e+00, 0.00000000e+00, 0.00000000e+00, 0.00000000e+00, -3.80940501e+00, -1.21152864e+00, 1.46113477e-01, 1.65414550e+00, 0.00000000e+00, 5.0000000000, 5.0000000000, 0.0775915621
          33, 0.00000000e+00, 0.00000000e+00, 0.00000000e+00, 0.00000000e+00, 0.00000000e+00, 0.00000000e+00, 0.00000000e+00, 0.00000000e+00, 0.00000000e+00, 0.00000000e+00, 0.00000000e+00, 0.00000000e+00, -3.83880960e+00, -1.24687076e+00, 1.36742090e-01, 1.62490609e+00, 0.00000000e+00, 5.0000000000, 5.0000000000, 0.0795529925
          34, 0.00000000e+00, 0.00000000e+00, 0.00000000e+00, 0.00000000e+00, 0.00000000e+00, 0.00000000e+00, 0.00000000e+00, 0.00000000e+00, 0.00000000e+00, 0.00000000e+00, 0.00000000e+00, 0.00000000e+00, -3.86974653e+00, -1.28381694e+00, 1.27386862e-01, 1.59390357e+00, 0.00000000e+00, 5.0000000000, 5.0000000000, 0.0815674903
          35, 0.00000000e+00, 0.00000000e+00, 0.00000000e+00, 0.00000000e+00, 0.00000000e+00, 0.00000000e+00, 0.00000000e+00, 0.00000000e+00, 0.00000000e+00, 0.00000000e+00, 0.00000000e+00, 0.00000000e+00, -3.90146202e+00, -1.32231124e+00, 1.18047324e-01, 1.56167538e+00, 0.00000000e+00, 5.0000000000, 5.0000000000, 0.0835241559
          36, 0.00000000e+00, 0.00000000e+00, 0.00000000e+00, 0.00000000e+00, 0.00000000e+00, 0.00000000e+00, 0.00000000e+00, 0.00000000e+00, 0.00000000e+00, 0.00000000e+00, 0.00000000e+00, 0.00000000e+00, -3.93277655e+00, -1.36217956e+00, 1.08723008e-01, 1.52906903e+00, 0.00000000e+00, 5.0000000000, 5.0000000000, 0.0855267149
          37, 0.00000000e+00, 0.00000000e+00, 0.00000000e+00, 0.00000000e+00, 0.00000000e+00, 0.00000000e+00, 0.00000000e+00, 0.00000000e+00, 0.00000000e+00, 0.00000000e+00, 0.00000000e+00, 0.00000000e+00, -3.96192108e+00, -1.40296269e+00, 9.94134847e-02, 1.49739586e+00, 0.00000000e+00, 5.0000000000, 5.0000000000, 0.0875029885
          38, 0.00000000e+00, 0.00000000e+00, 0.00000000e+00, 0.00000000e+00, 0.00000000e+00, 0.00000000e+00, 0.00000000e+00, 0.00000000e+00, 0.00000000e+00, 0.00000000e+00, 0.00000000e+00, 0.00000000e+00, -3.98643509e+00, -1.44360954e+00, 9.01183954e-02, 1.46859591e+00, 0.00000000e+00, 5.0000000000, 5.0000000000, 0.0899650263
          39, 0.00000000e+00, 0.00000000e+00, 0.00000000e+00, 0.00000000e+00, 0.00000000e+00, 0.00000000e+00, 0.00000000e+00, 0.00000000e+00, 0.00000000e+00, 0.00000000e+00, 0.00000000e+00, 0.00000000e+00, -4.00330822e+00, -1.48199668e+00, 8.08374738e-02, 1.44530647e+00, 0.00000000e+00, 5.0000000000, 5.0000000000, 0.0933229457
          40, 0.00000000e+00, 0.00000000e+00, 0.00000000e+00, 0.00000000e+00, 0.00000000e+00, 0.00000000e+00, 0.00000000e+00, 0.00000000e+00, 0.00000000e+00, 0.00000000e+00, 0.00000000e+00, 0.00000000e+00, -4.00958294e+00, -1.51439410e+00, 7.15705644e-02, 1.43062046e+00, 0.00000000e+00, 5.0000000000, 5.0000000000, 0.0957967799
          41, 0.00000000e+00, 0.00000000e+00, 0.00000000e+00, 0.00000000e+00, 0.00000000e+00, 0.00000000e+00, 0.00000000e+00, 0.00000000e+00, 0.00000000e+00, 0.00000000e+00, 0.00000000e+00, 0.00000000e+00, -4.00338506e+00, -1.53542912e+00, 6.23176307e-02, 1.42733157e+00, 0.00000000e+00, 5.0000000000, 5.0000000000, 0.0985112387
          42, 0.00000000e+00, 0.00000000e+00, 0.00000000e+00, 0.00000000e+00, 0.00000000e+00, 0.00000000e+00, 0.00000000e+00, 0.00000000e+00, 0.00000000e+00, 0.00000000e+00, 0.00000000e+00, 0.00000000e+00, -3.98481308e+00, -1.53955303e+00, 5.30787596e-02, 1.43682846e+00, 0.00000000e+00, 5.0000000000, 5.0000000000, 0.1013323204
          43, 0.00000000e+00, 0.00000000e+00, 0.00000000e+00, 0.00000000e+00, 0.00000000e+00, 0.00000000e+00, 0.00000000e+00, 0.00000000e+00, 0.00000000e+00, 0.00000000e+00, 0.00000000e+00, 0.00000000e+00, -3.95595561e+00, -1.52410141e+00, 4.38541760e-02, 1.45835698e+00, 0.00000000e+00, 5.0000000000, 5.0000000000, 0.1041320198
          44, 0.00000000e+00, 0.00000000e+00, 0.00000000e+00, 0.00000000e+00, 0.00000000e+00, 0.00000000e+00, 0.00000000e+00, 0.00000000e+00, 0.00000000e+00, 0.00000000e+00, 0.00000000e+00, 0.00000000e+00, -3.92001276e+00, -1.49137408e+00, 3.46442777e-02, 1.48930152e+00, 0.00000000e+00, 5.0000000000, 5.0000000000, 0.1075010434
          45, 0.00000000e+00, 0.00000000e+00, 0.00000000e+00, 0.00000000e+00, 0.00000000e+00, 0.00000000e+00, 0.00000000e+00, 0.00000000e+00, 0.00000000e+00, 0.00000000e+00, 0.00000000e+00, 0.00000000e+00, -3.88023816e+00, -1.44722193e+00, 2.54496840e-02, 1.52624174e+00, 0.00000000e+00, 5.0000000000, 5.0000000000, 0.1107694503
          46, 0.00000000e+00, 0.00000000e+00, 0.00000000e+00, 0.00000000e+00, 0.00000000e+00, 0.00000000e+00, 0.00000000e+00, 0.00000000e+00, 0.00000000e+00, 0.00000000e+00, 0.00000000e+00, 0.00000000e+00, -3.83929937e+00, -1.39786001e+00, 1.62712763e-02, 1.56596776e+00, 0.00000000e+00, 5.0000000000, 5.0000000000, 0.1148380324
          47, 0.00000000e+00, 0.00000000e+00, 0.00000000e+00, 0.00000000e+00, 0.00000000e+00, 0.00000000e+00, 0.00000000e+00, 0.00000000e+00, 0.00000000e+00, 0.00000000e+00, 0.00000000e+00, 0.00000000e+00, -3.79911487e+00, -1.34792624e+00, 7.11021016e-03, 1.60598283e+00, 0.00000000e+00, 5.0000000000, 5.0000000000, 0.1195100936
          48, 0.00000000e+00, 0.00000000e+00, 0.00000000e+00, 0.00000000e+00, 0.00000000e+00, 0.00000000e+00, 0.00000000e+00, 0.00000000e+00, 0.00000000e+00, 0.00000000e+00, 0.00000000e+00, 0.00000000e+00, -3.76095194e+00, -1.30023858e+00, -2.03210319e-03, 1.64456097e+00, 0.00000000e+00, 5.0000000000, 5.0000000000, 0.1226228805
          49, 0.00000000e+00, 0.00000000e+00, 0.00000000e+00, 0.00000000e+00, 0.00000000e+00, 0.00000000e+00, 0.00000000e+00, 0.00000000e+00, 0.00000000e+00, 0.00000000e+00, 0.00000000e+00, 0.00000000e+00, -3.72559588e+00, -1.25626987e+00, -1.11540375e-02, 1.68060202e+00, 0.00000000e+00, 5.0000000000, 5.0000000000, 0.1254053720
          50, 0.00000000e+00, 0.00000000e+00, 0.00000000e+00, 0.00000000e+00, 0.00000000e+00, 0.00000000e+00, 0.00000000e+00, 0.00000000e+00, 0.00000000e+00, 0.00000000e+00, 0.00000000e+00, 0.00000000e+00, -3.69350163e+00, -1.21665645e+00, -2.02538071e-02, 1.71345195e+00, 0.00000000e+00, 5.0000000000, 5.0000000000, 0.1282035034
          51, 0.00000000e+00, 0.00000000e+00, 0.00000000e+00, 0.00000000e+00, 0.00000000e+00, 0.00000000e+00, 0.00000000e+00, 0.00000000e+00, 0.00000000e+00, 0.00000000e+00, 0.00000000e+00, 0.00000000e+00, -3.66490504e+00, -1.18154856e+00, -2.93295445e-02, 1.74275551e+00, 0.00000000e+00, 5.0000000000, 5.0000000000, 0.1309772882
          52, 0.00000000e+00, 0.00000000e+00, 0.00000000e+00, 0.00000000e+00, 0.00000000e+00, 0.00000000e+00, 0.00000000e+00, 0.00000000e+00, 0.00000000e+00, 0.00000000e+00, 0.00000000e+00, 0.00000000e+00, -3.63989743e+00, -1.15081664e+00, -3.83793777e-02, 1.76835239e+00, 0.00000000e+00, 5.0000000000, 5.0000000000, 0.1337497810
          53, 0.00000000e+00, 0.00000000e+00, 0.00000000e+00, 0.00000000e+00, 0.00000000e+00, 0.00000000e+00, 0.00000000e+00, 0.00000000e+00, 0.00000000e+00, 0.00000000e+00, 0.00000000e+00, 0.00000000e+00, -3.61847339e+00, -1.12416561e+00, -4.74015140e-02, 1.79020946e+00, 0.00000000e+00, 5.0000000000, 5.0000000000, 0.1367888151
          54, 0.00000000e+00, 0.00000000e+00, 0.00000000e+00, 0.00000000e+00, 0.00000000e+00, 0.00000000e+00, 0.00000000e+00, 0.00000000e+00, 0.00000000e+00, 0.00000000e+00, 0.00000000e+00, 0.00000000e+00, -3.60056046e+00, -1.10119850e+00, -5.63943288e-02, 1.80837853e+00, 0.00000000e+00, 5.0000000000, 5.0000000000, 0.1406227723
          55, 0.00000000e+00, 0.00000000e+00, 0.00000000e+00, 0.00000000e+00, 0.00000000e+00, 0.00000000e+00, 0.00000000e+00, 0.00000000e+00, 0.00000000e+00, 0.00000000e+00, 0.00000000e+00, 0.00000000e+00, -3.58603679e+00, -1.08145593e+00, -6.53564538e-02, 1.82297152e+00, 0.00000000e+00, 5.0000000000, 5.0000000000, 0.1445742266
          56, 0.00000000e+00, 0.00000000e+00, 0.00000000e+00, 0.00000000e+00, 0.00000000e+00, 0.00000000e+00, 0.00000000e+00, 0.00000000e+00, 0.00000000e+00, 0.00000000e+00, 0.00000000e+00, 0.00000000e+00, -3.57474058e+00, -1.06444672e+00, -7.42868671e-02, 1.83414762e+00, 0.00000000e+00, 5.0000000000, 5.0000000000, 0.1483135447
          57, 0.00000000e+00, 0.00000000e+00, 0.00000000e+00, 0.00000000e+00, 0.00000000e+00, 0.00000000e+00, 0.00000000e+00, 0.00000000e+00, 0.00000000e+00, 0.00000000e+00, 0.00000000e+00, 0.00000000e+00, -3.56647356e+00, -1.04967778e+00, -8.31849834e-02, 1.84210897e+00, 0.00000000e+00, 5.0000000000, 5.0000000000, 0.1510920594
          58, 0.00000000e+00, 0.00000000e+00, 0.00000000e+00, 0.00000000e+00, 0.00000000e+00, 0.00000000e+00, 0.00000000e+00, 0.00000000e+00, 0.00000000e+00, 0.00000000e+00, 0.00000000e+00, 0.00000000e+00, -3.56100009e+00, -1.03668620e+00, -9.20507467e-02, 1.84710303e+00, 0.00000000e+00, 5.0000000000, 5.0000000000, 0.1541176305
          59, 0.00000000e+00, 0.00000000e+00, 0.00000000e+00, 0.00000000e+00, 0.00000000e+00, 0.00000000e+00, 0.00000000e+00, 0.00000000e+00, 0.00000000e+00, 0.00000000e+00, 0.00000000e+00, 0.00000000e+00, -3.55804285e+00, -1.02507231e+00, -1.00884716e-01, 1.84943005e+00, 0.00000000e+00, 5.0000000000, 5.0000000000, 0.1568703330
          60, 0.00000000e+00, 0.00000000e+00, 0.00000000e+00, 0.00000000e+00, 0.00000000e+00, 0.00000000e+00, 0.00000000e+00, 0.00000000e+00, 0.00000000e+00, 0.00000000e+00, 0.00000000e+00, 0.00000000e+00, -3.55727661e+00, -1.01452895e+00, -1.09688115e-01, 1.84945389e+00, 0.00000000e+00, 5.0000000000, 5.0000000000, 0.1596500646
          61, 0.00000000e+00, 0.00000000e+00, 0.00000000e+00, 0.00000000e+00, 0.00000000e+00, 0.00000000e+00, 0.00000000e+00, 0.00000000e+00, 0.00000000e+00, 0.00000000e+00, 0.00000000e+00, 0.00000000e+00, -3.55832208e+00, -1.00486097e+00, -1.18462802e-01, 1.84761333e+00, 0.00000000e+00, 5.0000000000, 5.0000000000, 0.1627098190
          62, 0.00000000e+00, 0.00000000e+00, 0.00000000e+00, 0.00000000e+00, 0.00000000e+00, 0.00000000e+00, 0.00000000e+00, 0.00000000e+00, 0.00000000e+00, 0.00000000e+00, 0.00000000e+00, 0.00000000e+00, -3.56074375e+00, -9.95989989e-01, -1.27211124e-01, 1.84442852e+00, 0.00000000e+00, 5.0000000000, 5.0000000000, 0.1666818884
          63, 0.00000000e+00, 0.00000000e+00, 0.00000000e+00, 0.00000000e+00, 0.00000000e+00, 0.00000000e+00, 0.00000000e+00, 0.00000000e+00, 0.00000000e+00, 0.00000000e+00, 0.00000000e+00, 0.00000000e+00, -3.56405693e+00, -9.87942731e-01, -1.35935732e-01, 1.84049442e+00, 0.00000000e+00, 5.0000000000, 5.0000000000, 0.1707579085
          64, 0.00000000e+00, 0.00000000e+00, 0.00000000e+00, 0.00000000e+00, 0.00000000e+00, 0.00000000e+00, 0.00000000e+00, 0.00000000e+00, 0.00000000e+00, 0.00000000e+00, 0.00000000e+00, 0.00000000e+00, -3.56774897e+00, -9.80826056e-01, -1.44639470e-01, 1.83645339e+00, 0.00000000e+00, 5.0000000000, 5.0000000000, 0.1747277761
          65, 0.00000000e+00, 0.00000000e+00, 0.00000000e+00, 0.00000000e+00, 0.00000000e+00, 0.00000000e+00, 0.00000000e+00, 0.00000000e+00, 0.00000000e+00, 0.00000000e+00, 0.00000000e+00, 0.00000000e+00, -3.57131600e+00, -9.74794538e-01, -1.53325392e-01, 1.83294318e+00, 0.00000000e+00, 5.0000000000, 5.0000000000, 0.1775311404
          66, 0.00000000e+00, 0.00000000e+00, 0.00000000e+00, 0.00000000e+00, 0.00000000e+00, 0.00000000e+00, 0.00000000e+00, 0.00000000e+00, 0.00000000e+00, 0.00000000e+00, 0.00000000e+00, 0.00000000e+00, -3.57431204e+00, -9.70017620e-01, -1.61996818e-01, 1.83052443e+00, 0.00000000e+00, 5.0000000000, 5.0000000000, 0.1803449152
          67, 0.00000000e+00, 0.00000000e+00, 0.00000000e+00, 0.00000000e+00, 0.00000000e+00, 0.00000000e+00, 0.00000000e+00, 0.00000000e+00, 0.00000000e+00, 0.00000000e+00, 0.00000000e+00, 0.00000000e+00, -3.57640234e+00, -9.66651944e-01, -1.70657361e-01, 1.82960106e+00, 0.00000000e+00, 5.0000000000, 5.0000000000, 0.1831672636
          68, 0.00000000e+00, 0.00000000e+00, 0.00000000e+00, 0.00000000e+00, 0.00000000e+00, 0.00000000e+00, 0.00000000e+00, 0.00000000e+00, 0.00000000e+00, 0.00000000e+00, 0.00000000e+00, 0.00000000e+00, -3.57740859e+00, -9.64822109e-01, -1.79310895e-01, 1.83035519e+00, 0.00000000e+00, 5.0000000000, 5.0000000000, 0.1859539641
          69, 0.00000000e+00, 0.00000000e+00, 0.00000000e+00, 0.00000000e+00, 0.00000000e+00, 0.00000000e+00, 0.00000000e+00, 0.00000000e+00, 0.00000000e+00, 0.00000000e+00, 0.00000000e+00, 0.00000000e+00, -3.57733282e+00, -9.64610809e-01, -1.87961486e-01, 1.83271865e+00, 0.00000000e+00, 5.0000000000, 5.0000000000, 0.1887434969
          70, 0.00000000e+00, 0.00000000e+00, 0.00000000e+00, 0.00000000e+00, 0.00000000e+00, 0.00000000e+00, 0.00000000e+00, 0.00000000e+00, 0.00000000e+00, 0.00000000e+00, 0.00000000e+00, 0.00000000e+00, -3.57635201e+00, -9.66057480e-01, -1.96613301e-01, 1.83639237e+00, 0.00000000e+00, 5.0000000000, 5.0000000000, 0.1916628648
          71, 0.00000000e+00, 0.00000000e+00, 0.00000000e+00, 0.00000000e+00, 0.00000000e+00, 0.00000000e+00, 0.00000000e+00, 0.00000000e+00, 0.00000000e+00, 0.00000000e+00, 0.00000000e+00, 0.00000000e+00, -3.57478453e+00, -9.69163664e-01, -2.05270521e-01, 1.84090673e+00, 0.00000000e+00, 5.0000000000, 5.0000000000, 0.1953689340
          72, 0.00000000e+00, 0.00000000e+00, 0.00000000e+00, 0.00000000e+00, 0.00000000e+00, 0.00000000e+00, 0.00000000e+00, 0.00000000e+00, 0.00000000e+00, 0.00000000e+00, 0.00000000e+00, 0.00000000e+00, -3.57303903e+00, -9.73903104e-01, -2.13937255e-01, 1.84570207e+00, 0.00000000e+00, 5.0000000000, 5.0000000000, 0.1987279899
          73, 0.00000000e+00, 0.00000000e+00, 0.00000000e+00, 0.00000000e+00, 0.00000000e+00, 0.00000000e+00, 0.00000000e+00, 0.00000000e+00, 0.00000000e+00, 0.00000000e+00, 0.00000000e+00, 0.00000000e+00, -3.57155968e+00, -9.80234528e-01, -2.22617471e-01, 1.85020581e+00, 0.00000000e+00, 5.0000000000, 5.0000000000, 0.2017018435
          74, 0.00000000e+00, 0.00000000e+00, 0.00000000e+00, 0.00000000e+00, 0.00000000e+00, 0.00000000e+00, 0.00000000e+00, 0.00000000e+00, 0.00000000e+00, 0.00000000e+00, 0.00000000e+00, 0.00000000e+00, -3.57077935e+00, -9.88115163e-01, -2.31314926e-01, 1.85389062e+00, 0.00000000e+00, 5.0000000000, 5.0000000000, 0.2047081545
          75, 0.00000000e+00, 0.00000000e+00, 0.00000000e+00, 0.00000000e+00, 0.00000000e+00, 0.00000000e+00, 0.00000000e+00, 0.00000000e+00, 0.00000000e+00, 0.00000000e+00, 0.00000000e+00, 0.00000000e+00, -3.57108717e+00, -9.97513291e-01, -2.40033106e-01, 1.85630840e+00, 0.00000000e+00, 5.0000000000, 5.0000000000, 0.2076502330
          76, 0.00000000e+00, 0.00000000e+00, 0.00000000e+00, 0.00000000e+00, 0.00000000e+00, 0.00000000e+00, 0.00000000e+00, 0.00000000e+00, 0.00000000e+00, 0.00000000e+00, 0.00000000e+00, 0.00000000e+00, -3.57281071e+00, -1.00841851e+00, -2.48775171e-01, 1.85710322e+00, 0.00000000e+00, 5.0000000000, 5.0000000000, 0.2106894751
          77, 0.00000000e+00, 0.00000000e+00, 0.00000000e+00, 0.00000000e+00, 0.00000000e+00, 0.00000000e+00, 0.00000000e+00, 0.00000000e+00, 0.00000000e+00, 0.00000000e+00, 0.00000000e+00, 0.00000000e+00, -3.57621033e+00, -1.02084885e+00, -2.57543893e-01, 1.85600977e+00, 0.00000000e+00, 5.0000000000, 5.0000000000, 0.2136300280
          78, 0.00000000e+00, 0.00000000e+00, 0.00000000e+00, 0.00000000e+00, 0.00000000e+00, 0.00000000e+00, 0.00000000e+00, 0.00000000e+00, 0.00000000e+00, 0.00000000e+00, 0.00000000e+00, 0.00000000e+00, -3.58148114e+00, -1.03485433e+00, -2.66341613e-01, 1.85284403e+00, 0.00000000e+00, 5.0000000000, 5.0000000000, 0.2165172219
          79, 0.00000000e+00, 0.00000000e+00, 0.00000000e+00, 0.00000000e+00, 0.00000000e+00, 0.00000000e+00, 0.00000000e+00, 0.00000000e+00, 0.00000000e+00, 0.00000000e+00, 0.00000000e+00, 0.00000000e+00, -3.58875895e+00, -1.05051740e+00, -2.75170200e-01, 1.84749139e+00, 0.00000000e+00, 5.0000000000, 5.0000000000, 0.2196480285
          80, 0.00000000e+00, 0.00000000e+00, 0.00000000e+00, 0.00000000e+00, 0.00000000e+00, 0.00000000e+00, 0.00000000e+00, 0.00000000e+00, 0.00000000e+00, 0.00000000e+00, 0.00000000e+00, 0.00000000e+00, -3.59812703e+00, -1.06795081e+00, -2.84031025e-01, 1.83989549e+00, 0.00000000e+00, 5.0000000000, 5.0000000000, 0.2229884360
          81, 0.00000000e+00, 0.00000000e+00, 0.00000000e+00, 0.00000000e+00, 0.00000000e+00, 0.00000000e+00, 0.00000000e+00, 0.00000000e+00, 0.00000000e+00, 0.00000000e+00, 0.00000000e+00, 0.00000000e+00, -3.60962177e+00, -1.08729415e+00, -2.92924950e-01, 1.83004977e+00, 0.00000000e+00, 5.0000000000, 5.0000000000, 0.2259152437
          82, 0.00000000e+00, 0.00000000e+00, 0.00000000e+00, 0.00000000e+00, 0.00000000e+00, 0.00000000e+00, 0.00000000e+00, 0.00000000e+00, 0.00000000e+00, 0.00000000e+00, 0.00000000e+00, 0.00000000e+00, -3.62323595e+00, -1.10871004e+00, -3.01852338e-01, 1.81799241e+00, 0.00000000e+00, 5.0000000000, 5.0000000000, 0.2287183257
          83, 0.00000000e+00, 0.00000000e+00, 0.00000000e+00, 0.00000000e+00, 0.00000000e+00, 0.00000000e+00, 0.00000000e+00, 0.00000000e+00, 0.00000000e+00, 0.00000000e+00, 0.00000000e+00, 0.00000000e+00, -3.63891917e+00, -1.13238112e+00, -3.10813076e-01, 1.80380509e+00, 0.00000000e+00, 5.0000000000, 5.0000000000, 0.2315258337
          84, 0.00000000e+00, 0.00000000e+00, 0.00000000e+00, 0.00000000e+00, 0.00000000e+00, 0.00000000e+00, 0.00000000e+00, 0.00000000e+00, 0.00000000e+00, 0.00000000e+00, 0.00000000e+00, 0.00000000e+00, -3.65657501e+00, -1.15850871e+00, -3.19806622e-01, 1.78761532e+00, 0.00000000e+00, 5.0000000000, 5.0000000000, 0.2343173773
          85, 0.00000000e+00, 0.00000000e+00, 0.00000000e+00, 0.00000000e+00, 0.00000000e+00, 0.00000000e+00, 0.00000000e+00, 0.00000000e+00, 0.00000000e+00, 0.00000000e+00, 0.00000000e+00, 0.00000000e+00, -3.67605518e+00, -1.18731371e+00, -3.28832060e-01, 1.76960216e+00, 0.00000000e+00, 5.0000000000, 5.0000000000, 0.2371622685
          86, 0.00000000e+00, 0.00000000e+00, 0.00000000e+00, 0.00000000e+00, 0.00000000e+00, 0.00000000e+00, 0.00000000e+00, 0.00000000e+00, 0.00000000e+00, 0.00000000e+00, 0.00000000e+00, 0.00000000e+00, -3.69715069e+00, -1.21904032e+00, -3.37888180e-01, 1.75000469e+00, 0.00000000e+00, 5.0000000000, 5.0000000000, 0.2399780261
          87, 0.00000000e+00, 0.00000000e+00, 0.00000000e+00, 0.00000000e+00, 0.00000000e+00, 0.00000000e+00, 0.00000000e+00, 0.00000000e+00, 0.00000000e+00, 0.00000000e+00, 0.00000000e+00, 0.00000000e+00, -3.71958082e+00, -1.25396284e+00, -3.46973557e-01, 1.72913233e+00, 0.00000000e+00, 5.0000000000, 5.0000000000, 0.2430817999
          88, 0.00000000e+00, 0.00000000e+00, 0.00000000e+00, 0.00000000e+00, 0.00000000e+00, 0.00000000e+00, 0.00000000e+00, 0.00000000e+00, 0.00000000e+00, 0.00000000e+00, 0.00000000e+00, 0.00000000e+00, -3.74298098e+00, -1.29239603e+00, -3.56086648e-01, 1.70737565e+00, 0.00000000e+00, 5.0000000000, 5.0000000000, 0.2474187668
          89, 0.00000000e+00, 0.00000000e+00, 0.00000000e+00, 0.00000000e+00, 0.00000000e+00, 0.00000000e+00, 0.00000000e+00, 0.00000000e+00, 0.00000000e+00, 0.00000000e+00, 0.00000000e+00, 0.00000000e+00, -3.76689161e+00, -1.33470890e+00, -3.65225885e-01, 1.68521513e+00, 0.00000000e+00, 5.0000000000, 5.0000000000, 0.2502088555