TITLE = "SU2 Simulation"
VARIABLES = "Iteration","CL","CD","CSF","CMx","CMy","CMz","CFx","CFy","CFz","CL/CD","AoA","Custom_ObjFunc","Res_Flow[0]","Res_Flow[1]","Res_Flow[2]","Res_Flow[3]","Res_Flow[4]","Linear_Solver_Iterations","CFL_Number","Time(min)"
ZONE T= "Convergence history"
           0, 0.00000000e+00, 0.00000000e+00, 0.00000000e+00, 0.00000000e+00, 0.00000000e+00, 0.00000000e+00, 0.00000000e+00, 0.00000000e+00, 0.00000000e+00, 0.00000000e+00, 0.00000000e+00, 0.00000000e+00, -2.90074493e+00, -4.14838242e-01, -1.26119551e+01, 2.54397277e+00, 0.00000000e+00, 5.0000000000, 5.0000000000, 0.0021627193
           1, 0.00000000e+00, 0.00000000e+00, 0.00000000e+00, 0.00000000e+00, 0.00000000e+00, 0.00000000e+00, 0.00000000e+00, 0.00000000e+00, 0.00000000e+00, 0.00000000e+00, 0.00000000e+00, 0.00000000e+00, -3.08346330e+00, -6.03561643e-01, -1.42449949e+00, 2.36182438e+00, 0.00000000e+00, 5.0000000000, 5.0000000000, 0.0043411352
           2, 0.00000000e+00, 0.00000000e+00, 0.00000000e+00, 0.00000000e+00, 0.00000000e+00, 0.00000000e+00, 0.00000000e+00, 0.00000000e+00, 0.00000000e+00, 0.00000000e+00, 0.00000000e+00, 0.00000000e+00, -3.20006725e+00, -7.16632422e-01, -1.13913449e+00, 2.24628572e+00, 0.00000000e+00, 5.0000000000, 5.0000000000, 0.0063637846
           3, 0.00000000e+00, 0.00000000e+00, 0.00000000e+00, 0.00000000e+00, 0.00000000e+00, 0.00000000e+00, 0.00000000e+00, 0.00000000e+00, 0.00000000e+00, 0.00000000e+00, 0.00000000e+00, 0.00000000e+00, -3.24967259e+00, -7.62417500e-01, -9.78378954e-01, 2.19605623e+00, 0.00000000e+00, 5.0000000000, 5.0000000000, 0.0084184842
           4, 0.00000000e+00, 0.00000000e+00, 0.00000000e+00, 0.00000000e+00, 0.00000000e+00, 0.00000000e+00, 0.00000000e+00, 0.00000000e+00, 0.00000000e+00, 0.00000000e+00, 0.00000000e+00, 0.00000000e+00, -3.27343131e+00, -7.87974122e-01, -8.68114636e-01, 2.17161358e+00, 0.00000000e+00, 5.0000000000, 5.0000000000, 0.0104043016
           5, 0.00000000e+00, 0.00000000e+00, 0.00000000e+00, 0.00000000e+00, 0.00000000e+00, 0.00000000e+00, 0.00000000e+00, 0.00000000e+00, 0.00000000e+00, 0.00000000e+00, 0.00000000e+00, 0.00000000e+00, -3.29416778e+00, -8.11145822e-01, -7.85317661e-01, 2.15083347e+00, 0.00000000e+00, 5.0000000000, 5.0000000000, 0.0124327022
           6, 0.00000000e+00, 0.00000000e+00, 0.00000000e+00, 0.00000000e+00, 0.00000000e+00, 0.00000000e+00, 0.00000000e+00, 0.00000000e+00, 0.00000000e+00, 0.00000000e+00, 0.00000000e+00, 0.00000000e+00, -3.31486923e+00, -8.31814924e-01, -7.19715688e-01, 2.13039369e+00, 0.00000000e+00, 5.0000000000, 5.0000000000, 0.0146194031
           7, 0.00000000e+00, 0.00000000e+00, 0.00000000e+00, 0.00000000e+00, 0.00000000e+00, 0.00000000e+00, 0.00000000e+00, 0.00000000e+00, 0.00000000e+00, 0.00000000e+00, 0.00000000e+00, 0.00000000e+00, -3.33321274e+00, -8.48333140e-01, -6.65821911e-01, 2.11230803e+00, 0.00000000e+00, 5.0000000000, 5.0000000000, 0.0172165472
           8, 0.00000000e+00, 0.00000000e+00, 0.00000000e+00, 0.00000000e+00, 0.00000000e+00, 0.00000000e+00, 0.00000000e+00, 0.00000000e+00, 0.00000000e+00, 0.00000000e+00, 0.00000000e+00, 0.00000000e+00, -3.34787420e+00, -8.61093052e-01, -6.20403820e-01, 2.09783986e+00, 0.00000000e+00, 5.0000000000, 5.0000000000, 0.0199230494
           9, 0.00000000e+00, 0.00000000e+00, 0.00000000e+00, 0.00000000e+00, 0.00000000e+00, 0.00000000e+00, 0.00000000e+00, 0.00000000e+00, 0.00000000e+00, 0.00000000e+00, 0.00000000e+00, 0.00000000e+00, -3.35927853e+00, -8.71198986e-01, -5.81401116e-01, 2.08663231e+00, 0.00000000e+00, 5.0000000000, 5.0000000000, 0.0234913213
          10, 0.00000000e+00, 0.00000000e+00, 0.00000000e+00, 0.00000000e+00, 0.00000000e+00, 0.00000000e+00, 0.00000000e+00, 0.00000000e+00, 0.00000000e+00, 0.00000000e+00, 0.00000000e+00, 0.00000000e+00, -3.36844383e+00, -8.79356031e-01, -5.47419667e-01, 2.07773192e+00, 0.00000000e+00, 5.0000000000, 5.0000000000, 0.0260145424
          11, 0.00000000e+00, 0.00000000e+00, 0.00000000e+00, 0.00000000e+00, 0.00000000e+00, 0.00000000e+00, 0.00000000e+00, 0.00000000e+00, 0.00000000e+00, 0.00000000e+00, 0.00000000e+00, 0.00000000e+00, -3.37609015e+00, -8.85838167e-01, -5.17472743e-01, 2.07044001e+00, 0.00000000e+00, 5.0000000000, 5.0000000000, 0.0280567369
          12, 0.00000000e+00, 0.00000000e+00, 0.00000000e+00, 0.00000000e+00, 0.00000000e+00, 0.00000000e+00, 0.00000000e+00, 0.00000000e+00, 0.00000000e+00, 0.00000000e+00, 0.00000000e+00, 0.00000000e+00, -3.38250239e+00, -8.90781976e-01, -4.90836537e-01, 2.06446487e+00, 0.00000000e+00, 5.0000000000, 5.0000000000, 0.0300127030
          13, 0.00000000e+00, 0.00000000e+00, 0.00000000e+00, 0.00000000e+00, 0.00000000e+00, 0.00000000e+00, 0.00000000e+00, 0.00000000e+00, 0.00000000e+00, 0.00000000e+00, 0.00000000e+00, 0.00000000e+00, -3.38774621e+00, -8.94338697e-01, -4.66964275e-01, 2.05972619e+00, 0.00000000e+00, 5.0000000000, 5.0000000000, 0.0320656029
          14, 0.00000000e+00, 0.00000000e+00, 0.00000000e+00, 0.00000000e+00, 0.00000000e+00, 0.00000000e+00, 0.00000000e+00, 0.00000000e+00, 0.00000000e+00, 0.00000000e+00, 0.00000000e+00, 0.00000000e+00, -3.39185261e+00, -8.96687442e-01, -4.45432572e-01, 2.05618026e+00, 0.00000000e+00, 5.0000000000, 5.0000000000, 0.0341516133
          15, 0.00000000e+00, 0.00000000e+00, 0.00000000e+00, 0.00000000e+00, 0.00000000e+00, 0.00000000e+00, 0.00000000e+00, 0.00000000e+00, 0.00000000e+00, 0.00000000e+00, 0.00000000e+00, 0.00000000e+00, -3.39486589e+00, -8.98026412e-01, -4.25906631e-01, 2.05377437e+00, 0.00000000e+00, 5.0000000000, 5.0000000000, 0.0365491073
          16, 0.00000000e+00, 0.00000000e+00, 0.00000000e+00, 0.00000000e+00, 0.00000000e+00, 0.00000000e+00, 0.00000000e+00, 0.00000000e+00, 0.00000000e+00, 0.00000000e+00, 0.00000000e+00, 0.00000000e+00, -3.39681127e+00, -8.98589758e-01, -4.08116934e-01, 2.05247861e+00, 0.00000000e+00, 5.0000000000, 5.0000000000, 0.0393059591
          17, 0.00000000e+00, 0.00000000e+00, 0.00000000e+00, 0.00000000e+00, 0.00000000e+00, 0.00000000e+00, 0.00000000e+00, 0.00000000e+00, 0.00000000e+00, 0.00000000e+00, 0.00000000e+00, 0.00000000e+00, -3.39765266e+00, -8.98678601e-01, -3.91843211e-01, 2.05232718e+00, 0.00000000e+00, 5.0000000000, 5.0000000000, 0.0420810359
          18, 0.00000000e+00, 0.00000000e+00, 0.00000000e+00, 0.00000000e+00, 0.00000000e+00, 0.00000000e+00, 0.00000000e+00, 0.00000000e+00, 0.00000000e+00, 0.00000000e+00, 0.00000000e+00, 0.00000000e+00, -3.39727141e+00, -8.98686247e-01, -3.76903086e-01, 2.05343858e+00, 0.00000000e+00, 5.0000000000, 5.0000000000, 0.0449186701
          19, 0.00000000e+00, 0.00000000e+00, 0.00000000e+00, 0.00000000e+00, 0.00000000e+00, 0.00000000e+00, 0.00000000e+00, 0.00000000e+00, 0.00000000e+00, 0.00000000e+00, 0.00000000e+00, 0.00000000e+00, -3.39547095e+00, -8.99108054e-01, -3.63143839e-01, 2.05600960e+00, 0.00000000e+00, 5.0000000000, 5.0000000000, 0.0474589652
          20, 0.00000000e+00, 0.00000000e+00, 0.00000000e+00, 0.00000000e+00, 0.00000000e+00, 0.00000000e+00, 0.00000000e+00, 0.00000000e+00, 0.00000000e+00, 0.00000000e+00, 0.00000000e+00, 0.00000000e+00, -3.39200833e+00, -9.00533613e-01, -3.50436291e-01, 2.06028123e+00, 0.00000000e+00, 5.0000000000, 5.0000000000, 0.0494712480
          21, 0.00000000e+00, 0.00000000e+00, 0.00000000e+00, 0.00000000e+00, 0.00000000e+00, 0.00000000e+00, 0.00000000e+00, 0.00000000e+00, 0.00000000e+00, 0.00000000e+00, 0.00000000e+00, 0.00000000e+00, -3.38665432e+00, -9.03622142e-01, -3.38670171e-01, 2.06647559e+00, 0.00000000e+00, 5.0000000000, 5.0000000000, 0.0515467330
          22, 0.00000000e+00, 0.00000000e+00, 0.00000000e+00, 0.00000000e+00, 0.00000000e+00, 0.00000000e+00, 0.00000000e+00, 0.00000000e+00, 0.00000000e+00, 0.00000000e+00, 0.00000000e+00, 0.00000000e+00, -3.37927424e+00, -9.09065281e-01, -3.27750565e-01, 2.07471277e+00, 0.00000000e+00, 5.0000000000, 5.0000000000, 0.0535969486
          23, 0.00000000e+00, 0.00000000e+00, 0.00000000e+00, 0.00000000e+00, 0.00000000e+00, 0.00000000e+00, 0.00000000e+00, 0.00000000e+00, 0.00000000e+00, 0.00000000e+00, 0.00000000e+00, 0.00000000e+00, -3.36990636e+00, -9.17544626e-01, -3.17595156e-01, 2.08493267e+00, 0.00000000e+00, 5.0000000000, 5.0000000000, 0.0557051039
          24, 0.00000000e+00, 0.00000000e+00, 0.00000000e+00, 0.00000000e+00, 0.00000000e+00, 0.00000000e+00, 0.00000000e+00, 0.00000000e+00, 0.00000000e+00, 0.00000000e+00, 0.00000000e+00, 0.00000000e+00, -3.35880602e+00, -9.29691909e-01, -3.08132074e-01, 2.09685406e+00, 0.00000000e+00, 5.0000000000, 5.0000000000, 0.0578369644
          25, 0.00000000e+00, 0.00000000e+00, 0.00000000e+00, 0.00000000e+00, 0.00000000e+00, 0.00000000e+00, 0.00000000e+00, 0.00000000e+00, 0.00000000e+00, 0.00000000e+00, 0.00000000e+00, 0.00000000e+00, -3.34643364e+00, -9.46057204e-01, -2.99298205e-01, 2.10999175e+00, 0.00000000e+00, 5.0000000000, 5.0000000000, 0.0598170264
          26, 0.00000000e+00, 0.00000000e+00, 0.00000000e+00, 0.00000000e+00, 0.00000000e+00, 0.00000000e+00, 0.00000000e+00, 0.00000000e+00, 0.00000000e+00, 0.00000000e+00, 0.00000000e+00, 0.00000000e+00, -3.33338945e+00, -9.67085803e-01, -2.91037855e-01, 2.12372665e+00, 0.00000000e+00, 5.0000000000, 5.0000000000, 0.0617768250
          27, 0.00000000e+00, 0.00000000e+00, 0.00000000e+00, 0.00000000e+00, 0.00000000e+00, 0.00000000e+00, 0.00000000e+00, 0.00000000e+00, 0.00000000e+00, 0.00000000e+00, 0.00000000e+00, 0.00000000e+00, -3.32032051e+00, -9.93098643e-01, -2.83301670e-01, 2.13740124e+00, 0.00000000e+00, 5.0000000000, 5.0000000000, 0.0642000927
          28, 0.00000000e+00, 0.00000000e+00, 0.00000000e+00, 0.00000000e+00, 0.00000000e+00, 0.00000000e+00, 0.00000000e+00, 0.00000000e+00, 0.00000000e+00, 0.00000000e+00, 0.00000000e+00, 0.00000000e+00, -3.30783269e+00, -1.02426362e+00, -2.76045754e-01, 2.15040744e+00, 0.00000000e+00, 5.0000000000, 5.0000000000, 0.0673977946
          29, 0.00000000e+00, 0.00000000e+00, 0.00000000e+00, 0.00000000e+00, 0.00000000e+00, 0.00000000e+00, 0.00000000e+00, 0.00000000e+00, 0.00000000e+00, 0.00000000e+00, 0.00000000e+00, 0.00000000e+00, -3.29643034e+00, -1.06053345e+00, -2.69230945e-01, 2.16224489e+00, 0.00000000e+00, 5.0000000000, 5.0000000000, 0.0700965361
          30, 0.00000000e+00, 0.00000000e+00, 0.00000000e+00, 0.00000000e+00, 0.00000000e+00, 0.00000000e+00, 0.00000000e+00, 0.00000000e+00, 0.00000000e+00, 0.00000000e+00, 0.00000000e+00, 0.00000000e+00, -3.28649068e+00, -1.10150606e+00, -2.62822195e-01, 2.17254401e+00, 0.00000000e+00, 5.0000000000, 5.0000000000, 0.0732715648
          31, 0.00000000e+00, 0.00000000e+00, 0.00000000e+00, 0.00000000e+00, 0.00000000e+00, 0.00000000e+00, 0.00000000e+00, 0.00000000e+00, 0.00000000e+00, 0.00000000e+00, 0.00000000e+00, 0.00000000e+00, -3.27826728e+00, -1.14613546e+00, -2.56788037e-01, 2.18106019e+00, 0.00000000e+00, 5.0000000000, 5.0000000000, 0.0756026695
          32, 0.00000000e+00, 0.00000000e+00, 0.00000000e+00, 0.00000000e+00, 0.00000000e+00, 0.00000000e+00, 0.00000000e+00, 0.00000000e+00, 0.00000000e+00, 0.00000000e+00, 0.00000000e+00, 0.00000000e+00, -3.27191172e+00, -1.19220755e+00, -2.51100119e-01, 2.18765055e+00, 0.00000000e+00, 5.0000000000, 5.0000000000, 0.0775915621
          33, 0.00000000e+00, 0.00000000e+00, 0.00000000e+00, 0.00000000e+00, 0.00000000e+00, 0.00000000e+00, 0.00000000e+00, 0.00000000e+00, 0.00000000e+00, 0.00000000e+00, 0.00000000e+00, 0.00000000e+00, -3.26750194e+00, -1.23560369e+00, -2.45732787e-01, 2.19224468e+00, 0.00000000e+00, 5.0000000000, 5.0000000000, 0.0795529925
          34, 0.00000000e+00, 0.00000000e+00, 0.00000000e+00, 0.00000000e+00, 0.00000000e+00, 0.00000000e+00, 0.00000000e+00, 0.00000000e+00, 0.00000000e+00, 0.00000000e+00, 0.00000000e+00, 0.00000000e+00, -3.26506871e+00, -1.26986839e+00, -2.40662729e-01, 2.19481777e+00, 0.00000000e+00, 5.0000000000, 5.0000000000, 0.0815674903
          35, 0.00000000e+00, 0.00000000e+00, 0.00000000e+00, 0.00000000e+00, 0.00000000e+00, 0.00000000e+00, 0.00000000e+00, 0.00000000e+00, 0.00000000e+00, 0.00000000e+00, 0.00000000e+00, 0.00000000e+00, -3.26461520e+00, -1.28748815e+00, -2.35868666e-01, 2.19537103e+00, 0.00000000e+00, 5.0000000000, 5.0000000000, 0.0835241559
          36, 0.00000000e+00, 0.00000000e+00, 0.00000000e+00, 0.00000000e+00, 0.00000000e+00, 0.00000000e+00, 0.00000000e+00, 0.00000000e+00, 0.00000000e+00, 0.00000000e+00, 0.00000000e+00, 0.00000000e+00, -3.26612786e+00, -1.28380711e+00, -2.31331093e-01, 2.19392103e+00, 0.00000000e+00, 5.0000000000, 5.0000000000, 0.0855267149
          37, 0.00000000e+00, 0.00000000e+00, 0.00000000e+00, 0.00000000e+00, 0.00000000e+00, 0.00000000e+00, 0.00000000e+00, 0.00000000e+00, 0.00000000e+00, 0.00000000e+00, 0.00000000e+00, 0.00000000e+00, -3.26957963e+00, -1.26055694e+00, -2.27032081e-01, 2.19049677e+00, 0.00000000e+00, 5.0000000000, 5.0000000000, 0.0875029885
          38, 0.00000000e+00, 0.00000000e+00, 0.00000000e+00, 0.00000000e+00, 0.00000000e+00, 0.00000000e+00, 0.00000000e+00, 0.00000000e+00, 0.00000000e+00, 0.00000000e+00, 0.00000000e+00, 0.00000000e+00, -3.27492832e+00, -1.22450134e+00, -2.22955112e-01, 2.18514176e+00, 0.00000000e+00, 5.0000000000, 5.0000000000, 0.0899650263
          39, 0.00000000e+00, 0.00000000e+00, 0.00000000e+00, 0.00000000e+00, 0.00000000e+00, 0.00000000e+00, 0.00000000e+00, 0.00000000e+00, 0.00000000e+00, 0.00000000e+00, 0.00000000e+00, 0.00000000e+00, -3.28211357e+00, -1.18301860e+00, -2.19084924e-01, 2.17791757e+00, 0.00000000e+00, 5.0000000000, 5.0000000000, 0.0933229457
          40, 0.00000000e+00, 0.00000000e+00, 0.00000000e+00, 0.00000000e+00, 0.00000000e+00, 0.00000000e+00, 0.00000000e+00, 0.00000000e+00, 0.00000000e+00, 0.00000000e+00, 0.00000000e+00, 0.00000000e+00, -3.29105557e+00, -1.14139825e+00, -2.15407404e-01, 2.16890553e+00, 0.00000000e+00, 5.0000000000, 5.0000000000, 0.0957967799
          41, 0.00000000e+00, 0.00000000e+00, 0.00000000e+00, 0.00000000e+00, 0.00000000e+00, 0.00000000e+00, 0.00000000e+00, 0.00000000e+00, 0.00000000e+00, 0.00000000e+00, 0.00000000e+00, 0.00000000e+00, -3.30165794e+00, -1.10261799e+00, -2.11909531e-01, 2.15820458e+00, 0.00000000e+00, 5.0000000000, 5.0000000000, 0.0985112387
          42, 0.00000000e+00, 0.00000000e+00, 0.00000000e+00, 0.00000000e+00, 0.00000000e+00, 0.00000000e+00, 0.00000000e+00, 0.00000000e+00, 0.00000000e+00, 0.00000000e+00, 0.00000000e+00, 0.00000000e+00, -3.31381554e+00, -1.06805868e+00, -2.08579299e-01, 2.14592401e+00, 0.00000000e+00, 5.0000000000, 5.0000000000, 0.1013323204
          43, 0.00000000e+00, 0.00000000e+00, 0.00000000e+00, 0.00000000e+00, 0.00000000e+00, 0.00000000e+00, 0.00000000e+00, 0.00000000e+00, 0.00000000e+00, 0.00000000e+00, 0.00000000e+00, 0.00000000e+00, -3.32742682e+00, -1.03818491e+00, -2.05405672e-01, 2.13217171e+00, 0.00000000e+00, 5.0000000000, 5.0000000000, 0.1041320198
          44, 0.00000000e+00, 0.00000000e+00, 0.00000000e+00, 0.00000000e+00, 0.00000000e+00, 0.00000000e+00, 0.00000000e+00, 0.00000000e+00, 0.00000000e+00, 0.00000000e+00, 0.00000000e+00, 0.00000000e+00, -3.34240895e+00, -1.01297921e+00, -2.02378566e-01, 2.11703945e+00, 0.00000000e+00, 5.0000000000, 5.0000000000, 0.1075010434
          45, 0.00000000e+00, 0.00000000e+00, 0.00000000e+00, 0.00000000e+00, 0.00000000e+00, 0.00000000e+00, 0.00000000e+00, 0.00000000e+00, 0.00000000e+00, 0.00000000e+00, 0.00000000e+00, 0.00000000e+00, -3.35871291e+00, -9.92181851e-01, -1.99488840e-01, 2.10058809e+00, 0.00000000e+00, 5.0000000000, 5.0000000000, 0.1107694503
          46, 0.00000000e+00, 0.00000000e+00, 0.00000000e+00, 0.00000000e+00, 0.00000000e+00, 0.00000000e+00, 0.00000000e+00, 0.00000000e+00, 0.00000000e+00, 0.00000000e+00, 0.00000000e+00, 0.00000000e+00, -3.37633570e+00, -9.75415648e-01, -1.96728236e-01, 2.08283530e+00, 0.00000000e+00, 5.0000000000, 5.0000000000, 0.1148380324
          47, 0.00000000e+00, 0.00000000e+00, 0.00000000e+00, 0.00000000e+00, 0.00000000e+00, 0.00000000e+00, 0.00000000e+00, 0.00000000e+00, 0.00000000e+00, 0.00000000e+00, 0.00000000e+00, 0.00000000e+00, -3.39532724e+00, -9.62248859e-01, -1.94089527e-01, 2.06374845e+00, 0.00000000e+00, 5.0000000000, 5.0000000000, 0.1195100936
          48, 0.00000000e+00, 0.00000000e+00, 0.00000000e+00, 0.00000000e+00, 0.00000000e+00, 0.00000000e+00, 0.00000000e+00, 0.00000000e+00, 0.00000000e+00, 0.00000000e+00, 0.00000000e+00, 0.00000000e+00, -3.41579076e+00, -9.52226467e-01, -1.91566472e-01, 2.04324375e+00, 0.00000000e+00, 5.0000000000, 5.0000000000, 0.1226228805
          49, 0.00000000e+00, 0.00000000e+00, 0.00000000e+00, 0.00000000e+00, 0.00000000e+00, 0.00000000e+00, 0.00000000e+00, 0.00000000e+00, 0.00000000e+00, 0.00000000e+00, 0.00000000e+00, 0.00000000e+00, -3.43787735e+00, -9.44885895e-01, -1.89153686e-01, 2.02119123e+00, 0.00000000e+00, 5.0000000000, 5.0000000000, 0.1254053720
          50, 0.00000000e+00, 0.00000000e+00, 0.00000000e+00, 0.00000000e+00, 0.00000000e+00, 0.00000000e+00, 0.00000000e+00, 0.00000000e+00, 0.00000000e+00, 0.00000000e+00, 0.00000000e+00, 0.00000000e+00, -3.46177653e+00, -9.39765958e-01, -1.86846479e-01, 1.99742388e+00, 0.00000000e+00, 5.0000000000, 5.0000000000, 0.1282035034
          51, 0.00000000e+00, 0.00000000e+00, 0.00000000e+00, 0.00000000e+00, 0.00000000e+00, 0.00000000e+00, 0.00000000e+00, 0.00000000e+00, 0.00000000e+00, 0.00000000e+00, 0.00000000e+00, 0.00000000e+00, -3.48770570e+00, -9.36414193e-01, -1.84641004e-01, 1.97174790e+00, 0.00000000e+00, 5.0000000000, 5.0000000000, 0.1309772882
          52, 0.00000000e+00, 0.00000000e+00, 0.00000000e+00, 0.00000000e+00, 0.00000000e+00, 0.00000000e+00, 0.00000000e+00, 0.00000000e+00, 0.00000000e+00, 0.00000000e+00, 0.00000000e+00, 0.00000000e+00, -3.51590171e+00, -9.34395741e-01, -1.82534061e-01, 1.94395115e+00, 0.00000000e+00, 5.0000000000, 5.0000000000, 0.1337497810
          53, 0.00000000e+00, 0.00000000e+00, 0.00000000e+00, 0.00000000e+00, 0.00000000e+00, 0.00000000e+00, 0.00000000e+00, 0.00000000e+00, 0.00000000e+00, 0.00000000e+00, 0.00000000e+00, 0.00000000e+00, -3.54661719e+00, -9.33305422e-01, -1.80523000e-01, 1.91380694e+00, 0.00000000e+00, 5.0000000000, 5.0000000000, 0.1367888151
          54, 0.00000000e+00, 0.00000000e+00, 0.00000000e+00, 0.00000000e+00, 0.00000000e+00, 0.00000000e+00, 0.00000000e+00, 0.00000000e+00, 0.00000000e+00, 0.00000000e+00, 0.00000000e+00, 0.00000000e+00, -3.58012369e+00, -9.32783164e-01, -1.78605589e-01, 1.88107119e+00, 0.00000000e+00, 5.0000000000, 5.0000000000, 0.1406227723
          55, 0.00000000e+00, 0.00000000e+00, 0.00000000e+00, 0.00000000e+00, 0.00000000e+00, 0.00000000e+00, 0.00000000e+00, 0.00000000e+00, 0.00000000e+00, 0.00000000e+00, 0.00000000e+00, 0.00000000e+00, -3.61672318e+00, -9.32531249e-01, -1.76779851e-01, 1.84547137e+00, 0.00000000e+00, 5.0000000000, 5.0000000000, 0.1445742266
          56, 0.00000000e+00, 0.00000000e+00, 0.00000000e+00, 0.00000000e+00, 0.00000000e+00, 0.00000000e+00, 0.00000000e+00, 0.00000000e+00, 0.00000000e+00, 0.00000000e+00, 0.00000000e+00, 0.00000000e+00, -3.65676878e+00, -9.32330378e-01, -1.75043943e-01, 1.80668662e+00, 0.00000000e+00, 5.0000000000, 5.0000000000, 0.1483135447
          57, 0.00000000e+00, 0.00000000e+00, 0.00000000e+00, 0.00000000e+00, 0.00000000e+00, 0.00000000e+00, 0.00000000e+00, 0.00000000e+00, 0.00000000e+00, 0.00000000e+00, 0.00000000e+00, 0.00000000e+00, -3.70069516e+00, -9.32050779e-01, -1.73395997e-01, 1.76431850e+00, 0.00000000e+00, 5.0000000000, 5.0000000000, 0.1510920594
          58, 0.00000000e+00, 0.00000000e+00, 0.00000000e+00, 0.00000000e+00, 0.00000000e+00, 0.00000000e+00, 0.00000000e+00, 0.00000000e+00, 0.00000000e+00, 0.00000000e+00, 0.00000000e+00, 0.00000000e+00, -3.74905876e+00, -9.31655099e-01, -1.71833997e-01, 1.71785256e+00, 0.00000000e+00, 5.0000000000, 5.0000000000, 0.1541176305
          59, 0.00000000e+00, 0.00000000e+00, 0.00000000e+00, 0.00000000e+00, 0.00000000e+00, 0.00000000e+00, 0.00000000e+00, 0.00000000e+00, 0.00000000e+00, 0.00000000e+00, 0.00000000e+00, 0.00000000e+00, -3.80258582e+00, -9.31191580e-01, -1.70355674e-01, 1.66661202e+00, 0.00000000e+00, 5.0000000000, 5.0000000000, 0.1568703330
          60, 0.00000000e+00, 0.00000000e+00, 0.00000000e+00, 0.00000000e+00, 0.00000000e+00, 0.00000000e+00, 0.00000000e+00, 0.00000000e+00, 0.00000000e+00, 0.00000000e+00, 0.00000000e+00, 0.00000000e+00, -3.86222037e+00, -9.30778445e-01, -1.68958435e-01, 1.60970861e+00, 0.00000000e+00, 5.0000000000, 5.0000000000, 0.1596500646
          61, 0.00000000e+00, 0.00000000e+00, 0.00000000e+00, 0.00000000e+00, 0.00000000e+00, 0.00000000e+00, 0.00000000e+00, 0.00000000e+00, 0.00000000e+00, 0.00000000e+00, 0.00000000e+00, 0.00000000e+00, -3.92914356e+00, -9.30582466e-01, -1.67639354e-01, 1.54600917e+00, 0.00000000e+00, 5.0000000000, 5.0000000000, 0.1627098190
          62, 0.00000000e+00, 0.00000000e+00, 0.00000000e+00, 0.00000000e+00, 0.00000000e+00, 0.00000000e+00, 0.00000000e+00, 0.00000000e+00, 0.00000000e+00, 0.00000000e+00, 0.00000000e+00, 0.00000000e+00, -4.00466639e+00, -9.30795569e-01, -1.66395219e-01, 1.47418124e+00, 0.00000000e+00, 5.0000000000, 5.0000000000, 0.1666818884
          63, 0.00000000e+00, 0.00000000e+00, 0.00000000e+00, 0.00000000e+00, 0.00000000e+00, 0.00000000e+00, 0.00000000e+00, 0.00000000e+00, 0.00000000e+00, 0.00000000e+00, 0.00000000e+00, 0.00000000e+00, -4.08966750e+00, -9.31612926e-01, -1.65222624e-01, 1.39303224e+00, 0.00000000e+00, 5.0000000000, 5.0000000000, 0.1707579085
          64, 0.00000000e+00, 0.00000000e+00, 0.00000000e+00, 0.00000000e+00, 0.00000000e+00, 0.00000000e+00, 0.00000000e+00, 0.00000000e+00, 0.00000000e+00, 0.00000000e+00, 0.00000000e+00, 0.00000000e+00, -4.18251908e+00, -9.33214948e-01, -1.64118003e-01, 1.30285487e+00, 0.00000000e+00, 5.0000000000, 5.0000000000, 0.1747277761
          65, 0.00000000e+00, 0.00000000e+00, 0.00000000e+00, 0.00000000e+00, 0.00000000e+00, 0.00000000e+00, 0.00000000e+00, 0.00000000e+00, 0.00000000e+00, 0.00000000e+00, 0.00000000e+00, 0.00000000e+00, -4.27286811e+00, -9.35754475e-01, -1.63077676e-01, 1.20983156e+00, 0.00000000e+00, 5.0000000000, 5.0000000000, 0.1775311404
          66, 0.00000000e+00, 0.00000000e+00, 0.00000000e+00, 0.00000000e+00, 0.00000000e+00, 0.00000000e+00, 0.00000000e+00, 0.00000000e+00, 0.00000000e+00, 0.00000000e+00, 0.00000000e+00, 0.00000000e+00, -4.33142263e+00, -9.39349401e-01, -1.62097906e-01, 1.13596492e+00, 0.00000000e+00, 5.0000000000, 5.0000000000, 0.1803449152
          67, 0.00000000e+00, 0.00000000e+00, 0.00000000e+00, 0.00000000e+00, 0.00000000e+00, 0.00000000e+00, 0.00000000e+00, 0.00000000e+00, 0.00000000e+00, 0.00000000e+00, 0.00000000e+00, 0.00000000e+00, -4.32354327e+00, -9.44079931e-01, -1.61174949e-01, 1.11933666e+00, 0.00000000e+00, 5.0000000000, 5.0000000000, 0.1831672636
          68, 0.00000000e+00, 0.00000000e+00, 0.00000000e+00, 0.00000000e+00, 0.00000000e+00, 0.00000000e+00, 0.00000000e+00, 0.00000000e+00, 0.00000000e+00, 0.00000000e+00, 0.00000000e+00, 0.00000000e+00, -4.25875906e+00, -9.49989241e-01, -1.60305112e-01, 1.16929321e+00, 0.00000000e+00, 5.0000000000, 5.0000000000, 0.1859539641
          69, 0.00000000e+00, 0.00000000e+00, 0.00000000e+00, 0.00000000e+00, 0.00000000e+00, 0.00000000e+00, 0.00000000e+00, 0.00000000e+00, 0.00000000e+00, 0.00000000e+00, 0.00000000e+00, 0.00000000e+00, -4.17504380e+00, -9.57086660e-01, -1.59484878e-01, 1.25076775e+00, 0.00000000e+00, 5.0000000000, 5.0000000000, 0.1887434969
          70, 0.00000000e+00, 0.00000000e+00, 0.00000000e+00, 0.00000000e+00, 0.00000000e+00, 0.00000000e+00, 0.00000000e+00, 0.00000000e+00, 0.00000000e+00, 0.00000000e+00, 0.00000000e+00, 0.00000000e+00, -4.09442136e+00, -9.65351829e-01, -1.58710953e-01, 1.33428472e+00, 0.00000000e+00, 5.0000000000, 5.0000000000, 0.1916628648
          71, 0.00000000e+00, 0.00000000e+00, 0.00000000e+00, 0.00000000e+00, 0.00000000e+00, 0.00000000e+00, 0.00000000e+00, 0.00000000e+00, 0.00000000e+00, 0.00000000e+00, 0.00000000e+00, 0.00000000e+00, -4.02318081e+00, -9.74738732e-01, -1.57980296e-01, 1.40944474e+00, 0.00000000e+00, 5.0000000000, 5.0000000000, 0.1953689340
          72, 0.00000000e+00, 0.00000000e+00, 0.00000000e+00, 0.00000000e+00, 0.00000000e+00, 0.00000000e+00, 0.00000000e+00, 0.00000000e+00, 0.00000000e+00, 0.00000000e+00, 0.00000000e+00, 0.00000000e+00, -3.96170944e+00, -9.85179797e-01, -1.57290134e-01, 1.47459825e+00, 0.00000000e+00, 5.0000000000, 5.0000000000, 0.1987279899
          73, 0.00000000e+00, 0.00000000e+00, 0.00000000e+00, 0.00000000e+00, 0.00000000e+00, 0.00000000e+00, 0.00000000e+00, 0.00000000e+00, 0.00000000e+00, 0.00000000e+00, 0.00000000e+00, 0.00000000e+00, -3.90886717e+00, -9.96590020e-01, -1.56637980e-01, 1.53062446e+00, 0.00000000e+00, 5.0000000000, 5.0000000000, 0.2017018435
          74, 0.00000000e+00, 0.00000000e+00, 0.00000000e+00, 0.00000000e+00, 0.00000000e+00, 0.00000000e+00, 0.00000000e+00, 0.00000000e+00, 0.00000000e+00, 0.00000000e+00, 0.00000000e+00, 0.00000000e+00, -3.86332441e+00, -1.00887113e+00, -1.56021631e-01, 1.57887005e+00, 0.00000000e+00, 5.0000000000, 5.0000000000, 0.2047081545
          75, 0.00000000e+00, 0.00000000e+00, 0.00000000e+00, 0.00000000e+00, 0.00000000e+00, 0.00000000e+00, 0.00000000e+00, 0.00000000e+00, 0.00000000e+00, 0.00000000e+00, 0.00000000e+00, 0.00000000e+00, -3.82390096e+00, -1.02191599e+00, -1.55439132e-01, 1.62059232e+00, 0.00000000e+00, 5.0000000000, 5.0000000000, 0.2076502330
          76, 0.00000000e+00, 0.00000000e+00, 0.00000000e+00, 0.00000000e+00, 0.00000000e+00, 0.00000000e+00, 0.00000000e+00, 0.00000000e+00, 0.00000000e+00, 0.00000000e+00, 0.00000000e+00, 0.00000000e+00, -3.78961709e+00, -1.03561343e+00, -1.54888779e-01, 1.65684853e+00, 0.00000000e+00, 5.0000000000, 5.0000000000, 0.2106894751
          77, 0.00000000e+00, 0.00000000e+00, 0.00000000e+00, 0.00000000e+00, 0.00000000e+00, 0.00000000e+00, 0.00000000e+00, 0.00000000e+00, 0.00000000e+00, 0.00000000e+00, 0.00000000e+00, 0.00000000e+00, -3.75967065e+00, -1.04985372e+00, -1.54369065e-01, 1.68850531e+00, 0.00000000e+00, 5.0000000000, 5.0000000000, 0.2136300280
          78, 0.00000000e+00, 0.00000000e+00, 0.00000000e+00, 0.00000000e+00, 0.00000000e+00, 0.00000000e+00, 0.00000000e+00, 0.00000000e+00, 0.00000000e+00, 0.00000000e+00, 0.00000000e+00, 0.00000000e+00, -3.73340195e+00, -1.06453460e+00, -1.53878654e-01, 1.71627321e+00, 0.00000000e+00, 5.0000000000, 5.0000000000, 0.2165172219
          79, 0.00000000e+00, 0.00000000e+00, 0.00000000e+00, 0.00000000e+00, 0.00000000e+00, 0.00000000e+00, 0.00000000e+00, 0.00000000e+00, 0.00000000e+00, 0.00000000e+00, 0.00000000e+00, 0.00000000e+00, -3.71026252e+00, -1.07956772e+00, -1.53416353e-01, 1.74074021e+00, 0.00000000e+00, 5.0000000000, 5.0000000000, 0.2196480285
          80, 0.00000000e+00, 0.00000000e+00, 0.00000000e+00, 0.00000000e+00, 0.00000000e+00, 0.00000000e+00, 0.00000000e+00, 0.00000000e+00, 0.00000000e+00, 0.00000000e+00, 0.00000000e+00, 0.00000000e+00, -3.68979117e+00, -1.09488496e+00, -1.52981087e-01, 1.76239828e+00, 0.00000000e+00, 5.0000000000, 5.0000000000, 0.2229884360
          81, 0.00000000e+00, 0.00000000e+00, 0.00000000e+00, 0.00000000e+00, 0.00000000e+00, 0.00000000e+00, 0.00000000e+00, 0.00000000e+00, 0.00000000e+00, 0.00000000e+00, 0.00000000e+00, 0.00000000e+00, -3.67159659e+00, -1.11044392e+00, -1.52571876e-01, 1.78166290e+00, 0.00000000e+00, 5.0000000000, 5.0000000000, 0.2259152437
          82, 0.00000000e+00, 0.00000000e+00, 0.00000000e+00, 0.00000000e+00, 0.00000000e+00, 0.00000000e+00, 0.00000000e+00, 0.00000000e+00, 0.00000000e+00, 0.00000000e+00, 0.00000000e+00, 0.00000000e+00, -3.65534544e+00, -1.12623184e+00, -1.52187818e-01, 1.79888663e+00, 0.00000000e+00, 5.0000000000, 5.0000000000, 0.2287183257
          83, 0.00000000e+00, 0.00000000e+00, 0.00000000e+00, 0.00000000e+00, 0.00000000e+00, 0.00000000e+00, 0.00000000e+00, 0.00000000e+00, 0.00000000e+00, 0.00000000e+00, 0.00000000e+00, 0.00000000e+00, -3.64075434e+00, -1.14226698e+00, -1.51828076e-01, 1.81436822e+00, 0.00000000e+00, 5.0000000000, 5.0000000000, 0.2315258337
          84, 0.00000000e+00, 0.00000000e+00, 0.00000000e+00, 0.00000000e+00, 0.00000000e+00, 0.00000000e+00, 0.00000000e+00, 0.00000000e+00, 0.00000000e+00, 0.00000000e+00, 0.00000000e+00, 0.00000000e+00, -3.62758486e+00, -1.15859699e+00, -1.51491866e-01, 1.82835861e+00, 0.00000000e+00, 5.0000000000, 5.0000000000, 0.2343173773
          85, 0.00000000e+00, 0.00000000e+00, 0.00000000e+00, 0.00000000e+00, 0.00000000e+00, 0.00000000e+00, 0.00000000e+00, 0.00000000e+00, 0.00000000e+00, 0.00000000e+00, 0.00000000e+00, 0.00000000e+00, -3.61564013e+00, -1.17529384e+00, -1.51178453e-01, 1.84106484e+00, 0.00000000e+00, 5.0000000000, 5.0000000000, 0.2371622685
          86, 0.00000000e+00, 0.00000000e+00, 0.00000000e+00, 0.00000000e+00, 0.00000000e+00, 0.00000000e+00, 0.00000000e+00, 0.00000000e+00, 0.00000000e+00, 0.00000000e+00, 0.00000000e+00, 0.00000000e+00, -3.60476247e+00, -1.19244535e+00, -1.50887146e-01, 1.85265306e+00, 0.00000000e+00, 5.0000000000, 5.0000000000, 0.2399780261
          87, 0.00000000e+00, 0.00000000e+00, 0.00000000e+00, 0.00000000e+00, 0.00000000e+00, 0.00000000e+00, 0.00000000e+00, 0.00000000e+00, 0.00000000e+00, 0.00000000e+00, 0.00000000e+00, 0.00000000e+00, -3.59483109e+00, -1.21014363e+00, -1.50617291e-01, 1.86325110e+00, 0.00000000e+00, 5.0000000000, 5.0000000000, 0.2430817999
          88, 0.00000000e+00, 0.00000000e+00, 0.00000000e+00, 0.00000000e+00, 0.00000000e+00, 0.00000000e+00, 0.00000000e+00, 0.00000000e+00, 0.00000000e+00, 0.00000000e+00, 0.00000000e+00, 0.00000000e+00, -3.58575951e+00, -1.22847071e+00, -1.50368271e-01, 1.87295147e+00, 0.00000000e+00, 5.0000000000, 5.0000000000, 0.2474187668
          89, 0.00000000e+00, 0.00000000e+00, 0.00000000e+00, 0.00000000e+00, 0.00000000e+00, 0.00000000e+00, 0.00000000e+00, 0.00000000e+00, 0.00000000e+00, 0.00000000e+00, 0.00000000e+00, 0.00000000e+00, -3.57749221e+00, -1.24748191e+00, -1.50139505e-01, 1.88181494e+00, 0.00000000e+00, 5.0000000000, 5.0000000000, 0.2502088555