TITLE = "Visualization of the volumetric solution"
VARIABLES = "x","y","Density","Momentum_x","Momentum_y","Energy","Pressure","Temperature","Mach","C<sub>p</sub>","Roe_Dissipation"
ZONE NODES= 6743, ELEMENTS= 13187, DATAPACKING=POINT, ZONETYPE=FEQUADRILATERAL
-1.961125e+00	-1.189468e+00	1.225130e+00	4.155041e+01	1.882578e-03	2.540287e+05	1.013296e+05	2.881276e+02	9.966714e-02	-7.047631e+00	0.000000e+00	
-2.000000e+00	-1.190207e+00	1.225130e+00	4.155037e+01	5.373030e-06	2.540288e+05	1.013297e+05	2.881276e+02	9.966701e-02	-7.047600e+00	0.000000e+00	
-1.904353e+00	-1.197144e+00	1.225130e+00	4.155061e+01	4.724021e-03	2.540287e+05	1.013297e+05	2.881276e+02	9.966761e-02	-7.047630e+00	0.000000e+00	
-2.000000e+00	-1.130414e+00	1.225129e+00	4.155273e+01	5.774790e-06	2.540286e+05	1.013296e+05	2.881275e+02	9.967276e-02	-7.047731e+00	0.000000e+00	
-1.933068e+00	-1.138172e+00	1.225129e+00	4.155290e+01	2.666165e-03	2.540286e+05	1.013296e+05	2.881275e+02	9.967316e-02	-7.047727e+00	0.000000e+00	
-1.841189e+00	-1.200236e+00	1.225129e+00	4.155173e+01	8.025992e-03	2.540287e+05	1.013296e+05	2.881275e+02	9.967033e-02	-7.047671e+00	0.000000e+00	
-1.866023e+00	-1.142297e+00	1.225129e+00	4.155387e+01	5.454620e-03	2.540286e+05	1.013295e+05	2.881275e+02	9.967552e-02	-7.047770e+00	0.000000e+00	
-1.953471e+00	-1.080792e+00	1.225129e+00	4.155466e+01	1.367723e-03	2.540285e+05	1.013295e+05	2.881275e+02	9.967744e-02	-7.047816e+00	0.000000e+00	
-1.890648e+00	-1.085488e+00	1.225128e+00	4.155541e+01	3.354581e-03	2.540285e+05	1.013295e+05	2.881274e+02	9.967926e-02	-7.047843e+00	0.000000e+00	
-2.000000e+00	-1.070622e+00	1.225129e+00	4.155479e+01	-2.262542e-05	2.540285e+05	1.013295e+05	2.881275e+02	9.967774e-02	-7.047804e+00	0.000000e+00	
-1.800157e+00	-1.145143e+00	1.225128e+00	4.155562e+01	8.383855e-03	2.540285e+05	1.013295e+05	2.881274e+02	9.967978e-02	-7.047852e+00	0.000000e+00	
-1.774776e+00	-1.201648e+00	1.225129e+00	4.155371e+01	1.170232e-02	2.540286e+05	1.013296e+05	2.881275e+02	9.967515e-02	-7.047759e+00	0.000000e+00	
-1.827357e+00	-1.089229e+00	1.225128e+00	4.155692e+01	5.468832e-03	2.540284e+05	1.013294e+05	2.881274e+02	9.968292e-02	-7.047910e+00	0.000000e+00	
-1.913843e+00	-1.027002e+00	1.225128e+00	4.155642e+01	1.683289e-03	2.540284e+05	1.013294e+05	2.881274e+02	9.968172e-02	-7.047899e+00	0.000000e+00	
-1.968665e+00	-1.016758e+00	1.225128e+00	4.155601e+01	5.624898e-04	2.540284e+05	1.013295e+05	2.881274e+02	9.968074e-02	-7.047889e+00	0.000000e+00	
-1.852781e+00	-1.033625e+00	1.225128e+00	4.155767e+01	3.086423e-03	2.540284e+05	1.013294e+05	2.881274e+02	9.968475e-02	-7.047947e+00	0.000000e+00	
-2.000000e+00	-1.010829e+00	1.225128e+00	4.155611e+01	1.436102e-06	2.540285e+05	1.013295e+05	2.881274e+02	9.968095e-02	-7.047858e+00	0.000000e+00	
-1.728238e+00	-1.146823e+00	1.225127e+00	4.155850e+01	1.192946e-02	2.540284e+05	1.013294e+05	2.881274e+02	9.968677e-02	-7.047976e+00	0.000000e+00	
-1.763216e+00	-1.091823e+00	1.225127e+00	4.155925e+01	7.817380e-03	2.540283e+05	1.013294e+05	2.881273e+02	9.968860e-02	-7.048012e+00	0.000000e+00	
-1.695809e+00	-1.205562e+00	1.225128e+00	4.155690e+01	1.674845e-02	2.540285e+05	1.013295e+05	2.881274e+02	9.968288e-02	-7.047884e+00	0.000000e+00	
-1.791977e+00	-1.037972e+00	1.225127e+00	4.155969e+01	4.624529e-03	2.540283e+05	1.013293e+05	2.881273e+02	9.968965e-02	-7.048034e+00	0.000000e+00	
-1.939591e+00	-9.690261e-01	1.225128e+00	4.155689e+01	5.018985e-04	2.540284e+05	1.013294e+05	2.881274e+02	9.968286e-02	-7.047915e+00	0.000000e+00	
-1.878919e+00	-9.774672e-01	1.225128e+00	4.155789e+01	1.186141e-03	2.540284e+05	1.013294e+05	2.881274e+02	9.968528e-02	-7.047955e+00	0.000000e+00	
-2.000000e+00	-9.510362e-01	1.225128e+00	4.155661e+01	-4.514808e-07	2.540284e+05	1.013294e+05	2.881274e+02	9.968219e-02	-7.047906e+00	0.000000e+00	
-1.817622e+00	-9.838783e-01	1.225127e+00	4.155968e+01	2.037052e-03	2.540283e+05	1.013293e+05	2.881273e+02	9.968963e-02	-7.048033e+00	0.000000e+00	
-1.659149e+00	-1.145139e+00	1.225126e+00	4.156251e+01	1.560554e-02	2.540281e+05	1.013293e+05	2.881273e+02	9.969651e-02	-7.048158e+00	0.000000e+00	
-1.700942e+00	-1.091624e+00	1.225126e+00	4.156249e+01	1.021851e-02	2.540282e+05	1.013293e+05	2.881273e+02	9.969644e-02	-7.048153e+00	0.000000e+00	
-1.733083e+00	-1.041058e+00	1.225126e+00	4.156240e+01	6.284150e-03	2.540282e+05	1.013293e+05	2.881273e+02	9.969623e-02	-7.048152e+00	0.000000e+00	
-1.757970e+00	-9.888721e-01	1.225126e+00	4.156221e+01	3.045008e-03	2.540282e+05	1.013293e+05	2.881273e+02	9.969576e-02	-7.048144e+00	0.000000e+00	
-1.959242e+00	-9.201960e-01	1.225128e+00	4.155682e+01	-4.657253e-05	2.540284e+05	1.013294e+05	2.881274e+02	9.968270e-02	-7.047915e+00	0.000000e+00	
-1.906244e+00	-9.229643e-01	1.225128e+00	4.155753e+01	-8.275715e-05	2.540284e+05	1.013294e+05	2.881274e+02	9.968442e-02	-7.047942e+00	0.000000e+00	
-1.844337e+00	-9.290459e-01	1.225127e+00	4.155909e+01	-1.660689e-07	2.540283e+05	1.013294e+05	2.881273e+02	9.968820e-02	-7.048005e+00	0.000000e+00	
-1.636494e+00	-1.204386e+00	1.225127e+00	4.156027e+01	2.085300e-02	2.540283e+05	1.013294e+05	2.881273e+02	9.969105e-02	-7.048030e+00	0.000000e+00	
-1.782892e+00	-9.352312e-01	1.225127e+00	4.156145e+01	2.745553e-04	2.540282e+05	1.013293e+05	2.881273e+02	9.969393e-02	-7.048110e+00	0.000000e+00	
-2.000000e+00	-8.912434e-01	1.225128e+00	4.155643e+01	-1.843954e-05	2.540284e+05	1.013294e+05	2.881274e+02	9.968176e-02	-7.047913e+00	0.000000e+00	
-1.591811e+00	-1.175424e+00	1.225126e+00	4.156541e+01	2.203822e-02	2.540280e+05	1.013292e+05	2.881272e+02	9.970353e-02	-7.048273e+00	0.000000e+00	
-1.644506e+00	-1.071583e+00	1.225125e+00	4.156708e+01	1.114752e-02	2.540279e+05	1.013291e+05	2.881271e+02	9.970760e-02	-7.048367e+00	0.000000e+00	
-1.684652e+00	-1.040846e+00	1.225126e+00	4.156530e+01	7.591170e-03	2.540280e+05	1.013292e+05	2.881272e+02	9.970326e-02	-7.048278e+00	0.000000e+00	
-1.699095e+00	-9.943783e-01	1.225125e+00	4.156546e+01	4.286471e-03	2.540280e+05	1.013292e+05	2.881272e+02	9.970366e-02	-7.048290e+00	0.000000e+00	
-1.722632e+00	-9.413411e-01	1.225126e+00	4.156460e+01	7.613755e-04	2.540280e+05	1.013292e+05	2.881272e+02	9.970156e-02	-7.048250e+00	0.000000e+00	
-1.944951e+00	-8.665956e-01	1.225128e+00	4.155650e+01	-6.654368e-04	2.540284e+05	1.013294e+05	2.881274e+02	9.968192e-02	-7.047901e+00	0.000000e+00	
-1.872771e+00	-8.741567e-01	1.225128e+00	4.155794e+01	-1.396085e-03	2.540284e+05	1.013294e+05	2.881274e+02	9.968540e-02	-7.047951e+00	0.000000e+00	
-1.809383e+00	-8.803617e-01	1.225127e+00	4.156008e+01	-1.926458e-03	2.540283e+05	1.013293e+05	2.881273e+02	9.969059e-02	-7.048047e+00	0.000000e+00	
-1.596188e+00	-1.106316e+00	1.225124e+00	4.156930e+01	1.620294e-02	2.540278e+05	1.013290e+05	2.881271e+02	9.971298e-02	-7.048454e+00	0.000000e+00	
-1.748120e+00	-8.867487e-01	1.225126e+00	4.156298e+01	-2.263389e-03	2.540281e+05	1.013292e+05	2.881272e+02	9.969764e-02	-7.048176e+00	0.000000e+00	
-2.000000e+00	-8.314506e-01	1.225128e+00	4.155559e+01	-6.321483e-05	2.540284e+05	1.013295e+05	2.881274e+02	9.967971e-02	-7.047872e+00	0.000000e+00	
-1.544157e+00	-1.134843e+00	1.225123e+00	4.157223e+01	2.184282e-02	2.540277e+05	1.013289e+05	2.881270e+02	9.972011e-02	-7.048600e+00	0.000000e+00	
-1.535731e+00	-1.197890e+00	1.225125e+00	4.156821e+01	2.813933e-02	2.540279e+05	1.013291e+05	2.881271e+02	9.971034e-02	-7.048413e+00	0.000000e+00	
-1.645960e+00	-1.006094e+00	1.225124e+00	4.156895e+01	6.095834e-03	2.540278e+05	1.013290e+05	2.881271e+02	9.971213e-02	-7.048440e+00	0.000000e+00	
-1.549919e+00	-1.082584e+00	1.225123e+00	4.157481e+01	1.642987e-02	2.540275e+05	1.013288e+05	2.881269e+02	9.972635e-02	-7.048715e+00	0.000000e+00	
-1.585795e+00	-1.038005e+00	1.225123e+00	4.157323e+01	1.058505e-02	2.540276e+05	1.013289e+05	2.881270e+02	9.972251e-02	-7.048638e+00	0.000000e+00	
-1.660435e+00	-9.499429e-01	1.225124e+00	4.156873e+01	1.630026e-03	2.540278e+05	1.013290e+05	2.881271e+02	9.971159e-02	-7.048442e+00	0.000000e+00	
-1.687723e+00	-8.933846e-01	1.225125e+00	4.156673e+01	-2.399276e-03	2.540279e+05	1.013291e+05	2.881271e+02	9.970672e-02	-7.048342e+00	0.000000e+00	
-1.957198e+00	-8.104684e-01	1.225128e+00	4.155531e+01	-1.003028e-03	2.540285e+05	1.013295e+05	2.881274e+02	9.967904e-02	-7.047857e+00	0.000000e+00	
-1.899741e+00	-8.196306e-01	1.225128e+00	4.155637e+01	-2.198683e-03	2.540284e+05	1.013295e+05	2.881274e+02	9.968159e-02	-7.047890e+00	0.000000e+00	
-1.834947e+00	-8.257164e-01	1.225128e+00	4.155825e+01	-3.489679e-03	2.540284e+05	1.013294e+05	2.881274e+02	9.968616e-02	-7.047965e+00	0.000000e+00	
-1.773783e+00	-8.316796e-01	1.225127e+00	4.156083e+01	-4.613375e-03	2.540282e+05	1.013293e+05	2.881273e+02	9.969241e-02	-7.048078e+00	0.000000e+00	
-1.714222e+00	-8.378645e-01	1.225126e+00	4.156415e+01	-5.581911e-03	2.540281e+05	1.013292e+05	2.881272e+02	9.970046e-02	-7.048228e+00	0.000000e+00	
-2.000000e+00	-7.716579e-01	1.225129e+00	4.155398e+01	-4.446317e-05	2.540285e+05	1.013295e+05	2.881275e+02	9.967582e-02	-7.047807e+00	0.000000e+00	
-1.489221e+00	-1.150851e+00	1.225122e+00	4.157655e+01	2.743200e-02	2.540274e+05	1.013288e+05	2.881269e+02	9.973060e-02	-7.048792e+00	0.000000e+00	
-1.500113e+00	-1.094399e+00	1.225121e+00	4.157942e+01	2.042659e-02	2.540273e+05	1.013287e+05	2.881268e+02	9.973754e-02	-7.048918e+00	0.000000e+00	
-1.479291e+00	-1.206090e+00	1.225123e+00	4.157276e+01	3.409727e-02	2.540277e+05	1.013289e+05	2.881270e+02	9.972139e-02	-7.048605e+00	0.000000e+00	
-1.599325e+00	-9.562953e-01	1.225123e+00	4.157378e+01	2.653937e-03	2.540276e+05	1.013289e+05	2.881269e+02	9.972385e-02	-7.048658e+00	0.000000e+00	
-1.517588e+00	-1.042830e+00	1.225121e+00	4.158008e+01	1.369458e-02	2.540273e+05	1.013287e+05	2.881268e+02	9.973913e-02	-7.048938e+00	0.000000e+00	
-1.627745e+00	-9.018224e-01	1.225124e+00	4.157136e+01	-2.244601e-03	2.540277e+05	1.013290e+05	2.881270e+02	9.971798e-02	-7.048551e+00	0.000000e+00	
-1.656908e+00	-8.432652e-01	1.225125e+00	4.156816e+01	-6.479476e-03	2.540279e+05	1.013291e+05	2.881271e+02	9.971021e-02	-7.048408e+00	0.000000e+00	
-1.929948e+00	-7.683511e-01	1.225129e+00	4.155448e+01	-2.256940e-03	2.540285e+05	1.013295e+05	2.881275e+02	9.967701e-02	-7.047799e+00	0.000000e+00	
-1.860562e+00	-7.720379e-01	1.225128e+00	4.155601e+01	-4.404215e-03	2.540285e+05	1.013295e+05	2.881274e+02	9.968073e-02	-7.047863e+00	0.000000e+00	
-1.797255e+00	-7.765169e-01	1.225128e+00	4.155827e+01	-6.350426e-03	2.540284e+05	1.013294e+05	2.881274e+02	9.968620e-02	-7.047963e+00	0.000000e+00	
-1.739137e+00	-7.832583e-01	1.225127e+00	4.156118e+01	-7.979637e-03	2.540282e+05	1.013293e+05	2.881273e+02	9.969327e-02	-7.048097e+00	0.000000e+00	
-1.536399e+00	-9.870292e-01	1.225121e+00	4.157969e+01	6.804053e-03	2.540273e+05	1.013287e+05	2.881268e+02	9.973819e-02	-7.048940e+00	0.000000e+00	
-1.684095e+00	-7.888793e-01	1.225126e+00	4.156463e+01	-9.545747e-03	2.540280e+05	1.013292e+05	2.881272e+02	9.970163e-02	-7.048250e+00	0.000000e+00	
-1.951720e+00	-7.185626e-01	1.225129e+00	4.155244e+01	-2.034551e-03	2.540286e+05	1.013296e+05	2.881275e+02	9.967207e-02	-7.047725e+00	0.000000e+00	
-1.430705e+00	-1.164503e+00	1.225121e+00	4.158215e+01	3.420154e-02	2.540272e+05	1.013286e+05	2.881267e+02	9.974418e-02	-7.049030e+00	0.000000e+00	
-1.443700e+00	-1.107377e+00	1.225120e+00	4.158537e+01	2.580407e-02	2.540270e+05	1.013285e+05	2.881266e+02	9.975199e-02	-7.049188e+00	0.000000e+00	
-1.459537e+00	-1.053190e+00	1.225119e+00	4.158673e+01	1.768066e-02	2.540269e+05	1.013284e+05	2.881266e+02	9.975528e-02	-7.049248e+00	0.000000e+00	
-1.423620e+00	-1.214046e+00	1.225122e+00	4.157797e+01	4.085590e-02	2.540274e+05	1.013287e+05	2.881268e+02	9.973406e-02	-7.048843e+00	0.000000e+00	
-1.544623e+00	-9.351310e-01	1.225121e+00	4.157954e+01	9.142560e-04	2.540273e+05	1.013287e+05	2.881268e+02	9.973782e-02	-7.048908e+00	0.000000e+00	
-1.476830e+00	-9.995200e-01	1.225119e+00	4.158659e+01	9.868383e-03	2.540269e+05	1.013284e+05	2.881266e+02	9.975494e-02	-7.049245e+00	0.000000e+00	
-1.572667e+00	-8.995764e-01	1.225122e+00	4.157647e+01	-2.830184e-03	2.540274e+05	1.013288e+05	2.881269e+02	9.973037e-02	-7.048787e+00	0.000000e+00	
-1.597816e+00	-8.459477e-01	1.225123e+00	4.157317e+01	-7.647747e-03	2.540276e+05	1.013289e+05	2.881270e+02	9.972236e-02	-7.048636e+00	0.000000e+00	
-1.626052e+00	-7.906785e-01	1.225124e+00	4.156900e+01	-1.158100e-02	2.540278e+05	1.013290e+05	2.881271e+02	9.971224e-02	-7.048448e+00	0.000000e+00	
-1.885634e+00	-7.191223e-01	1.225129e+00	4.155341e+01	-4.718893e-03	2.540286e+05	1.013296e+05	2.881275e+02	9.967440e-02	-7.047755e+00	0.000000e+00	
-2.000000e+00	-7.118651e-01	1.225129e+00	4.155206e+01	-4.527847e-05	2.540287e+05	1.013296e+05	2.881275e+02	9.967113e-02	-7.047680e+00	0.000000e+00	
-1.819616e+00	-7.225085e-01	1.225128e+00	4.155531e+01	-7.444701e-03	2.540285e+05	1.013295e+05	2.881274e+02	9.967902e-02	-7.047835e+00	0.000000e+00	
-1.756887e+00	-7.245451e-01	1.225128e+00	4.155787e+01	-1.016050e-02	2.540284e+05	1.013294e+05	2.881274e+02	9.968523e-02	-7.047943e+00	0.000000e+00	
-1.710758e+00	-7.404513e-01	1.225127e+00	4.156098e+01	-1.144129e-02	2.540282e+05	1.013293e+05	2.881273e+02	9.969278e-02	-7.048092e+00	0.000000e+00	
-1.494176e+00	-9.449553e-01	1.225120e+00	4.158548e+01	2.409741e-03	2.540270e+05	1.013285e+05	2.881266e+02	9.975224e-02	-7.049190e+00	0.000000e+00	
-1.657606e+00	-7.357055e-01	1.225126e+00	4.156409e+01	-1.433253e-02	2.540281e+05	1.013292e+05	2.881272e+02	9.970034e-02	-7.048229e+00	0.000000e+00	
-1.909603e+00	-6.642191e-01	1.225130e+00	4.155048e+01	-4.563195e-03	2.540287e+05	1.013297e+05	2.881276e+02	9.966732e-02	-7.047628e+00	0.000000e+00	
-1.967477e+00	-6.562155e-01	1.225130e+00	4.154959e+01	-1.654276e-03	2.540288e+05	1.013297e+05	2.881276e+02	9.966514e-02	-7.047592e+00	0.000000e+00	
-1.370812e+00	-1.191937e+00	1.225119e+00	4.158713e+01	4.424867e-02	2.540269e+05	1.013284e+05	2.881266e+02	9.975629e-02	-7.049257e+00	0.000000e+00	
-1.385163e+00	-1.123323e+00	1.225118e+00	4.159222e+01	3.285316e-02	2.540267e+05	1.013283e+05	2.881264e+02	9.976865e-02	-7.049500e+00	0.000000e+00	
-1.401568e+00	-1.064974e+00	1.225117e+00	4.159431e+01	2.273061e-02	2.540266e+05	1.013282e+05	2.881264e+02	9.977369e-02	-7.049588e+00	0.000000e+00	
-1.418743e+00	-1.009685e+00	1.225117e+00	4.159453e+01	1.333415e-02	2.540265e+05	1.013282e+05	2.881264e+02	9.977421e-02	-7.049600e+00	0.000000e+00	
-1.514888e+00	-8.964931e-01	1.225120e+00	4.158288e+01	-3.628290e-03	2.540272e+05	1.013286e+05	2.881267e+02	9.974592e-02	-7.049061e+00	0.000000e+00	
-1.437355e+00	-9.545030e-01	1.225117e+00	4.159324e+01	4.413292e-03	2.540266e+05	1.013282e+05	2.881264e+02	9.977107e-02	-7.049543e+00	0.000000e+00	
-1.539738e+00	-8.468498e-01	1.225121e+00	4.157909e+01	-8.990806e-03	2.540273e+05	1.013287e+05	2.881268e+02	9.973674e-02	-7.048905e+00	0.000000e+00	
-1.565853e+00	-7.937878e-01	1.225123e+00	4.157458e+01	-1.371307e-02	2.540276e+05	1.013289e+05	2.881269e+02	9.972579e-02	-7.048695e+00	0.000000e+00	
-1.593912e+00	-7.389179e-01	1.225124e+00	4.156926e+01	-1.749133e-02	2.540278e+05	1.013290e+05	2.881271e+02	9.971288e-02	-7.048462e+00	0.000000e+00	
-1.845010e+00	-6.691050e-01	1.225129e+00	4.155201e+01	-7.786802e-03	2.540287e+05	1.013296e+05	2.881275e+02	9.967102e-02	-7.047689e+00	0.000000e+00	
-2.000000e+00	-6.520723e-01	1.225130e+00	4.154937e+01	-5.015415e-07	2.540288e+05	1.013297e+05	2.881276e+02	9.966460e-02	-7.047557e+00	0.000000e+00	
-1.776488e+00	-6.729549e-01	1.225129e+00	4.155437e+01	-1.133368e-02	2.540285e+05	1.013295e+05	2.881275e+02	9.967675e-02	-7.047794e+00	0.000000e+00	
-1.708547e+00	-6.722416e-01	1.225128e+00	4.155740e+01	-1.531794e-02	2.540284e+05	1.013294e+05	2.881274e+02	9.968410e-02	-7.047930e+00	0.000000e+00	
-1.458422e+00	-9.019417e-01	1.225118e+00	4.159038e+01	-3.372008e-03	2.540268e+05	1.013283e+05	2.881265e+02	9.976414e-02	-7.049400e+00	0.000000e+00	
-1.624346e+00	-6.805842e-01	1.225126e+00	4.156318e+01	-2.023385e-02	2.540281e+05	1.013292e+05	2.881272e+02	9.969813e-02	-7.048172e+00	0.000000e+00	
-1.872887e+00	-6.148483e-01	1.225130e+00	4.154847e+01	-7.402428e-03	2.540289e+05	1.013297e+05	2.881276e+02	9.966242e-02	-7.047523e+00	0.000000e+00	
-1.937251e+00	-6.076710e-01	1.225131e+00	4.154721e+01	-3.672306e-03	2.540289e+05	1.013298e+05	2.881277e+02	9.965936e-02	-7.047467e+00	0.000000e+00	
-2.000000e+00	-5.922796e-01	1.225131e+00	4.154601e+01	1.875087e-06	2.540290e+05	1.013298e+05	2.881277e+02	9.965646e-02	-7.047420e+00	0.000000e+00	
-1.307334e+00	-1.199021e+00	1.225117e+00	4.159570e+01	5.351102e-02	2.540265e+05	1.013281e+05	2.881263e+02	9.977713e-02	-7.049646e+00	0.000000e+00	
-1.327334e+00	-1.136472e+00	1.225115e+00	4.160011e+01	4.069337e-02	2.540263e+05	1.013280e+05	2.881262e+02	9.978782e-02	-7.049863e+00	0.000000e+00	
-1.343590e+00	-1.076412e+00	1.225115e+00	4.160303e+01	2.875008e-02	2.540261e+05	1.013279e+05	2.881261e+02	9.979486e-02	-7.049988e+00	0.000000e+00	
-1.360836e+00	-1.019422e+00	1.225114e+00	4.160370e+01	1.751637e-02	2.540261e+05	1.013279e+05	2.881261e+02	9.979648e-02	-7.050018e+00	0.000000e+00	
-1.379733e+00	-9.637767e-01	1.225115e+00	4.160242e+01	6.973757e-03	2.540261e+05	1.013279e+05	2.881262e+02	9.979336e-02	-7.049962e+00	0.000000e+00	
-1.481324e+00	-8.499224e-01	1.225119e+00	4.158628e+01	-1.014200e-02	2.540270e+05	1.013285e+05	2.881266e+02	9.975419e-02	-7.049225e+00	0.000000e+00	
-1.400736e+00	-9.095587e-01	1.225116e+00	4.159935e+01	-2.519382e-03	2.540263e+05	1.013280e+05	2.881262e+02	9.978591e-02	-7.049812e+00	0.000000e+00	
-1.506136e+00	-7.974405e-01	1.225121e+00	4.158129e+01	-1.589033e-02	2.540272e+05	1.013286e+05	2.881267e+02	9.974209e-02	-7.049002e+00	0.000000e+00	
-1.531949e+00	-7.436193e-01	1.225123e+00	4.157551e+01	-2.061839e-02	2.540275e+05	1.013288e+05	2.881269e+02	9.972805e-02	-7.048739e+00	0.000000e+00	
-1.558140e+00	-6.877371e-01	1.225124e+00	4.156908e+01	-2.437647e-02	2.540278e+05	1.013290e+05	2.881271e+02	9.971246e-02	-7.048454e+00	0.000000e+00	
-1.808405e+00	-6.213503e-01	1.225130e+00	4.155035e+01	-1.117391e-02	2.540288e+05	1.013297e+05	2.881276e+02	9.966698e-02	-7.047603e+00	0.000000e+00	
-1.752530e+00	-6.288000e-01	1.225129e+00	4.155269e+01	-1.447701e-02	2.540287e+05	1.013296e+05	2.881275e+02	9.967267e-02	-7.047702e+00	0.000000e+00	
-1.646628e+00	-6.195986e-01	1.225128e+00	4.155724e+01	-2.261887e-02	2.540284e+05	1.013294e+05	2.881274e+02	9.968373e-02	-7.047920e+00	0.000000e+00	
-1.423229e+00	-8.557067e-01	1.225117e+00	4.159482e+01	-1.087854e-02	2.540266e+05	1.013282e+05	2.881264e+02	9.977492e-02	-7.049604e+00	0.000000e+00	
-1.582175e+00	-6.318624e-01	1.225126e+00	4.156260e+01	-2.710132e-02	2.540282e+05	1.013293e+05	2.881273e+02	9.969672e-02	-7.048156e+00	0.000000e+00	
-1.902268e+00	-5.604084e-01	1.225132e+00	4.154466e+01	-6.357200e-03	2.540290e+05	1.013299e+05	2.881277e+02	9.965317e-02	-7.047349e+00	0.000000e+00	
-1.836499e+00	-5.660387e-01	1.225131e+00	4.154612e+01	-1.069438e-02	2.540290e+05	1.013298e+05	2.881277e+02	9.965672e-02	-7.047411e+00	0.000000e+00	
-1.958054e+00	-5.594478e-01	1.225132e+00	4.154412e+01	-2.711245e-03	2.540291e+05	1.013299e+05	2.881278e+02	9.965185e-02	-7.047331e+00	0.000000e+00	
-1.708539e+00	-5.866898e-01	1.225130e+00	4.155161e+01	-1.941423e-02	2.540287e+05	1.013296e+05	2.881276e+02	9.967005e-02	-7.047658e+00	0.000000e+00	
-1.246926e+00	-1.202642e+00	1.225114e+00	4.160567e+01	6.329928e-02	2.540260e+05	1.013278e+05	2.881261e+02	9.980135e-02	-7.050090e+00	0.000000e+00	
-1.267381e+00	-1.143077e+00	1.225112e+00	4.161023e+01	4.893962e-02	2.540257e+05	1.013276e+05	2.881259e+02	9.981241e-02	-7.050323e+00	0.000000e+00	
-1.284909e+00	-1.085418e+00	1.225112e+00	4.161332e+01	3.553282e-02	2.540256e+05	1.013275e+05	2.881259e+02	9.981985e-02	-7.050455e+00	0.000000e+00	
-1.301529e+00	-1.027774e+00	1.225111e+00	4.161462e+01	2.242105e-02	2.540255e+05	1.013275e+05	2.881258e+02	9.982299e-02	-7.050517e+00	0.000000e+00	
-1.319809e+00	-9.715500e-01	1.225111e+00	4.161354e+01	1.001407e-02	2.540256e+05	1.013275e+05	2.881259e+02	9.982035e-02	-7.050465e+00	0.000000e+00	
-1.341772e+00	-9.177756e-01	1.225112e+00	4.161002e+01	-1.098161e-03	2.540258e+05	1.013277e+05	2.881260e+02	9.981180e-02	-7.050302e+00	0.000000e+00	
-1.446925e+00	-8.023992e-01	1.225119e+00	4.158930e+01	-1.798914e-02	2.540268e+05	1.013284e+05	2.881265e+02	9.976151e-02	-7.049365e+00	0.000000e+00	
-1.364825e+00	-8.625953e-01	1.225114e+00	4.160493e+01	-1.125724e-02	2.540261e+05	1.013278e+05	2.881261e+02	9.979945e-02	-7.050055e+00	0.000000e+00	
-1.471488e+00	-7.488635e-01	1.225120e+00	4.158292e+01	-2.384902e-02	2.540271e+05	1.013286e+05	2.881267e+02	9.974604e-02	-7.049074e+00	0.000000e+00	
-1.496208e+00	-6.940441e-01	1.225122e+00	4.157585e+01	-2.859669e-02	2.540275e+05	1.013288e+05	2.881269e+02	9.972890e-02	-7.048757e+00	0.000000e+00	
-1.520225e+00	-6.398331e-01	1.225125e+00	4.156857e+01	-3.205986e-02	2.540279e+05	1.013291e+05	2.881271e+02	9.971122e-02	-7.048424e+00	0.000000e+00	
-1.770759e+00	-5.740377e-01	1.225130e+00	4.154838e+01	-1.511907e-02	2.540289e+05	1.013297e+05	2.881276e+02	9.966221e-02	-7.047510e+00	0.000000e+00	
-2.000000e+00	-5.324868e-01	1.225132e+00	4.154220e+01	-4.253690e-06	2.540291e+05	1.013299e+05	2.881278e+02	9.964722e-02	-7.047253e+00	0.000000e+00	
-1.601853e+00	-5.787364e-01	1.225128e+00	4.155651e+01	-2.900344e-02	2.540285e+05	1.013295e+05	2.881274e+02	9.968195e-02	-7.047872e+00	0.000000e+00	
-1.652641e+00	-5.684193e-01	1.225129e+00	4.155273e+01	-2.492595e-02	2.540287e+05	1.013296e+05	2.881275e+02	9.967277e-02	-7.047697e+00	0.000000e+00	
-1.388209e+00	-8.084842e-01	1.225116e+00	4.159875e+01	-1.993110e-02	2.540263e+05	1.013280e+05	2.881263e+02	9.978448e-02	-7.049795e+00	0.000000e+00	
-1.542802e+00	-5.867201e-01	1.225127e+00	4.156140e+01	-3.434467e-02	2.540282e+05	1.013293e+05	2.881273e+02	9.969382e-02	-7.048092e+00	0.000000e+00	
-1.943055e+00	-5.047088e-01	1.225133e+00	4.154047e+01	-4.047996e-03	2.540293e+05	1.013300e+05	2.881279e+02	9.964300e-02	-7.047162e+00	0.000000e+00	
-1.867410e+00	-5.089864e-01	1.225132e+00	4.154155e+01	-9.494510e-03	2.540292e+05	1.013300e+05	2.881278e+02	9.964562e-02	-7.047201e+00	0.000000e+00	
-1.800513e+00	-5.169938e-01	1.225132e+00	4.154337e+01	-1.440225e-02	2.540291e+05	1.013299e+05	2.881278e+02	9.965003e-02	-7.047282e+00	0.000000e+00	
-1.736151e+00	-5.286934e-01	1.225131e+00	4.154603e+01	-1.931517e-02	2.540290e+05	1.013298e+05	2.881277e+02	9.965649e-02	-7.047398e+00	0.000000e+00	
-1.680475e+00	-5.297148e-01	1.225131e+00	4.154806e+01	-2.414817e-02	2.540289e+05	1.013298e+05	2.881277e+02	9.966144e-02	-7.047492e+00	0.000000e+00	
-1.188310e+00	-1.203644e+00	1.225110e+00	4.161724e+01	7.371281e-02	2.540254e+05	1.013274e+05	2.881258e+02	9.982948e-02	-7.050616e+00	0.000000e+00	
-1.208634e+00	-1.148927e+00	1.225109e+00	4.162172e+01	5.827915e-02	2.540252e+05	1.013273e+05	2.881256e+02	9.984032e-02	-7.050846e+00	0.000000e+00	
-1.227152e+00	-1.093053e+00	1.225108e+00	4.162495e+01	4.313947e-02	2.540250e+05	1.013272e+05	2.881255e+02	9.984811e-02	-7.050979e+00	0.000000e+00	
-1.241020e+00	-1.035105e+00	1.225107e+00	4.162748e+01	2.829350e-02	2.540249e+05	1.013271e+05	2.881255e+02	9.985422e-02	-7.051101e+00	0.000000e+00	
-1.259496e+00	-9.792444e-01	1.225108e+00	4.162648e+01	1.392872e-02	2.540249e+05	1.013271e+05	2.881255e+02	9.985176e-02	-7.051051e+00	0.000000e+00	
-1.282960e+00	-9.261505e-01	1.225109e+00	4.162235e+01	1.006691e-03	2.540251e+05	1.013272e+05	2.881256e+02	9.984175e-02	-7.050863e+00	0.000000e+00	
-1.306559e+00	-8.697649e-01	1.225111e+00	4.161669e+01	-1.126664e-02	2.540255e+05	1.013274e+05	2.881258e+02	9.982800e-02	-7.050588e+00	0.000000e+00	
-1.411942e+00	-7.546677e-01	1.225118e+00	4.159167e+01	-2.716718e-02	2.540267e+05	1.013283e+05	2.881265e+02	9.976728e-02	-7.049470e+00	0.000000e+00	
-1.329872e+00	-8.151059e-01	1.225113e+00	4.160982e+01	-2.170384e-02	2.540258e+05	1.013277e+05	2.881260e+02	9.981135e-02	-7.050298e+00	0.000000e+00	
-1.435775e+00	-7.002500e-01	1.225120e+00	4.158383e+01	-3.305963e-02	2.540271e+05	1.013285e+05	2.881267e+02	9.974828e-02	-7.049115e+00	0.000000e+00	
-1.459819e+00	-6.465500e-01	1.225123e+00	4.157555e+01	-3.742411e-02	2.540275e+05	1.013288e+05	2.881269e+02	9.972817e-02	-7.048739e+00	0.000000e+00	
-1.482851e+00	-5.932630e-01	1.225125e+00	4.156724e+01	-4.043909e-02	2.540279e+05	1.013291e+05	2.881271e+02	9.970802e-02	-7.048357e+00	0.000000e+00	
-2.000000e+00	-4.726940e-01	1.225133e+00	4.153800e+01	-2.402143e-05	2.540294e+05	1.013301e+05	2.881279e+02	9.963701e-02	-7.047061e+00	0.000000e+00	
-1.621599e+00	-5.283375e-01	1.225130e+00	4.155052e+01	-2.985437e-02	2.540288e+05	1.013297e+05	2.881276e+02	9.966740e-02	-7.047598e+00	0.000000e+00	
-1.564072e+00	-5.335960e-01	1.225129e+00	4.155421e+01	-3.568962e-02	2.540286e+05	1.013295e+05	2.881275e+02	9.967637e-02	-7.047765e+00	0.000000e+00	
-1.353147e+00	-7.609151e-01	1.225115e+00	4.160193e+01	-3.052371e-02	2.540262e+05	1.013279e+05	2.881262e+02	9.979220e-02	-7.049936e+00	0.000000e+00	
-1.505008e+00	-5.395781e-01	1.225127e+00	4.155890e+01	-4.228971e-02	2.540284e+05	1.013294e+05	2.881274e+02	9.968778e-02	-7.047977e+00	0.000000e+00	
-1.894435e+00	-4.516889e-01	1.225134e+00	4.153692e+01	-8.082164e-03	2.540294e+05	1.013301e+05	2.881280e+02	9.963439e-02	-7.046994e+00	0.000000e+00	
-1.829808e+00	-4.551881e-01	1.225134e+00	4.153792e+01	-1.318139e-02	2.540294e+05	1.013301e+05	2.881279e+02	9.963682e-02	-7.047035e+00	0.000000e+00	
-1.765254e+00	-4.666419e-01	1.225133e+00	4.154000e+01	-1.842277e-02	2.540293e+05	1.013300e+05	2.881279e+02	9.964186e-02	-7.047122e+00	0.000000e+00	
-1.956450e+00	-4.493697e-01	1.225134e+00	4.153639e+01	-3.313572e-03	2.540295e+05	1.013301e+05	2.881280e+02	9.963309e-02	-7.046979e+00	0.000000e+00	
-1.704170e+00	-4.739164e-01	1.225132e+00	4.154214e+01	-2.380088e-02	2.540292e+05	1.013300e+05	2.881278e+02	9.964705e-02	-7.047215e+00	0.000000e+00	
-1.645208e+00	-4.769490e-01	1.225132e+00	4.154429e+01	-2.958253e-02	2.540291e+05	1.013299e+05	2.881278e+02	9.965229e-02	-7.047314e+00	0.000000e+00	
-1.129965e+00	-1.202776e+00	1.225106e+00	4.163077e+01	8.516157e-02	2.540247e+05	1.013270e+05	2.881254e+02	9.986238e-02	-7.051233e+00	0.000000e+00	
-1.151440e+00	-1.153904e+00	1.225105e+00	4.163458e+01	6.876111e-02	2.540245e+05	1.013268e+05	2.881253e+02	9.987155e-02	-7.051424e+00	0.000000e+00	
-1.171426e+00	-1.101395e+00	1.225104e+00	4.163755e+01	5.212465e-02	2.540244e+05	1.013267e+05	2.881252e+02	9.987871e-02	-7.051563e+00	0.000000e+00	
-1.188421e+00	-1.047126e+00	1.225104e+00	4.163959e+01	3.585553e-02	2.540243e+05	1.013267e+05	2.881251e+02	9.988363e-02	-7.051647e+00	0.000000e+00	
-1.196759e+00	-9.892869e-01	1.225103e+00	4.164193e+01	1.956690e-02	2.540241e+05	1.013266e+05	2.881251e+02	9.988927e-02	-7.051757e+00	0.000000e+00	
-1.224905e+00	-9.322330e-01	1.225105e+00	4.163648e+01	3.265682e-03	2.540244e+05	1.013268e+05	2.881252e+02	9.987604e-02	-7.051500e+00	0.000000e+00	
-1.248865e+00	-8.761860e-01	1.225107e+00	4.163022e+01	-1.106786e-02	2.540248e+05	1.013270e+05	2.881254e+02	9.986084e-02	-7.051198e+00	0.000000e+00	
-1.272363e+00	-8.216564e-01	1.225109e+00	4.162257e+01	-2.335588e-02	2.540251e+05	1.013272e+05	2.881256e+02	9.984229e-02	-7.050877e+00	0.000000e+00	
-1.376259e+00	-7.064365e-01	1.225117e+00	4.159321e+01	-3.779662e-02	2.540266e+05	1.013282e+05	2.881264e+02	9.977103e-02	-7.049535e+00	0.000000e+00	
-1.295230e+00	-7.674192e-01	1.225111e+00	4.161383e+01	-3.389667e-02	2.540256e+05	1.013275e+05	2.881258e+02	9.982108e-02	-7.050476e+00	0.000000e+00	
-1.399533e+00	-6.531213e-01	1.225120e+00	4.158392e+01	-4.329260e-02	2.540271e+05	1.013285e+05	2.881267e+02	9.974850e-02	-7.049119e+00	0.000000e+00	
-1.422876e+00	-5.986272e-01	1.225123e+00	4.157417e+01	-4.731020e-02	2.540276e+05	1.013289e+05	2.881269e+02	9.972485e-02	-7.048674e+00	0.000000e+00	
-1.444853e+00	-5.449250e-01	1.225126e+00	4.156460e+01	-4.985840e-02	2.540281e+05	1.013292e+05	2.881272e+02	9.970162e-02	-7.048239e+00	0.000000e+00	
-2.000000e+00	-4.129013e-01	1.225135e+00	4.153358e+01	-2.507755e-05	2.540296e+05	1.013302e+05	2.881280e+02	9.962628e-02	-7.046854e+00	0.000000e+00	
-1.586064e+00	-4.806431e-01	1.225131e+00	4.154705e+01	-3.595385e-02	2.540290e+05	1.013298e+05	2.881277e+02	9.965900e-02	-7.047437e+00	0.000000e+00	
-1.526818e+00	-4.855488e-01	1.225130e+00	4.155060e+01	-4.300733e-02	2.540288e+05	1.013297e+05	2.881276e+02	9.966763e-02	-7.047597e+00	0.000000e+00	
-1.317650e+00	-7.127806e-01	1.225114e+00	4.160415e+01	-4.276838e-02	2.540261e+05	1.013279e+05	2.881261e+02	9.979761e-02	-7.050032e+00	0.000000e+00	
-1.466876e+00	-4.901151e-01	1.225129e+00	4.155494e+01	-5.105065e-02	2.540286e+05	1.013295e+05	2.881275e+02	9.967818e-02	-7.047795e+00	0.000000e+00	
-1.855575e+00	-3.945837e-01	1.225135e+00	4.153269e+01	-1.167144e-02	2.540297e+05	1.013303e+05	2.881281e+02	9.962412e-02	-7.046797e+00	0.000000e+00	
-1.929567e+00	-4.049319e-01	1.225135e+00	4.153314e+01	-5.579423e-03	2.540296e+05	1.013303e+05	2.881281e+02	9.962520e-02	-7.046823e+00	0.000000e+00	
-1.791827e+00	-4.092080e-01	1.225135e+00	4.153453e+01	-1.701859e-02	2.540296e+05	1.013302e+05	2.881280e+02	9.962857e-02	-7.046875e+00	0.000000e+00	
-1.729324e+00	-4.168416e-01	1.225134e+00	4.153614e+01	-2.267539e-02	2.540295e+05	1.013302e+05	2.881280e+02	9.963249e-02	-7.046943e+00	0.000000e+00	
-1.669046e+00	-4.223013e-01	1.225134e+00	4.153790e+01	-2.865442e-02	2.540294e+05	1.013301e+05	2.881279e+02	9.963676e-02	-7.047020e+00	0.000000e+00	
-1.609301e+00	-4.270044e-01	1.225133e+00	4.153997e+01	-3.520951e-02	2.540293e+05	1.013300e+05	2.881279e+02	9.964182e-02	-7.047114e+00	0.000000e+00	
-1.074360e+00	-1.203047e+00	1.225102e+00	4.164511e+01	9.783974e-02	2.540240e+05	1.013265e+05	2.881250e+02	9.989726e-02	-7.051895e+00	0.000000e+00	
-1.096540e+00	-1.158275e+00	1.225101e+00	4.164861e+01	8.032476e-02	2.540238e+05	1.013263e+05	2.881249e+02	9.990566e-02	-7.052063e+00	0.000000e+00	
-1.117763e+00	-1.107610e+00	1.225100e+00	4.165146e+01	6.175843e-02	2.540236e+05	1.013262e+05	2.881248e+02	9.991252e-02	-7.052203e+00	0.000000e+00	
-1.136232e+00	-1.058854e+00	1.225100e+00	4.165295e+01	4.478431e-02	2.540236e+05	1.013262e+05	2.881248e+02	9.991609e-02	-7.052265e+00	0.000000e+00	