VARIABLES = "x"
 "y"
 "Density"
 "Momentum_x"
 "Momentum_y"
 "Energy"
 "Pressure"
 "Temperature"
 "Mach"
 "C<sub>p</sub>"
 "Roe_Dissipation"
ZONE
DT=(DOUBLE,DOUBLE,DOUBLE,DOUBLE,DOUBLE,DOUBLE,DOUBLE,DOUBLE,DOUBLE,DOUBLE,DOUBLE)
                     -2                    -0.6        1.22513089632117        41.5464430009483    1.56821859563031E-06        254028.973772657        101329.784770072        288.127673725657      0.0996575131878099       -7.04743769513067                       0 
      -1.99749874937469                    -0.6        1.22513090203864        41.5464421071489   -0.000125606027750457        254028.974855124        101329.785269673        288.127674213548      0.0996575116594518       -7.04743967957319                       0 
      -1.99499749874937                    -0.6        1.22513091035504        41.5464482413208   -0.000262239745942206        254028.974594095         101329.78599637        288.127674923213      0.0996575266225373       -7.04744092383765                       0 
      -1.99249624812406                    -0.6        1.22513092211797        41.5464636955809   -0.000411418067483052        254028.972551396        101329.787024231        288.127675926983      0.0996575634556196       -7.04744118652086                       0 
      -1.98999499749875                    -0.6         1.2251309338809         41.546479149841   -0.000560596389023899        254028.970508697        101329.788052091        288.127676930753      0.0996576002887019       -7.04744144920406                       0 
      -1.98749374687344                    -0.6        1.22513094564383        41.5464946041011   -0.000709774710564746        254028.968465998        101329.789079952        288.127677934523      0.0996576371217842       -7.04744171188727                       0 
      -1.98499249624812                    -0.6        1.22513095740676        41.5465100583612   -0.000858953032105607          254028.9664233        101329.790107812        288.127678938293      0.0996576739548665       -7.04744197457047                       0 
      -1.98249124562281                    -0.6        1.22513096916968        41.5465255126213    -0.00100813135364645        254028.964380601        101329.791135673        288.127679942063      0.0996577107879487       -7.04744223725368                       0 
       -1.9799899949975                    -0.6        1.22513098093261        41.5465409668814     -0.0011573096751873        254028.962337902        101329.792163533        288.127680945833       0.099657747621031       -7.04744249993688                       0 
      -1.97748874437219                    -0.6        1.22513099269554        41.5465564211415    -0.00130648799672816        254028.960295204        101329.793191393        288.127681949603      0.0996577844541134       -7.04744276262009                       0 
      -1.97498749374687                    -0.6        1.22513100445847        41.5465718754016    -0.00145566631826901        254028.958252505        101329.794219254        288.127682953373      0.0996578212871956       -7.04744302530329                       0 
      -1.97248624312156                    -0.6         1.2251310162214        41.5465873296617    -0.00160484463980985        254028.956209806        101329.795247114        288.127683957143      0.0996578581202779        -7.0474432879865                       0 
      -1.96998499249625                    -0.6        1.22513102798433        41.5466027839218    -0.00175402296135071        254028.954167107        101329.796274975        288.127684960913      0.0996578949533602        -7.0474435506697                       0 
      -1.96748374187094                    -0.6        1.22513104049897        41.5466158027461    -0.00190359083610299        254028.952345536        101329.797476479        288.127686269806      0.0996579257558266       -7.04744377229512                       0 
      -1.96498249124562                    -0.6        1.22513105406787        41.5466254059498    -0.00205370504675545        254028.950834087        101329.798921512        288.127688006625      0.0996579481005473       -7.04744393633832                       0 
      -1.96248124062031                    -0.6        1.22513106763677        41.5466350091535    -0.00220381925740791        254028.949322639        101329.800366545        288.127689743444       0.099657970445268       -7.04744410038151                       0 
        -1.959979989995                    -0.6        1.22513108120566        41.5466446123572    -0.00235393346806038        254028.947811191        101329.801811578        288.127691480263      0.0996579927899887       -7.04744426442471                       0 
      -1.95747873936968                    -0.6        1.22513109477456        41.5466542155608    -0.00250404767871284        254028.946299743        101329.803256612        288.127693217081      0.0996580151347094        -7.0474444284679                       0 
      -1.95497748874437                    -0.6        1.22513110834346        41.5466638187645     -0.0026541618893653        254028.944788295        101329.804701645          288.1276949539        0.09965803747943       -7.04744459251109                       0 
      -1.95247623811906                    -0.6        1.22513112191235        41.5466734219682    -0.00280427610001777        254028.943276847        101329.806146678        288.127696690719      0.0996580598241507       -7.04744475655429                       0 
      -1.94997498749375                    -0.6        1.22513113548125        41.5466830251719    -0.00295439031067023        254028.941765399        101329.807591711        288.127698427538      0.0996580821688714       -7.04744492059748                       0 
      -1.94747373686843                    -0.6        1.22513114905015        41.5466926283755    -0.00310450452132269         254028.94025395        101329.809036745        288.127700164356      0.0996581045135921       -7.04744508464068                       0 
      -1.94497248624312                    -0.6        1.22513116261904        41.5467022315792    -0.00325461873197516        254028.938742502        101329.810481778        288.127701901175      0.0996581268583128       -7.04744524868387                       0 
      -1.94247123561781                    -0.6        1.22513117618794        41.5467118347829    -0.00340473294262762        254028.937231054        101329.811926811        288.127703637994      0.0996581492030335       -7.04744541272706                       0 
       -1.9399699849925                    -0.6        1.22513118675766         41.546724249001    -0.00355808368102917        254028.935116804        101329.813052444        288.127703689816      0.0996581787369536         -7.047445702241                       0 
      -1.93746873436718                    -0.6        1.22513118761579        41.5467457655196    -0.00372191456767406        254028.931050628        101329.813143831        288.127698285477      0.0996582315501043       -7.04744639803969                       0 
      -1.93496748374187                    -0.6        1.22513118847392        41.5467672820382    -0.00388574545431897        254028.926984453        101329.813235218        288.127692881137       0.099658284363255       -7.04744709383839                       0 
      -1.93246623311656                    -0.6        1.22513118933205        41.5467887985568    -0.00404957634096387        254028.922918278        101329.813326606        288.127687476798      0.0996583371764056       -7.04744778963708                       0 
      -1.92996498249125                    -0.6        1.22513116822014        41.5468165906387    -0.00420357734516639         254028.92179479        101329.811551565        288.127683433961       0.099658405008247       -7.04744891121489                       0 
      -1.92746373186593                    -0.6        1.22513113490462        41.5468478685873    -0.00435211817679319        254028.922305865        101329.808739786        288.127680147395      0.0996584811824713       -7.04745026929883                       0 
      -1.92496248124062                    -0.6         1.2251311015891        41.5468791465358    -0.00450065900841998        254028.922816941        101329.805928007        288.127676860828      0.0996585573566957       -7.04745162738277                       0 
      -1.92246123061531                    -0.6        1.22513106827358        41.5469104244844    -0.00464919984004677        254028.923328017        101329.803116229        288.127673574261        0.09965863353092       -7.04745298546671                       0 
      -1.91995997998999                    -0.6        1.22513103495806        41.5469417024329    -0.00479774067167358        254028.923839093         101329.80030445        288.127670287694      0.0996587097051443       -7.04745434355065                       0 
      -1.91745872936468                    -0.6        1.22513100164254        41.5469729803815    -0.00494628150330037        254028.924350169        101329.797492671        288.127667001127      0.0996587858793687       -7.04745570163459                       0 
      -1.91495747873937                    -0.6        1.22513096832701          41.54700425833    -0.00509482233492716        254028.924861245        101329.794680892         288.12766371456       0.099658862053593       -7.04745705971853                       0 
      -1.91245622811406                    -0.6        1.22513093501149        41.5470355362786    -0.00524336316655395        254028.925372321        101329.791869113        288.127660427994      0.0996589382278173       -7.04745841780247                       0 
      -1.90995497748874                    -0.6        1.22513090169597        41.5470668142271    -0.00539190399818075        254028.925883397        101329.789057335        288.127657141427      0.0996590144020417       -7.04745977588641                       0 
      -1.90745372686343                    -0.6        1.22513086838045        41.5470980921757    -0.00554044482980754        254028.926394473        101329.786245556         288.12765385486       0.099659090576266       -7.04746113397035                       0 
      -1.90495247623812                    -0.6        1.22513083506493        41.5471293701242    -0.00568898566143433        254028.926905549        101329.783433777        288.127650568293      0.0996591667504903       -7.04746249205429                       0 
      -1.90245122561281                    -0.6        1.22513080174941        41.5471606480728    -0.00583752649306113        254028.927416625        101329.780621998        288.127647281726      0.0996592429247146       -7.04746385013823                       0 
      -1.89994997498749                    -0.6        1.22513076843388        41.5471919260213    -0.00598606732468792        254028.927927701        101329.777810219         288.12764399516       0.099659319098939       -7.04746520822217                       0 
      -1.89744872436218                    -0.6        1.22513073511836        41.5472232039699    -0.00613460815631471        254028.928438777         101329.77499844        288.127640708593      0.0996593952731633       -7.04746656630611                       0 
      -1.89494747373687                    -0.6        1.22513070180284        41.5472544819184    -0.00628314898794151        254028.928949853        101329.772186662        288.127637422026      0.0996594714473876       -7.04746792439005                       0 
      -1.89244622311156                    -0.6        1.22513066848732         41.547285759867     -0.0064316898195683        254028.929460928        101329.769374883        288.127634135459       0.099659547621612       -7.04746928247399                       0 
      -1.88994497248624                    -0.6         1.2251306351718        41.5473170378155    -0.00658023065119509        254028.929972004        101329.766563104        288.127630848892      0.0996596237958363       -7.04747064055793                       0 
      -1.88744372186093                    -0.6        1.22513060185628         41.547348315764    -0.00672877148282189         254028.93048308        101329.763751325        288.127627562326      0.0996596999700606       -7.04747199864187                       0 
      -1.88494247123562                    -0.6        1.22513056854075        41.5473795937126    -0.00687731231444869        254028.930994156        101329.760939546        288.127624275759      0.0996597761442849       -7.04747335672581                       0 
      -1.88244122061031                    -0.6        1.22513053522523        41.5474108716611    -0.00702585314607548        254028.931505232        101329.758127767        288.127620989192      0.0996598523185093       -7.04747471480975                       0 
      -1.87993996998499                    -0.6        1.22513050331027        41.5474464750889    -0.00718210796525056        254028.931968503         101329.75514992        288.127619109866      0.0996599390051546       -7.04747622493334                       0 
      -1.87743871935968                    -0.6        1.22513047364146        41.5474890155189    -0.00735073411875421        254028.932355106        101329.751905741        288.127619487409      0.0996600425511316       -7.04747797889105                       0 
      -1.87493746873437                    -0.6        1.22513044397265        41.5475315559489    -0.00751936027225784         254028.93274171        101329.748661562        288.127619864951      0.0996601460971086       -7.04747973284875                       0 
      -1.87243621810905                    -0.6        1.22513041430384        41.5475740963789    -0.00768798642576147        254028.933128313        101329.745417383        288.127620242493      0.0996602496430856       -7.04748148680646                       0 
      -1.86993496748374                    -0.6        1.22513038463502        41.5476166368089    -0.00785661257926512        254028.933514917        101329.742173204        288.127620620036      0.0996603531890626       -7.04748324076416                       0 
      -1.86743371685843                    -0.6        1.22513035496621         41.547659177239    -0.00802523873276875         254028.93390152        101329.738929024        288.127620997578      0.0996604567350396       -7.04748499472187                       0 
      -1.86493246623312                    -0.6         1.2251303252974         41.547701717669    -0.00819386488627238        254028.934288123        101329.735684845         288.12762137512      0.0996605602810166       -7.04748674867957                       0 
       -1.8624312156078                    -0.6        1.22513029562859         41.547744258099    -0.00836249103977601        254028.934674727        101329.732440666        288.127621752663      0.0996606638269936       -7.04748850263728                       0 
      -1.85992996498249                    -0.6        1.22513029223929         41.547797375146     -0.0085184863206125         254028.93213187        101329.731984592        288.127622177336      0.0996607927036307       -7.04749070758998                       0 
      -1.85742871435718                    -0.6        1.22513029739553        41.5478539314862    -0.00867037430744572        254028.928636414        101329.732435151        288.127622617335      0.0996609298172655       -7.04749305919678                       0 
      -1.85492746373187                    -0.6        1.22513030255177        41.5479104878264    -0.00882226229427894        254028.925140959        101329.732885711        288.127623057335      0.0996610669309003       -7.04749541080357                       0 
      -1.85242621310655                    -0.6        1.22513030770801        41.5479670441667    -0.00897415028111216        254028.921645503         101329.73333627        288.127623497334       0.099661204044535       -7.04749776241037                       0 
      -1.84992496248124                    -0.6        1.22513031286426        41.5480236005069    -0.00912603826794538        254028.918150048        101329.733786829        288.127623937333      0.0996613411581697       -7.04750011401716                       0 
      -1.84742371185593                    -0.6         1.2251303180205        41.5480801568471     -0.0092779262547786        254028.914654592        101329.734237388        288.127624377332      0.0996614782718045       -7.04750246562396                       0 
      -1.84492246123062                    -0.6        1.22513032317674        41.5481367131874    -0.00942981424161181        254028.911159137        101329.734687948        288.127624817332      0.0996616153854392       -7.04750481723075                       0 
       -1.8424212106053                    -0.6        1.22513032833298        41.5481932695276    -0.00958170222844504        254028.907663681        101329.735138507        288.127625257331       0.099661752499074       -7.04750716883755                       0 
      -1.83991995997999                    -0.6        1.22513033348922        41.5482498258678    -0.00973359021527826        254028.904168225        101329.735589066         288.12762569733      0.0996618896127087       -7.04750952044434                       0 
      -1.83741870935468                    -0.6        1.22513033864546        41.5483063822081    -0.00988547820211147         254028.90067277        101329.736039625         288.12762613733      0.0996620267263435       -7.04751187205114                       0 
      -1.83491745872936                    -0.6        1.22513034380171        41.5483629385483     -0.0100373661889447        254028.897177314        101329.736490185        288.127626577329      0.0996621638399783       -7.04751422365793                       0 
      -1.83241620810405                    -0.6        1.22513034895795        41.5484194948885     -0.0101892541757779        254028.893681859        101329.736940744        288.127627017328       0.099662300953613       -7.04751657526472                       0 
      -1.82991495747874                    -0.6        1.22513035411419        41.5484760512288     -0.0103411421626111        254028.890186403        101329.737391303        288.127627457327      0.0996624380672478       -7.04751892687152                       0 
      -1.82741370685343                    -0.6        1.22513035927043         41.548532607569     -0.0104930301494444        254028.886690948        101329.737841863        288.127627897327      0.0996625751808825       -7.04752127847831                       0 
      -1.82491245622811                    -0.6        1.22513036442667        41.5485891639093     -0.0106449181362776        254028.883195492        101329.738292422        288.127628337326      0.0996627122945172       -7.04752363008511                       0 
       -1.8224112056028                    -0.6        1.22513036958291        41.5486457202495     -0.0107968061231108        254028.879700036        101329.738742981        288.127628777325       0.099662849408152        -7.0475259816919                       0 
      -1.81990995497749                    -0.6        1.22513037473915        41.5487022765897      -0.010948694109944        254028.876204581         101329.73919354        288.127629217325      0.0996629865217867        -7.0475283332987                       0 
      -1.81740870435218                    -0.6        1.22513034871364        41.5487664643227     -0.0111187863624224         254028.87336023        101329.736919396         288.12762699648      0.0996631421057897       -7.04753108493894                       0 
      -1.81490745372686                    -0.6        1.22513031149619        41.5488333911572     -0.0112954125900375        254028.870749577        101329.733667286        288.127623820592      0.0996633043192788       -7.04753398016138                       0 
      -1.81240620310155                    -0.6        1.22513027427875        41.5489003179916     -0.0114720388176526        254028.868138924        101329.730415176        288.127620644703      0.0996634665327679       -7.04753687538383                       0 
      -1.80990495247624                    -0.6         1.2251302370613        41.5489672448261     -0.0116486650452677        254028.865528271        101329.727163066        288.127617468814      0.0996636287462569       -7.04753977060627                       0 
      -1.80740370185093                    -0.6        1.22513019984386        41.5490341716605     -0.0118252912728828        254028.862917619        101329.723910956        288.127614292926       0.099663790959746       -7.04754266582872                       0 
      -1.80490245122561                    -0.6        1.22513016262641        41.5491010984949     -0.0120019175004979        254028.860306966        101329.720658846        288.127611117037      0.0996639531732351       -7.04754556105116                       0 
       -1.8024012006003                    -0.6        1.22513012540897        41.5491680253294      -0.012178543728113        254028.857696313        101329.717406736        288.127607941148      0.0996641153867242       -7.04754845627361                       0 
      -1.79989994997499                    -0.6        1.22513008819152        41.5492349521638     -0.0123551699557281         254028.85508566        101329.714154626         288.12760476526      0.0996642776002133       -7.04755135149605                       0 
      -1.79739869934967                    -0.6        1.22513005097408        41.5493018789983     -0.0125317961833432        254028.852475007        101329.710902516        288.127601589371      0.0996644398137024        -7.0475542467185                       0 
      -1.79489744872436                    -0.6        1.22513001375663        41.5493688058327     -0.0127084224109583        254028.849864355        101329.707650406        288.127598413482      0.0996646020271915       -7.04755714194094                       0 
      -1.79239619809905                    -0.6        1.22512997653918        41.5494357326672     -0.0128850486385734        254028.847253702        101329.704398296        288.127595237594      0.0996647642406806       -7.04756003716339                       0 
      -1.78989494747374                    -0.6        1.22512993848252        41.5495118891943     -0.0130508416071569         254028.84434699        101329.700623946        288.127591739585      0.0996649492261348       -7.04756324087859                       0 
      -1.78739369684842                    -0.6        1.22512989988584        41.5495939846988     -0.0132096637608788        254028.841249776        101329.696513554        288.127588034304      0.0996651488645344       -7.04756664309785                       0 
      -1.78489244622311                    -0.6        1.22512986128915        41.5496760802033     -0.0133684859146007        254028.838152562        101329.692403162        288.127584329023       0.099665348502934       -7.04757004531711                       0 
       -1.7823911955978                    -0.6        1.22512982269247        41.5497581757077     -0.0135273080683226        254028.835055348         101329.68829277        288.127580623741      0.0996655481413336       -7.04757344753637                       0 
      -1.77988994497249                    -0.6        1.22512978409579        41.5498402712122     -0.0136861302220445        254028.831958134        101329.684182378         288.12757691846      0.0996657477797332       -7.04757684975563                       0 
      -1.77738869434717                    -0.6        1.22512974549911        41.5499223667166     -0.0138449523757664        254028.828860919        101329.680071986        288.127573213179      0.0996659474181328       -7.04758025197489                       0 
      -1.77488744372186                    -0.6        1.22512970690243        41.5500044622211     -0.0140037745294883        254028.825763705        101329.675961594        288.127569507897      0.0996661470565324       -7.04758365419416                       0 
      -1.77238619309655                    -0.6        1.22512966830575        41.5500865577256     -0.0141625966832102        254028.822666491        101329.671851202        288.127565802616       0.099666346694932       -7.04758705641342                       0 
      -1.76988494247124                    -0.6        1.22512962970907          41.55016865323     -0.0143214188369322        254028.819569277         101329.66774081        288.127562097335      0.0996665463333316       -7.04759045863268                       0 
      -1.76738369184592                    -0.6        1.22512959111239        41.5502507487345     -0.0144802409906541        254028.816472063        101329.663630418        288.127558392053      0.0996667459717312       -7.04759386085194                       0 
      -1.76488244122061                    -0.6        1.22512955251571        41.5503328442389     -0.0146390631443759        254028.813374848        101329.659520026        288.127554686772      0.0996669456101308        -7.0475972630712                       0 
       -1.7623811905953                    -0.6        1.22512951391903        41.5504149397434     -0.0147978852980979        254028.810277634        101329.655409634        288.127550981491      0.0996671452485304       -7.04760066529046                       0 
      -1.75987993996998                    -0.6          1.225129518335        41.5505096934059     -0.0149860185655521        254028.803927231        101329.651963616        288.127551405424      0.0996673756855793       -7.04760501721574                       0 
      -1.75737868934467                    -0.6        1.22512952783552        41.5506059433952      -0.015177616713336        254028.797192267        101329.648596134        288.127552317473      0.0996676097633508       -7.04760948140622                       0 
      -1.75487743871936                    -0.6        1.22512953733603        41.5507021933845       -0.01536921486112        254028.790457303        101329.645228652        288.127553229523      0.0996678438411222       -7.04761394559669                       0 
      -1.75237618809405                    -0.6        1.22512954683655        41.5507984433737      -0.015560813008904        254028.783722339         101329.64186117        288.127554141573      0.0996680779188937       -7.04761840978716                       0 
      -1.74987493746873                    -0.6        1.22512955633707         41.550894693363     -0.0157524111566879        254028.776987375        101329.638493688        288.127555053622      0.0996683119966652       -7.04762287397764                       0 
      -1.74737368684342                    -0.6        1.22512956583758        41.5509909433523     -0.0159440093044719        254028.770252411        101329.635126206        288.127555965672      0.0996685460744367       -7.04762733816811                       0 
      -1.74487243621811                    -0.6         1.2251295753381        41.5510871933415     -0.0161356074522559        254028.763517447        101329.631758724        288.127556877721      0.0996687801522082       -7.04763180235859                       0 
       -1.7423711855928                    -0.6        1.22512958483862        41.5511834433308     -0.0163272056000398        254028.756782483        101329.628391242        288.127557789771      0.0996690142299797       -7.04763626654906                       0 
      -1.73986993496748                    -0.6        1.22512959433913        41.5512796933201     -0.0165188037478238        254028.750047519         101329.62502376        288.127558701821      0.0996692483077512       -7.04764073073953                       0 
      -1.73736868434217                    -0.6        1.22512960383965        41.5513759433093     -0.0167104018956078        254028.743312555        101329.621656278         288.12755961387      0.0996694823855226       -7.04764519493001                       0 
      -1.73486743371686                    -0.6        1.22512961334017        41.5514721932986     -0.0169020000433917        254028.736577591        101329.618288795         288.12756052592      0.0996697164632941       -7.04764965912048                       0 
      -1.73236618309155                    -0.6        1.22512962284068        41.5515684432879     -0.0170935981911757        254028.729842627        101329.614921313        288.127561437969      0.0996699505410656       -7.04765412331095                       0 
      -1.72986493246623                    -0.6         1.2251296323412        41.5516646932771     -0.0172851963389596        254028.723107663        101329.611553831        288.127562350019      0.0996701846188371       -7.04765858750143                       0 
      -1.72736368184092                    -0.6        1.22512964184172        41.5517609432664     -0.0174767944867436        254028.716372699        101329.608186349        288.127563262069      0.0996704186966086        -7.0476630516919                       0 
      -1.72486243121561                    -0.6        1.22512965134223        41.5518571932557     -0.0176683926345276        254028.709637735        101329.604818867        288.127564174118        0.09967065277438       -7.04766751588238                       0 
       -1.7223611805903                    -0.6        1.22512966055712        41.5519535897474     -0.0178591492731517        254028.702850824        101329.601374906        288.127565058747      0.0996708871922015       -7.04767200147605                       0 