VARIABLES = "x"
 "y"
 "Density"
 "Momentum_x"
 "Momentum_y"
 "Energy"
 "Pressure"
 "Temperature"
 "Mach"
 "C<sub>p</sub>"
 "Roe_Dissipation"
ZONE
DT=(DOUBLE,DOUBLE,DOUBLE,DOUBLE,DOUBLE,DOUBLE,DOUBLE,DOUBLE,DOUBLE,DOUBLE,DOUBLE)
                      2                    1.25        1.22502621404983        41.8145043274128        2.70356284320445        254010.897112762        101317.716742733        288.117824699562       0.100520188591178       -7.06365029654021                       0 
                      2         1.2474974974975        1.22502633326759        41.8140949503552        2.70315318178718        254010.909087873        101317.728947782        288.117836601281       0.100519137289484       -7.06363454309222                       0 
                      2        1.24499499499499        1.22502645248535        41.8136855732976        2.70274352036991        254010.921062985         101317.74115283           288.117848503       0.100518085987789       -7.06361878964422                       0 
                      2        1.24249249249249        1.22502657170311        41.8132761962401        2.70233385895263        254010.933038096        101317.753357878         288.11786040472       0.100517034686095       -7.06360303619622                       0 
                      2        1.23998998998999        1.22502669092087        41.8128668191825        2.70192419753536        254010.945013207        101317.765562926        288.117872306439       0.100515983384401       -7.06358728274822                       0 
                      2        1.23748748748749        1.22502681013863         41.812457442125        2.70151453611808        254010.956988319        101317.777767974        288.117884208158       0.100514932082706       -7.06357152930022                       0 
                      2        1.23498498498498        1.22502692935639        41.8120480650674        2.70110487470081         254010.96896343        101317.789973022        288.117896109878       0.100513880781012       -7.06355577585223                       0 
                      2        1.23248248248248        1.22502704857416        41.8116386880099        2.70069521328354        254010.980938542         101317.80217807        288.117908011597       0.100512829479318       -7.06354002240423                       0 
                      2        1.22997997997998        1.22502716779192        41.8112293109523        2.70028555186626        254010.992913653        101317.814383118        288.117919913316       0.100511778177623       -7.06352426895623                       0 
                      2        1.22747747747748        1.22502728700968        41.8108199338948        2.69987589044899        254011.004888765        101317.826588166        288.117931815036       0.100510726875929       -7.06350851550823                       0 
                      2        1.22497497497497        1.22502740622744        41.8104105568372        2.69946622903171        254011.016863876        101317.838793214        288.117943716755       0.100509675574235       -7.06349276206024                       0 
                      2        1.22247247247247         1.2250275254452        41.8100011797796        2.69905656761444        254011.028838988        101317.850998262        288.117955618474        0.10050862427254       -7.06347700861224                       0 
                      2        1.21996996996997        1.22502764466296        41.8095918027221        2.69864690619717        254011.040814099         101317.86320331        288.117967520194       0.100507572970846       -7.06346125516424                       0 
                      2        1.21746746746747        1.22502776388072        41.8091824256645        2.69823724477989        254011.052789211        101317.875408358        288.117979421913       0.100506521669151       -7.06344550171624                       0 
                      2        1.21496496496496        1.22502788309849         41.808773048607        2.69782758336262        254011.064764322        101317.887613406        288.117991323632       0.100505470367457       -7.06342974826824                       0 
                      2        1.21246246246246        1.22502800228439         41.808363461967        2.69740967218378        254011.077225719        101317.899815354        288.118003222021       0.100504417184408       -7.06341391213701                       0 
                      2        1.20995995995996        1.22502812134272        41.8079530359651        2.69695872133649        254011.091634651        101317.912004887        288.118015107073       0.100503356466673       -7.06339774486567                       0 
                      2        1.20745745745746        1.22502824040104        41.8075426099632        2.69650777048921        254011.106043583         101317.92419442        288.118026992125       0.100502295748939       -7.06338157759434                       0 
                      2        1.20495495495495        1.22502835945937        41.8071321839614        2.69605681964192        254011.120452515        101317.936383954        288.118038877176       0.100501235031205       -7.06336541032301                       0 
                      2        1.20245245245245         1.2250284785177        41.8067217579595        2.69560586879463        254011.134861447        101317.948573487        288.118050762228        0.10050017431347       -7.06334924305168                       0 
                      2        1.19994994994995        1.22502859702698        41.8063024909479        2.69515831036452         254011.14920329        101317.960706924        288.118062592363       0.100499092866751        -7.0633329018597                       0 
                      2        1.19744744744745        1.22502870838271        41.8057680329866        2.69475495228764        254011.162671019        101317.972109473        288.118073706984       0.100497741338721       -7.06331429462748                       0 
                      2        1.19494494494494        1.22502881973844        41.8052335750253        2.69435159421076        254011.176138747        101317.983512022        288.118084821604       0.100496389810691       -7.06329568739525                       0 
                      2        1.19244244244244        1.22502893109417        41.8046991170639        2.69394823613388        254011.189606476        101317.994914571        288.118095936225       0.100495038282661       -7.06327708016303                       0 
                      2        1.18993993993994         1.2250290424499        41.8041646591026        2.69354487805699        254011.203074204         101318.00631712        288.118107050845       0.100493686754631        -7.0632584729308                       0 
                      2        1.18743743743744        1.22502915380563        41.8036302011413        2.69314151998011        254011.216541933         101318.01771967        288.118118165466       0.100492335226601       -7.06323986569858                       0 
                      2        1.18493493493493        1.22502926514292        41.8030957707093        2.69273816928886         254011.23000973        101318.029122273        288.118129278318        0.10049098376476       -7.06322125999618                       0 
                      2        1.18243243243243         1.2250293557288        41.8025923135675        2.69234312818553        254011.243555484        101318.040586224        288.118138402113       0.100489706772688       -7.06320437550327                       0 
                      2        1.17992992992993        1.22502944631469        41.8020888564257        2.69194808708219        254011.257101238        101318.052050176        288.118147525908       0.100488429780617       -7.06318749101036                       0 
                      2        1.17742742742743        1.22502953690057        41.8015853992839        2.69155304597886        254011.270646992        101318.063514127        288.118156649703       0.100487152788545       -7.06317060651745                       0 
                      2        1.17492492492492        1.22502962748646        41.8010819421421        2.69115800487553        254011.284192746        101318.074978078        288.118165773498       0.100485875796473       -7.06315372202454                       0 
                      2        1.17242242242242        1.22502971807234        41.8005784850003        2.69076296377219          254011.2977385        101318.086442029        288.118174897293       0.100484598804401       -7.06313683753163                       0 
                      2        1.16991991991992        1.22502980865822        41.8000750278585        2.69036792266886        254011.311284254         101318.09790598        288.118184021088       0.100483321812329       -7.06311995303872                       0 
                      2        1.16741741741742        1.22502989924411        41.7995715707168        2.68997288156552        254011.324830008        101318.109369931        288.118193144883       0.100482044820258       -7.06310306854581                       0 
                      2        1.16491491491491        1.22502998982999        41.7990681135749        2.68957784046219        254011.338375762        101318.120833882        288.118202268678       0.100480767828186        -7.0630861840529                       0 
                      2        1.16241241241241        1.22503008041588        41.7985646564332        2.68918279935886        254011.351921516        101318.132297833        288.118211392473       0.100479490836114       -7.06306929955999                       0 
                      2        1.15990990990991        1.22503017100176        41.7980611992914        2.68878775825552         254011.36546727        101318.143761784        288.118220516268       0.100478213844042       -7.06305241506708                       0 
                      2        1.15740740740741        1.22503026158765        41.7975577421496        2.68839271715219        254011.379013024        101318.155225735        288.118229640063        0.10047693685197       -7.06303553057417                       0 
                      2         1.1549049049049        1.22503035217353        41.7970542850078        2.68799767604886        254011.392558778        101318.166689686        288.118238763858       0.100475659859898       -7.06301864608126                       0 
                      2         1.1524024024024        1.22503044275942         41.796550827866        2.68760263494552        254011.406104532        101318.178153637        288.118247887653       0.100474382867827       -7.06300176158835                       0 
                      2         1.1498998998999         1.2250305333453        41.7960473707242        2.68720759384219        254011.419650286        101318.189617588        288.118257011448       0.100473105875755       -7.06298487709544                       0 
                      2         1.1473973973974        1.22503062393119        41.7955439135824        2.68681255273885         254011.43319604        101318.201081539        288.118266135243       0.100471828883683       -7.06296799260253                       0 
                      2        1.14489489489489        1.22503076395629         41.794943515038        2.68646720969926        254011.446941946        101318.217269921        288.118275388387       0.100470327987291       -7.06294905387325                       0 
                      2        1.14239239239239        1.22503090736236        41.7943364870172        2.68612526533284         254011.46070154        101318.233781389        288.118284650376       0.100468811778882       -7.06292997466207                       0 
                      2        1.13988988988989        1.22503105076844        41.7937294589964        2.68578332096642        254011.474461134        101318.250292857        288.118293912366       0.100467295570472        -7.0629108954509                       0 
                      2        1.13738738738739        1.22503119417451        41.7931224309755            2.6854413766        254011.488220728        101318.266804325        288.118303174355       0.100465779362063       -7.06289181623972                       0 
                      2        1.13488488488488        1.22503133758058        41.7925154029547        2.68509943223359        254011.501980322        101318.283315794        288.118312436345       0.100464263153654       -7.06287273702854                       0 
                      2        1.13238238238238        1.22503148098665        41.7919083749339        2.68475748786717        254011.515739916        101318.299827262        288.118321698334       0.100462746945244       -7.06285365781737                       0 
                      2        1.12987987987988        1.22503162439273        41.7913013469131        2.68441554350075        254011.529499509         101318.31633873        288.118330960324       0.100461230736835       -7.06283457860619                       0 
                      2        1.12737737737738         1.2250317677988        41.7906943188922        2.68407359913433        254011.543259103        101318.332850199        288.118340222313       0.100459714528425       -7.06281549939502                       0 
                      2        1.12487487487487        1.22503191120487        41.7900872908714        2.68373165476791        254011.557018697        101318.349361667        288.118349484303       0.100458198320016       -7.06279642018384                       0 
                      2        1.12237237237237        1.22503205461094        41.7894802628506        2.68338971040149        254011.570778291        101318.365873135        288.118358746292       0.100456682111607       -7.06277734097267                       0 
                      2        1.11986986986987        1.22503219801702        41.7888732348297        2.68304776603507        254011.584537885        101318.382384604        288.118368008282       0.100455165903197       -7.06275826176149                       0 
                      2        1.11736736736737        1.22503234142309        41.7882662068089        2.68270582166865        254011.598297479        101318.398896072        288.118377270271       0.100453649694788       -7.06273918255031                       0 
                      2        1.11486486486486        1.22503248482916        41.7876591787881        2.68236387730223        254011.612057072         101318.41540754        288.118386532261       0.100452133486379       -7.06272010333914                       0 
                      2        1.11236236236236        1.22503262797114         41.787045419632        2.68200180888499        254011.627197845        101318.431784104        288.118397354843       0.100450595472989       -7.06270055639084                       0 
                      2        1.10985985985986        1.22503277086356        41.7864252995242        2.68162072315294        254011.643643837        101318.448033182        288.118409652193       0.100449036853799       -7.06268056742893                       0 
                      2        1.10735735735736        1.22503291375597        41.7858051794164         2.6812396374209        254011.660089829         101318.46428226        288.118421949543       0.100447478234609       -7.06266057846703                       0 
                      2        1.10485485485485        1.22503305664838        41.7851850593085        2.68085855168885        254011.676535821        101318.480531338        288.118434246893       0.100445919615418       -7.06264058950513                       0 
                      2        1.10235235235235         1.2250331995408        41.7845649392007         2.6804774659568        254011.692981814        101318.496780416        288.118446544243       0.100444360996228       -7.06262060054323                       0 
                      2        1.09984984984985        1.22503334243321        41.7839448190929        2.68009638022476        254011.709427806        101318.513029494        288.118458841592       0.100442802377038       -7.06260061158133                       0 
                      2        1.09734734734735        1.22503348532562         41.783324698985        2.67971529449271        254011.725873798        101318.529278572        288.118471138942       0.100441243757848       -7.06258062261943                       0 
                      2        1.09484484484484        1.22503362835019        41.7827005892131        2.67933916204229        254011.742335355        101318.545543092        288.118483756898       0.100439676612233       -7.06256051504457                       0 
                      2        1.09234234234234        1.22503377313489        41.7820233407756        2.67902900275868        254011.759004216        101318.562013278        288.118500645032       0.100437995902467       -7.06253882765394                       0 
                      2        1.08983983983984         1.2250339179196        41.7813460923381        2.67871884347508        254011.775673077        101318.578483464        288.118517533166       0.100436315192701        -7.0625171402633                       0 
                      2        1.08733733733734        1.22503406270431        41.7806688439006        2.67840868419147        254011.792341939        101318.594953649        288.118534421299       0.100434634482935       -7.06249545287267                       0 
                      2        1.08483483483483        1.22503420748902        41.7799915954631        2.67809852490786          254011.8090108        101318.611423835        288.118551309433       0.100432953773169       -7.06247376548204                       0 
                      2        1.08233233233233        1.22503435227372        41.7793143470257        2.67778836562425        254011.825679661        101318.627894021        288.118568197567       0.100431273063403        -7.0624520780914                       0 
                      2        1.07982982982983        1.22503449705843        41.7786370985882        2.67747820634064        254011.842348523        101318.644364207          288.1185850857       0.100429592353637       -7.06243039070077                       0 
                      2        1.07732732732733        1.22503464184314        41.7779598501507        2.67716804705704        254011.859017384        101318.660834393        288.118601973834       0.100427911643871       -7.06240870331014                       0 
                      2        1.07482482482482        1.22503478662785        41.7772826017132        2.67685788777343        254011.875686246        101318.677304579        288.118618861968       0.100426230934105       -7.06238701591951                       0 
                      2        1.07232232232232        1.22503490904788        41.7766458529555        2.67655035492242         254011.89041387         101318.68952283        288.118635775267        0.10042464656855       -7.06236691495626                       0 
                      2        1.06981981981982        1.22503502936869        41.7760129056205        2.67624306859635        254011.904959285        101318.701341981        288.118652690928       0.100423071246155        -7.0623469628999                       0 
                      2        1.06731731731732        1.22503514968951        41.7753799582855        2.67593578227027        254011.919504699        101318.713161132         288.11866960659       0.100421495923759       -7.06232701084354                       0 
                      2        1.06481481481481        1.22503527001033        41.7747470109505         2.6756284959442        254011.934050114        101318.724980283        288.118686522251       0.100419920601364       -7.06230705878718                       0 
                      2        1.06231231231231        1.22503539033115        41.7741140636155        2.67532120961812        254011.948595528        101318.736799434        288.118703437913       0.100418345278968       -7.06228710673082                       0 
                      2        1.05980980980981        1.22503551065196        41.7734811162805        2.67501392329204        254011.963140943        101318.748618585        288.118720353574       0.100416769956573       -7.06226715467446                       0 
                      2        1.05730730730731        1.22503563097278        41.7728481689455        2.67470663696597        254011.977686357        101318.760437736        288.118737269235       0.100415194634177        -7.0622472026181                       0 
                      2         1.0548048048048         1.2250357512936        41.7722152216105        2.67439935063989        254011.992231772        101318.772256887        288.118754184897       0.100413619311782       -7.06222725056174                       0 
                      2         1.0523023023023        1.22503587161441        41.7715822742755        2.67409206431382        254012.006777186        101318.784076039        288.118771100558       0.100412043989386       -7.06220729850538                       0 
                      2         1.0497997997998        1.22503599193523        41.7709493269406        2.67378477798774          254012.0213226         101318.79589519         288.11878801622        0.10041046866699       -7.06218734644902                       0 
                      2         1.0472972972973        1.22503611225605        41.7703163796056        2.67347749166166        254012.035868015        101318.807714341        288.118804931881       0.100408893344595       -7.06216739439266                       0 
                      2        1.04479479479479        1.22503623257686        41.7696834322706        2.67317020533559        254012.050413429        101318.819533492        288.118821847542       0.100407318022199        -7.0621474423363                       0 
                      2        1.04229229229229        1.22503635324386        41.7690684433679         2.6728998873277         254012.06902356        101318.833732597        288.118838811163       0.100405789606523       -7.06212648060351                       0 
                      2        1.03978978978979        1.22503647435232        41.7684763558782        2.67267671300749        254012.092817203        101318.850966728        288.118855835943       0.100404321008435       -7.06210423128522                       0 
                      2        1.03728728728729        1.22503659546079        41.7678842683885        2.67245353868729        254012.116610845         101318.86820086        288.118872860723       0.100402852410348       -7.06208198196692                       0 
                      2        1.03478478478478        1.22503671656925        41.7672921808988        2.67223036436709        254012.140404488        101318.885434991        288.118889885502       0.100401383812261       -7.06205973264863                       0 
                      2        1.03228228228228        1.22503683767771        41.7667000934092        2.67200719004689         254012.16419813        101318.902669122        288.118906910282       0.100399915214174       -7.06203748333034                       0 
                      2        1.02977977977978        1.22503695878618        41.7661080059195        2.67178401572669        254012.187991773        101318.919903254        288.118923935062       0.100398446616087       -7.06201523401205                       0 
                      2        1.02727727727728        1.22503707989464        41.7655159184298        2.67156084140649        254012.211785415        101318.937137385        288.118940959842          0.100396978018       -7.06199298469376                       0 
                      2        1.02477477477477         1.2250372010031        41.7649238309401        2.67133766708628        254012.235579058        101318.954371516        288.118957984622       0.100395509419913       -7.06197073537547                       0 
                      2        1.02227227227227        1.22503732211157        41.7643317434505        2.67111449276608          254012.2593727        101318.971605647        288.118975009402       0.100394040821826       -7.06194848605718                       0 
                      2        1.01976976976977        1.22503744322003        41.7637396559608        2.67089131844588        254012.283166343        101318.988839779        288.118992034182       0.100392572223739       -7.06192623673888                       0 
                      2        1.01726726726727        1.22503756432849        41.7631475684711        2.67066814412568        254012.306959986         101319.00607391        288.119009058962       0.100391103625652       -7.06190398742059                       0 
                      2        1.01476476476476        1.22503768541511        41.7625509502131        2.67043992397691        254012.330802714        101319.023305268        288.119026081089       0.100389623338588       -7.06188157599759                       0 
                      2        1.01226226226226        1.22503780636062        41.7619250655591        2.67017911041205        254012.354962512        101319.040518715        288.119043086079        0.10038806754684       -7.06185811746285                       0 
                      2        1.00975975975976        1.22503792730612        41.7612991809052        2.66991829684719        254012.379122309        101319.057732162        288.119060091069       0.100386511755091       -7.06183465892811                       0 
                      2        1.00725725725726        1.22503804825163        41.7606732962512        2.66965748328233        254012.403282107        101319.074945609         288.11907709606       0.100384955963343       -7.06181120039338                       0 
                      2        1.00475475475475        1.22503816919713        41.7600474115972        2.66939666971747        254012.427441905        101319.092159055         288.11909410105       0.100383400171594       -7.06178774185864                       0 
                      2        1.00225225225225        1.22503829014264        41.7594215269432        2.66913585615262        254012.451601702        101319.109372502         288.11911110604       0.100381844379846        -7.0617642833239                       0 
                      2        0.99974974974975        1.22503841108815        41.7587956422892        2.66887504258776          254012.4757615        101319.126585949        288.119128111031       0.100380288588097       -7.06174082478916                       0 
                      2       0.997247247247247        1.22503853203365        41.7581697576352         2.6686142290229        254012.499921298        101319.143799396        288.119145116021       0.100378732796348       -7.06171736625442                       0 
                      2       0.994744744744745        1.22503865297916        41.7575438729812        2.66835341545804        254012.524081095        101319.161012842        288.119162121011         0.1003771770046       -7.06169390771969                       0 
                      2       0.992242242242242        1.22503877392466        41.7569179883272        2.66809260189318        254012.548240893        101319.178226289        288.119179126002       0.100375621212851       -7.06167044918495                       0 
                      2        0.98973973973974          1.225038938875        41.7563997007537        2.66792772112952        254012.572445288        101319.195111714        288.119190556968       0.100374342414874       -7.06164607182558                       0 
                      2       0.987237237237237        1.22503910663815        41.7558882908554        2.66776897245279        254012.596652533        101319.211976172        288.119201631639       0.100373081322518       -7.06162163573434                       0 
                      2       0.984734734734735         1.2250392744013        41.7553768809572        2.66761022377607        254012.620859778         101319.22884063        288.119212706311       0.100371820230163        -7.0615971996431                       0 
                      2       0.982232232232232        1.22503944216445        41.7548654710589        2.66745147509935        254012.645067024        101319.245705088        288.119223780982       0.100370559137807       -7.06157276355187                       0 
                      2        0.97972972972973         1.2250396099276        41.7543540611607        2.66729272642262        254012.669274269        101319.262569546        288.119234855653       0.100369298045452       -7.06154832746063                       0 
                      2       0.977227227227227        1.22503977769075        41.7538426512624         2.6671339777459        254012.693481515        101319.279434004        288.119245930324       0.100368036953096       -7.06152389136939                       0 
                      2       0.974724724724725        1.22503994545391        41.7533312413642        2.66697522906917         254012.71768876        101319.296298462        288.119257004996        0.10036677586074       -7.06149945527816                       0 
                      2       0.972222222222222        1.22504011321706        41.7528198314659        2.66681648039245        254012.741896005         101319.31316292        288.119268079667       0.100365514768385       -7.06147501918692                       0 