VARIABLES = "x"
 "y"
 "Density"
 "Momentum_x"
 "Momentum_y"
 "Energy"
 "Pressure"
 "Temperature"
 "Mach"
 "C<sub>p</sub>"
 "Roe_Dissipation"
ZONE
DT=(DOUBLE,DOUBLE,DOUBLE,DOUBLE,DOUBLE,DOUBLE,DOUBLE,DOUBLE,DOUBLE,DOUBLE,DOUBLE)
                     -2                     0.6        1.22514393321716        41.5019440264208    8.20033780501697E-05         254031.27880448         101331.28853476        288.128898105234       0.099549451689789       -7.04537675808497                       0 
      -1.99749874937469                     0.6        1.22514397508124        41.5019341251757    0.000227345097123094        254031.280844894        101331.292192899        288.128901677635      0.0995494276431282       -7.04537588104066                       0 
      -1.99499749874937                     0.6        1.22514401694531        41.5019242239305    0.000372686816196031        254031.282885309        101331.295851037        288.128905250036      0.0995494035964673       -7.04537500399635                       0 
      -1.99249624812406                     0.6        1.22514402866364        41.5019089177892    0.000506430781725753        254031.283376214           101331.296875            288.12890625      0.0995493675025428       -7.04537475798972                       0 
      -1.98999499749875                     0.6        1.22514402866364        41.5018915106449    0.000635666443147191         254031.28326479           101331.296875            288.12890625      0.0995493267255796       -7.04537475728143                       0 
      -1.98749374687344                     0.6        1.22514402866364        41.5018741035006     0.00076490210456863        254031.283153366           101331.296875            288.12890625      0.0995492859486164       -7.04537475657315                       0 
      -1.98499249624812                     0.6        1.22514402866364        41.5018566963563    0.000894137765990079        254031.283041942           101331.296875            288.12890625      0.0995492451716533       -7.04537475586486                       0 
      -1.98249124562281                     0.6        1.22514402866364         41.501839289212     0.00102337342741152        254031.282930518           101331.296875            288.12890625      0.0995492043946901       -7.04537475515658                       0 
       -1.9799899949975                     0.6        1.22514402866364        41.5018218820677     0.00115260908883296        254031.282819094           101331.296875            288.12890625      0.0995491636177269        -7.0453747544483                       0 
      -1.97748874437219                     0.6        1.22514402866364        41.5018044749234     0.00128184475025441         254031.28270767           101331.296875            288.12890625      0.0995491228407638       -7.04537475374002                       0 
      -1.97498749374687                     0.6        1.22514402866364        41.5017870677791     0.00141108041167584        254031.282596246           101331.296875            288.12890625      0.0995490820638005       -7.04537475303173                       0 
      -1.97248624312156                     0.6        1.22514402866364        41.5017696606348     0.00154031607309728        254031.282484822           101331.296875            288.12890625      0.0995490412868374       -7.04537475232345                       0 
      -1.96998499249625                     0.6        1.22514402866364        41.5017522534905     0.00166955173451873        254031.282373398           101331.296875            288.12890625      0.0995490005098742       -7.04537475161516                       0 
      -1.96748374187094                     0.6        1.22514402866364        41.5017348463463     0.00179878739594017        254031.282261973           101331.296875            288.12890625       0.099548959732911       -7.04537475090688                       0 
      -1.96498249124562                     0.6        1.22514402866364         41.501717439202     0.00192802305736161         254031.28215055           101331.296875            288.12890625      0.0995489189559478        -7.0453747501986                       0 
      -1.96248124062031                     0.6        1.22514402866364        41.5017000320577     0.00205725871878305        254031.282039126           101331.296875            288.12890625      0.0995488781789847       -7.04537474949031                       0 
        -1.959979989995                     0.6        1.22514402866364        41.5016826249134      0.0021864943802045        254031.281927701           101331.296875            288.12890625      0.0995488374020215       -7.04537474878203                       0 
      -1.95747873936968                     0.6        1.22514402866364        41.5016652177691     0.00231573004162594        254031.281816278           101331.296875            288.12890625      0.0995487966250583       -7.04537474807374                       0 
      -1.95497748874437                     0.6        1.22514402866364        41.5016478106248     0.00244496570304737        254031.281704853           101331.296875            288.12890625      0.0995487558480951       -7.04537474736546                       0 
      -1.95247623811906                     0.6        1.22514402866364        41.5016304034805     0.00257420136446882        254031.281593429           101331.296875            288.12890625      0.0995487150711319       -7.04537474665718                       0 
      -1.94997498749375                     0.6        1.22514402866364        41.5016129963362     0.00270343702589026        254031.281482005           101331.296875            288.12890625      0.0995486742941687       -7.04537474594889                       0 
      -1.94747373686843                     0.6        1.22514402866364        41.5015955891919      0.0028326726873117        254031.281370581           101331.296875            288.12890625      0.0995486335172056       -7.04537474524061                       0 
      -1.94497248624312                     0.6        1.22514402866364        41.5015781820476     0.00296190834873315        254031.281259157           101331.296875            288.12890625      0.0995485927402424       -7.04537474453233                       0 
      -1.94247123561781                     0.6        1.22514402866364        41.5015607749033     0.00309114401015459        254031.281147733           101331.296875            288.12890625      0.0995485519632792       -7.04537474382404                       0 
       -1.9399699849925                     0.6        1.22514402866364         41.501543367759     0.00322037967157603        254031.281036309           101331.296875            288.12890625       0.099548511186316       -7.04537474311576                       0 
      -1.93746873436718                     0.6        1.22514402866364        41.5015243887979     0.00335689158781691        254031.281460401           101331.296875            288.12890625      0.0995484661407083       -7.04537446461086                       0 
      -1.93496748374187                     0.6        1.22514402866364        41.5015034983949     0.00350225195160195        254031.282535717           101331.296875            288.12890625      0.0995484159041229       -7.04537384828537                       0 
      -1.93246623311656                     0.6        1.22514402866364        41.5014826079918     0.00364761231538697        254031.283611034           101331.296875            288.12890625      0.0995483656675374       -7.04537323195989                       0 
      -1.92996498249125                     0.6        1.22514404418371        41.5014544933681     0.00378906000260217        254031.284456745        101331.298527826        288.128907739928      0.0995482976730774       -7.04537214704842                       0 
      -1.92746373186593                     0.6        1.22514408435145         41.501414905857     0.00392429391270375        254031.284937818         101331.30280553         288.12891159603      0.0995482014770852       -7.04537031796892                       0 
      -1.92496248124062                     0.6        1.22514412451919        41.5013753183459     0.00405952782280531         254031.28541889        101331.307083233        288.128915452133      0.0995481052810929       -7.04536848888942                       0 
      -1.92246123061531                     0.6        1.22514416468693        41.5013357308349     0.00419476173290687        254031.285899962        101331.311360936        288.128919308236      0.0995480090851006       -7.04536665980992                       0 
      -1.91995997998999                     0.6        1.22514420485466        41.5012961433238     0.00432999564300844        254031.286381035         101331.31563864        288.128923164339      0.0995479128891083       -7.04536483073042                       0 
      -1.91745872936468                     0.6         1.2251442450224        41.5012565558127        0.00446522955311        254031.286862107        101331.319916343        288.128927020441       0.099547816693116       -7.04536300165092                       0 
      -1.91495747873937                     0.6        1.22514428519014        41.5012169683017     0.00460046346321156        254031.287343179        101331.324194046        288.128930876544      0.0995477204971238       -7.04536117257143                       0 
      -1.91245622811406                     0.6        1.22514432535787        41.5011773807906     0.00473569737331312        254031.287824251         101331.32847175        288.128934732647      0.0995476243011315       -7.04535934349193                       0 
      -1.90995497748874                     0.6        1.22514436552561        41.5011377932795     0.00487093128341469        254031.288305324        101331.332749453         288.12893858875      0.0995475281051392       -7.04535751441243                       0 
      -1.90745372686343                     0.6        1.22514440569335        41.5010982057684     0.00500616519351625        254031.288786396        101331.337027156        288.128942444852      0.0995474319091469       -7.04535568533293                       0 
      -1.90495247623812                     0.6        1.22514444586108        41.5010586182574     0.00514139910361781        254031.289267468        101331.341304859        288.128946300955      0.0995473357131547       -7.04535385625343                       0 
      -1.90245122561281                     0.6        1.22514448602882        41.5010190307463     0.00527663301371939         254031.28974854        101331.345582563        288.128950157058      0.0995472395171624       -7.04535202717393                       0 
      -1.89994997498749                     0.6        1.22514452619656        41.5009794432352     0.00541186692382095        254031.290229613        101331.349860266        288.128954013161      0.0995471433211702       -7.04535019809444                       0 
      -1.89744872436218                     0.6        1.22514456636429        41.5009398557242     0.00554710083392251        254031.290710685        101331.354137969        288.128957869263      0.0995470471251779       -7.04534836901494                       0 
      -1.89494747373687                     0.6        1.22514460653203        41.5009002682131     0.00568233474402408        254031.291191757        101331.358415673        288.128961725366      0.0995469509291856       -7.04534653993544                       0 
      -1.89244622311156                     0.6        1.22514464669977         41.500860680702     0.00581756865412564        254031.291672829        101331.362693376        288.128965581469      0.0995468547331933       -7.04534471085594                       0 
      -1.88994497248624                     0.6         1.2251446868675        41.5008210931909      0.0059528025642272        254031.292153902        101331.366971079        288.128969437571       0.099546758537201       -7.04534288177644                       0 
      -1.88744372186093                     0.6        1.22514472703524        41.5007815056799     0.00608803647432876        254031.292634974        101331.371248783        288.128973293674      0.0995466623412088       -7.04534105269694                       0 
      -1.88494247123562                     0.6        1.22514476720298        41.5007419181688     0.00622327038443034        254031.293116046        101331.375526486        288.128977149777      0.0995465661452165       -7.04533922361744                       0 
      -1.88244122061031                     0.6        1.22514480737072        41.5007023306577      0.0063585042945319        254031.293597118        101331.379804189         288.12898100588      0.0995464699492242       -7.04533739453794                       0 
      -1.87993996998499                     0.6        1.22514484753845        41.5006627431466     0.00649373820463346        254031.294078191        101331.384081893        288.128984861982      0.0995463737532319       -7.04533556545844                       0 
      -1.87743871935968                     0.6        1.22514488770619        41.5006231556356     0.00662897211473503        254031.294559263        101331.388359596        288.128988718085      0.0995462775572397       -7.04533373637895                       0 
      -1.87493746873437                     0.6        1.22514492787393        41.5005835681245     0.00676420602483659        254031.295040335        101331.392637299        288.128992574188      0.0995461813612474       -7.04533190729945                       0 
      -1.87243621810905                     0.6        1.22514496804166        41.5005439806134     0.00689943993493815        254031.295521407        101331.396915002        288.128996430291      0.0995460851652551       -7.04533007821995                       0 
      -1.86993496748374                     0.6         1.2251449739575        41.5004901193956     0.00704696258828687        254031.299376626        101331.397545015        288.128996998211      0.0995459541887461       -7.04532744287585                       0 
      -1.86743371685843                     0.6        1.22514497897142        41.5004294163179     0.00719203040059086        254031.304858909        101331.398078978        288.128997479547      0.0995458063274549       -7.04532439155723                       0 
      -1.86493246623312                     0.6        1.22514498233795        41.5003694474381     0.00733658356832243        254031.310344288        101331.398617681        288.128997965157      0.0995456602212238       -7.04532136625379                       0 
       -1.8624312156078                     0.6        1.22514498233795        41.5003109789313     0.00748008503204956        254031.315835997        101331.399166073        288.128998459501      0.0995455177015525       -7.04531839411377                       0 
      -1.85992996498249                     0.6        1.22514498233795        41.5002525104245     0.00762358649577671        254031.321327705        101331.399714464        288.128998953844      0.0995453751818813       -7.04531542197374                       0 
      -1.85742871435718                     0.6        1.22514498233795        41.5001940419177     0.00776708795950384        254031.326819414        101331.400262855        288.128999448187        0.09954523266221       -7.04531244983371                       0 
      -1.85492746373187                     0.6        1.22514498233795        41.5001355734109     0.00791058942323097        254031.332311122        101331.400811247         288.12899994253      0.0995450901425387       -7.04530947769368                       0 
      -1.85242621310655                     0.6        1.22514498233795        41.5000771049041     0.00805409088695811        254031.337802831        101331.401359638        288.129000436873      0.0995449476228675       -7.04530650555366                       0 
      -1.84992496248124                     0.6        1.22514498233795        41.5000186363973     0.00819759235068524         254031.34329454        101331.401908029        288.129000931216      0.0995448051031962       -7.04530353341363                       0 
      -1.84742371185593                     0.6        1.22514498233795        41.4999601678905     0.00834109381441237        254031.348786248        101331.402456421        288.129001425559       0.099544662583525        -7.0453005612736                       0 
      -1.84492246123062                     0.6        1.22514498233795        41.4999016993836      0.0084845952781395        254031.354277957        101331.403004812        288.129001919903      0.0995445200638537       -7.04529758913358                       0 
       -1.8424212106053                     0.6        1.22514498233795        41.4998432308768     0.00862809674186665        254031.359769665        101331.403553203        288.129002414246      0.0995443775441824       -7.04529461699355                       0 
      -1.83991995997999                     0.6        1.22514498233795          41.49978476237     0.00877159820559378        254031.365261374        101331.404101594        288.129002908589      0.0995442350245112       -7.04529164485352                       0 
      -1.83741870935468                     0.6        1.22514498233795        41.4997262938632     0.00891509966932091        254031.370753083        101331.404649986        288.129003402932      0.0995440925048399        -7.0452886727135                       0 
      -1.83491745872936                     0.6        1.22514498233795        41.4996678253564     0.00905860113304805        254031.376244791        101331.405198377        288.129003897275      0.0995439499851687       -7.04528570057347                       0 
      -1.83241620810405                     0.6        1.22514498233795        41.4996093568496     0.00920210259677518          254031.3817365        101331.405746769        288.129004391618      0.0995438074654974       -7.04528272843345                       0 
      -1.82991495747874                     0.6        1.22514498233795        41.4995508883428     0.00934560406050231        254031.387228208         101331.40629516        288.129004885961      0.0995436649458261       -7.04527975629342                       0 
      -1.82741370685343                     0.6        1.22514498233795         41.499492419836     0.00948910552422946        254031.392719917        101331.406843551        288.129005380305      0.0995435224261549       -7.04527678415339                       0 
      -1.82491245622811                     0.6        1.22514498233795        41.4994339513292     0.00963260698795659        254031.398211626        101331.407391942        288.129005874648      0.0995433799064836       -7.04527381201336                       0 
       -1.8224112056028                     0.6        1.22514498233795        41.4993754828224     0.00977610845168372        254031.403703334        101331.407940334        288.129006368991      0.0995432373868124       -7.04527083987334                       0 
      -1.81990995497749                     0.6        1.22514498233795        41.4993170143155     0.00991960991541086        254031.409195043        101331.408488725        288.129006863334      0.0995430948671411       -7.04526786773331                       0 
      -1.81740870435218                     0.6        1.22514498233795        41.4992585458087       0.010063111379138        254031.414686751        101331.409037116        288.129007357677      0.0995429523474698       -7.04526489559329                       0 
      -1.81490745372686                     0.6        1.22514502022314         41.499182847042      0.0101993074827515        254031.419863727        101331.409599375         288.12900786452      0.0995427686899335       -7.04526117651966                       0 
      -1.81240620310155                     0.6        1.22514507214098        41.4991007661958      0.0103327976847267        254031.424924126        101331.410166769        288.129008375994      0.0995425697949531       -7.04525718078221                       0 
      -1.80990495247624                     0.6        1.22514511174745         41.499019043973       0.010471972451378        254031.429915365        101331.411824673        288.129008845678      0.0995423718183071       -7.04525321505994                       0 
      -1.80740370185093                     0.6        1.22514511583886        41.4989383562834      0.0106275456694799        254031.434707093        101331.416628406        288.129009194812      0.0995421764908108       -7.04524933592349                       0 
      -1.80490245122561                     0.6        1.22514511993027        41.4988576685937      0.0107831188875818        254031.439498822         101331.42143214        288.129009543946      0.0995419811633146       -7.04524545678703                       0 
       -1.8024012006003                     0.6        1.22514512402168         41.498776980904      0.0109386921056837         254031.44429055        101331.426235873         288.12900989308      0.0995417858358184       -7.04524157765058                       0 
      -1.79989994997499                     0.6         1.2251451281131        41.4986962932143      0.0110942653237856        254031.449082279        101331.431039607        288.129010242213      0.0995415905083221       -7.04523769851412                       0 
      -1.79739869934967                     0.6        1.22514513220451        41.4986156055247      0.0112498385418874        254031.453874007         101331.43584334        288.129010591347      0.0995413951808259       -7.04523381937767                       0 
      -1.79489744872436                     0.6        1.22514513629592         41.498534917835      0.0114054117599893        254031.458665736        101331.440647073        288.129010940481      0.0995411998533297       -7.04522994024121                       0 
      -1.79239619809905                     0.6        1.22514514038733        41.4984542301453      0.0115609849780913        254031.463457464        101331.445450807        288.129011289615      0.0995410045258334       -7.04522606110476                       0 
      -1.78989494747374                     0.6        1.22514514447875        41.4983735424556      0.0117165581961931        254031.468249193         101331.45025454        288.129011638749      0.0995408091983372        -7.0452221819683                       0 
      -1.78739369684842                     0.6        1.22514514857016         41.498292854766      0.0118721314142951        254031.473040921        101331.455058274        288.129011987883       0.099540613870841       -7.04521830283185                       0 
      -1.78489244622311                     0.6        1.22514515266157        41.4982121670763      0.0120277046323969         254031.47783265        101331.459862007        288.129012337017      0.0995404185433447       -7.04521442369539                       0 
       -1.7823911955978                     0.6        1.22514515675299        41.4981314793866      0.0121832778504988        254031.482624379         101331.46466574        288.129012686151      0.0995402232158485       -7.04521054455894                       0 
      -1.77988994497249                     0.6         1.2251451608444         41.498050791697      0.0123388510686007        254031.487416107        101331.469469474        288.129013035285      0.0995400278883523       -7.04520666542248                       0 
      -1.77738869434717                     0.6        1.22514516493581        41.4979701040073      0.0124944242867026        254031.492207836        101331.474273207        288.129013384418       0.099539832560856       -7.04520278628603                       0 
      -1.77488744372186                     0.6        1.22514516902722        41.4978894163176      0.0126499975048045        254031.496999564         101331.47907694        288.129013733552      0.0995396372333598       -7.04519890714957                       0 
      -1.77238619309655                     0.6        1.22514517311864        41.4978087286279      0.0128055707229064        254031.501791293        101331.483880674        288.129014082686      0.0995394419058635       -7.04519502801312                       0 
      -1.76988494247124                     0.6        1.22514517721005        41.4977280409383      0.0129611439410083        254031.506583021        101331.488684407         288.12901443182      0.0995392465783673       -7.04519114887666                       0 
      -1.76738369184592                     0.6        1.22514518130146        41.4976473532486      0.0131167171591102         254031.51137475        101331.493488141        288.129014780954      0.0995390512508711       -7.04518726974021                       0 
      -1.76488244122061                     0.6        1.22514518539287        41.4975666655589      0.0132722903772121        254031.516166478        101331.498291874        288.129015130088      0.0995388559233749       -7.04518339060375                       0 
       -1.7623811905953                     0.6        1.22514521894099        41.4974700078457      0.0134208668610993        254031.521490786         101331.50318278        288.129019268012      0.0995386214520194       -7.04517881028745                       0 
      -1.75987993996998                     0.6        1.22514526874303        41.4973645380293      0.0135655826153304        254031.527108967        101331.508121787        288.129025496555      0.0995383653814644       -7.04517384306696                       0 
      -1.75737868934467                     0.6        1.22514531854506         41.497259068213      0.0137102983695614        254031.532727147        101331.513060794        288.129031725098      0.0995381093109094       -7.04516887584646                       0 
      -1.75487743871936                     0.6         1.2251453683471        41.4971535983966      0.0138550141237925        254031.538345327        101331.517999801         288.12903795364      0.0995378532403544       -7.04516390862597                       0 
      -1.75237618809405                     0.6        1.22514542008584        41.4970495030958      0.0140109111673262        254031.543605127        101331.520881117        288.129043523053      0.0995376001457707       -7.04515895744115                       0 
      -1.74987493746873                     0.6        1.22514547419801        41.4969470922547      0.0141805108065396        254031.548425733        101331.521240746        288.129048284707      0.0995373506982202       -7.04515402590794                       0 
      -1.74737368684342                     0.6        1.22514552831018        41.4968446814136       0.014350110445753        254031.553246339        101331.521600376        288.129053046362      0.0995371012506696       -7.04514909437472                       0 
      -1.74487243621811                     0.6        1.22514558242235        41.4967422705725      0.0145197100849664        254031.558066946        101331.521960006        288.129057808016       0.099536851803119       -7.04514416284151                       0 
       -1.7423711855928                     0.6        1.22514563653452        41.4966398597314      0.0146893097241798        254031.562887552        101331.522319635         288.12906256967      0.0995366023555685        -7.0451392313083                       0 
      -1.73986993496748                     0.6        1.22514569064669        41.4965374488903      0.0148589093633933        254031.567708158        101331.522679265        288.129067331324      0.0995363529080179       -7.04513429977509                       0 
      -1.73736868434217                     0.6        1.22514574475886        41.4964350380492      0.0150285090026067        254031.572528765        101331.523038894        288.129072092979      0.0995361034604674       -7.04512936824188                       0 
      -1.73486743371686                     0.6        1.22514579887103        41.4963326272081      0.0151981086418201        254031.577349371        101331.523398524        288.129076854633      0.0995358540129168       -7.04512443670867                       0 
      -1.73236618309155                     0.6         1.2251458529832         41.496230216367      0.0153677082810335        254031.582169977        101331.523758154        288.129081616287      0.0995356045653663       -7.04511950517546                       0 
      -1.72986493246623                     0.6        1.22514590709537        41.4961278055259      0.0155373079202469        254031.586990584        101331.524117783        288.129086377941      0.0995353551178157       -7.04511457364225                       0 
      -1.72736368184092                     0.6        1.22514596120755        41.4960253946847      0.0157069075594603         254031.59181119        101331.524477413        288.129091139595      0.0995351056702651       -7.04510964210904                       0 
      -1.72486243121561                     0.6        1.22514601531972        41.4959229838436      0.0158765071986737        254031.596631796        101331.524837042         288.12909590125      0.0995348562227146       -7.04510471057583                       0 
       -1.7223611805903                     0.6        1.22514606943189        41.4958205730025      0.0160461068378871        254031.601452403        101331.525196672        288.129100662904       0.099534606775164       -7.04509977904262                       0 