/*--------------------------------*- C++ -*----------------------------------*\
  =========                 |
  \\      /  F ield         | OpenFOAM: The Open Source CFD Toolbox
   \\    /   O peration     | Website:  https://openfoam.org
    \\  /    A nd           | Version:  6
     \\/     M anipulation  |
\*---------------------------------------------------------------------------*/
FoamFile
{
    version     2.0;
    format      ascii;
    class       volVectorField;
    location    "60";
    object      U;
}
// * * * * * * * * * * * * * * * * * * * * * * * * * * * * * * * * * * * * * //

dimensions      [0 1 -1 0 0 0 0];

internalField   nonuniform List<vector> 
4000
(
(400 3.8074e-14 0)
(400 6.25159e-14 0)
(400 7.53901e-14 0)
(400 8.69418e-14 0)
(400 9.49439e-14 0)
(400 9.30822e-14 0)
(400 8.503e-14 0)
(400 9.13096e-14 0)
(400 8.36206e-14 0)
(400 6.87191e-14 0)
(400 6.89575e-14 0)
(400 6.76382e-14 0)
(400 6.06766e-14 0)
(400 5.89746e-14 0)
(400 6.49967e-14 0)
(400 6.52375e-14 0)
(400 3.71852e-14 0)
(400 5.93836e-15 0)
(400 9.65878e-15 0)
(400 3.12045e-14 0)
(400 3.82656e-14 0)
(400 3.67858e-14 0)
(400 5.35568e-14 0)
(400 6.90982e-14 0)
(400 7.60795e-14 0)
(400 8.00498e-14 0)
(400 7.64084e-14 0)
(400 9.16865e-14 0)
(400 9.76229e-14 0)
(400 8.29275e-14 0)
(400 7.38432e-14 0)
(400 5.45498e-14 0)
(400 5.38092e-14 0)
(400 3.84327e-14 0)
(400 1.73955e-14 0)
(400 6.26185e-15 0)
(400 -2.04241e-15 0)
(400 -4.9491e-15 0)
(400 -3.20456e-15 0)
(400 -1.26034e-14 0)
(400 -6.40376e-15 0)
(400 1.69705e-15 0)
(400 -7.77468e-15 0)
(400 -4.38285e-15 0)
(400 -5.0128e-15 0)
(400 -7.00404e-15 0)
(400 -2.3262e-15 0)
(400 4.91317e-15 0)
(400 1.21416e-14 0)
(400 2.06126e-14 0)
(400 2.92263e-14 0)
(400 3.18206e-14 0)
(400 1.67214e-14 0)
(400 7.3469e-15 0)
(400 8.83296e-15 0)
(400 3.01567e-14 0)
(400 2.33814e-14 0)
(400 1.04689e-15 0)
(400 -7.55378e-15 0)
(400 -9.43389e-15 0)
(400 6.77691e-16 0)
(400 8.09433e-15 0)
(400 3.40043e-15 0)
(400 4.61206e-15 0)
(400 -4.12644e-15 0)
(400 -3.51565e-15 0)
(400 1.6215e-15 0)
(400 -8.1695e-15 0)
(400 -1.43277e-14 0)
(400 -3.22203e-14 0)
(400 -3.98183e-14 0)
(400 -3.33088e-14 0)
(400 -2.12357e-14 0)
(400 -7.12681e-15 0)
(400 -3.77447e-15 0)
(400 -1.3266e-14 0)
(400 -3.22128e-14 0)
(400 -3.14165e-14 0)
(400 -2.62867e-14 0)
(400 -4.3478e-14 0)
(400 -4.00667e-14 0)
(400 -1.37175e-14 0)
(400 7.1977e-15 0)
(400 1.75336e-14 0)
(400 6.16826e-15 0)
(400 6.41361e-15 0)
(400 1.37278e-14 0)
(400 1.8083e-14 0)
(400 1.81993e-14 0)
(400 5.87264e-15 0)
(400 2.67786e-15 0)
(400 2.1062e-14 0)
(400 2.04053e-14 0)
(400 1.57662e-14 0)
(400 1.49268e-14 0)
(400 -1.47795e-15 0)
(400 -2.30558e-14 0)
(400 -1.58305e-14 0)
(400 -4.75603e-15 0)
(400 -5.23097e-15 0)
(400 -4.57646e-15 0)
(400 -1.76075e-15 0)
(400 3.06559e-15 0)
(400 1.33576e-14 0)
(400 1.99143e-14 0)
(400 3.11148e-14 0)
(400 5.61566e-14 0)
(400 8.32467e-14 0)
(400 9.04032e-14 0)
(400 8.73166e-14 0)
(400 9.35245e-14 0)
(400 1.13855e-13 0)
(400 1.00045e-13 0)
(400 7.49001e-14 0)
(400 5.45978e-14 0)
(400 4.08298e-14 0)
(400 1.05815e-14 0)
(400 -1.31708e-14 0)
(400 -1.31597e-14 0)
(400 8.08094e-15 0)
(400 1.4674e-14 0)
(400 1.985e-14 0)
(400 1.45231e-14 0)
(400 1.41013e-14 0)
(400 1.23142e-14 0)
(400 1.52755e-14 0)
(400 1.50363e-14 0)
(400 7.58653e-15 0)
(400 1.41623e-15 0)
(400 -5.80013e-15 0)
(400 -8.72508e-15 0)
(400 -1.39704e-14 0)
(400 -7.42219e-15 0)
(400 4.45475e-15 0)
(400 8.23759e-15 0)
(400 1.37628e-14 0)
(400 4.49755e-14 0)
(400 8.16548e-14 0)
(400 6.15036e-14 0)
(400 4.23084e-14 0)
(400 3.82027e-14 0)
(400 3.38234e-14 0)
(400 2.41695e-14 0)
(400 -1.09938e-14 0)
(400 -2.06822e-14 0)
(400 2.88292e-15 0)
(400 2.61502e-14 0)
(400 2.96512e-14 0)
(400 3.66026e-14 0)
(400 3.47324e-14 0)
(400 3.77431e-14 0)
(400 3.15358e-14 0)
(400 1.63603e-14 0)
(400 1.23681e-14 0)
(400 1.75875e-14 0)
(400 1.78077e-14 0)
(400 2.11186e-14 0)
(400 2.04074e-14 0)
(400 8.96907e-15 0)
(400 -6.45365e-15 0)
(400 -3.16839e-14 0)
(400 -3.2827e-14 0)
(400 -3.07259e-14 0)
(400 -3.90442e-14 0)
(400 -5.81375e-14 0)
(400 -6.84691e-14 0)
(400 -8.88329e-14 0)
(400 -1.17571e-13 0)
(400 -1.2636e-13 0)
(400 -1.32931e-13 0)
(400 -1.3826e-13 0)
(400 -1.32072e-13 0)
(400 -1.19659e-13 0)
(400 -9.22816e-14 0)
(400 -7.10605e-14 0)
(400 -5.04376e-14 0)
(400 -2.1564e-14 0)
(400 4.58676e-15 0)
(400 -5.99153e-15 0)
(400 -2.65417e-14 0)
(400 -3.98372e-14 0)
(400 -3.3332e-14 0)
(400 -3.13744e-14 0)
(400 -3.46937e-14 0)
(400 -3.97067e-14 0)
(400 -3.61893e-14 0)
(400 -2.84566e-14 0)
(400 -2.52e-14 0)
(400 -2.39534e-14 0)
(400 -2.57998e-14 0)
(400 -2.33771e-14 0)
(400 -1.19288e-14 0)
(400 5.43733e-15 0)
(400 2.04331e-14 0)
(400 2.36055e-14 0)
(400 2.21401e-14 0)
(400 1.20368e-14 0)
(400 -1.19174e-14 0)
(400 -2.6319e-14 0)
(400 -2.59757e-14 0)
(400 1.20962e-14 0)
(400 2.7751e-14 0)
(400 4.5737e-14 0)
(400 6.04035e-14 0)
(400 6.89911e-14 0)
(400 8.44601e-14 0)
(400 8.62059e-14 0)
(400 9.13839e-14 0)
(400 8.34722e-14 0)
(400 6.83192e-14 0)
(400 4.52934e-14 0)
(400 2.98647e-14 0)
(400 3.82671e-14 0)
(400 5.57329e-14 0)
(400 7.11375e-14 0)
(400 6.28269e-14 0)
(400 5.79317e-14 0)
(400 5.32146e-14 0)
(400 4.08719e-14 0)
(400 4.83145e-14 0)
(400 5.24865e-14 0)
(400 4.58536e-14 0)
(400 3.94793e-14 0)
(400 4.85006e-14 0)
(400 5.61966e-14 0)
(400 6.65015e-14 0)
(400 5.78726e-14 0)
(400 7.05934e-14 0)
(400 7.95037e-14 0)
(400 7.50943e-14 0)
(400 7.23436e-14 0)
(400 6.74634e-14 0)
(400 5.86252e-14 0)
(400 2.51315e-14 0)
(400 1.9861e-14 0)
(400 2.03013e-14 0)
(400 1.68168e-14 0)
(400 9.73223e-15 0)
(400 -2.09756e-15 0)
(400 -3.94235e-15 0)
(400 1.89274e-14 0)
(400 3.71014e-14 0)
(400 3.69333e-14 0)
(400 3.17737e-14 0)
(400 3.82993e-14 0)
(400 3.89848e-14 0)
(400 2.64947e-14 0)
(400 2.82756e-14 0)
(400 3.37328e-14 0)
(400 3.67783e-14 0)
(400 3.6948e-14 0)
(400 3.00077e-14 0)
(400 2.44179e-14 0)
(400 9.16141e-15 0)
(400 5.92083e-15 0)
(400 -2.8351e-15 0)
(400 -7.74687e-15 0)
(400 -1.6663e-14 0)
(400 -2.9726e-14 0)
(400 -3.19288e-14 0)
(400 -2.25721e-14 0)
(400 -3.12185e-15 0)
(400 1.29154e-16 0)
(400 -6.56666e-15 0)
(400 -8.87692e-15 0)
(400 -3.74165e-15 0)
(400 -2.95673e-15 0)
(400 -1.32476e-14 0)
(400 -1.41492e-14 0)
(400 -1.25643e-14 0)
(400 -8.01864e-15 0)
(400 -5.67286e-15 0)
(400 -2.47885e-16 0)
(400 3.31647e-15 0)
(400 5.55285e-15 0)
(400 -8.55135e-16 0)
(400 -4.96102e-15 0)
(400 1.21119e-14 0)
(400 3.24499e-14 0)
(400 4.10628e-14 0)
(400 3.78259e-14 0)
(400 5.30149e-14 0)
(400 5.30338e-14 0)
(400 6.74048e-14 0)
(400 6.59136e-14 0)
(400 5.44339e-14 0)
(400 4.63808e-14 0)
(400 4.17915e-14 0)
(400 3.3423e-14 0)
(400 1.92301e-14 0)
(400 1.05717e-14 0)
(400 2.6996e-14 0)
(400 2.74741e-14 0)
(400 4.4341e-14 0)
(400 4.50668e-14 0)
(400 4.2705e-14 0)
(400 3.36937e-14 0)
(400 3.81334e-14 0)
(400 6.23927e-14 0)
(400 4.80408e-14 0)
(400 4.14044e-14 0)
(400 2.5085e-14 0)
(400 4.44391e-15 0)
(400 -1.9994e-15 0)
(400 -1.00515e-14 0)
(400 -1.04064e-14 0)
(400 1.41859e-15 0)
(400 1.92324e-14 0)
(400 3.52594e-14 0)
(400 2.96773e-14 0)
(400 3.44256e-14 0)
(400 4.30395e-14 0)
(400 2.91622e-14 0)
(400 2.83153e-14 0)
(400 1.67771e-14 0)
(400 -3.44693e-15 0)
(400 -2.54473e-14 0)
(400 -4.42944e-14 0)
(400 -6.33141e-14 0)
(400 -7.25174e-14 0)
(400 -9.19014e-14 0)
(400 -9.59032e-14 0)
(400 -1.0123e-13 0)
(400 -9.93644e-14 0)
(400 -1.10737e-13 0)
(400 -1.22651e-13 0)
(400 -1.11961e-13 0)
(400 -9.70598e-14 0)
(400 -8.24539e-14 0)
(400 -6.95938e-14 0)
(400 -5.26832e-14 0)
(400 -3.15215e-14 0)
(400 -1.37316e-14 0)
(400 -5.62753e-15 0)
(400 5.61113e-15 0)
(400 2.66318e-14 0)
(400 4.58068e-14 0)
(400 6.17054e-14 0)
(400 5.7019e-14 0)
(400 4.92837e-14 0)
(400 6.46157e-14 0)
(400 5.60978e-14 0)
(400 3.94885e-14 0)
(400 1.82199e-14 0)
(400 2.46481e-14 0)
(400 3.83886e-14 0)
(400 2.93083e-14 0)
(400 4.01656e-14 0)
(400 6.67535e-14 0)
(400 8.38334e-14 0)
(400 7.94272e-14 0)
(400 7.1906e-14 0)
(400 7.58657e-14 0)
(400 7.44965e-14 0)
(400 7.11614e-14 0)
(400 6.58439e-14 0)
(400 5.48523e-14 0)
(400 5.07029e-14 0)
(400 5.29605e-14 0)
(400 4.82308e-14 0)
(400 4.15621e-14 0)
(400 3.88036e-14 0)
(400 3.03665e-14 0)
(400 1.61292e-14 0)
(400 9.29756e-15 0)
(400 1.59809e-15 0)
(400 -1.46844e-14 0)
(400 -3.18289e-14 0)
(400 -4.06e-14 0)
(400 -6.17743e-14 0)
(400 -7.11988e-14 0)
(400 -8.54838e-14 0)
(400 -7.8892e-14 0)
(400 -6.46474e-14 0)
(400 -5.69502e-14 0)
(400 -3.07502e-14 0)
(400 -2.62371e-15 0)
(400 8.61558e-15 0)
(400 7.82484e-15 0)
(400 -8.59173e-16 0)
(400 1.13802e-14 0)
(400 1.84894e-14 0)
(400 1.1026e-14 0)
(400 1.55153e-14 0)
(400 3.17789e-14 0)
(400 4.06347e-14 0)
(400 4.67687e-14 0)
(400 5.07437e-14 0)
(400 5.52686e-14 0)
(400 5.06005e-14 0)
(400 4.43635e-14 0)
(400 4.57552e-14 0)
(400 5.10508e-14 0)
(400 5.77859e-14 0)
(400 6.05489e-14 0)
(400 3.88351e-14 0)
(400 1.67189e-14 0)
(400 1.52855e-14 0)
(400 1.35356e-15 0)
(400 -6.47306e-15 0)
(400 -6.85756e-15 0)
(400 4.38619e-15 0)
(400 3.35971e-14 0)
(400 4.88852e-14 0)
(400 5.37394e-14 0)
(400 6.41081e-14 0)
(400 6.85274e-14 0)
(400 6.61703e-14 0)
(400 7.21704e-14 0)
(400 7.1108e-14 0)
(400 4.38122e-14 0)
(400 3.45038e-14 0)
(400 3.32516e-14 0)
(400 4.63524e-14 0)
(400 5.68912e-14 0)
(400 4.82368e-14 0)
(400 3.63692e-14 0)
(400 4.38387e-14 0)
(400 3.18141e-14 0)
(400 1.08785e-14 0)
(400 2.58493e-15 0)
(400 -7.49464e-15 0)
(400 -2.12114e-14 0)
(400 -9.66839e-16 0)
(400 6.76282e-15 0)
(400 1.89389e-14 0)
(400 3.07817e-14 0)
(400 3.20182e-14 0)
(400 2.95682e-14 0)
(400 4.21113e-14 0)
(400 2.83755e-14 0)
(400 5.00355e-15 0)
(400 -1.89886e-14 0)
(400 1.71697e-15 0)
(400 -1.6112e-15 0)
(400 -4.30942e-15 0)
(400 -1.33997e-14 0)
(400 -2.25025e-14 0)
(400 -2.04749e-14 0)
(400 -1.41366e-14 0)
(400 1.38553e-15 0)
(400 2.18864e-14 0)
(400 3.54411e-14 0)
(400 4.53878e-14 0)
(400 4.6394e-14 0)
(400 5.81712e-14 0)
(400 5.52627e-14 0)
(400 4.71644e-14 0)
(400 4.89343e-14 0)
(400 3.55633e-14 0)
(400 3.83134e-14 0)
(400 4.61967e-14 0)
(400 5.36267e-14 0)
(400 2.58994e-14 0)
(400 7.52676e-15 0)
(400 -5.35744e-15 0)
(400 -1.6959e-14 0)
(400 -2.60673e-14 0)
(400 -4.92775e-14 0)
(400 -4.55044e-14 0)
(400 -3.97372e-14 0)
(400 -4.7909e-14 0)
(400 -4.51908e-14 0)
(400 -4.80998e-14 0)
(400 -3.86503e-14 0)
(400 -4.41562e-14 0)
(400 -4.97994e-14 0)
(400 -3.76798e-14 0)
(400 -3.06937e-14 0)
(400 -2.07055e-14 0)
(400 -2.07539e-14 0)
(400 -2.67865e-14 0)
(400 -2.77263e-14 0)
(400 -1.67009e-14 0)
(400 -9.13767e-15 0)
(400 -6.76516e-15 0)
(400 -9.92481e-15 0)
(400 -5.18307e-15 0)
(400 8.43489e-15 0)
(400 2.99016e-14 0)
(400 3.48882e-14 0)
(400 2.87061e-14 0)
(400 3.0838e-14 0)
(400 2.88757e-14 0)
(400 2.857e-14 0)
(400 1.88141e-14 0)
(400 2.27866e-15 0)
(400 -1.14941e-14 0)
(400 -3.24388e-14 0)
(400 -5.11874e-14 0)
(400 -6.02683e-14 0)
(400 -5.49536e-14 0)
(400 -4.67371e-14 0)
(400 -4.2994e-14 0)
(400 -3.28371e-14 0)
(400 -1.73324e-14 0)
(400 -5.78032e-15 0)
(400 3.23938e-15 0)
(400 2.39472e-14 0)
(400 3.32848e-14 0)
(400 3.78249e-14 0)
(400 4.39742e-14 0)
(400 3.47286e-14 0)
(400 1.34497e-14 0)
(400 -1.14431e-15 0)
(400 1.1318e-14 0)
(400 1.99229e-14 0)
(400 4.01183e-14 0)
(400 7.15514e-14 0)
(400 8.17078e-14 0)
(400 8.2796e-14 0)
(400 8.20083e-14 0)
(400 1.01782e-13 0)
(400 8.7211e-14 0)
(400 7.81766e-14 0)
(400 6.25003e-14 0)
(400 5.25216e-14 0)
(400 4.17067e-14 0)
(400 2.13207e-15 0)
(400 -3.94662e-14 0)
(400 -6.10139e-14 0)
(400 -6.6271e-14 0)
(400 -6.9127e-14 0)
(400 -7.42395e-14 0)
(400 -7.69719e-14 0)
(400 -6.85901e-14 0)
(400 -5.98144e-14 0)
(400 -5.38576e-14 0)
(400 -4.10795e-14 0)
(400 -3.08445e-14 0)
(400 -2.47429e-14 0)
(400 1.82185e-15 0)
(400 1.22549e-14 0)
(400 2.38998e-14 0)
(400 3.25532e-14 0)
(400 5.07578e-14 0)
(400 5.58747e-14 0)
(400 3.95157e-14 0)
(400 4.16099e-14 0)
(400 4.52775e-14 0)
(400 5.23867e-14 0)
(400 4.82607e-14 0)
(400 3.17727e-14 0)
(400 3.12895e-14 0)
(400 4.15316e-14 0)
(400 3.07388e-14 0)
(400 1.60154e-14 0)
(400 3.39941e-14 0)
(400 5.20056e-14 0)
(400 6.26332e-14 0)
(400 6.5779e-14 0)
(400 6.14289e-14 0)
(400 6.58094e-14 0)
(400 6.52064e-14 0)
(400 6.38993e-14 0)
(400 6.94137e-14 0)
(400 4.94181e-14 0)
(400 3.76685e-14 0)
(400 4.23284e-14 0)
(400 3.83833e-14 0)
(400 3.30106e-14 0)
(400 2.28258e-14 0)
(400 2.61639e-14 0)
(400 2.48112e-14 0)
(400 2.03059e-14 0)
(400 6.10086e-15 0)
(400 -5.12087e-15 0)
(400 -1.28254e-14 0)
(400 -1.68007e-14 0)
(400 -3.55899e-14 0)
(400 -4.4719e-14 0)
(400 -7.19817e-14 0)
(400 -8.84148e-14 0)
(400 -9.21314e-14 0)
(400 -9.1367e-14 0)
(400 -7.65052e-14 0)
(400 -8.30959e-14 0)
(400 -9.08649e-14 0)
(400 -7.38844e-14 0)
(400 -5.59965e-14 0)
(400 -3.81653e-14 0)
(400 -5.08419e-14 0)
(400 -8.12781e-14 0)
(400 -7.38197e-14 0)
(400 -4.02834e-14 0)
(400 -6.86702e-15 0)
(400 1.60437e-14 0)
(400 2.33166e-14 0)
(400 2.89972e-14 0)
(400 3.93217e-14 0)
(400 5.31882e-14 0)
(400 5.71199e-14 0)
(400 5.30691e-14 0)
(400 5.89159e-14 0)
(400 5.72713e-14 0)
(400 4.72372e-14 0)
(400 3.94191e-14 0)
(400 4.96441e-14 0)
(400 5.18322e-14 0)
(400 4.08307e-14 0)
(400 4.1418e-15 0)
(400 1.31116e-14 0)
(400 3.24118e-14 0)
(400 5.09693e-14 0)
(400 4.92001e-14 0)
(400 3.94015e-14 0)
(400 4.12928e-14 0)
(400 4.10599e-14 0)
(400 4.47896e-14 0)
(400 4.88716e-14 0)
(400 3.27152e-14 0)
(400 2.38561e-14 0)
(400 1.80405e-14 0)
(400 2.33654e-14 0)
(400 1.89749e-14 0)
(400 9.68617e-15 0)
(400 -4.26184e-15 0)
(400 1.13982e-14 0)
(400 1.34989e-14 0)
(400 8.42952e-16 0)
(400 -1.61248e-14 0)
(400 -9.90459e-15 0)
(400 -8.784e-15 0)
(400 -2.95571e-15 0)
(400 -2.07836e-15 0)
(400 -4.73856e-15 0)
(400 1.52478e-14 0)
(400 1.0981e-14 0)
(400 1.0086e-14 0)
(400 2.73944e-14 0)
(400 3.8489e-14 0)
(400 1.71224e-14 0)
(400 1.17247e-14 0)
(400 3.56062e-14 0)
(400 4.85637e-14 0)
(400 5.0234e-14 0)
(400 2.99663e-14 0)
(400 1.40403e-14 0)
(400 3.63328e-14 0)
(400 4.08901e-14 0)
(400 3.96471e-14 0)
(400 4.41576e-14 0)
(400 5.36211e-14 0)
(400 6.38297e-14 0)
(400 6.38316e-14 0)
(400 5.94721e-14 0)
(400 6.71444e-14 0)
(400 6.37684e-14 0)
(400 6.1369e-14 0)
(400 5.65961e-14 0)
(400 5.8367e-14 0)
(400 7.22828e-14 0)
(400 6.93399e-14 0)
(400 5.88107e-14 0)
(400 3.22951e-14 0)
(400 2.00562e-14 0)
(400 8.34128e-15 0)
(400 -6.74052e-15 0)
(400 -2.23481e-14 0)
(400 -1.62457e-14 0)
(400 -1.97612e-14 0)
(400 -5.3075e-14 0)
(400 -6.59705e-14 0)
(400 -7.2103e-14 0)
(400 -6.01729e-14 0)
(400 -5.70042e-14 0)
(400 -6.47019e-14 0)
(400 -4.91956e-14 0)
(400 -3.27349e-14 0)
(400 -2.92045e-14 0)
(400 -1.91811e-14 0)
(400 -2.53951e-14 0)
(400 -2.25435e-14 0)
(400 -1.39951e-14 0)
(400 -3.1789e-15 0)
(400 9.12031e-15 0)
(400 2.28395e-14 0)
(400 3.57116e-14 0)
(400 6.53747e-14 0)
(400 7.73228e-14 0)
(400 6.8522e-14 0)
(400 4.80974e-14 0)
(400 5.91917e-14 0)
(400 7.14925e-14 0)
(400 6.82274e-14 0)
(400 6.10595e-14 0)
(400 6.47734e-14 0)
(400 3.96819e-14 0)
(400 1.19848e-14 0)
(400 -2.19426e-14 0)
(400 -3.0155e-14 0)
(400 -2.94419e-14 0)
(400 -2.826e-14 0)
(400 -3.29084e-14 0)
(400 -2.56285e-14 0)
(400 -1.42237e-14 0)
(400 -1.54008e-14 0)
(400 -7.01335e-15 0)
(400 9.27013e-15 0)
(400 2.57748e-14 0)
(400 3.61165e-14 0)
(400 3.85682e-14 0)
(400 4.44599e-14 0)
(400 4.93223e-14 0)
(400 3.56103e-14 0)
(400 1.75958e-14 0)
(400 1.66705e-14 0)
(400 2.6371e-14 0)
(400 4.51405e-14 0)
(400 4.63943e-14 0)
(400 4.10052e-14 0)
(400 4.68866e-14 0)
(400 6.17773e-14 0)
(400 3.52853e-14 0)
(400 9.38196e-15 0)
(400 -1.71484e-15 0)
(400 3.1182e-15 0)
(400 -3.44263e-15 0)
(400 -2.61416e-14 0)
(400 -5.6325e-14 0)
(400 -7.82306e-14 0)
(400 -9.57652e-14 0)
(400 -1.1279e-13 0)
(400 -1.31414e-13 0)
(400 -1.02669e-13 0)
(400 -8.15983e-14 0)
(400 -7.31882e-14 0)
(400 -6.898e-14 0)
(400 -5.63273e-14 0)
(400 -4.24426e-14 0)
(400 -3.83698e-14 0)
(400 -3.39716e-14 0)
(400 -3.07624e-14 0)
(400 -1.0437e-14 0)
(400 1.02255e-14 0)
(400 2.01903e-14 0)
(400 2.03449e-14 0)
(400 1.18884e-14 0)
(400 2.83457e-14 0)
(400 4.65797e-14 0)
(400 5.15912e-14 0)
(400 5.40599e-14 0)
(400 4.60336e-14 0)
(400 5.79192e-14 0)
(400 6.94512e-14 0)
(400 5.33211e-14 0)
(400 5.47202e-14 0)
(400 4.27619e-14 0)
(400 4.34212e-14 0)
(400 4.7824e-14 0)
(400 4.94401e-14 0)
(400 4.10587e-14 0)
(400 3.46163e-14 0)
(400 4.02396e-14 0)
(400 4.21148e-14 0)
(400 5.47742e-14 0)
(400 7.06727e-14 0)
(400 7.58384e-14 0)
(400 8.05785e-14 0)
(400 8.23126e-14 0)
(400 7.94868e-14 0)
(400 7.23244e-14 0)
(400 7.2557e-14 0)
(400 6.7088e-14 0)
(400 6.00849e-14 0)
(400 4.15809e-14 0)
(400 2.12897e-14 0)
(400 2.95797e-15 0)
(400 1.15702e-15 0)
(400 -7.9653e-15 0)
(400 -1.36186e-14 0)
(400 -2.91952e-14 0)
(400 -5.73259e-14 0)
(400 -7.73485e-14 0)
(400 -7.52095e-14 0)
(400 -7.23244e-14 0)
(400 -7.19523e-14 0)
(400 -6.3915e-14 0)
(400 -3.29066e-14 0)
(400 -1.36826e-14 0)
(400 -1.13358e-14 0)
(400 -1.88259e-14 0)
(400 -2.60415e-14 0)
(400 -1.72056e-14 0)
(400 8.29182e-15 0)
(400 4.84589e-14 0)
(400 7.96208e-14 0)
(400 7.1382e-14 0)
(400 6.12266e-14 0)
(400 6.77051e-14 0)
(400 9.40874e-14 0)
(400 9.03062e-14 0)
(400 6.3709e-14 0)
(400 4.69949e-14 0)
(400 2.83296e-14 0)
(400 3.01629e-14 0)
(400 2.59872e-14 0)
(400 1.40566e-14 0)
(400 1.1999e-14 0)
(400 1.08872e-14 0)
(400 1.32756e-14 0)
(400 2.36346e-14 0)
(400 1.78036e-14 0)
(400 2.1505e-14 0)
(400 2.74769e-14 0)
(400 2.77932e-14 0)
(400 2.46495e-14 0)
(400 3.02018e-14 0)
(400 2.54223e-14 0)
(400 2.56849e-14 0)
(400 1.89829e-14 0)
(400 1.07525e-14 0)
(400 2.0745e-14 0)
(400 2.77521e-14 0)
(400 1.99613e-14 0)
(400 7.32932e-16 0)
(400 -2.09301e-16 0)
(400 -1.21117e-15 0)
(400 -7.27892e-15 0)
(400 -1.46904e-14 0)
(400 -2.33329e-14 0)
(400 -1.99264e-14 0)
(400 -1.96424e-14 0)
(400 -2.89774e-14 0)
(400 -2.46224e-14 0)
(400 -2.77211e-14 0)
(400 -2.30682e-14 0)
(400 -2.35373e-14 0)
(400 -2.33431e-14 0)
(400 -2.98639e-14 0)
(400 -1.90916e-14 0)
(400 -1.52949e-14 0)
(400 -1.4478e-15 0)
(400 -6.72091e-16 0)
(400 1.52606e-14 0)
(400 1.85223e-14 0)
(400 2.06385e-14 0)
(400 1.91379e-14 0)
(400 2.68041e-14 0)
(400 3.38773e-14 0)
(400 3.81161e-14 0)
(400 2.83273e-14 0)
(400 2.5968e-14 0)
(400 1.54709e-14 0)
(400 1.52764e-14 0)
(400 1.46994e-14 0)
(400 1.87984e-14 0)
(400 2.45956e-14 0)
(400 1.8127e-14 0)
(400 1.76018e-14 0)
(400 2.23883e-14 0)
(400 1.50359e-14 0)
(400 1.84768e-14 0)
(400 3.35091e-14 0)
(400 1.92987e-14 0)
(400 1.92309e-14 0)
(400 2.37896e-14 0)
(400 1.22845e-14 0)
(400 2.3751e-14 0)
(400 1.60634e-14 0)
(400 5.43549e-15 0)
(400 -2.11056e-15 0)
(400 -1.52683e-14 0)
(400 -1.96188e-14 0)
(400 -3.67873e-14 0)
(400 -3.01944e-14 0)
(400 -2.07089e-14 0)
(400 -2.33166e-14 0)
(400 -3.21823e-14 0)
(400 -4.72464e-14 0)
(400 -3.35042e-14 0)
(400 -2.90461e-14 0)
(400 -2.05847e-14 0)
(400 -1.72577e-14 0)
(400 1.66903e-15 0)
(400 3.31327e-14 0)
(400 5.63141e-14 0)
(400 6.30482e-14 0)
(400 6.71634e-14 0)
(400 5.76245e-14 0)
(400 3.08031e-14 0)
(400 1.72754e-14 0)
(400 1.93407e-14 0)
(400 2.55628e-14 0)
(400 2.51571e-14 0)
(400 2.19915e-14 0)
(400 1.423e-14 0)
(400 -4.29899e-15 0)
(400 -1.00724e-14 0)
(400 -2.52501e-14 0)
(400 -2.90777e-14 0)
(400 -3.28508e-14 0)
(400 -3.13463e-14 0)
(400 -2.17481e-14 0)
(400 -2.24572e-14 0)
(400 -3.12975e-14 0)
(400 -3.01228e-14 0)
(400 -2.10433e-14 0)
(400 -2.11766e-15 0)
(400 1.62663e-14 0)
(400 2.41057e-14 0)
(400 4.37387e-14 0)
(400 6.73848e-14 0)
(400 7.91944e-14 0)
(400 7.99292e-14 0)
(400 6.36768e-14 0)
(400 6.36854e-14 0)
(400 7.17509e-14 0)
(400 6.97956e-14 0)
(400 6.42867e-14 0)
(400 6.82489e-14 0)
(400 6.63239e-14 0)
(400 6.25252e-14 0)
(400 6.47362e-14 0)
(400 3.97124e-14 0)
(400 2.68397e-14 0)
(400 3.16029e-14 0)
(400 2.21907e-14 0)
(400 1.41896e-14 0)
(400 8.21513e-16 0)
(400 -1.3645e-14 0)
(400 -3.82589e-14 0)
(400 -7.54032e-14 0)
(400 -9.15007e-14 0)
(400 -9.03585e-14 0)
(400 -9.21316e-14 0)
(400 -8.76793e-14 0)
(400 -8.13314e-14 0)
(400 -7.65154e-14 0)
(400 -7.21002e-14 0)
(400 -7.05578e-14 0)
(400 -7.51851e-14 0)
(400 -7.25301e-14 0)
(400 -6.2997e-14 0)
(400 -5.26733e-14 0)
(400 -5.16367e-14 0)
(400 -5.39305e-14 0)
(400 -4.22656e-14 0)
(400 -3.97207e-14 0)
(400 -1.67285e-14 0)
(400 -8.34246e-16 0)
(400 7.11172e-15 0)
(400 1.29631e-14 0)
(400 3.14127e-14 0)
(400 4.47811e-14 0)
(400 5.58908e-14 0)
(400 6.37206e-14 0)
(400 4.52344e-14 0)
(400 3.02729e-14 0)
(400 2.41762e-14 0)
(400 3.0133e-14 0)
(400 3.1053e-14 0)
(400 2.57068e-14 0)
(400 2.62475e-14 0)
(400 3.58908e-14 0)
(400 3.95374e-14 0)
(400 5.34925e-14 0)
(400 7.37148e-14 0)
(400 8.07456e-14 0)
(400 9.24353e-14 0)
(400 1.10457e-13 0)
(400 1.08477e-13 0)
(400 9.69169e-14 0)
(400 9.466e-14 0)
(400 8.5679e-14 0)
(400 7.53446e-14 0)
(400 6.19659e-14 0)
(400 4.71346e-14 0)
(400 3.25603e-14 0)
(400 3.23553e-14 0)
(400 1.68212e-14 0)
(400 7.33284e-15 0)
(400 -1.36877e-14 0)
(400 -2.96289e-14 0)
(400 -2.12722e-14 0)
(400 -3.68353e-14 0)
(400 -4.81569e-14 0)
(400 -3.65889e-14 0)
(400 -2.94187e-14 0)
(400 -2.05939e-14 0)
(400 -2.58522e-14 0)
(400 -3.57547e-14 0)
(400 -9.8398e-15 0)
(400 1.46186e-15 0)
(400 1.04314e-14 0)
(400 1.33586e-14 0)
(400 1.59909e-14 0)
(400 1.40416e-14 0)
(400 2.56766e-14 0)
(400 3.96291e-14 0)
(400 4.54919e-14 0)
(400 3.27774e-14 0)
(400 3.73225e-14 0)
(400 3.00941e-14 0)
(400 6.37919e-15 0)
(400 5.08369e-15 0)
(400 1.12211e-14 0)
(400 6.81034e-15 0)
(400 1.27809e-14 0)
(400 1.74602e-14 0)
(400 1.44877e-14 0)
(400 1.01045e-14 0)
(400 -2.74545e-15 0)
(400 1.38383e-15 0)
(400 1.28885e-14 0)
(400 1.69629e-14 0)
(400 -2.32384e-17 0)
(400 -1.68251e-14 0)
(400 -2.46821e-14 0)
(400 -3.08988e-14 0)
(400 -2.57436e-14 0)
(400 -1.97387e-14 0)
(400 -7.25039e-15 0)
(400 -9.38521e-15 0)
(400 -1.80164e-14 0)
(400 -2.7067e-14 0)
(400 -1.85297e-14 0)
(400 -2.85988e-15 0)
(400 -4.00832e-15 0)
(400 -2.12309e-14 0)
(400 -3.05764e-14 0)
(400 -4.24438e-14 0)
(400 -4.19464e-14 0)
(400 -5.69507e-14 0)
(400 -6.07523e-14 0)
(400 -5.76159e-14 0)
(400 -7.23404e-14 0)
(400 -6.09126e-14 0)
(400 -4.44976e-14 0)
(400 -4.52904e-14 0)
(400 -3.81318e-14 0)
(400 -1.65874e-14 0)
(400 1.77687e-16 0)
(400 1.76777e-14 0)
(400 2.68598e-14 0)
(400 1.96237e-14 0)
(400 2.13259e-14 0)
(400 3.5029e-14 0)
(400 2.80943e-14 0)
(400 2.10487e-14 0)
(400 2.58043e-14 0)
(400 1.87966e-14 0)
(400 1.33203e-14 0)
(400 2.47469e-15 0)
(400 4.53164e-15 0)
(400 1.11821e-14 0)
(400 7.72557e-15 0)
(400 8.19656e-15 0)
(400 4.7426e-15 0)
(400 1.62768e-15 0)
(400 9.36552e-15 0)
(400 -5.21093e-15 0)
(400 2.02325e-15 0)
(400 1.09809e-14 0)
(400 1.21994e-14 0)
(400 9.4607e-15 0)
(400 8.83466e-15 0)
(400 9.40609e-15 0)
(400 6.46226e-15 0)
(400 1.39214e-17 0)
(400 -1.02408e-14 0)
(400 -1.52806e-14 0)
(400 -1.93976e-14 0)
(400 -1.1949e-14 0)
(400 -1.96319e-14 0)
(400 -1.6563e-14 0)
(400 -5.97041e-15 0)
(400 5.59597e-15 0)
(400 -1.1858e-14 0)
(400 -1.35421e-14 0)
(400 -2.01986e-14 0)
(400 -1.13834e-14 0)
(400 5.59787e-16 0)
(400 1.80194e-14 0)
(400 3.94869e-14 0)
(400 5.93644e-14 0)
(400 6.02626e-14 0)
(400 6.80625e-14 0)
(400 5.89466e-14 0)
(400 5.15213e-14 0)
(400 4.97174e-14 0)
(400 4.90229e-14 0)
(400 4.40286e-14 0)
(400 1.51251e-14 0)
(400 2.65847e-15 0)
(400 9.96017e-15 0)
(400 -4.12049e-15 0)
(400 3.01065e-16 0)
(400 6.40447e-15 0)
(400 2.2632e-14 0)
(400 2.49461e-14 0)
(400 1.75559e-14 0)
(400 1.81787e-14 0)
(400 4.90677e-15 0)
(400 -1.25729e-14 0)
(400 -3.59139e-14 0)
(400 -2.8043e-14 0)
(400 -1.69836e-14 0)
(400 -3.04628e-14 0)
(400 -2.3918e-14 0)
(400 -1.76369e-14 0)
(400 4.944e-15 0)
(400 3.08008e-14 0)
(400 2.28458e-14 0)
(400 2.53395e-14 0)
(400 2.7863e-14 0)
(400 2.445e-14 0)
(400 2.67853e-14 0)
(400 1.87693e-14 0)
(400 1.89453e-14 0)
(400 1.79364e-14 0)
(400 7.2664e-15 0)
(400 -2.25049e-15 0)
(400 5.19577e-15 0)
(400 2.62211e-15 0)
(400 3.60115e-15 0)
(400 2.48052e-15 0)
(400 3.25402e-15 0)
(400 -5.7436e-15 0)
(400 -1.057e-14 0)
(400 -5.26725e-15 0)
(400 -1.34961e-14 0)
(400 -2.79453e-14 0)
(400 -3.73932e-14 0)
(400 -6.30777e-14 0)
(400 -6.37283e-14 0)
(400 -5.6888e-14 0)
(400 -4.52364e-14 0)
(400 -4.11021e-14 0)
(400 -4.14806e-14 0)
(400 -3.73777e-14 0)
(400 -3.22632e-14 0)
(400 -3.86525e-14 0)
(400 -2.94072e-14 0)
(400 -2.50925e-14 0)
(400 -3.41535e-14 0)
(400 -3.45378e-14 0)
(400 -1.8593e-14 0)
(400 -2.9649e-14 0)
(400 -1.66298e-14 0)
(400 -1.0507e-14 0)
(400 -1.25629e-16 0)
(400 1.94535e-14 0)
(400 3.43556e-14 0)
(400 2.6983e-14 0)
(400 4.09926e-14 0)
(400 4.81785e-14 0)
(400 2.17903e-14 0)
(400 -7.8896e-15 0)
(400 -1.11359e-14 0)
(400 7.90976e-15 0)
(400 2.54805e-14 0)
(400 3.39225e-14 0)
(400 3.93556e-14 0)
(400 2.72407e-14 0)
(400 2.18e-14 0)
(400 2.1146e-14 0)
(400 1.94309e-14 0)
(400 1.33939e-14 0)
(400 1.56129e-14 0)
(400 2.85867e-14 0)
(400 3.68354e-14 0)
(400 4.26523e-14 0)
(400 3.90218e-14 0)
(400 4.29431e-14 0)
(400 3.70795e-14 0)
(400 3.12705e-14 0)
(400 3.4898e-14 0)
(400 1.57631e-14 0)
(400 1.62441e-14 0)
(400 1.08893e-14 0)
(400 7.71174e-15 0)
(400 -1.17598e-14 0)
(400 -2.4114e-14 0)
(400 -3.17863e-14 0)
(400 -6.08617e-14 0)
(400 -6.13387e-14 0)
(400 -4.44235e-14 0)
(400 -5.92962e-14 0)
(400 -5.75796e-14 0)
(400 -5.71465e-14 0)
(400 -5.71277e-14 0)
(400 -9.66721e-15 0)
(400 2.71875e-14 0)
(400 3.62382e-14 0)
(400 1.54008e-14 0)
(400 -4.59432e-15 0)
(400 1.59574e-14 0)
(400 4.12839e-14 0)
(400 7.26517e-14 0)
(400 6.7684e-14 0)
(400 7.46179e-14 0)
(400 9.66984e-14 0)
(400 1.03076e-13 0)
(400 1.02522e-13 0)
(400 8.74176e-14 0)
(400 8.9067e-14 0)
(400 8.89536e-14 0)
(400 7.85503e-14 0)
(400 6.85143e-14 0)
(400 -1.75607e-14 0)
(400 -4.54795e-14 0)
(400 -4.34908e-14 0)
(400 -3.46895e-14 0)
(400 -2.84356e-14 0)
(400 -4.01282e-14 0)
(400 -4.3345e-14 0)
(400 -4.94505e-14 0)
(400 -5.36953e-14 0)
(400 -4.67946e-14 0)
(400 -3.78458e-14 0)
(400 -3.92729e-14 0)
(400 -4.06333e-14 0)
(400 -3.78019e-14 0)
(400 -4.37141e-14 0)
(400 -3.58633e-14 0)
(400 -1.45289e-14 0)
(400 1.13907e-15 0)
(400 4.59025e-15 0)
(400 7.88112e-15 0)
(400 5.5354e-15 0)
(400 7.43616e-15 0)
(400 1.41563e-14 0)
(400 -4.44708e-15 0)
(400 -2.61293e-14 0)
(400 -2.21348e-14 0)
(400 -3.29349e-14 0)
(400 -3.59332e-14 0)
(400 -4.66411e-14 0)
(400 -4.04187e-14 0)
(400 -1.86806e-14 0)
(400 2.46591e-14 0)
(400 4.43156e-14 0)
(400 5.13451e-14 0)
(400 6.45261e-14 0)
(400 7.26297e-14 0)
(400 5.79022e-14 0)
(400 4.72877e-14 0)
(400 2.74911e-14 0)
(400 8.24973e-15 0)
(400 -8.94603e-15 0)
(400 -2.2999e-14 0)
(400 -3.89988e-14 0)
(400 -6.63005e-14 0)
(400 -6.30915e-14 0)
(400 -5.65645e-14 0)
(400 -4.68857e-14 0)
(400 -3.53969e-14 0)
(400 -2.18881e-14 0)
(400 -1.56912e-15 0)
(400 6.9621e-15 0)
(400 1.26095e-14 0)
(400 8.48445e-15 0)
(400 -2.48944e-16 0)
(400 1.34951e-14 0)
(400 4.42931e-16 0)
(400 -2.02684e-14 0)
(400 -1.37034e-14 0)
(400 -5.30779e-15 0)
(400 -2.25594e-15 0)
(400 -2.29846e-15 0)
(400 -1.16889e-14 0)
(400 -2.06658e-14 0)
(400 -2.06706e-14 0)
(400 1.64887e-15 0)
(400 1.47286e-14 0)
(400 3.66514e-14 0)
(400 4.53213e-14 0)
(400 4.11802e-14 0)
(400 3.8936e-14 0)
(400 2.58354e-14 0)
(400 4.00281e-14 0)
(400 5.97851e-14 0)
(400 6.68562e-14 0)
(400 7.85051e-14 0)
(400 7.56319e-14 0)
(400 6.44332e-14 0)
(400 6.42294e-14 0)
(400 5.59232e-14 0)
(400 5.15353e-14 0)
(400 5.16235e-14 0)
(400 5.12903e-14 0)
(400 4.02666e-14 0)
(400 2.11873e-14 0)
(400 3.45471e-15 0)
(400 -1.96844e-14 0)
(400 -2.03051e-14 0)
(400 2.51345e-15 0)
(400 1.68581e-14 0)
(400 3.23649e-14 0)
(400 3.28014e-14 0)
(400 3.14631e-14 0)
(400 2.97645e-14 0)
(400 2.05768e-14 0)
(400 7.97561e-15 0)
(400 -6.58102e-15 0)
(400 -5.33893e-16 0)
(400 -6.17284e-15 0)
(400 -7.12065e-15 0)
(400 -1.19305e-15 0)
(400 1.47144e-14 0)
(400 2.5939e-14 0)
(400 3.92085e-14 0)
(400 5.65842e-14 0)
(400 5.92376e-14 0)
(400 6.14848e-14 0)
(400 5.65782e-14 0)
(400 4.54731e-14 0)
(400 3.36216e-14 0)
(400 2.90737e-14 0)
(400 1.87211e-14 0)
(400 1.21118e-14 0)
(400 3.14639e-15 0)
(400 -1.94361e-15 0)
(400 -2.03801e-14 0)
(400 -3.18916e-14 0)
(400 -3.16199e-14 0)
(400 -3.87165e-14 0)
(400 -4.92939e-14 0)
(400 -6.39278e-14 0)
(400 -6.81043e-14 0)
(400 -6.49196e-14 0)
(400 -6.04013e-14 0)
(400 -6.06968e-14 0)
(400 -7.65433e-14 0)
(400 -7.83953e-14 0)
(400 -7.03996e-14 0)
(400 -6.42223e-14 0)
(400 -5.43931e-14 0)
(400 -6.2362e-14 0)
(400 -6.23347e-14 0)
(400 -6.4022e-14 0)
(400 -8.46842e-14 0)
(400 -8.97379e-14 0)
(400 -8.34718e-14 0)
(400 -7.79333e-14 0)
(400 -5.18249e-14 0)
(400 -4.69013e-14 0)
(400 -3.76333e-14 0)
(400 -3.87325e-14 0)
(400 -3.48528e-14 0)
(400 -3.16957e-16 0)
(400 2.59321e-14 0)
(400 4.59283e-14 0)
(400 2.94386e-14 0)
(400 3.0563e-14 0)
(400 3.62362e-14 0)
(400 1.55495e-14 0)
(400 4.32311e-16 0)
(400 5.82312e-15 0)
(400 2.04946e-14 0)
(400 3.9411e-14 0)
(400 3.87176e-14 0)
(400 5.15719e-14 0)
(400 4.30049e-14 0)
(400 5.31215e-14 0)
(400 7.58418e-14 0)
(400 6.28038e-14 0)
(400 5.86313e-14 0)
(400 5.61613e-14 0)
(400 6.07868e-14 0)
(400 7.29631e-14 0)
(400 9.06554e-14 0)
(400 7.68656e-14 0)
(400 7.26493e-14 0)
(400 7.0752e-14 0)
(400 6.79866e-14 0)
(400 6.32682e-14 0)
(400 5.13728e-14 0)
(400 4.59187e-14 0)
(400 4.78136e-14 0)
(400 3.82387e-14 0)
(400 2.65099e-14 0)
(400 9.16309e-16 0)
(400 -2.75267e-14 0)
(400 -4.24531e-14 0)
(400 -3.79221e-14 0)
(400 -4.90026e-14 0)
(400 -5.21886e-14 0)
(400 -4.82491e-14 0)
(400 -4.85227e-14 0)
(400 -3.56447e-14 0)
(400 -1.89111e-14 0)
(400 -3.93773e-15 0)
(400 -1.69072e-14 0)
(400 -2.21107e-14 0)
(400 -3.15358e-14 0)
(400 -1.99728e-14 0)
(400 -2.0146e-14 0)
(400 -1.57071e-14 0)
(400 -7.6157e-15 0)
(400 1.48092e-14 0)
(400 1.10769e-14 0)
(400 1.42906e-14 0)
(400 2.18516e-14 0)
(400 1.99538e-14 0)
(400 1.04885e-14 0)
(400 -3.6398e-15 0)
(400 -5.13853e-15 0)
(400 8.30281e-15 0)
(400 -2.66064e-14 0)
(400 -4.11508e-14 0)
(400 -4.93263e-14 0)
(400 -5.40522e-14 0)
(400 -5.35358e-14 0)
(400 -6.96337e-14 0)
(400 -6.57394e-14 0)
(400 -5.56266e-14 0)
(400 -5.53206e-14 0)
(400 -5.01506e-14 0)
(400 -5.13817e-14 0)
(400 -7.16247e-14 0)
(400 -7.93325e-14 0)
(400 -7.8316e-14 0)
(400 -8.01089e-14 0)
(400 -6.55026e-14 0)
(400 -5.25529e-14 0)
(400 -6.3164e-14 0)
(400 -5.48818e-14 0)
(400 -3.79277e-14 0)
(400 -3.35764e-15 0)
(400 1.47762e-14 0)
(400 1.63504e-14 0)
(400 1.80633e-15 0)
(400 -1.25444e-15 0)
(400 5.64437e-15 0)
(400 7.57409e-15 0)
(400 -1.39659e-14 0)
(400 -3.97276e-14 0)
(400 -3.10081e-14 0)
(400 -1.14152e-14 0)
(400 1.57412e-14 0)
(400 2.51837e-14 0)
(400 2.78242e-14 0)
(400 3.8426e-14 0)
(400 3.60751e-14 0)
(400 2.00809e-14 0)
(400 1.12514e-14 0)
(400 1.07889e-14 0)
(400 1.03437e-14 0)
(400 -1.31984e-14 0)
(400 -1.87754e-14 0)
(400 -2.95776e-14 0)
(400 -4.76151e-14 0)
(400 -6.12226e-14 0)