TITLE = "Visualization of the volumetric solution"
VARIABLES = "x","y","Adjoint_Density","Adjoint_Momentum_x","Adjoint_Momentum_y","Adjoint_Energy","Sensitivity_x","Sensitivity_y","Surface_Sensitivity"
ZONE NODES= 3200, ELEMENTS= 3081, DATAPACKING=POINT, ZONETYPE=FEQUADRILATERAL
1.000000e+00	1.250000e+00	-2.075054e-17	1.011511e-20	3.189679e-19	7.265962e-23	0.000000e+00	0.000000e+00	0.000000e+00	
1.000000e+00	1.218354e+00	-1.772241e-17	5.833607e-21	2.912597e-19	6.607122e-23	0.000000e+00	0.000000e+00	0.000000e+00	
1.051282e+00	1.218354e+00	-1.207521e-17	4.242965e-20	-3.188020e-20	5.438708e-23	0.000000e+00	0.000000e+00	0.000000e+00	
1.051282e+00	1.250000e+00	-1.456610e-17	6.943173e-20	-3.330227e-20	5.321119e-23	0.000000e+00	0.000000e+00	0.000000e+00	
1.000000e+00	1.186709e+00	-1.722196e-17	6.246554e-21	3.051333e-19	6.058043e-23	0.000000e+00	0.000000e+00	0.000000e+00	
1.051282e+00	1.186709e+00	-1.193908e-17	3.201297e-20	-3.262888e-20	5.165891e-23	0.000000e+00	0.000000e+00	0.000000e+00	
1.000000e+00	1.155063e+00	-1.679502e-17	5.857946e-21	3.152425e-19	5.672174e-23	0.000000e+00	0.000000e+00	0.000000e+00	
1.051282e+00	1.155063e+00	-1.155351e-17	2.216611e-20	-4.015599e-20	4.922383e-23	0.000000e+00	0.000000e+00	0.000000e+00	
1.000000e+00	1.123418e+00	-1.654237e-17	5.296998e-21	3.240542e-19	5.291245e-23	0.000000e+00	0.000000e+00	0.000000e+00	
1.051282e+00	1.123418e+00	-1.111620e-17	1.355864e-20	-5.007497e-20	4.583135e-23	0.000000e+00	0.000000e+00	0.000000e+00	
1.000000e+00	1.091772e+00	-1.636039e-17	3.994203e-21	3.295509e-19	5.016295e-23	0.000000e+00	0.000000e+00	0.000000e+00	
1.051282e+00	1.091772e+00	-1.058073e-17	3.428963e-21	-6.306251e-20	4.238780e-23	0.000000e+00	0.000000e+00	0.000000e+00	
1.000000e+00	1.060127e+00	-1.618539e-17	2.031207e-21	3.314512e-19	4.758001e-23	0.000000e+00	0.000000e+00	0.000000e+00	
1.051282e+00	1.060127e+00	-9.972727e-18	-8.110227e-21	-7.773833e-20	3.851971e-23	0.000000e+00	0.000000e+00	0.000000e+00	
1.000000e+00	1.028481e+00	-1.599003e-17	-3.005078e-22	3.286825e-19	4.541878e-23	0.000000e+00	0.000000e+00	0.000000e+00	
1.051282e+00	1.028481e+00	-9.343650e-18	-1.963251e-20	-9.380359e-20	3.466916e-23	0.000000e+00	0.000000e+00	0.000000e+00	
1.000000e+00	9.968354e-01	-1.577686e-17	-2.737537e-21	3.217622e-19	4.350940e-23	0.000000e+00	0.000000e+00	0.000000e+00	
1.051282e+00	9.968354e-01	-8.774588e-18	-2.891640e-20	-1.099485e-19	3.083826e-23	0.000000e+00	0.000000e+00	0.000000e+00	
1.000000e+00	9.651899e-01	-1.556207e-17	-5.009598e-21	3.119033e-19	4.196666e-23	0.000000e+00	0.000000e+00	0.000000e+00	
1.051282e+00	9.651899e-01	-8.327967e-18	-3.427073e-20	-1.249880e-19	2.726988e-23	0.000000e+00	0.000000e+00	0.000000e+00	
1.000000e+00	9.335443e-01	-1.536358e-17	-7.004869e-21	3.010467e-19	4.072185e-23	0.000000e+00	0.000000e+00	0.000000e+00	
1.051282e+00	9.335443e-01	-8.024330e-18	-3.529117e-20	-1.375564e-19	2.397047e-23	0.000000e+00	0.000000e+00	0.000000e+00	
1.000000e+00	9.018987e-01	-1.519572e-17	-8.696904e-21	2.909133e-19	3.975110e-23	0.000000e+00	0.000000e+00	0.000000e+00	
1.051282e+00	9.018987e-01	-7.832804e-18	-3.302545e-20	-1.467601e-19	2.094075e-23	0.000000e+00	0.000000e+00	0.000000e+00	
1.000000e+00	8.702532e-01	-1.506500e-17	-1.016249e-20	2.825416e-19	3.895499e-23	0.000000e+00	0.000000e+00	0.000000e+00	
1.051282e+00	8.702532e-01	-7.682932e-18	-2.959562e-20	-1.522445e-19	1.804931e-23	0.000000e+00	0.000000e+00	0.000000e+00	
1.000000e+00	8.386076e-01	-1.496947e-17	-1.151230e-20	2.758659e-19	3.825844e-23	0.000000e+00	0.000000e+00	0.000000e+00	
1.051282e+00	8.386076e-01	-7.487782e-18	-2.747298e-20	-1.543713e-19	1.515864e-23	0.000000e+00	0.000000e+00	0.000000e+00	
1.000000e+00	8.069620e-01	-1.489958e-17	-1.286142e-20	2.697761e-19	3.759636e-23	0.000000e+00	0.000000e+00	0.000000e+00	
1.051282e+00	8.069620e-01	-7.170970e-18	-2.870153e-20	-1.540428e-19	1.213036e-23	0.000000e+00	0.000000e+00	0.000000e+00	
1.000000e+00	7.753165e-01	-1.484116e-17	-1.428276e-20	2.624303e-19	3.695884e-23	0.000000e+00	0.000000e+00	0.000000e+00	
1.051282e+00	7.753165e-01	-6.688555e-18	-3.428835e-20	-1.524617e-19	8.900019e-24	0.000000e+00	0.000000e+00	0.000000e+00	
1.000000e+00	7.436709e-01	-1.477892e-17	-1.579080e-20	2.518102e-19	3.638418e-23	0.000000e+00	0.000000e+00	0.000000e+00	
1.051282e+00	7.436709e-01	-6.040142e-18	-4.393517e-20	-1.507681e-19	5.487525e-24	0.000000e+00	0.000000e+00	0.000000e+00	
1.000000e+00	7.120253e-01	-1.469957e-17	-1.733609e-20	2.362880e-19	3.595725e-23	0.000000e+00	0.000000e+00	0.000000e+00	
1.051282e+00	7.120253e-01	-5.267142e-18	-5.614107e-20	-1.497366e-19	2.008216e-24	0.000000e+00	0.000000e+00	0.000000e+00	
1.000000e+00	6.803797e-01	-1.459380e-17	-1.882004e-20	2.150866e-19	3.578090e-23	0.000000e+00	0.000000e+00	0.000000e+00	
1.051282e+00	6.803797e-01	-4.440397e-18	-6.860596e-20	-1.495723e-19	-1.354950e-24	0.000000e+00	0.000000e+00	0.000000e+00	
1.000000e+00	6.487342e-01	-1.445694e-17	-2.011423e-20	1.885138e-19	3.594719e-23	0.000000e+00	0.000000e+00	0.000000e+00	
1.051282e+00	6.487342e-01	-3.642166e-18	-7.877923e-20	-1.498776e-19	-4.385100e-24	0.000000e+00	0.000000e+00	0.000000e+00	
1.000000e+00	6.170886e-01	-1.428842e-17	-2.108109e-20	1.579580e-19	3.650495e-23	0.000000e+00	0.000000e+00	0.000000e+00	
1.051282e+00	6.170886e-01	-2.948040e-18	-8.439473e-20	-1.497703e-19	-6.875456e-24	0.000000e+00	0.000000e+00	0.000000e+00	
1.000000e+00	5.854430e-01	-1.409073e-17	-2.158910e-20	1.256767e-19	3.743817e-23	0.000000e+00	0.000000e+00	0.000000e+00	
1.051282e+00	5.854430e-01	-2.413030e-18	-8.387434e-20	-1.481205e-19	-8.665433e-24	0.000000e+00	0.000000e+00	0.000000e+00	
1.000000e+00	5.537975e-01	-1.386818e-17	-2.152522e-20	9.445598e-20	3.865611e-23	0.000000e+00	0.000000e+00	0.000000e+00	
1.051282e+00	5.537975e-01	-2.063649e-18	-7.655494e-20	-1.438356e-19	-9.668298e-24	0.000000e+00	0.000000e+00	0.000000e+00	
1.000000e+00	5.221519e-01	-1.362585e-17	-2.080645e-20	6.721104e-20	3.999952e-23	0.000000e+00	0.000000e+00	0.000000e+00	
1.051282e+00	5.221519e-01	-1.895763e-18	-6.275013e-20	-1.361352e-19	-9.884751e-24	0.000000e+00	0.000000e+00	0.000000e+00	
1.000000e+00	4.905063e-01	-1.336890e-17	-1.939413e-20	4.658821e-20	4.126027e-23	0.000000e+00	0.000000e+00	0.000000e+00	
1.051282e+00	4.905063e-01	-1.876870e-18	-4.368650e-20	-1.247631e-19	-9.404634e-24	0.000000e+00	0.000000e+00	0.000000e+00	
1.000000e+00	4.588608e-01	-1.310201e-17	-1.730962e-20	3.460583e-20	4.221162e-23	0.000000e+00	0.000000e+00	0.000000e+00	
1.051282e+00	4.588608e-01	-1.951438e-18	-2.134981e-20	-1.101066e-19	-8.396868e-24	0.000000e+00	0.000000e+00	0.000000e+00	
1.000000e+00	4.272152e-01	-1.282914e-17	-1.464750e-20	3.236345e-20	4.264364e-23	0.000000e+00	0.000000e+00	0.000000e+00	
1.051282e+00	4.272152e-01	-2.048524e-18	1.741801e-21	-9.320823e-20	-7.089858e-24	0.000000e+00	0.000000e+00	0.000000e+00	
1.000000e+00	3.955696e-01	-1.255335e-17	-1.157971e-20	3.984829e-20	4.239815e-23	0.000000e+00	0.000000e+00	0.000000e+00	
1.051282e+00	3.955696e-01	-2.091350e-18	2.283380e-20	-7.566894e-20	-5.743543e-24	0.000000e+00	0.000000e+00	0.000000e+00	
1.000000e+00	3.639241e-01	-1.227684e-17	-8.345271e-21	5.587145e-20	4.139737e-23	0.000000e+00	0.000000e+00	0.000000e+00	
1.051282e+00	3.639241e-01	-2.008457e-18	3.929192e-20	-5.945564e-20	-4.615718e-24	0.000000e+00	0.000000e+00	0.000000e+00	
1.000000e+00	3.322785e-01	-1.200121e-17	-5.223580e-21	7.816259e-20	3.966113e-23	0.000000e+00	0.000000e+00	0.000000e+00	
1.051282e+00	3.322785e-01	-1.745441e-18	4.898850e-20	-4.663592e-20	-3.926139e-24	0.000000e+00	0.000000e+00	0.000000e+00	
1.000000e+00	3.006329e-01	-1.172785e-17	-2.494640e-21	1.036333e-19	3.730944e-23	0.000000e+00	0.000000e+00	0.000000e+00	
1.051282e+00	3.006329e-01	-1.275432e-18	5.065929e-20	-3.907709e-20	-3.823734e-24	0.000000e+00	0.000000e+00	0.000000e+00	
1.000000e+00	2.689873e-01	-1.145853e-17	-3.940688e-22	1.287886e-19	3.454909e-23	0.000000e+00	0.000000e+00	0.000000e+00	
1.051282e+00	2.689873e-01	-6.059560e-19	4.415380e-20	-3.815618e-20	-4.362754e-24	0.000000e+00	0.000000e+00	0.000000e+00	
1.000000e+00	2.373418e-01	-1.119594e-17	9.266766e-22	1.502276e-19	3.164623e-23	0.000000e+00	0.000000e+00	0.000000e+00	
1.051282e+00	2.373418e-01	2.199343e-19	3.050837e-20	-4.453119e-20	-5.493196e-24	0.000000e+00	0.000000e+00	0.000000e+00	
1.000000e+00	2.056962e-01	-1.094396e-17	1.425158e-21	1.651476e-19	2.888908e-23	0.000000e+00	0.000000e+00	0.000000e+00	
1.051282e+00	2.056962e-01	1.129316e-18	1.180385e-20	-5.801831e-20	-7.068358e-24	0.000000e+00	0.000000e+00	0.000000e+00	
1.000000e+00	1.740506e-01	-1.070759e-17	1.171865e-21	1.717528e-19	2.654755e-23	0.000000e+00	0.000000e+00	0.000000e+00	
1.051282e+00	1.740506e-01	2.031238e-18	-9.179068e-21	-7.760182e-20	-8.868989e-24	0.000000e+00	0.000000e+00	0.000000e+00	
1.000000e+00	1.424051e-01	-1.049253e-17	3.325902e-22	1.694868e-19	2.483664e-23	0.000000e+00	0.000000e+00	0.000000e+00	
1.051282e+00	1.424051e-01	2.832466e-18	-2.944066e-20	-1.015786e-19	-1.063967e-23	0.000000e+00	0.000000e+00	0.000000e+00	
1.000000e+00	1.107595e-01	-1.030434e-17	-8.659091e-22	1.590436e-19	2.389023e-23	0.000000e+00	0.000000e+00	0.000000e+00	
1.051282e+00	1.107595e-01	3.453714e-18	-4.627580e-20	-1.278110e-19	-1.213028e-23	0.000000e+00	0.000000e+00	0.000000e+00	
1.000000e+00	7.911392e-02	-1.014761e-17	-2.178323e-21	1.421634e-19	2.374924e-23	0.000000e+00	0.000000e+00	0.000000e+00	
1.051282e+00	7.911392e-02	3.842755e-18	-5.770825e-20	-1.540398e-19	-1.313435e-23	0.000000e+00	0.000000e+00	0.000000e+00	
1.000000e+00	4.746835e-02	-1.002522e-17	-3.381533e-21	1.212647e-19	2.436535e-23	0.000000e+00	0.000000e+00	0.000000e+00	
1.051282e+00	4.746835e-02	3.981635e-18	-6.275594e-20	-1.781973e-19	-1.351699e-23	0.000000e+00	0.000000e+00	0.000000e+00	
1.000000e+00	1.582278e-02	-9.937821e-18	-4.305476e-21	9.899994e-20	2.561813e-23	0.000000e+00	0.000000e+00	0.000000e+00	
1.051282e+00	1.582278e-02	3.886775e-18	-6.148319e-20	-1.986625e-19	-1.322799e-23	0.000000e+00	0.000000e+00	0.000000e+00	
1.000000e+00	-1.582278e-02	-9.883870e-18	-4.849389e-21	7.782668e-20	2.734113e-23	0.000000e+00	0.000000e+00	0.000000e+00	
1.051282e+00	-1.582278e-02	3.602557e-18	-5.484989e-20	-2.144193e-19	-1.229910e-23	0.000000e+00	0.000000e+00	0.000000e+00	
1.000000e+00	-4.746835e-02	-9.859938e-18	-4.982805e-21	5.967671e-20	2.935098e-23	0.000000e+00	0.000000e+00	0.000000e+00	
1.051282e+00	-4.746835e-02	3.190476e-18	-4.441451e-20	-2.250988e-19	-1.082813e-23	0.000000e+00	0.000000e+00	0.000000e+00	
1.000000e+00	-7.911392e-02	-9.861339e-18	-4.734196e-21	4.576949e-20	3.147411e-23	0.000000e+00	0.000000e+00	0.000000e+00	
1.051282e+00	-7.911392e-02	2.716709e-18	-3.197375e-20	-2.309141e-19	-8.954793e-24	0.000000e+00	0.000000e+00	0.000000e+00	
1.000000e+00	-1.107595e-01	-9.882839e-18	-4.172288e-21	3.658085e-20	3.356673e-23	0.000000e+00	0.000000e+00	0.000000e+00	
1.051282e+00	-1.107595e-01	2.240953e-18	-1.922391e-20	-2.325169e-19	-6.834248e-24	0.000000e+00	0.000000e+00	0.000000e+00	
1.000000e+00	-1.424051e-01	-9.919306e-18	-3.385462e-21	3.194217e-20	3.552595e-23	0.000000e+00	0.000000e+00	0.000000e+00	
1.051282e+00	-1.424051e-01	1.808572e-18	-7.509364e-21	-2.308153e-19	-4.613556e-24	0.000000e+00	0.000000e+00	0.000000e+00	
1.000000e+00	-1.740506e-01	-9.966179e-18	-2.463695e-21	3.122337e-20	3.729200e-23	0.000000e+00	0.000000e+00	0.000000e+00	
1.051282e+00	-1.740506e-01	1.447001e-18	2.309055e-21	-2.267919e-19	-2.414767e-24	0.000000e+00	0.000000e+00	0.000000e+00	
1.000000e+00	-2.056962e-01	-1.001971e-17	-1.485705e-21	3.354598e-20	3.884328e-23	0.000000e+00	0.000000e+00	0.000000e+00	
1.051282e+00	-2.056962e-01	1.166198e-18	9.866373e-21	-2.213554e-19	-3.260387e-25	0.000000e+00	0.000000e+00	0.000000e+00	
1.000000e+00	-2.373418e-01	-1.007704e-17	-5.120594e-22	3.797951e-20	4.018708e-23	0.000000e+00	0.000000e+00	0.000000e+00	
1.051282e+00	-2.373418e-01	9.620484e-19	1.521381e-20	-2.152425e-19	1.599672e-24	0.000000e+00	0.000000e+00	0.000000e+00	
1.000000e+00	-2.689873e-01	-1.013608e-17	4.164905e-22	4.368975e-20	4.134857e-23	0.000000e+00	0.000000e+00	0.000000e+00	
1.051282e+00	-2.689873e-01	8.212731e-19	1.868776e-20	-2.089747e-19	3.340219e-24	0.000000e+00	0.000000e+00	0.000000e+00	
1.000000e+00	-3.006329e-01	-1.019544e-17	1.277016e-21	5.002647e-20	4.236084e-23	0.000000e+00	0.000000e+00	0.000000e+00	
1.051282e+00	-3.006329e-01	7.264192e-19	2.076807e-20	-2.028609e-19	4.896631e-24	0.000000e+00	0.000000e+00	0.000000e+00	
1.000000e+00	-3.322785e-01	-1.025429e-17	2.060488e-21	5.655389e-20	4.325717e-23	0.000000e+00	0.000000e+00	0.000000e+00	
1.051282e+00	-3.322785e-01	6.599311e-19	2.195646e-20	-1.970317e-19	6.284536e-24	0.000000e+00	0.000000e+00	0.000000e+00	
1.000000e+00	-3.639241e-01	-1.031228e-17	2.767331e-21	6.303714e-20	4.406618e-23	0.000000e+00	0.000000e+00	0.000000e+00	
1.051282e+00	-3.639241e-01	6.068360e-19	2.269084e-20	-1.914889e-19	7.526363e-24	0.000000e+00	0.000000e+00	0.000000e+00	
1.000000e+00	-3.955696e-01	-1.036950e-17	3.403327e-21	6.940167e-20	4.480955e-23	0.000000e+00	0.000000e+00	0.000000e+00	
1.051282e+00	-3.955696e-01	5.560890e-19	2.329769e-20	-1.861548e-19	8.645227e-24	0.000000e+00	0.000000e+00	0.000000e+00	
1.000000e+00	-4.272152e-01	-1.042632e-17	3.976261e-21	7.568057e-20	4.550144e-23	0.000000e+00	0.000000e+00	0.000000e+00	
1.051282e+00	-4.272152e-01	5.009417e-19	2.397497e-20	-1.809152e-19	9.660780e-24	0.000000e+00	0.000000e+00	0.000000e+00	
1.000000e+00	-4.588608e-01	-1.048315e-17	4.493410e-21	8.196004e-20	4.614872e-23	0.000000e+00	0.000000e+00	0.000000e+00	
1.051282e+00	-4.588608e-01	4.387790e-19	2.479577e-20	-1.756512e-19	1.058681e-23	0.000000e+00	0.000000e+00	0.000000e+00	
1.000000e+00	-4.905063e-01	-1.054012e-17	4.959973e-21	8.832996e-20	4.675155e-23	0.000000e+00	0.000000e+00	0.000000e+00	
1.051282e+00	-4.905063e-01	3.707172e-19	2.572540e-20	-1.702632e-19	1.143044e-23	0.000000e+00	0.000000e+00	0.000000e+00	
1.000000e+00	-5.221519e-01	-1.059669e-17	5.378489e-21	9.484352e-20	4.730418e-23	0.000000e+00	0.000000e+00	0.000000e+00	
1.051282e+00	-5.221519e-01	3.009961e-19	2.664964e-20	-1.646885e-19	1.219262e-23	0.000000e+00	0.000000e+00	0.000000e+00	
1.000000e+00	-5.537975e-01	-1.065151e-17	5.749561e-21	1.014914e-19	4.779656e-23	0.000000e+00	0.000000e+00	0.000000e+00	
1.051282e+00	-5.537975e-01	2.359502e-19	2.741600e-20	-1.589152e-19	1.287018e-23	0.000000e+00	0.000000e+00	0.000000e+00	
1.000000e+00	-5.854430e-01	-1.070259e-17	6.073563e-21	1.081961e-19	4.821732e-23	0.000000e+00	0.000000e+00	0.000000e+00	
1.051282e+00	-5.854430e-01	1.822979e-19	2.788802e-20	-1.529903e-19	1.345903e-23	0.000000e+00	0.000000e+00	0.000000e+00	
1.000000e+00	-6.170886e-01	-1.074806e-17	6.353124e-21	1.148325e-19	4.855861e-23	0.000000e+00	0.000000e+00	0.000000e+00	
1.051282e+00	-6.170886e-01	1.446727e-19	2.800680e-20	-1.470167e-19	1.395891e-23	0.000000e+00	0.000000e+00	0.000000e+00	
1.000000e+00	-6.487342e-01	-1.078744e-17	6.594768e-21	1.212747e-19	4.882169e-23	0.000000e+00	0.000000e+00	0.000000e+00	
1.051282e+00	-6.487342e-01	1.228054e-19	2.784338e-20	-1.411345e-19	1.437744e-23	0.000000e+00	0.000000e+00	0.000000e+00	
1.000000e+00	-6.803797e-01	-1.082286e-17	6.809112e-21	1.274614e-19	4.902256e-23	0.000000e+00	0.000000e+00	0.000000e+00	
1.051282e+00	-6.803797e-01	1.092411e-19	2.761943e-20	-1.354824e-19	1.473398e-23	0.000000e+00	0.000000e+00	0.000000e+00	
1.000000e+00	-7.120253e-01	-1.085985e-17	7.007592e-21	1.334588e-19	4.919216e-23	0.000000e+00	0.000000e+00	0.000000e+00	
1.051282e+00	-7.120253e-01	8.892449e-20	2.767341e-20	-1.301456e-19	1.505773e-23	0.000000e+00	0.000000e+00	0.000000e+00	
1.000000e+00	-7.436709e-01	-1.090659e-17	7.197736e-21	1.394974e-19	4.937234e-23	0.000000e+00	0.000000e+00	0.000000e+00	
1.051282e+00	-7.436709e-01	4.179404e-20	2.836379e-20	-1.250994e-19	1.538349e-23	0.000000e+00	0.000000e+00	0.000000e+00	
1.000000e+00	-7.753165e-01	-1.097128e-17	7.376132e-21	1.459482e-19	4.959891e-23	0.000000e+00	0.000000e+00	0.000000e+00	
1.051282e+00	-7.753165e-01	-5.093044e-20	2.992115e-20	-1.201766e-19	1.573568e-23	0.000000e+00	0.000000e+00	0.000000e+00	
1.000000e+00	-8.069620e-01	-1.105767e-17	7.526103e-21	1.532352e-19	4.988450e-23	0.000000e+00	0.000000e+00	0.000000e+00	
1.051282e+00	-8.069620e-01	-1.976108e-19	3.229097e-20	-1.150696e-19	1.611570e-23	0.000000e+00	0.000000e+00	0.000000e+00	
1.000000e+00	-8.386076e-01	-1.115969e-17	7.616137e-21	1.616722e-19	5.018918e-23	0.000000e+00	0.000000e+00	0.000000e+00	
1.051282e+00	-8.386076e-01	-3.861651e-19	3.502288e-20	-1.094064e-19	1.647512e-23	0.000000e+00	0.000000e+00	0.000000e+00	
1.000000e+00	-8.702532e-01	-1.125791e-17	7.610120e-21	1.712916e-19	5.041808e-23	0.000000e+00	0.000000e+00	0.000000e+00	
1.051282e+00	-8.702532e-01	-5.773652e-19	3.727553e-20	-1.028615e-19	1.671771e-23	0.000000e+00	0.000000e+00	0.000000e+00	
1.000000e+00	-9.018987e-01	-1.131986e-17	7.472039e-21	1.816743e-19	5.041176e-23	0.000000e+00	0.000000e+00	0.000000e+00	
1.051282e+00	-9.018987e-01	-7.055298e-19	3.797953e-20	-9.534338e-20	1.668254e-23	0.000000e+00	0.000000e+00	0.000000e+00	
1.000000e+00	-9.335443e-01	-1.130886e-17	7.187479e-21	1.919442e-19	5.001897e-23	0.000000e+00	0.000000e+00	0.000000e+00	
1.051282e+00	-9.335443e-01	-6.919349e-19	3.617620e-20	-8.709620e-20	1.621084e-23	0.000000e+00	0.000000e+00	0.000000e+00	
1.000000e+00	-9.651899e-01	-1.120013e-17	6.760977e-21	2.008524e-19	4.912356e-23	0.000000e+00	0.000000e+00	0.000000e+00	
1.051282e+00	-9.651899e-01	-4.712497e-19	3.147120e-20	-7.881971e-20	1.514692e-23	0.000000e+00	0.000000e+00	0.000000e+00	
1.000000e+00	-9.968354e-01	-1.100439e-17	6.247678e-21	2.072252e-19	4.782470e-23	0.000000e+00	0.000000e+00	0.000000e+00	
1.051282e+00	-9.968354e-01	-2.920461e-20	2.446672e-20	-7.143584e-20	1.352051e-23	0.000000e+00	0.000000e+00	0.000000e+00	
1.000000e+00	-1.028481e+00	-1.078097e-17	5.719681e-21	2.103079e-19	4.634512e-23	0.000000e+00	0.000000e+00	0.000000e+00	
1.051282e+00	-1.028481e+00	5.630944e-19	1.696046e-20	-6.597545e-20	1.145978e-23	0.000000e+00	0.000000e+00	0.000000e+00	
1.000000e+00	-1.060127e+00	-1.063392e-17	5.298079e-21	2.105706e-19	4.523970e-23	0.000000e+00	0.000000e+00	0.000000e+00	
1.051282e+00	-1.060127e+00	1.130418e-18	1.163994e-20	-6.279643e-20	9.533463e-24	0.000000e+00	0.000000e+00	0.000000e+00	
1.000000e+00	-1.091772e+00	-1.067244e-17	5.048330e-21	2.094547e-19	4.476620e-23	0.000000e+00	0.000000e+00	0.000000e+00	
1.051282e+00	-1.091772e+00	1.404310e-18	1.133267e-20	-6.176001e-20	8.229456e-24	0.000000e+00	0.000000e+00	0.000000e+00	
1.000000e+00	-1.123418e+00	-1.099470e-17	5.023064e-21	2.101384e-19	4.557249e-23	0.000000e+00	0.000000e+00	0.000000e+00	
1.051282e+00	-1.123418e+00	1.047849e-18	1.767912e-20	-6.111986e-20	8.918128e-24	0.000000e+00	0.000000e+00	0.000000e+00	
1.000000e+00	-1.155063e+00	-1.172074e-17	5.261250e-21	2.150582e-19	4.727670e-23	0.000000e+00	0.000000e+00	0.000000e+00	
1.051282e+00	-1.155063e+00	-3.249796e-19	3.047958e-20	-5.947942e-20	1.204984e-23	0.000000e+00	0.000000e+00	0.000000e+00	
1.000000e+00	-1.186709e+00	-1.309122e-17	5.446033e-21	2.281329e-19	5.167895e-23	0.000000e+00	0.000000e+00	0.000000e+00	
1.051282e+00	-1.186709e+00	-3.058045e-18	4.559750e-20	-5.397675e-20	2.087312e-23	0.000000e+00	0.000000e+00	0.000000e+00	
1.000000e+00	-1.218354e+00	-1.530604e-17	5.638291e-21	2.466768e-19	6.226760e-23	0.000000e+00	0.000000e+00	0.000000e+00	
1.051282e+00	-1.218354e+00	-7.211248e-18	5.789858e-20	-5.162276e-20	4.038784e-23	0.000000e+00	0.000000e+00	0.000000e+00	
1.102564e+00	1.218354e+00	7.739721e-19	2.713596e-20	-2.471053e-19	8.314263e-24	0.000000e+00	0.000000e+00	0.000000e+00	
1.102564e+00	1.250000e+00	1.366000e-18	6.603738e-20	-3.010413e-19	-6.578223e-24	0.000000e+00	0.000000e+00	0.000000e+00	
1.102564e+00	1.186709e+00	1.146072e-18	8.353988e-21	-2.583636e-19	6.523921e-24	0.000000e+00	0.000000e+00	0.000000e+00	
1.102564e+00	1.155063e+00	1.703330e-18	-8.132051e-21	-2.762759e-19	5.464128e-24	0.000000e+00	0.000000e+00	0.000000e+00	
1.102564e+00	1.123418e+00	2.236425e-18	-2.084058e-20	-2.962898e-19	3.198315e-24	0.000000e+00	0.000000e+00	0.000000e+00	
1.102564e+00	1.091772e+00	2.809767e-18	-3.297184e-20	-3.189698e-19	1.137639e-24	0.000000e+00	0.000000e+00	0.000000e+00	
1.102564e+00	1.060127e+00	3.379492e-18	-4.407905e-20	-3.419366e-19	-1.311427e-24	0.000000e+00	0.000000e+00	0.000000e+00	
1.102564e+00	1.028481e+00	3.894203e-18	-5.288345e-20	-3.641643e-19	-3.678546e-24	0.000000e+00	0.000000e+00	0.000000e+00	
1.102564e+00	9.968354e-01	4.276231e-18	-5.731015e-20	-3.839985e-19	-6.132009e-24	0.000000e+00	0.000000e+00	0.000000e+00	
1.102564e+00	9.651899e-01	4.484246e-18	-5.619790e-20	-4.005784e-19	-8.496121e-24	0.000000e+00	0.000000e+00	0.000000e+00	
1.102564e+00	9.335443e-01	4.526648e-18	-4.982712e-20	-4.132291e-19	-1.083504e-23	0.000000e+00	0.000000e+00	0.000000e+00	
1.102564e+00	9.018987e-01	4.467396e-18	-4.003201e-20	-4.218300e-19	-1.312370e-23	0.000000e+00	0.000000e+00	0.000000e+00	
1.102564e+00	8.702532e-01	4.404316e-18	-2.961055e-20	-4.264869e-19	-1.543290e-23	0.000000e+00	0.000000e+00	0.000000e+00	
1.102564e+00	8.386076e-01	4.440384e-18	-2.147967e-20	-4.275127e-19	-1.779981e-23	0.000000e+00	0.000000e+00	0.000000e+00	
1.102564e+00	8.069620e-01	4.652777e-18	-1.780265e-20	-4.252016e-19	-2.027500e-23	0.000000e+00	0.000000e+00	0.000000e+00	
1.102564e+00	7.753165e-01	5.071823e-18	-1.938439e-20	-4.197542e-19	-2.286674e-23	0.000000e+00	0.000000e+00	0.000000e+00	
1.102564e+00	7.436709e-01	5.674074e-18	-2.548377e-20	-4.111942e-19	-2.555623e-23	0.000000e+00	0.000000e+00	0.000000e+00	
1.102564e+00	7.120253e-01	6.391025e-18	-3.406889e-20	-3.993980e-19	-2.828509e-23	0.000000e+00	0.000000e+00	0.000000e+00	
1.102564e+00	6.803797e-01	7.129040e-18	-4.239745e-20	-3.841714e-19	-3.097393e-23	0.000000e+00	0.000000e+00	0.000000e+00	
1.102564e+00	6.487342e-01	7.793752e-18	-4.772390e-20	-3.653903e-19	-3.353243e-23	0.000000e+00	0.000000e+00	0.000000e+00	
1.102564e+00	6.170886e-01	8.311770e-18	-4.793254e-20	-3.431541e-19	-3.587831e-23	0.000000e+00	0.000000e+00	0.000000e+00	
1.102564e+00	5.854430e-01	8.644919e-18	-4.195834e-20	-3.179287e-19	-3.794841e-23	0.000000e+00	0.000000e+00	0.000000e+00	
1.102564e+00	5.537975e-01	8.795310e-18	-2.994792e-20	-2.906396e-19	-3.970757e-23	0.000000e+00	0.000000e+00	0.000000e+00	
1.102564e+00	5.221519e-01	8.802251e-18	-1.318748e-20	-2.626944e-19	-4.115004e-23	0.000000e+00	0.000000e+00	0.000000e+00	
1.102564e+00	4.905063e-01	8.733351e-18	6.137949e-21	-2.359144e-19	-4.229720e-23	0.000000e+00	0.000000e+00	0.000000e+00	
1.102564e+00	4.588608e-01	8.672255e-18	2.528850e-20	-2.123779e-19	-4.319088e-23	0.000000e+00	0.000000e+00	0.000000e+00	
1.102564e+00	4.272152e-01	8.704887e-18	4.136804e-20	-1.941833e-19	-4.388516e-23	0.000000e+00	0.000000e+00	0.000000e+00	
1.102564e+00	3.955696e-01	8.905550e-18	5.174239e-20	-1.831644e-19	-4.443699e-23	0.000000e+00	0.000000e+00	0.000000e+00	
1.102564e+00	3.639241e-01	9.324157e-18	5.444218e-20	-1.806022e-19	-4.489726e-23	0.000000e+00	0.000000e+00	0.000000e+00	
1.102564e+00	3.322785e-01	9.976182e-18	4.850226e-20	-1.869856e-19	-4.530310e-23	0.000000e+00	0.000000e+00	0.000000e+00	
1.102564e+00	3.006329e-01	1.083724e-17	3.417737e-20	-2.018746e-19	-4.567247e-23	0.000000e+00	0.000000e+00	0.000000e+00	
1.102564e+00	2.689873e-01	1.184398e-17	1.297566e-20	-2.239018e-19	-4.600187e-23	0.000000e+00	0.000000e+00	0.000000e+00	
1.102564e+00	2.373418e-01	1.290212e-17	-1.252381e-20	-2.509242e-19	-4.626778e-23	0.000000e+00	0.000000e+00	0.000000e+00	
1.102564e+00	2.056962e-01	1.390085e-17	-3.905831e-20	-2.803065e-19	-4.643162e-23	0.000000e+00	0.000000e+00	0.000000e+00	
1.102564e+00	1.740506e-01	1.473116e-17	-6.321040e-20	-3.092848e-19	-4.644744e-23	0.000000e+00	0.000000e+00	0.000000e+00	
1.102564e+00	1.424051e-01	1.530444e-17	-8.197440e-20	-3.353438e-19	-4.627094e-23	0.000000e+00	0.000000e+00	0.000000e+00	
1.102564e+00	1.107595e-01	1.556728e-17	-9.324037e-20	-3.565383e-19	-4.586802e-23	0.000000e+00	0.000000e+00	0.000000e+00	
1.102564e+00	7.911392e-02	1.550937e-17	-9.609387e-20	-3.717001e-19	-4.522107e-23	0.000000e+00	0.000000e+00	0.000000e+00	
1.102564e+00	4.746835e-02	1.516288e-17	-9.087443e-20	-3.805026e-19	-4.433215e-23	0.000000e+00	0.000000e+00	0.000000e+00	
1.102564e+00	1.582278e-02	1.459392e-17	-7.899572e-20	-3.833837e-19	-4.322247e-23	0.000000e+00	0.000000e+00	0.000000e+00	
1.102564e+00	-1.582278e-02	1.388852e-17	-6.258609e-20	-3.813590e-19	-4.192875e-23	0.000000e+00	0.000000e+00	0.000000e+00	
1.102564e+00	-4.746835e-02	1.313659e-17	-4.404382e-20	-3.757732e-19	-4.049756e-23	0.000000e+00	0.000000e+00	0.000000e+00	
1.102564e+00	-7.911392e-02	1.241743e-17	-2.561030e-20	-3.680457e-19	-3.897900e-23	0.000000e+00	0.000000e+00	0.000000e+00	
1.102564e+00	-1.107595e-01	1.178944e-17	-9.045378e-21	-3.594559e-19	-3.742100e-23	0.000000e+00	0.000000e+00	0.000000e+00	
1.102564e+00	-1.424051e-01	1.128558e-17	4.547426e-21	-3.509997e-19	-3.586503e-23	0.000000e+00	0.000000e+00	0.000000e+00	
1.102564e+00	-1.740506e-01	1.091419e-17	1.474025e-20	-3.433252e-19	-3.434378e-23	0.000000e+00	0.000000e+00	0.000000e+00	
1.102564e+00	-2.056962e-01	1.066402e-17	2.167500e-20	-3.367422e-19	-3.288063e-23	0.000000e+00	0.000000e+00	0.000000e+00	
1.102564e+00	-2.373418e-01	1.051139e-17	2.588347e-20	-3.312831e-19	-3.149043e-23	0.000000e+00	0.000000e+00	0.000000e+00	
1.102564e+00	-2.689873e-01	1.042759e-17	2.808878e-20	-3.267919e-19	-3.018120e-23	0.000000e+00	0.000000e+00	0.000000e+00	
1.102564e+00	-3.006329e-01	1.038484e-17	2.903317e-20	-3.230154e-19	-2.895596e-23	0.000000e+00	0.000000e+00	0.000000e+00	
1.102564e+00	-3.322785e-01	1.036024e-17	2.935843e-20	-3.196814e-19	-2.781441e-23	0.000000e+00	0.000000e+00	0.000000e+00	
1.102564e+00	-3.639241e-01	1.033735e-17	2.954464e-20	-3.165516e-19	-2.675424e-23	0.000000e+00	0.000000e+00	0.000000e+00	
1.102564e+00	-3.955696e-01	1.030618e-17	2.989704e-20	-3.134478e-19	-2.577201e-23	0.000000e+00	0.000000e+00	0.000000e+00	
1.102564e+00	-4.272152e-01	1.026216e-17	3.056200e-20	-3.102553e-19	-2.486379e-23	0.000000e+00	0.000000e+00	0.000000e+00	
1.102564e+00	-4.588608e-01	1.020497e-17	3.155388e-20	-3.069092e-19	-2.402586e-23	0.000000e+00	0.000000e+00	0.000000e+00	
1.102564e+00	-4.905063e-01	1.013764e-17	3.278156e-20	-3.033749e-19	-2.325546e-23	0.000000e+00	0.000000e+00	0.000000e+00	
1.102564e+00	-5.221519e-01	1.006598e-17	3.407367e-20	-2.996312e-19	-2.255197e-23	0.000000e+00	0.000000e+00	0.000000e+00	
1.102564e+00	-5.537975e-01	9.997998e-18	3.521027e-20	-2.956630e-19	-2.191755e-23	0.000000e+00	0.000000e+00	0.000000e+00	
1.102564e+00	-5.854430e-01	9.942719e-18	3.597019e-20	-2.914691e-19	-2.135763e-23	0.000000e+00	0.000000e+00	0.000000e+00	
1.102564e+00	-6.170886e-01	9.908051e-18	3.619708e-20	-2.870798e-19	-2.087910e-23	0.000000e+00	0.000000e+00	0.000000e+00	
1.102564e+00	-6.487342e-01	9.897692e-18	3.587358e-20	-2.825798e-19	-2.048788e-23	0.000000e+00	0.000000e+00	0.000000e+00	
1.102564e+00	-6.803797e-01	9.907793e-18	3.517889e-20	-2.781189e-19	-2.018274e-23	0.000000e+00	0.000000e+00	0.000000e+00	
1.102564e+00	-7.120253e-01	9.924750e-18	3.449658e-20	-2.739025e-19	-1.995198e-23	0.000000e+00	0.000000e+00	0.000000e+00	
1.102564e+00	-7.436709e-01	9.925736e-18	3.434502e-20	-2.701434e-19	-1.976732e-23	0.000000e+00	0.000000e+00	0.000000e+00	
1.102564e+00	-7.753165e-01	9.883457e-18	3.522260e-20	-2.669934e-19	-1.959121e-23	0.000000e+00	0.000000e+00	0.000000e+00	
1.102564e+00	-8.069620e-01	9.775377e-18	3.739192e-20	-2.644492e-19	-1.938022e-23	0.000000e+00	0.000000e+00	0.000000e+00	
1.102564e+00	-8.386076e-01	9.596349e-18	4.066303e-20	-2.623025e-19	-1.911730e-23	0.000000e+00	0.000000e+00	0.000000e+00	
1.102564e+00	-8.702532e-01	9.370912e-18	4.426114e-20	-2.601168e-19	-1.881817e-23	0.000000e+00	0.000000e+00	0.000000e+00	
1.102564e+00	-9.018987e-01	9.160265e-18	4.688121e-20	-2.573511e-19	-1.858627e-23	0.000000e+00	0.000000e+00	0.000000e+00	
1.102564e+00	-9.335443e-01	9.056954e-18	4.699253e-20	-2.534860e-19	-1.856972e-23	0.000000e+00	0.000000e+00	0.000000e+00	
1.102564e+00	-9.651899e-01	9.162907e-18	4.342531e-20	-2.483450e-19	-1.902338e-23	0.000000e+00	0.000000e+00	0.000000e+00	
1.102564e+00	-9.968354e-01	9.550200e-18	3.605741e-20	-2.421334e-19	-2.010953e-23	0.000000e+00	0.000000e+00	0.000000e+00	
1.102564e+00	-1.028481e+00	1.021354e-17	2.641740e-20	-2.357334e-19	-2.202889e-23	0.000000e+00	0.000000e+00	0.000000e+00	
1.102564e+00	-1.060127e+00	1.103058e-17	1.759112e-20	-2.300876e-19	-2.449746e-23	0.000000e+00	0.000000e+00	0.000000e+00	
1.102564e+00	-1.091772e+00	1.174211e-17	1.356469e-20	-2.265651e-19	-2.730000e-23	0.000000e+00	0.000000e+00	0.000000e+00	
1.102564e+00	-1.123418e+00	1.195680e-17	1.736974e-20	-2.252559e-19	-2.887332e-23	0.000000e+00	0.000000e+00	0.000000e+00	
1.102564e+00	-1.155063e+00	1.116968e-17	2.987197e-20	-2.269030e-19	-2.855042e-23	0.000000e+00	0.000000e+00	0.000000e+00	
1.102564e+00	-1.186709e+00	8.892518e-18	4.675949e-20	-2.297138e-19	-2.164959e-23	0.000000e+00	0.000000e+00	0.000000e+00	
1.102564e+00	-1.218354e+00	5.001739e-18	6.048188e-20	-2.417239e-19	-8.447135e-24	0.000000e+00	0.000000e+00	0.000000e+00	
1.153846e+00	1.218354e+00	9.822605e-18	7.346513e-21	-2.532404e-19	-2.489128e-23	0.000000e+00	0.000000e+00	0.000000e+00	
1.153846e+00	1.250000e+00	1.213550e-17	4.689535e-20	-3.160294e-19	-4.343004e-23	0.000000e+00	0.000000e+00	0.000000e+00	
1.153846e+00	1.186709e+00	1.043741e-17	-1.576387e-20	-2.635085e-19	-2.487124e-23	0.000000e+00	0.000000e+00	0.000000e+00	
1.153846e+00	1.155063e+00	1.116104e-17	-3.728417e-20	-2.765269e-19	-2.565130e-23	0.000000e+00	0.000000e+00	0.000000e+00	
1.153846e+00	1.123418e+00	1.178068e-17	-5.411983e-20	-2.914568e-19	-2.708079e-23	0.000000e+00	0.000000e+00	0.000000e+00	
1.153846e+00	1.091772e+00	1.234966e-17	-6.857925e-20	-3.085796e-19	-2.850882e-23	0.000000e+00	0.000000e+00	0.000000e+00	
1.153846e+00	1.060127e+00	1.281708e-17	-7.947360e-20	-3.264222e-19	-3.023311e-23	0.000000e+00	0.000000e+00	0.000000e+00	
1.153846e+00	1.028481e+00	1.314599e-17	-8.574255e-20	-3.440849e-19	-3.198049e-23	0.000000e+00	0.000000e+00	0.000000e+00	
1.153846e+00	9.968354e-01	1.328116e-17	-8.583998e-20	-3.603591e-19	-3.387409e-23	0.000000e+00	0.000000e+00	0.000000e+00	