TITLE = "Visualization of the volumetric solution"
VARIABLES = "x","y","Adjoint_Density","Adjoint_Momentum_x","Adjoint_Momentum_y","Adjoint_Energy","Sensitivity_x","Sensitivity_y","Surface_Sensitivity"
ZONE NODES= 2400, ELEMENTS= 2291, DATAPACKING=POINT, ZONETYPE=FEQUADRILATERAL
0.000000e+00	1.250000e+00	-5.457150e-18	8.017494e-20	-1.618991e-18	1.038153e-22	0.000000e+00	0.000000e+00	0.000000e+00	
0.000000e+00	1.218354e+00	-4.885862e-18	7.613645e-20	-1.377605e-18	1.155934e-22	0.000000e+00	0.000000e+00	0.000000e+00	
3.448276e-02	1.218354e+00	-5.849984e-18	1.521305e-19	-6.602605e-19	1.029162e-22	0.000000e+00	0.000000e+00	0.000000e+00	
3.448276e-02	1.250000e+00	-5.648738e-18	1.381664e-19	-8.497086e-19	1.290737e-22	0.000000e+00	0.000000e+00	0.000000e+00	
0.000000e+00	1.186709e+00	-5.074619e-18	8.427988e-20	-1.329501e-18	1.155086e-22	0.000000e+00	0.000000e+00	0.000000e+00	
3.448276e-02	1.186709e+00	-6.988353e-18	1.857142e-19	-6.509775e-19	1.276576e-22	0.000000e+00	0.000000e+00	0.000000e+00	
0.000000e+00	1.155063e+00	-5.383309e-18	9.333281e-20	-1.271540e-18	1.369895e-22	0.000000e+00	0.000000e+00	0.000000e+00	
3.448276e-02	1.155063e+00	-8.386748e-18	2.236873e-19	-6.206498e-19	1.481633e-22	0.000000e+00	0.000000e+00	0.000000e+00	
0.000000e+00	1.123418e+00	-5.765909e-18	1.040193e-19	-1.198050e-18	1.535922e-22	0.000000e+00	0.000000e+00	0.000000e+00	
3.448276e-02	1.123418e+00	-9.975824e-18	2.655625e-19	-5.796258e-19	1.699508e-22	0.000000e+00	0.000000e+00	0.000000e+00	
0.000000e+00	1.091772e+00	-6.130011e-18	1.142623e-19	-1.104495e-18	1.667979e-22	0.000000e+00	0.000000e+00	0.000000e+00	
3.448276e-02	1.091772e+00	-1.154651e-17	3.057397e-19	-5.249583e-19	1.893590e-22	0.000000e+00	0.000000e+00	0.000000e+00	
0.000000e+00	1.060127e+00	-6.450277e-18	1.235890e-19	-9.951000e-19	1.785079e-22	0.000000e+00	0.000000e+00	0.000000e+00	
3.448276e-02	1.060127e+00	-1.288838e-17	3.386463e-19	-4.627026e-19	2.075153e-22	0.000000e+00	0.000000e+00	0.000000e+00	
0.000000e+00	1.028481e+00	-6.715277e-18	1.316160e-19	-8.734614e-19	1.875334e-22	0.000000e+00	0.000000e+00	0.000000e+00	
3.448276e-02	1.028481e+00	-1.390515e-17	3.616673e-19	-3.962419e-19	2.230426e-22	0.000000e+00	0.000000e+00	0.000000e+00	
0.000000e+00	9.968354e-01	-6.937215e-18	1.385928e-19	-7.454743e-19	1.944300e-22	0.000000e+00	0.000000e+00	0.000000e+00	
3.448276e-02	9.968354e-01	-1.461279e-17	3.754656e-19	-3.308248e-19	2.363247e-22	0.000000e+00	0.000000e+00	0.000000e+00	
0.000000e+00	9.651899e-01	-7.117962e-18	1.444416e-19	-6.150104e-19	1.991405e-22	0.000000e+00	0.000000e+00	0.000000e+00	
3.448276e-02	9.651899e-01	-1.507423e-17	3.819706e-19	-2.692104e-19	2.470531e-22	0.000000e+00	0.000000e+00	0.000000e+00	
0.000000e+00	9.335443e-01	-7.260586e-18	1.491633e-19	-4.849992e-19	2.020428e-22	0.000000e+00	0.000000e+00	0.000000e+00	
3.448276e-02	9.335443e-01	-1.535859e-17	3.833124e-19	-2.133195e-19	2.554681e-22	0.000000e+00	0.000000e+00	0.000000e+00	
0.000000e+00	9.018987e-01	-7.362611e-18	1.526358e-19	-3.570134e-19	2.033188e-22	0.000000e+00	0.000000e+00	0.000000e+00	
3.448276e-02	9.018987e-01	-1.551539e-17	3.810414e-19	-1.635023e-19	2.616269e-22	0.000000e+00	0.000000e+00	0.000000e+00	
0.000000e+00	8.702532e-01	-7.421378e-18	1.547851e-19	-2.321455e-19	2.032052e-22	0.000000e+00	0.000000e+00	0.000000e+00	
3.448276e-02	8.702532e-01	-1.557497e-17	3.761814e-19	-1.195613e-19	2.656501e-22	0.000000e+00	0.000000e+00	0.000000e+00	
0.000000e+00	8.386076e-01	-7.435270e-18	1.556010e-19	-1.108470e-19	2.021359e-22	0.000000e+00	0.000000e+00	0.000000e+00	
3.448276e-02	8.386076e-01	-1.555751e-17	3.694603e-19	-8.054424e-20	2.677651e-22	0.000000e+00	0.000000e+00	0.000000e+00	
0.000000e+00	8.069620e-01	-7.405827e-18	1.552427e-19	6.113319e-21	1.988450e-22	0.000000e+00	0.000000e+00	0.000000e+00	
3.448276e-02	8.069620e-01	-1.547859e-17	3.614984e-19	-4.569374e-20	2.678689e-22	0.000000e+00	0.000000e+00	0.000000e+00	
0.000000e+00	7.753165e-01	-7.319594e-18	1.533617e-19	1.195129e-19	1.976739e-22	0.000000e+00	0.000000e+00	0.000000e+00	
3.448276e-02	7.753165e-01	-1.533366e-17	3.522990e-19	-1.367981e-20	2.664224e-22	0.000000e+00	0.000000e+00	0.000000e+00	
0.000000e+00	7.436709e-01	-7.200585e-18	1.509307e-19	2.288882e-19	1.904709e-22	0.000000e+00	0.000000e+00	0.000000e+00	
3.448276e-02	7.436709e-01	-1.516020e-17	3.430792e-19	1.635775e-20	2.631776e-22	0.000000e+00	0.000000e+00	0.000000e+00	
0.000000e+00	7.120253e-01	-7.021553e-18	1.471415e-19	3.339325e-19	1.859234e-22	0.000000e+00	0.000000e+00	0.000000e+00	
3.448276e-02	7.120253e-01	-1.492156e-17	3.328464e-19	4.508838e-20	2.585499e-22	0.000000e+00	0.000000e+00	0.000000e+00	
0.000000e+00	6.803797e-01	-6.793132e-18	1.425009e-19	4.358337e-19	1.794201e-22	0.000000e+00	0.000000e+00	0.000000e+00	
3.448276e-02	6.803797e-01	-1.462537e-17	3.218505e-19	7.333706e-20	2.522712e-22	0.000000e+00	0.000000e+00	0.000000e+00	
0.000000e+00	6.487342e-01	-6.514063e-18	1.370393e-19	5.341723e-19	1.719184e-22	0.000000e+00	0.000000e+00	0.000000e+00	
3.448276e-02	6.487342e-01	-1.426478e-17	3.098634e-19	1.011313e-19	2.446303e-22	0.000000e+00	0.000000e+00	0.000000e+00	
0.000000e+00	6.170886e-01	-6.184057e-18	1.307685e-19	6.288314e-19	1.634028e-22	0.000000e+00	0.000000e+00	0.000000e+00	
3.448276e-02	6.170886e-01	-1.383076e-17	2.965286e-19	1.286162e-19	2.355602e-22	0.000000e+00	0.000000e+00	0.000000e+00	
0.000000e+00	5.854430e-01	-5.806387e-18	1.237464e-19	7.194363e-19	1.538823e-22	0.000000e+00	0.000000e+00	0.000000e+00	
3.448276e-02	5.854430e-01	-1.331848e-17	2.815717e-19	1.555692e-19	2.251363e-22	0.000000e+00	0.000000e+00	0.000000e+00	
0.000000e+00	5.537975e-01	-5.385664e-18	1.160054e-19	8.054517e-19	1.433787e-22	0.000000e+00	0.000000e+00	0.000000e+00	
3.448276e-02	5.537975e-01	-1.272661e-17	2.647848e-19	1.816918e-19	2.133921e-22	0.000000e+00	0.000000e+00	0.000000e+00	
0.000000e+00	5.221519e-01	-4.928593e-18	1.075859e-19	8.861954e-19	1.319584e-22	0.000000e+00	0.000000e+00	0.000000e+00	
3.448276e-02	5.221519e-01	-1.205805e-17	2.460741e-19	2.065904e-19	2.003973e-22	0.000000e+00	0.000000e+00	0.000000e+00	
0.000000e+00	4.905063e-01	-4.443059e-18	9.852615e-20	9.609410e-19	1.196997e-22	0.000000e+00	0.000000e+00	0.000000e+00	
3.448276e-02	4.905063e-01	-1.131926e-17	2.254590e-19	2.298841e-19	1.862236e-22	0.000000e+00	0.000000e+00	0.000000e+00	
0.000000e+00	4.588608e-01	-3.937694e-18	8.887311e-20	1.028961e-18	1.067073e-22	0.000000e+00	0.000000e+00	0.000000e+00	
3.448276e-02	4.588608e-01	-1.051927e-17	2.030672e-19	2.512273e-19	1.709662e-22	0.000000e+00	0.000000e+00	0.000000e+00	
0.000000e+00	4.272152e-01	-3.420963e-18	7.867991e-20	1.089595e-18	9.309571e-23	0.000000e+00	0.000000e+00	0.000000e+00	
3.448276e-02	4.272152e-01	-9.668397e-18	1.791113e-19	2.703538e-19	1.547294e-22	0.000000e+00	0.000000e+00	0.000000e+00	
0.000000e+00	3.955696e-01	-2.900550e-18	6.800953e-20	1.142285e-18	7.898804e-23	0.000000e+00	0.000000e+00	0.000000e+00	
3.448276e-02	3.955696e-01	-8.777186e-18	1.538653e-19	2.870824e-19	1.376305e-22	0.000000e+00	0.000000e+00	0.000000e+00	
0.000000e+00	3.639241e-01	-2.382790e-18	5.693309e-20	1.186606e-18	6.450618e-23	0.000000e+00	0.000000e+00	0.000000e+00	
3.448276e-02	3.639241e-01	-7.855504e-18	1.276366e-19	3.013200e-19	1.197931e-22	0.000000e+00	0.000000e+00	0.000000e+00	
0.000000e+00	3.322785e-01	-1.872439e-18	4.552939e-20	1.222279e-18	4.976775e-23	0.000000e+00	0.000000e+00	0.000000e+00	
3.448276e-02	3.322785e-01	-6.912002e-18	1.007399e-19	3.130457e-19	1.013459e-22	0.000000e+00	0.000000e+00	0.000000e+00	
0.000000e+00	3.006329e-01	-1.372687e-18	3.388214e-20	1.249165e-18	3.488193e-23	0.000000e+00	0.000000e+00	0.000000e+00	
3.448276e-02	3.006329e-01	-5.953869e-18	7.347401e-20	3.222935e-19	8.241911e-23	0.000000e+00	0.000000e+00	0.000000e+00	
0.000000e+00	2.689873e-01	-8.854341e-19	2.207753e-20	1.267251e-18	1.994893e-23	0.000000e+00	0.000000e+00	0.000000e+00	
3.448276e-02	2.689873e-01	-4.986904e-18	4.610538e-20	3.291287e-19	6.314269e-23	0.000000e+00	0.000000e+00	0.000000e+00	
0.000000e+00	2.373418e-01	-4.117181e-19	1.020152e-20	1.276624e-18	5.060196e-24	0.000000e+00	0.000000e+00	0.000000e+00	
3.448276e-02	2.373418e-01	-4.015787e-18	1.885886e-20	3.336281e-19	4.364473e-23	0.000000e+00	0.000000e+00	0.000000e+00	
0.000000e+00	2.056962e-01	4.781055e-20	-1.662336e-21	1.277450e-18	-9.699765e-24	0.000000e+00	0.000000e+00	0.000000e+00	
3.448276e-02	2.056962e-01	-3.044492e-18	-8.083173e-21	3.358638e-19	2.405069e-23	0.000000e+00	0.000000e+00	0.000000e+00	
0.000000e+00	1.740506e-01	4.924717e-19	-1.343433e-20	1.269942e-18	-2.425136e-23	0.000000e+00	0.000000e+00	0.000000e+00	
3.448276e-02	1.740506e-01	-2.076715e-18	-3.457514e-20	3.358939e-19	4.482719e-24	0.000000e+00	0.000000e+00	0.000000e+00	
0.000000e+00	1.424051e-01	9.212696e-19	-2.503940e-20	1.254345e-18	-3.851791e-23	0.000000e+00	0.000000e+00	0.000000e+00	
3.448276e-02	1.424051e-01	-1.116238e-18	-6.049823e-20	3.337594e-19	-1.494051e-23	0.000000e+00	0.000000e+00	0.000000e+00	
0.000000e+00	1.107595e-01	1.332771e-18	-3.640729e-20	1.230921e-18	-5.242431e-23	0.000000e+00	0.000000e+00	0.000000e+00	
3.448276e-02	1.107595e-01	-1.671623e-19	-8.574922e-20	3.294873e-19	-3.410399e-23	0.000000e+00	0.000000e+00	0.000000e+00	
0.000000e+00	7.911392e-02	1.725132e-18	-4.747227e-20	1.199947e-18	-6.589638e-23	0.000000e+00	0.000000e+00	0.000000e+00	
3.448276e-02	7.911392e-02	7.660101e-19	-1.102305e-19	3.230973e-19	-5.289652e-23	0.000000e+00	0.000000e+00	0.000000e+00	
0.000000e+00	4.746835e-02	2.096230e-18	-5.817275e-20	1.161710e-18	-7.886108e-23	0.000000e+00	0.000000e+00	0.000000e+00	
3.448276e-02	4.746835e-02	1.678430e-18	-1.338434e-19	3.146096e-19	-7.121092e-23	0.000000e+00	0.000000e+00	0.000000e+00	
0.000000e+00	1.582278e-02	2.443845e-18	-6.845083e-20	1.116517e-18	-9.124710e-23	0.000000e+00	0.000000e+00	0.000000e+00	
3.448276e-02	1.582278e-02	2.565049e-18	-1.564851e-19	3.040532e-19	-8.894440e-23	0.000000e+00	0.000000e+00	0.000000e+00	
0.000000e+00	-1.582278e-02	2.765833e-18	-7.825201e-20	1.064697e-18	-1.029859e-22	0.000000e+00	0.000000e+00	0.000000e+00	
3.448276e-02	-1.582278e-02	3.420803e-18	-1.780492e-19	2.914713e-19	-1.059989e-22	0.000000e+00	0.000000e+00	0.000000e+00	
0.000000e+00	-4.746835e-02	3.060255e-18	-8.752508e-20	1.006604e-18	-1.140127e-22	0.000000e+00	0.000000e+00	0.000000e+00	
3.448276e-02	-4.746835e-02	4.240796e-18	-1.984280e-19	2.769250e-19	-1.222814e-22	0.000000e+00	0.000000e+00	0.000000e+00	
0.000000e+00	-7.911392e-02	3.325457e-18	-9.622217e-20	9.426208e-19	-1.242671e-22	0.000000e+00	0.000000e+00	0.000000e+00	
3.448276e-02	-7.911392e-02	5.020435e-18	-2.175166e-19	2.604945e-19	-1.377047e-22	0.000000e+00	0.000000e+00	0.000000e+00	
0.000000e+00	-1.107595e-01	3.560087e-18	-1.042988e-19	8.731587e-19	-1.336942e-22	0.000000e+00	0.000000e+00	0.000000e+00	
3.448276e-02	-1.107595e-01	5.755511e-18	-2.352162e-19	2.422780e-19	-1.521871e-22	0.000000e+00	0.000000e+00	0.000000e+00	
0.000000e+00	-1.424051e-01	3.763075e-18	-1.117143e-19	7.986544e-19	-1.422443e-22	0.000000e+00	0.000000e+00	0.000000e+00	
3.448276e-02	-1.424051e-01	6.442232e-18	-2.514366e-19	2.223902e-19	-1.656535e-22	0.000000e+00	0.000000e+00	0.000000e+00	
0.000000e+00	-1.740506e-01	3.933599e-18	-1.184316e-19	7.195672e-19	-1.498736e-22	0.000000e+00	0.000000e+00	0.000000e+00	
3.448276e-02	-1.740506e-01	7.077215e-18	-2.660981e-19	2.009594e-19	-1.780349e-22	0.000000e+00	0.000000e+00	0.000000e+00	
0.000000e+00	-2.056962e-01	4.071049e-18	-1.244179e-19	6.363757e-19	-1.565440e-22	0.000000e+00	0.000000e+00	0.000000e+00	
3.448276e-02	-2.056962e-01	7.657462e-18	-2.791320e-19	1.781256e-19	-1.892692e-22	0.000000e+00	0.000000e+00	0.000000e+00	
0.000000e+00	-2.373418e-01	4.174994e-18	-1.296442e-19	5.495736e-19	-1.622232e-22	0.000000e+00	0.000000e+00	0.000000e+00	
3.448276e-02	-2.373418e-01	8.180332e-18	-2.904804e-19	1.540379e-19	-1.993010e-22	0.000000e+00	0.000000e+00	0.000000e+00	
0.000000e+00	-2.689873e-01	4.245171e-18	-1.340860e-19	4.596666e-19	-1.668845e-22	0.000000e+00	0.000000e+00	0.000000e+00	
3.448276e-02	-2.689873e-01	8.643527e-18	-3.000959e-19	1.288527e-19	-2.080817e-22	0.000000e+00	0.000000e+00	0.000000e+00	
0.000000e+00	-3.006329e-01	4.281484e-18	-1.377229e-19	3.671691e-19	-1.705071e-22	0.000000e+00	0.000000e+00	0.000000e+00	
3.448276e-02	-3.006329e-01	9.045080e-18	-3.079411e-19	1.027322e-19	-2.155700e-22	0.000000e+00	0.000000e+00	0.000000e+00	
0.000000e+00	-3.322785e-01	4.284000e-18	-1.405388e-19	2.726021e-19	-1.730760e-22	0.000000e+00	0.000000e+00	0.000000e+00	
3.448276e-02	-3.322785e-01	9.383358e-18	-3.139879e-19	7.584279e-20	-2.217316e-22	0.000000e+00	0.000000e+00	0.000000e+00	
0.000000e+00	-3.639241e-01	4.252955e-18	-1.425218e-19	1.764909e-19	-1.745820e-22	0.000000e+00	0.000000e+00	0.000000e+00	
3.448276e-02	-3.639241e-01	9.657058e-18	-3.182166e-19	4.835322e-20	-2.265392e-22	0.000000e+00	0.000000e+00	0.000000e+00	
0.000000e+00	-3.955696e-01	4.188736e-18	-1.436642e-19	7.936294e-20	-1.750214e-22	0.000000e+00	0.000000e+00	0.000000e+00	
3.448276e-02	-3.955696e-01	9.865182e-18	-3.206162e-19	2.043335e-20	-2.299729e-22	0.000000e+00	0.000000e+00	0.000000e+00	
0.000000e+00	-4.272152e-01	4.091859e-18	-1.439626e-19	-1.825270e-20	-1.743962e-22	0.000000e+00	0.000000e+00	0.000000e+00	
3.448276e-02	-4.272152e-01	1.000700e-17	-3.211827e-19	-7.747252e-21	-2.320198e-22	0.000000e+00	0.000000e+00	0.000000e+00	
0.000000e+00	-4.588608e-01	3.962948e-18	-1.434180e-19	-1.158268e-19	-1.727138e-22	0.000000e+00	0.000000e+00	0.000000e+00	
3.448276e-02	-4.588608e-01	1.008202e-17	-3.199194e-19	-3.602020e-20	-2.326738e-22	0.000000e+00	0.000000e+00	0.000000e+00	
0.000000e+00	-4.905063e-01	3.802715e-18	-1.420353e-19	-2.128306e-19	-1.699869e-22	0.000000e+00	0.000000e+00	0.000000e+00	
3.448276e-02	-4.905063e-01	1.008993e-17	-3.168371e-19	-6.421882e-20	-2.319359e-22	0.000000e+00	0.000000e+00	0.000000e+00	
0.000000e+00	-5.221519e-01	3.611982e-18	-1.398241e-19	-3.087373e-19	-1.662335e-22	0.000000e+00	0.000000e+00	0.000000e+00	
3.448276e-02	-5.221519e-01	1.003062e-17	-3.119554e-19	-9.217827e-20	-2.298141e-22	0.000000e+00	0.000000e+00	0.000000e+00	
0.000000e+00	-5.537975e-01	3.391731e-18	-1.367980e-19	-4.030247e-19	-1.614777e-22	0.000000e+00	0.000000e+00	0.000000e+00	
3.448276e-02	-5.537975e-01	9.904348e-18	-3.053053e-19	-1.197361e-19	-2.263235e-22	0.000000e+00	0.000000e+00	0.000000e+00	
0.000000e+00	-5.854430e-01	3.143195e-18	-1.329747e-19	-4.951800e-19	-1.557497e-22	0.000000e+00	0.000000e+00	0.000000e+00	
3.448276e-02	-5.854430e-01	9.711873e-18	-2.969330e-19	-1.467338e-19	-2.214870e-22	0.000000e+00	0.000000e+00	0.000000e+00	
0.000000e+00	-6.170886e-01	2.867949e-18	-1.283758e-19	-5.847076e-19	-1.490865e-22	0.000000e+00	0.000000e+00	0.000000e+00	
3.448276e-02	-6.170886e-01	9.454779e-18	-2.869033e-19	-1.730210e-19	-2.153354e-22	0.000000e+00	0.000000e+00	0.000000e+00	
0.000000e+00	-6.487342e-01	2.567959e-18	-1.230268e-19	-6.711384e-19	-1.415319e-22	0.000000e+00	0.000000e+00	0.000000e+00	
3.448276e-02	-6.487342e-01	9.135685e-18	-2.753013e-19	-1.984627e-19	-2.079073e-22	0.000000e+00	0.000000e+00	0.000000e+00	
0.000000e+00	-6.803797e-01	2.245536e-18	-1.169566e-19	-7.540403e-19	-1.331364e-22	0.000000e+00	0.000000e+00	0.000000e+00	
3.448276e-02	-6.803797e-01	8.758205e-18	-2.622273e-19	-2.229505e-19	-1.992490e-22	0.000000e+00	0.000000e+00	0.000000e+00	
0.000000e+00	-7.120253e-01	1.903144e-18	-1.101977e-19	-8.330207e-19	-1.239546e-22	0.000000e+00	0.000000e+00	0.000000e+00	
3.448276e-02	-7.120253e-01	8.326421e-18	-2.477815e-19	-2.464134e-19	-1.894119e-22	0.000000e+00	0.000000e+00	0.000000e+00	
0.000000e+00	-7.436709e-01	1.543088e-18	-1.027860e-19	-9.077184e-19	-1.140433e-22	0.000000e+00	0.000000e+00	0.000000e+00	
3.448276e-02	-7.436709e-01	7.843700e-18	-2.320356e-19	-2.688247e-19	-1.784515e-22	0.000000e+00	0.000000e+00	0.000000e+00	
0.000000e+00	-7.753165e-01	1.167086e-18	-9.475823e-20	-9.777666e-19	-1.034568e-22	0.000000e+00	0.000000e+00	0.000000e+00	
3.448276e-02	-7.753165e-01	7.311162e-18	-2.149998e-19	-2.901888e-19	-1.664239e-22	0.000000e+00	0.000000e+00	0.000000e+00	
0.000000e+00	-8.069620e-01	7.759758e-19	-8.615087e-20	-1.042743e-18	-9.224832e-23	0.000000e+00	0.000000e+00	0.000000e+00	
3.448276e-02	-8.069620e-01	6.726746e-18	-1.966108e-19	-3.105108e-19	-1.533903e-22	0.000000e+00	0.000000e+00	0.000000e+00	
0.000000e+00	-8.386076e-01	3.696114e-19	-7.699721e-20	-1.102110e-18	-8.046732e-23	0.000000e+00	0.000000e+00	0.000000e+00	
3.448276e-02	-8.386076e-01	6.086566e-18	-1.767849e-19	-3.297316e-19	-1.394164e-22	0.000000e+00	0.000000e+00	0.000000e+00	
0.000000e+00	-8.702532e-01	-5.251996e-20	-6.733673e-20	-1.155247e-18	-6.817832e-23	0.000000e+00	0.000000e+00	0.000000e+00	
3.448276e-02	-8.702532e-01	5.389687e-18	-1.555630e-19	-3.477002e-19	-1.245951e-22	0.000000e+00	0.000000e+00	0.000000e+00	
0.000000e+00	-9.018987e-01	-4.906418e-19	-5.722266e-20	-1.201571e-18	-5.545249e-23	0.000000e+00	0.000000e+00	0.000000e+00	
3.448276e-02	-9.018987e-01	4.645173e-18	-1.333154e-19	-3.641612e-19	-1.090307e-22	0.000000e+00	0.000000e+00	0.000000e+00	
0.000000e+00	-9.335443e-01	-9.435350e-19	-4.674225e-20	-1.240878e-18	-4.241592e-23	0.000000e+00	0.000000e+00	0.000000e+00	
3.448276e-02	-9.335443e-01	3.876419e-18	-1.108560e-19	-3.789479e-19	-9.287671e-23	0.000000e+00	0.000000e+00	0.000000e+00	
0.000000e+00	-9.651899e-01	-1.410127e-18	-3.597091e-20	-1.273554e-18	-2.917413e-23	0.000000e+00	0.000000e+00	0.000000e+00	
3.448276e-02	-9.651899e-01	3.116212e-18	-8.929616e-20	-3.921128e-19	-7.622208e-23	0.000000e+00	0.000000e+00	0.000000e+00	
0.000000e+00	-9.968354e-01	-1.890142e-18	-2.493835e-20	-1.300821e-18	-1.593317e-23	0.000000e+00	0.000000e+00	0.000000e+00	
3.448276e-02	-9.968354e-01	2.391785e-18	-6.957860e-20	-4.043912e-19	-5.919867e-23	0.000000e+00	0.000000e+00	0.000000e+00	
0.000000e+00	-1.028481e+00	-2.388838e-18	-1.347127e-20	-1.324060e-18	-2.713680e-24	0.000000e+00	0.000000e+00	0.000000e+00	
3.448276e-02	-1.028481e+00	1.710742e-18	-5.204859e-20	-4.169927e-19	-4.164947e-23	0.000000e+00	0.000000e+00	0.000000e+00	
0.000000e+00	-1.060127e+00	-2.906615e-18	-1.364714e-21	-1.344882e-18	1.017741e-23	0.000000e+00	0.000000e+00	0.000000e+00	
3.448276e-02	-1.060127e+00	1.065289e-18	-3.642205e-20	-4.323950e-19	-2.370496e-23	0.000000e+00	0.000000e+00	0.000000e+00	
0.000000e+00	-1.091772e+00	-3.436417e-18	1.164618e-20	-1.363708e-18	2.315066e-23	0.000000e+00	0.000000e+00	0.000000e+00	
3.448276e-02	-1.091772e+00	4.553427e-19	-2.240382e-20	-4.529792e-19	-4.778198e-24	0.000000e+00	0.000000e+00	0.000000e+00	
0.000000e+00	-1.123418e+00	-3.928285e-18	2.507583e-20	-1.382581e-18	3.532653e-23	0.000000e+00	0.000000e+00	0.000000e+00	
3.448276e-02	-1.123418e+00	-1.128049e-19	-9.393933e-21	-4.833790e-19	1.440994e-23	0.000000e+00	0.000000e+00	0.000000e+00	
0.000000e+00	-1.155063e+00	-4.333351e-18	3.849866e-20	-1.400378e-18	4.899234e-23	0.000000e+00	0.000000e+00	0.000000e+00	
3.448276e-02	-1.155063e+00	-6.736303e-19	4.293448e-21	-5.242537e-19	3.531898e-23	0.000000e+00	0.000000e+00	0.000000e+00	
0.000000e+00	-1.186709e+00	-4.573229e-18	5.012940e-20	-1.417929e-18	6.823731e-23	0.000000e+00	0.000000e+00	0.000000e+00	
3.448276e-02	-1.186709e+00	-1.439337e-18	2.540704e-20	-5.799012e-19	5.603360e-23	0.000000e+00	0.000000e+00	0.000000e+00	
0.000000e+00	-1.218354e+00	-4.975565e-18	6.819785e-20	-1.419878e-18	6.426843e-23	0.000000e+00	0.000000e+00	0.000000e+00	
3.448276e-02	-1.218354e+00	-2.991221e-18	6.867509e-20	-6.195178e-19	5.847679e-23	0.000000e+00	0.000000e+00	0.000000e+00	
6.896552e-02	1.218354e+00	-4.679211e-18	1.361936e-19	8.209453e-20	9.743361e-23	0.000000e+00	0.000000e+00	0.000000e+00	
6.896552e-02	1.250000e+00	-3.132233e-18	8.747265e-20	1.039918e-19	1.277967e-22	0.000000e+00	0.000000e+00	0.000000e+00	
6.896552e-02	1.186709e+00	-6.306014e-18	1.837279e-19	6.280466e-20	1.215306e-22	0.000000e+00	0.000000e+00	0.000000e+00	
6.896552e-02	1.155063e+00	-8.147937e-18	2.345461e-19	6.419735e-20	1.380940e-22	0.000000e+00	0.000000e+00	0.000000e+00	
6.896552e-02	1.123418e+00	-1.006521e-17	2.863478e-19	6.778676e-20	1.573867e-22	0.000000e+00	0.000000e+00	0.000000e+00	
6.896552e-02	1.091772e+00	-1.181356e-17	3.321786e-19	7.745286e-20	1.731104e-22	0.000000e+00	0.000000e+00	0.000000e+00	
6.896552e-02	1.060127e+00	-1.315177e-17	3.656761e-19	8.591973e-20	1.878431e-22	0.000000e+00	0.000000e+00	0.000000e+00	
6.896552e-02	1.028481e+00	-1.400656e-17	3.848693e-19	9.179303e-20	2.000232e-22	0.000000e+00	0.000000e+00	0.000000e+00	
6.896552e-02	9.968354e-01	-1.443265e-17	3.916299e-19	9.161282e-20	2.103776e-22	0.000000e+00	0.000000e+00	0.000000e+00	
6.896552e-02	9.651899e-01	-1.454932e-17	3.895460e-19	8.462481e-20	2.185214e-22	0.000000e+00	0.000000e+00	0.000000e+00	
6.896552e-02	9.335443e-01	-1.447248e-17	3.821245e-19	7.030534e-20	2.247501e-22	0.000000e+00	0.000000e+00	0.000000e+00	
6.896552e-02	9.018987e-01	-1.428860e-17	3.719581e-19	4.948569e-20	2.290818e-22	0.000000e+00	0.000000e+00	0.000000e+00	
6.896552e-02	8.702532e-01	-1.405191e-17	3.607122e-19	2.323297e-20	2.316312e-22	0.000000e+00	0.000000e+00	0.000000e+00	
6.896552e-02	8.386076e-01	-1.379356e-17	3.493491e-19	-6.810551e-21	2.325636e-22	0.000000e+00	0.000000e+00	0.000000e+00	
6.896552e-02	8.069620e-01	-1.353577e-17	3.385863e-19	-3.932888e-20	2.318722e-22	0.000000e+00	0.000000e+00	0.000000e+00	
6.896552e-02	7.753165e-01	-1.327101e-17	3.282245e-19	-7.279168e-20	2.297654e-22	0.000000e+00	0.000000e+00	0.000000e+00	
6.896552e-02	7.436709e-01	-1.302185e-17	3.189433e-19	-1.062347e-19	2.261774e-22	0.000000e+00	0.000000e+00	0.000000e+00	
6.896552e-02	7.120253e-01	-1.275183e-17	3.096620e-19	-1.390086e-19	2.213173e-22	0.000000e+00	0.000000e+00	0.000000e+00	
6.896552e-02	6.803797e-01	-1.245987e-17	3.002700e-19	-1.704324e-19	2.151026e-22	0.000000e+00	0.000000e+00	0.000000e+00	
6.896552e-02	6.487342e-01	-1.212602e-17	2.900946e-19	-2.004333e-19	2.076969e-22	0.000000e+00	0.000000e+00	0.000000e+00	
6.896552e-02	6.170886e-01	-1.173664e-17	2.786063e-19	-2.288225e-19	1.990550e-22	0.000000e+00	0.000000e+00	0.000000e+00	
6.896552e-02	5.854430e-01	-1.128182e-17	2.653798e-19	-2.556486e-19	1.892794e-22	0.000000e+00	0.000000e+00	0.000000e+00	
6.896552e-02	5.537975e-01	-1.075742e-17	2.501544e-19	-2.808907e-19	1.784004e-22	0.000000e+00	0.000000e+00	0.000000e+00	
6.896552e-02	5.221519e-01	-1.016459e-17	2.328478e-19	-3.045423e-19	1.664981e-22	0.000000e+00	0.000000e+00	0.000000e+00	
6.896552e-02	4.905063e-01	-9.508796e-18	2.135376e-19	-3.265202e-19	1.536400e-22	0.000000e+00	0.000000e+00	0.000000e+00	
6.896552e-02	4.588608e-01	-8.798242e-18	1.924295e-19	-3.466950e-19	1.399135e-22	0.000000e+00	0.000000e+00	0.000000e+00	
6.896552e-02	4.272152e-01	-8.042336e-18	1.698151e-19	-3.648810e-19	1.254054e-22	0.000000e+00	0.000000e+00	0.000000e+00	
6.896552e-02	3.955696e-01	-7.250442e-18	1.460310e-19	-3.808681e-19	1.102115e-22	0.000000e+00	0.000000e+00	0.000000e+00	
6.896552e-02	3.639241e-01	-6.430979e-18	1.214214e-19	-3.944399e-19	9.442873e-23	0.000000e+00	0.000000e+00	0.000000e+00	
6.896552e-02	3.322785e-01	-5.590948e-18	9.630755e-20	-4.054037e-19	7.815840e-23	0.000000e+00	0.000000e+00	0.000000e+00	
6.896552e-02	3.006329e-01	-4.735834e-18	7.096677e-20	-4.136089e-19	6.150318e-23	0.000000e+00	0.000000e+00	0.000000e+00	
6.896552e-02	2.689873e-01	-3.869807e-18	4.562205e-20	-4.189630e-19	4.456798e-23	0.000000e+00	0.000000e+00	0.000000e+00	
6.896552e-02	2.373418e-01	-2.996133e-18	2.044204e-20	-4.214357e-19	2.745885e-23	0.000000e+00	0.000000e+00	0.000000e+00	
6.896552e-02	2.056962e-01	-2.117664e-18	-4.450168e-21	-4.210567e-19	1.028275e-23	0.000000e+00	0.000000e+00	0.000000e+00	
6.896552e-02	1.740506e-01	-1.237305e-18	-2.896282e-20	-4.179066e-19	-6.853435e-24	0.000000e+00	0.000000e+00	0.000000e+00	
6.896552e-02	1.424051e-01	-3.583667e-19	-5.301957e-20	-4.121039e-19	-2.384367e-23	0.000000e+00	0.000000e+00	0.000000e+00	
6.896552e-02	1.107595e-01	5.152531e-19	-7.654537e-20	-4.037916e-19	-4.058388e-23	0.000000e+00	0.000000e+00	0.000000e+00	
6.896552e-02	7.911392e-02	1.379057e-18	-9.945677e-20	-3.931246e-19	-5.697289e-23	0.000000e+00	0.000000e+00	0.000000e+00	
6.896552e-02	4.746835e-02	2.228075e-18	-1.216575e-19	-3.802607e-19	-7.291329e-23	0.000000e+00	0.000000e+00	0.000000e+00	
6.896552e-02	1.582278e-02	3.057076e-18	-1.430389e-19	-3.653551e-19	-8.831212e-23	0.000000e+00	0.000000e+00	0.000000e+00	
6.896552e-02	-1.582278e-02	3.860796e-18	-1.634841e-19	-3.485576e-19	-1.030814e-22	0.000000e+00	0.000000e+00	0.000000e+00	
6.896552e-02	-4.746835e-02	4.634145e-18	-1.828738e-19	-3.300124e-19	-1.171382e-22	0.000000e+00	0.000000e+00	0.000000e+00	
6.896552e-02	-7.911392e-02	5.372352e-18	-2.010919e-19	-3.098596e-19	-1.304054e-22	0.000000e+00	0.000000e+00	0.000000e+00	
6.896552e-02	-1.107595e-01	6.071041e-18	-2.180301e-19	-2.882365e-19	-1.428111e-22	0.000000e+00	0.000000e+00	0.000000e+00	
6.896552e-02	-1.424051e-01	6.726257e-18	-2.335909e-19	-2.652793e-19	-1.542894e-22	0.000000e+00	0.000000e+00	0.000000e+00	
6.896552e-02	-1.740506e-01	7.334451e-18	-2.476888e-19	-2.411235e-19	-1.647800e-22	0.000000e+00	0.000000e+00	0.000000e+00	
6.896552e-02	-2.056962e-01	7.892450e-18	-2.602507e-19	-2.159048e-19	-1.742287e-22	0.000000e+00	0.000000e+00	0.000000e+00	
6.896552e-02	-2.373418e-01	8.397432e-18	-2.712149e-19	-1.897584e-19	-1.825875e-22	0.000000e+00	0.000000e+00	0.000000e+00	
6.896552e-02	-2.689873e-01	8.846914e-18	-2.805310e-19	-1.628196e-19	-1.898145e-22	0.000000e+00	0.000000e+00	0.000000e+00	
6.896552e-02	-3.006329e-01	9.238759e-18	-2.881592e-19	-1.352227e-19	-1.958745e-22	0.000000e+00	0.000000e+00	0.000000e+00	
6.896552e-02	-3.322785e-01	9.571185e-18	-2.940697e-19	-1.071020e-19	-2.007389e-22	0.000000e+00	0.000000e+00	0.000000e+00	
6.896552e-02	-3.639241e-01	9.842788e-18	-2.982428e-19	-7.859174e-20	-2.043858e-22	0.000000e+00	0.000000e+00	0.000000e+00	
6.896552e-02	-3.955696e-01	1.005253e-17	-3.006680e-19	-4.982705e-20	-2.068000e-22	0.000000e+00	0.000000e+00	0.000000e+00	
6.896552e-02	-4.272152e-01	1.019971e-17	-3.013435e-19	-2.094507e-20	-2.079734e-22	0.000000e+00	0.000000e+00	0.000000e+00	
6.896552e-02	-4.588608e-01	1.028390e-17	-3.002749e-19	7.914247e-21	-2.079042e-22	0.000000e+00	0.000000e+00	0.000000e+00	
6.896552e-02	-4.905063e-01	1.030488e-17	-2.974749e-19	3.660779e-20	-2.065972e-22	0.000000e+00	0.000000e+00	0.000000e+00	
6.896552e-02	-5.221519e-01	1.026261e-17	-2.929638e-19	6.498984e-20	-2.040637e-22	0.000000e+00	0.000000e+00	0.000000e+00	
6.896552e-02	-5.537975e-01	1.015725e-17	-2.867721e-19	9.291369e-20	-2.003210e-22	0.000000e+00	0.000000e+00	0.000000e+00	
6.896552e-02	-5.854430e-01	9.989399e-18	-2.789455e-19	1.202341e-19	-1.953930e-22	0.000000e+00	0.000000e+00	0.000000e+00	
6.896552e-02	-6.170886e-01	9.760425e-18	-2.695516e-19	1.468089e-19	-1.893100e-22	0.000000e+00	0.000000e+00	0.000000e+00	
6.896552e-02	-6.487342e-01	9.472913e-18	-2.586870e-19	1.724992e-19	-1.821098e-22	0.000000e+00	0.000000e+00	0.000000e+00	
6.896552e-02	-6.803797e-01	9.130946e-18	-2.464789e-19	1.971626e-19	-1.738372e-22	0.000000e+00	0.000000e+00	0.000000e+00	
6.896552e-02	-7.120253e-01	8.739887e-18	-2.330735e-19	2.206414e-19	-1.645443e-22	0.000000e+00	0.000000e+00	0.000000e+00	
6.896552e-02	-7.436709e-01	8.305215e-18	-2.186009e-19	2.427404e-19	-1.542896e-22	0.000000e+00	0.000000e+00	0.000000e+00	
6.896552e-02	-7.753165e-01	7.830463e-18	-2.031223e-19	2.632102e-19	-1.431348e-22	0.000000e+00	0.000000e+00	0.000000e+00	
6.896552e-02	-8.069620e-01	7.314989e-18	-1.865774e-19	2.817355e-19	-1.311480e-22	0.000000e+00	0.000000e+00	0.000000e+00	
6.896552e-02	-8.386076e-01	6.753962e-18	-1.688025e-19	2.979768e-19	-1.183959e-22	0.000000e+00	0.000000e+00	0.000000e+00	
6.896552e-02	-8.702532e-01	6.142405e-18	-1.496628e-19	3.116253e-19	-1.049627e-22	0.000000e+00	0.000000e+00	0.000000e+00	
6.896552e-02	-9.018987e-01	5.484381e-18	-1.293360e-19	3.225531e-19	-9.092324e-23	0.000000e+00	0.000000e+00	0.000000e+00	
6.896552e-02	-9.335443e-01	4.801281e-18	-1.085549e-19	3.308198e-19	-7.639911e-23	0.000000e+00	0.000000e+00	0.000000e+00	
6.896552e-02	-9.651899e-01	4.133858e-18	-8.868473e-20	3.367755e-19	-6.143228e-23	0.000000e+00	0.000000e+00	0.000000e+00	
6.896552e-02	-9.968354e-01	3.529626e-18	-7.133154e-20	3.405562e-19	-4.617338e-23	0.000000e+00	0.000000e+00	0.000000e+00	
6.896552e-02	-1.028481e+00	3.032822e-18	-5.805949e-20	3.420852e-19	-3.044364e-23	0.000000e+00	0.000000e+00	0.000000e+00	
6.896552e-02	-1.060127e+00	2.677170e-18	-5.000179e-20	3.395474e-19	-1.451612e-23	0.000000e+00	0.000000e+00	0.000000e+00	
6.896552e-02	-1.091772e+00	2.507133e-18	-4.846353e-20	3.305088e-19	2.350722e-24	0.000000e+00	0.000000e+00	0.000000e+00	
6.896552e-02	-1.123418e+00	2.514166e-18	-5.269110e-20	3.090235e-19	1.904719e-23	0.000000e+00	0.000000e+00	0.000000e+00	
6.896552e-02	-1.155063e+00	2.566615e-18	-5.852146e-20	2.728651e-19	3.816164e-23	0.000000e+00	0.000000e+00	0.000000e+00	
6.896552e-02	-1.186709e+00	2.114258e-18	-4.952066e-20	2.165409e-19	5.475392e-23	0.000000e+00	0.000000e+00	0.000000e+00	
6.896552e-02	-1.218354e+00	4.576373e-19	-8.215668e-21	1.707110e-19	6.210326e-23	0.000000e+00	0.000000e+00	0.000000e+00	
1.034483e-01	1.218354e+00	-4.977966e-18	1.048261e-19	4.998129e-19	8.672576e-23	0.000000e+00	0.000000e+00	0.000000e+00	
1.034483e-01	1.250000e+00	-2.824876e-18	2.947557e-20	6.497896e-19	1.169395e-22	0.000000e+00	0.000000e+00	0.000000e+00	
1.034483e-01	1.186709e+00	-6.758094e-18	1.585615e-19	4.689975e-19	1.053869e-22	0.000000e+00	0.000000e+00	0.000000e+00	
1.034483e-01	1.155063e+00	-8.725691e-18	2.164276e-19	4.497484e-19	1.204973e-22	0.000000e+00	0.000000e+00	0.000000e+00	
1.034483e-01	1.123418e+00	-1.054244e-17	2.699870e-19	4.273365e-19	1.376604e-22	0.000000e+00	0.000000e+00	0.000000e+00	
1.034483e-01	1.091772e+00	-1.205950e-17	3.147857e-19	4.054757e-19	1.517784e-22	0.000000e+00	0.000000e+00	0.000000e+00	
1.034483e-01	1.060127e+00	-1.303482e-17	3.443234e-19	3.787601e-19	1.652837e-22	0.000000e+00	0.000000e+00	0.000000e+00	
1.034483e-01	1.028481e+00	-1.344434e-17	3.579039e-19	3.475269e-19	1.767362e-22	0.000000e+00	0.000000e+00	0.000000e+00	
1.034483e-01	9.968354e-01	-1.337006e-17	3.580729e-19	3.101130e-19	1.867462e-22	0.000000e+00	0.000000e+00	0.000000e+00	