TITLE = "Surface Analysis"
VARIABLES = "y(in)", "z(in)", "PT/PT<sub>inf</sub>", "TT/TT<sub>inf</sub>", "P/P<sub>inf</sub>", "T/T<sub>inf</sub>", "v<sub>x</sub>/v<sub>inf</sub>", "v<sub>y</sub>/v<sub>inf</sub>", "v<sub>z</sub>/v<sub>inf</sub>", "<greek>a</greek> (deg)", "<greek>b</greek> (deg)", "Mach", "Filtered <greek>a</greek> (deg)", "Filtered <greek>b</greek> (deg)", "Filtered Mach"
ZONE T= "outflow_2", NODES=720 , ELEMENTS= 684, DATAPACKING=POINT, ZONETYPE=FEQUADRILATERAL
 nan nan 4.17186156612105e-309 nan nan nan nan nan nan nan nan 5.86663629779467e-309 nan nan 0.124976385597695
 nan nan 4.17186156654037e-309 nan nan nan nan nan nan nan nan 5.562684646268e-309 nan nan 0.124976385572344
 nan nan 2.781342323134e-309 nan nan nan nan nan nan nan nan 5.562684646268e-309 nan nan 0.186372290660901
 nan nan 4.17186156654037e-309 nan nan nan nan nan nan nan nan 5.562684646268e-309 nan nan 0.188677539484506
 nan nan 4.17186156654037e-309 nan nan nan nan nan nan nan nan 5.562684646268e-309 nan nan 0.190904575654428
 nan nan 3.70304521237728e-309 nan nan nan nan nan nan nan nan 6.93800197828721e-309 nan nan 0.068084472197272
 nan nan 3.83934850514294e-309 nan nan nan nan nan nan nan nan 5.562684646268e-309 nan nan 0.195133216811884
 nan nan 3.83934850514294e-309 nan nan nan nan nan nan nan nan 5.562684646268e-309 nan nan 0.197166126905642
 nan nan 3.83934850514294e-309 nan nan nan nan nan nan nan nan 5.562684646268e-309 nan nan 111803.598019786
 nan nan 632455.532033676 -1.49166814624004e-154 -1.49166814624004e-154 1000000 774596.669241483 -632455.532033676 447213.595499958 30 -39.2315204835923 894427.190999916 nan nan 447213.733258864
 nan nan 3.08529352097817e-309 nan nan nan nan nan nan nan nan 5.57205272214498e-309 nan nan 111803.536633896
 nan nan 4.15665964652448e-309 nan nan nan nan nan nan nan nan 6.62069117903821e-309 nan nan 0.137758906201937
 nan nan 3.06299724193155e-309 nan nan nan nan nan nan nan nan 6.95320388005099e-309 nan nan 0.137778419380638
 nan nan 3.83934895754939e-309 nan nan nan nan nan nan nan nan 6.63347398422127e-309 nan nan 0.137778418776183
 nan nan 3.08529312745162e-309 nan nan nan nan nan nan nan nan 6.05558075416514e-309 nan nan 0.137778418728632
 nan nan 4.15665965106034e-309 nan nan nan nan nan nan nan nan 6.62069127690329e-309 nan nan 0.137778418660382
 nan nan 4.17186156058784e-309 nan nan nan nan nan nan nan nan 5.86663572169301e-309 nan nan 0.137778418587456
 nan nan 3.86164533982526e-309 nan nan nan nan nan nan nan nan 6.93800197203334e-309 nan nan 0.137778418502691
 nan nan 3.97837572802711e-309 nan nan nan nan nan nan nan nan 6.95320388688957e-309 nan nan 0.137778418498191
 nan nan 3.83934880685773e-309 nan nan nan nan nan nan nan nan 5.6702648359625e-309 nan nan 0.025604032280805
 nan nan 4.17186156654037e-309 nan nan nan nan nan nan nan nan 5.562684646268e-309 nan nan 0.137801605661154
 nan nan 4.17186156654037e-309 nan nan nan nan nan nan nan nan 5.562684646268e-309 nan nan 0.186395478226327
 nan nan -0.177818660327463 -8.85024789853175e-05 3.33836410807605e-307 1 0.878132483163846 -0.999996585810024 0.999811084649423 48.7072139880379 -48.7124842147818 0.491167240728675 nan nan 0.434284347441136
 nan nan -0.177818659773217 -9.14940184898273e-05 4.45165510478711e-307 1 0.910074947699924 -0.999996585678296 0.999811084669226 47.6900680875793 -47.6953593512417 0.50960923122716 nan nan 0.50712828400404
 nan nan -0.177818658371839 -9.15461593067074e-05 5.78670014902506e-307 1 0.940933665501739 -0.999996585678296 0.999811084669226 46.7376799644048 -46.7429848841182 0.527425520256885 nan nan 0.520497959496374
 nan nan -0.177818658371839 -8.86006884191125e-05 7.12325400606784e-307 1 0.970811987625852 -0.999996585492286 0.999811084698963 45.8430866234201 -45.8483990249461 0.544675777578176 nan nan 0.533441996226006
 nan nan -0.177818655856024 -8.30563599089583e-05 9.79334403101048e-307 1 0.999797813441086 -0.999996585492286 0.999811084698963 45.0003802678943 -45.0056949852382 0.561410751915285 nan nan 0.545998675933033
 nan nan -0.177818655856024 -7.54403630338784e-05 1.24634340285717e-306 1 1.02796664352745 -0.999996585275071 0.999811084738776 44.2045030340752 -44.2098157088794 0.577674033548405 nan nan 0.44600331837664
 nan nan -0.177818652426448 -6.60570543400253e-05 1.60265753092256e-306 1 1.05538389823259 -0.999996585275071 0.999811084738776 43.4510900433109 -43.4563970136603 0.593503392932856 nan nan 0.39456501757527
 nan nan 0.999996586192137 0.99981108456063 0.999654981368722 0.99981108456063 1.00850957739469 0.177818659351344 0.100639273459417 5.69868568496412 9.99951570756565 0.102416268163433 10.6222224061879 -2.83635286132055 111803.549875114
 nan nan 0.999996586138453 0.999811084573079 0.999654981414458 0.999811084573079 1.00850957023097 0.177818659998996 0.100639321877712 5.69868844881109 9.99951581284675 0.102416267468485 nan nan 0.0896142338126494
 nan nan 0.999996586088309 0.999811084585249 0.999654981457796 0.999811084585249 1.00850956357553 0.177818660152971 0.100639364994533 5.69869091158547 9.99951588598841 0.10241626681504 nan nan 0.0896142332376937
 nan nan 0.999996586060785 0.999811084592555 0.99965498148338 0.999811084592555 1.00850955980591 0.177818660176662 0.100639401918178 5.69869300978095 9.99951592391572 0.102416266443807 nan nan 0.0896142326798356
 nan nan 0.999996586005821 0.999811084608977 0.999654981542149 0.999811084608977 1.00850955172992 0.177818660247105 0.100639431261442 5.69869470573709 9.99951600625553 0.102416265648783 nan nan 0.0896142320220271
 nan nan 0.999996585977694 0.999811084617579 0.999654981575351 0.999811084617579 1.00850954736595 0.177818660335888 0.100639451741982 5.69869588230867 9.99951605354358 0.102416265220075 nan nan 0.0896142314331839
 nan nan 0.999996585943618 0.99981108462639 0.999654981611512 0.99981108462639 1.0085095423714 0.177818660415819 0.100639461911709 5.69869648241433 9.99951610646989 0.102416264729098 nan nan 0.0896142308095556
 nan nan 0.999996585893007 0.999811084636278 0.999654981651522 0.999811084636278 1.00850953596062 0.177818660327463 0.100639462293525 5.69869653987871 9.99951616388249 0.102416264095658 nan nan 0.089614230045369
 nan nan 0.999996585810024 0.999811084649423 0.999654981696729 0.999811084649423 1.00850952696759 0.177818659773217 0.100639453286683 5.69869608370596 9.99951622071141 0.102416263199635 nan nan 0.0896142295864764
 nan nan 0.999996585678296 0.999811084669226 0.999654981748476 0.999811084669226 1.00850951420407 0.177818658371839 0.100639438891164 5.69869534557381 9.99951626749435 0.102416261917202 nan nan 0.0896142292494834
 nan nan 0.999996585492286 0.999811084698963 0.999654981807104 0.999811084698963 1.00850949730186 0.177818655856024 0.100639416945525 5.69869420596319 9.99951629307998 0.102416260207288 nan nan 0.076812196721365
 nan nan 3.38734629269221e-307 1 0.635951028491881 0.776753783561494 0.999811084809853 -0.999654981991303 0.999811084809853 45 -44.9955267894748 0.999996585081941 nan nan 0.762799473254783
 nan nan 4.5435442653553e-307 1 0.659659594472647 0.80500855224433 0.999811084809853 -0.999654981991303 0.999811084809853 45 -44.9955267894748 0.999996585081941 nan nan 0.874997012502615
 nan nan 5.86996847225177e-307 1 0.682563774150449 0.832304690660774 0.999811084797137 -0.9996549820349 0.999811084797137 45 -44.9955267910885 0.999996585387226 45.4634017485047 -45.4601464722335 0.936392917508166
 nan nan 7.4491816549213e-307 1 0.70474027749051 0.858733618187468 0.999811084716984 -0.999654982064684 0.999811084716984 45 -44.9955267942387 0.999996586138115 45.3362585109474 -45.3330058644611 0.938698166028393
 nan nan 1.00904109734868e-306 1 0.726254345795142 0.88437308638083 0.999811084716984 -0.999654982064684 0.999811084716984 45 -44.9955267942387 0.999996586138115 45.2172099955506 -45.2139590571155 0.940925202399102
 nan nan 1.27390850696693e-306 1 0.747162017648366 0.909289879424692 0.999811084560679 -0.999654982090136 0.999811084560679 45 -44.9955267994468 0.999996587323175 39.4797898171319 -38.2277555101579 0.830883946207112
 nan nan 1.65318595243771e-306 1 0.767511849811567 0.933541865013875 0.999811084358532 -0.999654982132021 0.999811084358532 45 -44.9955268064393 0.999996588676542 32.3123671244528 -31.2480371727882 0.720778278591379
 nan nan 0.99999658617739 0.999811084564053 0.999654981381453 0.999811084564052 1.00850957539774 0.177818659626876 -0.205128205128205 -11.4969783765415 9.99951574214782 0.102416267971362 3.61844187311033 -3.65103096142543 0.27402102836476
 nan nan 0.999996586114526 0.999811084578752 0.999654981434819 0.999811084578753 1.00850956707291 0.177818660099559 -0.256410256410256 -14.2650202614849 9.99951584906835 0.102416267158903 -5.25952539470954 3.3175267743512 0.163802157540307
 nan nan 0.999996586033088 0.999811084600546 0.999654981511515 0.999811084600547 1.00850955584371 0.177818660197898 -0.307692307692308 -16.9667419824748 9.99951596357877 0.102416266053528 -12.0036356446421 9.9995159547395 0.102416266048108
 nan nan 0.999996586005821 0.999811084608977 0.999654981542149 0.999811084608977 1.00850955172992 0.177818660247105 -0.358974358974359 -19.5929541481397 9.99951600625553 0.102416265648783 -13.9722643817592 9.99951602512469 0.102416265131691
 nan nan 0.999996585943618 0.99981108462639 0.999654981611512 0.99981108462639 1.0085095423714 0.177818660415819 -0.41025641025641 -22.1362347910694 9.99951610646989 0.102416264729098 -15.8788899601024 9.99951610381224 0.102416264103021
 nan nan 0.999996585810024 0.999811084649423 0.999654981696729 0.999811084649423 1.00850952696759 0.177818659773217 -0.461538461538462 -24.590922899649 9.99951622071141 0.102416263199635 -17.7192538303755 9.99951618142707 0.102416262742529
 nan nan 0.999996585678296 0.999811084669226 0.999654981748476 0.999811084669226 1.00850951420407 0.177818658371839 -0.512820512820513 -26.9530395386294 9.99951626749435 0.102416261917202 -19.4903593053403 9.99951624140778 0.102416261825616
 nan nan 0.999996585492286 0.999811084698963 0.999654981807104 0.999811084698963 1.00850949730186 0.177818655856024 -0.564102564102564 -29.2201546155847 9.99951629307998 0.102416260207288 -21.1903770455459 9.99951629142689 0.102416261141361
 nan nan 0.999996585275071 0.999811084738776 0.999654981870733 0.999811084738776 1.00850947799666 0.177818652426448 -0.615384615384615 -31.3912161350328 9.99951629166301 0.102416258244319 -22.8185200050032 9.99951634463334 0.102416260623727
 nan nan 0.999996585081941 0.999811084809853 0.999654981991303 0.999811084809853 1.00850945650542 0.177818648256528 -0.666666666666667 -33.4663607422226 9.99951627069095 0.102416256051588 -24.3748975564272 9.99951648124869 0.102416261313344
 nan nan 0.999996585387226 0.999811084797137 0.9996549820349 0.999811084797137 1.0085094742888 0.17781865267242 -0.717948717948718 -35.446717771473 9.99951634123791 0.102416257880413 -25.8603593527884 9.99951659609637 0.102416262009868
 nan nan 0.999996586138115 0.999811084716984 0.999654982064684 0.999811084716984 1.00850952323864 0.177818665026559 -0.769230769230769 -37.3342226333252 9.99951654639422 0.102416262920137 -27.2763445521485 9.99951677213794 0.102416263102984
 nan nan 0.999996587323175 0.999811084560679 0.999654982090136 0.999811084560679 1.00850960180542 0.177818685663052 -0.82051282051282 -39.131439898537 9.99951692017388 0.102416271024567 -17.8945671533567 3.12513649201287 0.214613801671444
 nan nan 5.87250505694622e-307 1 0.816481905850648 0.698386558960575 0.999811084193992 -0.999654982216747 0.999811084193992 45 -44.9955268135819 0.999996589603993 39.3755938493321 -38.1211461718153 0.88779903792876
 nan nan 7.43568985627723e-307 1 0.842910833377342 0.720563062300636 0.999811084196863 -0.999654982365247 0.999811084196863 45 -44.9955268177554 0.999996589223988 45 -44.9955268009337 0.99999658347423
 nan nan 1.01114115848618e-306 1 0.868550301570704 0.742077130605267 0.999811084506957 -0.999654982579789 0.999811084506957 45 -44.9955268150185 0.999996586567691 45 -44.9955267961334 0.999996580166614
 nan nan 1.27871333134465e-306 1 0.893467094614566 0.762984802458492 0.999811085213144 -0.999654982837361 0.999811085213144 45 -44.9955268021653 0.99999658092218 40.0873199730592 -38.1211464803577 0.887799043132061
 nan nan 1.6685237389616e-306 1 0.917719080203749 0.783334634621693 0.999811085213144 -0.999654982837361 0.999811085213144 45 -44.9955268021653 0.99999658092218 34.4617251280949 -31.2467661423752 0.775601503145523
 nan nan 0.99999658617739 0.999811084564053 0.999654981381453 0.999811084564052 1.00850957539774 0.177818659626876 -8.39269629891133e-05 -0.00476808636509953 9.99951574214782 0.102416267971362 11.9593797318154 -3.7492448366861 0.32681134652074
 nan nan 0.999996586088309 0.999811084585249 0.999654981457796 0.999811084585249 1.00850956357553 0.177818660152971 -7.85902572891411e-05 -0.00446489573032492 9.99951588598841 0.10241626681504 6.33398997748565 3.12513558122503 0.214613806706563
 nan nan 0.999996586005821 0.999811084608977 0.999654981542149 0.999811084608977 1.00850955172992 0.177818660247105 -7.10106662384549e-05 -0.00403428154167983 9.99951600625553 0.102416265648783 -0.727810530312455 9.99951600339032 0.102416265503479
 nan nan 0.999996585943618 0.99981108462639 0.999654981611512 0.99981108462639 1.0085095423714 0.177818660415819 -6.14619375425381e-05 -0.0034917960312442 9.99951610646989 0.102416264729098 -1.07340698899268 9.99951609919723 0.102416264146004
 nan nan 0.999996585810024 0.999811084649423 0.999654981696729 0.999811084649423 1.00850952696759 0.177818659773217 -4.97867700349313e-05 -0.00282850257731309 9.99951622071141 0.102416263199635 -1.41061970625906 9.99951618958315 0.102416262480005
 nan nan 0.999996585492286 0.999811084698963 0.999654981807104 0.999811084698963 1.00850949730186 0.177818655856024 -3.53820482619526e-05 -0.00201013678158705 9.99951629307998 0.102416260207288 -1.73827645122755 9.99951625402347 0.102416260725288
 nan nan 0.999996585275071 0.999811084738776 0.999654981870733 0.999811084738776 1.00850947799666 0.177818652426448 -1.75028947041141e-05 -0.000994380338099561 9.99951629166301 0.102416258244319 -2.05542116514792 9.99951634463334 0.102416260623727
 nan nan 0.999996585081941 0.999811084809853 0.999654981991303 0.999811084809853 1.00850945650542 0.177818648256528 4.26448763442651e-06 0.000242275510319518 9.99951627069095 0.102416256051588 -2.36133322394692 9.99951642106171 0.102416260465142
 nan nan 0.999996585387226 0.999811084797137 0.9996549820349 0.999811084797137 1.0085094742888 0.17781865267242 2.93337925823538e-05 0.0016665212915251 9.99951634123791 0.102416257880413 -2.6555435208037 9.99951660194424 0.102416261849564
 nan nan 0.999996586138115 0.999811084716984 0.999654982064684 0.999811084716984 1.00850952323864 0.177818665026559 5.56549806241911e-05 0.00316188932472468 9.99951654639422 0.102416262920137 -2.93783620972046 9.99951677533615 0.102416262889245
 nan nan 0.999996587323175 0.999811084560679 0.999654982090136 0.999811084560679 1.00850960180542 0.177818685663052 7.96196102169255e-05 0.00452337549812345 9.99951692017388 0.102416271024567 -3.20822824783789 9.99951708682538 0.102416264050832
 nan nan 0.999996589603993 0.999811084193992 0.999654982216747 0.999811084193992 1.00850974661432 0.177818730256856 9.68079461366095e-05 0.00549988409982364 9.99951797044228 0.102416286080009 -3.46691386815401 9.99951764211309 0.102416264017938
 nan nan 0.999996589223988 0.999811084196863 0.999654982365247 0.999811084196863 1.00850970901194 0.177818730806268 0.000103561254294316 0.00588355542665284 9.9995183660228 0.102416282385936 -3.71417933966115 9.99951792726382 0.102416251995796
 nan nan 0.999996586567691 0.999811084506957 0.999654982579789 0.999811084506957 1.00850951128731 0.177818697696948 9.85074919817564e-05 0.00559644054900357 9.99951846262055 0.102416262321146 -3.95031759330108 9.99951798479183 0.102416226711716
 nan nan 0.99999658092218 0.999811085213144 0.999654982837361 0.999811085213144 1.00850910617515 0.177818621600102 8.36225586658583e-05 0.00475079465650998 9.999518205408 0.10241622106392 1.44897875512217 3.12513730185917 0.214613741728359
 nan nan 9.7933634470233e-307 1 0.98397502863096 0.57723353672541 0.999811088770281 -0.999654983470033 0.999811088770281 45 -44.9955267183726 0.999996549644261 40.0873337900424 -38.1211462647358 0.887798974687554
 nan nan 1.24634539507647e-306 1 1.01214385871733 0.593496818358531 0.999811088770281 -0.999654983470033 0.999811088770281 45 -44.9955267183726 0.999996549644261 33.873337206335 -38.1211464162975 0.887799018089229
 nan nan 1.60264806776444e-306 1 1.03956111342246 0.609326177742981 0.999811089584869 -0.999654983573056 0.999811089584869 45 -44.9955266979843 0.999996539528759 28.7770037826576 -31.2467660730659 0.775601478515037
 nan nan 0.999996586159492 0.999811084568193 0.999654981396684 0.999811084568193 1.00850957301059 0.177818659842543 0.100637034877742 5.69855978447358 9.99951577722215 0.102416267739784 8.95173360475236 -3.74924479510942 0.326811340322872
 nan nan 0.999996586060785 0.999811084592555 0.99965498148338 0.999811084592555 1.00850955980591 0.177818660176662 0.100637199360739 5.69856911112443 9.99951592391572 0.102416266443807 3.87314217056338 3.12513561812184 0.214613805357113
 nan nan 0.999996585977694 0.999811084617579 0.999654981575351 0.999811084617579 1.00850954736595 0.177818660335888 0.100637304507942 5.69857509571424 9.99951605354358 0.102416265220075 -1.91019106035699 9.99951604215004 0.102416264949802
 nan nan 0.999996585893007 0.999811084636278 0.999654981651522 0.999811084636278 1.00850953596062 0.177818660327463 0.100637422031852 5.69858177071327 9.99951616388249 0.102416264095658 -2.06016327350172 9.99951614194267 0.102416263360987
 nan nan 0.999996585678296 0.999811084669226 0.999654981748476 0.999811084669226 1.00850951420407 0.177818658371839 0.100637529745534 5.69858795197013 9.99951626749435 0.102416261917202 -2.20282409635544 9.99951623412704 0.102416261692248
 nan nan 0.999996585275071 0.999811084738776 0.999654981870733 0.999811084738776 1.00850947799666 0.177818652426448 0.100637639298131 5.69859431778746 9.99951629166301 0.102416258244319 -2.33858923073662 9.99951634143514 0.102416260837466
 nan nan 0.999996585081941 0.999811084809853 0.999654981991303 0.999811084809853 1.00850945650542 0.177818648256528 0.10063774306475 5.69860027552447 9.99951627069095 0.102416256051588 -2.46785327048344 9.99951642106171 0.102416260465142
 nan nan 0.999996585387226 0.999811084797137 0.9996549820349 0.999811084797137 1.0085094742888 0.17781865267242 0.100637846041373 5.69860596836111 9.99951634123791 0.102416257880413 -2.59098711464729 9.99951660241734 0.102416263110638
 nan nan 0.999996587323175 0.999811084560679 0.999654982090136 0.999811084560679 1.00850960180542 0.177818685663052 0.100637945592033 5.69861085250977 9.99951692017388 0.102416271024567 -2.70834150503367 9.99951702604181 0.10241626784182
 nan nan 0.999996588676542 0.999811084358532 0.999654982132021 0.999811084358532 1.00850969037226 0.177818710570282 0.100638043538905 5.69861586507899 9.99951743211755 0.102416280190418 -2.82024772919303 9.99951743634573 0.102416268910961
 nan nan 0.999996589223988 0.999811084196863 0.999654982365247 0.999811084196863 1.00850970901194 0.177818730806268 0.100638138855231 5.69862112219858 9.9995183660228 0.102416282385936 -2.92702528451179 9.9995179247894 0.102416261037137
 nan nan 0.999996586567691 0.999811084506957 0.999654982579789 0.999811084506957 1.00850951128731 0.177818697696948 0.10063823221404 5.6986274837325 9.99951846262055 0.102416262321146 -3.02898718564625 9.99951798479183 0.102416226711716
 nan nan 0.99999658092218 0.999811085213144 0.999654982837361 0.999811085213144 1.00850910617515 0.177818621600102 0.100638323217434 5.69863487691262 9.999518205408 0.10241622106392 -3.12643145622119 9.99951786583792 0.102416187823032
 nan nan 0.999996572209756 0.999811086290659 0.999654983096455 0.999811086290659 1.00850849085049 0.177818503902649 0.100638412079875 5.69864332966641 9.999517698248 0.102416158361377 -3.21965252988488 9.99951769766254 0.102416137471974
 nan nan 0.999996561234966 0.999811087570677 0.999654983313504 0.999811087570677 1.00850772285715 0.177818359080586 0.10063849860303 5.69865250782838 9.99951717971861 0.102416080141054 -3.30892084631558 9.99951744486877 0.102416077799639
 nan nan 0.999996549644261 0.999811088770281 0.999654983470033 0.999811088770281 1.00850691582843 0.177818211892043 0.100638582806494 5.69866177463733 9.99951691002745 0.102415998039152 -3.39447545179381 9.99951728917342 0.102416017511668
 nan nan 0.999996539528759 0.999811089584869 0.999654983573056 0.999811089584869 1.00850621262415 0.177818089973276 0.100638664551181 5.69867032033928 9.99951702402891 0.102415926621487 1.43614810333941 3.12513677372502 0.214613549440304
 nan nan 1.68911018009754e-306 1 1.1293358409434 0.416803653287472 0.999811088601297 -0.999654983932605 0.999811088601297 45 -44.9955267364708 0.999996533053645 7.0425501449169 -24.3723854001493 0.663403855973863
 nan nan 0.999996586159492 0.999811084568193 0.999654981396684 0.999811084568193 1.00850957301059 0.177818659842543 -0.974358974358974 -44.01330234932 9.99951577722215 0.102416267739784 -10.8169673650616 -10.623625145778 0.439008875706773
 nan nan 0.999996586033088 0.999811084600546 0.999654981511515 0.999811084600547 1.00850955584371 0.177818660197898 -1.02564102564103 -45.4825295232129 9.99951596357877 0.102416266053528 -22.8527949816465 -3.74924471820087 0.326811340252722
 nan nan 0.999996585943618 0.99981108462639 0.999654981611512 0.99981108462639 1.0085095423714 0.177818660415819 -1.07692307692308 -46.8789394109999 9.99951610646989 0.102416264729098 -28.8132501678647 3.12513570000231 0.214613805175203
 nan nan 0.999996585810024 0.999811084649423 0.999654981696729 0.999811084649423 1.00850952696759 0.177818659773217 -1.12820512820513 -48.2062739601785 9.99951622071141 0.102416263199635 -29.8092097252219 3.12513580220677 0.214613803659446
 nan nan 0.999996585492286 0.999811084698963 0.999654981807104 0.999811084698963 1.00850949730186 0.177818655856024 -1.17948717948718 -49.4682116611855 9.99951629307998 0.102416260207288 -30.7561096165034 3.12513586605893 0.21461380139863
 nan nan 0.999996585096837 0.999811084781562 0.999654981934482 0.999811084781562 1.00850946142102 0.177818649164875 -1.23076923076923 -50.6683314228209 9.99951627298508 0.10241625655295 -31.6566302459298 3.12513588633674 0.214613799464792
 nan nan 0.999996585387226 0.999811084797137 0.9996549820349 0.999811084797137 1.0085094742888 0.17781865267242 -1.28205128205128 -51.8100863856831 9.99951634123791 0.102416257880413 -32.5133595702612 3.12513600239571 0.214613801211614
 nan nan 0.999996587323175 0.999811084560679 0.999654982090136 0.999811084560679 1.00850960180542 0.177818685663052 -1.33333333333333 -52.8967875485062 9.99951692017388 0.102416271024567 -33.3287801639321 3.12513636599482 0.214613808704676
 nan nan 0.999996588676542 0.999811084358532 0.999654982132021 0.999811084358532 1.00850969037226 0.177818710570282 -1.38461538461539 -53.9315990495367 9.99951743211755 0.102416280190418 -34.1052631566255 3.12513675934485 0.214613815060691
 nan nan 0.999996589603993 0.999811084193992 0.999654982216747 0.999811084193992 1.00850974661432 0.177818730256856 -1.43589743589744 -54.9175217818754 9.99951797044228 0.102416286080009 -34.8450603890109 3.12513716737864 0.214613814615221
 nan nan 0.999996586567691 0.999811084506957 0.999654982579789 0.999811084506957 1.00850951128731 0.177818697696948 -1.48717948717949 -55.8574029034104 9.99951846262055 0.102416262321146 -35.5503052608858 3.12513752478087 0.214613798586006
 nan nan 0.99999658092218 0.999811085213144 0.999654982837361 0.999811085213144 1.00850910617515 0.177818621600102 -1.53846153846154 -56.7539195440789 9.999518205408 0.10241622106392 -36.2230077312048 3.12513746203069 0.21461376684661
 nan nan 0.999996572209756 0.999811086290659 0.999654983096455 0.999811086290659 1.00850849085049 0.177818503902649 -1.58974358974359 -57.6095966349916 9.999517698248 0.102416158361377 -36.8650637837979 3.12513719705824 0.214613709307909
 nan nan 0.999996549644261 0.999811088770281 0.999654983470033 0.999811088770281 1.00850691582843 0.177818211892043 -1.64102564102564 -58.4268253085359 9.99951691002745 0.102415998039152 -37.478256966465 3.12513676633689 0.214613609034633
 nan nan 0.999996539528759 0.999811089584869 0.999654983573056 0.999811089584869 1.00850621262415 0.177818089973276 -1.69230769230769 -59.207785346317 9.99951702402891 0.102415926621487 -38.0642390804346 3.12513674198114 0.214613541908555
 nan nan 0.999996532816449 0.999811089807979 0.999654983667991 0.999811089807979 1.00850574297787 0.177818014583716 -1.74358974358974 -59.9545808265855 9.99951743273943 0.102415879045305 -38.6245788480701 3.12513694781767 0.21461349965802
 nan nan 0.999996530634121 0.999811089421663 0.99965498377477 0.999811089421664 1.00850558389562 0.17781799439379 -1.79487179487179 -60.6691654615686 9.99951786577752 0.102415863046433 -39.160745018331 3.1251371606915 0.214613479717287
 nan nan 0.999996533053645 0.999811088601297 0.999654983932605 0.999811088601297 1.00850573869417 0.177818024249004 -1.84615384615385 -61.3533699816165 9.99951800690947 0.102415878853049 -39.6741115796666 3.12513721027522 0.214613481727361
 nan nan 0.999996539122535 0.999811087633209 0.999654984072703 0.99981108763321 1.0085061471969 0.177818090644113 -1.8974358974359 -62.0089090239356 9.9995176966216 0.102415920289151 -31.6239617743803 3.12513685727202 0.214613535928071
 nan nan 0.999996547513158 0.999811086777938 0.999654984219771 0.999811086777938 1.00850671629518 0.177818178147894 -1.94871794871795 -62.6373874674092 9.9995169892172 0.102415977903132 -13.7313635384574 -10.6236245714822 0.43900873551995
 nan nan 1.66975451625729e-308 1 0.420524754213218 -8.01557425471145e-17 0.99981108462639 -0.999654981611512 0.99981108462639 45 -44.9955267838477 0.999996585943618 20.4186637729089 -31.2467659927443 0.775601470089962
 nan nan 2.50415757392685e-308 1 0.500470585994129 -9.48415535964644e-17 0.999811084649423 -0.999654981696729 0.999811084649423 45 -44.9955267856298 0.999996585810024 33.6896838095984 -38.1211464423523 0.887799045728296
 nan nan 3.33854029770266e-308 1 0.569598870632438 -1.07540213473392e-16 0.999811084698963 -0.999654981807104 0.999811084698963 45 -44.9955267873734 0.999996585492286 33.515132573625 -38.1211464260499 0.887799045374041
 nan nan 4.17294399276785e-308 1 0.631385206940442 -1.18890179321988e-16 0.999811084781562 -0.999654981934482 0.999811084781562 45 -44.9955267886571 0.999996585096837 33.3492157549777 -38.1211464139782 0.887799045223709
 nan nan 5.56454713794337e-308 1 0.687766480678266 -1.2924725128422e-16 0.999811084797137 -0.9996549820349 0.999811084797137 45 -44.9955267910885 0.999996585387226 33.1914735423518 -38.1211464082272 0.887799045356593
 nan nan 7.23335411791589e-308 1 0.739953322535949 -1.38833818610013e-16 0.999811084560679 -0.999654982090136 0.999811084560679 45 -44.9955267994468 0.999996587323175 33.0414585721474 -38.121146416989 0.887799046189176
 nan nan 8.90402651250745e-308 1 0.788762322161087 -1.47799886384089e-16 0.999811084358532 -0.999654982132021 0.999811084358532 45 -44.9955268064393 0.999996588676542 32.8987392017896 -38.1211464145925 0.88779904696268
 nan nan 1.22416402351572e-307 1 0.834775160334682 -1.56252307632436e-16 0.999811084196863 -0.999654982365247 0.999811084196863 45 -44.9955268177554 0.999996589223988 32.7629015564367 -38.1211463468088 0.887799048010867
 nan nan 1.55792538125518e-307 1 0.878423565033842 -1.64270389497843e-16 0.999811084506957 -0.999654982579789 0.999811084506957 45 -44.9955268150185 0.999996586567691 32.6335501188079 -38.121146275393 0.887799045013085
 nan nan 2.00331438197621e-307 1 0.920038425056996 -1.71914915266491e-16 0.999811086290659 -0.999654983096455 0.999811086290659 45 -44.995526778716 0.999996572209756 32.5103097772656 -38.121146178259 0.887799034045744
 nan nan 2.67083706750423e-307 1 0.959879974260814 -1.7923368912232e-16 0.999811087570677 -0.999654983313504 0.999811087570677 45 -44.9955267482594 0.999996561234966 32.3928246370737 -38.1211460906862 0.887799021080473
 nan nan 3.33835973995954e-307 1 0.998157266267475 -1.86265113592718e-16 0.999811088770281 -0.999654983470033 0.999811088770281 45 -44.9955267183726 0.999996549644261 32.2807600569901 -38.1211461010798 0.887799006652642
 nan nan 4.45164661697684e-307 1 1.03504124726445 -1.93040590982881e-16 0.999811089584869 -0.999654983573056 0.999811089584869 45 -44.9955266979843 0.999996539528759 32.173800420626 -38.1211461518519 0.887798991196405
 nan nan 5.78669189973179e-307 1 1.07067382532389 -1.99586189382762e-16 0.999811089807979 -0.999654983667991 0.999811089807979 45 -44.9955266943121 0.999996532816449 32.071646836433 -38.1211462512647 0.887798966565184
 nan nan 7.12323795718186e-307 1 1.10517433996648 -2.05923831106658e-16 0.999811089421663 -0.99965498377477 0.999811089421664 45 -44.9955267084414 0.999996530634121 31.9740268317104 -38.121146251093 0.887798956768825
 nan nan 9.79332840764486e-307 1 1.13864428864069 -2.12072160933384e-16 0.999811088601297 -0.999654983932605 0.999811088601297 45 -44.9955267364708 0.999996533053645 31.8806773966768 -38.1211462269345 0.88779895461504
 nan nan 1.24634188033206e-306 1 1.17117085190693 -2.18047193672074e-16 0.999811086777938 -0.999654984219771 0.999811086777938 45 -44.9955267969456 0.999996547513158 18.9651582141845 -31.2467658873895 0.775601426365557
 nan nan 1.60265456015627e-306 1 1.20282957067584 -2.2386280596289e-16 0.999811086202265 -0.999654984374079 0.999811086202265 45 -44.9955268178627 0.99999655703196 13.8648141597633 -24.3723855450436 0.663403898584705
 nan nan 0.999996586159492 0.999811084568193 0.999654981396684 0.999811084568193 1.00850957301059 0.177818659842543 0.100638488643564 5.69864156197722 9.99951577722215 0.102416267739784 -14.5074290343906 3.12513587880104 0.214613723925432