TITLE = "Visualization of the volumetric solution"
VARIABLES = "x","y","Density","Momentum_x","Momentum_y","Energy","Pressure","Temperature","Mach","C<sub>p</sub>","Roe_Dissipation"
ZONE NODES= 3200, ELEMENTS= 3081, DATAPACKING=POINT, ZONETYPE=FEQUADRILATERAL
-2.000000e+00	1.250000e+00	1.219813e+00	5.664256e+01	1.580129e-06	2.531013e+05	1.007145e+05	2.876266e+02	1.365797e-01	-8.607589e-01	0.000000e+00	
-2.000000e+00	1.218354e+00	1.219812e+00	5.664343e+01	-4.511072e-04	2.531012e+05	1.007144e+05	2.876266e+02	1.365819e-01	-8.608441e-01	0.000000e+00	
-1.948718e+00	1.218354e+00	1.219805e+00	5.664365e+01	-5.509193e-04	2.530992e+05	1.007136e+05	2.876260e+02	1.365834e-01	-8.619795e-01	0.000000e+00	
-1.948718e+00	1.250000e+00	1.219805e+00	5.664226e+01	3.381630e-06	2.530992e+05	1.007137e+05	2.876260e+02	1.365800e-01	-8.619261e-01	0.000000e+00	
-2.000000e+00	1.186709e+00	1.219812e+00	5.664392e+01	-3.692509e-04	2.531012e+05	1.007144e+05	2.876266e+02	1.365831e-01	-8.608754e-01	0.000000e+00	
-1.948718e+00	1.186709e+00	1.219805e+00	5.664459e+01	-5.254242e-04	2.530993e+05	1.007136e+05	2.876260e+02	1.365857e-01	-8.619655e-01	0.000000e+00	
-2.000000e+00	1.155063e+00	1.219812e+00	5.664412e+01	-2.005895e-04	2.531011e+05	1.007144e+05	2.876266e+02	1.365836e-01	-8.609012e-01	0.000000e+00	
-1.948718e+00	1.155063e+00	1.219805e+00	5.664488e+01	-4.069096e-04	2.530993e+05	1.007136e+05	2.876260e+02	1.365864e-01	-8.619845e-01	0.000000e+00	
-2.000000e+00	1.123418e+00	1.219812e+00	5.664422e+01	-7.392099e-05	2.531011e+05	1.007144e+05	2.876266e+02	1.365839e-01	-8.609133e-01	0.000000e+00	
-1.948718e+00	1.123418e+00	1.219805e+00	5.664491e+01	-2.439432e-04	2.530993e+05	1.007136e+05	2.876260e+02	1.365865e-01	-8.619869e-01	0.000000e+00	
-2.000000e+00	1.091772e+00	1.219812e+00	5.664432e+01	-1.866480e-05	2.531011e+05	1.007144e+05	2.876266e+02	1.365841e-01	-8.609211e-01	0.000000e+00	
-1.948718e+00	1.091772e+00	1.219805e+00	5.664492e+01	-1.526559e-04	2.530993e+05	1.007136e+05	2.876260e+02	1.365865e-01	-8.619956e-01	0.000000e+00	
-2.000000e+00	1.060127e+00	1.219812e+00	5.664439e+01	3.819236e-07	2.531011e+05	1.007144e+05	2.876266e+02	1.365843e-01	-8.609249e-01	0.000000e+00	
-1.948718e+00	1.060127e+00	1.219805e+00	5.664495e+01	-9.455101e-05	2.530992e+05	1.007136e+05	2.876260e+02	1.365866e-01	-8.619991e-01	0.000000e+00	
-2.000000e+00	1.028481e+00	1.219812e+00	5.664444e+01	3.997031e-06	2.531011e+05	1.007144e+05	2.876265e+02	1.365844e-01	-8.609275e-01	0.000000e+00	
-1.948718e+00	1.028481e+00	1.219805e+00	5.664498e+01	-6.495527e-05	2.530992e+05	1.007136e+05	2.876260e+02	1.365866e-01	-8.620036e-01	0.000000e+00	
-2.000000e+00	9.968354e-01	1.219812e+00	5.664447e+01	4.514679e-06	2.531011e+05	1.007144e+05	2.876265e+02	1.365845e-01	-8.609289e-01	0.000000e+00	
-1.948718e+00	9.968354e-01	1.219805e+00	5.664501e+01	-4.337471e-05	2.530992e+05	1.007136e+05	2.876260e+02	1.365867e-01	-8.620060e-01	0.000000e+00	
-2.000000e+00	9.651899e-01	1.219812e+00	5.664449e+01	3.946751e-06	2.531011e+05	1.007144e+05	2.876265e+02	1.365845e-01	-8.609298e-01	0.000000e+00	
-1.948718e+00	9.651899e-01	1.219805e+00	5.664502e+01	-2.928408e-05	2.530992e+05	1.007136e+05	2.876260e+02	1.365867e-01	-8.620083e-01	0.000000e+00	
-2.000000e+00	9.335443e-01	1.219812e+00	5.664450e+01	3.473222e-06	2.531011e+05	1.007144e+05	2.876265e+02	1.365846e-01	-8.609301e-01	0.000000e+00	
-1.948718e+00	9.335443e-01	1.219805e+00	5.664503e+01	-1.800353e-05	2.530992e+05	1.007136e+05	2.876260e+02	1.365868e-01	-8.620097e-01	0.000000e+00	
-2.000000e+00	9.018987e-01	1.219812e+00	5.664451e+01	2.887027e-06	2.531011e+05	1.007144e+05	2.876265e+02	1.365846e-01	-8.609303e-01	0.000000e+00	
-1.948718e+00	9.018987e-01	1.219805e+00	5.664504e+01	-1.001868e-05	2.530992e+05	1.007136e+05	2.876260e+02	1.365868e-01	-8.620109e-01	0.000000e+00	
-2.000000e+00	8.702532e-01	1.219812e+00	5.664451e+01	2.404140e-06	2.531011e+05	1.007144e+05	2.876265e+02	1.365846e-01	-8.609302e-01	0.000000e+00	
-1.948718e+00	8.702532e-01	1.219805e+00	5.664504e+01	-3.779798e-06	2.530992e+05	1.007136e+05	2.876260e+02	1.365868e-01	-8.620115e-01	0.000000e+00	
-2.000000e+00	8.386076e-01	1.219812e+00	5.664450e+01	1.915089e-06	2.531011e+05	1.007144e+05	2.876265e+02	1.365846e-01	-8.609299e-01	0.000000e+00	
-1.948718e+00	8.386076e-01	1.219805e+00	5.664503e+01	6.326097e-07	2.530992e+05	1.007136e+05	2.876260e+02	1.365868e-01	-8.620120e-01	0.000000e+00	
-2.000000e+00	8.069620e-01	1.219812e+00	5.664450e+01	1.498297e-06	2.531011e+05	1.007144e+05	2.876265e+02	1.365846e-01	-8.609296e-01	0.000000e+00	
-1.948718e+00	8.069620e-01	1.219805e+00	5.664503e+01	3.889950e-06	2.530992e+05	1.007136e+05	2.876260e+02	1.365868e-01	-8.620123e-01	0.000000e+00	
-2.000000e+00	7.753165e-01	1.219812e+00	5.664450e+01	1.132039e-06	2.531011e+05	1.007144e+05	2.876265e+02	1.365846e-01	-8.609292e-01	0.000000e+00	
-1.948718e+00	7.753165e-01	1.219805e+00	5.664502e+01	6.098657e-06	2.530992e+05	1.007136e+05	2.876260e+02	1.365867e-01	-8.620124e-01	0.000000e+00	
-2.000000e+00	7.436709e-01	1.219812e+00	5.664449e+01	8.531880e-07	2.531011e+05	1.007144e+05	2.876265e+02	1.365845e-01	-8.609288e-01	0.000000e+00	
-1.948718e+00	7.436709e-01	1.219805e+00	5.664502e+01	7.626619e-06	2.530992e+05	1.007136e+05	2.876260e+02	1.365867e-01	-8.620124e-01	0.000000e+00	
-2.000000e+00	7.120253e-01	1.219812e+00	5.664448e+01	6.429266e-07	2.531011e+05	1.007144e+05	2.876265e+02	1.365845e-01	-8.609284e-01	0.000000e+00	
-1.948718e+00	7.120253e-01	1.219805e+00	5.664501e+01	8.592762e-06	2.530992e+05	1.007136e+05	2.876260e+02	1.365867e-01	-8.620123e-01	0.000000e+00	
-2.000000e+00	6.803797e-01	1.219812e+00	5.664448e+01	4.961559e-07	2.531011e+05	1.007144e+05	2.876265e+02	1.365845e-01	-8.609280e-01	0.000000e+00	
-1.948718e+00	6.803797e-01	1.219805e+00	5.664500e+01	9.178583e-06	2.530992e+05	1.007136e+05	2.876260e+02	1.365867e-01	-8.620122e-01	0.000000e+00	
-2.000000e+00	6.487342e-01	1.219812e+00	5.664447e+01	3.905057e-07	2.531011e+05	1.007144e+05	2.876265e+02	1.365845e-01	-8.609276e-01	0.000000e+00	
-1.948718e+00	6.487342e-01	1.219805e+00	5.664500e+01	9.453105e-06	2.530992e+05	1.007136e+05	2.876260e+02	1.365867e-01	-8.620120e-01	0.000000e+00	
-2.000000e+00	6.170886e-01	1.219812e+00	5.664446e+01	3.166268e-07	2.531011e+05	1.007144e+05	2.876265e+02	1.365845e-01	-8.609272e-01	0.000000e+00	
-1.948718e+00	6.170886e-01	1.219805e+00	5.664499e+01	9.505068e-06	2.530992e+05	1.007136e+05	2.876260e+02	1.365867e-01	-8.620118e-01	0.000000e+00	
-2.000000e+00	5.854430e-01	1.219812e+00	5.664446e+01	2.637506e-07	2.531011e+05	1.007144e+05	2.876265e+02	1.365845e-01	-8.609268e-01	0.000000e+00	
-1.948718e+00	5.854430e-01	1.219805e+00	5.664498e+01	9.379376e-06	2.530992e+05	1.007136e+05	2.876260e+02	1.365866e-01	-8.620116e-01	0.000000e+00	
-2.000000e+00	5.537975e-01	1.219812e+00	5.664445e+01	2.278720e-07	2.531011e+05	1.007144e+05	2.876265e+02	1.365844e-01	-8.609264e-01	0.000000e+00	
-1.948718e+00	5.537975e-01	1.219805e+00	5.664498e+01	9.127130e-06	2.530992e+05	1.007136e+05	2.876260e+02	1.365866e-01	-8.620113e-01	0.000000e+00	
-2.000000e+00	5.221519e-01	1.219812e+00	5.664445e+01	2.042640e-07	2.531011e+05	1.007144e+05	2.876265e+02	1.365844e-01	-8.609260e-01	0.000000e+00	
-1.948718e+00	5.221519e-01	1.219805e+00	5.664497e+01	8.779119e-06	2.530992e+05	1.007136e+05	2.876260e+02	1.365866e-01	-8.620111e-01	0.000000e+00	
-2.000000e+00	4.905063e-01	1.219812e+00	5.664444e+01	1.904656e-07	2.531011e+05	1.007144e+05	2.876265e+02	1.365844e-01	-8.609257e-01	0.000000e+00	
-1.948718e+00	4.905063e-01	1.219805e+00	5.664497e+01	8.365222e-06	2.530992e+05	1.007136e+05	2.876260e+02	1.365866e-01	-8.620108e-01	0.000000e+00	
-2.000000e+00	4.588608e-01	1.219812e+00	5.664444e+01	1.836719e-07	2.531011e+05	1.007144e+05	2.876265e+02	1.365844e-01	-8.609254e-01	0.000000e+00	
-1.948718e+00	4.588608e-01	1.219805e+00	5.664496e+01	7.904570e-06	2.530992e+05	1.007136e+05	2.876260e+02	1.365866e-01	-8.620106e-01	0.000000e+00	
-2.000000e+00	4.272152e-01	1.219812e+00	5.664443e+01	1.821830e-07	2.531011e+05	1.007144e+05	2.876265e+02	1.365844e-01	-8.609251e-01	0.000000e+00	
-1.948718e+00	4.272152e-01	1.219805e+00	5.664496e+01	7.414060e-06	2.530992e+05	1.007136e+05	2.876260e+02	1.365866e-01	-8.620104e-01	0.000000e+00	
-2.000000e+00	3.955696e-01	1.219812e+00	5.664443e+01	1.844032e-07	2.531011e+05	1.007144e+05	2.876265e+02	1.365844e-01	-8.609248e-01	0.000000e+00	
-1.948718e+00	3.955696e-01	1.219805e+00	5.664495e+01	6.904976e-06	2.530992e+05	1.007136e+05	2.876260e+02	1.365866e-01	-8.620102e-01	0.000000e+00	
-2.000000e+00	3.639241e-01	1.219812e+00	5.664442e+01	1.893525e-07	2.531011e+05	1.007144e+05	2.876265e+02	1.365844e-01	-8.609246e-01	0.000000e+00	
-1.948718e+00	3.639241e-01	1.219805e+00	5.664495e+01	6.386710e-06	2.530992e+05	1.007136e+05	2.876260e+02	1.365866e-01	-8.620100e-01	0.000000e+00	
-2.000000e+00	3.322785e-01	1.219812e+00	5.664442e+01	1.961904e-07	2.531011e+05	1.007144e+05	2.876265e+02	1.365844e-01	-8.609244e-01	0.000000e+00	
-1.948718e+00	3.322785e-01	1.219805e+00	5.664495e+01	5.865579e-06	2.530992e+05	1.007136e+05	2.876260e+02	1.365866e-01	-8.620098e-01	0.000000e+00	
-2.000000e+00	3.006329e-01	1.219812e+00	5.664442e+01	2.043796e-07	2.531011e+05	1.007144e+05	2.876265e+02	1.365844e-01	-8.609242e-01	0.000000e+00	
-1.948718e+00	3.006329e-01	1.219805e+00	5.664494e+01	5.346467e-06	2.530992e+05	1.007136e+05	2.876260e+02	1.365865e-01	-8.620097e-01	0.000000e+00	
-2.000000e+00	2.689873e-01	1.219812e+00	5.664441e+01	2.134772e-07	2.531011e+05	1.007144e+05	2.876265e+02	1.365844e-01	-8.609240e-01	0.000000e+00	
-1.948718e+00	2.689873e-01	1.219805e+00	5.664494e+01	4.832468e-06	2.530992e+05	1.007136e+05	2.876260e+02	1.365865e-01	-8.620095e-01	0.000000e+00	
-2.000000e+00	2.373418e-01	1.219812e+00	5.664441e+01	2.231942e-07	2.531011e+05	1.007144e+05	2.876265e+02	1.365843e-01	-8.609239e-01	0.000000e+00	
-1.948718e+00	2.373418e-01	1.219805e+00	5.664494e+01	4.325662e-06	2.530992e+05	1.007136e+05	2.876260e+02	1.365865e-01	-8.620094e-01	0.000000e+00	
-2.000000e+00	2.056962e-01	1.219812e+00	5.664441e+01	2.333056e-07	2.531011e+05	1.007144e+05	2.876265e+02	1.365843e-01	-8.609238e-01	0.000000e+00	
-1.948718e+00	2.056962e-01	1.219805e+00	5.664494e+01	3.827059e-06	2.530992e+05	1.007136e+05	2.876260e+02	1.365865e-01	-8.620093e-01	0.000000e+00	
-2.000000e+00	1.740506e-01	1.219812e+00	5.664441e+01	2.436707e-07	2.531011e+05	1.007144e+05	2.876265e+02	1.365843e-01	-8.609237e-01	0.000000e+00	
-1.948718e+00	1.740506e-01	1.219805e+00	5.664493e+01	3.336996e-06	2.530992e+05	1.007136e+05	2.876260e+02	1.365865e-01	-8.620092e-01	0.000000e+00	
-2.000000e+00	1.424051e-01	1.219812e+00	5.664441e+01	2.541914e-07	2.531011e+05	1.007144e+05	2.876265e+02	1.365843e-01	-8.609236e-01	0.000000e+00	
-1.948718e+00	1.424051e-01	1.219805e+00	5.664493e+01	2.855172e-06	2.530992e+05	1.007136e+05	2.876260e+02	1.365865e-01	-8.620091e-01	0.000000e+00	
-2.000000e+00	1.107595e-01	1.219812e+00	5.664441e+01	2.648147e-07	2.531011e+05	1.007144e+05	2.876265e+02	1.365843e-01	-8.609235e-01	0.000000e+00	
-1.948718e+00	1.107595e-01	1.219805e+00	5.664493e+01	2.380858e-06	2.530992e+05	1.007136e+05	2.876260e+02	1.365865e-01	-8.620091e-01	0.000000e+00	
-2.000000e+00	7.911392e-02	1.219812e+00	5.664440e+01	2.755122e-07	2.531011e+05	1.007144e+05	2.876265e+02	1.365843e-01	-8.609235e-01	0.000000e+00	
-1.948718e+00	7.911392e-02	1.219805e+00	5.664493e+01	1.912957e-06	2.530992e+05	1.007136e+05	2.876260e+02	1.365865e-01	-8.620090e-01	0.000000e+00	
-2.000000e+00	4.746835e-02	1.219812e+00	5.664440e+01	2.862797e-07	2.531011e+05	1.007144e+05	2.876265e+02	1.365843e-01	-8.609234e-01	0.000000e+00	
-1.948718e+00	4.746835e-02	1.219805e+00	5.664493e+01	1.450125e-06	2.530992e+05	1.007136e+05	2.876260e+02	1.365865e-01	-8.620090e-01	0.000000e+00	
-2.000000e+00	1.582278e-02	1.219812e+00	5.664440e+01	2.971236e-07	2.531011e+05	1.007144e+05	2.876265e+02	1.365843e-01	-8.609234e-01	0.000000e+00	
-1.948718e+00	1.582278e-02	1.219805e+00	5.664493e+01	9.908314e-07	2.530992e+05	1.007136e+05	2.876260e+02	1.365865e-01	-8.620090e-01	0.000000e+00	
-2.000000e+00	-1.582278e-02	1.219812e+00	5.664440e+01	3.080590e-07	2.531011e+05	1.007144e+05	2.876265e+02	1.365843e-01	-8.609234e-01	0.000000e+00	
-1.948718e+00	-1.582278e-02	1.219805e+00	5.664493e+01	5.334435e-07	2.530992e+05	1.007136e+05	2.876260e+02	1.365865e-01	-8.620090e-01	0.000000e+00	
-2.000000e+00	-4.746835e-02	1.219812e+00	5.664440e+01	3.191035e-07	2.531011e+05	1.007144e+05	2.876265e+02	1.365843e-01	-8.609235e-01	0.000000e+00	
-1.948718e+00	-4.746835e-02	1.219805e+00	5.664493e+01	7.628076e-08	2.530992e+05	1.007136e+05	2.876260e+02	1.365865e-01	-8.620091e-01	0.000000e+00	
-2.000000e+00	-7.911392e-02	1.219812e+00	5.664441e+01	3.302744e-07	2.531011e+05	1.007144e+05	2.876265e+02	1.365843e-01	-8.609235e-01	0.000000e+00	
-1.948718e+00	-7.911392e-02	1.219805e+00	5.664493e+01	-3.823101e-07	2.530992e+05	1.007136e+05	2.876260e+02	1.365865e-01	-8.620091e-01	0.000000e+00	
-2.000000e+00	-1.107595e-01	1.219812e+00	5.664441e+01	3.415807e-07	2.531011e+05	1.007144e+05	2.876265e+02	1.365843e-01	-8.609236e-01	0.000000e+00	
-1.948718e+00	-1.107595e-01	1.219805e+00	5.664493e+01	-8.439041e-07	2.530992e+05	1.007136e+05	2.876260e+02	1.365865e-01	-8.620092e-01	0.000000e+00	
-2.000000e+00	-1.424051e-01	1.219812e+00	5.664441e+01	3.530209e-07	2.531011e+05	1.007144e+05	2.876265e+02	1.365843e-01	-8.609237e-01	0.000000e+00	
-1.948718e+00	-1.424051e-01	1.219805e+00	5.664493e+01	-1.309912e-06	2.530992e+05	1.007136e+05	2.876260e+02	1.365865e-01	-8.620093e-01	0.000000e+00	
-2.000000e+00	-1.740506e-01	1.219812e+00	5.664441e+01	3.645706e-07	2.531011e+05	1.007144e+05	2.876265e+02	1.365843e-01	-8.609238e-01	0.000000e+00	
-1.948718e+00	-1.740506e-01	1.219805e+00	5.664494e+01	-1.781526e-06	2.530992e+05	1.007136e+05	2.876260e+02	1.365865e-01	-8.620094e-01	0.000000e+00	
-2.000000e+00	-2.056962e-01	1.219812e+00	5.664441e+01	3.761813e-07	2.531011e+05	1.007144e+05	2.876265e+02	1.365843e-01	-8.609239e-01	0.000000e+00	
-1.948718e+00	-2.056962e-01	1.219805e+00	5.664494e+01	-2.259597e-06	2.530992e+05	1.007136e+05	2.876260e+02	1.365865e-01	-8.620095e-01	0.000000e+00	
-2.000000e+00	-2.373418e-01	1.219812e+00	5.664441e+01	3.877600e-07	2.531011e+05	1.007144e+05	2.876265e+02	1.365844e-01	-8.609241e-01	0.000000e+00	
-1.948718e+00	-2.373418e-01	1.219805e+00	5.664494e+01	-2.744578e-06	2.530992e+05	1.007136e+05	2.876260e+02	1.365865e-01	-8.620096e-01	0.000000e+00	
-2.000000e+00	-2.689873e-01	1.219812e+00	5.664442e+01	3.991736e-07	2.531011e+05	1.007144e+05	2.876265e+02	1.365844e-01	-8.609242e-01	0.000000e+00	
-1.948718e+00	-2.689873e-01	1.219805e+00	5.664494e+01	-3.236312e-06	2.530992e+05	1.007136e+05	2.876260e+02	1.365865e-01	-8.620098e-01	0.000000e+00	
-2.000000e+00	-3.006329e-01	1.219812e+00	5.664442e+01	4.102041e-07	2.531011e+05	1.007144e+05	2.876265e+02	1.365844e-01	-8.609244e-01	0.000000e+00	
-1.948718e+00	-3.006329e-01	1.219805e+00	5.664495e+01	-3.734006e-06	2.530992e+05	1.007136e+05	2.876260e+02	1.365866e-01	-8.620100e-01	0.000000e+00	
-2.000000e+00	-3.322785e-01	1.219812e+00	5.664442e+01	4.205735e-07	2.531011e+05	1.007144e+05	2.876265e+02	1.365844e-01	-8.609246e-01	0.000000e+00	
-1.948718e+00	-3.322785e-01	1.219805e+00	5.664495e+01	-4.235824e-06	2.530992e+05	1.007136e+05	2.876260e+02	1.365866e-01	-8.620101e-01	0.000000e+00	
-2.000000e+00	-3.639241e-01	1.219812e+00	5.664443e+01	4.298466e-07	2.531011e+05	1.007144e+05	2.876265e+02	1.365844e-01	-8.609248e-01	0.000000e+00	
-1.948718e+00	-3.639241e-01	1.219805e+00	5.664495e+01	-4.738973e-06	2.530992e+05	1.007136e+05	2.876260e+02	1.365866e-01	-8.620103e-01	0.000000e+00	
-2.000000e+00	-3.955696e-01	1.219812e+00	5.664443e+01	4.375015e-07	2.531011e+05	1.007144e+05	2.876265e+02	1.365844e-01	-8.609251e-01	0.000000e+00	
-1.948718e+00	-3.955696e-01	1.219805e+00	5.664496e+01	-5.238884e-06	2.530992e+05	1.007136e+05	2.876260e+02	1.365866e-01	-8.620106e-01	0.000000e+00	
-2.000000e+00	-4.272152e-01	1.219812e+00	5.664443e+01	4.427039e-07	2.531011e+05	1.007144e+05	2.876265e+02	1.365844e-01	-8.609254e-01	0.000000e+00	
-1.948718e+00	-4.272152e-01	1.219805e+00	5.664496e+01	-5.729643e-06	2.530992e+05	1.007136e+05	2.876260e+02	1.365866e-01	-8.620108e-01	0.000000e+00	
-2.000000e+00	-4.588608e-01	1.219812e+00	5.664444e+01	4.444967e-07	2.531011e+05	1.007144e+05	2.876265e+02	1.365844e-01	-8.609257e-01	0.000000e+00	
-1.948718e+00	-4.588608e-01	1.219805e+00	5.664497e+01	-6.202240e-06	2.530992e+05	1.007136e+05	2.876260e+02	1.365866e-01	-8.620110e-01	0.000000e+00	
-2.000000e+00	-4.905063e-01	1.219812e+00	5.664444e+01	4.412831e-07	2.531011e+05	1.007144e+05	2.876265e+02	1.365844e-01	-8.609260e-01	0.000000e+00	
-1.948718e+00	-4.905063e-01	1.219805e+00	5.664497e+01	-6.645942e-06	2.530992e+05	1.007136e+05	2.876260e+02	1.365866e-01	-8.620113e-01	0.000000e+00	
-2.000000e+00	-5.221519e-01	1.219812e+00	5.664445e+01	4.314002e-07	2.531011e+05	1.007144e+05	2.876265e+02	1.365844e-01	-8.609264e-01	0.000000e+00	
-1.948718e+00	-5.221519e-01	1.219805e+00	5.664498e+01	-7.044275e-06	2.530992e+05	1.007136e+05	2.876260e+02	1.365866e-01	-8.620116e-01	0.000000e+00	
-2.000000e+00	-5.537975e-01	1.219812e+00	5.664446e+01	4.120194e-07	2.531011e+05	1.007144e+05	2.876265e+02	1.365845e-01	-8.609267e-01	0.000000e+00	
-1.948718e+00	-5.537975e-01	1.219805e+00	5.664498e+01	-7.378880e-06	2.530992e+05	1.007136e+05	2.876260e+02	1.365866e-01	-8.620118e-01	0.000000e+00	
-2.000000e+00	-5.854430e-01	1.219812e+00	5.664446e+01	3.807481e-07	2.531011e+05	1.007144e+05	2.876265e+02	1.365845e-01	-8.609271e-01	0.000000e+00	
-1.948718e+00	-5.854430e-01	1.219805e+00	5.664499e+01	-7.620261e-06	2.530992e+05	1.007136e+05	2.876260e+02	1.365867e-01	-8.620121e-01	0.000000e+00	
-2.000000e+00	-6.170886e-01	1.219812e+00	5.664447e+01	3.327761e-07	2.531011e+05	1.007144e+05	2.876265e+02	1.365845e-01	-8.609275e-01	0.000000e+00	
-1.948718e+00	-6.170886e-01	1.219805e+00	5.664500e+01	-7.738781e-06	2.530992e+05	1.007136e+05	2.876260e+02	1.365867e-01	-8.620123e-01	0.000000e+00	
-2.000000e+00	-6.487342e-01	1.219812e+00	5.664448e+01	2.642462e-07	2.531011e+05	1.007144e+05	2.876265e+02	1.365845e-01	-8.609280e-01	0.000000e+00	
-1.948718e+00	-6.487342e-01	1.219805e+00	5.664500e+01	-7.683441e-06	2.530992e+05	1.007136e+05	2.876260e+02	1.365867e-01	-8.620126e-01	0.000000e+00	
-2.000000e+00	-6.803797e-01	1.219812e+00	5.664448e+01	1.641759e-07	2.531011e+05	1.007144e+05	2.876265e+02	1.365845e-01	-8.609284e-01	0.000000e+00	
-1.948718e+00	-6.803797e-01	1.219805e+00	5.664501e+01	-7.411221e-06	2.530992e+05	1.007136e+05	2.876260e+02	1.365867e-01	-8.620128e-01	0.000000e+00	
-2.000000e+00	-7.120253e-01	1.219812e+00	5.664449e+01	2.358288e-08	2.531011e+05	1.007144e+05	2.876265e+02	1.365845e-01	-8.609288e-01	0.000000e+00	
-1.948718e+00	-7.120253e-01	1.219805e+00	5.664502e+01	-6.832568e-06	2.530992e+05	1.007136e+05	2.876260e+02	1.365867e-01	-8.620129e-01	0.000000e+00	
-2.000000e+00	-7.436709e-01	1.219812e+00	5.664450e+01	-1.804337e-07	2.531011e+05	1.007144e+05	2.876265e+02	1.365846e-01	-8.609293e-01	0.000000e+00	
-1.948718e+00	-7.436709e-01	1.219805e+00	5.664502e+01	-5.881948e-06	2.530992e+05	1.007136e+05	2.876260e+02	1.365867e-01	-8.620130e-01	0.000000e+00	
-2.000000e+00	-7.753165e-01	1.219812e+00	5.664450e+01	-4.521088e-07	2.531011e+05	1.007144e+05	2.876265e+02	1.365846e-01	-8.609297e-01	0.000000e+00	
-1.948718e+00	-7.753165e-01	1.219805e+00	5.664503e+01	-4.374630e-06	2.530992e+05	1.007136e+05	2.876260e+02	1.365868e-01	-8.620130e-01	0.000000e+00	
-2.000000e+00	-8.069620e-01	1.219812e+00	5.664451e+01	-8.116457e-07	2.531011e+05	1.007144e+05	2.876265e+02	1.365846e-01	-8.609301e-01	0.000000e+00	
-1.948718e+00	-8.069620e-01	1.219805e+00	5.664503e+01	-2.198919e-06	2.530992e+05	1.007136e+05	2.876260e+02	1.365868e-01	-8.620129e-01	0.000000e+00	
-2.000000e+00	-8.386076e-01	1.219812e+00	5.664451e+01	-1.220088e-06	2.531011e+05	1.007144e+05	2.876265e+02	1.365846e-01	-8.609304e-01	0.000000e+00	
-1.948718e+00	-8.386076e-01	1.219805e+00	5.664504e+01	1.022649e-06	2.530992e+05	1.007136e+05	2.876260e+02	1.365868e-01	-8.620127e-01	0.000000e+00	
-2.000000e+00	-8.702532e-01	1.219812e+00	5.664451e+01	-1.702345e-06	2.531011e+05	1.007144e+05	2.876265e+02	1.365846e-01	-8.609307e-01	0.000000e+00	
-1.948718e+00	-8.702532e-01	1.219805e+00	5.664504e+01	5.380985e-06	2.530992e+05	1.007136e+05	2.876260e+02	1.365868e-01	-8.620122e-01	0.000000e+00	
-2.000000e+00	-9.018987e-01	1.219812e+00	5.664451e+01	-2.174355e-06	2.531011e+05	1.007144e+05	2.876265e+02	1.365846e-01	-8.609308e-01	0.000000e+00	
-1.948718e+00	-9.018987e-01	1.219805e+00	5.664504e+01	1.157350e-05	2.530992e+05	1.007136e+05	2.876260e+02	1.365868e-01	-8.620116e-01	0.000000e+00	
-2.000000e+00	-9.335443e-01	1.219812e+00	5.664451e+01	-2.752539e-06	2.531011e+05	1.007144e+05	2.876265e+02	1.365846e-01	-8.609307e-01	0.000000e+00	
-1.948718e+00	-9.335443e-01	1.219805e+00	5.664504e+01	1.948523e-05	2.530992e+05	1.007136e+05	2.876260e+02	1.365868e-01	-8.620104e-01	0.000000e+00	
-2.000000e+00	-9.651899e-01	1.219812e+00	5.664450e+01	-3.207605e-06	2.531011e+05	1.007144e+05	2.876265e+02	1.365846e-01	-8.609304e-01	0.000000e+00	
-1.948718e+00	-9.651899e-01	1.219805e+00	5.664503e+01	3.073015e-05	2.530992e+05	1.007136e+05	2.876260e+02	1.365868e-01	-8.620091e-01	0.000000e+00	
-2.000000e+00	-9.968354e-01	1.219812e+00	5.664448e+01	-3.763858e-06	2.531011e+05	1.007144e+05	2.876265e+02	1.365845e-01	-8.609295e-01	0.000000e+00	
-1.948718e+00	-9.968354e-01	1.219805e+00	5.664502e+01	4.474408e-05	2.530992e+05	1.007136e+05	2.876260e+02	1.365867e-01	-8.620067e-01	0.000000e+00	
-2.000000e+00	-1.028481e+00	1.219812e+00	5.664445e+01	-3.211207e-06	2.531011e+05	1.007144e+05	2.876265e+02	1.365844e-01	-8.609282e-01	0.000000e+00	
-1.948718e+00	-1.028481e+00	1.219805e+00	5.664499e+01	6.635986e-05	2.530992e+05	1.007136e+05	2.876260e+02	1.365867e-01	-8.620044e-01	0.000000e+00	
-2.000000e+00	-1.060127e+00	1.219812e+00	5.664440e+01	4.346861e-07	2.531011e+05	1.007144e+05	2.876266e+02	1.365843e-01	-8.609256e-01	0.000000e+00	
-1.948718e+00	-1.060127e+00	1.219805e+00	5.664496e+01	9.594350e-05	2.530992e+05	1.007136e+05	2.876260e+02	1.365866e-01	-8.619999e-01	0.000000e+00	
-2.000000e+00	-1.091772e+00	1.219812e+00	5.664433e+01	1.960042e-05	2.531011e+05	1.007144e+05	2.876266e+02	1.365841e-01	-8.609219e-01	0.000000e+00	
-1.948718e+00	-1.091772e+00	1.219805e+00	5.664493e+01	1.543575e-04	2.530992e+05	1.007136e+05	2.876260e+02	1.365865e-01	-8.619964e-01	0.000000e+00	
-2.000000e+00	-1.123418e+00	1.219812e+00	5.664423e+01	7.507006e-05	2.531011e+05	1.007144e+05	2.876266e+02	1.365839e-01	-8.609142e-01	0.000000e+00	
-1.948718e+00	-1.123418e+00	1.219805e+00	5.664492e+01	2.459724e-04	2.530993e+05	1.007136e+05	2.876260e+02	1.365865e-01	-8.619877e-01	0.000000e+00	
-2.000000e+00	-1.155063e+00	1.219812e+00	5.664413e+01	2.022397e-04	2.531011e+05	1.007144e+05	2.876266e+02	1.365837e-01	-8.609022e-01	0.000000e+00	
-1.948718e+00	-1.155063e+00	1.219805e+00	5.664490e+01	4.100084e-04	2.530993e+05	1.007136e+05	2.876260e+02	1.365864e-01	-8.619854e-01	0.000000e+00	
-2.000000e+00	-1.186709e+00	1.219812e+00	5.664392e+01	3.714424e-04	2.531012e+05	1.007144e+05	2.876266e+02	1.365831e-01	-8.608763e-01	0.000000e+00	
-1.948718e+00	-1.186709e+00	1.219805e+00	5.664460e+01	5.295043e-04	2.530993e+05	1.007136e+05	2.876260e+02	1.365857e-01	-8.619662e-01	0.000000e+00	
-2.000000e+00	-1.218354e+00	1.219812e+00	5.664343e+01	4.545564e-04	2.531012e+05	1.007144e+05	2.876266e+02	1.365819e-01	-8.608451e-01	0.000000e+00	
-1.948718e+00	-1.218354e+00	1.219805e+00	5.664366e+01	5.564237e-04	2.530992e+05	1.007136e+05	2.876260e+02	1.365834e-01	-8.619802e-01	0.000000e+00	
-1.897436e+00	1.218354e+00	1.219800e+00	5.664327e+01	-5.194277e-04	2.530977e+05	1.007130e+05	2.876255e+02	1.365832e-01	-8.628157e-01	0.000000e+00	
-1.897436e+00	1.250000e+00	1.219800e+00	5.664148e+01	9.347025e-07	2.530977e+05	1.007130e+05	2.876255e+02	1.365788e-01	-8.627875e-01	0.000000e+00	
-1.897436e+00	1.186709e+00	1.219800e+00	5.664471e+01	-5.848262e-04	2.530978e+05	1.007130e+05	2.876255e+02	1.365866e-01	-8.628040e-01	0.000000e+00	
-1.897436e+00	1.155063e+00	1.219800e+00	5.664520e+01	-5.142892e-04	2.530978e+05	1.007130e+05	2.876255e+02	1.365878e-01	-8.628206e-01	0.000000e+00	
-1.897436e+00	1.123418e+00	1.219800e+00	5.664523e+01	-3.479755e-04	2.530978e+05	1.007130e+05	2.876255e+02	1.365879e-01	-8.628194e-01	0.000000e+00	
-1.897436e+00	1.091772e+00	1.219800e+00	5.664517e+01	-2.383161e-04	2.530978e+05	1.007130e+05	2.876255e+02	1.365878e-01	-8.628273e-01	0.000000e+00	
-1.897436e+00	1.060127e+00	1.219800e+00	5.664514e+01	-1.546658e-04	2.530978e+05	1.007130e+05	2.876255e+02	1.365877e-01	-8.628288e-01	0.000000e+00	
-1.897436e+00	1.028481e+00	1.219800e+00	5.664514e+01	-1.070043e-04	2.530978e+05	1.007130e+05	2.876255e+02	1.365877e-01	-8.628328e-01	0.000000e+00	
-1.897436e+00	9.968354e-01	1.219800e+00	5.664514e+01	-7.054469e-05	2.530978e+05	1.007130e+05	2.876255e+02	1.365877e-01	-8.628343e-01	0.000000e+00	
-1.897436e+00	9.651899e-01	1.219800e+00	5.664515e+01	-4.654249e-05	2.530978e+05	1.007130e+05	2.876255e+02	1.365877e-01	-8.628364e-01	0.000000e+00	
-1.897436e+00	9.335443e-01	1.219800e+00	5.664515e+01	-2.743733e-05	2.530978e+05	1.007130e+05	2.876255e+02	1.365877e-01	-8.628375e-01	0.000000e+00	
-1.897436e+00	9.018987e-01	1.219800e+00	5.664514e+01	-1.397501e-05	2.530978e+05	1.007130e+05	2.876255e+02	1.365877e-01	-8.628385e-01	0.000000e+00	
-1.897436e+00	8.702532e-01	1.219800e+00	5.664514e+01	-3.403826e-06	2.530978e+05	1.007130e+05	2.876255e+02	1.365877e-01	-8.628391e-01	0.000000e+00	
-1.897436e+00	8.386076e-01	1.219800e+00	5.664513e+01	4.121754e-06	2.530978e+05	1.007130e+05	2.876255e+02	1.365877e-01	-8.628396e-01	0.000000e+00	
-1.897436e+00	8.069620e-01	1.219800e+00	5.664512e+01	9.718986e-06	2.530978e+05	1.007130e+05	2.876255e+02	1.365877e-01	-8.628399e-01	0.000000e+00	
-1.897436e+00	7.753165e-01	1.219800e+00	5.664512e+01	1.349447e-05	2.530978e+05	1.007130e+05	2.876255e+02	1.365876e-01	-8.628400e-01	0.000000e+00	
-1.897436e+00	7.436709e-01	1.219800e+00	5.664511e+01	1.605372e-05	2.530978e+05	1.007130e+05	2.876255e+02	1.365876e-01	-8.628401e-01	0.000000e+00	
-1.897436e+00	7.120253e-01	1.219800e+00	5.664510e+01	1.759078e-05	2.530978e+05	1.007130e+05	2.876255e+02	1.365876e-01	-8.628401e-01	0.000000e+00	
-1.897436e+00	6.803797e-01	1.219800e+00	5.664509e+01	1.843586e-05	2.530978e+05	1.007130e+05	2.876255e+02	1.365876e-01	-8.628400e-01	0.000000e+00	
-1.897436e+00	6.487342e-01	1.219800e+00	5.664509e+01	1.872068e-05	2.530978e+05	1.007130e+05	2.876255e+02	1.365876e-01	-8.628399e-01	0.000000e+00	
-1.897436e+00	6.170886e-01	1.219800e+00	5.664508e+01	1.861080e-05	2.530978e+05	1.007130e+05	2.876255e+02	1.365876e-01	-8.628397e-01	0.000000e+00	
-1.897436e+00	5.854430e-01	1.219800e+00	5.664507e+01	1.818823e-05	2.530978e+05	1.007130e+05	2.876255e+02	1.365875e-01	-8.628395e-01	0.000000e+00	
-1.897436e+00	5.537975e-01	1.219800e+00	5.664507e+01	1.754511e-05	2.530978e+05	1.007130e+05	2.876255e+02	1.365875e-01	-8.628394e-01	0.000000e+00	
-1.897436e+00	5.221519e-01	1.219800e+00	5.664506e+01	1.673640e-05	2.530978e+05	1.007130e+05	2.876255e+02	1.365875e-01	-8.628392e-01	0.000000e+00	
-1.897436e+00	4.905063e-01	1.219800e+00	5.664506e+01	1.581608e-05	2.530978e+05	1.007130e+05	2.876255e+02	1.365875e-01	-8.628390e-01	0.000000e+00	
-1.897436e+00	4.588608e-01	1.219800e+00	5.664505e+01	1.481871e-05	2.530978e+05	1.007130e+05	2.876255e+02	1.365875e-01	-8.628388e-01	0.000000e+00	
-1.897436e+00	4.272152e-01	1.219800e+00	5.664505e+01	1.377493e-05	2.530978e+05	1.007130e+05	2.876255e+02	1.365875e-01	-8.628386e-01	0.000000e+00	
-1.897436e+00	3.955696e-01	1.219800e+00	5.664504e+01	1.270499e-05	2.530978e+05	1.007130e+05	2.876255e+02	1.365875e-01	-8.628384e-01	0.000000e+00	
-1.897436e+00	3.639241e-01	1.219800e+00	5.664504e+01	1.162566e-05	2.530978e+05	1.007130e+05	2.876255e+02	1.365874e-01	-8.628383e-01	0.000000e+00	
-1.897436e+00	3.322785e-01	1.219800e+00	5.664503e+01	1.054798e-05	2.530978e+05	1.007130e+05	2.876255e+02	1.365874e-01	-8.628381e-01	0.000000e+00	
-1.897436e+00	3.006329e-01	1.219800e+00	5.664503e+01	9.480362e-06	2.530978e+05	1.007130e+05	2.876255e+02	1.365874e-01	-8.628380e-01	0.000000e+00	
-1.897436e+00	2.689873e-01	1.219800e+00	5.664503e+01	8.427906e-06	2.530978e+05	1.007130e+05	2.876255e+02	1.365874e-01	-8.628379e-01	0.000000e+00	
-1.897436e+00	2.373418e-01	1.219800e+00	5.664503e+01	7.393857e-06	2.530978e+05	1.007130e+05	2.876255e+02	1.365874e-01	-8.628378e-01	0.000000e+00	
-1.897436e+00	2.056962e-01	1.219800e+00	5.664502e+01	6.379486e-06	2.530978e+05	1.007130e+05	2.876255e+02	1.365874e-01	-8.628377e-01	0.000000e+00	
-1.897436e+00	1.740506e-01	1.219800e+00	5.664502e+01	5.384817e-06	2.530978e+05	1.007130e+05	2.876255e+02	1.365874e-01	-8.628376e-01	0.000000e+00	
-1.897436e+00	1.424051e-01	1.219800e+00	5.664502e+01	4.408695e-06	2.530978e+05	1.007130e+05	2.876255e+02	1.365874e-01	-8.628375e-01	0.000000e+00	
-1.897436e+00	1.107595e-01	1.219800e+00	5.664502e+01	3.449172e-06	2.530978e+05	1.007130e+05	2.876255e+02	1.365874e-01	-8.628375e-01	0.000000e+00	
-1.897436e+00	7.911392e-02	1.219800e+00	5.664502e+01	2.503620e-06	2.530978e+05	1.007130e+05	2.876255e+02	1.365874e-01	-8.628375e-01	0.000000e+00	
-1.897436e+00	4.746835e-02	1.219800e+00	5.664502e+01	1.568955e-06	2.530978e+05	1.007130e+05	2.876255e+02	1.365874e-01	-8.628375e-01	0.000000e+00	
-1.897436e+00	1.582278e-02	1.219800e+00	5.664502e+01	6.417529e-07	2.530978e+05	1.007130e+05	2.876255e+02	1.365874e-01	-8.628375e-01	0.000000e+00	
-1.897436e+00	-1.582278e-02	1.219800e+00	5.664502e+01	-2.816004e-07	2.530978e+05	1.007130e+05	2.876255e+02	1.365874e-01	-8.628375e-01	0.000000e+00	
-1.897436e+00	-4.746835e-02	1.219800e+00	5.664502e+01	-1.204808e-06	2.530978e+05	1.007130e+05	2.876255e+02	1.365874e-01	-8.628375e-01	0.000000e+00	
-1.897436e+00	-7.911392e-02	1.219800e+00	5.664502e+01	-2.131525e-06	2.530978e+05	1.007130e+05	2.876255e+02	1.365874e-01	-8.628376e-01	0.000000e+00	
-1.897436e+00	-1.107595e-01	1.219800e+00	5.664502e+01	-3.065268e-06	2.530978e+05	1.007130e+05	2.876255e+02	1.365874e-01	-8.628376e-01	0.000000e+00	