TITLE = "Visualization of the volumetric solution"
VARIABLES = "x","y","Density","Momentum_x","Momentum_y","Energy","Pressure","Temperature","Mach","C<sub>p</sub>","Roe_Dissipation"
ZONE NODES= 2400, ELEMENTS= 2291, DATAPACKING=POINT, ZONETYPE=FEQUADRILATERAL
0.000000e+00	1.250000e+00	1.220806e+00	5.761586e+01	-8.037388e+00	2.539165e+05	1.010122e+05	2.882421e+02	1.400080e-01	-4.410235e-01	0.000000e+00	
0.000000e+00	1.218354e+00	1.220823e+00	5.761991e+01	-8.011433e+00	2.539167e+05	1.010123e+05	2.882383e+02	1.400080e-01	-4.409319e-01	0.000000e+00	
3.448276e-02	1.218354e+00	1.250762e+00	5.612235e+01	-3.791268e+01	2.624844e+05	1.042603e+05	2.903853e+02	1.585105e-01	4.138412e+00	0.000000e+00	
3.448276e-02	1.250000e+00	1.250727e+00	5.612100e+01	-3.791756e+01	2.624766e+05	1.042571e+05	2.903846e+02	1.585188e-01	4.133952e+00	0.000000e+00	
0.000000e+00	1.186709e+00	1.220823e+00	5.762825e+01	-7.999593e+00	2.539148e+05	1.010114e+05	2.882358e+02	1.400246e-01	-4.421605e-01	0.000000e+00	
3.448276e-02	1.186709e+00	1.250769e+00	5.612163e+01	-3.791552e+01	2.624855e+05	1.042607e+05	2.903848e+02	1.585120e-01	4.139011e+00	0.000000e+00	
0.000000e+00	1.155063e+00	1.220824e+00	5.763312e+01	-7.994247e+00	2.539144e+05	1.010111e+05	2.882349e+02	1.400346e-01	-4.425405e-01	0.000000e+00	
3.448276e-02	1.155063e+00	1.250778e+00	5.612238e+01	-3.791696e+01	2.624870e+05	1.042613e+05	2.903843e+02	1.585143e-01	4.139820e+00	0.000000e+00	
0.000000e+00	1.123418e+00	1.220822e+00	5.763448e+01	-7.991569e+00	2.539141e+05	1.010110e+05	2.882348e+02	1.400371e-01	-4.427168e-01	0.000000e+00	
3.448276e-02	1.123418e+00	1.250782e+00	5.612251e+01	-3.791824e+01	2.624878e+05	1.042616e+05	2.903841e+02	1.585157e-01	4.140221e+00	0.000000e+00	
0.000000e+00	1.091772e+00	1.220821e+00	5.763435e+01	-7.989804e+00	2.539139e+05	1.010109e+05	2.882350e+02	1.400363e-01	-4.428154e-01	0.000000e+00	
3.448276e-02	1.091772e+00	1.250785e+00	5.612212e+01	-3.791881e+01	2.624882e+05	1.042617e+05	2.903840e+02	1.585154e-01	4.140487e+00	0.000000e+00	
0.000000e+00	1.060127e+00	1.220820e+00	5.763417e+01	-7.988567e+00	2.539138e+05	1.010109e+05	2.882351e+02	1.400356e-01	-4.428692e-01	0.000000e+00	
3.448276e-02	1.060127e+00	1.250786e+00	5.612178e+01	-3.791898e+01	2.624885e+05	1.042619e+05	2.903840e+02	1.585148e-01	4.140668e+00	0.000000e+00	
0.000000e+00	1.028481e+00	1.220820e+00	5.763426e+01	-7.987790e+00	2.539137e+05	1.010109e+05	2.882352e+02	1.400356e-01	-4.428989e-01	0.000000e+00	
3.448276e-02	1.028481e+00	1.250787e+00	5.612168e+01	-3.791904e+01	2.624887e+05	1.042620e+05	2.903841e+02	1.585146e-01	4.140791e+00	0.000000e+00	
0.000000e+00	9.968354e-01	1.220819e+00	5.763446e+01	-7.987357e+00	2.539137e+05	1.010109e+05	2.882352e+02	1.400359e-01	-4.429132e-01	0.000000e+00	
3.448276e-02	9.968354e-01	1.250788e+00	5.612173e+01	-3.791911e+01	2.624889e+05	1.042620e+05	2.903841e+02	1.585147e-01	4.140872e+00	0.000000e+00	
0.000000e+00	9.651899e-01	1.220819e+00	5.763457e+01	-7.987135e+00	2.539137e+05	1.010108e+05	2.882352e+02	1.400361e-01	-4.429223e-01	0.000000e+00	
3.448276e-02	9.651899e-01	1.250788e+00	5.612176e+01	-3.791920e+01	2.624890e+05	1.042621e+05	2.903841e+02	1.585148e-01	4.140923e+00	0.000000e+00	
0.000000e+00	9.335443e-01	1.220819e+00	5.763455e+01	-7.987006e+00	2.539137e+05	1.010108e+05	2.882352e+02	1.400361e-01	-4.429279e-01	0.000000e+00	
3.448276e-02	9.335443e-01	1.250788e+00	5.612174e+01	-3.791927e+01	2.624890e+05	1.042621e+05	2.903842e+02	1.585148e-01	4.140957e+00	0.000000e+00	
0.000000e+00	9.018987e-01	1.220819e+00	5.763446e+01	-7.986911e+00	2.539137e+05	1.010108e+05	2.882352e+02	1.400358e-01	-4.429316e-01	0.000000e+00	
3.448276e-02	9.018987e-01	1.250788e+00	5.612166e+01	-3.791932e+01	2.624891e+05	1.042621e+05	2.903842e+02	1.585147e-01	4.140980e+00	0.000000e+00	
0.000000e+00	8.702532e-01	1.220819e+00	5.763436e+01	-7.986824e+00	2.539137e+05	1.010108e+05	2.882352e+02	1.400356e-01	-4.429331e-01	0.000000e+00	
3.448276e-02	8.702532e-01	1.250789e+00	5.612157e+01	-3.791933e+01	2.624891e+05	1.042621e+05	2.903842e+02	1.585145e-01	4.140997e+00	0.000000e+00	
0.000000e+00	8.386076e-01	1.220819e+00	5.763429e+01	-7.986745e+00	2.539137e+05	1.010108e+05	2.882352e+02	1.400354e-01	-4.429332e-01	0.000000e+00	
3.448276e-02	8.386076e-01	1.250789e+00	5.612150e+01	-3.791933e+01	2.624891e+05	1.042621e+05	2.903842e+02	1.585144e-01	4.141011e+00	0.000000e+00	
0.000000e+00	8.069620e-01	1.220819e+00	5.763425e+01	-7.986675e+00	2.539137e+05	1.010108e+05	2.882352e+02	1.400353e-01	-4.429325e-01	0.000000e+00	
3.448276e-02	8.069620e-01	1.250789e+00	5.612146e+01	-3.791931e+01	2.624891e+05	1.042621e+05	2.903842e+02	1.585143e-01	4.141022e+00	0.000000e+00	
0.000000e+00	7.753165e-01	1.220819e+00	5.763424e+01	-7.986617e+00	2.539137e+05	1.010108e+05	2.882352e+02	1.400352e-01	-4.429317e-01	0.000000e+00	
3.448276e-02	7.753165e-01	1.250789e+00	5.612145e+01	-3.791930e+01	2.624892e+05	1.042621e+05	2.903842e+02	1.585142e-01	4.141031e+00	0.000000e+00	
0.000000e+00	7.436709e-01	1.220819e+00	5.763424e+01	-7.986568e+00	2.539137e+05	1.010108e+05	2.882352e+02	1.400352e-01	-4.429310e-01	0.000000e+00	
3.448276e-02	7.436709e-01	1.250789e+00	5.612144e+01	-3.791928e+01	2.624892e+05	1.042621e+05	2.903842e+02	1.585142e-01	4.141038e+00	0.000000e+00	
0.000000e+00	7.120253e-01	1.220819e+00	5.763424e+01	-7.986526e+00	2.539137e+05	1.010108e+05	2.882352e+02	1.400352e-01	-4.429305e-01	0.000000e+00	
3.448276e-02	7.120253e-01	1.250789e+00	5.612144e+01	-3.791927e+01	2.624892e+05	1.042621e+05	2.903842e+02	1.585142e-01	4.141044e+00	0.000000e+00	
0.000000e+00	6.803797e-01	1.220819e+00	5.763425e+01	-7.986488e+00	2.539137e+05	1.010108e+05	2.882352e+02	1.400352e-01	-4.429302e-01	0.000000e+00	
3.448276e-02	6.803797e-01	1.250789e+00	5.612144e+01	-3.791925e+01	2.624892e+05	1.042621e+05	2.903842e+02	1.585141e-01	4.141049e+00	0.000000e+00	
0.000000e+00	6.487342e-01	1.220819e+00	5.763425e+01	-7.986454e+00	2.539137e+05	1.010108e+05	2.882352e+02	1.400352e-01	-4.429301e-01	0.000000e+00	
3.448276e-02	6.487342e-01	1.250789e+00	5.612145e+01	-3.791923e+01	2.624892e+05	1.042621e+05	2.903842e+02	1.585141e-01	4.141053e+00	0.000000e+00	
0.000000e+00	6.170886e-01	1.220819e+00	5.763426e+01	-7.986421e+00	2.539137e+05	1.010108e+05	2.882352e+02	1.400352e-01	-4.429301e-01	0.000000e+00	
3.448276e-02	6.170886e-01	1.250789e+00	5.612145e+01	-3.791922e+01	2.624892e+05	1.042621e+05	2.903842e+02	1.585141e-01	4.141056e+00	0.000000e+00	
0.000000e+00	5.854430e-01	1.220819e+00	5.763427e+01	-7.986389e+00	2.539137e+05	1.010108e+05	2.882352e+02	1.400352e-01	-4.429304e-01	0.000000e+00	
3.448276e-02	5.854430e-01	1.250789e+00	5.612146e+01	-3.791920e+01	2.624892e+05	1.042621e+05	2.903842e+02	1.585141e-01	4.141058e+00	0.000000e+00	
0.000000e+00	5.537975e-01	1.220819e+00	5.763428e+01	-7.986358e+00	2.539137e+05	1.010108e+05	2.882352e+02	1.400352e-01	-4.429308e-01	0.000000e+00	
3.448276e-02	5.537975e-01	1.250789e+00	5.612147e+01	-3.791918e+01	2.624892e+05	1.042622e+05	2.903842e+02	1.585141e-01	4.141061e+00	0.000000e+00	
0.000000e+00	5.221519e-01	1.220819e+00	5.763428e+01	-7.986327e+00	2.539137e+05	1.010108e+05	2.882352e+02	1.400352e-01	-4.429314e-01	0.000000e+00	
3.448276e-02	5.221519e-01	1.250789e+00	5.612148e+01	-3.791916e+01	2.624892e+05	1.042622e+05	2.903842e+02	1.585141e-01	4.141063e+00	0.000000e+00	
0.000000e+00	4.905063e-01	1.220819e+00	5.763429e+01	-7.986295e+00	2.539137e+05	1.010108e+05	2.882352e+02	1.400352e-01	-4.429322e-01	0.000000e+00	
3.448276e-02	4.905063e-01	1.250789e+00	5.612148e+01	-3.791914e+01	2.624892e+05	1.042622e+05	2.903842e+02	1.585141e-01	4.141065e+00	0.000000e+00	
0.000000e+00	4.588608e-01	1.220819e+00	5.763430e+01	-7.986265e+00	2.539137e+05	1.010108e+05	2.882352e+02	1.400352e-01	-4.429332e-01	0.000000e+00	
3.448276e-02	4.588608e-01	1.250789e+00	5.612149e+01	-3.791912e+01	2.624892e+05	1.042622e+05	2.903842e+02	1.585140e-01	4.141066e+00	0.000000e+00	
0.000000e+00	4.272152e-01	1.220819e+00	5.763431e+01	-7.986234e+00	2.539137e+05	1.010108e+05	2.882352e+02	1.400352e-01	-4.429342e-01	0.000000e+00	
3.448276e-02	4.272152e-01	1.250789e+00	5.612150e+01	-3.791910e+01	2.624892e+05	1.042622e+05	2.903842e+02	1.585140e-01	4.141068e+00	0.000000e+00	
0.000000e+00	3.955696e-01	1.220819e+00	5.763432e+01	-7.986203e+00	2.539137e+05	1.010108e+05	2.882352e+02	1.400353e-01	-4.429354e-01	0.000000e+00	
3.448276e-02	3.955696e-01	1.250789e+00	5.612150e+01	-3.791908e+01	2.624892e+05	1.042622e+05	2.903842e+02	1.585140e-01	4.141069e+00	0.000000e+00	
0.000000e+00	3.639241e-01	1.220819e+00	5.763432e+01	-7.986173e+00	2.539137e+05	1.010108e+05	2.882352e+02	1.400353e-01	-4.429366e-01	0.000000e+00	
3.448276e-02	3.639241e-01	1.250789e+00	5.612151e+01	-3.791905e+01	2.624892e+05	1.042622e+05	2.903842e+02	1.585140e-01	4.141071e+00	0.000000e+00	
0.000000e+00	3.322785e-01	1.220819e+00	5.763433e+01	-7.986143e+00	2.539137e+05	1.010108e+05	2.882352e+02	1.400353e-01	-4.429379e-01	0.000000e+00	
3.448276e-02	3.322785e-01	1.250789e+00	5.612152e+01	-3.791903e+01	2.624892e+05	1.042622e+05	2.903842e+02	1.585140e-01	4.141072e+00	0.000000e+00	
0.000000e+00	3.006329e-01	1.220819e+00	5.763434e+01	-7.986113e+00	2.539137e+05	1.010108e+05	2.882352e+02	1.400353e-01	-4.429392e-01	0.000000e+00	
3.448276e-02	3.006329e-01	1.250789e+00	5.612152e+01	-3.791901e+01	2.624892e+05	1.042622e+05	2.903842e+02	1.585140e-01	4.141073e+00	0.000000e+00	
0.000000e+00	2.689873e-01	1.220819e+00	5.763434e+01	-7.986083e+00	2.539137e+05	1.010108e+05	2.882352e+02	1.400353e-01	-4.429406e-01	0.000000e+00	
3.448276e-02	2.689873e-01	1.250789e+00	5.612152e+01	-3.791899e+01	2.624892e+05	1.042622e+05	2.903842e+02	1.585139e-01	4.141074e+00	0.000000e+00	
0.000000e+00	2.373418e-01	1.220819e+00	5.763434e+01	-7.986054e+00	2.539136e+05	1.010108e+05	2.882352e+02	1.400353e-01	-4.429420e-01	0.000000e+00	
3.448276e-02	2.373418e-01	1.250789e+00	5.612152e+01	-3.791897e+01	2.624892e+05	1.042622e+05	2.903842e+02	1.585139e-01	4.141075e+00	0.000000e+00	
0.000000e+00	2.056962e-01	1.220819e+00	5.763434e+01	-7.986026e+00	2.539136e+05	1.010108e+05	2.882352e+02	1.400353e-01	-4.429434e-01	0.000000e+00	
3.448276e-02	2.056962e-01	1.250789e+00	5.612153e+01	-3.791895e+01	2.624892e+05	1.042622e+05	2.903842e+02	1.585139e-01	4.141076e+00	0.000000e+00	
0.000000e+00	1.740506e-01	1.220819e+00	5.763435e+01	-7.985998e+00	2.539136e+05	1.010108e+05	2.882352e+02	1.400353e-01	-4.429447e-01	0.000000e+00	
3.448276e-02	1.740506e-01	1.250789e+00	5.612153e+01	-3.791893e+01	2.624892e+05	1.042622e+05	2.903842e+02	1.585139e-01	4.141077e+00	0.000000e+00	
0.000000e+00	1.424051e-01	1.220819e+00	5.763435e+01	-7.985970e+00	2.539136e+05	1.010108e+05	2.882352e+02	1.400353e-01	-4.429461e-01	0.000000e+00	
3.448276e-02	1.424051e-01	1.250789e+00	5.612152e+01	-3.791891e+01	2.624892e+05	1.042622e+05	2.903842e+02	1.585138e-01	4.141078e+00	0.000000e+00	
0.000000e+00	1.107595e-01	1.220819e+00	5.763434e+01	-7.985943e+00	2.539136e+05	1.010108e+05	2.882352e+02	1.400352e-01	-4.429474e-01	0.000000e+00	
3.448276e-02	1.107595e-01	1.250789e+00	5.612152e+01	-3.791889e+01	2.624892e+05	1.042622e+05	2.903842e+02	1.585138e-01	4.141079e+00	0.000000e+00	
0.000000e+00	7.911392e-02	1.220819e+00	5.763434e+01	-7.985917e+00	2.539136e+05	1.010108e+05	2.882352e+02	1.400352e-01	-4.429487e-01	0.000000e+00	
3.448276e-02	7.911392e-02	1.250789e+00	5.612152e+01	-3.791887e+01	2.624892e+05	1.042622e+05	2.903842e+02	1.585138e-01	4.141080e+00	0.000000e+00	
0.000000e+00	4.746835e-02	1.220819e+00	5.763434e+01	-7.985892e+00	2.539136e+05	1.010108e+05	2.882352e+02	1.400352e-01	-4.429500e-01	0.000000e+00	
3.448276e-02	4.746835e-02	1.250789e+00	5.612151e+01	-3.791886e+01	2.624892e+05	1.042622e+05	2.903842e+02	1.585137e-01	4.141081e+00	0.000000e+00	
0.000000e+00	1.582278e-02	1.220819e+00	5.763433e+01	-7.985868e+00	2.539136e+05	1.010108e+05	2.882352e+02	1.400352e-01	-4.429512e-01	0.000000e+00	
3.448276e-02	1.582278e-02	1.250789e+00	5.612151e+01	-3.791884e+01	2.624892e+05	1.042622e+05	2.903842e+02	1.585137e-01	4.141082e+00	0.000000e+00	
0.000000e+00	-1.582278e-02	1.220819e+00	5.763433e+01	-7.985844e+00	2.539136e+05	1.010108e+05	2.882352e+02	1.400352e-01	-4.429523e-01	0.000000e+00	
3.448276e-02	-1.582278e-02	1.250789e+00	5.612150e+01	-3.791883e+01	2.624892e+05	1.042622e+05	2.903842e+02	1.585137e-01	4.141083e+00	0.000000e+00	
0.000000e+00	-4.746835e-02	1.220819e+00	5.763432e+01	-7.985822e+00	2.539136e+05	1.010108e+05	2.882352e+02	1.400352e-01	-4.429535e-01	0.000000e+00	
3.448276e-02	-4.746835e-02	1.250789e+00	5.612149e+01	-3.791881e+01	2.624892e+05	1.042622e+05	2.903842e+02	1.585136e-01	4.141084e+00	0.000000e+00	
0.000000e+00	-7.911392e-02	1.220819e+00	5.763432e+01	-7.985800e+00	2.539136e+05	1.010108e+05	2.882352e+02	1.400351e-01	-4.429545e-01	0.000000e+00	
3.448276e-02	-7.911392e-02	1.250789e+00	5.612148e+01	-3.791880e+01	2.624892e+05	1.042622e+05	2.903842e+02	1.585136e-01	4.141085e+00	0.000000e+00	
0.000000e+00	-1.107595e-01	1.220819e+00	5.763431e+01	-7.985779e+00	2.539136e+05	1.010108e+05	2.882352e+02	1.400351e-01	-4.429555e-01	0.000000e+00	
3.448276e-02	-1.107595e-01	1.250789e+00	5.612148e+01	-3.791878e+01	2.624892e+05	1.042622e+05	2.903842e+02	1.585136e-01	4.141086e+00	0.000000e+00	
0.000000e+00	-1.424051e-01	1.220819e+00	5.763430e+01	-7.985760e+00	2.539136e+05	1.010108e+05	2.882352e+02	1.400351e-01	-4.429565e-01	0.000000e+00	
3.448276e-02	-1.424051e-01	1.250789e+00	5.612147e+01	-3.791877e+01	2.624892e+05	1.042622e+05	2.903842e+02	1.585135e-01	4.141086e+00	0.000000e+00	
0.000000e+00	-1.740506e-01	1.220819e+00	5.763429e+01	-7.985741e+00	2.539136e+05	1.010108e+05	2.882352e+02	1.400351e-01	-4.429574e-01	0.000000e+00	
3.448276e-02	-1.740506e-01	1.250789e+00	5.612146e+01	-3.791876e+01	2.624892e+05	1.042622e+05	2.903842e+02	1.585135e-01	4.141087e+00	0.000000e+00	
0.000000e+00	-2.056962e-01	1.220819e+00	5.763428e+01	-7.985723e+00	2.539136e+05	1.010108e+05	2.882352e+02	1.400350e-01	-4.429582e-01	0.000000e+00	
3.448276e-02	-2.056962e-01	1.250789e+00	5.612145e+01	-3.791875e+01	2.624892e+05	1.042622e+05	2.903842e+02	1.585135e-01	4.141088e+00	0.000000e+00	
0.000000e+00	-2.373418e-01	1.220819e+00	5.763428e+01	-7.985707e+00	2.539136e+05	1.010108e+05	2.882352e+02	1.400350e-01	-4.429590e-01	0.000000e+00	
3.448276e-02	-2.373418e-01	1.250789e+00	5.612143e+01	-3.791874e+01	2.624892e+05	1.042622e+05	2.903842e+02	1.585134e-01	4.141089e+00	0.000000e+00	
0.000000e+00	-2.689873e-01	1.220819e+00	5.763427e+01	-7.985691e+00	2.539136e+05	1.010108e+05	2.882352e+02	1.400350e-01	-4.429598e-01	0.000000e+00	
3.448276e-02	-2.689873e-01	1.250789e+00	5.612142e+01	-3.791873e+01	2.624892e+05	1.042622e+05	2.903842e+02	1.585134e-01	4.141090e+00	0.000000e+00	
0.000000e+00	-3.006329e-01	1.220819e+00	5.763426e+01	-7.985677e+00	2.539136e+05	1.010108e+05	2.882352e+02	1.400350e-01	-4.429605e-01	0.000000e+00	
3.448276e-02	-3.006329e-01	1.250789e+00	5.612141e+01	-3.791872e+01	2.624892e+05	1.042622e+05	2.903842e+02	1.585134e-01	4.141090e+00	0.000000e+00	
0.000000e+00	-3.322785e-01	1.220819e+00	5.763425e+01	-7.985663e+00	2.539136e+05	1.010108e+05	2.882352e+02	1.400349e-01	-4.429613e-01	0.000000e+00	
3.448276e-02	-3.322785e-01	1.250789e+00	5.612140e+01	-3.791872e+01	2.624892e+05	1.042622e+05	2.903842e+02	1.585133e-01	4.141091e+00	0.000000e+00	
0.000000e+00	-3.639241e-01	1.220819e+00	5.763424e+01	-7.985650e+00	2.539136e+05	1.010108e+05	2.882352e+02	1.400349e-01	-4.429620e-01	0.000000e+00	
3.448276e-02	-3.639241e-01	1.250789e+00	5.612139e+01	-3.791871e+01	2.624892e+05	1.042622e+05	2.903842e+02	1.585133e-01	4.141091e+00	0.000000e+00	
0.000000e+00	-3.955696e-01	1.220819e+00	5.763423e+01	-7.985638e+00	2.539136e+05	1.010108e+05	2.882352e+02	1.400349e-01	-4.429626e-01	0.000000e+00	
3.448276e-02	-3.955696e-01	1.250789e+00	5.612138e+01	-3.791870e+01	2.624892e+05	1.042622e+05	2.903842e+02	1.585133e-01	4.141092e+00	0.000000e+00	
0.000000e+00	-4.272152e-01	1.220819e+00	5.763423e+01	-7.985627e+00	2.539136e+05	1.010108e+05	2.882352e+02	1.400349e-01	-4.429633e-01	0.000000e+00	
3.448276e-02	-4.272152e-01	1.250789e+00	5.612138e+01	-3.791870e+01	2.624892e+05	1.042622e+05	2.903842e+02	1.585132e-01	4.141092e+00	0.000000e+00	
0.000000e+00	-4.588608e-01	1.220819e+00	5.763422e+01	-7.985617e+00	2.539136e+05	1.010108e+05	2.882352e+02	1.400349e-01	-4.429640e-01	0.000000e+00	
3.448276e-02	-4.588608e-01	1.250789e+00	5.612137e+01	-3.791869e+01	2.624892e+05	1.042622e+05	2.903842e+02	1.585132e-01	4.141092e+00	0.000000e+00	
0.000000e+00	-4.905063e-01	1.220819e+00	5.763421e+01	-7.985608e+00	2.539136e+05	1.010108e+05	2.882352e+02	1.400348e-01	-4.429647e-01	0.000000e+00	
3.448276e-02	-4.905063e-01	1.250789e+00	5.612136e+01	-3.791869e+01	2.624892e+05	1.042622e+05	2.903842e+02	1.585132e-01	4.141093e+00	0.000000e+00	
0.000000e+00	-5.221519e-01	1.220819e+00	5.763421e+01	-7.985600e+00	2.539136e+05	1.010108e+05	2.882352e+02	1.400348e-01	-4.429655e-01	0.000000e+00	
3.448276e-02	-5.221519e-01	1.250789e+00	5.612136e+01	-3.791869e+01	2.624892e+05	1.042622e+05	2.903842e+02	1.585132e-01	4.141092e+00	0.000000e+00	
0.000000e+00	-5.537975e-01	1.220819e+00	5.763421e+01	-7.985592e+00	2.539136e+05	1.010108e+05	2.882352e+02	1.400348e-01	-4.429663e-01	0.000000e+00	
3.448276e-02	-5.537975e-01	1.250789e+00	5.612136e+01	-3.791868e+01	2.624892e+05	1.042622e+05	2.903842e+02	1.585132e-01	4.141092e+00	0.000000e+00	
0.000000e+00	-5.854430e-01	1.220819e+00	5.763421e+01	-7.985585e+00	2.539136e+05	1.010108e+05	2.882352e+02	1.400348e-01	-4.429672e-01	0.000000e+00	
3.448276e-02	-5.854430e-01	1.250789e+00	5.612136e+01	-3.791868e+01	2.624892e+05	1.042622e+05	2.903842e+02	1.585132e-01	4.141092e+00	0.000000e+00	
0.000000e+00	-6.170886e-01	1.220819e+00	5.763421e+01	-7.985579e+00	2.539136e+05	1.010108e+05	2.882352e+02	1.400348e-01	-4.429682e-01	0.000000e+00	
3.448276e-02	-6.170886e-01	1.250789e+00	5.612136e+01	-3.791868e+01	2.624892e+05	1.042622e+05	2.903842e+02	1.585132e-01	4.141091e+00	0.000000e+00	
0.000000e+00	-6.487342e-01	1.220819e+00	5.763422e+01	-7.985574e+00	2.539136e+05	1.010108e+05	2.882352e+02	1.400348e-01	-4.429693e-01	0.000000e+00	
3.448276e-02	-6.487342e-01	1.250789e+00	5.612136e+01	-3.791868e+01	2.624892e+05	1.042622e+05	2.903842e+02	1.585132e-01	4.141090e+00	0.000000e+00	
0.000000e+00	-6.803797e-01	1.220819e+00	5.763422e+01	-7.985570e+00	2.539136e+05	1.010108e+05	2.882352e+02	1.400349e-01	-4.429705e-01	0.000000e+00	
3.448276e-02	-6.803797e-01	1.250789e+00	5.612136e+01	-3.791868e+01	2.624892e+05	1.042622e+05	2.903842e+02	1.585132e-01	4.141089e+00	0.000000e+00	
0.000000e+00	-7.120253e-01	1.220819e+00	5.763423e+01	-7.985565e+00	2.539136e+05	1.010108e+05	2.882352e+02	1.400349e-01	-4.429718e-01	0.000000e+00	
3.448276e-02	-7.120253e-01	1.250789e+00	5.612137e+01	-3.791868e+01	2.624892e+05	1.042622e+05	2.903842e+02	1.585132e-01	4.141087e+00	0.000000e+00	
0.000000e+00	-7.436709e-01	1.220819e+00	5.763424e+01	-7.985559e+00	2.539136e+05	1.010108e+05	2.882352e+02	1.400349e-01	-4.429732e-01	0.000000e+00	
3.448276e-02	-7.436709e-01	1.250789e+00	5.612139e+01	-3.791868e+01	2.624892e+05	1.042622e+05	2.903842e+02	1.585133e-01	4.141085e+00	0.000000e+00	
0.000000e+00	-7.753165e-01	1.220819e+00	5.763426e+01	-7.985549e+00	2.539136e+05	1.010108e+05	2.882352e+02	1.400349e-01	-4.429746e-01	0.000000e+00	
3.448276e-02	-7.753165e-01	1.250789e+00	5.612141e+01	-3.791868e+01	2.624892e+05	1.042622e+05	2.903842e+02	1.585133e-01	4.141083e+00	0.000000e+00	
0.000000e+00	-8.069620e-01	1.220819e+00	5.763430e+01	-7.985533e+00	2.539136e+05	1.010108e+05	2.882352e+02	1.400350e-01	-4.429759e-01	0.000000e+00	
3.448276e-02	-8.069620e-01	1.250789e+00	5.612144e+01	-3.791867e+01	2.624892e+05	1.042622e+05	2.903842e+02	1.585134e-01	4.141081e+00	0.000000e+00	
0.000000e+00	-8.386076e-01	1.220819e+00	5.763435e+01	-7.985512e+00	2.539136e+05	1.010108e+05	2.882352e+02	1.400352e-01	-4.429769e-01	0.000000e+00	
3.448276e-02	-8.386076e-01	1.250789e+00	5.612150e+01	-3.791867e+01	2.624892e+05	1.042622e+05	2.903842e+02	1.585135e-01	4.141077e+00	0.000000e+00	
0.000000e+00	-8.702532e-01	1.220819e+00	5.763446e+01	-7.985491e+00	2.539136e+05	1.010108e+05	2.882352e+02	1.400354e-01	-4.429778e-01	0.000000e+00	
3.448276e-02	-8.702532e-01	1.250789e+00	5.612158e+01	-3.791867e+01	2.624892e+05	1.042622e+05	2.903842e+02	1.585136e-01	4.141072e+00	0.000000e+00	
0.000000e+00	-9.018987e-01	1.220819e+00	5.763460e+01	-7.985482e+00	2.539136e+05	1.010108e+05	2.882352e+02	1.400357e-01	-4.429785e-01	0.000000e+00	
3.448276e-02	-9.018987e-01	1.250789e+00	5.612170e+01	-3.791869e+01	2.624892e+05	1.042622e+05	2.903842e+02	1.585139e-01	4.141063e+00	0.000000e+00	
0.000000e+00	-9.335443e-01	1.220819e+00	5.763477e+01	-7.985494e+00	2.539136e+05	1.010108e+05	2.882352e+02	1.400362e-01	-4.429810e-01	0.000000e+00	
3.448276e-02	-9.335443e-01	1.250789e+00	5.612182e+01	-3.791875e+01	2.624892e+05	1.042621e+05	2.903842e+02	1.585142e-01	4.141048e+00	0.000000e+00	
0.000000e+00	-9.651899e-01	1.220819e+00	5.763489e+01	-7.985533e+00	2.539136e+05	1.010108e+05	2.882352e+02	1.400364e-01	-4.429842e-01	0.000000e+00	
3.448276e-02	-9.651899e-01	1.250789e+00	5.612189e+01	-3.791885e+01	2.624892e+05	1.042621e+05	2.903842e+02	1.585145e-01	4.141027e+00	0.000000e+00	
0.000000e+00	-9.968354e-01	1.220819e+00	5.763484e+01	-7.985566e+00	2.539136e+05	1.010108e+05	2.882352e+02	1.400363e-01	-4.429906e-01	0.000000e+00	
3.448276e-02	-9.968354e-01	1.250789e+00	5.612184e+01	-3.791895e+01	2.624891e+05	1.042621e+05	2.903842e+02	1.585146e-01	4.140991e+00	0.000000e+00	
0.000000e+00	-1.028481e+00	1.220819e+00	5.763459e+01	-7.985549e+00	2.539136e+05	1.010108e+05	2.882352e+02	1.400357e-01	-4.429835e-01	0.000000e+00	
3.448276e-02	-1.028481e+00	1.250788e+00	5.612160e+01	-3.791905e+01	2.624890e+05	1.042621e+05	2.903842e+02	1.585143e-01	4.140961e+00	0.000000e+00	
0.000000e+00	-1.060127e+00	1.220819e+00	5.763442e+01	-7.985353e+00	2.539136e+05	1.010108e+05	2.882352e+02	1.400352e-01	-4.429615e-01	0.000000e+00	
3.448276e-02	-1.060127e+00	1.250788e+00	5.612139e+01	-3.791902e+01	2.624889e+05	1.042620e+05	2.903842e+02	1.585139e-01	4.140902e+00	0.000000e+00	
0.000000e+00	-1.091772e+00	1.220820e+00	5.763495e+01	-7.985003e+00	2.539138e+05	1.010109e+05	2.882352e+02	1.400363e-01	-4.428757e-01	0.000000e+00	
3.448276e-02	-1.091772e+00	1.250788e+00	5.612156e+01	-3.791917e+01	2.624889e+05	1.042620e+05	2.903841e+02	1.585144e-01	4.140876e+00	0.000000e+00	
0.000000e+00	-1.123418e+00	1.220820e+00	5.763726e+01	-7.984502e+00	2.539139e+05	1.010109e+05	2.882351e+02	1.400416e-01	-4.428481e-01	0.000000e+00	
3.448276e-02	-1.123418e+00	1.250787e+00	5.612257e+01	-3.791940e+01	2.624886e+05	1.042619e+05	2.903840e+02	1.585169e-01	4.140685e+00	0.000000e+00	
0.000000e+00	-1.155063e+00	1.220821e+00	5.764065e+01	-7.985434e+00	2.539142e+05	1.010109e+05	2.882350e+02	1.400499e-01	-4.428032e-01	0.000000e+00	
3.448276e-02	-1.155063e+00	1.250786e+00	5.612288e+01	-3.792124e+01	2.624884e+05	1.042618e+05	2.903838e+02	1.585200e-01	4.140543e+00	0.000000e+00	
0.000000e+00	-1.186709e+00	1.220814e+00	5.764187e+01	-7.989324e+00	2.539131e+05	1.010105e+05	2.882354e+02	1.400549e-01	-4.434673e-01	0.000000e+00	
3.448276e-02	-1.186709e+00	1.250778e+00	5.611846e+01	-3.792330e+01	2.624868e+05	1.042612e+05	2.903840e+02	1.585151e-01	4.139671e+00	0.000000e+00	
0.000000e+00	-1.218354e+00	1.220781e+00	5.762959e+01	-7.999734e+00	2.539081e+05	1.010087e+05	2.882379e+02	1.400321e-01	-4.459967e-01	0.000000e+00	
3.448276e-02	-1.218354e+00	1.250781e+00	5.610803e+01	-3.793247e+01	2.624879e+05	1.042617e+05	2.903848e+02	1.585063e-01	4.140441e+00	0.000000e+00	
6.896552e-02	1.218354e+00	1.260049e+00	5.685301e+01	-6.005931e+01	2.663150e+05	1.054404e+05	2.915078e+02	1.917553e-01	5.802277e+00	0.000000e+00	
6.896552e-02	1.250000e+00	1.260084e+00	5.684266e+01	-6.005188e+01	2.663213e+05	1.054433e+05	2.915077e+02	1.917210e-01	5.806356e+00	0.000000e+00	
6.896552e-02	1.186709e+00	1.260049e+00	5.685984e+01	-6.005945e+01	2.663156e+05	1.054405e+05	2.915080e+02	1.917662e-01	5.802459e+00	0.000000e+00	
6.896552e-02	1.155063e+00	1.260048e+00	5.686428e+01	-6.006067e+01	2.663155e+05	1.054404e+05	2.915078e+02	1.917756e-01	5.802237e+00	0.000000e+00	
6.896552e-02	1.123418e+00	1.260048e+00	5.686637e+01	-6.006174e+01	2.663153e+05	1.054403e+05	2.915076e+02	1.917809e-01	5.802056e+00	0.000000e+00	
6.896552e-02	1.091772e+00	1.260048e+00	5.686715e+01	-6.006226e+01	2.663152e+05	1.054402e+05	2.915074e+02	1.917831e-01	5.801961e+00	0.000000e+00	
6.896552e-02	1.060127e+00	1.260048e+00	5.686738e+01	-6.006242e+01	2.663151e+05	1.054402e+05	2.915073e+02	1.917837e-01	5.801913e+00	0.000000e+00	
6.896552e-02	1.028481e+00	1.260048e+00	5.686748e+01	-6.006243e+01	2.663151e+05	1.054401e+05	2.915072e+02	1.917839e-01	5.801889e+00	0.000000e+00	
6.896552e-02	9.968354e-01	1.260048e+00	5.686757e+01	-6.006244e+01	2.663151e+05	1.054401e+05	2.915072e+02	1.917841e-01	5.801877e+00	0.000000e+00	
6.896552e-02	9.651899e-01	1.260047e+00	5.686762e+01	-6.006247e+01	2.663151e+05	1.054401e+05	2.915072e+02	1.917842e-01	5.801869e+00	0.000000e+00	
6.896552e-02	9.335443e-01	1.260047e+00	5.686762e+01	-6.006251e+01	2.663150e+05	1.054401e+05	2.915073e+02	1.917843e-01	5.801864e+00	0.000000e+00	
6.896552e-02	9.018987e-01	1.260047e+00	5.686758e+01	-6.006253e+01	2.663150e+05	1.054401e+05	2.915073e+02	1.917843e-01	5.801861e+00	0.000000e+00	
6.896552e-02	8.702532e-01	1.260047e+00	5.686751e+01	-6.006254e+01	2.663150e+05	1.054401e+05	2.915073e+02	1.917842e-01	5.801861e+00	0.000000e+00	
6.896552e-02	8.386076e-01	1.260047e+00	5.686746e+01	-6.006253e+01	2.663150e+05	1.054401e+05	2.915073e+02	1.917841e-01	5.801864e+00	0.000000e+00	
6.896552e-02	8.069620e-01	1.260047e+00	5.686742e+01	-6.006252e+01	2.663150e+05	1.054401e+05	2.915073e+02	1.917840e-01	5.801868e+00	0.000000e+00	
6.896552e-02	7.753165e-01	1.260047e+00	5.686741e+01	-6.006251e+01	2.663150e+05	1.054401e+05	2.915073e+02	1.917840e-01	5.801871e+00	0.000000e+00	
6.896552e-02	7.436709e-01	1.260047e+00	5.686740e+01	-6.006251e+01	2.663151e+05	1.054401e+05	2.915073e+02	1.917840e-01	5.801875e+00	0.000000e+00	
6.896552e-02	7.120253e-01	1.260047e+00	5.686740e+01	-6.006250e+01	2.663151e+05	1.054401e+05	2.915073e+02	1.917840e-01	5.801879e+00	0.000000e+00	
6.896552e-02	6.803797e-01	1.260047e+00	5.686741e+01	-6.006249e+01	2.663151e+05	1.054401e+05	2.915073e+02	1.917840e-01	5.801882e+00	0.000000e+00	
6.896552e-02	6.487342e-01	1.260047e+00	5.686741e+01	-6.006249e+01	2.663151e+05	1.054401e+05	2.915073e+02	1.917840e-01	5.801885e+00	0.000000e+00	
6.896552e-02	6.170886e-01	1.260047e+00	5.686742e+01	-6.006248e+01	2.663151e+05	1.054401e+05	2.915073e+02	1.917839e-01	5.801888e+00	0.000000e+00	
6.896552e-02	5.854430e-01	1.260047e+00	5.686743e+01	-6.006247e+01	2.663151e+05	1.054401e+05	2.915073e+02	1.917839e-01	5.801890e+00	0.000000e+00	
6.896552e-02	5.537975e-01	1.260047e+00	5.686744e+01	-6.006245e+01	2.663151e+05	1.054401e+05	2.915073e+02	1.917839e-01	5.801893e+00	0.000000e+00	
6.896552e-02	5.221519e-01	1.260047e+00	5.686745e+01	-6.006244e+01	2.663151e+05	1.054401e+05	2.915073e+02	1.917839e-01	5.801895e+00	0.000000e+00	
6.896552e-02	4.905063e-01	1.260047e+00	5.686746e+01	-6.006243e+01	2.663151e+05	1.054401e+05	2.915073e+02	1.917839e-01	5.801897e+00	0.000000e+00	
6.896552e-02	4.588608e-01	1.260047e+00	5.686747e+01	-6.006242e+01	2.663151e+05	1.054401e+05	2.915073e+02	1.917839e-01	5.801899e+00	0.000000e+00	
6.896552e-02	4.272152e-01	1.260047e+00	5.686747e+01	-6.006240e+01	2.663151e+05	1.054401e+05	2.915074e+02	1.917839e-01	5.801902e+00	0.000000e+00	
6.896552e-02	3.955696e-01	1.260047e+00	5.686748e+01	-6.006239e+01	2.663151e+05	1.054401e+05	2.915074e+02	1.917839e-01	5.801903e+00	0.000000e+00	
6.896552e-02	3.639241e-01	1.260047e+00	5.686749e+01	-6.006237e+01	2.663151e+05	1.054401e+05	2.915074e+02	1.917839e-01	5.801905e+00	0.000000e+00	
6.896552e-02	3.322785e-01	1.260047e+00	5.686749e+01	-6.006236e+01	2.663151e+05	1.054401e+05	2.915074e+02	1.917838e-01	5.801907e+00	0.000000e+00	
6.896552e-02	3.006329e-01	1.260047e+00	5.686750e+01	-6.006234e+01	2.663151e+05	1.054401e+05	2.915074e+02	1.917838e-01	5.801909e+00	0.000000e+00	
6.896552e-02	2.689873e-01	1.260047e+00	5.686750e+01	-6.006233e+01	2.663151e+05	1.054402e+05	2.915074e+02	1.917838e-01	5.801911e+00	0.000000e+00	
6.896552e-02	2.373418e-01	1.260047e+00	5.686750e+01	-6.006231e+01	2.663151e+05	1.054402e+05	2.915074e+02	1.917838e-01	5.801913e+00	0.000000e+00	
6.896552e-02	2.056962e-01	1.260047e+00	5.686750e+01	-6.006230e+01	2.663151e+05	1.054402e+05	2.915074e+02	1.917838e-01	5.801914e+00	0.000000e+00	
6.896552e-02	1.740506e-01	1.260047e+00	5.686750e+01	-6.006229e+01	2.663151e+05	1.054402e+05	2.915074e+02	1.917837e-01	5.801916e+00	0.000000e+00	
6.896552e-02	1.424051e-01	1.260047e+00	5.686750e+01	-6.006227e+01	2.663151e+05	1.054402e+05	2.915074e+02	1.917837e-01	5.801918e+00	0.000000e+00	
6.896552e-02	1.107595e-01	1.260047e+00	5.686750e+01	-6.006226e+01	2.663151e+05	1.054402e+05	2.915074e+02	1.917837e-01	5.801920e+00	0.000000e+00	
6.896552e-02	7.911392e-02	1.260047e+00	5.686750e+01	-6.006225e+01	2.663151e+05	1.054402e+05	2.915074e+02	1.917836e-01	5.801921e+00	0.000000e+00	
6.896552e-02	4.746835e-02	1.260047e+00	5.686749e+01	-6.006224e+01	2.663151e+05	1.054402e+05	2.915074e+02	1.917836e-01	5.801923e+00	0.000000e+00	
6.896552e-02	1.582278e-02	1.260047e+00	5.686748e+01	-6.006223e+01	2.663151e+05	1.054402e+05	2.915074e+02	1.917836e-01	5.801925e+00	0.000000e+00	
6.896552e-02	-1.582278e-02	1.260047e+00	5.686748e+01	-6.006222e+01	2.663151e+05	1.054402e+05	2.915074e+02	1.917836e-01	5.801926e+00	0.000000e+00	
6.896552e-02	-4.746835e-02	1.260047e+00	5.686747e+01	-6.006221e+01	2.663151e+05	1.054402e+05	2.915074e+02	1.917835e-01	5.801928e+00	0.000000e+00	
6.896552e-02	-7.911392e-02	1.260047e+00	5.686746e+01	-6.006220e+01	2.663151e+05	1.054402e+05	2.915074e+02	1.917835e-01	5.801929e+00	0.000000e+00	
6.896552e-02	-1.107595e-01	1.260047e+00	5.686745e+01	-6.006220e+01	2.663151e+05	1.054402e+05	2.915074e+02	1.917835e-01	5.801931e+00	0.000000e+00	
6.896552e-02	-1.424051e-01	1.260047e+00	5.686744e+01	-6.006219e+01	2.663151e+05	1.054402e+05	2.915074e+02	1.917834e-01	5.801932e+00	0.000000e+00	