TITLE = "Visualization of the volumetric solution"
VARIABLES = "x","y","Density","Momentum_x","Momentum_y","Energy","Pressure","Temperature","Mach","C<sub>p</sub>","Roe_Dissipation"
ZONE NODES= 3200, ELEMENTS= 3081, DATAPACKING=POINT, ZONETYPE=FEQUADRILATERAL
1.000000e+00	1.250000e+00	1.276710e+00	5.663953e+01	-1.130725e+02	2.747465e+05	1.073932e+05	2.930319e+02	2.886504e-01	8.555481e+00	0.000000e+00	
1.000000e+00	1.218354e+00	1.276710e+00	5.663963e+01	-1.130724e+02	2.747466e+05	1.073932e+05	2.930319e+02	2.886502e-01	8.555513e+00	0.000000e+00	
1.051282e+00	1.218354e+00	1.276714e+00	5.663905e+01	-1.130711e+02	2.747475e+05	1.073937e+05	2.930322e+02	2.886460e-01	8.556134e+00	0.000000e+00	
1.051282e+00	1.250000e+00	1.276714e+00	5.663896e+01	-1.130712e+02	2.747474e+05	1.073936e+05	2.930322e+02	2.886463e-01	8.556091e+00	0.000000e+00	
1.000000e+00	1.186709e+00	1.276710e+00	5.663963e+01	-1.130723e+02	2.747465e+05	1.073932e+05	2.930319e+02	2.886501e-01	8.555515e+00	0.000000e+00	
1.051282e+00	1.186709e+00	1.276714e+00	5.663904e+01	-1.130710e+02	2.747475e+05	1.073936e+05	2.930322e+02	2.886459e-01	8.556128e+00	0.000000e+00	
1.000000e+00	1.155063e+00	1.276710e+00	5.663960e+01	-1.130722e+02	2.747466e+05	1.073932e+05	2.930320e+02	2.886499e-01	8.555521e+00	0.000000e+00	
1.051282e+00	1.155063e+00	1.276714e+00	5.663902e+01	-1.130710e+02	2.747475e+05	1.073937e+05	2.930322e+02	2.886457e-01	8.556137e+00	0.000000e+00	
1.000000e+00	1.123418e+00	1.276710e+00	5.663957e+01	-1.130721e+02	2.747466e+05	1.073932e+05	2.930320e+02	2.886497e-01	8.555528e+00	0.000000e+00	
1.051282e+00	1.123418e+00	1.276714e+00	5.663899e+01	-1.130709e+02	2.747475e+05	1.073937e+05	2.930322e+02	2.886456e-01	8.556143e+00	0.000000e+00	
1.000000e+00	1.091772e+00	1.276710e+00	5.663954e+01	-1.130721e+02	2.747466e+05	1.073932e+05	2.930320e+02	2.886495e-01	8.555534e+00	0.000000e+00	
1.051282e+00	1.091772e+00	1.276714e+00	5.663896e+01	-1.130708e+02	2.747475e+05	1.073937e+05	2.930322e+02	2.886454e-01	8.556150e+00	0.000000e+00	
1.000000e+00	1.060127e+00	1.276710e+00	5.663953e+01	-1.130720e+02	2.747466e+05	1.073932e+05	2.930320e+02	2.886494e-01	8.555542e+00	0.000000e+00	
1.051282e+00	1.060127e+00	1.276714e+00	5.663894e+01	-1.130707e+02	2.747475e+05	1.073937e+05	2.930322e+02	2.886452e-01	8.556158e+00	0.000000e+00	
1.000000e+00	1.028481e+00	1.276710e+00	5.663951e+01	-1.130719e+02	2.747466e+05	1.073932e+05	2.930320e+02	2.886492e-01	8.555549e+00	0.000000e+00	
1.051282e+00	1.028481e+00	1.276714e+00	5.663892e+01	-1.130707e+02	2.747475e+05	1.073937e+05	2.930322e+02	2.886450e-01	8.556165e+00	0.000000e+00	
1.000000e+00	9.968354e-01	1.276710e+00	5.663950e+01	-1.130719e+02	2.747466e+05	1.073932e+05	2.930320e+02	2.886491e-01	8.555557e+00	0.000000e+00	
1.051282e+00	9.968354e-01	1.276714e+00	5.663890e+01	-1.130706e+02	2.747475e+05	1.073937e+05	2.930323e+02	2.886448e-01	8.556172e+00	0.000000e+00	
1.000000e+00	9.651899e-01	1.276710e+00	5.663950e+01	-1.130718e+02	2.747466e+05	1.073932e+05	2.930320e+02	2.886490e-01	8.555565e+00	0.000000e+00	
1.051282e+00	9.651899e-01	1.276714e+00	5.663888e+01	-1.130705e+02	2.747475e+05	1.073937e+05	2.930323e+02	2.886447e-01	8.556179e+00	0.000000e+00	
1.000000e+00	9.335443e-01	1.276710e+00	5.663950e+01	-1.130718e+02	2.747466e+05	1.073933e+05	2.930320e+02	2.886489e-01	8.555573e+00	0.000000e+00	
1.051282e+00	9.335443e-01	1.276714e+00	5.663887e+01	-1.130705e+02	2.747475e+05	1.073937e+05	2.930323e+02	2.886445e-01	8.556187e+00	0.000000e+00	
1.000000e+00	9.018987e-01	1.276710e+00	5.663951e+01	-1.130718e+02	2.747466e+05	1.073933e+05	2.930320e+02	2.886488e-01	8.555581e+00	0.000000e+00	
1.051282e+00	9.018987e-01	1.276714e+00	5.663886e+01	-1.130704e+02	2.747475e+05	1.073937e+05	2.930323e+02	2.886444e-01	8.556194e+00	0.000000e+00	
1.000000e+00	8.702532e-01	1.276710e+00	5.663952e+01	-1.130718e+02	2.747466e+05	1.073933e+05	2.930320e+02	2.886488e-01	8.555589e+00	0.000000e+00	
1.051282e+00	8.702532e-01	1.276714e+00	5.663886e+01	-1.130704e+02	2.747475e+05	1.073937e+05	2.930323e+02	2.886443e-01	8.556201e+00	0.000000e+00	
1.000000e+00	8.386076e-01	1.276710e+00	5.663953e+01	-1.130717e+02	2.747466e+05	1.073933e+05	2.930320e+02	2.886488e-01	8.555597e+00	0.000000e+00	
1.051282e+00	8.386076e-01	1.276714e+00	5.663886e+01	-1.130703e+02	2.747476e+05	1.073937e+05	2.930323e+02	2.886442e-01	8.556207e+00	0.000000e+00	
1.000000e+00	8.069620e-01	1.276710e+00	5.663954e+01	-1.130717e+02	2.747467e+05	1.073933e+05	2.930320e+02	2.886488e-01	8.555604e+00	0.000000e+00	
1.051282e+00	8.069620e-01	1.276714e+00	5.663886e+01	-1.130703e+02	2.747476e+05	1.073937e+05	2.930323e+02	2.886441e-01	8.556214e+00	0.000000e+00	
1.000000e+00	7.753165e-01	1.276710e+00	5.663956e+01	-1.130717e+02	2.747467e+05	1.073933e+05	2.930320e+02	2.886488e-01	8.555612e+00	0.000000e+00	
1.051282e+00	7.753165e-01	1.276714e+00	5.663887e+01	-1.130703e+02	2.747476e+05	1.073937e+05	2.930323e+02	2.886441e-01	8.556220e+00	0.000000e+00	
1.000000e+00	7.436709e-01	1.276710e+00	5.663957e+01	-1.130717e+02	2.747467e+05	1.073933e+05	2.930320e+02	2.886488e-01	8.555619e+00	0.000000e+00	
1.051282e+00	7.436709e-01	1.276714e+00	5.663888e+01	-1.130703e+02	2.747476e+05	1.073937e+05	2.930323e+02	2.886441e-01	8.556226e+00	0.000000e+00	
1.000000e+00	7.120253e-01	1.276710e+00	5.663959e+01	-1.130717e+02	2.747467e+05	1.073933e+05	2.930321e+02	2.886488e-01	8.555625e+00	0.000000e+00	
1.051282e+00	7.120253e-01	1.276714e+00	5.663888e+01	-1.130703e+02	2.747476e+05	1.073937e+05	2.930323e+02	2.886440e-01	8.556231e+00	0.000000e+00	
1.000000e+00	6.803797e-01	1.276710e+00	5.663960e+01	-1.130717e+02	2.747467e+05	1.073933e+05	2.930321e+02	2.886488e-01	8.555631e+00	0.000000e+00	
1.051282e+00	6.803797e-01	1.276714e+00	5.663889e+01	-1.130703e+02	2.747476e+05	1.073937e+05	2.930323e+02	2.886440e-01	8.556237e+00	0.000000e+00	
1.000000e+00	6.487342e-01	1.276710e+00	5.663962e+01	-1.130718e+02	2.747467e+05	1.073933e+05	2.930321e+02	2.886488e-01	8.555637e+00	0.000000e+00	
1.051282e+00	6.487342e-01	1.276714e+00	5.663890e+01	-1.130703e+02	2.747476e+05	1.073937e+05	2.930323e+02	2.886440e-01	8.556242e+00	0.000000e+00	
1.000000e+00	6.170886e-01	1.276710e+00	5.663963e+01	-1.130718e+02	2.747467e+05	1.073933e+05	2.930321e+02	2.886488e-01	8.555642e+00	0.000000e+00	
1.051282e+00	6.170886e-01	1.276714e+00	5.663891e+01	-1.130703e+02	2.747476e+05	1.073937e+05	2.930323e+02	2.886440e-01	8.556246e+00	0.000000e+00	
1.000000e+00	5.854430e-01	1.276710e+00	5.663963e+01	-1.130718e+02	2.747467e+05	1.073933e+05	2.930321e+02	2.886489e-01	8.555647e+00	0.000000e+00	
1.051282e+00	5.854430e-01	1.276714e+00	5.663891e+01	-1.130703e+02	2.747476e+05	1.073937e+05	2.930323e+02	2.886441e-01	8.556251e+00	0.000000e+00	
1.000000e+00	5.537975e-01	1.276711e+00	5.663964e+01	-1.130718e+02	2.747467e+05	1.073933e+05	2.930321e+02	2.886489e-01	8.555652e+00	0.000000e+00	
1.051282e+00	5.537975e-01	1.276714e+00	5.663891e+01	-1.130703e+02	2.747476e+05	1.073937e+05	2.930323e+02	2.886441e-01	8.556255e+00	0.000000e+00	
1.000000e+00	5.221519e-01	1.276711e+00	5.663964e+01	-1.130718e+02	2.747468e+05	1.073933e+05	2.930321e+02	2.886489e-01	8.555656e+00	0.000000e+00	
1.051282e+00	5.221519e-01	1.276714e+00	5.663891e+01	-1.130703e+02	2.747476e+05	1.073937e+05	2.930323e+02	2.886441e-01	8.556259e+00	0.000000e+00	
1.000000e+00	4.905063e-01	1.276711e+00	5.663964e+01	-1.130718e+02	2.747468e+05	1.073933e+05	2.930321e+02	2.886489e-01	8.555660e+00	0.000000e+00	
1.051282e+00	4.905063e-01	1.276714e+00	5.663891e+01	-1.130703e+02	2.747476e+05	1.073937e+05	2.930323e+02	2.886441e-01	8.556262e+00	0.000000e+00	
1.000000e+00	4.588608e-01	1.276711e+00	5.663963e+01	-1.130718e+02	2.747468e+05	1.073933e+05	2.930321e+02	2.886490e-01	8.555664e+00	0.000000e+00	
1.051282e+00	4.588608e-01	1.276715e+00	5.663890e+01	-1.130703e+02	2.747477e+05	1.073937e+05	2.930323e+02	2.886442e-01	8.556266e+00	0.000000e+00	
1.000000e+00	4.272152e-01	1.276711e+00	5.663963e+01	-1.130719e+02	2.747468e+05	1.073933e+05	2.930321e+02	2.886490e-01	8.555667e+00	0.000000e+00	
1.051282e+00	4.272152e-01	1.276715e+00	5.663890e+01	-1.130704e+02	2.747477e+05	1.073937e+05	2.930323e+02	2.886442e-01	8.556269e+00	0.000000e+00	
1.000000e+00	3.955696e-01	1.276711e+00	5.663962e+01	-1.130719e+02	2.747468e+05	1.073933e+05	2.930321e+02	2.886490e-01	8.555670e+00	0.000000e+00	
1.051282e+00	3.955696e-01	1.276715e+00	5.663889e+01	-1.130704e+02	2.747477e+05	1.073937e+05	2.930323e+02	2.886442e-01	8.556272e+00	0.000000e+00	
1.000000e+00	3.639241e-01	1.276711e+00	5.663960e+01	-1.130719e+02	2.747468e+05	1.073933e+05	2.930321e+02	2.886490e-01	8.555673e+00	0.000000e+00	
1.051282e+00	3.639241e-01	1.276715e+00	5.663887e+01	-1.130704e+02	2.747477e+05	1.073938e+05	2.930323e+02	2.886443e-01	8.556274e+00	0.000000e+00	
1.000000e+00	3.322785e-01	1.276711e+00	5.663959e+01	-1.130719e+02	2.747468e+05	1.073933e+05	2.930321e+02	2.886491e-01	8.555676e+00	0.000000e+00	
1.051282e+00	3.322785e-01	1.276715e+00	5.663886e+01	-1.130704e+02	2.747477e+05	1.073938e+05	2.930323e+02	2.886443e-01	8.556277e+00	0.000000e+00	
1.000000e+00	3.006329e-01	1.276711e+00	5.663958e+01	-1.130719e+02	2.747468e+05	1.073933e+05	2.930321e+02	2.886491e-01	8.555678e+00	0.000000e+00	
1.051282e+00	3.006329e-01	1.276715e+00	5.663885e+01	-1.130705e+02	2.747477e+05	1.073938e+05	2.930323e+02	2.886443e-01	8.556279e+00	0.000000e+00	
1.000000e+00	2.689873e-01	1.276711e+00	5.663956e+01	-1.130720e+02	2.747468e+05	1.073933e+05	2.930321e+02	2.886491e-01	8.555680e+00	0.000000e+00	
1.051282e+00	2.689873e-01	1.276715e+00	5.663883e+01	-1.130705e+02	2.747477e+05	1.073938e+05	2.930323e+02	2.886443e-01	8.556281e+00	0.000000e+00	
1.000000e+00	2.373418e-01	1.276711e+00	5.663954e+01	-1.130720e+02	2.747468e+05	1.073933e+05	2.930321e+02	2.886491e-01	8.555682e+00	0.000000e+00	
1.051282e+00	2.373418e-01	1.276715e+00	5.663881e+01	-1.130705e+02	2.747477e+05	1.073938e+05	2.930323e+02	2.886444e-01	8.556283e+00	0.000000e+00	
1.000000e+00	2.056962e-01	1.276711e+00	5.663952e+01	-1.130720e+02	2.747468e+05	1.073933e+05	2.930321e+02	2.886491e-01	8.555684e+00	0.000000e+00	
1.051282e+00	2.056962e-01	1.276715e+00	5.663879e+01	-1.130705e+02	2.747477e+05	1.073938e+05	2.930323e+02	2.886444e-01	8.556284e+00	0.000000e+00	
1.000000e+00	1.740506e-01	1.276711e+00	5.663950e+01	-1.130720e+02	2.747468e+05	1.073933e+05	2.930321e+02	2.886492e-01	8.555685e+00	0.000000e+00	
1.051282e+00	1.740506e-01	1.276715e+00	5.663877e+01	-1.130706e+02	2.747477e+05	1.073938e+05	2.930323e+02	2.886444e-01	8.556286e+00	0.000000e+00	
1.000000e+00	1.424051e-01	1.276711e+00	5.663948e+01	-1.130720e+02	2.747468e+05	1.073933e+05	2.930321e+02	2.886492e-01	8.555687e+00	0.000000e+00	
1.051282e+00	1.424051e-01	1.276715e+00	5.663875e+01	-1.130706e+02	2.747477e+05	1.073938e+05	2.930323e+02	2.886445e-01	8.556287e+00	0.000000e+00	
1.000000e+00	1.107595e-01	1.276711e+00	5.663946e+01	-1.130721e+02	2.747468e+05	1.073933e+05	2.930321e+02	2.886492e-01	8.555688e+00	0.000000e+00	
1.051282e+00	1.107595e-01	1.276715e+00	5.663873e+01	-1.130706e+02	2.747477e+05	1.073938e+05	2.930323e+02	2.886445e-01	8.556288e+00	0.000000e+00	
1.000000e+00	7.911392e-02	1.276711e+00	5.663944e+01	-1.130721e+02	2.747468e+05	1.073933e+05	2.930321e+02	2.886492e-01	8.555689e+00	0.000000e+00	
1.051282e+00	7.911392e-02	1.276715e+00	5.663871e+01	-1.130706e+02	2.747477e+05	1.073938e+05	2.930323e+02	2.886445e-01	8.556289e+00	0.000000e+00	
1.000000e+00	4.746835e-02	1.276711e+00	5.663942e+01	-1.130721e+02	2.747468e+05	1.073933e+05	2.930321e+02	2.886492e-01	8.555689e+00	0.000000e+00	
1.051282e+00	4.746835e-02	1.276715e+00	5.663869e+01	-1.130707e+02	2.747477e+05	1.073938e+05	2.930323e+02	2.886446e-01	8.556289e+00	0.000000e+00	
1.000000e+00	1.582278e-02	1.276711e+00	5.663941e+01	-1.130721e+02	2.747468e+05	1.073933e+05	2.930321e+02	2.886493e-01	8.555690e+00	0.000000e+00	
1.051282e+00	1.582278e-02	1.276715e+00	5.663868e+01	-1.130707e+02	2.747477e+05	1.073938e+05	2.930323e+02	2.886446e-01	8.556289e+00	0.000000e+00	
1.000000e+00	-1.582278e-02	1.276711e+00	5.663939e+01	-1.130721e+02	2.747468e+05	1.073933e+05	2.930321e+02	2.886493e-01	8.555690e+00	0.000000e+00	
1.051282e+00	-1.582278e-02	1.276715e+00	5.663866e+01	-1.130707e+02	2.747477e+05	1.073938e+05	2.930323e+02	2.886446e-01	8.556289e+00	0.000000e+00	
1.000000e+00	-4.746835e-02	1.276711e+00	5.663937e+01	-1.130722e+02	2.747468e+05	1.073933e+05	2.930321e+02	2.886493e-01	8.555690e+00	0.000000e+00	
1.051282e+00	-4.746835e-02	1.276715e+00	5.663864e+01	-1.130707e+02	2.747477e+05	1.073938e+05	2.930323e+02	2.886447e-01	8.556289e+00	0.000000e+00	
1.000000e+00	-7.911392e-02	1.276711e+00	5.663935e+01	-1.130722e+02	2.747468e+05	1.073933e+05	2.930321e+02	2.886493e-01	8.555689e+00	0.000000e+00	
1.051282e+00	-7.911392e-02	1.276715e+00	5.663862e+01	-1.130708e+02	2.747477e+05	1.073938e+05	2.930323e+02	2.886447e-01	8.556289e+00	0.000000e+00	
1.000000e+00	-1.107595e-01	1.276711e+00	5.663933e+01	-1.130722e+02	2.747468e+05	1.073933e+05	2.930321e+02	2.886494e-01	8.555689e+00	0.000000e+00	
1.051282e+00	-1.107595e-01	1.276715e+00	5.663860e+01	-1.130708e+02	2.747477e+05	1.073938e+05	2.930323e+02	2.886447e-01	8.556288e+00	0.000000e+00	
1.000000e+00	-1.424051e-01	1.276711e+00	5.663931e+01	-1.130722e+02	2.747468e+05	1.073933e+05	2.930321e+02	2.886494e-01	8.555688e+00	0.000000e+00	
1.051282e+00	-1.424051e-01	1.276715e+00	5.663859e+01	-1.130708e+02	2.747477e+05	1.073938e+05	2.930323e+02	2.886448e-01	8.556287e+00	0.000000e+00	
1.000000e+00	-1.740506e-01	1.276711e+00	5.663930e+01	-1.130722e+02	2.747468e+05	1.073933e+05	2.930321e+02	2.886494e-01	8.555687e+00	0.000000e+00	
1.051282e+00	-1.740506e-01	1.276715e+00	5.663857e+01	-1.130708e+02	2.747477e+05	1.073938e+05	2.930323e+02	2.886448e-01	8.556286e+00	0.000000e+00	
1.000000e+00	-2.056962e-01	1.276711e+00	5.663928e+01	-1.130722e+02	2.747468e+05	1.073933e+05	2.930321e+02	2.886494e-01	8.555685e+00	0.000000e+00	
1.051282e+00	-2.056962e-01	1.276715e+00	5.663855e+01	-1.130709e+02	2.747477e+05	1.073938e+05	2.930323e+02	2.886448e-01	8.556285e+00	0.000000e+00	
1.000000e+00	-2.373418e-01	1.276711e+00	5.663926e+01	-1.130723e+02	2.747468e+05	1.073933e+05	2.930321e+02	2.886494e-01	8.555684e+00	0.000000e+00	
1.051282e+00	-2.373418e-01	1.276715e+00	5.663854e+01	-1.130709e+02	2.747477e+05	1.073938e+05	2.930323e+02	2.886449e-01	8.556283e+00	0.000000e+00	
1.000000e+00	-2.689873e-01	1.276711e+00	5.663924e+01	-1.130723e+02	2.747468e+05	1.073933e+05	2.930321e+02	2.886494e-01	8.555682e+00	0.000000e+00	
1.051282e+00	-2.689873e-01	1.276715e+00	5.663852e+01	-1.130709e+02	2.747477e+05	1.073938e+05	2.930323e+02	2.886449e-01	8.556281e+00	0.000000e+00	
1.000000e+00	-3.006329e-01	1.276710e+00	5.663922e+01	-1.130723e+02	2.747468e+05	1.073933e+05	2.930321e+02	2.886495e-01	8.555679e+00	0.000000e+00	
1.051282e+00	-3.006329e-01	1.276715e+00	5.663850e+01	-1.130709e+02	2.747477e+05	1.073938e+05	2.930324e+02	2.886449e-01	8.556279e+00	0.000000e+00	
1.000000e+00	-3.322785e-01	1.276710e+00	5.663920e+01	-1.130723e+02	2.747468e+05	1.073933e+05	2.930321e+02	2.886495e-01	8.555677e+00	0.000000e+00	
1.051282e+00	-3.322785e-01	1.276714e+00	5.663849e+01	-1.130709e+02	2.747477e+05	1.073938e+05	2.930324e+02	2.886450e-01	8.556276e+00	0.000000e+00	
1.000000e+00	-3.639241e-01	1.276710e+00	5.663918e+01	-1.130723e+02	2.747468e+05	1.073933e+05	2.930322e+02	2.886495e-01	8.555674e+00	0.000000e+00	
1.051282e+00	-3.639241e-01	1.276714e+00	5.663847e+01	-1.130710e+02	2.747477e+05	1.073938e+05	2.930324e+02	2.886450e-01	8.556274e+00	0.000000e+00	
1.000000e+00	-3.955696e-01	1.276710e+00	5.663917e+01	-1.130723e+02	2.747468e+05	1.073933e+05	2.930322e+02	2.886495e-01	8.555671e+00	0.000000e+00	
1.051282e+00	-3.955696e-01	1.276714e+00	5.663845e+01	-1.130710e+02	2.747477e+05	1.073937e+05	2.930324e+02	2.886450e-01	8.556271e+00	0.000000e+00	
1.000000e+00	-4.272152e-01	1.276710e+00	5.663915e+01	-1.130723e+02	2.747468e+05	1.073933e+05	2.930322e+02	2.886495e-01	8.555668e+00	0.000000e+00	
1.051282e+00	-4.272152e-01	1.276714e+00	5.663844e+01	-1.130710e+02	2.747477e+05	1.073937e+05	2.930324e+02	2.886450e-01	8.556267e+00	0.000000e+00	
1.000000e+00	-4.588608e-01	1.276710e+00	5.663913e+01	-1.130723e+02	2.747468e+05	1.073933e+05	2.930322e+02	2.886495e-01	8.555664e+00	0.000000e+00	
1.051282e+00	-4.588608e-01	1.276714e+00	5.663842e+01	-1.130710e+02	2.747477e+05	1.073937e+05	2.930324e+02	2.886451e-01	8.556264e+00	0.000000e+00	
1.000000e+00	-4.905063e-01	1.276710e+00	5.663911e+01	-1.130723e+02	2.747468e+05	1.073933e+05	2.930322e+02	2.886495e-01	8.555660e+00	0.000000e+00	
1.051282e+00	-4.905063e-01	1.276714e+00	5.663840e+01	-1.130710e+02	2.747477e+05	1.073937e+05	2.930324e+02	2.886451e-01	8.556260e+00	0.000000e+00	
1.000000e+00	-5.221519e-01	1.276710e+00	5.663909e+01	-1.130723e+02	2.747468e+05	1.073933e+05	2.930323e+02	2.886496e-01	8.555656e+00	0.000000e+00	
1.051282e+00	-5.221519e-01	1.276714e+00	5.663839e+01	-1.130710e+02	2.747477e+05	1.073937e+05	2.930325e+02	2.886451e-01	8.556256e+00	0.000000e+00	
1.000000e+00	-5.537975e-01	1.276710e+00	5.663908e+01	-1.130723e+02	2.747468e+05	1.073933e+05	2.930323e+02	2.886496e-01	8.555651e+00	0.000000e+00	
1.051282e+00	-5.537975e-01	1.276714e+00	5.663837e+01	-1.130710e+02	2.747477e+05	1.073937e+05	2.930325e+02	2.886451e-01	8.556252e+00	0.000000e+00	
1.000000e+00	-5.854430e-01	1.276709e+00	5.663906e+01	-1.130724e+02	2.747468e+05	1.073933e+05	2.930323e+02	2.886496e-01	8.555646e+00	0.000000e+00	
1.051282e+00	-5.854430e-01	1.276714e+00	5.663836e+01	-1.130711e+02	2.747477e+05	1.073937e+05	2.930325e+02	2.886452e-01	8.556247e+00	0.000000e+00	
1.000000e+00	-6.170886e-01	1.276709e+00	5.663905e+01	-1.130724e+02	2.747468e+05	1.073933e+05	2.930323e+02	2.886496e-01	8.555641e+00	0.000000e+00	
1.051282e+00	-6.170886e-01	1.276714e+00	5.663834e+01	-1.130711e+02	2.747477e+05	1.073937e+05	2.930325e+02	2.886452e-01	8.556243e+00	0.000000e+00	
1.000000e+00	-6.487342e-01	1.276709e+00	5.663904e+01	-1.130724e+02	2.747467e+05	1.073933e+05	2.930323e+02	2.886496e-01	8.555636e+00	0.000000e+00	
1.051282e+00	-6.487342e-01	1.276713e+00	5.663833e+01	-1.130711e+02	2.747476e+05	1.073937e+05	2.930325e+02	2.886452e-01	8.556238e+00	0.000000e+00	
1.000000e+00	-6.803797e-01	1.276709e+00	5.663903e+01	-1.130724e+02	2.747467e+05	1.073933e+05	2.930323e+02	2.886497e-01	8.555630e+00	0.000000e+00	
1.051282e+00	-6.803797e-01	1.276713e+00	5.663832e+01	-1.130711e+02	2.747476e+05	1.073937e+05	2.930325e+02	2.886452e-01	8.556232e+00	0.000000e+00	
1.000000e+00	-7.120253e-01	1.276709e+00	5.663902e+01	-1.130724e+02	2.747467e+05	1.073933e+05	2.930323e+02	2.886497e-01	8.555624e+00	0.000000e+00	
1.051282e+00	-7.120253e-01	1.276713e+00	5.663831e+01	-1.130711e+02	2.747476e+05	1.073937e+05	2.930325e+02	2.886453e-01	8.556227e+00	0.000000e+00	
1.000000e+00	-7.436709e-01	1.276709e+00	5.663901e+01	-1.130724e+02	2.747467e+05	1.073933e+05	2.930323e+02	2.886497e-01	8.555618e+00	0.000000e+00	
1.051282e+00	-7.436709e-01	1.276713e+00	5.663830e+01	-1.130711e+02	2.747476e+05	1.073937e+05	2.930325e+02	2.886453e-01	8.556221e+00	0.000000e+00	
1.000000e+00	-7.753165e-01	1.276709e+00	5.663900e+01	-1.130724e+02	2.747467e+05	1.073933e+05	2.930322e+02	2.886497e-01	8.555612e+00	0.000000e+00	
1.051282e+00	-7.753165e-01	1.276713e+00	5.663829e+01	-1.130711e+02	2.747476e+05	1.073937e+05	2.930325e+02	2.886453e-01	8.556215e+00	0.000000e+00	
1.000000e+00	-8.069620e-01	1.276709e+00	5.663900e+01	-1.130725e+02	2.747467e+05	1.073933e+05	2.930322e+02	2.886498e-01	8.555605e+00	0.000000e+00	
1.051282e+00	-8.069620e-01	1.276713e+00	5.663828e+01	-1.130712e+02	2.747476e+05	1.073937e+05	2.930325e+02	2.886454e-01	8.556209e+00	0.000000e+00	
1.000000e+00	-8.386076e-01	1.276710e+00	5.663899e+01	-1.130725e+02	2.747467e+05	1.073933e+05	2.930322e+02	2.886498e-01	8.555599e+00	0.000000e+00	
1.051282e+00	-8.386076e-01	1.276713e+00	5.663828e+01	-1.130712e+02	2.747476e+05	1.073937e+05	2.930325e+02	2.886454e-01	8.556203e+00	0.000000e+00	
1.000000e+00	-8.702532e-01	1.276710e+00	5.663899e+01	-1.130725e+02	2.747467e+05	1.073933e+05	2.930321e+02	2.886498e-01	8.555592e+00	0.000000e+00	
1.051282e+00	-8.702532e-01	1.276713e+00	5.663827e+01	-1.130712e+02	2.747476e+05	1.073937e+05	2.930325e+02	2.886454e-01	8.556197e+00	0.000000e+00	
1.000000e+00	-9.018987e-01	1.276710e+00	5.663899e+01	-1.130725e+02	2.747467e+05	1.073933e+05	2.930321e+02	2.886499e-01	8.555585e+00	0.000000e+00	
1.051282e+00	-9.018987e-01	1.276713e+00	5.663827e+01	-1.130712e+02	2.747476e+05	1.073937e+05	2.930325e+02	2.886455e-01	8.556191e+00	0.000000e+00	
1.000000e+00	-9.335443e-01	1.276710e+00	5.663898e+01	-1.130725e+02	2.747467e+05	1.073933e+05	2.930321e+02	2.886499e-01	8.555578e+00	0.000000e+00	
1.051282e+00	-9.335443e-01	1.276713e+00	5.663827e+01	-1.130712e+02	2.747476e+05	1.073937e+05	2.930324e+02	2.886455e-01	8.556184e+00	0.000000e+00	
1.000000e+00	-9.651899e-01	1.276710e+00	5.663898e+01	-1.130726e+02	2.747466e+05	1.073933e+05	2.930320e+02	2.886499e-01	8.555571e+00	0.000000e+00	
1.051282e+00	-9.651899e-01	1.276713e+00	5.663827e+01	-1.130712e+02	2.747476e+05	1.073937e+05	2.930324e+02	2.886455e-01	8.556178e+00	0.000000e+00	
1.000000e+00	-9.968354e-01	1.276710e+00	5.663898e+01	-1.130726e+02	2.747466e+05	1.073932e+05	2.930320e+02	2.886499e-01	8.555563e+00	0.000000e+00	
1.051282e+00	-9.968354e-01	1.276714e+00	5.663827e+01	-1.130713e+02	2.747475e+05	1.073937e+05	2.930324e+02	2.886456e-01	8.556171e+00	0.000000e+00	
1.000000e+00	-1.028481e+00	1.276710e+00	5.663897e+01	-1.130726e+02	2.747466e+05	1.073932e+05	2.930320e+02	2.886500e-01	8.555557e+00	0.000000e+00	
1.051282e+00	-1.028481e+00	1.276714e+00	5.663827e+01	-1.130713e+02	2.747475e+05	1.073937e+05	2.930323e+02	2.886456e-01	8.556166e+00	0.000000e+00	
1.000000e+00	-1.060127e+00	1.276710e+00	5.663897e+01	-1.130726e+02	2.747466e+05	1.073932e+05	2.930320e+02	2.886500e-01	8.555549e+00	0.000000e+00	
1.051282e+00	-1.060127e+00	1.276714e+00	5.663827e+01	-1.130713e+02	2.747475e+05	1.073937e+05	2.930323e+02	2.886456e-01	8.556157e+00	0.000000e+00	
1.000000e+00	-1.091772e+00	1.276710e+00	5.663896e+01	-1.130726e+02	2.747466e+05	1.073932e+05	2.930320e+02	2.886500e-01	8.555544e+00	0.000000e+00	
1.051282e+00	-1.091772e+00	1.276714e+00	5.663826e+01	-1.130713e+02	2.747475e+05	1.073937e+05	2.930323e+02	2.886456e-01	8.556155e+00	0.000000e+00	
1.000000e+00	-1.123418e+00	1.276710e+00	5.663898e+01	-1.130726e+02	2.747466e+05	1.073932e+05	2.930319e+02	2.886500e-01	8.555534e+00	0.000000e+00	
1.051282e+00	-1.123418e+00	1.276714e+00	5.663828e+01	-1.130713e+02	2.747475e+05	1.073937e+05	2.930323e+02	2.886456e-01	8.556142e+00	0.000000e+00	
1.000000e+00	-1.155063e+00	1.276710e+00	5.663898e+01	-1.130726e+02	2.747466e+05	1.073932e+05	2.930319e+02	2.886500e-01	8.555532e+00	0.000000e+00	
1.051282e+00	-1.155063e+00	1.276714e+00	5.663830e+01	-1.130713e+02	2.747475e+05	1.073937e+05	2.930322e+02	2.886457e-01	8.556148e+00	0.000000e+00	
1.000000e+00	-1.186709e+00	1.276710e+00	5.663889e+01	-1.130725e+02	2.747465e+05	1.073932e+05	2.930319e+02	2.886498e-01	8.555513e+00	0.000000e+00	
1.051282e+00	-1.186709e+00	1.276714e+00	5.663822e+01	-1.130712e+02	2.747474e+05	1.073936e+05	2.930322e+02	2.886455e-01	8.556121e+00	0.000000e+00	
1.000000e+00	-1.218354e+00	1.276710e+00	5.663885e+01	-1.130726e+02	2.747466e+05	1.073932e+05	2.930319e+02	2.886499e-01	8.555540e+00	0.000000e+00	
1.051282e+00	-1.218354e+00	1.276714e+00	5.663809e+01	-1.130713e+02	2.747475e+05	1.073937e+05	2.930322e+02	2.886455e-01	8.556156e+00	0.000000e+00	
1.102564e+00	1.218354e+00	1.276717e+00	5.663864e+01	-1.130699e+02	2.747483e+05	1.073940e+05	2.930325e+02	2.886424e-01	8.556667e+00	0.000000e+00	
1.102564e+00	1.250000e+00	1.276717e+00	5.663852e+01	-1.130700e+02	2.747482e+05	1.073940e+05	2.930325e+02	2.886426e-01	8.556625e+00	0.000000e+00	
1.102564e+00	1.186709e+00	1.276717e+00	5.663864e+01	-1.130699e+02	2.747483e+05	1.073940e+05	2.930325e+02	2.886424e-01	8.556656e+00	0.000000e+00	
1.102564e+00	1.155063e+00	1.276717e+00	5.663863e+01	-1.130698e+02	2.747483e+05	1.073940e+05	2.930325e+02	2.886422e-01	8.556667e+00	0.000000e+00	
1.102564e+00	1.123418e+00	1.276717e+00	5.663861e+01	-1.130698e+02	2.747483e+05	1.073940e+05	2.930325e+02	2.886420e-01	8.556672e+00	0.000000e+00	
1.102564e+00	1.091772e+00	1.276717e+00	5.663859e+01	-1.130697e+02	2.747483e+05	1.073940e+05	2.930325e+02	2.886419e-01	8.556678e+00	0.000000e+00	
1.102564e+00	1.060127e+00	1.276717e+00	5.663857e+01	-1.130696e+02	2.747483e+05	1.073940e+05	2.930325e+02	2.886417e-01	8.556685e+00	0.000000e+00	
1.102564e+00	1.028481e+00	1.276717e+00	5.663855e+01	-1.130696e+02	2.747483e+05	1.073940e+05	2.930325e+02	2.886415e-01	8.556691e+00	0.000000e+00	
1.102564e+00	9.968354e-01	1.276717e+00	5.663853e+01	-1.130695e+02	2.747483e+05	1.073941e+05	2.930325e+02	2.886413e-01	8.556698e+00	0.000000e+00	
1.102564e+00	9.651899e-01	1.276717e+00	5.663851e+01	-1.130694e+02	2.747483e+05	1.073941e+05	2.930325e+02	2.886411e-01	8.556704e+00	0.000000e+00	
1.102564e+00	9.335443e-01	1.276717e+00	5.663849e+01	-1.130694e+02	2.747483e+05	1.073941e+05	2.930325e+02	2.886410e-01	8.556711e+00	0.000000e+00	
1.102564e+00	9.018987e-01	1.276717e+00	5.663847e+01	-1.130693e+02	2.747483e+05	1.073941e+05	2.930326e+02	2.886408e-01	8.556717e+00	0.000000e+00	
1.102564e+00	8.702532e-01	1.276717e+00	5.663845e+01	-1.130692e+02	2.747483e+05	1.073941e+05	2.930326e+02	2.886406e-01	8.556724e+00	0.000000e+00	
1.102564e+00	8.386076e-01	1.276717e+00	5.663844e+01	-1.130692e+02	2.747483e+05	1.073941e+05	2.930326e+02	2.886405e-01	8.556730e+00	0.000000e+00	
1.102564e+00	8.069620e-01	1.276717e+00	5.663843e+01	-1.130691e+02	2.747483e+05	1.073941e+05	2.930326e+02	2.886404e-01	8.556736e+00	0.000000e+00	
1.102564e+00	7.753165e-01	1.276717e+00	5.663842e+01	-1.130691e+02	2.747483e+05	1.073941e+05	2.930326e+02	2.886403e-01	8.556742e+00	0.000000e+00	
1.102564e+00	7.436709e-01	1.276717e+00	5.663842e+01	-1.130690e+02	2.747484e+05	1.073941e+05	2.930326e+02	2.886402e-01	8.556747e+00	0.000000e+00	
1.102564e+00	7.120253e-01	1.276717e+00	5.663841e+01	-1.130690e+02	2.747484e+05	1.073941e+05	2.930326e+02	2.886401e-01	8.556753e+00	0.000000e+00	
1.102564e+00	6.803797e-01	1.276717e+00	5.663841e+01	-1.130690e+02	2.747484e+05	1.073941e+05	2.930326e+02	2.886401e-01	8.556758e+00	0.000000e+00	
1.102564e+00	6.487342e-01	1.276717e+00	5.663841e+01	-1.130690e+02	2.747484e+05	1.073941e+05	2.930326e+02	2.886400e-01	8.556763e+00	0.000000e+00	
1.102564e+00	6.170886e-01	1.276717e+00	5.663840e+01	-1.130690e+02	2.747484e+05	1.073941e+05	2.930326e+02	2.886400e-01	8.556768e+00	0.000000e+00	
1.102564e+00	5.854430e-01	1.276718e+00	5.663840e+01	-1.130690e+02	2.747484e+05	1.073941e+05	2.930326e+02	2.886400e-01	8.556772e+00	0.000000e+00	
1.102564e+00	5.537975e-01	1.276718e+00	5.663840e+01	-1.130690e+02	2.747484e+05	1.073941e+05	2.930326e+02	2.886400e-01	8.556776e+00	0.000000e+00	
1.102564e+00	5.221519e-01	1.276718e+00	5.663839e+01	-1.130690e+02	2.747484e+05	1.073941e+05	2.930326e+02	2.886400e-01	8.556780e+00	0.000000e+00	
1.102564e+00	4.905063e-01	1.276718e+00	5.663838e+01	-1.130690e+02	2.747484e+05	1.073941e+05	2.930326e+02	2.886400e-01	8.556783e+00	0.000000e+00	
1.102564e+00	4.588608e-01	1.276718e+00	5.663838e+01	-1.130690e+02	2.747484e+05	1.073941e+05	2.930326e+02	2.886400e-01	8.556787e+00	0.000000e+00	
1.102564e+00	4.272152e-01	1.276718e+00	5.663837e+01	-1.130690e+02	2.747484e+05	1.073941e+05	2.930326e+02	2.886401e-01	8.556790e+00	0.000000e+00	
1.102564e+00	3.955696e-01	1.276718e+00	5.663835e+01	-1.130690e+02	2.747484e+05	1.073941e+05	2.930326e+02	2.886401e-01	8.556793e+00	0.000000e+00	
1.102564e+00	3.639241e-01	1.276718e+00	5.663834e+01	-1.130691e+02	2.747484e+05	1.073941e+05	2.930326e+02	2.886401e-01	8.556795e+00	0.000000e+00	
1.102564e+00	3.322785e-01	1.276718e+00	5.663832e+01	-1.130691e+02	2.747484e+05	1.073941e+05	2.930326e+02	2.886401e-01	8.556798e+00	0.000000e+00	
1.102564e+00	3.006329e-01	1.276718e+00	5.663831e+01	-1.130691e+02	2.747485e+05	1.073941e+05	2.930326e+02	2.886402e-01	8.556800e+00	0.000000e+00	
1.102564e+00	2.689873e-01	1.276718e+00	5.663829e+01	-1.130691e+02	2.747485e+05	1.073941e+05	2.930326e+02	2.886402e-01	8.556802e+00	0.000000e+00	
1.102564e+00	2.373418e-01	1.276718e+00	5.663827e+01	-1.130692e+02	2.747485e+05	1.073941e+05	2.930326e+02	2.886402e-01	8.556804e+00	0.000000e+00	
1.102564e+00	2.056962e-01	1.276718e+00	5.663825e+01	-1.130692e+02	2.747485e+05	1.073941e+05	2.930326e+02	2.886403e-01	8.556805e+00	0.000000e+00	
1.102564e+00	1.740506e-01	1.276718e+00	5.663823e+01	-1.130692e+02	2.747485e+05	1.073941e+05	2.930326e+02	2.886403e-01	8.556806e+00	0.000000e+00	
1.102564e+00	1.424051e-01	1.276718e+00	5.663821e+01	-1.130693e+02	2.747485e+05	1.073941e+05	2.930326e+02	2.886403e-01	8.556807e+00	0.000000e+00	
1.102564e+00	1.107595e-01	1.276718e+00	5.663819e+01	-1.130693e+02	2.747485e+05	1.073941e+05	2.930326e+02	2.886404e-01	8.556808e+00	0.000000e+00	
1.102564e+00	7.911392e-02	1.276718e+00	5.663817e+01	-1.130693e+02	2.747485e+05	1.073941e+05	2.930326e+02	2.886404e-01	8.556809e+00	0.000000e+00	
1.102564e+00	4.746835e-02	1.276718e+00	5.663815e+01	-1.130693e+02	2.747485e+05	1.073941e+05	2.930326e+02	2.886405e-01	8.556810e+00	0.000000e+00	
1.102564e+00	1.582278e-02	1.276718e+00	5.663813e+01	-1.130694e+02	2.747485e+05	1.073941e+05	2.930326e+02	2.886405e-01	8.556810e+00	0.000000e+00	
1.102564e+00	-1.582278e-02	1.276718e+00	5.663812e+01	-1.130694e+02	2.747485e+05	1.073941e+05	2.930326e+02	2.886405e-01	8.556810e+00	0.000000e+00	
1.102564e+00	-4.746835e-02	1.276718e+00	5.663810e+01	-1.130694e+02	2.747485e+05	1.073941e+05	2.930326e+02	2.886406e-01	8.556810e+00	0.000000e+00	
1.102564e+00	-7.911392e-02	1.276718e+00	5.663808e+01	-1.130695e+02	2.747485e+05	1.073941e+05	2.930326e+02	2.886406e-01	8.556809e+00	0.000000e+00	
1.102564e+00	-1.107595e-01	1.276718e+00	5.663806e+01	-1.130695e+02	2.747485e+05	1.073941e+05	2.930326e+02	2.886407e-01	8.556808e+00	0.000000e+00	
1.102564e+00	-1.424051e-01	1.276718e+00	5.663805e+01	-1.130695e+02	2.747485e+05	1.073941e+05	2.930326e+02	2.886407e-01	8.556807e+00	0.000000e+00	
1.102564e+00	-1.740506e-01	1.276718e+00	5.663803e+01	-1.130696e+02	2.747485e+05	1.073941e+05	2.930326e+02	2.886408e-01	8.556806e+00	0.000000e+00	