TITLE = "SU2 Simulation"
VARIABLES = "Iteration","CL","CD","CSF","CMx","CMy","CMz","CFx","CFy","CFz","CL/CD","AoA","Custom_ObjFunc","Res_Flow[0]","Res_Flow[1]","Res_Flow[2]","Res_Flow[3]","Res_Flow[4]","Linear_Solver_Iterations","CFL_Number","Time(min)"
ZONE T= "Convergence history"
           0, 0.00000000e+00, 0.00000000e+00, 0.00000000e+00, 0.00000000e+00, 0.00000000e+00, 0.00000000e+00, 0.00000000e+00, 0.00000000e+00, 0.00000000e+00, 0.00000000e+00, 0.00000000e+00, 0.00000000e+00, -1.08489664e+00, 1.41331811e+00, -1.26119551e+01, 4.36717303e+00, 0.00000000e+00, 5.0000000000, 5.0000000000, 0.0014596667
           1, 0.00000000e+00, 0.00000000e+00, 0.00000000e+00, 0.00000000e+00, 0.00000000e+00, 0.00000000e+00, 0.00000000e+00, 0.00000000e+00, 0.00000000e+00, 0.00000000e+00, 0.00000000e+00, 0.00000000e+00, -1.26801915e+00, 1.22510909e+00, -8.90074083e-01, 4.18584583e+00, 0.00000000e+00, 5.0000000000, 5.0000000000, 0.0029372500
           2, 0.00000000e+00, 0.00000000e+00, 0.00000000e+00, 0.00000000e+00, 0.00000000e+00, 0.00000000e+00, 0.00000000e+00, 0.00000000e+00, 0.00000000e+00, 0.00000000e+00, 0.00000000e+00, 0.00000000e+00, -1.25278626e+00, 1.28450719e+00, -9.17114842e-02, 4.21446086e+00, 0.00000000e+00, 5.0000000000, 5.0000000000, 0.0041650000
           3, 0.00000000e+00, 0.00000000e+00, 0.00000000e+00, 0.00000000e+00, 0.00000000e+00, 0.00000000e+00, 0.00000000e+00, 0.00000000e+00, 0.00000000e+00, 0.00000000e+00, 0.00000000e+00, 0.00000000e+00, -1.16417157e+00, 1.39565746e+00, 2.77338658e-01, 4.31227860e+00, 0.00000000e+00, 5.0000000000, 5.0000000000, 0.0054059000
           4, 0.00000000e+00, 0.00000000e+00, 0.00000000e+00, 0.00000000e+00, 0.00000000e+00, 0.00000000e+00, 0.00000000e+00, 0.00000000e+00, 0.00000000e+00, 0.00000000e+00, 0.00000000e+00, 0.00000000e+00, -1.12418481e+00, 1.44375445e+00, 5.02074594e-01, 4.35749890e+00, 0.00000000e+00, 5.0000000000, 5.0000000000, 0.0066401000
           5, 0.00000000e+00, 0.00000000e+00, 0.00000000e+00, 0.00000000e+00, 0.00000000e+00, 0.00000000e+00, 0.00000000e+00, 0.00000000e+00, 0.00000000e+00, 0.00000000e+00, 0.00000000e+00, 0.00000000e+00, -1.11456243e+00, 1.45893836e+00, 6.56841628e-01, 4.37087827e+00, 0.00000000e+00, 5.0000000000, 5.0000000000, 0.0081505167
           6, 0.00000000e+00, 0.00000000e+00, 0.00000000e+00, 0.00000000e+00, 0.00000000e+00, 0.00000000e+00, 0.00000000e+00, 0.00000000e+00, 0.00000000e+00, 0.00000000e+00, 0.00000000e+00, 0.00000000e+00, -1.11751181e+00, 1.46048573e+00, 7.69133898e-01, 4.37060085e+00, 0.00000000e+00, 5.0000000000, 5.0000000000, 0.0094857667
           7, 0.00000000e+00, 0.00000000e+00, 0.00000000e+00, 0.00000000e+00, 0.00000000e+00, 0.00000000e+00, 0.00000000e+00, 0.00000000e+00, 0.00000000e+00, 0.00000000e+00, 0.00000000e+00, 0.00000000e+00, -1.12378624e+00, 1.45734714e+00, 8.53001995e-01, 4.36613115e+00, 0.00000000e+00, 5.0000000000, 5.0000000000, 0.0107276000
           8, 0.00000000e+00, 0.00000000e+00, 0.00000000e+00, 0.00000000e+00, 0.00000000e+00, 0.00000000e+00, 0.00000000e+00, 0.00000000e+00, 0.00000000e+00, 0.00000000e+00, 0.00000000e+00, 0.00000000e+00, -1.13003242e+00, 1.45292376e+00, 9.16783635e-01, 4.36108694e+00, 0.00000000e+00, 5.0000000000, 5.0000000000, 0.0119454833
           9, 0.00000000e+00, 0.00000000e+00, 0.00000000e+00, 0.00000000e+00, 0.00000000e+00, 0.00000000e+00, 0.00000000e+00, 0.00000000e+00, 0.00000000e+00, 0.00000000e+00, 0.00000000e+00, 0.00000000e+00, -1.13565229e+00, 1.44829355e+00, 9.65878248e-01, 4.35630092e+00, 0.00000000e+00, 5.0000000000, 5.0000000000, 0.0131401167
          10, 0.00000000e+00, 0.00000000e+00, 0.00000000e+00, 0.00000000e+00, 0.00000000e+00, 0.00000000e+00, 0.00000000e+00, 0.00000000e+00, 0.00000000e+00, 0.00000000e+00, 0.00000000e+00, 0.00000000e+00, -1.14083093e+00, 1.44373330e+00, 1.00414924e+00, 4.35173888e+00, 0.00000000e+00, 5.0000000000, 5.0000000000, 0.0143587167
          11, 0.00000000e+00, 0.00000000e+00, 0.00000000e+00, 0.00000000e+00, 0.00000000e+00, 0.00000000e+00, 0.00000000e+00, 0.00000000e+00, 0.00000000e+00, 0.00000000e+00, 0.00000000e+00, 0.00000000e+00, -1.14577476e+00, 1.43925330e+00, 1.03420159e+00, 4.34727063e+00, 0.00000000e+00, 5.0000000000, 5.0000000000, 0.0155395667
          12, 0.00000000e+00, 0.00000000e+00, 0.00000000e+00, 0.00000000e+00, 0.00000000e+00, 0.00000000e+00, 0.00000000e+00, 0.00000000e+00, 0.00000000e+00, 0.00000000e+00, 0.00000000e+00, 0.00000000e+00, -1.15057180e+00, 1.43477220e+00, 1.05788699e+00, 4.34283979e+00, 0.00000000e+00, 5.0000000000, 5.0000000000, 0.0167049000
          13, 0.00000000e+00, 0.00000000e+00, 0.00000000e+00, 0.00000000e+00, 0.00000000e+00, 0.00000000e+00, 0.00000000e+00, 0.00000000e+00, 0.00000000e+00, 0.00000000e+00, 0.00000000e+00, 0.00000000e+00, -1.15520339e+00, 1.43018044e+00, 1.07655900e+00, 4.33847078e+00, 0.00000000e+00, 5.0000000000, 5.0000000000, 0.0178614500
          14, 0.00000000e+00, 0.00000000e+00, 0.00000000e+00, 0.00000000e+00, 0.00000000e+00, 0.00000000e+00, 0.00000000e+00, 0.00000000e+00, 0.00000000e+00, 0.00000000e+00, 0.00000000e+00, 0.00000000e+00, -1.15953331e+00, 1.42533312e+00, 1.09122538e+00, 4.33428694e+00, 0.00000000e+00, 5.0000000000, 5.0000000000, 0.0189856333
          15, 0.00000000e+00, 0.00000000e+00, 0.00000000e+00, 0.00000000e+00, 0.00000000e+00, 0.00000000e+00, 0.00000000e+00, 0.00000000e+00, 0.00000000e+00, 0.00000000e+00, 0.00000000e+00, 0.00000000e+00, -1.16326309e+00, 1.41999681e+00, 1.10264014e+00, 4.33055398e+00, 0.00000000e+00, 5.0000000000, 5.0000000000, 0.0200004167
          16, 0.00000000e+00, 0.00000000e+00, 0.00000000e+00, 0.00000000e+00, 0.00000000e+00, 0.00000000e+00, 0.00000000e+00, 0.00000000e+00, 0.00000000e+00, 0.00000000e+00, 0.00000000e+00, 0.00000000e+00, -1.16588503e+00, 1.41378525e+00, 1.11136183e+00, 4.32772531e+00, 0.00000000e+00, 5.0000000000, 5.0000000000, 0.0209639667
          17, 0.00000000e+00, 0.00000000e+00, 0.00000000e+00, 0.00000000e+00, 0.00000000e+00, 0.00000000e+00, 0.00000000e+00, 0.00000000e+00, 0.00000000e+00, 0.00000000e+00, 0.00000000e+00, 0.00000000e+00, -1.16667990e+00, 1.40612048e+00, 1.11779530e+00, 4.32645295e+00, 0.00000000e+00, 5.0000000000, 5.0000000000, 0.0219905000
          18, 0.00000000e+00, 0.00000000e+00, 0.00000000e+00, 0.00000000e+00, 0.00000000e+00, 0.00000000e+00, 0.00000000e+00, 0.00000000e+00, 0.00000000e+00, 0.00000000e+00, 0.00000000e+00, 0.00000000e+00, -1.16482169e+00, 1.39624729e+00, 1.12222735e+00, 4.32751005e+00, 0.00000000e+00, 5.0000000000, 5.0000000000, 0.0229549833
          19, 0.00000000e+00, 0.00000000e+00, 0.00000000e+00, 0.00000000e+00, 0.00000000e+00, 0.00000000e+00, 0.00000000e+00, 0.00000000e+00, 0.00000000e+00, 0.00000000e+00, 0.00000000e+00, 0.00000000e+00, -1.15962920e+00, 1.38332353e+00, 1.12485759e+00, 4.33158312e+00, 0.00000000e+00, 5.0000000000, 5.0000000000, 0.0239927167
          20, 0.00000000e+00, 0.00000000e+00, 0.00000000e+00, 0.00000000e+00, 0.00000000e+00, 0.00000000e+00, 0.00000000e+00, 0.00000000e+00, 0.00000000e+00, 0.00000000e+00, 0.00000000e+00, 0.00000000e+00, -1.15090950e+00, 1.36660851e+00, 1.12582562e+00, 4.33896518e+00, 0.00000000e+00, 5.0000000000, 5.0000000000, 0.0250230333
          21, 0.00000000e+00, 0.00000000e+00, 0.00000000e+00, 0.00000000e+00, 0.00000000e+00, 0.00000000e+00, 0.00000000e+00, 0.00000000e+00, 0.00000000e+00, 0.00000000e+00, 0.00000000e+00, 0.00000000e+00, -1.13922095e+00, 1.34577492e+00, 1.12523183e+00, 4.34928743e+00, 0.00000000e+00, 5.0000000000, 5.0000000000, 0.0260154167
          22, 0.00000000e+00, 0.00000000e+00, 0.00000000e+00, 0.00000000e+00, 0.00000000e+00, 0.00000000e+00, 0.00000000e+00, 0.00000000e+00, 0.00000000e+00, 0.00000000e+00, 0.00000000e+00, 0.00000000e+00, -1.12587154e+00, 1.32137257e+00, 1.12315441e+00, 4.36146336e+00, 0.00000000e+00, 5.0000000000, 5.0000000000, 0.0271596500
          23, 0.00000000e+00, 0.00000000e+00, 0.00000000e+00, 0.00000000e+00, 0.00000000e+00, 0.00000000e+00, 0.00000000e+00, 0.00000000e+00, 0.00000000e+00, 0.00000000e+00, 0.00000000e+00, 0.00000000e+00, -1.11262521e+00, 1.29542357e+00, 1.11966138e+00, 4.37390737e+00, 0.00000000e+00, 5.0000000000, 5.0000000000, 0.0284771667
          24, 0.00000000e+00, 0.00000000e+00, 0.00000000e+00, 0.00000000e+00, 0.00000000e+00, 0.00000000e+00, 0.00000000e+00, 0.00000000e+00, 0.00000000e+00, 0.00000000e+00, 0.00000000e+00, 0.00000000e+00, -1.10127467e+00, 1.27189632e+00, 1.11481811e+00, 4.38491626e+00, 0.00000000e+00, 5.0000000000, 5.0000000000, 0.0296254167
          25, 0.00000000e+00, 0.00000000e+00, 0.00000000e+00, 0.00000000e+00, 0.00000000e+00, 0.00000000e+00, 0.00000000e+00, 0.00000000e+00, 0.00000000e+00, 0.00000000e+00, 0.00000000e+00, 0.00000000e+00, -1.09327473e+00, 1.25630887e+00, 1.10869307e+00, 4.39303457e+00, 0.00000000e+00, 5.0000000000, 5.0000000000, 0.0308077333
          26, 0.00000000e+00, 0.00000000e+00, 0.00000000e+00, 0.00000000e+00, 0.00000000e+00, 0.00000000e+00, 0.00000000e+00, 0.00000000e+00, 0.00000000e+00, 0.00000000e+00, 0.00000000e+00, 0.00000000e+00, -1.08953395e+00, 1.25357814e+00, 1.10136157e+00, 4.39728868e+00, 0.00000000e+00, 5.0000000000, 5.0000000000, 0.0319728833
          27, 0.00000000e+00, 0.00000000e+00, 0.00000000e+00, 0.00000000e+00, 0.00000000e+00, 0.00000000e+00, 0.00000000e+00, 0.00000000e+00, 0.00000000e+00, 0.00000000e+00, 0.00000000e+00, 0.00000000e+00, -1.09035764e+00, 1.26495348e+00, 1.09290744e+00, 4.39727392e+00, 0.00000000e+00, 5.0000000000, 5.0000000000, 0.0331329167
          28, 0.00000000e+00, 0.00000000e+00, 0.00000000e+00, 0.00000000e+00, 0.00000000e+00, 0.00000000e+00, 0.00000000e+00, 0.00000000e+00, 0.00000000e+00, 0.00000000e+00, 0.00000000e+00, 0.00000000e+00, -1.09549979e+00, 1.28713696e+00, 1.08342590e+00, 4.39312692e+00, 0.00000000e+00, 5.0000000000, 5.0000000000, 0.0342834667
          29, 0.00000000e+00, 0.00000000e+00, 0.00000000e+00, 0.00000000e+00, 0.00000000e+00, 0.00000000e+00, 0.00000000e+00, 0.00000000e+00, 0.00000000e+00, 0.00000000e+00, 0.00000000e+00, 0.00000000e+00, -1.10428906e+00, 1.31465916e+00, 1.07302541e+00, 4.38541628e+00, 0.00000000e+00, 5.0000000000, 5.0000000000, 0.0354075000
          30, 0.00000000e+00, 0.00000000e+00, 0.00000000e+00, 0.00000000e+00, 0.00000000e+00, 0.00000000e+00, 0.00000000e+00, 0.00000000e+00, 0.00000000e+00, 0.00000000e+00, 0.00000000e+00, 0.00000000e+00, -1.11581401e+00, 1.34275598e+00, 1.06182994e+00, 4.37497058e+00, 0.00000000e+00, 5.0000000000, 5.0000000000, 0.0363895500
          31, 0.00000000e+00, 0.00000000e+00, 0.00000000e+00, 0.00000000e+00, 0.00000000e+00, 0.00000000e+00, 0.00000000e+00, 0.00000000e+00, 0.00000000e+00, 0.00000000e+00, 0.00000000e+00, 0.00000000e+00, -1.12914429e+00, 1.36854418e+00, 1.04997995e+00, 4.36266856e+00, 0.00000000e+00, 5.0000000000, 5.0000000000, 0.0374288833
          32, 0.00000000e+00, 0.00000000e+00, 0.00000000e+00, 0.00000000e+00, 0.00000000e+00, 0.00000000e+00, 0.00000000e+00, 0.00000000e+00, 0.00000000e+00, 0.00000000e+00, 0.00000000e+00, 0.00000000e+00, -1.14354192e+00, 1.39082804e+00, 1.03763262e+00, 4.34923551e+00, 0.00000000e+00, 5.0000000000, 5.0000000000, 0.0385852167
          33, 0.00000000e+00, 0.00000000e+00, 0.00000000e+00, 0.00000000e+00, 0.00000000e+00, 0.00000000e+00, 0.00000000e+00, 0.00000000e+00, 0.00000000e+00, 0.00000000e+00, 0.00000000e+00, 0.00000000e+00, -1.15860276e+00, 1.40949539e+00, 1.02495992e+00, 4.33510274e+00, 0.00000000e+00, 5.0000000000, 5.0000000000, 0.0399022167
          34, 0.00000000e+00, 0.00000000e+00, 0.00000000e+00, 0.00000000e+00, 0.00000000e+00, 0.00000000e+00, 0.00000000e+00, 0.00000000e+00, 0.00000000e+00, 0.00000000e+00, 0.00000000e+00, 0.00000000e+00, -1.17428536e+00, 1.42498367e+00, 1.01214555e+00, 4.32037176e+00, 0.00000000e+00, 5.0000000000, 5.0000000000, 0.0411539333
          35, 0.00000000e+00, 0.00000000e+00, 0.00000000e+00, 0.00000000e+00, 0.00000000e+00, 0.00000000e+00, 0.00000000e+00, 0.00000000e+00, 0.00000000e+00, 0.00000000e+00, 0.00000000e+00, 0.00000000e+00, -1.19083480e+00, 1.43791679e+00, 9.99371441e-01, 4.30487827e+00, 0.00000000e+00, 5.0000000000, 5.0000000000, 0.0424861500
          36, 0.00000000e+00, 0.00000000e+00, 0.00000000e+00, 0.00000000e+00, 0.00000000e+00, 0.00000000e+00, 0.00000000e+00, 0.00000000e+00, 0.00000000e+00, 0.00000000e+00, 0.00000000e+00, 0.00000000e+00, -1.20865466e+00, 1.44889130e+00, 9.86796520e-01, 4.28830768e+00, 0.00000000e+00, 5.0000000000, 5.0000000000, 0.0439850333
          37, 0.00000000e+00, 0.00000000e+00, 0.00000000e+00, 0.00000000e+00, 0.00000000e+00, 0.00000000e+00, 0.00000000e+00, 0.00000000e+00, 0.00000000e+00, 0.00000000e+00, 0.00000000e+00, 0.00000000e+00, -1.22818885e+00, 1.45837139e+00, 9.74579173e-01, 4.27030269e+00, 0.00000000e+00, 5.0000000000, 5.0000000000, 0.0452947333
          38, 0.00000000e+00, 0.00000000e+00, 0.00000000e+00, 0.00000000e+00, 0.00000000e+00, 0.00000000e+00, 0.00000000e+00, 0.00000000e+00, 0.00000000e+00, 0.00000000e+00, 0.00000000e+00, 0.00000000e+00, -1.24984748e+00, 1.46665516e+00, 9.62839020e-01, 4.25052824e+00, 0.00000000e+00, 5.0000000000, 5.0000000000, 0.0465656167
          39, 0.00000000e+00, 0.00000000e+00, 0.00000000e+00, 0.00000000e+00, 0.00000000e+00, 0.00000000e+00, 0.00000000e+00, 0.00000000e+00, 0.00000000e+00, 0.00000000e+00, 0.00000000e+00, 0.00000000e+00, -1.27397272e+00, 1.47387923e+00, 9.51660735e-01, 4.22869518e+00, 0.00000000e+00, 5.0000000000, 5.0000000000, 0.0477621833
          40, 0.00000000e+00, 0.00000000e+00, 0.00000000e+00, 0.00000000e+00, 0.00000000e+00, 0.00000000e+00, 0.00000000e+00, 0.00000000e+00, 0.00000000e+00, 0.00000000e+00, 0.00000000e+00, 0.00000000e+00, -1.30081072e+00, 1.48003683e+00, 9.41054812e-01, 4.20457223e+00, 0.00000000e+00, 5.0000000000, 5.0000000000, 0.0489488000
          41, 0.00000000e+00, 0.00000000e+00, 0.00000000e+00, 0.00000000e+00, 0.00000000e+00, 0.00000000e+00, 0.00000000e+00, 0.00000000e+00, 0.00000000e+00, 0.00000000e+00, 0.00000000e+00, 0.00000000e+00, -1.33044220e+00, 1.48499536e+00, 9.30989343e-01, 4.17802815e+00, 0.00000000e+00, 5.0000000000, 5.0000000000, 0.0501430333
          42, 0.00000000e+00, 0.00000000e+00, 0.00000000e+00, 0.00000000e+00, 0.00000000e+00, 0.00000000e+00, 0.00000000e+00, 0.00000000e+00, 0.00000000e+00, 0.00000000e+00, 0.00000000e+00, 0.00000000e+00, -1.36260963e+00, 1.48851207e+00, 9.21391923e-01, 4.14915654e+00, 0.00000000e+00, 5.0000000000, 5.0000000000, 0.0513606000
          43, 0.00000000e+00, 0.00000000e+00, 0.00000000e+00, 0.00000000e+00, 0.00000000e+00, 0.00000000e+00, 0.00000000e+00, 0.00000000e+00, 0.00000000e+00, 0.00000000e+00, 0.00000000e+00, 0.00000000e+00, -1.39639291e+00, 1.49025160e+00, 9.12151833e-01, 4.11851576e+00, 0.00000000e+00, 5.0000000000, 5.0000000000, 0.0527201833
          44, 0.00000000e+00, 0.00000000e+00, 0.00000000e+00, 0.00000000e+00, 0.00000000e+00, 0.00000000e+00, 0.00000000e+00, 0.00000000e+00, 0.00000000e+00, 0.00000000e+00, 0.00000000e+00, 0.00000000e+00, -1.42971586e+00, 1.48981088e+00, 9.03131894e-01, 4.08750630e+00, 0.00000000e+00, 5.0000000000, 5.0000000000, 0.0539481667
          45, 0.00000000e+00, 0.00000000e+00, 0.00000000e+00, 0.00000000e+00, 0.00000000e+00, 0.00000000e+00, 0.00000000e+00, 0.00000000e+00, 0.00000000e+00, 0.00000000e+00, 0.00000000e+00, 0.00000000e+00, -1.45885130e+00, 1.48675111e+00, 8.94179509e-01, 4.05880268e+00, 0.00000000e+00, 5.0000000000, 5.0000000000, 0.0552114667
          46, 0.00000000e+00, 0.00000000e+00, 0.00000000e+00, 0.00000000e+00, 0.00000000e+00, 0.00000000e+00, 0.00000000e+00, 0.00000000e+00, 0.00000000e+00, 0.00000000e+00, 0.00000000e+00, 0.00000000e+00, -1.47852335e+00, 1.48063272e+00, 8.85143439e-01, 4.03650305e+00, 0.00000000e+00, 5.0000000000, 5.0000000000, 0.0571688167
          47, 0.00000000e+00, 0.00000000e+00, 0.00000000e+00, 0.00000000e+00, 0.00000000e+00, 0.00000000e+00, 0.00000000e+00, 0.00000000e+00, 0.00000000e+00, 0.00000000e+00, 0.00000000e+00, 0.00000000e+00, -1.48352048e+00, 1.47104549e+00, 8.75882948e-01, 4.02534675e+00, 0.00000000e+00, 5.0000000000, 5.0000000000, 0.0586094833
          48, 0.00000000e+00, 0.00000000e+00, 0.00000000e+00, 0.00000000e+00, 0.00000000e+00, 0.00000000e+00, 0.00000000e+00, 0.00000000e+00, 0.00000000e+00, 0.00000000e+00, 0.00000000e+00, 0.00000000e+00, -1.47161821e+00, 1.45762730e+00, 8.66286251e-01, 4.02866740e+00, 0.00000000e+00, 5.0000000000, 5.0000000000, 0.0598837667
          49, 0.00000000e+00, 0.00000000e+00, 0.00000000e+00, 0.00000000e+00, 0.00000000e+00, 0.00000000e+00, 0.00000000e+00, 0.00000000e+00, 0.00000000e+00, 0.00000000e+00, 0.00000000e+00, 0.00000000e+00, -1.44522018e+00, 1.44006797e+00, 8.56281584e-01, 4.04632130e+00, 0.00000000e+00, 5.0000000000, 5.0000000000, 0.0612477667
          50, 0.00000000e+00, 0.00000000e+00, 0.00000000e+00, 0.00000000e+00, 0.00000000e+00, 0.00000000e+00, 0.00000000e+00, 0.00000000e+00, 0.00000000e+00, 0.00000000e+00, 0.00000000e+00, 0.00000000e+00, -1.40975251e+00, 1.41809695e+00, 8.45845874e-01, 4.07471526e+00, 0.00000000e+00, 5.0000000000, 5.0000000000, 0.0627132667
          51, 0.00000000e+00, 0.00000000e+00, 0.00000000e+00, 0.00000000e+00, 0.00000000e+00, 0.00000000e+00, 0.00000000e+00, 0.00000000e+00, 0.00000000e+00, 0.00000000e+00, 0.00000000e+00, 0.00000000e+00, -1.37073588e+00, 1.39145626e+00, 8.35007020e-01, 4.10889439e+00, 0.00000000e+00, 5.0000000000, 5.0000000000, 0.0639066667
          52, 0.00000000e+00, 0.00000000e+00, 0.00000000e+00, 0.00000000e+00, 0.00000000e+00, 0.00000000e+00, 0.00000000e+00, 0.00000000e+00, 0.00000000e+00, 0.00000000e+00, 0.00000000e+00, 0.00000000e+00, -1.33214639e+00, 1.35986029e+00, 8.23843917e-01, 4.14455718e+00, 0.00000000e+00, 5.0000000000, 5.0000000000, 0.0654558833
          53, 0.00000000e+00, 0.00000000e+00, 0.00000000e+00, 0.00000000e+00, 0.00000000e+00, 0.00000000e+00, 0.00000000e+00, 0.00000000e+00, 0.00000000e+00, 0.00000000e+00, 0.00000000e+00, 0.00000000e+00, -1.29628783e+00, 1.32294443e+00, 8.12489642e-01, 4.17881270e+00, 0.00000000e+00, 5.0000000000, 5.0000000000, 0.0666077000
          54, 0.00000000e+00, 0.00000000e+00, 0.00000000e+00, 0.00000000e+00, 0.00000000e+00, 0.00000000e+00, 0.00000000e+00, 0.00000000e+00, 0.00000000e+00, 0.00000000e+00, 0.00000000e+00, 0.00000000e+00, -1.26427073e+00, 1.28020264e+00, 8.01123322e-01, 4.21003384e+00, 0.00000000e+00, 5.0000000000, 5.0000000000, 0.0676641167
          55, 0.00000000e+00, 0.00000000e+00, 0.00000000e+00, 0.00000000e+00, 0.00000000e+00, 0.00000000e+00, 0.00000000e+00, 0.00000000e+00, 0.00000000e+00, 0.00000000e+00, 0.00000000e+00, 0.00000000e+00, -1.23650235e+00, 1.23091257e+00, 7.89957165e-01, 4.23744741e+00, 0.00000000e+00, 5.0000000000, 5.0000000000, 0.0686641833
          56, 0.00000000e+00, 0.00000000e+00, 0.00000000e+00, 0.00000000e+00, 0.00000000e+00, 0.00000000e+00, 0.00000000e+00, 0.00000000e+00, 0.00000000e+00, 0.00000000e+00, 0.00000000e+00, 0.00000000e+00, -1.21302483e+00, 1.17404502e+00, 7.79217994e-01, 4.26077627e+00, 0.00000000e+00, 5.0000000000, 5.0000000000, 0.0696804833
          57, 0.00000000e+00, 0.00000000e+00, 0.00000000e+00, 0.00000000e+00, 0.00000000e+00, 0.00000000e+00, 0.00000000e+00, 0.00000000e+00, 0.00000000e+00, 0.00000000e+00, 0.00000000e+00, 0.00000000e+00, -1.19371661e+00, 1.10815975e+00, 7.69126965e-01, 4.27999867e+00, 0.00000000e+00, 5.0000000000, 5.0000000000, 0.0706789167
          58, 0.00000000e+00, 0.00000000e+00, 0.00000000e+00, 0.00000000e+00, 0.00000000e+00, 0.00000000e+00, 0.00000000e+00, 0.00000000e+00, 0.00000000e+00, 0.00000000e+00, 0.00000000e+00, 0.00000000e+00, -1.17840024e+00, 1.03131303e+00, 7.59881344e-01, 4.29520860e+00, 0.00000000e+00, 5.0000000000, 5.0000000000, 0.0716907333
          59, 0.00000000e+00, 0.00000000e+00, 0.00000000e+00, 0.00000000e+00, 0.00000000e+00, 0.00000000e+00, 0.00000000e+00, 0.00000000e+00, 0.00000000e+00, 0.00000000e+00, 0.00000000e+00, 0.00000000e+00, -1.16689611e+00, 9.41138437e-01, 7.51633743e-01, 4.30653972e+00, 0.00000000e+00, 5.0000000000, 5.0000000000, 0.0726517000
          60, 0.00000000e+00, 0.00000000e+00, 0.00000000e+00, 0.00000000e+00, 0.00000000e+00, 0.00000000e+00, 0.00000000e+00, 0.00000000e+00, 0.00000000e+00, 0.00000000e+00, 0.00000000e+00, 0.00000000e+00, -1.15904455e+00, 8.35854593e-01, 7.44479481e-01, 4.31412882e+00, 0.00000000e+00, 5.0000000000, 5.0000000000, 0.0737723167
          61, 0.00000000e+00, 0.00000000e+00, 0.00000000e+00, 0.00000000e+00, 0.00000000e+00, 0.00000000e+00, 0.00000000e+00, 0.00000000e+00, 0.00000000e+00, 0.00000000e+00, 0.00000000e+00, 0.00000000e+00, -1.15471080e+00, 7.19410753e-01, 7.38451178e-01, 4.31810147e+00, 0.00000000e+00, 5.0000000000, 5.0000000000, 0.0748403667
          62, 0.00000000e+00, 0.00000000e+00, 0.00000000e+00, 0.00000000e+00, 0.00000000e+00, 0.00000000e+00, 0.00000000e+00, 0.00000000e+00, 0.00000000e+00, 0.00000000e+00, 0.00000000e+00, 0.00000000e+00, -1.15378150e+00, 6.19520909e-01, 7.33522931e-01, 4.31856922e+00, 0.00000000e+00, 5.0000000000, 5.0000000000, 0.0758174833
          63, 0.00000000e+00, 0.00000000e+00, 0.00000000e+00, 0.00000000e+00, 0.00000000e+00, 0.00000000e+00, 0.00000000e+00, 0.00000000e+00, 0.00000000e+00, 0.00000000e+00, 0.00000000e+00, 0.00000000e+00, -1.15615607e+00, 5.99983080e-01, 7.29620508e-01, 4.31563395e+00, 0.00000000e+00, 5.0000000000, 5.0000000000, 0.0768390667
          64, 0.00000000e+00, 0.00000000e+00, 0.00000000e+00, 0.00000000e+00, 0.00000000e+00, 0.00000000e+00, 0.00000000e+00, 0.00000000e+00, 0.00000000e+00, 0.00000000e+00, 0.00000000e+00, 0.00000000e+00, -1.16173611e+00, 6.71314667e-01, 7.26629413e-01, 4.30939565e+00, 0.00000000e+00, 5.0000000000, 5.0000000000, 0.0777995500
          65, 0.00000000e+00, 0.00000000e+00, 0.00000000e+00, 0.00000000e+00, 0.00000000e+00, 0.00000000e+00, 0.00000000e+00, 0.00000000e+00, 0.00000000e+00, 0.00000000e+00, 0.00000000e+00, 0.00000000e+00, -1.17041536e+00, 7.69741034e-01, 7.24415242e-01, 4.29995983e+00, 0.00000000e+00, 5.0000000000, 5.0000000000, 0.0787548167
          66, 0.00000000e+00, 0.00000000e+00, 0.00000000e+00, 0.00000000e+00, 0.00000000e+00, 0.00000000e+00, 0.00000000e+00, 0.00000000e+00, 0.00000000e+00, 0.00000000e+00, 0.00000000e+00, 0.00000000e+00, -1.18206862e+00, 8.59495584e-01, 7.22839386e-01, 4.28744670e+00, 0.00000000e+00, 5.0000000000, 5.0000000000, 0.0797347500
          67, 0.00000000e+00, 0.00000000e+00, 0.00000000e+00, 0.00000000e+00, 0.00000000e+00, 0.00000000e+00, 0.00000000e+00, 0.00000000e+00, 0.00000000e+00, 0.00000000e+00, 0.00000000e+00, 0.00000000e+00, -1.19653953e+00, 9.33868133e-01, 7.21770581e-01, 4.27200174e+00, 0.00000000e+00, 5.0000000000, 5.0000000000, 0.0807923833
          68, 0.00000000e+00, 0.00000000e+00, 0.00000000e+00, 0.00000000e+00, 0.00000000e+00, 0.00000000e+00, 0.00000000e+00, 0.00000000e+00, 0.00000000e+00, 0.00000000e+00, 0.00000000e+00, 0.00000000e+00, -1.21362674e+00, 9.94128361e-01, 7.21092035e-01, 4.25380827e+00, 0.00000000e+00, 5.0000000000, 5.0000000000, 0.0818612167
          69, 0.00000000e+00, 0.00000000e+00, 0.00000000e+00, 0.00000000e+00, 0.00000000e+00, 0.00000000e+00, 0.00000000e+00, 0.00000000e+00, 0.00000000e+00, 0.00000000e+00, 0.00000000e+00, 0.00000000e+00, -1.23306777e+00, 1.04267899e+00, 7.20706795e-01, 4.23310273e+00, 0.00000000e+00, 5.0000000000, 5.0000000000, 0.0829411333
          70, 0.00000000e+00, 0.00000000e+00, 0.00000000e+00, 0.00000000e+00, 0.00000000e+00, 0.00000000e+00, 0.00000000e+00, 0.00000000e+00, 0.00000000e+00, 0.00000000e+00, 0.00000000e+00, 0.00000000e+00, -1.25452072e+00, 1.08163105e+00, 7.20542000e-01, 4.21019308e+00, 0.00000000e+00, 5.0000000000, 5.0000000000, 0.0839139500
          71, 0.00000000e+00, 0.00000000e+00, 0.00000000e+00, 0.00000000e+00, 0.00000000e+00, 0.00000000e+00, 0.00000000e+00, 0.00000000e+00, 0.00000000e+00, 0.00000000e+00, 0.00000000e+00, 0.00000000e+00, -1.27754492e+00, 1.11263976e+00, 7.20549104e-01, 4.18548005e+00, 0.00000000e+00, 5.0000000000, 5.0000000000, 0.0849326000
          72, 0.00000000e+00, 0.00000000e+00, 0.00000000e+00, 0.00000000e+00, 0.00000000e+00, 0.00000000e+00, 0.00000000e+00, 0.00000000e+00, 0.00000000e+00, 0.00000000e+00, 0.00000000e+00, 0.00000000e+00, -1.30158354e+00, 1.13698249e+00, 7.20703136e-01, 4.15947906e+00, 0.00000000e+00, 5.0000000000, 5.0000000000, 0.0858972833
          73, 0.00000000e+00, 0.00000000e+00, 0.00000000e+00, 0.00000000e+00, 0.00000000e+00, 0.00000000e+00, 0.00000000e+00, 0.00000000e+00, 0.00000000e+00, 0.00000000e+00, 0.00000000e+00, 0.00000000e+00, -1.32595455e+00, 1.15565778e+00, 7.21002695e-01, 4.13283803e+00, 0.00000000e+00, 5.0000000000, 5.0000000000, 0.0868833833
          74, 0.00000000e+00, 0.00000000e+00, 0.00000000e+00, 0.00000000e+00, 0.00000000e+00, 0.00000000e+00, 0.00000000e+00, 0.00000000e+00, 0.00000000e+00, 0.00000000e+00, 0.00000000e+00, 0.00000000e+00, -1.34985897e+00, 1.16946458e+00, 7.21465319e-01, 4.10634271e+00, 0.00000000e+00, 5.0000000000, 5.0000000000, 0.0878614667
          75, 0.00000000e+00, 0.00000000e+00, 0.00000000e+00, 0.00000000e+00, 0.00000000e+00, 0.00000000e+00, 0.00000000e+00, 0.00000000e+00, 0.00000000e+00, 0.00000000e+00, 0.00000000e+00, 0.00000000e+00, -1.37241921e+00, 1.17906066e+00, 7.22126092e-01, 4.08089518e+00, 0.00000000e+00, 5.0000000000, 5.0000000000, 0.0888249833
          76, 0.00000000e+00, 0.00000000e+00, 0.00000000e+00, 0.00000000e+00, 0.00000000e+00, 0.00000000e+00, 0.00000000e+00, 0.00000000e+00, 0.00000000e+00, 0.00000000e+00, 0.00000000e+00, 0.00000000e+00, -1.39275396e+00, 1.18500316e+00, 7.23032314e-01, 4.05745421e+00, 0.00000000e+00, 5.0000000000, 5.0000000000, 0.0898215833
          77, 0.00000000e+00, 0.00000000e+00, 0.00000000e+00, 0.00000000e+00, 0.00000000e+00, 0.00000000e+00, 0.00000000e+00, 0.00000000e+00, 0.00000000e+00, 0.00000000e+00, 0.00000000e+00, 0.00000000e+00, -1.41008709e+00, 1.18777726e+00, 7.24244619e-01, 4.03693098e+00, 0.00000000e+00, 5.0000000000, 5.0000000000, 0.0909678667
          78, 0.00000000e+00, 0.00000000e+00, 0.00000000e+00, 0.00000000e+00, 0.00000000e+00, 0.00000000e+00, 0.00000000e+00, 0.00000000e+00, 0.00000000e+00, 0.00000000e+00, 0.00000000e+00, 0.00000000e+00, -1.42386812e+00, 1.18781632e+00, 7.25831206e-01, 4.02005380e+00, 0.00000000e+00, 5.0000000000, 5.0000000000, 0.0919474333
          79, 0.00000000e+00, 0.00000000e+00, 0.00000000e+00, 0.00000000e+00, 0.00000000e+00, 0.00000000e+00, 0.00000000e+00, 0.00000000e+00, 0.00000000e+00, 0.00000000e+00, 0.00000000e+00, 0.00000000e+00, -1.43386595e+00, 1.18551544e+00, 7.27863239e-01, 4.00723922e+00, 0.00000000e+00, 5.0000000000, 5.0000000000, 0.0929598000
          80, 0.00000000e+00, 0.00000000e+00, 0.00000000e+00, 0.00000000e+00, 0.00000000e+00, 0.00000000e+00, 0.00000000e+00, 0.00000000e+00, 0.00000000e+00, 0.00000000e+00, 0.00000000e+00, 0.00000000e+00, -1.44019949e+00, 1.18124030e+00, 7.30410357e-01, 3.99851772e+00, 0.00000000e+00, 5.0000000000, 5.0000000000, 0.0939438000
          81, 0.00000000e+00, 0.00000000e+00, 0.00000000e+00, 0.00000000e+00, 0.00000000e+00, 0.00000000e+00, 0.00000000e+00, 0.00000000e+00, 0.00000000e+00, 0.00000000e+00, 0.00000000e+00, 0.00000000e+00, -1.44329202e+00, 1.17533177e+00, 7.33535983e-01, 3.99354668e+00, 0.00000000e+00, 5.0000000000, 5.0000000000, 0.0949000500
          82, 0.00000000e+00, 0.00000000e+00, 0.00000000e+00, 0.00000000e+00, 0.00000000e+00, 0.00000000e+00, 0.00000000e+00, 0.00000000e+00, 0.00000000e+00, 0.00000000e+00, 0.00000000e+00, 0.00000000e+00, -1.44376871e+00, 1.16810715e+00, 7.37292770e-01, 3.99170476e+00, 0.00000000e+00, 5.0000000000, 5.0000000000, 0.0958428000
          83, 0.00000000e+00, 0.00000000e+00, 0.00000000e+00, 0.00000000e+00, 0.00000000e+00, 0.00000000e+00, 0.00000000e+00, 0.00000000e+00, 0.00000000e+00, 0.00000000e+00, 0.00000000e+00, 0.00000000e+00, -1.44233721e+00, 1.15985920e+00, 7.41718799e-01, 3.99222690e+00, 0.00000000e+00, 5.0000000000, 5.0000000000, 0.0968451500
          84, 0.00000000e+00, 0.00000000e+00, 0.00000000e+00, 0.00000000e+00, 0.00000000e+00, 0.00000000e+00, 0.00000000e+00, 0.00000000e+00, 0.00000000e+00, 0.00000000e+00, 0.00000000e+00, 0.00000000e+00, -1.43968717e+00, 1.15085340e+00, 7.46834672e-01, 3.99433156e+00, 0.00000000e+00, 5.0000000000, 5.0000000000, 0.0978616833
          85, 0.00000000e+00, 0.00000000e+00, 0.00000000e+00, 0.00000000e+00, 0.00000000e+00, 0.00000000e+00, 0.00000000e+00, 0.00000000e+00, 0.00000000e+00, 0.00000000e+00, 0.00000000e+00, 0.00000000e+00, -1.43642610e+00, 1.14132473e+00, 7.52641702e-01, 3.99731029e+00, 0.00000000e+00, 5.0000000000, 5.0000000000, 0.0990866667
          86, 0.00000000e+00, 0.00000000e+00, 0.00000000e+00, 0.00000000e+00, 0.00000000e+00, 0.00000000e+00, 0.00000000e+00, 0.00000000e+00, 0.00000000e+00, 0.00000000e+00, 0.00000000e+00, 0.00000000e+00, -1.43305128e+00, 1.13147467e+00, 7.59121513e-01, 4.00057285e+00, 0.00000000e+00, 5.0000000000, 5.0000000000, 0.1002022333
          87, 0.00000000e+00, 0.00000000e+00, 0.00000000e+00, 0.00000000e+00, 0.00000000e+00, 0.00000000e+00, 0.00000000e+00, 0.00000000e+00, 0.00000000e+00, 0.00000000e+00, 0.00000000e+00, 0.00000000e+00, -1.42994794e+00, 1.12146919e+00, 7.66236956e-01, 4.00365742e+00, 0.00000000e+00, 5.0000000000, 5.0000000000, 0.1013000500
          88, 0.00000000e+00, 0.00000000e+00, 0.00000000e+00, 0.00000000e+00, 0.00000000e+00, 0.00000000e+00, 0.00000000e+00, 0.00000000e+00, 0.00000000e+00, 0.00000000e+00, 0.00000000e+00, 0.00000000e+00, -1.42740230e+00, 1.11143835e+00, 7.73934195e-01, 4.00621958e+00, 0.00000000e+00, 5.0000000000, 5.0000000000, 0.1025854167
          89, 0.00000000e+00, 0.00000000e+00, 0.00000000e+00, 0.00000000e+00, 0.00000000e+00, 0.00000000e+00, 0.00000000e+00, 0.00000000e+00, 0.00000000e+00, 0.00000000e+00, 0.00000000e+00, 0.00000000e+00, -1.42562049e+00, 1.10147780e+00, 7.82145701e-01, 4.00801161e+00, 0.00000000e+00, 5.0000000000, 5.0000000000, 0.1039860667