TITLE = "Visualization of the volumetric solution"
VARIABLES = "x","y","Density","Momentum_x","Momentum_y","Energy","Pressure","Temperature","Mach","C<sub>p</sub>","Roe_Dissipation"
ZONE NODES= 3200, ELEMENTS= 3081, DATAPACKING=POINT, ZONETYPE=FEQUADRILATERAL
-2.000000e+00	1.250000e+00	1.224890e+00	4.235306e+01	-8.994489e-12	2.539869e+05	1.013019e+05	2.881050e+02	1.016163e-01	-3.258810e-02	0.000000e+00	
-2.000000e+00	1.218354e+00	1.224890e+00	4.235306e+01	-1.362089e-09	2.539869e+05	1.013019e+05	2.881050e+02	1.016163e-01	-3.258810e-02	0.000000e+00	
-1.948718e+00	1.218354e+00	1.224890e+00	4.235306e+01	-1.798636e-09	2.539869e+05	1.013019e+05	2.881050e+02	1.016163e-01	-3.258810e-02	0.000000e+00	
-1.948718e+00	1.250000e+00	1.224890e+00	4.235306e+01	-1.497639e-11	2.539869e+05	1.013019e+05	2.881050e+02	1.016163e-01	-3.258810e-02	0.000000e+00	
-2.000000e+00	1.186709e+00	1.224890e+00	4.235306e+01	-1.287275e-09	2.539869e+05	1.013019e+05	2.881050e+02	1.016163e-01	-3.258810e-02	0.000000e+00	
-1.948718e+00	1.186709e+00	1.224890e+00	4.235306e+01	-2.033765e-09	2.539869e+05	1.013019e+05	2.881050e+02	1.016163e-01	-3.258810e-02	0.000000e+00	
-2.000000e+00	1.155063e+00	1.224890e+00	4.235306e+01	-7.940199e-10	2.539869e+05	1.013019e+05	2.881050e+02	1.016163e-01	-3.258810e-02	0.000000e+00	
-1.948718e+00	1.155063e+00	1.224890e+00	4.235306e+01	-1.749912e-09	2.539869e+05	1.013019e+05	2.881050e+02	1.016163e-01	-3.258810e-02	0.000000e+00	
-2.000000e+00	1.123418e+00	1.224890e+00	4.235306e+01	-3.370585e-10	2.539869e+05	1.013019e+05	2.881050e+02	1.016163e-01	-3.258810e-02	0.000000e+00	
-1.948718e+00	1.123418e+00	1.224890e+00	4.235306e+01	-1.234383e-09	2.539869e+05	1.013019e+05	2.881050e+02	1.016163e-01	-3.258810e-02	0.000000e+00	
-2.000000e+00	1.091772e+00	1.224890e+00	4.235306e+01	-1.004679e-10	2.539869e+05	1.013019e+05	2.881050e+02	1.016163e-01	-3.258810e-02	0.000000e+00	
-1.948718e+00	1.091772e+00	1.224890e+00	4.235306e+01	-8.909738e-10	2.539869e+05	1.013019e+05	2.881050e+02	1.016163e-01	-3.258810e-02	0.000000e+00	
-2.000000e+00	1.060127e+00	1.224890e+00	4.235306e+01	-1.759118e-11	2.539869e+05	1.013019e+05	2.881050e+02	1.016163e-01	-3.258810e-02	0.000000e+00	
-1.948718e+00	1.060127e+00	1.224890e+00	4.235306e+01	-6.879881e-10	2.539869e+05	1.013019e+05	2.881050e+02	1.016163e-01	-3.258810e-02	0.000000e+00	
-2.000000e+00	1.028481e+00	1.224890e+00	4.235306e+01	-6.398334e-12	2.539869e+05	1.013019e+05	2.881050e+02	1.016163e-01	-3.258810e-02	0.000000e+00	
-1.948718e+00	1.028481e+00	1.224890e+00	4.235306e+01	-5.937237e-10	2.539869e+05	1.013019e+05	2.881050e+02	1.016163e-01	-3.258810e-02	0.000000e+00	
-2.000000e+00	9.968354e-01	1.224890e+00	4.235306e+01	-7.974238e-12	2.539869e+05	1.013019e+05	2.881050e+02	1.016163e-01	-3.258810e-02	0.000000e+00	
-1.948718e+00	9.968354e-01	1.224890e+00	4.235306e+01	-5.303531e-10	2.539869e+05	1.013019e+05	2.881050e+02	1.016163e-01	-3.258810e-02	0.000000e+00	
-2.000000e+00	9.651899e-01	1.224890e+00	4.235306e+01	-7.672423e-12	2.539869e+05	1.013019e+05	2.881050e+02	1.016163e-01	-3.258810e-02	0.000000e+00	
-1.948718e+00	9.651899e-01	1.224890e+00	4.235306e+01	-4.797963e-10	2.539869e+05	1.013019e+05	2.881050e+02	1.016163e-01	-3.258810e-02	0.000000e+00	
-2.000000e+00	9.335443e-01	1.224890e+00	4.235306e+01	-4.482529e-12	2.539869e+05	1.013019e+05	2.881050e+02	1.016163e-01	-3.258810e-02	0.000000e+00	
-1.948718e+00	9.335443e-01	1.224890e+00	4.235306e+01	-4.305838e-10	2.539869e+05	1.013019e+05	2.881050e+02	1.016163e-01	-3.258810e-02	0.000000e+00	
-2.000000e+00	9.018987e-01	1.224890e+00	4.235306e+01	-2.263219e-12	2.539869e+05	1.013019e+05	2.881050e+02	1.016163e-01	-3.258810e-02	0.000000e+00	
-1.948718e+00	9.018987e-01	1.224890e+00	4.235306e+01	-3.875911e-10	2.539869e+05	1.013019e+05	2.881050e+02	1.016163e-01	-3.258810e-02	0.000000e+00	
-2.000000e+00	8.702532e-01	1.224890e+00	4.235306e+01	-1.769904e-12	2.539869e+05	1.013019e+05	2.881050e+02	1.016163e-01	-3.258810e-02	0.000000e+00	
-1.948718e+00	8.702532e-01	1.224890e+00	4.235306e+01	-3.503067e-10	2.539869e+05	1.013019e+05	2.881050e+02	1.016163e-01	-3.258810e-02	0.000000e+00	
-2.000000e+00	8.386076e-01	1.224890e+00	4.235306e+01	-2.617227e-12	2.539869e+05	1.013019e+05	2.881050e+02	1.016163e-01	-3.258810e-02	0.000000e+00	
-1.948718e+00	8.386076e-01	1.224890e+00	4.235306e+01	-3.192208e-10	2.539869e+05	1.013019e+05	2.881050e+02	1.016163e-01	-3.258810e-02	0.000000e+00	
-2.000000e+00	8.069620e-01	1.224890e+00	4.235306e+01	-3.893895e-12	2.539869e+05	1.013019e+05	2.881050e+02	1.016163e-01	-3.258810e-02	0.000000e+00	
-1.948718e+00	8.069620e-01	1.224890e+00	4.235306e+01	-2.922788e-10	2.539869e+05	1.013019e+05	2.881050e+02	1.016163e-01	-3.258810e-02	0.000000e+00	
-2.000000e+00	7.753165e-01	1.224890e+00	4.235306e+01	-4.845643e-12	2.539869e+05	1.013019e+05	2.881050e+02	1.016163e-01	-3.258810e-02	0.000000e+00	
-1.948718e+00	7.753165e-01	1.224890e+00	4.235306e+01	-2.684841e-10	2.539869e+05	1.013019e+05	2.881050e+02	1.016163e-01	-3.258810e-02	0.000000e+00	
-2.000000e+00	7.436709e-01	1.224890e+00	4.235306e+01	-5.908735e-12	2.539869e+05	1.013019e+05	2.881050e+02	1.016163e-01	-3.258810e-02	0.000000e+00	
-1.948718e+00	7.436709e-01	1.224890e+00	4.235306e+01	-2.469687e-10	2.539869e+05	1.013019e+05	2.881050e+02	1.016163e-01	-3.258810e-02	0.000000e+00	
-2.000000e+00	7.120253e-01	1.224890e+00	4.235306e+01	-6.563486e-12	2.539869e+05	1.013019e+05	2.881050e+02	1.016163e-01	-3.258810e-02	0.000000e+00	
-1.948718e+00	7.120253e-01	1.224890e+00	4.235306e+01	-2.271539e-10	2.539869e+05	1.013019e+05	2.881050e+02	1.016163e-01	-3.258810e-02	0.000000e+00	
-2.000000e+00	6.803797e-01	1.224890e+00	4.235306e+01	-6.925555e-12	2.539869e+05	1.013019e+05	2.881050e+02	1.016163e-01	-3.258810e-02	0.000000e+00	
-1.948718e+00	6.803797e-01	1.224890e+00	4.235306e+01	-2.086948e-10	2.539869e+05	1.013019e+05	2.881050e+02	1.016163e-01	-3.258810e-02	0.000000e+00	
-2.000000e+00	6.487342e-01	1.224890e+00	4.235306e+01	-7.361189e-12	2.539869e+05	1.013019e+05	2.881050e+02	1.016163e-01	-3.258810e-02	0.000000e+00	
-1.948718e+00	6.487342e-01	1.224890e+00	4.235306e+01	-1.916107e-10	2.539869e+05	1.013019e+05	2.881050e+02	1.016163e-01	-3.258810e-02	0.000000e+00	
-2.000000e+00	6.170886e-01	1.224890e+00	4.235306e+01	-7.726952e-12	2.539869e+05	1.013019e+05	2.881050e+02	1.016163e-01	-3.258810e-02	0.000000e+00	
-1.948718e+00	6.170886e-01	1.224890e+00	4.235306e+01	-1.754961e-10	2.539869e+05	1.013019e+05	2.881050e+02	1.016163e-01	-3.258810e-02	0.000000e+00	
-2.000000e+00	5.854430e-01	1.224890e+00	4.235306e+01	-7.930868e-12	2.539869e+05	1.013019e+05	2.881050e+02	1.016163e-01	-3.258810e-02	0.000000e+00	
-1.948718e+00	5.854430e-01	1.224890e+00	4.235306e+01	-1.603912e-10	2.539869e+05	1.013019e+05	2.881050e+02	1.016163e-01	-3.258810e-02	0.000000e+00	
-2.000000e+00	5.537975e-01	1.224890e+00	4.235306e+01	-8.124667e-12	2.539869e+05	1.013019e+05	2.881050e+02	1.016163e-01	-3.258810e-02	0.000000e+00	
-1.948718e+00	5.537975e-01	1.224890e+00	4.235306e+01	-1.460917e-10	2.539869e+05	1.013019e+05	2.881050e+02	1.016163e-01	-3.258810e-02	0.000000e+00	
-2.000000e+00	5.221519e-01	1.224890e+00	4.235306e+01	-8.291460e-12	2.539869e+05	1.013019e+05	2.881050e+02	1.016163e-01	-3.258810e-02	0.000000e+00	
-1.948718e+00	5.221519e-01	1.224890e+00	4.235306e+01	-1.325990e-10	2.539869e+05	1.013019e+05	2.881050e+02	1.016163e-01	-3.258810e-02	0.000000e+00	
-2.000000e+00	4.905063e-01	1.224890e+00	4.235306e+01	-8.372466e-12	2.539869e+05	1.013019e+05	2.881050e+02	1.016163e-01	-3.258810e-02	0.000000e+00	
-1.948718e+00	4.905063e-01	1.224890e+00	4.235306e+01	-1.197065e-10	2.539869e+05	1.013019e+05	2.881050e+02	1.016163e-01	-3.258810e-02	0.000000e+00	
-2.000000e+00	4.588608e-01	1.224890e+00	4.235306e+01	-8.653517e-12	2.539869e+05	1.013019e+05	2.881050e+02	1.016163e-01	-3.258810e-02	0.000000e+00	
-1.948718e+00	4.588608e-01	1.224890e+00	4.235306e+01	-1.074549e-10	2.539869e+05	1.013019e+05	2.881050e+02	1.016163e-01	-3.258810e-02	0.000000e+00	
-2.000000e+00	4.272152e-01	1.224890e+00	4.235306e+01	-8.748653e-12	2.539869e+05	1.013019e+05	2.881050e+02	1.016163e-01	-3.258810e-02	0.000000e+00	
-1.948718e+00	4.272152e-01	1.224890e+00	4.235306e+01	-9.550336e-11	2.539869e+05	1.013019e+05	2.881050e+02	1.016163e-01	-3.258810e-02	0.000000e+00	
-2.000000e+00	3.955696e-01	1.224890e+00	4.235306e+01	-8.777767e-12	2.539869e+05	1.013019e+05	2.881050e+02	1.016163e-01	-3.258810e-02	0.000000e+00	
-1.948718e+00	3.955696e-01	1.224890e+00	4.235306e+01	-8.410605e-11	2.539869e+05	1.013019e+05	2.881050e+02	1.016163e-01	-3.258810e-02	0.000000e+00	
-2.000000e+00	3.639241e-01	1.224890e+00	4.235306e+01	-8.859710e-12	2.539869e+05	1.013019e+05	2.881050e+02	1.016163e-01	-3.258810e-02	0.000000e+00	
-1.948718e+00	3.639241e-01	1.224890e+00	4.235306e+01	-7.315576e-11	2.539869e+05	1.013019e+05	2.881050e+02	1.016163e-01	-3.258810e-02	0.000000e+00	
-2.000000e+00	3.322785e-01	1.224890e+00	4.235306e+01	-8.867760e-12	2.539869e+05	1.013019e+05	2.881050e+02	1.016163e-01	-3.258810e-02	0.000000e+00	
-1.948718e+00	3.322785e-01	1.224890e+00	4.235306e+01	-6.249774e-11	2.539869e+05	1.013019e+05	2.881050e+02	1.016163e-01	-3.258810e-02	0.000000e+00	
-2.000000e+00	3.006329e-01	1.224890e+00	4.235306e+01	-8.854624e-12	2.539869e+05	1.013019e+05	2.881050e+02	1.016163e-01	-3.258810e-02	0.000000e+00	
-1.948718e+00	3.006329e-01	1.224890e+00	4.235306e+01	-5.211307e-11	2.539869e+05	1.013019e+05	2.881050e+02	1.016163e-01	-3.258810e-02	0.000000e+00	
-2.000000e+00	2.689873e-01	1.224890e+00	4.235306e+01	-9.054288e-12	2.539869e+05	1.013019e+05	2.881050e+02	1.016163e-01	-3.258810e-02	0.000000e+00	
-1.948718e+00	2.689873e-01	1.224890e+00	4.235306e+01	-4.221864e-11	2.539869e+05	1.013019e+05	2.881050e+02	1.016163e-01	-3.258810e-02	0.000000e+00	
-2.000000e+00	2.373418e-01	1.224890e+00	4.235306e+01	-9.036321e-12	2.539869e+05	1.013019e+05	2.881050e+02	1.016163e-01	-3.258810e-02	0.000000e+00	
-1.948718e+00	2.373418e-01	1.224890e+00	4.235306e+01	-3.239348e-11	2.539869e+05	1.013019e+05	2.881050e+02	1.016163e-01	-3.258810e-02	0.000000e+00	
-2.000000e+00	2.056962e-01	1.224890e+00	4.235306e+01	-9.191514e-12	2.539869e+05	1.013019e+05	2.881050e+02	1.016163e-01	-3.258810e-02	0.000000e+00	
-1.948718e+00	2.056962e-01	1.224890e+00	4.235306e+01	-2.297709e-11	2.539869e+05	1.013019e+05	2.881050e+02	1.016163e-01	-3.258810e-02	0.000000e+00	
-2.000000e+00	1.740506e-01	1.224890e+00	4.235306e+01	-9.167035e-12	2.539869e+05	1.013019e+05	2.881050e+02	1.016163e-01	-3.258810e-02	0.000000e+00	
-1.948718e+00	1.740506e-01	1.224890e+00	4.235306e+01	-1.384326e-11	2.539869e+05	1.013019e+05	2.881050e+02	1.016163e-01	-3.258810e-02	0.000000e+00	
-2.000000e+00	1.424051e-01	1.224890e+00	4.235306e+01	-9.175303e-12	2.539869e+05	1.013019e+05	2.881050e+02	1.016163e-01	-3.258810e-02	0.000000e+00	
-1.948718e+00	1.424051e-01	1.224890e+00	4.235306e+01	-4.745505e-12	2.539869e+05	1.013019e+05	2.881050e+02	1.016163e-01	-3.258810e-02	0.000000e+00	
-2.000000e+00	1.107595e-01	1.224890e+00	4.235306e+01	-9.245850e-12	2.539869e+05	1.013019e+05	2.881050e+02	1.016163e-01	-3.258810e-02	0.000000e+00	
-1.948718e+00	1.107595e-01	1.224890e+00	4.235306e+01	4.069467e-12	2.539869e+05	1.013019e+05	2.881050e+02	1.016163e-01	-3.258810e-02	0.000000e+00	
-2.000000e+00	7.911392e-02	1.224890e+00	4.235306e+01	-9.293246e-12	2.539869e+05	1.013019e+05	2.881050e+02	1.016163e-01	-3.258810e-02	0.000000e+00	
-1.948718e+00	7.911392e-02	1.224890e+00	4.235306e+01	1.267407e-11	2.539869e+05	1.013019e+05	2.881050e+02	1.016163e-01	-3.258810e-02	0.000000e+00	
-2.000000e+00	4.746835e-02	1.224890e+00	4.235306e+01	-9.373828e-12	2.539869e+05	1.013019e+05	2.881050e+02	1.016163e-01	-3.258810e-02	0.000000e+00	
-1.948718e+00	4.746835e-02	1.224890e+00	4.235306e+01	2.106162e-11	2.539869e+05	1.013019e+05	2.881050e+02	1.016163e-01	-3.258810e-02	0.000000e+00	
-2.000000e+00	1.582278e-02	1.224890e+00	4.235306e+01	-9.456542e-12	2.539869e+05	1.013019e+05	2.881050e+02	1.016163e-01	-3.258810e-02	0.000000e+00	
-1.948718e+00	1.582278e-02	1.224890e+00	4.235306e+01	2.935183e-11	2.539869e+05	1.013019e+05	2.881050e+02	1.016163e-01	-3.258810e-02	0.000000e+00	
-2.000000e+00	-1.582278e-02	1.224890e+00	4.235306e+01	-9.474810e-12	2.539869e+05	1.013019e+05	2.881050e+02	1.016163e-01	-3.258810e-02	0.000000e+00	
-1.948718e+00	-1.582278e-02	1.224890e+00	4.235306e+01	3.758610e-11	2.539869e+05	1.013019e+05	2.881050e+02	1.016163e-01	-3.258810e-02	0.000000e+00	
-2.000000e+00	-4.746835e-02	1.224890e+00	4.235306e+01	-9.396900e-12	2.539869e+05	1.013019e+05	2.881050e+02	1.016163e-01	-3.258810e-02	0.000000e+00	
-1.948718e+00	-4.746835e-02	1.224890e+00	4.235306e+01	4.551558e-11	2.539869e+05	1.013019e+05	2.881050e+02	1.016163e-01	-3.258810e-02	0.000000e+00	
-2.000000e+00	-7.911392e-02	1.224890e+00	4.235306e+01	-9.270014e-12	2.539869e+05	1.013019e+05	2.881050e+02	1.016163e-01	-3.258810e-02	0.000000e+00	
-1.948718e+00	-7.911392e-02	1.224890e+00	4.235306e+01	5.359691e-11	2.539869e+05	1.013019e+05	2.881050e+02	1.016163e-01	-3.258810e-02	0.000000e+00	
-2.000000e+00	-1.107595e-01	1.224890e+00	4.235306e+01	-9.171376e-12	2.539869e+05	1.013019e+05	2.881050e+02	1.016163e-01	-3.258810e-02	0.000000e+00	
-1.948718e+00	-1.107595e-01	1.224890e+00	4.235306e+01	6.147750e-11	2.539869e+05	1.013019e+05	2.881050e+02	1.016163e-01	-3.258810e-02	0.000000e+00	
-2.000000e+00	-1.424051e-01	1.224890e+00	4.235306e+01	-9.239808e-12	2.539869e+05	1.013019e+05	2.881050e+02	1.016163e-01	-3.258810e-02	0.000000e+00	
-1.948718e+00	-1.424051e-01	1.224890e+00	4.235306e+01	6.913564e-11	2.539869e+05	1.013019e+05	2.881050e+02	1.016163e-01	-3.258810e-02	0.000000e+00	
-2.000000e+00	-1.740506e-01	1.224890e+00	4.235306e+01	-9.299328e-12	2.539869e+05	1.013019e+05	2.881050e+02	1.016163e-01	-3.258810e-02	0.000000e+00	
-1.948718e+00	-1.740506e-01	1.224890e+00	4.235306e+01	7.676070e-11	2.539869e+05	1.013019e+05	2.881050e+02	1.016163e-01	-3.258810e-02	0.000000e+00	
-2.000000e+00	-2.056962e-01	1.224890e+00	4.235306e+01	-9.586678e-12	2.539869e+05	1.013019e+05	2.881050e+02	1.016163e-01	-3.258810e-02	0.000000e+00	
-1.948718e+00	-2.056962e-01	1.224890e+00	4.235306e+01	8.412367e-11	2.539869e+05	1.013019e+05	2.881050e+02	1.016163e-01	-3.258810e-02	0.000000e+00	
-2.000000e+00	-2.373418e-01	1.224890e+00	4.235306e+01	-9.569958e-12	2.539869e+05	1.013019e+05	2.881050e+02	1.016163e-01	-3.258810e-02	0.000000e+00	
-1.948718e+00	-2.373418e-01	1.224890e+00	4.235306e+01	9.176247e-11	2.539869e+05	1.013019e+05	2.881050e+02	1.016163e-01	-3.258810e-02	0.000000e+00	
-2.000000e+00	-2.689873e-01	1.224890e+00	4.235306e+01	-9.676607e-12	2.539869e+05	1.013019e+05	2.881050e+02	1.016163e-01	-3.258810e-02	0.000000e+00	
-1.948718e+00	-2.689873e-01	1.224890e+00	4.235306e+01	9.917830e-11	2.539869e+05	1.013019e+05	2.881050e+02	1.016163e-01	-3.258810e-02	0.000000e+00	
-2.000000e+00	-3.006329e-01	1.224890e+00	4.235306e+01	-9.812405e-12	2.539869e+05	1.013019e+05	2.881050e+02	1.016163e-01	-3.258810e-02	0.000000e+00	
-1.948718e+00	-3.006329e-01	1.224890e+00	4.235306e+01	1.066881e-10	2.539869e+05	1.013019e+05	2.881050e+02	1.016163e-01	-3.258810e-02	0.000000e+00	
-2.000000e+00	-3.322785e-01	1.224890e+00	4.235306e+01	-9.864012e-12	2.539869e+05	1.013019e+05	2.881050e+02	1.016163e-01	-3.258810e-02	0.000000e+00	
-1.948718e+00	-3.322785e-01	1.224890e+00	4.235306e+01	1.143515e-10	2.539869e+05	1.013019e+05	2.881050e+02	1.016163e-01	-3.258810e-02	0.000000e+00	
-2.000000e+00	-3.639241e-01	1.224890e+00	4.235306e+01	-9.922465e-12	2.539869e+05	1.013019e+05	2.881050e+02	1.016163e-01	-3.258810e-02	0.000000e+00	
-1.948718e+00	-3.639241e-01	1.224890e+00	4.235306e+01	1.219566e-10	2.539869e+05	1.013019e+05	2.881050e+02	1.016163e-01	-3.258810e-02	0.000000e+00	
-2.000000e+00	-3.955696e-01	1.224890e+00	4.235306e+01	-9.827853e-12	2.539869e+05	1.013019e+05	2.881050e+02	1.016163e-01	-3.258810e-02	0.000000e+00	
-1.948718e+00	-3.955696e-01	1.224890e+00	4.235306e+01	1.298409e-10	2.539869e+05	1.013019e+05	2.881050e+02	1.016163e-01	-3.258810e-02	0.000000e+00	
-2.000000e+00	-4.272152e-01	1.224890e+00	4.235306e+01	-9.866248e-12	2.539869e+05	1.013019e+05	2.881050e+02	1.016163e-01	-3.258810e-02	0.000000e+00	
-1.948718e+00	-4.272152e-01	1.224890e+00	4.235306e+01	1.378270e-10	2.539869e+05	1.013019e+05	2.881050e+02	1.016163e-01	-3.258810e-02	0.000000e+00	
-2.000000e+00	-4.588608e-01	1.224890e+00	4.235306e+01	-1.006747e-11	2.539869e+05	1.013019e+05	2.881050e+02	1.016163e-01	-3.258810e-02	0.000000e+00	
-1.948718e+00	-4.588608e-01	1.224890e+00	4.235306e+01	1.459767e-10	2.539869e+05	1.013019e+05	2.881050e+02	1.016163e-01	-3.258810e-02	0.000000e+00	
-2.000000e+00	-4.905063e-01	1.224890e+00	4.235306e+01	-1.027149e-11	2.539869e+05	1.013019e+05	2.881050e+02	1.016163e-01	-3.258810e-02	0.000000e+00	
-1.948718e+00	-4.905063e-01	1.224890e+00	4.235306e+01	1.543977e-10	2.539869e+05	1.013019e+05	2.881050e+02	1.016163e-01	-3.258810e-02	0.000000e+00	
-2.000000e+00	-5.221519e-01	1.224890e+00	4.235306e+01	-1.043685e-11	2.539869e+05	1.013019e+05	2.881050e+02	1.016163e-01	-3.258810e-02	0.000000e+00	
-1.948718e+00	-5.221519e-01	1.224890e+00	4.235306e+01	1.632972e-10	2.539869e+05	1.013019e+05	2.881050e+02	1.016163e-01	-3.258810e-02	0.000000e+00	
-2.000000e+00	-5.537975e-01	1.224890e+00	4.235306e+01	-1.070207e-11	2.539869e+05	1.013019e+05	2.881050e+02	1.016163e-01	-3.258810e-02	0.000000e+00	
-1.948718e+00	-5.537975e-01	1.224890e+00	4.235306e+01	1.725594e-10	2.539869e+05	1.013019e+05	2.881050e+02	1.016163e-01	-3.258810e-02	0.000000e+00	
-2.000000e+00	-5.854430e-01	1.224890e+00	4.235306e+01	-1.089359e-11	2.539869e+05	1.013019e+05	2.881050e+02	1.016163e-01	-3.258810e-02	0.000000e+00	
-1.948718e+00	-5.854430e-01	1.224890e+00	4.235306e+01	1.824350e-10	2.539869e+05	1.013019e+05	2.881050e+02	1.016163e-01	-3.258810e-02	0.000000e+00	
-2.000000e+00	-6.170886e-01	1.224890e+00	4.235306e+01	-1.131487e-11	2.539869e+05	1.013019e+05	2.881050e+02	1.016163e-01	-3.258810e-02	0.000000e+00	
-1.948718e+00	-6.170886e-01	1.224890e+00	4.235306e+01	1.929763e-10	2.539869e+05	1.013019e+05	2.881050e+02	1.016163e-01	-3.258810e-02	0.000000e+00	
-2.000000e+00	-6.487342e-01	1.224890e+00	4.235306e+01	-1.166023e-11	2.539869e+05	1.013019e+05	2.881050e+02	1.016163e-01	-3.258810e-02	0.000000e+00	
-1.948718e+00	-6.487342e-01	1.224890e+00	4.235306e+01	2.043339e-10	2.539869e+05	1.013019e+05	2.881050e+02	1.016163e-01	-3.258810e-02	0.000000e+00	
-2.000000e+00	-6.803797e-01	1.224890e+00	4.235306e+01	-1.209176e-11	2.539869e+05	1.013019e+05	2.881050e+02	1.016163e-01	-3.258810e-02	0.000000e+00	
-1.948718e+00	-6.803797e-01	1.224890e+00	4.235306e+01	2.168319e-10	2.539869e+05	1.013019e+05	2.881050e+02	1.016163e-01	-3.258810e-02	0.000000e+00	
-2.000000e+00	-7.120253e-01	1.224890e+00	4.235306e+01	-1.267657e-11	2.539869e+05	1.013019e+05	2.881050e+02	1.016163e-01	-3.258810e-02	0.000000e+00	
-1.948718e+00	-7.120253e-01	1.224890e+00	4.235306e+01	2.305517e-10	2.539869e+05	1.013019e+05	2.881050e+02	1.016163e-01	-3.258810e-02	0.000000e+00	
-2.000000e+00	-7.436709e-01	1.224890e+00	4.235306e+01	-1.347577e-11	2.539869e+05	1.013019e+05	2.881050e+02	1.016163e-01	-3.258810e-02	0.000000e+00	
-1.948718e+00	-7.436709e-01	1.224890e+00	4.235306e+01	2.457910e-10	2.539869e+05	1.013019e+05	2.881050e+02	1.016163e-01	-3.258810e-02	0.000000e+00	
-2.000000e+00	-7.753165e-01	1.224890e+00	4.235306e+01	-1.412698e-11	2.539869e+05	1.013019e+05	2.881050e+02	1.016163e-01	-3.258810e-02	0.000000e+00	
-1.948718e+00	-7.753165e-01	1.224890e+00	4.235306e+01	2.629116e-10	2.539869e+05	1.013019e+05	2.881050e+02	1.016163e-01	-3.258810e-02	0.000000e+00	
-2.000000e+00	-8.069620e-01	1.224890e+00	4.235306e+01	-1.523858e-11	2.539869e+05	1.013019e+05	2.881050e+02	1.016163e-01	-3.258810e-02	0.000000e+00	
-1.948718e+00	-8.069620e-01	1.224890e+00	4.235306e+01	2.822730e-10	2.539869e+05	1.013019e+05	2.881050e+02	1.016163e-01	-3.258810e-02	0.000000e+00	
-2.000000e+00	-8.386076e-01	1.224890e+00	4.235306e+01	-1.660911e-11	2.539869e+05	1.013019e+05	2.881050e+02	1.016163e-01	-3.258810e-02	0.000000e+00	
-1.948718e+00	-8.386076e-01	1.224890e+00	4.235306e+01	3.048035e-10	2.539869e+05	1.013019e+05	2.881050e+02	1.016163e-01	-3.258810e-02	0.000000e+00	
-2.000000e+00	-8.702532e-01	1.224890e+00	4.235306e+01	-1.751526e-11	2.539869e+05	1.013019e+05	2.881050e+02	1.016163e-01	-3.258810e-02	0.000000e+00	
-1.948718e+00	-8.702532e-01	1.224890e+00	4.235306e+01	3.316356e-10	2.539869e+05	1.013019e+05	2.881050e+02	1.016163e-01	-3.258810e-02	0.000000e+00	
-2.000000e+00	-9.018987e-01	1.224890e+00	4.235306e+01	-1.719073e-11	2.539869e+05	1.013019e+05	2.881050e+02	1.016163e-01	-3.258810e-02	0.000000e+00	
-1.948718e+00	-9.018987e-01	1.224890e+00	4.235306e+01	3.649034e-10	2.539869e+05	1.013019e+05	2.881050e+02	1.016163e-01	-3.258810e-02	0.000000e+00	
-2.000000e+00	-9.335443e-01	1.224890e+00	4.235306e+01	-1.504927e-11	2.539869e+05	1.013019e+05	2.881050e+02	1.016163e-01	-3.258810e-02	0.000000e+00	
-1.948718e+00	-9.335443e-01	1.224890e+00	4.235306e+01	4.041223e-10	2.539869e+05	1.013019e+05	2.881050e+02	1.016163e-01	-3.258810e-02	0.000000e+00	
-2.000000e+00	-9.651899e-01	1.224890e+00	4.235306e+01	-1.168638e-11	2.539869e+05	1.013019e+05	2.881050e+02	1.016163e-01	-3.258810e-02	0.000000e+00	
-1.948718e+00	-9.651899e-01	1.224890e+00	4.235306e+01	4.500881e-10	2.539869e+05	1.013019e+05	2.881050e+02	1.016163e-01	-3.258810e-02	0.000000e+00	
-2.000000e+00	-9.968354e-01	1.224890e+00	4.235306e+01	-1.165285e-11	2.539869e+05	1.013019e+05	2.881050e+02	1.016163e-01	-3.258810e-02	0.000000e+00	
-1.948718e+00	-9.968354e-01	1.224890e+00	4.235306e+01	4.974924e-10	2.539869e+05	1.013019e+05	2.881050e+02	1.016163e-01	-3.258810e-02	0.000000e+00	
-2.000000e+00	-1.028481e+00	1.224890e+00	4.235306e+01	-1.326806e-11	2.539869e+05	1.013019e+05	2.881050e+02	1.016163e-01	-3.258810e-02	0.000000e+00	
-1.948718e+00	-1.028481e+00	1.224890e+00	4.235306e+01	5.581510e-10	2.539869e+05	1.013019e+05	2.881050e+02	1.016163e-01	-3.258810e-02	0.000000e+00	
-2.000000e+00	-1.060127e+00	1.224890e+00	4.235306e+01	-2.063077e-12	2.539869e+05	1.013019e+05	2.881050e+02	1.016163e-01	-3.258810e-02	0.000000e+00	
-1.948718e+00	-1.060127e+00	1.224890e+00	4.235306e+01	6.502931e-10	2.539869e+05	1.013019e+05	2.881050e+02	1.016163e-01	-3.258810e-02	0.000000e+00	
-2.000000e+00	-1.091772e+00	1.224890e+00	4.235306e+01	8.054090e-11	2.539869e+05	1.013019e+05	2.881050e+02	1.016163e-01	-3.258810e-02	0.000000e+00	
-1.948718e+00	-1.091772e+00	1.224890e+00	4.235306e+01	8.513691e-10	2.539869e+05	1.013019e+05	2.881050e+02	1.016163e-01	-3.258810e-02	0.000000e+00	
-2.000000e+00	-1.123418e+00	1.224890e+00	4.235306e+01	3.166181e-10	2.539869e+05	1.013019e+05	2.881050e+02	1.016163e-01	-3.258810e-02	0.000000e+00	
-1.948718e+00	-1.123418e+00	1.224890e+00	4.235306e+01	1.193615e-09	2.539869e+05	1.013019e+05	2.881050e+02	1.016163e-01	-3.258810e-02	0.000000e+00	
-2.000000e+00	-1.155063e+00	1.224890e+00	4.235306e+01	7.729422e-10	2.539869e+05	1.013019e+05	2.881050e+02	1.016163e-01	-3.258810e-02	0.000000e+00	
-1.948718e+00	-1.155063e+00	1.224890e+00	4.235306e+01	1.708832e-09	2.539869e+05	1.013019e+05	2.881050e+02	1.016163e-01	-3.258810e-02	0.000000e+00	
-2.000000e+00	-1.186709e+00	1.224890e+00	4.235306e+01	1.266713e-09	2.539869e+05	1.013019e+05	2.881050e+02	1.016163e-01	-3.258810e-02	0.000000e+00	
-1.948718e+00	-1.186709e+00	1.224890e+00	4.235306e+01	1.995426e-09	2.539869e+05	1.013019e+05	2.881050e+02	1.016163e-01	-3.258810e-02	0.000000e+00	
-2.000000e+00	-1.218354e+00	1.224890e+00	4.235306e+01	1.344181e-09	2.539869e+05	1.013019e+05	2.881050e+02	1.016163e-01	-3.258810e-02	0.000000e+00	
-1.948718e+00	-1.218354e+00	1.224890e+00	4.235306e+01	1.762303e-09	2.539869e+05	1.013019e+05	2.881050e+02	1.016163e-01	-3.258810e-02	0.000000e+00	
-1.897436e+00	1.218354e+00	1.224890e+00	4.235306e+01	-1.966650e-09	2.539869e+05	1.013019e+05	2.881050e+02	1.016163e-01	-3.258810e-02	0.000000e+00	
-1.897436e+00	1.250000e+00	1.224890e+00	4.235306e+01	-2.640170e-11	2.539869e+05	1.013019e+05	2.881050e+02	1.016163e-01	-3.258810e-02	0.000000e+00	
-1.897436e+00	1.186709e+00	1.224890e+00	4.235306e+01	-2.598878e-09	2.539869e+05	1.013019e+05	2.881050e+02	1.016163e-01	-3.258810e-02	0.000000e+00	
-1.897436e+00	1.155063e+00	1.224890e+00	4.235306e+01	-2.526120e-09	2.539869e+05	1.013019e+05	2.881050e+02	1.016163e-01	-3.258810e-02	0.000000e+00	
-1.897436e+00	1.123418e+00	1.224890e+00	4.235306e+01	-2.019523e-09	2.539869e+05	1.013019e+05	2.881050e+02	1.016163e-01	-3.258810e-02	0.000000e+00	
-1.897436e+00	1.091772e+00	1.224890e+00	4.235306e+01	-1.594261e-09	2.539869e+05	1.013019e+05	2.881050e+02	1.016163e-01	-3.258810e-02	0.000000e+00	
-1.897436e+00	1.060127e+00	1.224890e+00	4.235306e+01	-1.287149e-09	2.539869e+05	1.013019e+05	2.881050e+02	1.016163e-01	-3.258810e-02	0.000000e+00	
-1.897436e+00	1.028481e+00	1.224890e+00	4.235306e+01	-1.117816e-09	2.539869e+05	1.013019e+05	2.881050e+02	1.016163e-01	-3.258810e-02	0.000000e+00	
-1.897436e+00	9.968354e-01	1.224890e+00	4.235306e+01	-9.999843e-10	2.539869e+05	1.013019e+05	2.881050e+02	1.016163e-01	-3.258810e-02	0.000000e+00	
-1.897436e+00	9.651899e-01	1.224890e+00	4.235306e+01	-9.097758e-10	2.539869e+05	1.013019e+05	2.881050e+02	1.016163e-01	-3.258810e-02	0.000000e+00	
-1.897436e+00	9.335443e-01	1.224890e+00	4.235306e+01	-8.239686e-10	2.539869e+05	1.013019e+05	2.881050e+02	1.016163e-01	-3.258810e-02	0.000000e+00	
-1.897436e+00	9.018987e-01	1.224890e+00	4.235306e+01	-7.473351e-10	2.539869e+05	1.013019e+05	2.881050e+02	1.016163e-01	-3.258810e-02	0.000000e+00	
-1.897436e+00	8.702532e-01	1.224890e+00	4.235306e+01	-6.783637e-10	2.539869e+05	1.013019e+05	2.881050e+02	1.016163e-01	-3.258810e-02	0.000000e+00	
-1.897436e+00	8.386076e-01	1.224890e+00	4.235306e+01	-6.189458e-10	2.539869e+05	1.013019e+05	2.881050e+02	1.016163e-01	-3.258810e-02	0.000000e+00	
-1.897436e+00	8.069620e-01	1.224890e+00	4.235306e+01	-5.665823e-10	2.539869e+05	1.013019e+05	2.881050e+02	1.016163e-01	-3.258810e-02	0.000000e+00	
-1.897436e+00	7.753165e-01	1.224890e+00	4.235306e+01	-5.201698e-10	2.539869e+05	1.013019e+05	2.881050e+02	1.016163e-01	-3.258810e-02	0.000000e+00	
-1.897436e+00	7.436709e-01	1.224890e+00	4.235306e+01	-4.780114e-10	2.539869e+05	1.013019e+05	2.881050e+02	1.016163e-01	-3.258810e-02	0.000000e+00	
-1.897436e+00	7.120253e-01	1.224890e+00	4.235306e+01	-4.392930e-10	2.539869e+05	1.013019e+05	2.881050e+02	1.016163e-01	-3.258810e-02	0.000000e+00	
-1.897436e+00	6.803797e-01	1.224890e+00	4.235306e+01	-4.031346e-10	2.539869e+05	1.013019e+05	2.881050e+02	1.016163e-01	-3.258810e-02	0.000000e+00	
-1.897436e+00	6.487342e-01	1.224890e+00	4.235306e+01	-3.694150e-10	2.539869e+05	1.013019e+05	2.881050e+02	1.016163e-01	-3.258810e-02	0.000000e+00	
-1.897436e+00	6.170886e-01	1.224890e+00	4.235306e+01	-3.377251e-10	2.539869e+05	1.013019e+05	2.881050e+02	1.016163e-01	-3.258810e-02	0.000000e+00	
-1.897436e+00	5.854430e-01	1.224890e+00	4.235306e+01	-3.079336e-10	2.539869e+05	1.013019e+05	2.881050e+02	1.016163e-01	-3.258810e-02	0.000000e+00	
-1.897436e+00	5.537975e-01	1.224890e+00	4.235306e+01	-2.797639e-10	2.539869e+05	1.013019e+05	2.881050e+02	1.016163e-01	-3.258810e-02	0.000000e+00	
-1.897436e+00	5.221519e-01	1.224890e+00	4.235306e+01	-2.529919e-10	2.539869e+05	1.013019e+05	2.881050e+02	1.016163e-01	-3.258810e-02	0.000000e+00	
-1.897436e+00	4.905063e-01	1.224890e+00	4.235306e+01	-2.273539e-10	2.539869e+05	1.013019e+05	2.881050e+02	1.016163e-01	-3.258810e-02	0.000000e+00	
-1.897436e+00	4.588608e-01	1.224890e+00	4.235306e+01	-2.029328e-10	2.539869e+05	1.013019e+05	2.881050e+02	1.016163e-01	-3.258810e-02	0.000000e+00	
-1.897436e+00	4.272152e-01	1.224890e+00	4.235306e+01	-1.793260e-10	2.539869e+05	1.013019e+05	2.881050e+02	1.016163e-01	-3.258810e-02	0.000000e+00	
-1.897436e+00	3.955696e-01	1.224890e+00	4.235306e+01	-1.566487e-10	2.539869e+05	1.013019e+05	2.881050e+02	1.016163e-01	-3.258810e-02	0.000000e+00	
-1.897436e+00	3.639241e-01	1.224890e+00	4.235306e+01	-1.347760e-10	2.539869e+05	1.013019e+05	2.881050e+02	1.016163e-01	-3.258810e-02	0.000000e+00	
-1.897436e+00	3.322785e-01	1.224890e+00	4.235306e+01	-1.135414e-10	2.539869e+05	1.013019e+05	2.881050e+02	1.016163e-01	-3.258810e-02	0.000000e+00	
-1.897436e+00	3.006329e-01	1.224890e+00	4.235306e+01	-9.291042e-11	2.539869e+05	1.013019e+05	2.881050e+02	1.016163e-01	-3.258810e-02	0.000000e+00	
-1.897436e+00	2.689873e-01	1.224890e+00	4.235306e+01	-7.294057e-11	2.539869e+05	1.013019e+05	2.881050e+02	1.016163e-01	-3.258810e-02	0.000000e+00	
-1.897436e+00	2.373418e-01	1.224890e+00	4.235306e+01	-5.358872e-11	2.539869e+05	1.013019e+05	2.881050e+02	1.016163e-01	-3.258810e-02	0.000000e+00	
-1.897436e+00	2.056962e-01	1.224890e+00	4.235306e+01	-3.476962e-11	2.539869e+05	1.013019e+05	2.881050e+02	1.016163e-01	-3.258810e-02	0.000000e+00	
-1.897436e+00	1.740506e-01	1.224890e+00	4.235306e+01	-1.631475e-11	2.539869e+05	1.013019e+05	2.881050e+02	1.016163e-01	-3.258810e-02	0.000000e+00	
-1.897436e+00	1.424051e-01	1.224890e+00	4.235306e+01	1.697514e-12	2.539869e+05	1.013019e+05	2.881050e+02	1.016163e-01	-3.258810e-02	0.000000e+00	
-1.897436e+00	1.107595e-01	1.224890e+00	4.235306e+01	1.926603e-11	2.539869e+05	1.013019e+05	2.881050e+02	1.016163e-01	-3.258810e-02	0.000000e+00	
-1.897436e+00	7.911392e-02	1.224890e+00	4.235306e+01	3.657673e-11	2.539869e+05	1.013019e+05	2.881050e+02	1.016163e-01	-3.258810e-02	0.000000e+00	
-1.897436e+00	4.746835e-02	1.224890e+00	4.235306e+01	5.341491e-11	2.539869e+05	1.013019e+05	2.881050e+02	1.016163e-01	-3.258810e-02	0.000000e+00	
-1.897436e+00	1.582278e-02	1.224890e+00	4.235306e+01	6.989647e-11	2.539869e+05	1.013019e+05	2.881050e+02	1.016163e-01	-3.258810e-02	0.000000e+00	
-1.897436e+00	-1.582278e-02	1.224890e+00	4.235306e+01	8.619348e-11	2.539869e+05	1.013019e+05	2.881050e+02	1.016163e-01	-3.258810e-02	0.000000e+00	
-1.897436e+00	-4.746835e-02	1.224890e+00	4.235306e+01	1.020728e-10	2.539869e+05	1.013019e+05	2.881050e+02	1.016163e-01	-3.258810e-02	0.000000e+00	
-1.897436e+00	-7.911392e-02	1.224890e+00	4.235306e+01	1.179604e-10	2.539869e+05	1.013019e+05	2.881050e+02	1.016163e-01	-3.258810e-02	0.000000e+00	
-1.897436e+00	-1.107595e-01	1.224890e+00	4.235306e+01	1.334002e-10	2.539869e+05	1.013019e+05	2.881050e+02	1.016163e-01	-3.258810e-02	0.000000e+00	