VARIABLES = "x"
 "y"
 "Density"
 "Momentum_x"
 "Momentum_y"
 "Energy"
 "Pressure"
 "Temperature"
 "Mach"
 "C<sub>p</sub>"
 "Roe_Dissipation"
ZONE
DT=(DOUBLE,DOUBLE,DOUBLE,DOUBLE,DOUBLE,DOUBLE,DOUBLE,DOUBLE,DOUBLE,DOUBLE,DOUBLE)
                     -1                    1.25         1.2248899936676        42.3530616760254   -1.97887731108193E-09            253986.90625          101301.8984375        288.105010986328        0.10161630064249     -0.0325881354510741                       0 
                     -1         1.2474974974975         1.2248899936676        42.3530616760254   -2.10392733396769E-09            253986.90625          101301.8984375        288.105010986328        0.10161630064249     -0.0325881354510741                       0 
                     -1        1.24499499499499         1.2248899936676        42.3530616760254   -2.22897735685345E-09            253986.90625          101301.8984375        288.105010986328        0.10161630064249     -0.0325881354510741                       0 
                     -1        1.24249249249249         1.2248899936676        42.3530616760254   -2.35402737973921E-09            253986.90625          101301.8984375        288.105010986328        0.10161630064249     -0.0325881354510741                       0 
                     -1        1.23998998998999         1.2248899936676        42.3530616760254   -2.47907740262497E-09            253986.90625          101301.8984375        288.105010986328        0.10161630064249     -0.0325881354510741                       0 
                     -1        1.23748748748749         1.2248899936676        42.3530616760254   -2.60412742551073E-09            253986.90625          101301.8984375        288.105010986328        0.10161630064249     -0.0325881354510741                       0 
                     -1        1.23498498498498         1.2248899936676        42.3530616760254   -2.72917744839648E-09            253986.90625          101301.8984375        288.105010986328        0.10161630064249     -0.0325881354510741                       0 
                     -1        1.23248248248248         1.2248899936676        42.3530616760254   -2.85422746513257E-09            253986.90625          101301.8984375        288.105010986328        0.10161630064249     -0.0325881354510741                       0 
                     -1        1.22997997997998         1.2248899936676        42.3530616760254   -2.97927748801833E-09            253986.90625          101301.8984375        288.105010986328        0.10161630064249     -0.0325881354510741                       0 
                     -1        1.22747747747748         1.2248899936676        42.3530616760254   -3.10432751090409E-09            253986.90625          101301.8984375        288.105010986328        0.10161630064249     -0.0325881354510741                       0 
                     -1        1.22497497497497         1.2248899936676        42.3530616760254   -3.22937753378985E-09            253986.90625          101301.8984375        288.105010986328        0.10161630064249     -0.0325881354510741                       0 
                     -1        1.22247247247247         1.2248899936676        42.3530616760254   -3.35442755667561E-09            253986.90625          101301.8984375        288.105010986328        0.10161630064249     -0.0325881354510741                       0 
                     -1        1.21996996996997         1.2248899936676        42.3530616760254   -3.47947757956137E-09            253986.90625          101301.8984375        288.105010986328        0.10161630064249     -0.0325881354510741                       0 
                     -1        1.21746746746747         1.2248899936676        42.3530616760254   -3.59593674462569E-09            253986.90625          101301.8984375        288.105010986328        0.10161630064249     -0.0325881354510741                       0 
                     -1        1.21496496496496         1.2248899936676        42.3530616760254   -3.69673614616551E-09            253986.90625          101301.8984375        288.105010986328        0.10161630064249     -0.0325881354510741                       0 
                     -1        1.21246246246246         1.2248899936676        42.3530616760254   -3.79753554770533E-09            253986.90625          101301.8984375        288.105010986328        0.10161630064249     -0.0325881354510741                       0 
                     -1        1.20995995995996         1.2248899936676        42.3530616760254   -3.89833494924515E-09            253986.90625          101301.8984375        288.105010986328        0.10161630064249     -0.0325881354510741                       0 
                     -1        1.20745745745746         1.2248899936676        42.3530616760254   -3.99913435078496E-09            253986.90625          101301.8984375        288.105010986328        0.10161630064249     -0.0325881354510741                       0 
                     -1        1.20495495495495         1.2248899936676        42.3530616760254   -4.09993375232478E-09            253986.90625          101301.8984375        288.105010986328        0.10161630064249     -0.0325881354510741                       0 
                     -1        1.20245245245245         1.2248899936676        42.3530616760254   -4.20073314753091E-09            253986.90625          101301.8984375        288.105010986328        0.10161630064249     -0.0325881354510741                       0 
                     -1        1.19994994994995         1.2248899936676        42.3530616760254   -4.30153254907073E-09            253986.90625          101301.8984375        288.105010986328        0.10161630064249     -0.0325881354510741                       0 
                     -1        1.19744744744745         1.2248899936676        42.3530616760254   -4.40233195061055E-09            253986.90625          101301.8984375        288.105010986328        0.10161630064249     -0.0325881354510741                       0 
                     -1        1.19494494494494         1.2248899936676        42.3530616760254   -4.50313135215037E-09            253986.90625          101301.8984375        288.105010986328        0.10161630064249     -0.0325881354510741                       0 
                     -1        1.19244244244244         1.2248899936676        42.3530616760254   -4.60393075369019E-09            253986.90625          101301.8984375        288.105010986328        0.10161630064249     -0.0325881354510741                       0 
                     -1        1.18993993993994         1.2248899936676        42.3530616760254      -4.70473015523E-09            253986.90625          101301.8984375        288.105010986328        0.10161630064249     -0.0325881354510741                       0 
                     -1        1.18743743743744         1.2248899936676        42.3530616760254   -4.80552955676982E-09            253986.90625          101301.8984375        288.105010986328        0.10161630064249     -0.0325881354510741                       0 
                     -1        1.18493493493493         1.2248899936676        42.3530616760254   -4.88572645052291E-09            253986.90625          101301.8984375        288.105010986328        0.10161630064249     -0.0325881354510741                       0 
                     -1        1.18243243243243         1.2248899936676        42.3530616760254   -4.95746464065605E-09            253986.90625          101301.8984375        288.105010986328        0.10161630064249     -0.0325881354510741                       0 
                     -1        1.17992992992993         1.2248899936676        42.3530616760254    -5.0292028307892E-09            253986.90625          101301.8984375        288.105010986328        0.10161630064249     -0.0325881354510741                       0 
                     -1        1.17742742742743         1.2248899936676        42.3530616760254   -5.10094102092234E-09            253986.90625          101301.8984375        288.105010986328        0.10161630064249     -0.0325881354510741                       0 
                     -1        1.17492492492492         1.2248899936676        42.3530616760254   -5.17267921105548E-09            253986.90625          101301.8984375        288.105010986328        0.10161630064249     -0.0325881354510741                       0 
                     -1        1.17242242242242         1.2248899936676        42.3530616760254   -5.24441740118863E-09            253986.90625          101301.8984375        288.105010986328        0.10161630064249     -0.0325881354510741                       0 
                     -1        1.16991991991992         1.2248899936676        42.3530616760254   -5.31615558617487E-09            253986.90625          101301.8984375        288.105010986328        0.10161630064249     -0.0325881354510741                       0 
                     -1        1.16741741741742         1.2248899936676        42.3530616760254   -5.38789377630801E-09            253986.90625          101301.8984375        288.105010986328        0.10161630064249     -0.0325881354510741                       0 
                     -1        1.16491491491491         1.2248899936676        42.3530616760254   -5.45963196644116E-09            253986.90625          101301.8984375        288.105010986328        0.10161630064249     -0.0325881354510741                       0 
                     -1        1.16241241241241         1.2248899936676        42.3530616760254    -5.5313701565743E-09            253986.90625          101301.8984375        288.105010986328        0.10161630064249     -0.0325881354510741                       0 
                     -1        1.15990990990991         1.2248899936676        42.3530616760254   -5.60310834670745E-09            253986.90625          101301.8984375        288.105010986328        0.10161630064249     -0.0325881354510741                       0 
                     -1        1.15740740740741         1.2248899936676        42.3530616760254   -5.67484653684059E-09            253986.90625          101301.8984375        288.105010986328        0.10161630064249     -0.0325881354510741                       0 
                     -1         1.1549049049049         1.2248899936676        42.3530616760254   -5.74420107979423E-09            253986.90625          101301.8984375        288.105010986328        0.10161630064249     -0.0325881354510741                       0 
                     -1         1.1524024024024         1.2248899936676        42.3530616760254    -5.7782161878453E-09            253986.90625          101301.8984375        288.105010986328        0.10161630064249     -0.0325881354510741                       0 
                     -1         1.1498998998999         1.2248899936676        42.3530616760254   -5.81223129589638E-09            253986.90625          101301.8984375        288.105010986328        0.10161630064249     -0.0325881354510741                       0 
                     -1         1.1473973973974         1.2248899936676        42.3530616760254   -5.84624640394745E-09            253986.90625          101301.8984375        288.105010986328        0.10161630064249     -0.0325881354510741                       0 
                     -1        1.14489489489489         1.2248899936676        42.3530616760254   -5.88026151199852E-09            253986.90625          101301.8984375        288.105010986328        0.10161630064249     -0.0325881354510741                       0 
                     -1        1.14239239239239         1.2248899936676        42.3530616760254    -5.9142766200496E-09            253986.90625          101301.8984375        288.105010986328        0.10161630064249     -0.0325881354510741                       0 
                     -1        1.13988988988989         1.2248899936676        42.3530616760254   -5.94829172810067E-09            253986.90625          101301.8984375        288.105010986328        0.10161630064249     -0.0325881354510741                       0 
                     -1        1.13738738738739         1.2248899936676        42.3530616760254   -5.98230683173934E-09            253986.90625          101301.8984375        288.105010986328        0.10161630064249     -0.0325881354510741                       0 
                     -1        1.13488488488488         1.2248899936676        42.3530616760254   -6.01632193979042E-09            253986.90625          101301.8984375        288.105010986328        0.10161630064249     -0.0325881354510741                       0 
                     -1        1.13238238238238         1.2248899936676        42.3530616760254   -6.05033704784149E-09            253986.90625          101301.8984375        288.105010986328        0.10161630064249     -0.0325881354510741                       0 
                     -1        1.12987987987988         1.2248899936676        42.3530616760254   -6.08435215589256E-09            253986.90625          101301.8984375        288.105010986328        0.10161630064249     -0.0325881354510741                       0 
                     -1        1.12737737737738         1.2248899936676        42.3530616760254   -6.11836726394364E-09            253986.90625          101301.8984375        288.105010986328        0.10161630064249     -0.0325881354510741                       0 
                     -1        1.12487487487487         1.2248899936676        42.3530616760254   -6.15238237199471E-09            253986.90625          101301.8984375        288.105010986328        0.10161630064249     -0.0325881354510741                       0 
                     -1        1.12237237237237         1.2248899936676        42.3530616760254   -6.17378115161475E-09            253986.90625          101301.8984375        288.105010986328        0.10161630064249     -0.0325881354510741                       0 
                     -1        1.11986986986987         1.2248899936676        42.3530616760254   -6.17760081315942E-09            253986.90625          101301.8984375        288.105010986328        0.10161630064249     -0.0325881354510741                       0 
                     -1        1.11736736736737         1.2248899936676        42.3530616760254   -6.18142047470409E-09            253986.90625          101301.8984375        288.105010986328        0.10161630064249     -0.0325881354510741                       0 
                     -1        1.11486486486486         1.2248899936676        42.3530616760254   -6.18524013624875E-09            253986.90625          101301.8984375        288.105010986328        0.10161630064249     -0.0325881354510741                       0 
                     -1        1.11236236236236         1.2248899936676        42.3530616760254   -6.18905979779342E-09            253986.90625          101301.8984375        288.105010986328        0.10161630064249     -0.0325881354510741                       0 
                     -1        1.10985985985986         1.2248899936676        42.3530616760254   -6.19287945933809E-09            253986.90625          101301.8984375        288.105010986328        0.10161630064249     -0.0325881354510741                       0 
                     -1        1.10735735735736         1.2248899936676        42.3530616760254   -6.19669912136665E-09            253986.90625          101301.8984375        288.105010986328        0.10161630064249     -0.0325881354510741                       0 
                     -1        1.10485485485485         1.2248899936676        42.3530616760254   -6.20051878291132E-09            253986.90625          101301.8984375        288.105010986328        0.10161630064249     -0.0325881354510741                       0 
                     -1        1.10235235235235         1.2248899936676        42.3530616760254   -6.20433844445599E-09            253986.90625          101301.8984375        288.105010986328        0.10161630064249     -0.0325881354510741                       0 
                     -1        1.09984984984985         1.2248899936676        42.3530616760254   -6.20815810600066E-09            253986.90625          101301.8984375        288.105010986328        0.10161630064249     -0.0325881354510741                       0 
                     -1        1.09734734734735         1.2248899936676        42.3530616760254   -6.21197776754532E-09            253986.90625          101301.8984375        288.105010986328        0.10161630064249     -0.0325881354510741                       0 
                     -1        1.09484484484484         1.2248899936676        42.3530616760254   -6.21579742908999E-09            253986.90625          101301.8984375        288.105010986328        0.10161630064249     -0.0325881354510741                       0 
                     -1        1.09234234234234         1.2248899936676        42.3530616760254   -6.21961709063465E-09            253986.90625          101301.8984375        288.105010986328        0.10161630064249     -0.0325881354510741                       0 
                     -1        1.08983983983984         1.2248899936676        42.3530616760254    -6.2059683269108E-09            253986.90625          101301.8984375        288.105010986328        0.10161630064249     -0.0325881354510741                       0 
                     -1        1.08733733733734         1.2248899936676        42.3530616760254   -6.18716270199433E-09            253986.90625          101301.8984375        288.105010986328        0.10161630064249     -0.0325881354510741                       0 
                     -1        1.08483483483483         1.2248899936676        42.3530616760254   -6.16835707707785E-09            253986.90625          101301.8984375        288.105010986328        0.10161630064249     -0.0325881354510741                       0 
                     -1        1.08233233233233         1.2248899936676        42.3530616760254   -6.14955145216137E-09            253986.90625          101301.8984375        288.105010986328        0.10161630064249     -0.0325881354510741                       0 
                     -1        1.07982982982983         1.2248899936676        42.3530616760254    -6.1307458272449E-09            253986.90625          101301.8984375        288.105010986328        0.10161630064249     -0.0325881354510741                       0 
                     -1        1.07732732732733         1.2248899936676        42.3530616760254   -6.11194020232842E-09            253986.90625          101301.8984375        288.105010986328        0.10161630064249     -0.0325881354510741                       0 
                     -1        1.07482482482482         1.2248899936676        42.3530616760254   -6.09313458446942E-09            253986.90625          101301.8984375        288.105010986328        0.10161630064249     -0.0325881354510741                       0 
                     -1        1.07232232232232         1.2248899936676        42.3530616760254   -6.07432895955294E-09            253986.90625          101301.8984375        288.105010986328        0.10161630064249     -0.0325881354510741                       0 
                     -1        1.06981981981982         1.2248899936676        42.3530616760254   -6.05552333463646E-09            253986.90625          101301.8984375        288.105010986328        0.10161630064249     -0.0325881354510741                       0 
                     -1        1.06731731731732         1.2248899936676        42.3530616760254   -6.03671770971999E-09            253986.90625          101301.8984375        288.105010986328        0.10161630064249     -0.0325881354510741                       0 
                     -1        1.06481481481481         1.2248899936676        42.3530616760254   -6.01791208480351E-09            253986.90625          101301.8984375        288.105010986328        0.10161630064249     -0.0325881354510741                       0 
                     -1        1.06231231231231         1.2248899936676        42.3530616760254   -5.99910645988703E-09            253986.90625          101301.8984375        288.105010986328        0.10161630064249     -0.0325881354510741                       0 
                     -1        1.05980980980981         1.2248899936676        42.3530616760254    -5.9789826623171E-09            253986.90625          101301.8984375        288.105010986328        0.10161630064249     -0.0325881354510741                       0 
                     -1        1.05730730730731         1.2248899936676        42.3530616760254   -5.94977783935769E-09            253986.90625          101301.8984375        288.105010986328        0.10161630064249     -0.0325881354510741                       0 
                     -1         1.0548048048048         1.2248899936676        42.3530616760254   -5.92057301639828E-09            253986.90625          101301.8984375        288.105010986328        0.10161630064249     -0.0325881354510741                       0 
                     -1         1.0523023023023         1.2248899936676        42.3530616760254   -5.89136819343887E-09            253986.90625          101301.8984375        288.105010986328        0.10161630064249     -0.0325881354510741                       0 
                     -1         1.0497997997998         1.2248899936676        42.3530616760254   -5.86216337047946E-09            253986.90625          101301.8984375        288.105010986328        0.10161630064249     -0.0325881354510741                       0 
                     -1         1.0472972972973         1.2248899936676        42.3530616760254   -5.83295854752006E-09            253986.90625          101301.8984375        288.105010986328        0.10161630064249     -0.0325881354510741                       0 
                     -1        1.04479479479479         1.2248899936676        42.3530616760254   -5.80375372456065E-09            253986.90625          101301.8984375        288.105010986328        0.10161630064249     -0.0325881354510741                       0 
                     -1        1.04229229229229         1.2248899936676        42.3530616760254   -5.77454891613918E-09            253986.90625          101301.8984375        288.105010986328        0.10161630064249     -0.0325881354510741                       0 
                     -1        1.03978978978979         1.2248899936676        42.3530616760254   -5.74534409317978E-09            253986.90625          101301.8984375        288.105010986328        0.10161630064249     -0.0325881354510741                       0 
                     -1        1.03728728728729         1.2248899936676        42.3530616760254   -5.71613927022037E-09            253986.90625          101301.8984375        288.105010986328        0.10161630064249     -0.0325881354510741                       0 
                     -1        1.03478478478478         1.2248899936676        42.3530616760254   -5.68693444726096E-09            253986.90625          101301.8984375        288.105010986328        0.10161630064249     -0.0325881354510741                       0 
                     -1        1.03228228228228         1.2248899936676        42.3530616760254   -5.65772962430155E-09            253986.90625          101301.8984375        288.105010986328        0.10161630064249     -0.0325881354510741                       0 
                     -1        1.02977977977978         1.2248899936676        42.3530616760254   -5.62852480134215E-09            253986.90625          101301.8984375        288.105010986328        0.10161630064249     -0.0325881354510741                       0 
                     -1        1.02727727727728         1.2248899936676        42.3530616760254   -5.59810224681561E-09            253986.90625          101301.8984375        288.105010986328        0.10161630064249     -0.0325881354510741                       0 
                     -1        1.02477477477477         1.2248899936676        42.3530616760254   -5.56636581132497E-09            253986.90625          101301.8984375        288.105010986328        0.10161630064249     -0.0325881354510741                       0 
                     -1        1.02227227227227         1.2248899936676        42.3530616760254   -5.53462937583432E-09            253986.90625          101301.8984375        288.105010986328        0.10161630064249     -0.0325881354510741                       0 
                     -1        1.01976976976977         1.2248899936676        42.3530616760254   -5.50289294034368E-09            253986.90625          101301.8984375        288.105010986328        0.10161630064249     -0.0325881354510741                       0 
                     -1        1.01726726726727         1.2248899936676        42.3530616760254   -5.47115650485303E-09            253986.90625          101301.8984375        288.105010986328        0.10161630064249     -0.0325881354510741                       0 
                     -1        1.01476476476476         1.2248899936676        42.3530616760254   -5.43942006936239E-09            253986.90625          101301.8984375        288.105010986328        0.10161630064249     -0.0325881354510741                       0 
                     -1        1.01226226226226         1.2248899936676        42.3530616760254   -5.40768365436232E-09            253986.90625          101301.8984375        288.105010986328        0.10161630064249     -0.0325881354510741                       0 
                     -1        1.00975975975976         1.2248899936676        42.3530616760254   -5.37594721887167E-09            253986.90625          101301.8984375        288.105010986328        0.10161630064249     -0.0325881354510741                       0 
                     -1        1.00725725725726         1.2248899936676        42.3530616760254   -5.34421078338103E-09            253986.90625          101301.8984375        288.105010986328        0.10161630064249     -0.0325881354510741                       0 
                     -1        1.00475475475475         1.2248899936676        42.3530616760254   -5.31247434789038E-09            253986.90625          101301.8984375        288.105010986328        0.10161630064249     -0.0325881354510741                       0 
                     -1        1.00225225225225         1.2248899936676        42.3530616760254   -5.28073791239974E-09            253986.90625          101301.8984375        288.105010986328        0.10161630064249     -0.0325881354510741                       0 
                     -1        0.99974974974975         1.2248899936676        42.3530616760254   -5.24900147690909E-09            253986.90625          101301.8984375        288.105010986328        0.10161630064249     -0.0325881354510741                       0 
                     -1       0.997247247247247         1.2248899936676        42.3530616760254   -5.21726504141845E-09            253986.90625          101301.8984375        288.105010986328        0.10161630064249     -0.0325881354510741                       0 
                     -1       0.994744744744745         1.2248899936676        42.3530616760254   -5.18808486052698E-09            253986.90625          101301.8984375        288.105010986328        0.10161630064249     -0.0325881354510741                       0 
                     -1       0.992242242242242         1.2248899936676        42.3530616760254   -5.15940823181076E-09            253986.90625          101301.8984375        288.105010986328        0.10161630064249     -0.0325881354510741                       0 
                     -1        0.98973973973974         1.2248899936676        42.3530616760254   -5.13073160309454E-09            253986.90625          101301.8984375        288.105010986328        0.10161630064249     -0.0325881354510741                       0 
                     -1       0.987237237237237         1.2248899936676        42.3530616760254   -5.10205497437832E-09            253986.90625          101301.8984375        288.105010986328        0.10161630064249     -0.0325881354510741                       0 
                     -1       0.984734734734735         1.2248899936676        42.3530616760254    -5.0733783456621E-09            253986.90625          101301.8984375        288.105010986328        0.10161630064249     -0.0325881354510741                       0 
                     -1       0.982232232232232         1.2248899936676        42.3530616760254   -5.04470171694587E-09            253986.90625          101301.8984375        288.105010986328        0.10161630064249     -0.0325881354510741                       0 
                     -1        0.97972972972973         1.2248899936676        42.3530616760254   -5.01602511168376E-09            253986.90625          101301.8984375        288.105010986328        0.10161630064249     -0.0325881354510741                       0 
                     -1       0.977227227227227         1.2248899936676        42.3530616760254   -4.98734848296754E-09            253986.90625          101301.8984375        288.105010986328        0.10161630064249     -0.0325881354510741                       0 
                     -1       0.974724724724725         1.2248899936676        42.3530616760254   -4.95867185425132E-09            253986.90625          101301.8984375        288.105010986328        0.10161630064249     -0.0325881354510741                       0 
                     -1       0.972222222222222         1.2248899936676        42.3530616760254    -4.9299952255351E-09            253986.90625          101301.8984375        288.105010986328        0.10161630064249     -0.0325881354510741                       0 