TITLE = "Visualization of the volumetric solution"
VARIABLES = "x","y","Density","Momentum_x","Momentum_y","Energy","Pressure","Temperature","Mach","C<sub>p</sub>","Roe_Dissipation"
ZONE NODES= 2400, ELEMENTS= 2291, DATAPACKING=POINT, ZONETYPE=FEQUADRILATERAL
0.000000e+00	1.250000e+00	1.225022e+00	4.194961e+01	4.202789e-01	2.540107e+05	1.013170e+05	2.881168e+02	1.006405e-01	-1.133367e-02	0.000000e+00	
0.000000e+00	1.218354e+00	1.225021e+00	4.194977e+01	4.187674e-01	2.540105e+05	1.013169e+05	2.881168e+02	1.006409e-01	-1.146803e-02	0.000000e+00	
3.448276e-02	1.218354e+00	1.225006e+00	4.194662e+01	2.268951e+00	2.540080e+05	1.013151e+05	2.881152e+02	1.007769e-01	-1.396846e-02	0.000000e+00	
3.448276e-02	1.250000e+00	1.225006e+00	4.194692e+01	2.268651e+00	2.540079e+05	1.013150e+05	2.881152e+02	1.007777e-01	-1.405541e-02	0.000000e+00	
0.000000e+00	1.186709e+00	1.225022e+00	4.195028e+01	4.181184e-01	2.540107e+05	1.013169e+05	2.881168e+02	1.006421e-01	-1.138008e-02	0.000000e+00	
3.448276e-02	1.186709e+00	1.225006e+00	4.194720e+01	2.268792e+00	2.540079e+05	1.013151e+05	2.881152e+02	1.007783e-01	-1.401644e-02	0.000000e+00	
0.000000e+00	1.155063e+00	1.225022e+00	4.195078e+01	4.177467e-01	2.540107e+05	1.013169e+05	2.881168e+02	1.006432e-01	-1.135367e-02	0.000000e+00	
3.448276e-02	1.155063e+00	1.225006e+00	4.194790e+01	2.268750e+00	2.540079e+05	1.013151e+05	2.881152e+02	1.007800e-01	-1.402591e-02	0.000000e+00	
0.000000e+00	1.123418e+00	1.225022e+00	4.195128e+01	4.175592e-01	2.540108e+05	1.013170e+05	2.881168e+02	1.006444e-01	-1.134685e-02	0.000000e+00	
3.448276e-02	1.123418e+00	1.225006e+00	4.194852e+01	2.268729e+00	2.540079e+05	1.013150e+05	2.881152e+02	1.007815e-01	-1.403755e-02	0.000000e+00	
0.000000e+00	1.091772e+00	1.225022e+00	4.195168e+01	4.174687e-01	2.540108e+05	1.013170e+05	2.881168e+02	1.006454e-01	-1.134251e-02	0.000000e+00	
3.448276e-02	1.091772e+00	1.225006e+00	4.194896e+01	2.268736e+00	2.540079e+05	1.013150e+05	2.881152e+02	1.007826e-01	-1.404187e-02	0.000000e+00	
0.000000e+00	1.060127e+00	1.225022e+00	4.195192e+01	4.174102e-01	2.540108e+05	1.013170e+05	2.881168e+02	1.006460e-01	-1.134153e-02	0.000000e+00	
3.448276e-02	1.060127e+00	1.225006e+00	4.194922e+01	2.268732e+00	2.540080e+05	1.013150e+05	2.881152e+02	1.007832e-01	-1.404653e-02	0.000000e+00	
0.000000e+00	1.028481e+00	1.225022e+00	4.195203e+01	4.173686e-01	2.540108e+05	1.013170e+05	2.881168e+02	1.006462e-01	-1.134097e-02	0.000000e+00	
3.448276e-02	1.028481e+00	1.225006e+00	4.194934e+01	2.268726e+00	2.540080e+05	1.013150e+05	2.881152e+02	1.007835e-01	-1.404895e-02	0.000000e+00	
0.000000e+00	9.968354e-01	1.225022e+00	4.195206e+01	4.173372e-01	2.540108e+05	1.013170e+05	2.881168e+02	1.006463e-01	-1.134116e-02	0.000000e+00	
3.448276e-02	9.968354e-01	1.225006e+00	4.194936e+01	2.268714e+00	2.540079e+05	1.013150e+05	2.881152e+02	1.007835e-01	-1.405124e-02	0.000000e+00	
0.000000e+00	9.651899e-01	1.225022e+00	4.195204e+01	4.173146e-01	2.540108e+05	1.013170e+05	2.881168e+02	1.006462e-01	-1.134154e-02	0.000000e+00	
3.448276e-02	9.651899e-01	1.225006e+00	4.194935e+01	2.268703e+00	2.540079e+05	1.013150e+05	2.881152e+02	1.007835e-01	-1.405284e-02	0.000000e+00	
0.000000e+00	9.335443e-01	1.225022e+00	4.195201e+01	4.172982e-01	2.540108e+05	1.013170e+05	2.881168e+02	1.006462e-01	-1.134220e-02	0.000000e+00	
3.448276e-02	9.335443e-01	1.225006e+00	4.194933e+01	2.268694e+00	2.540079e+05	1.013150e+05	2.881152e+02	1.007834e-01	-1.405431e-02	0.000000e+00	
0.000000e+00	9.018987e-01	1.225022e+00	4.195199e+01	4.172865e-01	2.540108e+05	1.013170e+05	2.881168e+02	1.006461e-01	-1.134295e-02	0.000000e+00	
3.448276e-02	9.018987e-01	1.225006e+00	4.194931e+01	2.268687e+00	2.540079e+05	1.013150e+05	2.881152e+02	1.007834e-01	-1.405551e-02	0.000000e+00	
0.000000e+00	8.702532e-01	1.225022e+00	4.195198e+01	4.172782e-01	2.540108e+05	1.013170e+05	2.881168e+02	1.006461e-01	-1.134376e-02	0.000000e+00	
3.448276e-02	8.702532e-01	1.225006e+00	4.194930e+01	2.268682e+00	2.540079e+05	1.013150e+05	2.881152e+02	1.007834e-01	-1.405664e-02	0.000000e+00	
0.000000e+00	8.386076e-01	1.225022e+00	4.195198e+01	4.172727e-01	2.540108e+05	1.013170e+05	2.881168e+02	1.006461e-01	-1.134458e-02	0.000000e+00	
3.448276e-02	8.386076e-01	1.225006e+00	4.194931e+01	2.268680e+00	2.540079e+05	1.013150e+05	2.881152e+02	1.007834e-01	-1.405766e-02	0.000000e+00	
0.000000e+00	8.069620e-01	1.225022e+00	4.195199e+01	4.172696e-01	2.540108e+05	1.013170e+05	2.881168e+02	1.006461e-01	-1.134538e-02	0.000000e+00	
3.448276e-02	8.069620e-01	1.225006e+00	4.194932e+01	2.268679e+00	2.540079e+05	1.013150e+05	2.881152e+02	1.007834e-01	-1.405863e-02	0.000000e+00	
0.000000e+00	7.753165e-01	1.225022e+00	4.195201e+01	4.172685e-01	2.540108e+05	1.013170e+05	2.881168e+02	1.006462e-01	-1.134616e-02	0.000000e+00	
3.448276e-02	7.753165e-01	1.225006e+00	4.194934e+01	2.268679e+00	2.540079e+05	1.013150e+05	2.881152e+02	1.007835e-01	-1.405953e-02	0.000000e+00	
0.000000e+00	7.436709e-01	1.225022e+00	4.195202e+01	4.172689e-01	2.540108e+05	1.013170e+05	2.881168e+02	1.006462e-01	-1.134692e-02	0.000000e+00	
3.448276e-02	7.436709e-01	1.225006e+00	4.194935e+01	2.268681e+00	2.540079e+05	1.013150e+05	2.881152e+02	1.007835e-01	-1.406040e-02	0.000000e+00	
0.000000e+00	7.120253e-01	1.225022e+00	4.195204e+01	4.172704e-01	2.540108e+05	1.013170e+05	2.881168e+02	1.006462e-01	-1.134765e-02	0.000000e+00	
3.448276e-02	7.120253e-01	1.225006e+00	4.194937e+01	2.268683e+00	2.540079e+05	1.013150e+05	2.881152e+02	1.007835e-01	-1.406122e-02	0.000000e+00	
0.000000e+00	6.803797e-01	1.225022e+00	4.195205e+01	4.172727e-01	2.540108e+05	1.013170e+05	2.881168e+02	1.006463e-01	-1.134835e-02	0.000000e+00	
3.448276e-02	6.803797e-01	1.225006e+00	4.194938e+01	2.268686e+00	2.540079e+05	1.013150e+05	2.881152e+02	1.007836e-01	-1.406200e-02	0.000000e+00	
0.000000e+00	6.487342e-01	1.225022e+00	4.195206e+01	4.172756e-01	2.540108e+05	1.013170e+05	2.881168e+02	1.006463e-01	-1.134902e-02	0.000000e+00	
3.448276e-02	6.487342e-01	1.225006e+00	4.194939e+01	2.268689e+00	2.540079e+05	1.013150e+05	2.881152e+02	1.007836e-01	-1.406275e-02	0.000000e+00	
0.000000e+00	6.170886e-01	1.225022e+00	4.195207e+01	4.172789e-01	2.540108e+05	1.013169e+05	2.881168e+02	1.006463e-01	-1.134967e-02	0.000000e+00	
3.448276e-02	6.170886e-01	1.225006e+00	4.194940e+01	2.268692e+00	2.540079e+05	1.013150e+05	2.881152e+02	1.007836e-01	-1.406345e-02	0.000000e+00	
0.000000e+00	5.854430e-01	1.225022e+00	4.195208e+01	4.172826e-01	2.540108e+05	1.013169e+05	2.881168e+02	1.006463e-01	-1.135029e-02	0.000000e+00	
3.448276e-02	5.854430e-01	1.225006e+00	4.194941e+01	2.268696e+00	2.540079e+05	1.013150e+05	2.881152e+02	1.007836e-01	-1.406412e-02	0.000000e+00	
0.000000e+00	5.537975e-01	1.225022e+00	4.195209e+01	4.172866e-01	2.540108e+05	1.013169e+05	2.881168e+02	1.006463e-01	-1.135088e-02	0.000000e+00	
3.448276e-02	5.537975e-01	1.225006e+00	4.194942e+01	2.268699e+00	2.540079e+05	1.013150e+05	2.881152e+02	1.007837e-01	-1.406476e-02	0.000000e+00	
0.000000e+00	5.221519e-01	1.225022e+00	4.195209e+01	4.172909e-01	2.540108e+05	1.013169e+05	2.881168e+02	1.006464e-01	-1.135144e-02	0.000000e+00	
3.448276e-02	5.221519e-01	1.225006e+00	4.194943e+01	2.268703e+00	2.540079e+05	1.013150e+05	2.881152e+02	1.007837e-01	-1.406536e-02	0.000000e+00	
0.000000e+00	4.905063e-01	1.225022e+00	4.195210e+01	4.172955e-01	2.540108e+05	1.013169e+05	2.881168e+02	1.006464e-01	-1.135197e-02	0.000000e+00	
3.448276e-02	4.905063e-01	1.225006e+00	4.194944e+01	2.268708e+00	2.540079e+05	1.013150e+05	2.881152e+02	1.007837e-01	-1.406594e-02	0.000000e+00	
0.000000e+00	4.588608e-01	1.225022e+00	4.195211e+01	4.173005e-01	2.540108e+05	1.013169e+05	2.881168e+02	1.006464e-01	-1.135248e-02	0.000000e+00	
3.448276e-02	4.588608e-01	1.225006e+00	4.194945e+01	2.268712e+00	2.540079e+05	1.013150e+05	2.881152e+02	1.007837e-01	-1.406649e-02	0.000000e+00	
0.000000e+00	4.272152e-01	1.225022e+00	4.195212e+01	4.173058e-01	2.540108e+05	1.013169e+05	2.881168e+02	1.006464e-01	-1.135297e-02	0.000000e+00	
3.448276e-02	4.272152e-01	1.225006e+00	4.194945e+01	2.268716e+00	2.540079e+05	1.013150e+05	2.881152e+02	1.007838e-01	-1.406702e-02	0.000000e+00	
0.000000e+00	3.955696e-01	1.225022e+00	4.195213e+01	4.173113e-01	2.540108e+05	1.013169e+05	2.881168e+02	1.006465e-01	-1.135343e-02	0.000000e+00	
3.448276e-02	3.955696e-01	1.225006e+00	4.194946e+01	2.268721e+00	2.540079e+05	1.013150e+05	2.881152e+02	1.007838e-01	-1.406752e-02	0.000000e+00	
0.000000e+00	3.639241e-01	1.225022e+00	4.195214e+01	4.173171e-01	2.540108e+05	1.013169e+05	2.881168e+02	1.006465e-01	-1.135387e-02	0.000000e+00	
3.448276e-02	3.639241e-01	1.225006e+00	4.194947e+01	2.268726e+00	2.540079e+05	1.013150e+05	2.881152e+02	1.007838e-01	-1.406800e-02	0.000000e+00	
0.000000e+00	3.322785e-01	1.225022e+00	4.195214e+01	4.173232e-01	2.540108e+05	1.013169e+05	2.881168e+02	1.006465e-01	-1.135429e-02	0.000000e+00	
3.448276e-02	3.322785e-01	1.225006e+00	4.194948e+01	2.268731e+00	2.540079e+05	1.013150e+05	2.881152e+02	1.007838e-01	-1.406846e-02	0.000000e+00	
0.000000e+00	3.006329e-01	1.225022e+00	4.195215e+01	4.173296e-01	2.540108e+05	1.013169e+05	2.881168e+02	1.006465e-01	-1.135469e-02	0.000000e+00	
3.448276e-02	3.006329e-01	1.225006e+00	4.194949e+01	2.268736e+00	2.540079e+05	1.013150e+05	2.881152e+02	1.007838e-01	-1.406889e-02	0.000000e+00	
0.000000e+00	2.689873e-01	1.225022e+00	4.195216e+01	4.173362e-01	2.540108e+05	1.013169e+05	2.881168e+02	1.006465e-01	-1.135506e-02	0.000000e+00	
3.448276e-02	2.689873e-01	1.225006e+00	4.194949e+01	2.268742e+00	2.540079e+05	1.013150e+05	2.881152e+02	1.007839e-01	-1.406930e-02	0.000000e+00	
0.000000e+00	2.373418e-01	1.225022e+00	4.195217e+01	4.173430e-01	2.540108e+05	1.013169e+05	2.881168e+02	1.006465e-01	-1.135542e-02	0.000000e+00	
3.448276e-02	2.373418e-01	1.225006e+00	4.194950e+01	2.268747e+00	2.540079e+05	1.013150e+05	2.881152e+02	1.007839e-01	-1.406970e-02	0.000000e+00	
0.000000e+00	2.056962e-01	1.225022e+00	4.195217e+01	4.173502e-01	2.540108e+05	1.013169e+05	2.881168e+02	1.006466e-01	-1.135575e-02	0.000000e+00	
3.448276e-02	2.056962e-01	1.225006e+00	4.194951e+01	2.268753e+00	2.540079e+05	1.013150e+05	2.881152e+02	1.007839e-01	-1.407007e-02	0.000000e+00	
0.000000e+00	1.740506e-01	1.225022e+00	4.195218e+01	4.173576e-01	2.540108e+05	1.013169e+05	2.881168e+02	1.006466e-01	-1.135607e-02	0.000000e+00	
3.448276e-02	1.740506e-01	1.225006e+00	4.194951e+01	2.268759e+00	2.540079e+05	1.013150e+05	2.881152e+02	1.007839e-01	-1.407042e-02	0.000000e+00	
0.000000e+00	1.424051e-01	1.225022e+00	4.195218e+01	4.173653e-01	2.540108e+05	1.013169e+05	2.881168e+02	1.006466e-01	-1.135636e-02	0.000000e+00	
3.448276e-02	1.424051e-01	1.225006e+00	4.194952e+01	2.268766e+00	2.540079e+05	1.013150e+05	2.881152e+02	1.007839e-01	-1.407075e-02	0.000000e+00	
0.000000e+00	1.107595e-01	1.225022e+00	4.195219e+01	4.173733e-01	2.540108e+05	1.013169e+05	2.881168e+02	1.006466e-01	-1.135663e-02	0.000000e+00	
3.448276e-02	1.107595e-01	1.225006e+00	4.194953e+01	2.268772e+00	2.540079e+05	1.013150e+05	2.881152e+02	1.007839e-01	-1.407106e-02	0.000000e+00	
0.000000e+00	7.911392e-02	1.225022e+00	4.195220e+01	4.173816e-01	2.540108e+05	1.013169e+05	2.881168e+02	1.006466e-01	-1.135689e-02	0.000000e+00	
3.448276e-02	7.911392e-02	1.225006e+00	4.194953e+01	2.268779e+00	2.540079e+05	1.013150e+05	2.881152e+02	1.007840e-01	-1.407135e-02	0.000000e+00	
0.000000e+00	4.746835e-02	1.225022e+00	4.195220e+01	4.173903e-01	2.540108e+05	1.013169e+05	2.881168e+02	1.006466e-01	-1.135712e-02	0.000000e+00	
3.448276e-02	4.746835e-02	1.225006e+00	4.194954e+01	2.268785e+00	2.540079e+05	1.013150e+05	2.881152e+02	1.007840e-01	-1.407162e-02	0.000000e+00	
0.000000e+00	1.582278e-02	1.225022e+00	4.195221e+01	4.173992e-01	2.540108e+05	1.013169e+05	2.881168e+02	1.006466e-01	-1.135732e-02	0.000000e+00	
3.448276e-02	1.582278e-02	1.225006e+00	4.194954e+01	2.268793e+00	2.540079e+05	1.013150e+05	2.881152e+02	1.007840e-01	-1.407186e-02	0.000000e+00	
0.000000e+00	-1.582278e-02	1.225022e+00	4.195221e+01	4.174084e-01	2.540108e+05	1.013169e+05	2.881168e+02	1.006467e-01	-1.135751e-02	0.000000e+00	
3.448276e-02	-1.582278e-02	1.225006e+00	4.194955e+01	2.268800e+00	2.540079e+05	1.013150e+05	2.881152e+02	1.007840e-01	-1.407209e-02	0.000000e+00	
0.000000e+00	-4.746835e-02	1.225022e+00	4.195222e+01	4.174180e-01	2.540108e+05	1.013169e+05	2.881168e+02	1.006467e-01	-1.135767e-02	0.000000e+00	
3.448276e-02	-4.746835e-02	1.225006e+00	4.194955e+01	2.268807e+00	2.540079e+05	1.013150e+05	2.881152e+02	1.007840e-01	-1.407229e-02	0.000000e+00	
0.000000e+00	-7.911392e-02	1.225022e+00	4.195222e+01	4.174279e-01	2.540108e+05	1.013169e+05	2.881168e+02	1.006467e-01	-1.135781e-02	0.000000e+00	
3.448276e-02	-7.911392e-02	1.225006e+00	4.194956e+01	2.268815e+00	2.540079e+05	1.013150e+05	2.881152e+02	1.007840e-01	-1.407247e-02	0.000000e+00	
0.000000e+00	-1.107595e-01	1.225022e+00	4.195222e+01	4.174381e-01	2.540108e+05	1.013169e+05	2.881168e+02	1.006467e-01	-1.135792e-02	0.000000e+00	
3.448276e-02	-1.107595e-01	1.225006e+00	4.194956e+01	2.268823e+00	2.540079e+05	1.013150e+05	2.881152e+02	1.007840e-01	-1.407262e-02	0.000000e+00	
0.000000e+00	-1.424051e-01	1.225022e+00	4.195223e+01	4.174487e-01	2.540108e+05	1.013169e+05	2.881168e+02	1.006467e-01	-1.135801e-02	0.000000e+00	
3.448276e-02	-1.424051e-01	1.225006e+00	4.194957e+01	2.268832e+00	2.540079e+05	1.013150e+05	2.881152e+02	1.007840e-01	-1.407275e-02	0.000000e+00	
0.000000e+00	-1.740506e-01	1.225022e+00	4.195223e+01	4.174596e-01	2.540108e+05	1.013169e+05	2.881168e+02	1.006467e-01	-1.135807e-02	0.000000e+00	
3.448276e-02	-1.740506e-01	1.225006e+00	4.194957e+01	2.268840e+00	2.540079e+05	1.013150e+05	2.881152e+02	1.007841e-01	-1.407285e-02	0.000000e+00	
0.000000e+00	-2.056962e-01	1.225022e+00	4.195223e+01	4.174708e-01	2.540108e+05	1.013169e+05	2.881168e+02	1.006467e-01	-1.135810e-02	0.000000e+00	
3.448276e-02	-2.056962e-01	1.225006e+00	4.194957e+01	2.268849e+00	2.540079e+05	1.013150e+05	2.881152e+02	1.007841e-01	-1.407292e-02	0.000000e+00	
0.000000e+00	-2.373418e-01	1.225022e+00	4.195224e+01	4.174824e-01	2.540108e+05	1.013169e+05	2.881168e+02	1.006467e-01	-1.135810e-02	0.000000e+00	
3.448276e-02	-2.373418e-01	1.225006e+00	4.194958e+01	2.268858e+00	2.540079e+05	1.013150e+05	2.881152e+02	1.007841e-01	-1.407296e-02	0.000000e+00	
0.000000e+00	-2.689873e-01	1.225022e+00	4.195224e+01	4.174943e-01	2.540108e+05	1.013169e+05	2.881168e+02	1.006467e-01	-1.135807e-02	0.000000e+00	
3.448276e-02	-2.689873e-01	1.225006e+00	4.194958e+01	2.268868e+00	2.540079e+05	1.013150e+05	2.881152e+02	1.007841e-01	-1.407297e-02	0.000000e+00	
0.000000e+00	-3.006329e-01	1.225022e+00	4.195224e+01	4.175065e-01	2.540108e+05	1.013169e+05	2.881168e+02	1.006467e-01	-1.135801e-02	0.000000e+00	
3.448276e-02	-3.006329e-01	1.225006e+00	4.194958e+01	2.268877e+00	2.540079e+05	1.013150e+05	2.881152e+02	1.007841e-01	-1.407295e-02	0.000000e+00	
0.000000e+00	-3.322785e-01	1.225022e+00	4.195224e+01	4.175190e-01	2.540108e+05	1.013169e+05	2.881168e+02	1.006467e-01	-1.135791e-02	0.000000e+00	
3.448276e-02	-3.322785e-01	1.225006e+00	4.194958e+01	2.268887e+00	2.540079e+05	1.013150e+05	2.881152e+02	1.007841e-01	-1.407289e-02	0.000000e+00	
0.000000e+00	-3.639241e-01	1.225022e+00	4.195224e+01	4.175318e-01	2.540108e+05	1.013169e+05	2.881168e+02	1.006467e-01	-1.135778e-02	0.000000e+00	
3.448276e-02	-3.639241e-01	1.225006e+00	4.194958e+01	2.268897e+00	2.540079e+05	1.013150e+05	2.881152e+02	1.007841e-01	-1.407279e-02	0.000000e+00	
0.000000e+00	-3.955696e-01	1.225022e+00	4.195224e+01	4.175448e-01	2.540108e+05	1.013169e+05	2.881168e+02	1.006467e-01	-1.135760e-02	0.000000e+00	
3.448276e-02	-3.955696e-01	1.225006e+00	4.194958e+01	2.268907e+00	2.540079e+05	1.013150e+05	2.881152e+02	1.007841e-01	-1.407265e-02	0.000000e+00	
0.000000e+00	-4.272152e-01	1.225022e+00	4.195224e+01	4.175580e-01	2.540108e+05	1.013169e+05	2.881168e+02	1.006467e-01	-1.135739e-02	0.000000e+00	
3.448276e-02	-4.272152e-01	1.225006e+00	4.194958e+01	2.268917e+00	2.540079e+05	1.013150e+05	2.881152e+02	1.007841e-01	-1.407247e-02	0.000000e+00	
0.000000e+00	-4.588608e-01	1.225022e+00	4.195224e+01	4.175715e-01	2.540108e+05	1.013169e+05	2.881168e+02	1.006467e-01	-1.135714e-02	0.000000e+00	
3.448276e-02	-4.588608e-01	1.225006e+00	4.194958e+01	2.268928e+00	2.540079e+05	1.013150e+05	2.881152e+02	1.007841e-01	-1.407225e-02	0.000000e+00	
0.000000e+00	-4.905063e-01	1.225022e+00	4.195223e+01	4.175850e-01	2.540108e+05	1.013169e+05	2.881168e+02	1.006467e-01	-1.135684e-02	0.000000e+00	
3.448276e-02	-4.905063e-01	1.225006e+00	4.194958e+01	2.268938e+00	2.540079e+05	1.013150e+05	2.881152e+02	1.007841e-01	-1.407198e-02	0.000000e+00	
0.000000e+00	-5.221519e-01	1.225022e+00	4.195223e+01	4.175987e-01	2.540108e+05	1.013169e+05	2.881168e+02	1.006467e-01	-1.135649e-02	0.000000e+00	
3.448276e-02	-5.221519e-01	1.225006e+00	4.194957e+01	2.268949e+00	2.540079e+05	1.013150e+05	2.881152e+02	1.007841e-01	-1.407166e-02	0.000000e+00	
0.000000e+00	-5.537975e-01	1.225022e+00	4.195222e+01	4.176125e-01	2.540108e+05	1.013169e+05	2.881168e+02	1.006467e-01	-1.135609e-02	0.000000e+00	
3.448276e-02	-5.537975e-01	1.225006e+00	4.194957e+01	2.268960e+00	2.540079e+05	1.013150e+05	2.881152e+02	1.007841e-01	-1.407128e-02	0.000000e+00	
0.000000e+00	-5.854430e-01	1.225022e+00	4.195222e+01	4.176263e-01	2.540108e+05	1.013169e+05	2.881168e+02	1.006467e-01	-1.135564e-02	0.000000e+00	
3.448276e-02	-5.854430e-01	1.225006e+00	4.194956e+01	2.268971e+00	2.540079e+05	1.013150e+05	2.881152e+02	1.007841e-01	-1.407085e-02	0.000000e+00	
0.000000e+00	-6.170886e-01	1.225022e+00	4.195221e+01	4.176401e-01	2.540108e+05	1.013169e+05	2.881168e+02	1.006467e-01	-1.135514e-02	0.000000e+00	
3.448276e-02	-6.170886e-01	1.225006e+00	4.194956e+01	2.268981e+00	2.540079e+05	1.013150e+05	2.881152e+02	1.007840e-01	-1.407036e-02	0.000000e+00	
0.000000e+00	-6.487342e-01	1.225022e+00	4.195221e+01	4.176538e-01	2.540108e+05	1.013169e+05	2.881168e+02	1.006466e-01	-1.135457e-02	0.000000e+00	
3.448276e-02	-6.487342e-01	1.225006e+00	4.194955e+01	2.268992e+00	2.540079e+05	1.013150e+05	2.881152e+02	1.007840e-01	-1.406980e-02	0.000000e+00	
0.000000e+00	-6.803797e-01	1.225022e+00	4.195220e+01	4.176674e-01	2.540108e+05	1.013169e+05	2.881168e+02	1.006466e-01	-1.135394e-02	0.000000e+00	
3.448276e-02	-6.803797e-01	1.225006e+00	4.194954e+01	2.269003e+00	2.540079e+05	1.013150e+05	2.881152e+02	1.007840e-01	-1.406918e-02	0.000000e+00	
0.000000e+00	-7.120253e-01	1.225022e+00	4.195219e+01	4.176805e-01	2.540108e+05	1.013169e+05	2.881168e+02	1.006466e-01	-1.135325e-02	0.000000e+00	
3.448276e-02	-7.120253e-01	1.225006e+00	4.194953e+01	2.269013e+00	2.540079e+05	1.013150e+05	2.881152e+02	1.007840e-01	-1.406849e-02	0.000000e+00	
0.000000e+00	-7.436709e-01	1.225022e+00	4.195217e+01	4.176930e-01	2.540108e+05	1.013169e+05	2.881168e+02	1.006466e-01	-1.135249e-02	0.000000e+00	
3.448276e-02	-7.436709e-01	1.225006e+00	4.194951e+01	2.269022e+00	2.540079e+05	1.013150e+05	2.881152e+02	1.007839e-01	-1.406773e-02	0.000000e+00	
0.000000e+00	-7.753165e-01	1.225022e+00	4.195216e+01	4.177044e-01	2.540108e+05	1.013169e+05	2.881168e+02	1.006465e-01	-1.135168e-02	0.000000e+00	
3.448276e-02	-7.753165e-01	1.225006e+00	4.194950e+01	2.269031e+00	2.540079e+05	1.013150e+05	2.881152e+02	1.007839e-01	-1.406690e-02	0.000000e+00	
0.000000e+00	-8.069620e-01	1.225022e+00	4.195214e+01	4.177145e-01	2.540108e+05	1.013169e+05	2.881168e+02	1.006465e-01	-1.135082e-02	0.000000e+00	
3.448276e-02	-8.069620e-01	1.225006e+00	4.194948e+01	2.269038e+00	2.540079e+05	1.013150e+05	2.881152e+02	1.007839e-01	-1.406600e-02	0.000000e+00	
0.000000e+00	-8.386076e-01	1.225022e+00	4.195213e+01	4.177228e-01	2.540108e+05	1.013169e+05	2.881168e+02	1.006465e-01	-1.134990e-02	0.000000e+00	
3.448276e-02	-8.386076e-01	1.225006e+00	4.194946e+01	2.269044e+00	2.540079e+05	1.013150e+05	2.881152e+02	1.007838e-01	-1.406505e-02	0.000000e+00	
0.000000e+00	-8.702532e-01	1.225022e+00	4.195212e+01	4.177293e-01	2.540108e+05	1.013170e+05	2.881168e+02	1.006464e-01	-1.134892e-02	0.000000e+00	
3.448276e-02	-8.702532e-01	1.225006e+00	4.194946e+01	2.269048e+00	2.540079e+05	1.013150e+05	2.881152e+02	1.007838e-01	-1.406405e-02	0.000000e+00	
0.000000e+00	-9.018987e-01	1.225022e+00	4.195213e+01	4.177341e-01	2.540108e+05	1.013170e+05	2.881168e+02	1.006465e-01	-1.134786e-02	0.000000e+00	
3.448276e-02	-9.018987e-01	1.225006e+00	4.194946e+01	2.269051e+00	2.540079e+05	1.013150e+05	2.881152e+02	1.007838e-01	-1.406305e-02	0.000000e+00	
0.000000e+00	-9.335443e-01	1.225022e+00	4.195215e+01	4.177375e-01	2.540108e+05	1.013170e+05	2.881168e+02	1.006465e-01	-1.134667e-02	0.000000e+00	
3.448276e-02	-9.335443e-01	1.225006e+00	4.194948e+01	2.269053e+00	2.540079e+05	1.013150e+05	2.881152e+02	1.007838e-01	-1.406205e-02	0.000000e+00	
0.000000e+00	-9.651899e-01	1.225022e+00	4.195217e+01	4.177406e-01	2.540108e+05	1.013170e+05	2.881168e+02	1.006466e-01	-1.134534e-02	0.000000e+00	
3.448276e-02	-9.651899e-01	1.225006e+00	4.194950e+01	2.269053e+00	2.540079e+05	1.013150e+05	2.881152e+02	1.007839e-01	-1.406125e-02	0.000000e+00	
0.000000e+00	-9.968354e-01	1.225022e+00	4.195219e+01	4.177444e-01	2.540108e+05	1.013170e+05	2.881168e+02	1.006466e-01	-1.134364e-02	0.000000e+00	
3.448276e-02	-9.968354e-01	1.225006e+00	4.194952e+01	2.269051e+00	2.540079e+05	1.013150e+05	2.881152e+02	1.007840e-01	-1.406053e-02	0.000000e+00	
0.000000e+00	-1.028481e+00	1.225022e+00	4.195218e+01	4.177513e-01	2.540108e+05	1.013170e+05	2.881168e+02	1.006466e-01	-1.134170e-02	0.000000e+00	
3.448276e-02	-1.028481e+00	1.225006e+00	4.194951e+01	2.269044e+00	2.540079e+05	1.013150e+05	2.881152e+02	1.007839e-01	-1.406058e-02	0.000000e+00	
0.000000e+00	-1.060127e+00	1.225022e+00	4.195209e+01	4.177627e-01	2.540108e+05	1.013170e+05	2.881168e+02	1.006464e-01	-1.133893e-02	0.000000e+00	
3.448276e-02	-1.060127e+00	1.225006e+00	4.194942e+01	2.269028e+00	2.540079e+05	1.013150e+05	2.881152e+02	1.007837e-01	-1.406079e-02	0.000000e+00	
0.000000e+00	-1.091772e+00	1.225022e+00	4.195185e+01	4.177867e-01	2.540108e+05	1.013170e+05	2.881168e+02	1.006458e-01	-1.133596e-02	0.000000e+00	
3.448276e-02	-1.091772e+00	1.225006e+00	4.194919e+01	2.269003e+00	2.540079e+05	1.013150e+05	2.881152e+02	1.007832e-01	-1.406368e-02	0.000000e+00	
0.000000e+00	-1.123418e+00	1.225022e+00	4.195141e+01	4.178381e-01	2.540108e+05	1.013170e+05	2.881168e+02	1.006447e-01	-1.132973e-02	0.000000e+00	
3.448276e-02	-1.123418e+00	1.225006e+00	4.194880e+01	2.268965e+00	2.540079e+05	1.013150e+05	2.881152e+02	1.007822e-01	-1.406609e-02	0.000000e+00	
0.000000e+00	-1.155063e+00	1.225022e+00	4.195081e+01	4.179810e-01	2.540108e+05	1.013170e+05	2.881168e+02	1.006433e-01	-1.132192e-02	0.000000e+00	
3.448276e-02	-1.155063e+00	1.225005e+00	4.194829e+01	2.268949e+00	2.540079e+05	1.013150e+05	2.881152e+02	1.007810e-01	-1.407729e-02	0.000000e+00	
0.000000e+00	-1.186709e+00	1.225023e+00	4.195015e+01	4.182945e-01	2.540108e+05	1.013170e+05	2.881168e+02	1.006417e-01	-1.129381e-02	0.000000e+00	
3.448276e-02	-1.186709e+00	1.225005e+00	4.194782e+01	2.268939e+00	2.540078e+05	1.013150e+05	2.881152e+02	1.007799e-01	-1.408566e-02	0.000000e+00	
0.000000e+00	-1.218354e+00	1.225023e+00	4.194978e+01	4.188732e-01	2.540110e+05	1.013171e+05	2.881168e+02	1.006408e-01	-1.120771e-02	0.000000e+00	
3.448276e-02	-1.218354e+00	1.225005e+00	4.194751e+01	2.269026e+00	2.540077e+05	1.013150e+05	2.881152e+02	1.007792e-01	-1.413540e-02	0.000000e+00	
6.896552e-02	1.218354e+00	1.224965e+00	4.194857e+01	3.719841e+00	2.540004e+05	1.013106e+05	2.881122e+02	1.010334e-01	-2.031860e-02	0.000000e+00	
6.896552e-02	1.250000e+00	1.224964e+00	4.194842e+01	3.719524e+00	2.540003e+05	1.013106e+05	2.881122e+02	1.010329e-01	-2.033199e-02	0.000000e+00	
6.896552e-02	1.186709e+00	1.224964e+00	4.194900e+01	3.719958e+00	2.540003e+05	1.013106e+05	2.881122e+02	1.010344e-01	-2.034862e-02	0.000000e+00	
6.896552e-02	1.155063e+00	1.224964e+00	4.194961e+01	3.720094e+00	2.540004e+05	1.013106e+05	2.881122e+02	1.010359e-01	-2.034051e-02	0.000000e+00	
6.896552e-02	1.123418e+00	1.224964e+00	4.195018e+01	3.720146e+00	2.540004e+05	1.013106e+05	2.881122e+02	1.010373e-01	-2.034522e-02	0.000000e+00	
6.896552e-02	1.091772e+00	1.224964e+00	4.195059e+01	3.720189e+00	2.540004e+05	1.013106e+05	2.881122e+02	1.010383e-01	-2.034406e-02	0.000000e+00	
6.896552e-02	1.060127e+00	1.224964e+00	4.195083e+01	3.720204e+00	2.540004e+05	1.013106e+05	2.881122e+02	1.010389e-01	-2.034558e-02	0.000000e+00	
6.896552e-02	1.028481e+00	1.224964e+00	4.195093e+01	3.720208e+00	2.540004e+05	1.013106e+05	2.881122e+02	1.010391e-01	-2.034595e-02	0.000000e+00	
6.896552e-02	9.968354e-01	1.224964e+00	4.195095e+01	3.720203e+00	2.540004e+05	1.013106e+05	2.881122e+02	1.010392e-01	-2.034705e-02	0.000000e+00	
6.896552e-02	9.651899e-01	1.224964e+00	4.195093e+01	3.720197e+00	2.540004e+05	1.013106e+05	2.881122e+02	1.010391e-01	-2.034787e-02	0.000000e+00	
6.896552e-02	9.335443e-01	1.224964e+00	4.195091e+01	3.720190e+00	2.540004e+05	1.013106e+05	2.881122e+02	1.010391e-01	-2.034888e-02	0.000000e+00	
6.896552e-02	9.018987e-01	1.224964e+00	4.195089e+01	3.720185e+00	2.540004e+05	1.013106e+05	2.881122e+02	1.010390e-01	-2.034980e-02	0.000000e+00	
6.896552e-02	8.702532e-01	1.224964e+00	4.195089e+01	3.720182e+00	2.540004e+05	1.013106e+05	2.881122e+02	1.010390e-01	-2.035077e-02	0.000000e+00	
6.896552e-02	8.386076e-01	1.224964e+00	4.195090e+01	3.720181e+00	2.540004e+05	1.013106e+05	2.881122e+02	1.010390e-01	-2.035169e-02	0.000000e+00	
6.896552e-02	8.069620e-01	1.224964e+00	4.195091e+01	3.720181e+00	2.540004e+05	1.013106e+05	2.881122e+02	1.010391e-01	-2.035261e-02	0.000000e+00	
6.896552e-02	7.753165e-01	1.224964e+00	4.195093e+01	3.720183e+00	2.540004e+05	1.013106e+05	2.881122e+02	1.010391e-01	-2.035349e-02	0.000000e+00	
6.896552e-02	7.436709e-01	1.224964e+00	4.195095e+01	3.720185e+00	2.540004e+05	1.013106e+05	2.881122e+02	1.010391e-01	-2.035434e-02	0.000000e+00	
6.896552e-02	7.120253e-01	1.224964e+00	4.195096e+01	3.720188e+00	2.540004e+05	1.013106e+05	2.881122e+02	1.010392e-01	-2.035516e-02	0.000000e+00	
6.896552e-02	6.803797e-01	1.224964e+00	4.195097e+01	3.720191e+00	2.540004e+05	1.013106e+05	2.881122e+02	1.010392e-01	-2.035594e-02	0.000000e+00	
6.896552e-02	6.487342e-01	1.224964e+00	4.195098e+01	3.720195e+00	2.540004e+05	1.013106e+05	2.881122e+02	1.010392e-01	-2.035669e-02	0.000000e+00	
6.896552e-02	6.170886e-01	1.224964e+00	4.195099e+01	3.720198e+00	2.540004e+05	1.013106e+05	2.881122e+02	1.010393e-01	-2.035740e-02	0.000000e+00	
6.896552e-02	5.854430e-01	1.224964e+00	4.195100e+01	3.720201e+00	2.540004e+05	1.013106e+05	2.881122e+02	1.010393e-01	-2.035807e-02	0.000000e+00	
6.896552e-02	5.537975e-01	1.224964e+00	4.195101e+01	3.720205e+00	2.540004e+05	1.013106e+05	2.881122e+02	1.010393e-01	-2.035872e-02	0.000000e+00	
6.896552e-02	5.221519e-01	1.224964e+00	4.195102e+01	3.720209e+00	2.540004e+05	1.013106e+05	2.881122e+02	1.010393e-01	-2.035933e-02	0.000000e+00	
6.896552e-02	4.905063e-01	1.224964e+00	4.195103e+01	3.720213e+00	2.540004e+05	1.013106e+05	2.881122e+02	1.010394e-01	-2.035992e-02	0.000000e+00	
6.896552e-02	4.588608e-01	1.224964e+00	4.195104e+01	3.720216e+00	2.540004e+05	1.013106e+05	2.881122e+02	1.010394e-01	-2.036047e-02	0.000000e+00	
6.896552e-02	4.272152e-01	1.224964e+00	4.195105e+01	3.720220e+00	2.540004e+05	1.013106e+05	2.881122e+02	1.010394e-01	-2.036101e-02	0.000000e+00	
6.896552e-02	3.955696e-01	1.224964e+00	4.195106e+01	3.720225e+00	2.540004e+05	1.013106e+05	2.881122e+02	1.010394e-01	-2.036151e-02	0.000000e+00	
6.896552e-02	3.639241e-01	1.224964e+00	4.195107e+01	3.720229e+00	2.540004e+05	1.013106e+05	2.881122e+02	1.010394e-01	-2.036200e-02	0.000000e+00	
6.896552e-02	3.322785e-01	1.224964e+00	4.195107e+01	3.720233e+00	2.540004e+05	1.013106e+05	2.881122e+02	1.010395e-01	-2.036246e-02	0.000000e+00	
6.896552e-02	3.006329e-01	1.224964e+00	4.195108e+01	3.720238e+00	2.540004e+05	1.013106e+05	2.881122e+02	1.010395e-01	-2.036290e-02	0.000000e+00	
6.896552e-02	2.689873e-01	1.224964e+00	4.195109e+01	3.720242e+00	2.540004e+05	1.013106e+05	2.881122e+02	1.010395e-01	-2.036332e-02	0.000000e+00	
6.896552e-02	2.373418e-01	1.224964e+00	4.195110e+01	3.720247e+00	2.540004e+05	1.013106e+05	2.881122e+02	1.010395e-01	-2.036371e-02	0.000000e+00	
6.896552e-02	2.056962e-01	1.224964e+00	4.195110e+01	3.720252e+00	2.540004e+05	1.013106e+05	2.881122e+02	1.010395e-01	-2.036409e-02	0.000000e+00	
6.896552e-02	1.740506e-01	1.224964e+00	4.195111e+01	3.720256e+00	2.540004e+05	1.013106e+05	2.881122e+02	1.010396e-01	-2.036444e-02	0.000000e+00	
6.896552e-02	1.424051e-01	1.224964e+00	4.195112e+01	3.720262e+00	2.540004e+05	1.013106e+05	2.881122e+02	1.010396e-01	-2.036478e-02	0.000000e+00	
6.896552e-02	1.107595e-01	1.224964e+00	4.195112e+01	3.720267e+00	2.540004e+05	1.013106e+05	2.881122e+02	1.010396e-01	-2.036509e-02	0.000000e+00	
6.896552e-02	7.911392e-02	1.224964e+00	4.195113e+01	3.720272e+00	2.540004e+05	1.013106e+05	2.881122e+02	1.010396e-01	-2.036539e-02	0.000000e+00	
6.896552e-02	4.746835e-02	1.224964e+00	4.195114e+01	3.720278e+00	2.540004e+05	1.013106e+05	2.881122e+02	1.010396e-01	-2.036566e-02	0.000000e+00	
6.896552e-02	1.582278e-02	1.224964e+00	4.195114e+01	3.720283e+00	2.540004e+05	1.013106e+05	2.881122e+02	1.010396e-01	-2.036591e-02	0.000000e+00	
6.896552e-02	-1.582278e-02	1.224964e+00	4.195115e+01	3.720289e+00	2.540004e+05	1.013106e+05	2.881122e+02	1.010397e-01	-2.036614e-02	0.000000e+00	
6.896552e-02	-4.746835e-02	1.224964e+00	4.195115e+01	3.720295e+00	2.540004e+05	1.013106e+05	2.881122e+02	1.010397e-01	-2.036634e-02	0.000000e+00	
6.896552e-02	-7.911392e-02	1.224964e+00	4.195116e+01	3.720302e+00	2.540004e+05	1.013106e+05	2.881122e+02	1.010397e-01	-2.036653e-02	0.000000e+00	
6.896552e-02	-1.107595e-01	1.224964e+00	4.195116e+01	3.720308e+00	2.540004e+05	1.013106e+05	2.881122e+02	1.010397e-01	-2.036668e-02	0.000000e+00	
6.896552e-02	-1.424051e-01	1.224964e+00	4.195117e+01	3.720315e+00	2.540004e+05	1.013106e+05	2.881122e+02	1.010397e-01	-2.036681e-02	0.000000e+00	
6.896552e-02	-1.740506e-01	1.224964e+00	4.195117e+01	3.720321e+00	2.540004e+05	1.013106e+05	2.881122e+02	1.010397e-01	-2.036692e-02	0.000000e+00	