TITLE = "Visualization of the volumetric solution"
VARIABLES = "x","y","Density","Momentum_x","Momentum_y","Energy","Pressure","Temperature","Mach","C<sub>p</sub>","Roe_Dissipation"
ZONE NODES= 3200, ELEMENTS= 3081, DATAPACKING=POINT, ZONETYPE=FEQUADRILATERAL
1.000000e+00	1.250000e+00	1.224813e+00	4.195138e+01	7.396368e+00	2.539734e+05	1.012931e+05	2.880980e+02	1.022126e-01	-4.502242e-02	0.000000e+00	
1.000000e+00	1.218354e+00	1.224813e+00	4.195217e+01	7.396404e+00	2.539735e+05	1.012931e+05	2.880980e+02	1.022145e-01	-4.503299e-02	0.000000e+00	
1.051282e+00	1.218354e+00	1.224812e+00	4.195246e+01	7.396222e+00	2.539733e+05	1.012930e+05	2.880980e+02	1.022152e-01	-4.513035e-02	0.000000e+00	
1.051282e+00	1.250000e+00	1.224812e+00	4.195166e+01	7.396199e+00	2.539733e+05	1.012930e+05	2.880980e+02	1.022133e-01	-4.511912e-02	0.000000e+00	
1.000000e+00	1.186709e+00	1.224813e+00	4.195277e+01	7.396469e+00	2.539735e+05	1.012931e+05	2.880980e+02	1.022160e-01	-4.502989e-02	0.000000e+00	
1.051282e+00	1.186709e+00	1.224812e+00	4.195304e+01	7.396289e+00	2.539733e+05	1.012930e+05	2.880980e+02	1.022166e-01	-4.512458e-02	0.000000e+00	
1.000000e+00	1.155063e+00	1.224813e+00	4.195307e+01	7.396504e+00	2.539735e+05	1.012931e+05	2.880980e+02	1.022167e-01	-4.503321e-02	0.000000e+00	
1.051282e+00	1.155063e+00	1.224812e+00	4.195331e+01	7.396316e+00	2.539733e+05	1.012930e+05	2.880980e+02	1.022172e-01	-4.512898e-02	0.000000e+00	
1.000000e+00	1.123418e+00	1.224813e+00	4.195312e+01	7.396527e+00	2.539735e+05	1.012931e+05	2.880980e+02	1.022168e-01	-4.503312e-02	0.000000e+00	
1.051282e+00	1.123418e+00	1.224812e+00	4.195333e+01	7.396337e+00	2.539733e+05	1.012930e+05	2.880980e+02	1.022173e-01	-4.512761e-02	0.000000e+00	
1.000000e+00	1.091772e+00	1.224813e+00	4.195304e+01	7.396534e+00	2.539735e+05	1.012931e+05	2.880980e+02	1.022166e-01	-4.503496e-02	0.000000e+00	
1.051282e+00	1.091772e+00	1.224812e+00	4.195324e+01	7.396339e+00	2.539733e+05	1.012930e+05	2.880980e+02	1.022171e-01	-4.512954e-02	0.000000e+00	
1.000000e+00	1.060127e+00	1.224813e+00	4.195294e+01	7.396536e+00	2.539735e+05	1.012931e+05	2.880980e+02	1.022164e-01	-4.503578e-02	0.000000e+00	
1.051282e+00	1.060127e+00	1.224812e+00	4.195313e+01	7.396340e+00	2.539733e+05	1.012930e+05	2.880980e+02	1.022168e-01	-4.512964e-02	0.000000e+00	
1.000000e+00	1.028481e+00	1.224813e+00	4.195286e+01	7.396536e+00	2.539735e+05	1.012931e+05	2.880980e+02	1.022162e-01	-4.503710e-02	0.000000e+00	
1.051282e+00	1.028481e+00	1.224812e+00	4.195305e+01	7.396338e+00	2.539733e+05	1.012930e+05	2.880980e+02	1.022166e-01	-4.513082e-02	0.000000e+00	
1.000000e+00	9.968354e-01	1.224813e+00	4.195281e+01	7.396537e+00	2.539735e+05	1.012931e+05	2.880980e+02	1.022161e-01	-4.503793e-02	0.000000e+00	
1.051282e+00	9.968354e-01	1.224812e+00	4.195301e+01	7.396340e+00	2.539733e+05	1.012930e+05	2.880980e+02	1.022165e-01	-4.513135e-02	0.000000e+00	
1.000000e+00	9.651899e-01	1.224813e+00	4.195279e+01	7.396539e+00	2.539735e+05	1.012931e+05	2.880980e+02	1.022161e-01	-4.503884e-02	0.000000e+00	
1.051282e+00	9.651899e-01	1.224812e+00	4.195299e+01	7.396343e+00	2.539733e+05	1.012930e+05	2.880980e+02	1.022165e-01	-4.513220e-02	0.000000e+00	
1.000000e+00	9.335443e-01	1.224813e+00	4.195279e+01	7.396543e+00	2.539735e+05	1.012931e+05	2.880980e+02	1.022161e-01	-4.503952e-02	0.000000e+00	
1.051282e+00	9.335443e-01	1.224812e+00	4.195300e+01	7.396348e+00	2.539733e+05	1.012930e+05	2.880980e+02	1.022165e-01	-4.513280e-02	0.000000e+00	
1.000000e+00	9.018987e-01	1.224813e+00	4.195281e+01	7.396548e+00	2.539735e+05	1.012931e+05	2.880980e+02	1.022161e-01	-4.504021e-02	0.000000e+00	
1.051282e+00	9.018987e-01	1.224812e+00	4.195301e+01	7.396354e+00	2.539733e+05	1.012930e+05	2.880980e+02	1.022166e-01	-4.513349e-02	0.000000e+00	
1.000000e+00	8.702532e-01	1.224813e+00	4.195282e+01	7.396553e+00	2.539735e+05	1.012931e+05	2.880980e+02	1.022161e-01	-4.504082e-02	0.000000e+00	
1.051282e+00	8.702532e-01	1.224812e+00	4.195302e+01	7.396360e+00	2.539733e+05	1.012930e+05	2.880980e+02	1.022166e-01	-4.513407e-02	0.000000e+00	
1.000000e+00	8.386076e-01	1.224813e+00	4.195283e+01	7.396558e+00	2.539735e+05	1.012931e+05	2.880980e+02	1.022162e-01	-4.504142e-02	0.000000e+00	
1.051282e+00	8.386076e-01	1.224812e+00	4.195303e+01	7.396366e+00	2.539733e+05	1.012930e+05	2.880980e+02	1.022166e-01	-4.513467e-02	0.000000e+00	
1.000000e+00	8.069620e-01	1.224813e+00	4.195284e+01	7.396562e+00	2.539735e+05	1.012931e+05	2.880980e+02	1.022162e-01	-4.504199e-02	0.000000e+00	
1.051282e+00	8.069620e-01	1.224812e+00	4.195304e+01	7.396371e+00	2.539733e+05	1.012930e+05	2.880980e+02	1.022166e-01	-4.513521e-02	0.000000e+00	
1.000000e+00	7.753165e-01	1.224813e+00	4.195285e+01	7.396566e+00	2.539735e+05	1.012931e+05	2.880980e+02	1.022162e-01	-4.504253e-02	0.000000e+00	
1.051282e+00	7.753165e-01	1.224812e+00	4.195305e+01	7.396375e+00	2.539733e+05	1.012930e+05	2.880980e+02	1.022167e-01	-4.513574e-02	0.000000e+00	
1.000000e+00	7.436709e-01	1.224813e+00	4.195286e+01	7.396569e+00	2.539735e+05	1.012931e+05	2.880980e+02	1.022162e-01	-4.504305e-02	0.000000e+00	
1.051282e+00	7.436709e-01	1.224812e+00	4.195306e+01	7.396379e+00	2.539733e+05	1.012930e+05	2.880980e+02	1.022167e-01	-4.513624e-02	0.000000e+00	
1.000000e+00	7.120253e-01	1.224813e+00	4.195287e+01	7.396572e+00	2.539735e+05	1.012931e+05	2.880980e+02	1.022163e-01	-4.504354e-02	0.000000e+00	
1.051282e+00	7.120253e-01	1.224812e+00	4.195306e+01	7.396382e+00	2.539733e+05	1.012930e+05	2.880980e+02	1.022167e-01	-4.513671e-02	0.000000e+00	
1.000000e+00	6.803797e-01	1.224813e+00	4.195287e+01	7.396574e+00	2.539735e+05	1.012931e+05	2.880980e+02	1.022163e-01	-4.504401e-02	0.000000e+00	
1.051282e+00	6.803797e-01	1.224812e+00	4.195307e+01	7.396385e+00	2.539733e+05	1.012930e+05	2.880980e+02	1.022167e-01	-4.513717e-02	0.000000e+00	
1.000000e+00	6.487342e-01	1.224813e+00	4.195288e+01	7.396577e+00	2.539735e+05	1.012931e+05	2.880980e+02	1.022163e-01	-4.504446e-02	0.000000e+00	
1.051282e+00	6.487342e-01	1.224812e+00	4.195308e+01	7.396388e+00	2.539733e+05	1.012930e+05	2.880980e+02	1.022167e-01	-4.513760e-02	0.000000e+00	
1.000000e+00	6.170886e-01	1.224813e+00	4.195289e+01	7.396579e+00	2.539735e+05	1.012931e+05	2.880980e+02	1.022163e-01	-4.504488e-02	0.000000e+00	
1.051282e+00	6.170886e-01	1.224812e+00	4.195308e+01	7.396391e+00	2.539733e+05	1.012930e+05	2.880980e+02	1.022167e-01	-4.513801e-02	0.000000e+00	
1.000000e+00	5.854430e-01	1.224813e+00	4.195289e+01	7.396582e+00	2.539735e+05	1.012931e+05	2.880980e+02	1.022163e-01	-4.504528e-02	0.000000e+00	
1.051282e+00	5.854430e-01	1.224812e+00	4.195309e+01	7.396394e+00	2.539733e+05	1.012930e+05	2.880980e+02	1.022168e-01	-4.513840e-02	0.000000e+00	
1.000000e+00	5.537975e-01	1.224813e+00	4.195290e+01	7.396584e+00	2.539735e+05	1.012931e+05	2.880980e+02	1.022163e-01	-4.504567e-02	0.000000e+00	
1.051282e+00	5.537975e-01	1.224812e+00	4.195310e+01	7.396397e+00	2.539733e+05	1.012930e+05	2.880980e+02	1.022168e-01	-4.513878e-02	0.000000e+00	
1.000000e+00	5.221519e-01	1.224813e+00	4.195291e+01	7.396586e+00	2.539735e+05	1.012930e+05	2.880980e+02	1.022164e-01	-4.504603e-02	0.000000e+00	
1.051282e+00	5.221519e-01	1.224812e+00	4.195310e+01	7.396400e+00	2.539733e+05	1.012930e+05	2.880980e+02	1.022168e-01	-4.513913e-02	0.000000e+00	
1.000000e+00	4.905063e-01	1.224813e+00	4.195291e+01	7.396589e+00	2.539735e+05	1.012930e+05	2.880980e+02	1.022164e-01	-4.504638e-02	0.000000e+00	
1.051282e+00	4.905063e-01	1.224812e+00	4.195311e+01	7.396403e+00	2.539733e+05	1.012930e+05	2.880980e+02	1.022168e-01	-4.513946e-02	0.000000e+00	
1.000000e+00	4.588608e-01	1.224813e+00	4.195292e+01	7.396591e+00	2.539735e+05	1.012930e+05	2.880980e+02	1.022164e-01	-4.504671e-02	0.000000e+00	
1.051282e+00	4.588608e-01	1.224812e+00	4.195312e+01	7.396406e+00	2.539733e+05	1.012930e+05	2.880980e+02	1.022168e-01	-4.513978e-02	0.000000e+00	
1.000000e+00	4.272152e-01	1.224813e+00	4.195293e+01	7.396594e+00	2.539735e+05	1.012930e+05	2.880980e+02	1.022164e-01	-4.504702e-02	0.000000e+00	
1.051282e+00	4.272152e-01	1.224812e+00	4.195312e+01	7.396409e+00	2.539733e+05	1.012930e+05	2.880980e+02	1.022169e-01	-4.514008e-02	0.000000e+00	
1.000000e+00	3.955696e-01	1.224813e+00	4.195293e+01	7.396596e+00	2.539735e+05	1.012930e+05	2.880980e+02	1.022164e-01	-4.504731e-02	0.000000e+00	
1.051282e+00	3.955696e-01	1.224812e+00	4.195313e+01	7.396412e+00	2.539733e+05	1.012930e+05	2.880980e+02	1.022169e-01	-4.514036e-02	0.000000e+00	
1.000000e+00	3.639241e-01	1.224813e+00	4.195294e+01	7.396598e+00	2.539735e+05	1.012930e+05	2.880980e+02	1.022164e-01	-4.504759e-02	0.000000e+00	
1.051282e+00	3.639241e-01	1.224812e+00	4.195314e+01	7.396415e+00	2.539733e+05	1.012930e+05	2.880980e+02	1.022169e-01	-4.514062e-02	0.000000e+00	
1.000000e+00	3.322785e-01	1.224813e+00	4.195295e+01	7.396601e+00	2.539735e+05	1.012930e+05	2.880980e+02	1.022165e-01	-4.504784e-02	0.000000e+00	
1.051282e+00	3.322785e-01	1.224812e+00	4.195315e+01	7.396418e+00	2.539733e+05	1.012930e+05	2.880980e+02	1.022169e-01	-4.514086e-02	0.000000e+00	
1.000000e+00	3.006329e-01	1.224813e+00	4.195296e+01	7.396603e+00	2.539735e+05	1.012930e+05	2.880980e+02	1.022165e-01	-4.504808e-02	0.000000e+00	
1.051282e+00	3.006329e-01	1.224812e+00	4.195315e+01	7.396421e+00	2.539733e+05	1.012930e+05	2.880980e+02	1.022169e-01	-4.514109e-02	0.000000e+00	
1.000000e+00	2.689873e-01	1.224813e+00	4.195296e+01	7.396606e+00	2.539735e+05	1.012930e+05	2.880980e+02	1.022165e-01	-4.504830e-02	0.000000e+00	
1.051282e+00	2.689873e-01	1.224812e+00	4.195316e+01	7.396424e+00	2.539733e+05	1.012930e+05	2.880980e+02	1.022169e-01	-4.514130e-02	0.000000e+00	
1.000000e+00	2.373418e-01	1.224813e+00	4.195297e+01	7.396608e+00	2.539735e+05	1.012930e+05	2.880980e+02	1.022165e-01	-4.504850e-02	0.000000e+00	
1.051282e+00	2.373418e-01	1.224812e+00	4.195317e+01	7.396427e+00	2.539733e+05	1.012930e+05	2.880980e+02	1.022170e-01	-4.514149e-02	0.000000e+00	
1.000000e+00	2.056962e-01	1.224813e+00	4.195298e+01	7.396611e+00	2.539735e+05	1.012930e+05	2.880980e+02	1.022165e-01	-4.504868e-02	0.000000e+00	
1.051282e+00	2.056962e-01	1.224812e+00	4.195318e+01	7.396430e+00	2.539733e+05	1.012930e+05	2.880980e+02	1.022170e-01	-4.514166e-02	0.000000e+00	
1.000000e+00	1.740506e-01	1.224813e+00	4.195299e+01	7.396613e+00	2.539735e+05	1.012930e+05	2.880980e+02	1.022166e-01	-4.504885e-02	0.000000e+00	
1.051282e+00	1.740506e-01	1.224812e+00	4.195318e+01	7.396433e+00	2.539733e+05	1.012930e+05	2.880980e+02	1.022170e-01	-4.514182e-02	0.000000e+00	
1.000000e+00	1.424051e-01	1.224813e+00	4.195299e+01	7.396615e+00	2.539735e+05	1.012930e+05	2.880980e+02	1.022166e-01	-4.504899e-02	0.000000e+00	
1.051282e+00	1.424051e-01	1.224812e+00	4.195319e+01	7.396436e+00	2.539733e+05	1.012930e+05	2.880980e+02	1.022170e-01	-4.514195e-02	0.000000e+00	
1.000000e+00	1.107595e-01	1.224813e+00	4.195300e+01	7.396618e+00	2.539735e+05	1.012930e+05	2.880980e+02	1.022166e-01	-4.504912e-02	0.000000e+00	
1.051282e+00	1.107595e-01	1.224812e+00	4.195320e+01	7.396439e+00	2.539733e+05	1.012930e+05	2.880980e+02	1.022170e-01	-4.514207e-02	0.000000e+00	
1.000000e+00	7.911392e-02	1.224813e+00	4.195301e+01	7.396620e+00	2.539735e+05	1.012930e+05	2.880980e+02	1.022166e-01	-4.504923e-02	0.000000e+00	
1.051282e+00	7.911392e-02	1.224812e+00	4.195320e+01	7.396442e+00	2.539733e+05	1.012930e+05	2.880980e+02	1.022171e-01	-4.514216e-02	0.000000e+00	
1.000000e+00	4.746835e-02	1.224813e+00	4.195301e+01	7.396623e+00	2.539735e+05	1.012930e+05	2.880980e+02	1.022166e-01	-4.504931e-02	0.000000e+00	
1.051282e+00	4.746835e-02	1.224812e+00	4.195321e+01	7.396445e+00	2.539733e+05	1.012930e+05	2.880980e+02	1.022171e-01	-4.514224e-02	0.000000e+00	
1.000000e+00	1.582278e-02	1.224813e+00	4.195302e+01	7.396625e+00	2.539735e+05	1.012930e+05	2.880980e+02	1.022166e-01	-4.504938e-02	0.000000e+00	
1.051282e+00	1.582278e-02	1.224812e+00	4.195322e+01	7.396448e+00	2.539733e+05	1.012930e+05	2.880980e+02	1.022171e-01	-4.514230e-02	0.000000e+00	
1.000000e+00	-1.582278e-02	1.224813e+00	4.195303e+01	7.396628e+00	2.539735e+05	1.012930e+05	2.880980e+02	1.022167e-01	-4.504943e-02	0.000000e+00	
1.051282e+00	-1.582278e-02	1.224812e+00	4.195322e+01	7.396451e+00	2.539733e+05	1.012930e+05	2.880980e+02	1.022171e-01	-4.514234e-02	0.000000e+00	
1.000000e+00	-4.746835e-02	1.224813e+00	4.195303e+01	7.396630e+00	2.539735e+05	1.012930e+05	2.880980e+02	1.022167e-01	-4.504945e-02	0.000000e+00	
1.051282e+00	-4.746835e-02	1.224812e+00	4.195323e+01	7.396454e+00	2.539733e+05	1.012930e+05	2.880980e+02	1.022171e-01	-4.514236e-02	0.000000e+00	
1.000000e+00	-7.911392e-02	1.224813e+00	4.195304e+01	7.396632e+00	2.539735e+05	1.012930e+05	2.880980e+02	1.022167e-01	-4.504946e-02	0.000000e+00	
1.051282e+00	-7.911392e-02	1.224812e+00	4.195323e+01	7.396457e+00	2.539733e+05	1.012930e+05	2.880980e+02	1.022171e-01	-4.514236e-02	0.000000e+00	
1.000000e+00	-1.107595e-01	1.224813e+00	4.195304e+01	7.396635e+00	2.539735e+05	1.012930e+05	2.880980e+02	1.022167e-01	-4.504945e-02	0.000000e+00	
1.051282e+00	-1.107595e-01	1.224812e+00	4.195324e+01	7.396460e+00	2.539733e+05	1.012930e+05	2.880980e+02	1.022171e-01	-4.514234e-02	0.000000e+00	
1.000000e+00	-1.424051e-01	1.224813e+00	4.195305e+01	7.396637e+00	2.539735e+05	1.012930e+05	2.880980e+02	1.022167e-01	-4.504941e-02	0.000000e+00	
1.051282e+00	-1.424051e-01	1.224812e+00	4.195324e+01	7.396463e+00	2.539733e+05	1.012930e+05	2.880980e+02	1.022172e-01	-4.514230e-02	0.000000e+00	
1.000000e+00	-1.740506e-01	1.224813e+00	4.195305e+01	7.396639e+00	2.539735e+05	1.012930e+05	2.880980e+02	1.022167e-01	-4.504935e-02	0.000000e+00	
1.051282e+00	-1.740506e-01	1.224812e+00	4.195325e+01	7.396466e+00	2.539733e+05	1.012930e+05	2.880980e+02	1.022172e-01	-4.514223e-02	0.000000e+00	
1.000000e+00	-2.056962e-01	1.224813e+00	4.195306e+01	7.396641e+00	2.539735e+05	1.012930e+05	2.880980e+02	1.022167e-01	-4.504927e-02	0.000000e+00	
1.051282e+00	-2.056962e-01	1.224812e+00	4.195325e+01	7.396469e+00	2.539733e+05	1.012930e+05	2.880980e+02	1.022172e-01	-4.514215e-02	0.000000e+00	
1.000000e+00	-2.373418e-01	1.224813e+00	4.195306e+01	7.396644e+00	2.539735e+05	1.012930e+05	2.880980e+02	1.022167e-01	-4.504917e-02	0.000000e+00	
1.051282e+00	-2.373418e-01	1.224812e+00	4.195325e+01	7.396472e+00	2.539733e+05	1.012930e+05	2.880980e+02	1.022172e-01	-4.514204e-02	0.000000e+00	
1.000000e+00	-2.689873e-01	1.224813e+00	4.195306e+01	7.396646e+00	2.539735e+05	1.012930e+05	2.880980e+02	1.022167e-01	-4.504905e-02	0.000000e+00	
1.051282e+00	-2.689873e-01	1.224812e+00	4.195326e+01	7.396475e+00	2.539733e+05	1.012930e+05	2.880980e+02	1.022172e-01	-4.514191e-02	0.000000e+00	
1.000000e+00	-3.006329e-01	1.224813e+00	4.195306e+01	7.396648e+00	2.539735e+05	1.012930e+05	2.880980e+02	1.022167e-01	-4.504890e-02	0.000000e+00	
1.051282e+00	-3.006329e-01	1.224812e+00	4.195326e+01	7.396477e+00	2.539733e+05	1.012930e+05	2.880980e+02	1.022172e-01	-4.514176e-02	0.000000e+00	
1.000000e+00	-3.322785e-01	1.224813e+00	4.195306e+01	7.396650e+00	2.539735e+05	1.012930e+05	2.880980e+02	1.022168e-01	-4.504872e-02	0.000000e+00	
1.051282e+00	-3.322785e-01	1.224812e+00	4.195326e+01	7.396480e+00	2.539733e+05	1.012930e+05	2.880980e+02	1.022172e-01	-4.514159e-02	0.000000e+00	
1.000000e+00	-3.639241e-01	1.224813e+00	4.195307e+01	7.396652e+00	2.539735e+05	1.012930e+05	2.880980e+02	1.022168e-01	-4.504852e-02	0.000000e+00	
1.051282e+00	-3.639241e-01	1.224812e+00	4.195326e+01	7.396483e+00	2.539733e+05	1.012930e+05	2.880980e+02	1.022172e-01	-4.514139e-02	0.000000e+00	
1.000000e+00	-3.955696e-01	1.224813e+00	4.195307e+01	7.396654e+00	2.539735e+05	1.012930e+05	2.880980e+02	1.022168e-01	-4.504830e-02	0.000000e+00	
1.051282e+00	-3.955696e-01	1.224812e+00	4.195326e+01	7.396486e+00	2.539733e+05	1.012930e+05	2.880980e+02	1.022172e-01	-4.514117e-02	0.000000e+00	
1.000000e+00	-4.272152e-01	1.224813e+00	4.195306e+01	7.396656e+00	2.539735e+05	1.012930e+05	2.880980e+02	1.022168e-01	-4.504804e-02	0.000000e+00	
1.051282e+00	-4.272152e-01	1.224812e+00	4.195326e+01	7.396489e+00	2.539733e+05	1.012930e+05	2.880980e+02	1.022172e-01	-4.514092e-02	0.000000e+00	
1.000000e+00	-4.588608e-01	1.224813e+00	4.195306e+01	7.396657e+00	2.539735e+05	1.012930e+05	2.880980e+02	1.022168e-01	-4.504776e-02	0.000000e+00	
1.051282e+00	-4.588608e-01	1.224812e+00	4.195326e+01	7.396491e+00	2.539733e+05	1.012930e+05	2.880980e+02	1.022172e-01	-4.514065e-02	0.000000e+00	
1.000000e+00	-4.905063e-01	1.224813e+00	4.195306e+01	7.396659e+00	2.539735e+05	1.012930e+05	2.880980e+02	1.022167e-01	-4.504745e-02	0.000000e+00	
1.051282e+00	-4.905063e-01	1.224812e+00	4.195325e+01	7.396493e+00	2.539733e+05	1.012930e+05	2.880980e+02	1.022172e-01	-4.514036e-02	0.000000e+00	
1.000000e+00	-5.221519e-01	1.224813e+00	4.195305e+01	7.396659e+00	2.539735e+05	1.012930e+05	2.880980e+02	1.022167e-01	-4.504712e-02	0.000000e+00	
1.051282e+00	-5.221519e-01	1.224812e+00	4.195324e+01	7.396495e+00	2.539733e+05	1.012930e+05	2.880980e+02	1.022172e-01	-4.514003e-02	0.000000e+00	
1.000000e+00	-5.537975e-01	1.224813e+00	4.195304e+01	7.396660e+00	2.539735e+05	1.012930e+05	2.880980e+02	1.022167e-01	-4.504677e-02	0.000000e+00	
1.051282e+00	-5.537975e-01	1.224812e+00	4.195323e+01	7.396496e+00	2.539733e+05	1.012930e+05	2.880980e+02	1.022171e-01	-4.513968e-02	0.000000e+00	
1.000000e+00	-5.854430e-01	1.224813e+00	4.195303e+01	7.396660e+00	2.539735e+05	1.012930e+05	2.880980e+02	1.022167e-01	-4.504640e-02	0.000000e+00	
1.051282e+00	-5.854430e-01	1.224812e+00	4.195322e+01	7.396497e+00	2.539733e+05	1.012930e+05	2.880980e+02	1.022171e-01	-4.513930e-02	0.000000e+00	
1.000000e+00	-6.170886e-01	1.224813e+00	4.195302e+01	7.396661e+00	2.539735e+05	1.012931e+05	2.880980e+02	1.022167e-01	-4.504600e-02	0.000000e+00	
1.051282e+00	-6.170886e-01	1.224812e+00	4.195322e+01	7.396500e+00	2.539733e+05	1.012930e+05	2.880980e+02	1.022171e-01	-4.513888e-02	0.000000e+00	
1.000000e+00	-6.487342e-01	1.224813e+00	4.195302e+01	7.396665e+00	2.539735e+05	1.012931e+05	2.880980e+02	1.022167e-01	-4.504554e-02	0.000000e+00	
1.051282e+00	-6.487342e-01	1.224812e+00	4.195323e+01	7.396505e+00	2.539733e+05	1.012930e+05	2.880980e+02	1.022171e-01	-4.513843e-02	0.000000e+00	
1.000000e+00	-6.803797e-01	1.224813e+00	4.195304e+01	7.396671e+00	2.539735e+05	1.012931e+05	2.880980e+02	1.022167e-01	-4.504502e-02	0.000000e+00	
1.051282e+00	-6.803797e-01	1.224812e+00	4.195324e+01	7.396513e+00	2.539733e+05	1.012930e+05	2.880980e+02	1.022172e-01	-4.513795e-02	0.000000e+00	
1.000000e+00	-7.120253e-01	1.224813e+00	4.195307e+01	7.396682e+00	2.539735e+05	1.012931e+05	2.880980e+02	1.022168e-01	-4.504441e-02	0.000000e+00	
1.051282e+00	-7.120253e-01	1.224812e+00	4.195328e+01	7.396526e+00	2.539733e+05	1.012930e+05	2.880980e+02	1.022173e-01	-4.513745e-02	0.000000e+00	
1.000000e+00	-7.436709e-01	1.224813e+00	4.195311e+01	7.396696e+00	2.539735e+05	1.012931e+05	2.880980e+02	1.022169e-01	-4.504369e-02	0.000000e+00	
1.051282e+00	-7.436709e-01	1.224812e+00	4.195332e+01	7.396540e+00	2.539733e+05	1.012930e+05	2.880980e+02	1.022174e-01	-4.513694e-02	0.000000e+00	
1.000000e+00	-7.753165e-01	1.224813e+00	4.195315e+01	7.396710e+00	2.539735e+05	1.012931e+05	2.880980e+02	1.022170e-01	-4.504288e-02	0.000000e+00	
1.051282e+00	-7.753165e-01	1.224812e+00	4.195336e+01	7.396553e+00	2.539733e+05	1.012930e+05	2.880980e+02	1.022175e-01	-4.513641e-02	0.000000e+00	
1.000000e+00	-8.069620e-01	1.224813e+00	4.195316e+01	7.396720e+00	2.539735e+05	1.012931e+05	2.880980e+02	1.022170e-01	-4.504200e-02	0.000000e+00	
1.051282e+00	-8.069620e-01	1.224812e+00	4.195336e+01	7.396560e+00	2.539733e+05	1.012930e+05	2.880980e+02	1.022175e-01	-4.513586e-02	0.000000e+00	
1.000000e+00	-8.386076e-01	1.224813e+00	4.195313e+01	7.396718e+00	2.539735e+05	1.012931e+05	2.880980e+02	1.022169e-01	-4.504110e-02	0.000000e+00	
1.051282e+00	-8.386076e-01	1.224812e+00	4.195330e+01	7.396554e+00	2.539733e+05	1.012930e+05	2.880980e+02	1.022173e-01	-4.513532e-02	0.000000e+00	
1.000000e+00	-8.702532e-01	1.224813e+00	4.195300e+01	7.396698e+00	2.539735e+05	1.012931e+05	2.880980e+02	1.022166e-01	-4.504023e-02	0.000000e+00	
1.051282e+00	-8.702532e-01	1.224812e+00	4.195314e+01	7.396527e+00	2.539733e+05	1.012930e+05	2.880980e+02	1.022169e-01	-4.513472e-02	0.000000e+00	
1.000000e+00	-9.018987e-01	1.224813e+00	4.195276e+01	7.396654e+00	2.539735e+05	1.012931e+05	2.880980e+02	1.022160e-01	-4.503949e-02	0.000000e+00	
1.051282e+00	-9.018987e-01	1.224812e+00	4.195285e+01	7.396476e+00	2.539733e+05	1.012930e+05	2.880980e+02	1.022162e-01	-4.513413e-02	0.000000e+00	
1.000000e+00	-9.335443e-01	1.224813e+00	4.195238e+01	7.396583e+00	2.539734e+05	1.012931e+05	2.880980e+02	1.022151e-01	-4.503884e-02	0.000000e+00	
1.051282e+00	-9.335443e-01	1.224812e+00	4.195244e+01	7.396400e+00	2.539733e+05	1.012930e+05	2.880980e+02	1.022152e-01	-4.513342e-02	0.000000e+00	
1.000000e+00	-9.651899e-01	1.224813e+00	4.195189e+01	7.396491e+00	2.539734e+05	1.012931e+05	2.880980e+02	1.022139e-01	-4.503841e-02	0.000000e+00	
1.051282e+00	-9.651899e-01	1.224812e+00	4.195193e+01	7.396304e+00	2.539733e+05	1.012930e+05	2.880980e+02	1.022140e-01	-4.513279e-02	0.000000e+00	
1.000000e+00	-9.968354e-01	1.224813e+00	4.195133e+01	7.396385e+00	2.539734e+05	1.012931e+05	2.880980e+02	1.022125e-01	-4.503793e-02	0.000000e+00	
1.051282e+00	-9.968354e-01	1.224812e+00	4.195136e+01	7.396199e+00	2.539732e+05	1.012930e+05	2.880980e+02	1.022126e-01	-4.513187e-02	0.000000e+00	
1.000000e+00	-1.028481e+00	1.224813e+00	4.195077e+01	7.396283e+00	2.539734e+05	1.012931e+05	2.880980e+02	1.022112e-01	-4.503768e-02	0.000000e+00	
1.051282e+00	-1.028481e+00	1.224812e+00	4.195082e+01	7.396101e+00	2.539732e+05	1.012930e+05	2.880980e+02	1.022113e-01	-4.513135e-02	0.000000e+00	
1.000000e+00	-1.060127e+00	1.224813e+00	4.195029e+01	7.396198e+00	2.539734e+05	1.012931e+05	2.880980e+02	1.022100e-01	-4.503688e-02	0.000000e+00	
1.051282e+00	-1.060127e+00	1.224812e+00	4.195038e+01	7.396022e+00	2.539732e+05	1.012930e+05	2.880980e+02	1.022102e-01	-4.513008e-02	0.000000e+00	
1.000000e+00	-1.091772e+00	1.224813e+00	4.194997e+01	7.396148e+00	2.539734e+05	1.012931e+05	2.880980e+02	1.022092e-01	-4.503658e-02	0.000000e+00	
1.051282e+00	-1.091772e+00	1.224812e+00	4.195012e+01	7.395982e+00	2.539732e+05	1.012930e+05	2.880980e+02	1.022096e-01	-4.513013e-02	0.000000e+00	
1.000000e+00	-1.123418e+00	1.224813e+00	4.194986e+01	7.396138e+00	2.539734e+05	1.012931e+05	2.880980e+02	1.022090e-01	-4.503480e-02	0.000000e+00	
1.051282e+00	-1.123418e+00	1.224812e+00	4.195008e+01	7.395979e+00	2.539732e+05	1.012930e+05	2.880980e+02	1.022095e-01	-4.512796e-02	0.000000e+00	
1.000000e+00	-1.155063e+00	1.224813e+00	4.194997e+01	7.396175e+00	2.539734e+05	1.012931e+05	2.880980e+02	1.022092e-01	-4.503504e-02	0.000000e+00	
1.051282e+00	-1.155063e+00	1.224812e+00	4.195025e+01	7.396024e+00	2.539732e+05	1.012930e+05	2.880980e+02	1.022099e-01	-4.512992e-02	0.000000e+00	
1.000000e+00	-1.186709e+00	1.224813e+00	4.195029e+01	7.396236e+00	2.539734e+05	1.012931e+05	2.880980e+02	1.022100e-01	-4.503086e-02	0.000000e+00	
1.051282e+00	-1.186709e+00	1.224812e+00	4.195060e+01	7.396081e+00	2.539732e+05	1.012930e+05	2.880980e+02	1.022108e-01	-4.512477e-02	0.000000e+00	
1.000000e+00	-1.218354e+00	1.224813e+00	4.195078e+01	7.396327e+00	2.539734e+05	1.012931e+05	2.880980e+02	1.022112e-01	-4.503498e-02	0.000000e+00	
1.051282e+00	-1.218354e+00	1.224812e+00	4.195108e+01	7.396174e+00	2.539732e+05	1.012930e+05	2.880980e+02	1.022119e-01	-4.513256e-02	0.000000e+00	
1.102564e+00	1.218354e+00	1.224812e+00	4.195267e+01	7.396031e+00	2.539732e+05	1.012929e+05	2.880979e+02	1.022157e-01	-4.520132e-02	0.000000e+00	
1.102564e+00	1.250000e+00	1.224812e+00	4.195187e+01	7.396012e+00	2.539732e+05	1.012929e+05	2.880979e+02	1.022138e-01	-4.519205e-02	0.000000e+00	
1.102564e+00	1.186709e+00	1.224812e+00	4.195325e+01	7.396090e+00	2.539732e+05	1.012929e+05	2.880979e+02	1.022170e-01	-4.519562e-02	0.000000e+00	
1.102564e+00	1.155063e+00	1.224812e+00	4.195349e+01	7.396110e+00	2.539732e+05	1.012929e+05	2.880979e+02	1.022176e-01	-4.520020e-02	0.000000e+00	
1.102564e+00	1.123418e+00	1.224812e+00	4.195349e+01	7.396129e+00	2.539732e+05	1.012929e+05	2.880979e+02	1.022176e-01	-4.519854e-02	0.000000e+00	
1.102564e+00	1.091772e+00	1.224812e+00	4.195339e+01	7.396127e+00	2.539732e+05	1.012929e+05	2.880979e+02	1.022174e-01	-4.520069e-02	0.000000e+00	
1.102564e+00	1.060127e+00	1.224812e+00	4.195327e+01	7.396127e+00	2.539732e+05	1.012929e+05	2.880979e+02	1.022171e-01	-4.520058e-02	0.000000e+00	
1.102564e+00	1.028481e+00	1.224812e+00	4.195319e+01	7.396125e+00	2.539732e+05	1.012929e+05	2.880979e+02	1.022169e-01	-4.520180e-02	0.000000e+00	
1.102564e+00	9.968354e-01	1.224812e+00	4.195315e+01	7.396127e+00	2.539732e+05	1.012929e+05	2.880979e+02	1.022168e-01	-4.520219e-02	0.000000e+00	
1.102564e+00	9.651899e-01	1.224812e+00	4.195314e+01	7.396131e+00	2.539732e+05	1.012929e+05	2.880979e+02	1.022168e-01	-4.520303e-02	0.000000e+00	
1.102564e+00	9.335443e-01	1.224812e+00	4.195315e+01	7.396137e+00	2.539732e+05	1.012929e+05	2.880979e+02	1.022168e-01	-4.520355e-02	0.000000e+00	
1.102564e+00	9.018987e-01	1.224812e+00	4.195316e+01	7.396143e+00	2.539732e+05	1.012929e+05	2.880979e+02	1.022169e-01	-4.520421e-02	0.000000e+00	
1.102564e+00	8.702532e-01	1.224812e+00	4.195317e+01	7.396150e+00	2.539732e+05	1.012929e+05	2.880979e+02	1.022169e-01	-4.520475e-02	0.000000e+00	
1.102564e+00	8.386076e-01	1.224812e+00	4.195318e+01	7.396156e+00	2.539732e+05	1.012929e+05	2.880979e+02	1.022169e-01	-4.520531e-02	0.000000e+00	
1.102564e+00	8.069620e-01	1.224812e+00	4.195319e+01	7.396161e+00	2.539732e+05	1.012929e+05	2.880979e+02	1.022170e-01	-4.520582e-02	0.000000e+00	
1.102564e+00	7.753165e-01	1.224812e+00	4.195320e+01	7.396166e+00	2.539732e+05	1.012929e+05	2.880979e+02	1.022170e-01	-4.520632e-02	0.000000e+00	
1.102564e+00	7.436709e-01	1.224812e+00	4.195321e+01	7.396170e+00	2.539732e+05	1.012929e+05	2.880979e+02	1.022170e-01	-4.520679e-02	0.000000e+00	
1.102564e+00	7.120253e-01	1.224812e+00	4.195321e+01	7.396174e+00	2.539732e+05	1.012929e+05	2.880979e+02	1.022170e-01	-4.520725e-02	0.000000e+00	
1.102564e+00	6.803797e-01	1.224812e+00	4.195322e+01	7.396178e+00	2.539732e+05	1.012929e+05	2.880979e+02	1.022170e-01	-4.520768e-02	0.000000e+00	
1.102564e+00	6.487342e-01	1.224812e+00	4.195322e+01	7.396182e+00	2.539732e+05	1.012929e+05	2.880979e+02	1.022170e-01	-4.520810e-02	0.000000e+00	
1.102564e+00	6.170886e-01	1.224812e+00	4.195323e+01	7.396185e+00	2.539732e+05	1.012929e+05	2.880979e+02	1.022170e-01	-4.520849e-02	0.000000e+00	
1.102564e+00	5.854430e-01	1.224812e+00	4.195323e+01	7.396189e+00	2.539732e+05	1.012929e+05	2.880979e+02	1.022171e-01	-4.520887e-02	0.000000e+00	
1.102564e+00	5.537975e-01	1.224812e+00	4.195324e+01	7.396192e+00	2.539732e+05	1.012929e+05	2.880979e+02	1.022171e-01	-4.520922e-02	0.000000e+00	
1.102564e+00	5.221519e-01	1.224812e+00	4.195325e+01	7.396195e+00	2.539732e+05	1.012929e+05	2.880979e+02	1.022171e-01	-4.520956e-02	0.000000e+00	
1.102564e+00	4.905063e-01	1.224812e+00	4.195326e+01	7.396199e+00	2.539732e+05	1.012929e+05	2.880979e+02	1.022171e-01	-4.520989e-02	0.000000e+00	
1.102564e+00	4.588608e-01	1.224812e+00	4.195326e+01	7.396202e+00	2.539732e+05	1.012929e+05	2.880979e+02	1.022171e-01	-4.521019e-02	0.000000e+00	
1.102564e+00	4.272152e-01	1.224812e+00	4.195327e+01	7.396206e+00	2.539732e+05	1.012929e+05	2.880979e+02	1.022172e-01	-4.521048e-02	0.000000e+00	
1.102564e+00	3.955696e-01	1.224812e+00	4.195328e+01	7.396209e+00	2.539732e+05	1.012929e+05	2.880979e+02	1.022172e-01	-4.521075e-02	0.000000e+00	
1.102564e+00	3.639241e-01	1.224812e+00	4.195328e+01	7.396213e+00	2.539732e+05	1.012929e+05	2.880979e+02	1.022172e-01	-4.521100e-02	0.000000e+00	
1.102564e+00	3.322785e-01	1.224812e+00	4.195329e+01	7.396216e+00	2.539732e+05	1.012929e+05	2.880979e+02	1.022172e-01	-4.521124e-02	0.000000e+00	
1.102564e+00	3.006329e-01	1.224812e+00	4.195330e+01	7.396219e+00	2.539732e+05	1.012929e+05	2.880979e+02	1.022172e-01	-4.521145e-02	0.000000e+00	
1.102564e+00	2.689873e-01	1.224812e+00	4.195331e+01	7.396223e+00	2.539732e+05	1.012929e+05	2.880979e+02	1.022173e-01	-4.521165e-02	0.000000e+00	
1.102564e+00	2.373418e-01	1.224812e+00	4.195331e+01	7.396226e+00	2.539732e+05	1.012929e+05	2.880979e+02	1.022173e-01	-4.521184e-02	0.000000e+00	
1.102564e+00	2.056962e-01	1.224812e+00	4.195332e+01	7.396230e+00	2.539732e+05	1.012929e+05	2.880979e+02	1.022173e-01	-4.521200e-02	0.000000e+00	
1.102564e+00	1.740506e-01	1.224812e+00	4.195333e+01	7.396233e+00	2.539732e+05	1.012929e+05	2.880979e+02	1.022173e-01	-4.521215e-02	0.000000e+00	
1.102564e+00	1.424051e-01	1.224812e+00	4.195334e+01	7.396237e+00	2.539732e+05	1.012929e+05	2.880979e+02	1.022173e-01	-4.521228e-02	0.000000e+00	
1.102564e+00	1.107595e-01	1.224812e+00	4.195334e+01	7.396241e+00	2.539732e+05	1.012929e+05	2.880979e+02	1.022173e-01	-4.521239e-02	0.000000e+00	
1.102564e+00	7.911392e-02	1.224812e+00	4.195335e+01	7.396244e+00	2.539732e+05	1.012929e+05	2.880979e+02	1.022174e-01	-4.521248e-02	0.000000e+00	
1.102564e+00	4.746835e-02	1.224812e+00	4.195336e+01	7.396248e+00	2.539732e+05	1.012929e+05	2.880979e+02	1.022174e-01	-4.521256e-02	0.000000e+00	
1.102564e+00	1.582278e-02	1.224812e+00	4.195336e+01	7.396251e+00	2.539732e+05	1.012929e+05	2.880979e+02	1.022174e-01	-4.521261e-02	0.000000e+00	
1.102564e+00	-1.582278e-02	1.224812e+00	4.195337e+01	7.396255e+00	2.539732e+05	1.012929e+05	2.880979e+02	1.022174e-01	-4.521265e-02	0.000000e+00	
1.102564e+00	-4.746835e-02	1.224812e+00	4.195337e+01	7.396259e+00	2.539732e+05	1.012929e+05	2.880979e+02	1.022174e-01	-4.521267e-02	0.000000e+00	
1.102564e+00	-7.911392e-02	1.224812e+00	4.195338e+01	7.396262e+00	2.539732e+05	1.012929e+05	2.880979e+02	1.022174e-01	-4.521267e-02	0.000000e+00	
1.102564e+00	-1.107595e-01	1.224812e+00	4.195339e+01	7.396266e+00	2.539732e+05	1.012929e+05	2.880979e+02	1.022175e-01	-4.521265e-02	0.000000e+00	
1.102564e+00	-1.424051e-01	1.224812e+00	4.195339e+01	7.396269e+00	2.539732e+05	1.012929e+05	2.880979e+02	1.022175e-01	-4.521260e-02	0.000000e+00	
1.102564e+00	-1.740506e-01	1.224812e+00	4.195339e+01	7.396273e+00	2.539732e+05	1.012929e+05	2.880979e+02	1.022175e-01	-4.521254e-02	0.000000e+00	