TITLE = "SU2 Simulation"
VARIABLES = "Iteration","CL","CD","CSF","CMx","CMy","CMz","CFx","CFy","CFz","CL/CD","AoA","Custom_ObjFunc","Res_Flow[0]","Res_Flow[1]","Res_Flow[2]","Res_Flow[3]","Res_Flow[4]","Linear_Solver_Iterations","CFL_Number","Time(min)"
ZONE T= "Convergence history"
           0, 0.00000000e+00, 0.00000000e+00, 0.00000000e+00, 0.00000000e+00, 0.00000000e+00, 0.00000000e+00, 0.00000000e+00, 0.00000000e+00, 0.00000000e+00, 0.00000000e+00, 0.00000000e+00, 0.00000000e+00, -3.33431470e+00, -8.48285478e-01, -1.26119551e+01, 2.11047481e+00, 0.00000000e+00, 5.0000000000, 5.0000000000, 0.0010408000
           1, 0.00000000e+00, 0.00000000e+00, 0.00000000e+00, 0.00000000e+00, 0.00000000e+00, 0.00000000e+00, 0.00000000e+00, 0.00000000e+00, 0.00000000e+00, 0.00000000e+00, 0.00000000e+00, 0.00000000e+00, -3.51703935e+00, -1.03701198e+00, -3.14634300e+00, 1.92833119e+00, 0.00000000e+00, 5.0000000000, 5.0000000000, 0.0021178833
           2, 0.00000000e+00, 0.00000000e+00, 0.00000000e+00, 0.00000000e+00, 0.00000000e+00, 0.00000000e+00, 0.00000000e+00, 0.00000000e+00, 0.00000000e+00, 0.00000000e+00, 0.00000000e+00, 0.00000000e+00, -3.63363149e+00, -1.15004963e+00, -1.44530035e+00, 1.81280408e+00, 0.00000000e+00, 5.0000000000, 5.0000000000, 0.0031181833
           3, 0.00000000e+00, 0.00000000e+00, 0.00000000e+00, 0.00000000e+00, 0.00000000e+00, 0.00000000e+00, 0.00000000e+00, 0.00000000e+00, 0.00000000e+00, 0.00000000e+00, 0.00000000e+00, 0.00000000e+00, -3.68290504e+00, -1.19538858e+00, -1.16307843e+00, 1.76294929e+00, 0.00000000e+00, 5.0000000000, 5.0000000000, 0.0041479667
           4, 0.00000000e+00, 0.00000000e+00, 0.00000000e+00, 0.00000000e+00, 0.00000000e+00, 0.00000000e+00, 0.00000000e+00, 0.00000000e+00, 0.00000000e+00, 0.00000000e+00, 0.00000000e+00, 0.00000000e+00, -3.70601032e+00, -1.21994327e+00, -1.00565297e+00, 1.73925278e+00, 0.00000000e+00, 5.0000000000, 5.0000000000, 0.0051860667
           5, 0.00000000e+00, 0.00000000e+00, 0.00000000e+00, 0.00000000e+00, 0.00000000e+00, 0.00000000e+00, 0.00000000e+00, 0.00000000e+00, 0.00000000e+00, 0.00000000e+00, 0.00000000e+00, 0.00000000e+00, -3.72573302e+00, -1.24135864e+00, -8.98872702e-01, 1.71963967e+00, 0.00000000e+00, 5.0000000000, 5.0000000000, 0.0062315167
           6, 0.00000000e+00, 0.00000000e+00, 0.00000000e+00, 0.00000000e+00, 0.00000000e+00, 0.00000000e+00, 0.00000000e+00, 0.00000000e+00, 0.00000000e+00, 0.00000000e+00, 0.00000000e+00, 0.00000000e+00, -3.74478326e+00, -1.25925608e+00, -8.19650331e-01, 1.70110313e+00, 0.00000000e+00, 5.0000000000, 5.0000000000, 0.0073005667
           7, 0.00000000e+00, 0.00000000e+00, 0.00000000e+00, 0.00000000e+00, 0.00000000e+00, 0.00000000e+00, 0.00000000e+00, 0.00000000e+00, 0.00000000e+00, 0.00000000e+00, 0.00000000e+00, 0.00000000e+00, -3.76060068e+00, -1.27186961e+00, -7.57675330e-01, 1.68591846e+00, 0.00000000e+00, 5.0000000000, 5.0000000000, 0.0083163167
           8, 0.00000000e+00, 0.00000000e+00, 0.00000000e+00, 0.00000000e+00, 0.00000000e+00, 0.00000000e+00, 0.00000000e+00, 0.00000000e+00, 0.00000000e+00, 0.00000000e+00, 0.00000000e+00, 0.00000000e+00, -3.77184341e+00, -1.27963889e+00, -7.07442308e-01, 1.67535674e+00, 0.00000000e+00, 5.0000000000, 5.0000000000, 0.0093442667
           9, 0.00000000e+00, 0.00000000e+00, 0.00000000e+00, 0.00000000e+00, 0.00000000e+00, 0.00000000e+00, 0.00000000e+00, 0.00000000e+00, 0.00000000e+00, 0.00000000e+00, 0.00000000e+00, 0.00000000e+00, -3.77906706e+00, -1.28380579e+00, -6.65709622e-01, 1.66889949e+00, 0.00000000e+00, 5.0000000000, 5.0000000000, 0.0103830167
          10, 0.00000000e+00, 0.00000000e+00, 0.00000000e+00, 0.00000000e+00, 0.00000000e+00, 0.00000000e+00, 0.00000000e+00, 0.00000000e+00, 0.00000000e+00, 0.00000000e+00, 0.00000000e+00, 0.00000000e+00, -3.78343091e+00, -1.28526264e+00, -6.30408420e-01, 1.66541919e+00, 0.00000000e+00, 5.0000000000, 5.0000000000, 0.0114605667
          11, 0.00000000e+00, 0.00000000e+00, 0.00000000e+00, 0.00000000e+00, 0.00000000e+00, 0.00000000e+00, 0.00000000e+00, 0.00000000e+00, 0.00000000e+00, 0.00000000e+00, 0.00000000e+00, 0.00000000e+00, -3.78577770e+00, -1.28450980e+00, -6.00136083e-01, 1.66406526e+00, 0.00000000e+00, 5.0000000000, 5.0000000000, 0.0125429833
          12, 0.00000000e+00, 0.00000000e+00, 0.00000000e+00, 0.00000000e+00, 0.00000000e+00, 0.00000000e+00, 0.00000000e+00, 0.00000000e+00, 0.00000000e+00, 0.00000000e+00, 0.00000000e+00, 0.00000000e+00, -3.78652886e+00, -1.28192786e+00, -5.73898074e-01, 1.66438234e+00, 0.00000000e+00, 5.0000000000, 5.0000000000, 0.0135709000
          13, 0.00000000e+00, 0.00000000e+00, 0.00000000e+00, 0.00000000e+00, 0.00000000e+00, 0.00000000e+00, 0.00000000e+00, 0.00000000e+00, 0.00000000e+00, 0.00000000e+00, 0.00000000e+00, 0.00000000e+00, -3.78590925e+00, -1.27790284e+00, -5.50963609e-01, 1.66610594e+00, 0.00000000e+00, 5.0000000000, 5.0000000000, 0.0145985000
          14, 0.00000000e+00, 0.00000000e+00, 0.00000000e+00, 0.00000000e+00, 0.00000000e+00, 0.00000000e+00, 0.00000000e+00, 0.00000000e+00, 0.00000000e+00, 0.00000000e+00, 0.00000000e+00, 0.00000000e+00, -3.78411073e+00, -1.27282433e+00, -5.30779654e-01, 1.66901086e+00, 0.00000000e+00, 5.0000000000, 5.0000000000, 0.0156152167
          15, 0.00000000e+00, 0.00000000e+00, 0.00000000e+00, 0.00000000e+00, 0.00000000e+00, 0.00000000e+00, 0.00000000e+00, 0.00000000e+00, 0.00000000e+00, 0.00000000e+00, 0.00000000e+00, 0.00000000e+00, -3.78131833e+00, -1.26707205e+00, -5.12917144e-01, 1.67288827e+00, 0.00000000e+00, 5.0000000000, 5.0000000000, 0.0166154333
          16, 0.00000000e+00, 0.00000000e+00, 0.00000000e+00, 0.00000000e+00, 0.00000000e+00, 0.00000000e+00, 0.00000000e+00, 0.00000000e+00, 0.00000000e+00, 0.00000000e+00, 0.00000000e+00, 0.00000000e+00, -3.77766825e+00, -1.26103168e+00, -4.97036056e-01, 1.67758648e+00, 0.00000000e+00, 5.0000000000, 5.0000000000, 0.0176238833
          17, 0.00000000e+00, 0.00000000e+00, 0.00000000e+00, 0.00000000e+00, 0.00000000e+00, 0.00000000e+00, 0.00000000e+00, 0.00000000e+00, 0.00000000e+00, 0.00000000e+00, 0.00000000e+00, 0.00000000e+00, -3.77320304e+00, -1.25512694e+00, -4.82862041e-01, 1.68305315e+00, 0.00000000e+00, 5.0000000000, 5.0000000000, 0.0186729000
          18, 0.00000000e+00, 0.00000000e+00, 0.00000000e+00, 0.00000000e+00, 0.00000000e+00, 0.00000000e+00, 0.00000000e+00, 0.00000000e+00, 0.00000000e+00, 0.00000000e+00, 0.00000000e+00, 0.00000000e+00, -3.76784859e+00, -1.24984960e+00, -4.70170344e-01, 1.68935593e+00, 0.00000000e+00, 5.0000000000, 5.0000000000, 0.0197625333
          19, 0.00000000e+00, 0.00000000e+00, 0.00000000e+00, 0.00000000e+00, 0.00000000e+00, 0.00000000e+00, 0.00000000e+00, 0.00000000e+00, 0.00000000e+00, 0.00000000e+00, 0.00000000e+00, 0.00000000e+00, -3.76141889e+00, -1.24577758e+00, -4.58774453e-01, 1.69667558e+00, 0.00000000e+00, 5.0000000000, 5.0000000000, 0.0208758667
          20, 0.00000000e+00, 0.00000000e+00, 0.00000000e+00, 0.00000000e+00, 0.00000000e+00, 0.00000000e+00, 0.00000000e+00, 0.00000000e+00, 0.00000000e+00, 0.00000000e+00, 0.00000000e+00, 0.00000000e+00, -3.75365401e+00, -1.24357679e+00, -4.48517851e-01, 1.70526605e+00, 0.00000000e+00, 5.0000000000, 5.0000000000, 0.0220863167
          21, 0.00000000e+00, 0.00000000e+00, 0.00000000e+00, 0.00000000e+00, 0.00000000e+00, 0.00000000e+00, 0.00000000e+00, 0.00000000e+00, 0.00000000e+00, 0.00000000e+00, 0.00000000e+00, 0.00000000e+00, -3.74429616e+00, -1.24398545e+00, -4.39267888e-01, 1.71537743e+00, 0.00000000e+00, 5.0000000000, 5.0000000000, 0.0233829000
          22, 0.00000000e+00, 0.00000000e+00, 0.00000000e+00, 0.00000000e+00, 0.00000000e+00, 0.00000000e+00, 0.00000000e+00, 0.00000000e+00, 0.00000000e+00, 0.00000000e+00, 0.00000000e+00, 0.00000000e+00, -3.73319360e+00, -1.24778390e+00, -4.30911154e-01, 1.72715253e+00, 0.00000000e+00, 5.0000000000, 5.0000000000, 0.0245816500
          23, 0.00000000e+00, 0.00000000e+00, 0.00000000e+00, 0.00000000e+00, 0.00000000e+00, 0.00000000e+00, 0.00000000e+00, 0.00000000e+00, 0.00000000e+00, 0.00000000e+00, 0.00000000e+00, 0.00000000e+00, -3.72040137e+00, -1.25575644e+00, -4.23349926e-01, 1.74052842e+00, 0.00000000e+00, 5.0000000000, 5.0000000000, 0.0259174667
          24, 0.00000000e+00, 0.00000000e+00, 0.00000000e+00, 0.00000000e+00, 0.00000000e+00, 0.00000000e+00, 0.00000000e+00, 0.00000000e+00, 0.00000000e+00, 0.00000000e+00, 0.00000000e+00, 0.00000000e+00, -3.70623671e+00, -1.26865227e+00, -4.16499412e-01, 1.75518402e+00, 0.00000000e+00, 5.0000000000, 5.0000000000, 0.0271311167
          25, 0.00000000e+00, 0.00000000e+00, 0.00000000e+00, 0.00000000e+00, 0.00000000e+00, 0.00000000e+00, 0.00000000e+00, 0.00000000e+00, 0.00000000e+00, 0.00000000e+00, 0.00000000e+00, 0.00000000e+00, -3.69126125e+00, -1.28714837e+00, -4.10285597e-01, 1.77056007e+00, 0.00000000e+00, 5.0000000000, 5.0000000000, 0.0283373000
          26, 0.00000000e+00, 0.00000000e+00, 0.00000000e+00, 0.00000000e+00, 0.00000000e+00, 0.00000000e+00, 0.00000000e+00, 0.00000000e+00, 0.00000000e+00, 0.00000000e+00, 0.00000000e+00, 0.00000000e+00, -3.67619567e+00, -1.31181006e+00, -4.04643545e-01, 1.78594449e+00, 0.00000000e+00, 5.0000000000, 5.0000000000, 0.0294824167
          27, 0.00000000e+00, 0.00000000e+00, 0.00000000e+00, 0.00000000e+00, 0.00000000e+00, 0.00000000e+00, 0.00000000e+00, 0.00000000e+00, 0.00000000e+00, 0.00000000e+00, 0.00000000e+00, 0.00000000e+00, -3.66180221e+00, -1.34303260e+00, -3.99516053e-01, 1.80058819e+00, 0.00000000e+00, 5.0000000000, 5.0000000000, 0.0306345500
          28, 0.00000000e+00, 0.00000000e+00, 0.00000000e+00, 0.00000000e+00, 0.00000000e+00, 0.00000000e+00, 0.00000000e+00, 0.00000000e+00, 0.00000000e+00, 0.00000000e+00, 0.00000000e+00, 0.00000000e+00, -3.64877693e+00, -1.38092652e+00, -3.94852563e-01, 1.81381019e+00, 0.00000000e+00, 5.0000000000, 5.0000000000, 0.0318195667
          29, 0.00000000e+00, 0.00000000e+00, 0.00000000e+00, 0.00000000e+00, 0.00000000e+00, 0.00000000e+00, 0.00000000e+00, 0.00000000e+00, 0.00000000e+00, 0.00000000e+00, 0.00000000e+00, 0.00000000e+00, -3.63767919e+00, -1.42507142e+00, -3.90608267e-01, 1.82506595e+00, 0.00000000e+00, 5.0000000000, 5.0000000000, 0.0329549000
          30, 0.00000000e+00, 0.00000000e+00, 0.00000000e+00, 0.00000000e+00, 0.00000000e+00, 0.00000000e+00, 0.00000000e+00, 0.00000000e+00, 0.00000000e+00, 0.00000000e+00, 0.00000000e+00, 0.00000000e+00, -3.62890454e+00, -1.47400385e+00, -3.86743359e-01, 1.83397301e+00, 0.00000000e+00, 5.0000000000, 5.0000000000, 0.0340803167
          31, 0.00000000e+00, 0.00000000e+00, 0.00000000e+00, 0.00000000e+00, 0.00000000e+00, 0.00000000e+00, 0.00000000e+00, 0.00000000e+00, 0.00000000e+00, 0.00000000e+00, 0.00000000e+00, 0.00000000e+00, -3.62269322e+00, -1.52427716e+00, -3.83222389e-01, 1.84030190e+00, 0.00000000e+00, 5.0000000000, 5.0000000000, 0.0352546667
          32, 0.00000000e+00, 0.00000000e+00, 0.00000000e+00, 0.00000000e+00, 0.00000000e+00, 0.00000000e+00, 0.00000000e+00, 0.00000000e+00, 0.00000000e+00, 0.00000000e+00, 0.00000000e+00, 0.00000000e+00, -3.61916031e+00, -1.56922904e+00, -3.80013695e-01, 1.84394595e+00, 0.00000000e+00, 5.0000000000, 5.0000000000, 0.0364257000
          33, 0.00000000e+00, 0.00000000e+00, 0.00000000e+00, 0.00000000e+00, 0.00000000e+00, 0.00000000e+00, 0.00000000e+00, 0.00000000e+00, 0.00000000e+00, 0.00000000e+00, 0.00000000e+00, 0.00000000e+00, -3.61833450e+00, -1.59888367e+00, -3.77088869e-01, 1.84488291e+00, 0.00000000e+00, 5.0000000000, 5.0000000000, 0.0374569333
          34, 0.00000000e+00, 0.00000000e+00, 0.00000000e+00, 0.00000000e+00, 0.00000000e+00, 0.00000000e+00, 0.00000000e+00, 0.00000000e+00, 0.00000000e+00, 0.00000000e+00, 0.00000000e+00, 0.00000000e+00, -3.62019478e+00, -1.60395155e+00, -3.74422245e-01, 1.84313854e+00, 0.00000000e+00, 5.0000000000, 5.0000000000, 0.0384908833
          35, 0.00000000e+00, 0.00000000e+00, 0.00000000e+00, 0.00000000e+00, 0.00000000e+00, 0.00000000e+00, 0.00000000e+00, 0.00000000e+00, 0.00000000e+00, 0.00000000e+00, 0.00000000e+00, 0.00000000e+00, -3.62469838e+00, -1.58292895e+00, -3.71990364e-01, 1.83875926e+00, 0.00000000e+00, 5.0000000000, 5.0000000000, 0.0395479667
          36, 0.00000000e+00, 0.00000000e+00, 0.00000000e+00, 0.00000000e+00, 0.00000000e+00, 0.00000000e+00, 0.00000000e+00, 0.00000000e+00, 0.00000000e+00, 0.00000000e+00, 0.00000000e+00, 0.00000000e+00, -3.63179594e+00, -1.54339568e+00, -3.69771567e-01, 1.83179735e+00, 0.00000000e+00, 5.0000000000, 5.0000000000, 0.0405949500
          37, 0.00000000e+00, 0.00000000e+00, 0.00000000e+00, 0.00000000e+00, 0.00000000e+00, 0.00000000e+00, 0.00000000e+00, 0.00000000e+00, 0.00000000e+00, 0.00000000e+00, 0.00000000e+00, 0.00000000e+00, -3.64143369e+00, -1.49550966e+00, -3.67746737e-01, 1.82230922e+00, 0.00000000e+00, 5.0000000000, 5.0000000000, 0.0416167500
          38, 0.00000000e+00, 0.00000000e+00, 0.00000000e+00, 0.00000000e+00, 0.00000000e+00, 0.00000000e+00, 0.00000000e+00, 0.00000000e+00, 0.00000000e+00, 0.00000000e+00, 0.00000000e+00, 0.00000000e+00, -3.65354476e+00, -1.44670141e+00, -3.65901580e-01, 1.81036438e+00, 0.00000000e+00, 5.0000000000, 5.0000000000, 0.0426341500
          39, 0.00000000e+00, 0.00000000e+00, 0.00000000e+00, 0.00000000e+00, 0.00000000e+00, 0.00000000e+00, 0.00000000e+00, 0.00000000e+00, 0.00000000e+00, 0.00000000e+00, 0.00000000e+00, 0.00000000e+00, -3.66803415e+00, -1.40097447e+00, -3.64224024e-01, 1.79606071e+00, 0.00000000e+00, 5.0000000000, 5.0000000000, 0.0437087000
          40, 0.00000000e+00, 0.00000000e+00, 0.00000000e+00, 0.00000000e+00, 0.00000000e+00, 0.00000000e+00, 0.00000000e+00, 0.00000000e+00, 0.00000000e+00, 0.00000000e+00, 0.00000000e+00, 0.00000000e+00, -3.68476232e+00, -1.36006865e+00, -3.62700605e-01, 1.77954114e+00, 0.00000000e+00, 5.0000000000, 5.0000000000, 0.0448172000
          41, 0.00000000e+00, 0.00000000e+00, 0.00000000e+00, 0.00000000e+00, 0.00000000e+00, 0.00000000e+00, 0.00000000e+00, 0.00000000e+00, 0.00000000e+00, 0.00000000e+00, 0.00000000e+00, 0.00000000e+00, -3.70353271e+00, -1.32453014e+00, -3.61318071e-01, 1.76100641e+00, 0.00000000e+00, 5.0000000000, 5.0000000000, 0.0458677833
          42, 0.00000000e+00, 0.00000000e+00, 0.00000000e+00, 0.00000000e+00, 0.00000000e+00, 0.00000000e+00, 0.00000000e+00, 0.00000000e+00, 0.00000000e+00, 0.00000000e+00, 0.00000000e+00, 0.00000000e+00, -3.72408879e+00, -1.29433383e+00, -3.60064489e-01, 1.74071853e+00, 0.00000000e+00, 5.0000000000, 5.0000000000, 0.0468918333
          43, 0.00000000e+00, 0.00000000e+00, 0.00000000e+00, 0.00000000e+00, 0.00000000e+00, 0.00000000e+00, 0.00000000e+00, 0.00000000e+00, 0.00000000e+00, 0.00000000e+00, 0.00000000e+00, 0.00000000e+00, -3.74612465e+00, -1.26919228e+00, -3.58929274e-01, 1.71899049e+00, 0.00000000e+00, 5.0000000000, 5.0000000000, 0.0479243833
          44, 0.00000000e+00, 0.00000000e+00, 0.00000000e+00, 0.00000000e+00, 0.00000000e+00, 0.00000000e+00, 0.00000000e+00, 0.00000000e+00, 0.00000000e+00, 0.00000000e+00, 0.00000000e+00, 0.00000000e+00, -3.76931152e+00, -1.24869954e+00, -3.57903015e-01, 1.69616036e+00, 0.00000000e+00, 5.0000000000, 5.0000000000, 0.0489399333
          45, 0.00000000e+00, 0.00000000e+00, 0.00000000e+00, 0.00000000e+00, 0.00000000e+00, 0.00000000e+00, 0.00000000e+00, 0.00000000e+00, 0.00000000e+00, 0.00000000e+00, 0.00000000e+00, 0.00000000e+00, -3.79333896e+00, -1.23239671e+00, -3.56977328e-01, 1.67255062e+00, 0.00000000e+00, 5.0000000000, 5.0000000000, 0.0499334167
          46, 0.00000000e+00, 0.00000000e+00, 0.00000000e+00, 0.00000000e+00, 0.00000000e+00, 0.00000000e+00, 0.00000000e+00, 0.00000000e+00, 0.00000000e+00, 0.00000000e+00, 0.00000000e+00, 0.00000000e+00, -3.81796520e+00, -1.21980285e+00, -3.56144700e-01, 1.64841842e+00, 0.00000000e+00, 5.0000000000, 5.0000000000, 0.0509562500
          47, 0.00000000e+00, 0.00000000e+00, 0.00000000e+00, 0.00000000e+00, 0.00000000e+00, 0.00000000e+00, 0.00000000e+00, 0.00000000e+00, 0.00000000e+00, 0.00000000e+00, 0.00000000e+00, 0.00000000e+00, -3.84306643e+00, -1.21043140e+00, -3.55398491e-01, 1.62390659e+00, 0.00000000e+00, 5.0000000000, 5.0000000000, 0.0520058667
          48, 0.00000000e+00, 0.00000000e+00, 0.00000000e+00, 0.00000000e+00, 0.00000000e+00, 0.00000000e+00, 0.00000000e+00, 0.00000000e+00, 0.00000000e+00, 0.00000000e+00, 0.00000000e+00, 0.00000000e+00, -3.86867322e+00, -1.20380158e+00, -3.54732819e-01, 1.59900756e+00, 0.00000000e+00, 5.0000000000, 5.0000000000, 0.0530058833
          49, 0.00000000e+00, 0.00000000e+00, 0.00000000e+00, 0.00000000e+00, 0.00000000e+00, 0.00000000e+00, 0.00000000e+00, 0.00000000e+00, 0.00000000e+00, 0.00000000e+00, 0.00000000e+00, 0.00000000e+00, -3.89498449e+00, -1.19944868e+00, -3.54142445e-01, 1.57354937e+00, 0.00000000e+00, 5.0000000000, 5.0000000000, 0.0540984167
          50, 0.00000000e+00, 0.00000000e+00, 0.00000000e+00, 0.00000000e+00, 0.00000000e+00, 0.00000000e+00, 0.00000000e+00, 0.00000000e+00, 0.00000000e+00, 0.00000000e+00, 0.00000000e+00, 0.00000000e+00, -3.92235623e+00, -1.19693494e+00, -3.53622719e-01, 1.54720724e+00, 0.00000000e+00, 5.0000000000, 5.0000000000, 0.0553445000
          51, 0.00000000e+00, 0.00000000e+00, 0.00000000e+00, 0.00000000e+00, 0.00000000e+00, 0.00000000e+00, 0.00000000e+00, 0.00000000e+00, 0.00000000e+00, 0.00000000e+00, 0.00000000e+00, 0.00000000e+00, -3.95126899e+00, -1.19586134e+00, -3.53169560e-01, 1.51953627e+00, 0.00000000e+00, 5.0000000000, 5.0000000000, 0.0566652000
          52, 0.00000000e+00, 0.00000000e+00, 0.00000000e+00, 0.00000000e+00, 0.00000000e+00, 0.00000000e+00, 0.00000000e+00, 0.00000000e+00, 0.00000000e+00, 0.00000000e+00, 0.00000000e+00, 0.00000000e+00, -3.98228202e+00, -1.19587996e+00, -3.52779367e-01, 1.49001771e+00, 0.00000000e+00, 5.0000000000, 5.0000000000, 0.0581956000
          53, 0.00000000e+00, 0.00000000e+00, 0.00000000e+00, 0.00000000e+00, 0.00000000e+00, 0.00000000e+00, 0.00000000e+00, 0.00000000e+00, 0.00000000e+00, 0.00000000e+00, 0.00000000e+00, 0.00000000e+00, -4.01597889e+00, -1.19670595e+00, -3.52448931e-01, 1.45811291e+00, 0.00000000e+00, 5.0000000000, 5.0000000000, 0.0594536500
          54, 0.00000000e+00, 0.00000000e+00, 0.00000000e+00, 0.00000000e+00, 0.00000000e+00, 0.00000000e+00, 0.00000000e+00, 0.00000000e+00, 0.00000000e+00, 0.00000000e+00, 0.00000000e+00, 0.00000000e+00, -4.05289939e+00, -1.19812804e+00, -3.52175360e-01, 1.42332816e+00, 0.00000000e+00, 5.0000000000, 5.0000000000, 0.0605909833
          55, 0.00000000e+00, 0.00000000e+00, 0.00000000e+00, 0.00000000e+00, 0.00000000e+00, 0.00000000e+00, 0.00000000e+00, 0.00000000e+00, 0.00000000e+00, 0.00000000e+00, 0.00000000e+00, 0.00000000e+00, -4.09343458e+00, -1.20001582e+00, -3.51955999e-01, 1.38530835e+00, 0.00000000e+00, 5.0000000000, 5.0000000000, 0.0617766500
          56, 0.00000000e+00, 0.00000000e+00, 0.00000000e+00, 0.00000000e+00, 0.00000000e+00, 0.00000000e+00, 0.00000000e+00, 0.00000000e+00, 0.00000000e+00, 0.00000000e+00, 0.00000000e+00, 0.00000000e+00, -4.13763186e+00, -1.20232291e+00, -3.51788355e-01, 1.34400035e+00, 0.00000000e+00, 5.0000000000, 5.0000000000, 0.0628931167
          57, 0.00000000e+00, 0.00000000e+00, 0.00000000e+00, 0.00000000e+00, 0.00000000e+00, 0.00000000e+00, 0.00000000e+00, 0.00000000e+00, 0.00000000e+00, 0.00000000e+00, 0.00000000e+00, 0.00000000e+00, -4.18481116e+00, -1.20508496e+00, -3.51670032e-01, 1.29995969e+00, 0.00000000e+00, 5.0000000000, 5.0000000000, 0.0639655667
          58, 0.00000000e+00, 0.00000000e+00, 0.00000000e+00, 0.00000000e+00, 0.00000000e+00, 0.00000000e+00, 0.00000000e+00, 0.00000000e+00, 0.00000000e+00, 0.00000000e+00, 0.00000000e+00, 0.00000000e+00, -4.23285437e+00, -1.20841235e+00, -3.51598683e-01, 1.25490009e+00, 0.00000000e+00, 5.0000000000, 5.0000000000, 0.0651311333
          59, 0.00000000e+00, 0.00000000e+00, 0.00000000e+00, 0.00000000e+00, 0.00000000e+00, 0.00000000e+00, 0.00000000e+00, 0.00000000e+00, 0.00000000e+00, 0.00000000e+00, 0.00000000e+00, 0.00000000e+00, -4.27714674e+00, -1.21247844e+00, -3.51571962e-01, 1.21250978e+00, 0.00000000e+00, 5.0000000000, 5.0000000000, 0.0661681000
          60, 0.00000000e+00, 0.00000000e+00, 0.00000000e+00, 0.00000000e+00, 0.00000000e+00, 0.00000000e+00, 0.00000000e+00, 0.00000000e+00, 0.00000000e+00, 0.00000000e+00, 0.00000000e+00, 0.00000000e+00, -4.30987376e+00, -1.21750463e+00, -3.51587479e-01, 1.17909983e+00, 0.00000000e+00, 5.0000000000, 5.0000000000, 0.0672283667
          61, 0.00000000e+00, 0.00000000e+00, 0.00000000e+00, 0.00000000e+00, 0.00000000e+00, 0.00000000e+00, 0.00000000e+00, 0.00000000e+00, 0.00000000e+00, 0.00000000e+00, 0.00000000e+00, 0.00000000e+00, -4.32185723e+00, -1.22374432e+00, -3.51642767e-01, 1.16262574e+00, 0.00000000e+00, 5.0000000000, 5.0000000000, 0.0683649500
          62, 0.00000000e+00, 0.00000000e+00, 0.00000000e+00, 0.00000000e+00, 0.00000000e+00, 0.00000000e+00, 0.00000000e+00, 0.00000000e+00, 0.00000000e+00, 0.00000000e+00, 0.00000000e+00, 0.00000000e+00, -4.30825934e+00, -1.23146733e+00, -3.51735269e-01, 1.16867113e+00, 0.00000000e+00, 5.0000000000, 5.0000000000, 0.0694383500
          63, 0.00000000e+00, 0.00000000e+00, 0.00000000e+00, 0.00000000e+00, 0.00000000e+00, 0.00000000e+00, 0.00000000e+00, 0.00000000e+00, 0.00000000e+00, 0.00000000e+00, 0.00000000e+00, 0.00000000e+00, -4.27285161e+00, -1.24094638e+00, -3.51862320e-01, 1.19612247e+00, 0.00000000e+00, 5.0000000000, 5.0000000000, 0.0704837667
          64, 0.00000000e+00, 0.00000000e+00, 0.00000000e+00, 0.00000000e+00, 0.00000000e+00, 0.00000000e+00, 0.00000000e+00, 0.00000000e+00, 0.00000000e+00, 0.00000000e+00, 0.00000000e+00, 0.00000000e+00, -4.22474158e+00, -1.25244713e+00, -3.52021223e-01, 1.23803433e+00, 0.00000000e+00, 5.0000000000, 5.0000000000, 0.0715412667
          65, 0.00000000e+00, 0.00000000e+00, 0.00000000e+00, 0.00000000e+00, 0.00000000e+00, 0.00000000e+00, 0.00000000e+00, 0.00000000e+00, 0.00000000e+00, 0.00000000e+00, 0.00000000e+00, 0.00000000e+00, -4.17234070e+00, -1.26622216e+00, -3.52209318e-01, 1.28647202e+00, 0.00000000e+00, 5.0000000000, 5.0000000000, 0.0726557500
          66, 0.00000000e+00, 0.00000000e+00, 0.00000000e+00, 0.00000000e+00, 0.00000000e+00, 0.00000000e+00, 0.00000000e+00, 0.00000000e+00, 0.00000000e+00, 0.00000000e+00, 0.00000000e+00, 0.00000000e+00, -4.12090383e+00, -1.28250694e+00, -3.52424000e-01, 1.33570543e+00, 0.00000000e+00, 5.0000000000, 5.0000000000, 0.0738300500
          67, 0.00000000e+00, 0.00000000e+00, 0.00000000e+00, 0.00000000e+00, 0.00000000e+00, 0.00000000e+00, 0.00000000e+00, 0.00000000e+00, 0.00000000e+00, 0.00000000e+00, 0.00000000e+00, 0.00000000e+00, -4.07302670e+00, -1.30151646e+00, -3.52662735e-01, 1.38252523e+00, 0.00000000e+00, 5.0000000000, 5.0000000000, 0.0750198667
          68, 0.00000000e+00, 0.00000000e+00, 0.00000000e+00, 0.00000000e+00, 0.00000000e+00, 0.00000000e+00, 0.00000000e+00, 0.00000000e+00, 0.00000000e+00, 0.00000000e+00, 0.00000000e+00, 0.00000000e+00, -4.02973813e+00, -1.32344093e+00, -3.52923082e-01, 1.42544137e+00, 0.00000000e+00, 5.0000000000, 5.0000000000, 0.0760422000
          69, 0.00000000e+00, 0.00000000e+00, 0.00000000e+00, 0.00000000e+00, 0.00000000e+00, 0.00000000e+00, 0.00000000e+00, 0.00000000e+00, 0.00000000e+00, 0.00000000e+00, 0.00000000e+00, 0.00000000e+00, -3.99127835e+00, -1.34843886e+00, -3.53202732e-01, 1.46392039e+00, 0.00000000e+00, 5.0000000000, 5.0000000000, 0.0771163167
          70, 0.00000000e+00, 0.00000000e+00, 0.00000000e+00, 0.00000000e+00, 0.00000000e+00, 0.00000000e+00, 0.00000000e+00, 0.00000000e+00, 0.00000000e+00, 0.00000000e+00, 0.00000000e+00, 0.00000000e+00, -3.95752646e+00, -1.37662419e+00, -3.53499535e-01, 1.49790842e+00, 0.00000000e+00, 5.0000000000, 5.0000000000, 0.0781455167
          71, 0.00000000e+00, 0.00000000e+00, 0.00000000e+00, 0.00000000e+00, 0.00000000e+00, 0.00000000e+00, 0.00000000e+00, 0.00000000e+00, 0.00000000e+00, 0.00000000e+00, 0.00000000e+00, 0.00000000e+00, -3.92821165e+00, -1.40804305e+00, -3.53811514e-01, 1.52757463e+00, 0.00000000e+00, 5.0000000000, 5.0000000000, 0.0791469000
          72, 0.00000000e+00, 0.00000000e+00, 0.00000000e+00, 0.00000000e+00, 0.00000000e+00, 0.00000000e+00, 0.00000000e+00, 0.00000000e+00, 0.00000000e+00, 0.00000000e+00, 0.00000000e+00, 0.00000000e+00, -3.90301186e+00, -1.44263338e+00, -3.54136879e-01, 1.55318251e+00, 0.00000000e+00, 5.0000000000, 5.0000000000, 0.0801692500
          73, 0.00000000e+00, 0.00000000e+00, 0.00000000e+00, 0.00000000e+00, 0.00000000e+00, 0.00000000e+00, 0.00000000e+00, 0.00000000e+00, 0.00000000e+00, 0.00000000e+00, 0.00000000e+00, 0.00000000e+00, -3.88159724e+00, -1.48015815e+00, -3.54474028e-01, 1.57502837e+00, 0.00000000e+00, 5.0000000000, 5.0000000000, 0.0812188833
          74, 0.00000000e+00, 0.00000000e+00, 0.00000000e+00, 0.00000000e+00, 0.00000000e+00, 0.00000000e+00, 0.00000000e+00, 0.00000000e+00, 0.00000000e+00, 0.00000000e+00, 0.00000000e+00, 0.00000000e+00, -3.86364729e+00, -1.52010136e+00, -3.54821535e-01, 1.59341371e+00, 0.00000000e+00, 5.0000000000, 5.0000000000, 0.0822041833
          75, 0.00000000e+00, 0.00000000e+00, 0.00000000e+00, 0.00000000e+00, 0.00000000e+00, 0.00000000e+00, 0.00000000e+00, 0.00000000e+00, 0.00000000e+00, 0.00000000e+00, 0.00000000e+00, 0.00000000e+00, -3.84885554e+00, -1.56152048e+00, -3.55178147e-01, 1.60863441e+00, 0.00000000e+00, 5.0000000000, 5.0000000000, 0.0832097333
          76, 0.00000000e+00, 0.00000000e+00, 0.00000000e+00, 0.00000000e+00, 0.00000000e+00, 0.00000000e+00, 0.00000000e+00, 0.00000000e+00, 0.00000000e+00, 0.00000000e+00, 0.00000000e+00, 0.00000000e+00, -3.83692856e+00, -1.60287162e+00, -3.55542754e-01, 1.62097825e+00, 0.00000000e+00, 5.0000000000, 5.0000000000, 0.0842540667
          77, 0.00000000e+00, 0.00000000e+00, 0.00000000e+00, 0.00000000e+00, 0.00000000e+00, 0.00000000e+00, 0.00000000e+00, 0.00000000e+00, 0.00000000e+00, 0.00000000e+00, 0.00000000e+00, 0.00000000e+00, -3.82758247e+00, -1.64188347e+00, -3.55914390e-01, 1.63072630e+00, 0.00000000e+00, 5.0000000000, 5.0000000000, 0.0852523667
          78, 0.00000000e+00, 0.00000000e+00, 0.00000000e+00, 0.00000000e+00, 0.00000000e+00, 0.00000000e+00, 0.00000000e+00, 0.00000000e+00, 0.00000000e+00, 0.00000000e+00, 0.00000000e+00, 0.00000000e+00, -3.82053874e+00, -1.67565493e+00, -3.56292211e-01, 1.63815588e+00, 0.00000000e+00, 5.0000000000, 5.0000000000, 0.0863010000
          79, 0.00000000e+00, 0.00000000e+00, 0.00000000e+00, 0.00000000e+00, 0.00000000e+00, 0.00000000e+00, 0.00000000e+00, 0.00000000e+00, 0.00000000e+00, 0.00000000e+00, 0.00000000e+00, 0.00000000e+00, -3.81552036e+00, -1.70120015e+00, -3.56675480e-01, 1.64354373e+00, 0.00000000e+00, 5.0000000000, 5.0000000000, 0.0873137500
          80, 0.00000000e+00, 0.00000000e+00, 0.00000000e+00, 0.00000000e+00, 0.00000000e+00, 0.00000000e+00, 0.00000000e+00, 0.00000000e+00, 0.00000000e+00, 0.00000000e+00, 0.00000000e+00, 0.00000000e+00, -3.81224910e+00, -1.71644617e+00, -3.57063552e-01, 1.64716825e+00, 0.00000000e+00, 5.0000000000, 5.0000000000, 0.0883296000
          81, 0.00000000e+00, 0.00000000e+00, 0.00000000e+00, 0.00000000e+00, 0.00000000e+00, 0.00000000e+00, 0.00000000e+00, 0.00000000e+00, 0.00000000e+00, 0.00000000e+00, 0.00000000e+00, 0.00000000e+00, -3.81044468e+00, -1.72116274e+00, -3.57455865e-01, 1.64931004e+00, 0.00000000e+00, 5.0000000000, 5.0000000000, 0.0893303500
          82, 0.00000000e+00, 0.00000000e+00, 0.00000000e+00, 0.00000000e+00, 0.00000000e+00, 0.00000000e+00, 0.00000000e+00, 0.00000000e+00, 0.00000000e+00, 0.00000000e+00, 0.00000000e+00, 0.00000000e+00, -3.80982657e+00, -1.71707678e+00, -3.57851930e-01, 1.65025005e+00, 0.00000000e+00, 5.0000000000, 5.0000000000, 0.0903391500
          83, 0.00000000e+00, 0.00000000e+00, 0.00000000e+00, 0.00000000e+00, 0.00000000e+00, 0.00000000e+00, 0.00000000e+00, 0.00000000e+00, 0.00000000e+00, 0.00000000e+00, 0.00000000e+00, 0.00000000e+00, -3.81011872e+00, -1.70706427e+00, -3.58251323e-01, 1.65026460e+00, 0.00000000e+00, 5.0000000000, 5.0000000000, 0.0913439500
          84, 0.00000000e+00, 0.00000000e+00, 0.00000000e+00, 0.00000000e+00, 0.00000000e+00, 0.00000000e+00, 0.00000000e+00, 0.00000000e+00, 0.00000000e+00, 0.00000000e+00, 0.00000000e+00, 0.00000000e+00, -3.81105754e+00, -1.69409399e+00, -3.58653675e-01, 1.64961751e+00, 0.00000000e+00, 5.0000000000, 5.0000000000, 0.0923789667
          85, 0.00000000e+00, 0.00000000e+00, 0.00000000e+00, 0.00000000e+00, 0.00000000e+00, 0.00000000e+00, 0.00000000e+00, 0.00000000e+00, 0.00000000e+00, 0.00000000e+00, 0.00000000e+00, 0.00000000e+00, -3.81240262e+00, -1.68055439e+00, -3.59058670e-01, 1.64854931e+00, 0.00000000e+00, 5.0000000000, 5.0000000000, 0.0934703333
          86, 0.00000000e+00, 0.00000000e+00, 0.00000000e+00, 0.00000000e+00, 0.00000000e+00, 0.00000000e+00, 0.00000000e+00, 0.00000000e+00, 0.00000000e+00, 0.00000000e+00, 0.00000000e+00, 0.00000000e+00, -3.81394910e+00, -1.66806076e+00, -3.59466037e-01, 1.64726504e+00, 0.00000000e+00, 5.0000000000, 5.0000000000, 0.0945310500
          87, 0.00000000e+00, 0.00000000e+00, 0.00000000e+00, 0.00000000e+00, 0.00000000e+00, 0.00000000e+00, 0.00000000e+00, 0.00000000e+00, 0.00000000e+00, 0.00000000e+00, 0.00000000e+00, 0.00000000e+00, -3.81553989e+00, -1.65753698e+00, -3.59875546e-01, 1.64592204e+00, 0.00000000e+00, 5.0000000000, 5.0000000000, 0.0955678833
          88, 0.00000000e+00, 0.00000000e+00, 0.00000000e+00, 0.00000000e+00, 0.00000000e+00, 0.00000000e+00, 0.00000000e+00, 0.00000000e+00, 0.00000000e+00, 0.00000000e+00, 0.00000000e+00, 0.00000000e+00, -3.81707572e+00, -1.64937508e+00, -3.60286997e-01, 1.64462011e+00, 0.00000000e+00, 5.0000000000, 5.0000000000, 0.0965830500
          89, 0.00000000e+00, 0.00000000e+00, 0.00000000e+00, 0.00000000e+00, 0.00000000e+00, 0.00000000e+00, 0.00000000e+00, 0.00000000e+00, 0.00000000e+00, 0.00000000e+00, 0.00000000e+00, 0.00000000e+00, -3.81852094e+00, -1.64357777e+00, -3.60700222e-01, 1.64339584e+00, 0.00000000e+00, 5.0000000000, 5.0000000000, 0.0975989500