VARIABLES = "x"
 "y"
 "Density"
 "Momentum_x"
 "Momentum_y"
 "Energy"
 "Pressure"
 "Temperature"
 "Mach"
 "C<sub>p</sub>"
 "Roe_Dissipation"
ZONE
DT=(DOUBLE,DOUBLE,DOUBLE,DOUBLE,DOUBLE,DOUBLE,DOUBLE,DOUBLE,DOUBLE,DOUBLE,DOUBLE)
                     -2                    -0.6        1.22498500347137        42.0371704101562    6.81863740822921E-11                254003.5          101312.8984375        288.113891601562       0.100849002599716       -0.01708740927279                       0 
      -1.99749874937469                    -0.6        1.22498500347137        42.0371704101562    5.01173359526149E-10                254003.5          101312.8984375        288.113891601562       0.100849002599716     -0.0170874098178862                       0 
      -1.99499749874937                    -0.6        1.22498500347137        42.0371704101562    9.34160344970045E-10                254003.5          101312.8984375        288.113891601562       0.100849002599716     -0.0170874103629825                       0 
      -1.99249624812406                    -0.6        1.22498500347137        42.0371704101562     1.3671473304139E-09                254003.5          101312.8984375        288.113891601562       0.100849002599716     -0.0170874109080788                       0 
      -1.98999499749875                    -0.6        1.22498500347137        42.0371704101562    1.80013431585776E-09                254003.5          101312.8984375        288.113891601562       0.100849002599716     -0.0170874114531751                       0 
      -1.98749374687344                    -0.6        1.22498500347137        42.0371704101562    2.23312130130162E-09                254003.5          101312.8984375        288.113891601562       0.100849002599716     -0.0170874119982714                       0 
      -1.98499249624812                    -0.6        1.22498500347137        42.0371704101562    2.66610828674551E-09                254003.5          101312.8984375        288.113891601562       0.100849002599716     -0.0170874125433677                       0 
      -1.98249124562281                    -0.6        1.22498500347137        42.0371704101562    3.09909527218937E-09                254003.5          101312.8984375        288.113891601562       0.100849002599716      -0.017087413088464                       0 
       -1.9799899949975                    -0.6        1.22498500347137        42.0371704101562    3.53208225763323E-09                254003.5          101312.8984375        288.113891601562       0.100849002599716     -0.0170874136335602                       0 
      -1.97748874437219                    -0.6        1.22498500347137        42.0371704101562    3.96506924307712E-09                254003.5          101312.8984375        288.113891601562       0.100849002599716     -0.0170874141786565                       0 
      -1.97498749374687                    -0.6        1.22498500347137        42.0371704101562    4.39736842290318E-09                254003.5          101312.8984375        288.113891601562       0.100849002599716     -0.0170874147237528                       0 
      -1.97248624312156                    -0.6        1.22498500347137        42.0371704101562    4.82914622268647E-09                254003.5          101312.8984375        288.113891601562       0.100849002599716     -0.0170874152688491                       0 
      -1.96998499249625                    -0.6        1.22498500347137        42.0371704101562    5.26204689634449E-09                254003.5          101312.8984375        288.113891601562       0.100849002599716     -0.0170874158139454                       0 
      -1.96748374187094                    -0.6        1.22498500347137        42.0371704101562    5.69503388178834E-09                254003.5          101312.8984375        288.113891601562       0.100849002599716     -0.0170874163590417                       0 
      -1.96498249124562                    -0.6        1.22498500347137        42.0371704101562     6.1280208672322E-09                254003.5          101312.8984375        288.113891601562       0.100849002599716      -0.017087416904138                       0 
      -1.96248124062031                    -0.6        1.22498500347137        42.0371704101562    6.56100785267606E-09                254003.5          101312.8984375        288.113891601562       0.100849002599716     -0.0170874174492343                       0 
        -1.959979989995                    -0.6        1.22498500347137        42.0371704101562    6.99399483811995E-09                254003.5          101312.8984375        288.113891601562       0.100849002599716     -0.0170874179943305                       0 
      -1.95747873936968                    -0.6        1.22498500347137        42.0371704101562    7.42698182356381E-09                254003.5          101312.8984375        288.113891601562       0.100849002599716     -0.0170874185394268                       0 
      -1.95497748874437                    -0.6        1.22498500347137        42.0371704101562    7.85996880900767E-09                254003.5          101312.8984375        288.113891601562       0.100849002599716     -0.0170874190845231                       0 
      -1.95247623811906                    -0.6        1.22498500347137        42.0371704101562    8.29295579445156E-09                254003.5          101312.8984375        288.113891601562       0.100849002599716     -0.0170874196296194                       0 
      -1.94997498749375                    -0.6        1.22498500347137        42.0371704101562    8.72594277989542E-09                254003.5          101312.8984375        288.113891601562       0.100849002599716     -0.0170874201747157                       0 
      -1.94747373686843                    -0.6        1.22498500347137        42.0371704101562     9.1640959437577E-09                254003.5          101312.8984375        288.113891601562       0.100849002599716     -0.0170874204486609                       0 
      -1.94497248624312                    -0.6        1.22498500347137        42.0371704101562    9.60746852009553E-09                254003.5          101312.8984375        288.113891601562       0.100849002599716     -0.0170874204486609                       0 
      -1.94247123561781                    -0.6        1.22498500347137        42.0371704101562    1.00508410964333E-08                254003.5          101312.8984375        288.113891601562       0.100849002599716     -0.0170874204486609                       0 
       -1.9399699849925                    -0.6        1.22498500347137        42.0371704101562    1.04942136727711E-08                254003.5          101312.8984375        288.113891601562       0.100849002599716     -0.0170874204486609                       0 
      -1.93746873436718                    -0.6        1.22498500347137        42.0371704101562    1.09375862491089E-08                254003.5          101312.8984375        288.113891601562       0.100849002599716     -0.0170874204486609                       0 
      -1.93496748374187                    -0.6        1.22498500347137        42.0371704101562    1.13809588254467E-08                254003.5          101312.8984375        288.113891601562       0.100849002599716     -0.0170874204486609                       0 
      -1.93246623311656                    -0.6        1.22498500347137        42.0371704101562    1.18243314017845E-08                254003.5          101312.8984375        288.113891601562       0.100849002599716     -0.0170874204486609                       0 
      -1.92996498249125                    -0.6        1.22498500347137        42.0371704101562    1.22677039781223E-08                254003.5          101312.8984375        288.113891601562       0.100849002599716     -0.0170874204486609                       0 
      -1.92746373186593                    -0.6        1.22498500347137        42.0371704101562    1.27110765544602E-08                254003.5          101312.8984375        288.113891601562       0.100849002599716     -0.0170874204486609                       0 
      -1.92496248124062                    -0.6        1.22498500347137        42.0371704101562    1.31543673958106E-08                254003.5          101312.8984375        288.113891601562       0.100849002599716     -0.0170874204486609                       0 
      -1.92246123061531                    -0.6        1.22498500347137        42.0371704101562    1.35965067252526E-08                254003.5          101312.8984375        288.113891601562       0.100849002599716     -0.0170874204486609                       0 
      -1.91995997998999                    -0.6        1.22498500347137        42.0371704101562    1.40391715199382E-08                254003.5          101312.8984375        288.113891601562       0.100849002599716     -0.0170874204486609                       0 
      -1.91745872936468                    -0.6        1.22498500347137        42.0371704101562     1.4482544096276E-08                254003.5          101312.8984375        288.113891601562       0.100849002599716     -0.0170874204486609                       0 
      -1.91495747873937                    -0.6        1.22498500347137        42.0371704101562    1.49259166726138E-08                254003.5          101312.8984375        288.113891601562       0.100849002599716     -0.0170874204486609                       0 
      -1.91245622811406                    -0.6        1.22498500347137        42.0371704101562    1.53692892489516E-08                254003.5          101312.8984375        288.113891601562       0.100849002599716     -0.0170874204486609                       0 
      -1.90995497748874                    -0.6        1.22498500347137        42.0371704101562    1.58126618252894E-08                254003.5          101312.8984375        288.113891601562       0.100849002599716     -0.0170874204486609                       0 
      -1.90745372686343                    -0.6        1.22498500347137        42.0371704101562    1.62560344016272E-08                254003.5          101312.8984375        288.113891601562       0.100849002599716     -0.0170874204486609                       0 
      -1.90495247623812                    -0.6        1.22498500347137        42.0371704101562     1.6699406977965E-08                254003.5          101312.8984375        288.113891601562       0.100849002599716     -0.0170874204486609                       0 
      -1.90245122561281                    -0.6        1.22498500347137        42.0371704101562    1.71427795543028E-08                254003.5          101312.8984375        288.113891601562       0.100849002599716     -0.0170874204486609                       0 
      -1.89994997498749                    -0.6        1.22498500347137        42.0371704101562    1.75861521306406E-08                254003.5          101312.8984375        288.113891601562       0.100849002599716     -0.0170874204486609                       0 
      -1.89744872436218                    -0.6        1.22498500347137        42.0371704101562    1.80295247069784E-08                254003.5          101312.8984375        288.113891601562       0.100849002599716     -0.0170874204486609                       0 
      -1.89494747373687                    -0.6        1.22498500347137        42.0371704101562    1.84846720994012E-08                254003.5          101312.8984375        288.113891601562       0.100849002599716     -0.0170874204486609                       0 
      -1.89244622311156                    -0.6        1.22498500347137        42.0371704101562    1.89398795907194E-08                254003.5          101312.8984375        288.113891601562       0.100849002599716     -0.0170874204486609                       0 
      -1.88994497248624                    -0.6        1.22498500347137        42.0371704101562    1.93950870820375E-08                254003.5          101312.8984375        288.113891601562       0.100849002599716     -0.0170874204486609                       0 
      -1.88744372186093                    -0.6        1.22498500347137        42.0371704101562    1.98502945733557E-08                254003.5          101312.8984375        288.113891601562       0.100849002599716     -0.0170874204486609                       0 
      -1.88494247123562                    -0.6        1.22498500347137        42.0371704101562    2.03055020646739E-08                254003.5          101312.8984375        288.113891601562       0.100849002599716     -0.0170874204486609                       0 
      -1.88244122061031                    -0.6        1.22498500347137        42.0371704101562    2.07607095559921E-08                254003.5          101312.8984375        288.113891601562       0.100849002599716     -0.0170874204486609                       0 
      -1.87993996998499                    -0.6        1.22498500347137        42.0371704101562    2.12159170473103E-08                254003.5          101312.8984375        288.113891601562       0.100849002599716     -0.0170874204486609                       0 
      -1.87743871935968                    -0.6        1.22498500347137        42.0371704101562    2.16711245386285E-08                254003.5          101312.8984375        288.113891601562       0.100849002599716     -0.0170874204486609                       0 
      -1.87493746873437                    -0.6        1.22498500347137        42.0371704101562    2.21263320299467E-08                254003.5          101312.8984375        288.113891601562       0.100849002599716     -0.0170874204486609                       0 
      -1.87243621810905                    -0.6        1.22498500347137        42.0371704101562    2.25808227048695E-08                254003.5          101312.8984375        288.113891601562       0.100849002599716     -0.0170874204486609                       0 
      -1.86993496748374                    -0.6        1.22498500347137        42.0371704101562    2.30347586569598E-08                254003.5          101312.8984375        288.113891601562       0.100849002599716     -0.0170874204486609                       0 
      -1.86743371685843                    -0.6        1.22498500347137        42.0371704101562    2.34898689286838E-08                254003.5          101312.8984375        288.113891601562       0.100849002599716     -0.0170874204486609                       0 
      -1.86493246623312                    -0.6        1.22498500347137        42.0371704101562     2.3945076420002E-08                254003.5          101312.8984375        288.113891601562       0.100849002599716     -0.0170874204486609                       0 
       -1.8624312156078                    -0.6        1.22498500347137        42.0371704101562    2.44002839113202E-08                254003.5          101312.8984375        288.113891601562       0.100849002599716     -0.0170874204486609                       0 
      -1.85992996498249                    -0.6        1.22498500347137        42.0371704101562    2.48554914026384E-08                254003.5          101312.8984375        288.113891601562       0.100849002599716     -0.0170874204486609                       0 
      -1.85742871435718                    -0.6        1.22498500347137        42.0371704101562    2.53106988939566E-08                254003.5          101312.8984375        288.113891601562       0.100849002599716     -0.0170874204486609                       0 
      -1.85492746373187                    -0.6        1.22498500347137        42.0371704101562    2.57659063852747E-08                254003.5          101312.8984375        288.113891601562       0.100849002599716     -0.0170874204486609                       0 
      -1.85242621310655                    -0.6        1.22498500347137        42.0371704101562     2.6221113876593E-08                254003.5          101312.8984375        288.113891601562       0.100849002599716     -0.0170874204486609                       0 
      -1.84992496248124                    -0.6        1.22498500347137        42.0371704101562    2.66763213679111E-08                254003.5          101312.8984375        288.113891601562       0.100849002599716     -0.0170874204486609                       0 
      -1.84742371185593                    -0.6        1.22498500347137        42.0371704101562    2.71315288592293E-08                254003.5          101312.8984375        288.113891601562       0.100849002599716     -0.0170874204486609                       0 
      -1.84492246123062                    -0.6        1.22498500347137        42.0371704101562    2.75972155333379E-08                254003.5          101312.8984375        288.113891601562       0.100849002599716     -0.0170874206723139                       0 
       -1.8424212106053                    -0.6        1.22498500347137        42.0371704101562    2.80737066457544E-08                254003.5          101312.8984375        288.113891601562       0.100849002599716     -0.0170874211265619                       0 
      -1.83991995997999                    -0.6        1.22498500347137        42.0371704101562     2.8550197758171E-08                254003.5          101312.8984375        288.113891601562       0.100849002599716     -0.0170874215808099                       0 
      -1.83741870935468                    -0.6        1.22498500347137        42.0371704101562    2.90266888705875E-08                254003.5          101312.8984375        288.113891601562       0.100849002599716     -0.0170874220350578                       0 
      -1.83491745872936                    -0.6        1.22498500347137        42.0371704101562     2.9503179983004E-08                254003.5          101312.8984375        288.113891601562       0.100849002599716     -0.0170874224893058                       0 
      -1.83241620810405                    -0.6        1.22498500347137        42.0371704101562    2.99796710954205E-08                254003.5          101312.8984375        288.113891601562       0.100849002599716     -0.0170874229435537                       0 
      -1.82991495747874                    -0.6        1.22498500347137        42.0371704101562     3.0456162207837E-08                254003.5          101312.8984375        288.113891601562       0.100849002599716     -0.0170874233978017                       0 
      -1.82741370685343                    -0.6        1.22498500347137        42.0371704101562    3.09326533202536E-08                254003.5          101312.8984375        288.113891601562       0.100849002599716     -0.0170874238520497                       0 
      -1.82491245622811                    -0.6        1.22498500347137        42.0371704101562    3.14091444326701E-08                254003.5          101312.8984375        288.113891601562       0.100849002599716     -0.0170874243062976                       0 
       -1.8224112056028                    -0.6        1.22498500347137        42.0371704101562    3.18855535031458E-08                254003.5          101312.8984375        288.113891601562       0.100849002599716     -0.0170874247605456                       0 
      -1.81990995497749                    -0.6        1.22498500347137        42.0371704101562    3.23607040205631E-08                254003.5          101312.8984375        288.113891601562       0.100849002599716     -0.0170874252147935                       0 
      -1.81740870435218                    -0.6        1.22498500347137        42.0371704101562    3.28364189347234E-08                254003.5          101312.8984375        288.113891601562       0.100849002599716     -0.0170874256690415                       0 
      -1.81490745372686                    -0.6        1.22498500347137        42.0371704101562    3.33129100471399E-08                254003.5          101312.8984375        288.113891601562       0.100849002599716     -0.0170874261232895                       0 
      -1.81240620310155                    -0.6        1.22498500347137        42.0371704101562    3.37894011595564E-08                254003.5          101312.8984375        288.113891601562       0.100849002599716     -0.0170874265775374                       0 
      -1.80990495247624                    -0.6        1.22498500347137        42.0371704101562    3.42658922719729E-08                254003.5          101312.8984375        288.113891601562       0.100849002599716     -0.0170874270317854                       0 
      -1.80740370185093                    -0.6        1.22498500347137        42.0371704101562    3.47423833843894E-08                254003.5          101312.8984375        288.113891601562       0.100849002599716     -0.0170874274860334                       0 
      -1.80490245122561                    -0.6        1.22498500347137        42.0371704101562     3.5218874496806E-08                254003.5          101312.8984375        288.113891601562       0.100849002599716     -0.0170874279402813                       0 
       -1.8024012006003                    -0.6        1.22498500347137        42.0371704101562    3.56953656092225E-08                254003.5          101312.8984375        288.113891601562       0.100849002599716     -0.0170874283945293                       0 
      -1.79989994997499                    -0.6        1.22498500347137        42.0371704101562     3.6171856721639E-08                254003.5          101312.8984375        288.113891601562       0.100849002599716     -0.0170874288487772                       0 
      -1.79739869934967                    -0.6        1.22498500347137        42.0371704101562    3.66483478340555E-08                254003.5          101312.8984375        288.113891601562       0.100849002599716     -0.0170874293030252                       0 
      -1.79489744872436                    -0.6        1.22498500347137        42.0371704101562     3.7124838946472E-08                254003.5          101312.8984375        288.113891601562       0.100849002599716     -0.0170874297572732                       0 
      -1.79239619809905                    -0.6        1.22498500347137        42.0371704101562    3.76289019968745E-08                254003.5          101312.8984375        288.113891601562       0.100849002599716     -0.0170874297618866                       0 
      -1.78989494747374                    -0.6        1.22498500347137        42.0371704101562    3.81332479466406E-08                254003.5          101312.8984375        288.113891601562       0.100849002599716     -0.0170874297618866                       0 
      -1.78739369684842                    -0.6        1.22498500347137        42.0371704101562    3.86375938964067E-08                254003.5          101312.8984375        288.113891601562       0.100849002599716     -0.0170874297618866                       0 
      -1.78489244622311                    -0.6        1.22498500347137        42.0371704101562    3.91419398461728E-08                254003.5          101312.8984375        288.113891601562       0.100849002599716     -0.0170874297618866                       0 
       -1.7823911955978                    -0.6        1.22498500347137        42.0371704101562    3.96462857959388E-08                254003.5          101312.8984375        288.113891601562       0.100849002599716     -0.0170874297618866                       0 
      -1.77988994497249                    -0.6        1.22498500347137        42.0371704101562    4.01506317457049E-08                254003.5          101312.8984375        288.113891601562       0.100849002599716     -0.0170874297618866                       0 
      -1.77738869434717                    -0.6        1.22498500347137        42.0371704101562     4.0654977695471E-08                254003.5          101312.8984375        288.113891601562       0.100849002599716     -0.0170874297618866                       0 
      -1.77488744372186                    -0.6        1.22498500347137        42.0371704101562    4.11593236452371E-08                254003.5          101312.8984375        288.113891601562       0.100849002599716     -0.0170874297618866                       0 
      -1.77238619309655                    -0.6        1.22498500347137        42.0371704101562    4.16636695950032E-08                254003.5          101312.8984375        288.113891601562       0.100849002599716     -0.0170874297618866                       0 
      -1.76988494247124                    -0.6        1.22498500347137        42.0371704101562    4.21672039751385E-08                254003.5          101312.8984375        288.113891601562       0.100849002599716     -0.0170874297618866                       0 
      -1.76738369184592                    -0.6        1.22498500347137        42.0371704101562    4.26700972199281E-08                254003.5          101312.8984375        288.113891601562       0.100849002599716     -0.0170874297618866                       0 
      -1.76488244122061                    -0.6        1.22498500347137        42.0371704101562    4.31743247215111E-08                254003.5          101312.8984375        288.113891601562       0.100849002599716     -0.0170874297618866                       0 
       -1.7623811905953                    -0.6        1.22498500347137        42.0371704101562    4.36786706712771E-08                254003.5          101312.8984375        288.113891601562       0.100849002599716     -0.0170874297618866                       0 
      -1.75987993996998                    -0.6        1.22498500347137        42.0371704101562    4.41830166210433E-08                254003.5          101312.8984375        288.113891601562       0.100849002599716     -0.0170874297618866                       0 
      -1.75737868934467                    -0.6        1.22498500347137        42.0371704101562    4.46873625708093E-08                254003.5          101312.8984375        288.113891601562       0.100849002599716     -0.0170874297618866                       0 
      -1.75487743871936                    -0.6        1.22498500347137        42.0371704101562    4.51917085205754E-08                254003.5          101312.8984375        288.113891601562       0.100849002599716     -0.0170874297618866                       0 
      -1.75237618809405                    -0.6        1.22498500347137        42.0371704101562    4.56960544703415E-08                254003.5          101312.8984375        288.113891601562       0.100849002599716     -0.0170874297618866                       0 
      -1.74987493746873                    -0.6        1.22498500347137        42.0371704101562    4.62004004201076E-08                254003.5          101312.8984375        288.113891601562       0.100849002599716     -0.0170874297618866                       0 
      -1.74737368684342                    -0.6        1.22498500347137        42.0371704101562    4.67047463698737E-08                254003.5          101312.8984375        288.113891601562       0.100849002599716     -0.0170874297618866                       0 
      -1.74487243621811                    -0.6        1.22498500347137        42.0371704101562    4.72090923196397E-08                254003.5          101312.8984375        288.113891601562       0.100849002599716     -0.0170874297618866                       0 
       -1.7423711855928                    -0.6        1.22498500347137        42.0371704101562    4.77313930245434E-08                254003.5          101312.8984375        288.113891601562       0.100849002599716     -0.0170874297618866                       0 
      -1.73986993496748                    -0.6        1.22498500347137        42.0371704101562    4.82725858002469E-08                254003.5          101312.8984375        288.113891601562       0.100849002599716     -0.0170874297618866                       0 
      -1.73736868434217                    -0.6        1.22498500347137        42.0371704101562    4.88137785759505E-08                254003.5          101312.8984375        288.113891601562       0.100849002599716     -0.0170874297618866                       0 
      -1.73486743371686                    -0.6        1.22498500347137        42.0371704101562    4.93549713516541E-08                254003.5          101312.8984375        288.113891601562       0.100849002599716     -0.0170874297618866                       0 
      -1.73236618309155                    -0.6        1.22498500347137        42.0371704101562    4.98961641273576E-08                254003.5          101312.8984375        288.113891601562       0.100849002599716     -0.0170874297618866                       0 
      -1.72986493246623                    -0.6        1.22498500347137        42.0371704101562    5.04373569030612E-08                254003.5          101312.8984375        288.113891601562       0.100849002599716     -0.0170874297618866                       0 
      -1.72736368184092                    -0.6        1.22498500347137        42.0371704101562    5.09785496787647E-08                254003.5          101312.8984375        288.113891601562       0.100849002599716     -0.0170874297618866                       0 
      -1.72486243121561                    -0.6        1.22498500347137        42.0371704101562    5.15197424544683E-08                254003.5          101312.8984375        288.113891601562       0.100849002599716     -0.0170874297618866                       0 
       -1.7223611805903                    -0.6        1.22498500347137        42.0371704101562    5.20609352301719E-08                254003.5          101312.8984375        288.113891601562       0.100849002599716     -0.0170874297618866                       0 