TITLE = "SU2 Simulation"
VARIABLES = "Iteration","Sens_Geo","Sens_Mach","Sens_AoA","Sens_Press","Sens_Temp","Sens_AoS","Res_AdjFlow[0]","Res_AdjFlow[1]","Res_AdjFlow[2]","Res_AdjFlow[3]","Res_AdjFlow[4]","Linear_Solver_Iterations","CFL_Number","Time(min)"
ZONE T= "Convergence history"
           0, 0.00000000e+00, 0.00000000e+00, 0.00000000e+00, 0.00000000e+00, 0.00000000e+00, 0.0, -1.44076638e+01, -1.59350217e+01, -1.62652081e+01, -1.68011972e+01, 0.0, 5.0000000000, 10.0000000000, 60.0000000000
           1, 0.00000000e+00, 0.00000000e+00, 0.00000000e+00, 0.00000000e+00, 0.00000000e+00, 0.0, -1.37308484e+01, -1.52622963e+01, -1.55780896e+01, -1.79308533e+01, 0.0, 5.0000000000, 10.0000000000, 60.0000000000
           2, 0.00000000e+00, 0.00000000e+00, 0.00000000e+00, 0.00000000e+00, 0.00000000e+00, 0.0, -1.24413686e+01, -1.39733756e+01, -1.43350717e+01, -1.67347003e+01, 0.0, 5.0000000000, 10.0000000000, 60.0000000000
           3, 0.00000000e+00, 0.00000000e+00, 0.00000000e+00, 0.00000000e+00, 0.00000000e+00, 0.0, -1.25696885e+01, -1.41025197e+01, -1.47938579e+01, -1.69768504e+01, 0.0, 5.0000000000, 10.0000000000, 60.0000000000
           4, 0.00000000e+00, 0.00000000e+00, 0.00000000e+00, 0.00000000e+00, 0.00000000e+00, 0.0, -1.26313496e+01, -1.41644659e+01, -1.47097605e+01, -1.70628634e+01, 0.0, 5.0000000000, 10.0000000000, 60.0000000000
           5, 0.00000000e+00, 0.00000000e+00, 0.00000000e+00, 0.00000000e+00, 0.00000000e+00, 0.0, -1.27059930e+01, -1.42392835e+01, -1.48576449e+01, -1.70827980e+01, 0.0, 5.0000000000, 10.0000000000, 60.0000000000
           6, 0.00000000e+00, 0.00000000e+00, 0.00000000e+00, 0.00000000e+00, 0.00000000e+00, 0.0, -1.28143619e+01, -1.43482202e+01, -1.50312939e+01, -1.70723576e+01, 0.0, 5.0000000000, 10.0000000000, 60.0000000000
           7, 0.00000000e+00, 0.00000000e+00, 0.00000000e+00, 0.00000000e+00, 0.00000000e+00, 0.0, -1.29989198e+01, -1.45349197e+01, -1.51439448e+01, -1.70553077e+01, 0.0, 5.0000000000, 10.0000000000, 60.0000000000
           8, 0.00000000e+00, 0.00000000e+00, 0.00000000e+00, 0.00000000e+00, 0.00000000e+00, 0.0, -1.33015950e+01, -1.48488912e+01, -1.52263748e+01, -1.70517811e+01, 0.0, 5.0000000000, 10.0000000000, 60.0000000000
           9, 0.00000000e+00, 0.00000000e+00, 0.00000000e+00, 0.00000000e+00, 0.00000000e+00, 0.0, -1.32888970e+01, -1.48340882e+01, -1.52990233e+01, -1.70711668e+01, 0.0, 5.0000000000, 10.0000000000, 60.0000000000
          10, 0.00000000e+00, 0.00000000e+00, 0.00000000e+00, 0.00000000e+00, 0.00000000e+00, 0.0, -1.30500533e+01, -1.45859118e+01, -1.53647559e+01, -1.71127509e+01, 0.0, 5.0000000000, 10.0000000000, 60.0000000000
          11, 0.00000000e+00, 0.00000000e+00, 0.00000000e+00, 0.00000000e+00, 0.00000000e+00, 0.0, -1.29286308e+01, -1.44625031e+01, -1.54275581e+01, -1.71694762e+01, 0.0, 5.0000000000, 10.0000000000, 60.0000000000
          12, 0.00000000e+00, 0.00000000e+00, 0.00000000e+00, 0.00000000e+00, 0.00000000e+00, 0.0, -1.28806231e+01, -1.44137897e+01, -1.54897564e+01, -1.72317646e+01, 0.0, 5.0000000000, 10.0000000000, 60.0000000000
          13, 0.00000000e+00, 0.00000000e+00, 0.00000000e+00, 0.00000000e+00, 0.00000000e+00, 0.0, -1.28776541e+01, -1.44104313e+01, -1.55480783e+01, -1.72926483e+01, 0.0, 5.0000000000, 10.0000000000, 60.0000000000
          14, 0.00000000e+00, 0.00000000e+00, 0.00000000e+00, 0.00000000e+00, 0.00000000e+00, 0.0, -1.29043876e+01, -1.44368681e+01, -1.55923787e+01, -1.73515700e+01, 0.0, 5.0000000000, 10.0000000000, 60.0000000000
          15, 0.00000000e+00, 0.00000000e+00, 0.00000000e+00, 0.00000000e+00, 0.00000000e+00, 0.0, -1.29518217e+01, -1.44840558e+01, -1.56140764e+01, -1.74128527e+01, 0.0, 5.0000000000, 10.0000000000, 60.0000000000
          16, 0.00000000e+00, 0.00000000e+00, 0.00000000e+00, 0.00000000e+00, 0.00000000e+00, 0.0, -1.30148711e+01, -1.45469484e+01, -1.56199559e+01, -1.74813836e+01, 0.0, 5.0000000000, 10.0000000000, 60.0000000000
          17, 0.00000000e+00, 0.00000000e+00, 0.00000000e+00, 0.00000000e+00, 0.00000000e+00, 0.0, -1.30911530e+01, -1.46232507e+01, -1.56287448e+01, -1.75602847e+01, 0.0, 5.0000000000, 10.0000000000, 60.0000000000
          18, 0.00000000e+00, 0.00000000e+00, 0.00000000e+00, 0.00000000e+00, 0.00000000e+00, 0.0, -1.31800140e+01, -1.47124201e+01, -1.56572642e+01, -1.76509721e+01, 0.0, 5.0000000000, 10.0000000000, 60.0000000000
          19, 0.00000000e+00, 0.00000000e+00, 0.00000000e+00, 0.00000000e+00, 0.00000000e+00, 0.0, -1.32817237e+01, -1.48148457e+01, -1.57160796e+01, -1.77539523e+01, 0.0, 5.0000000000, 10.0000000000, 60.0000000000
          20, 0.00000000e+00, 0.00000000e+00, 0.00000000e+00, 0.00000000e+00, 0.00000000e+00, 0.0, -1.33969034e+01, -1.49312711e+01, -1.58115866e+01, -1.78694477e+01, 0.0, 5.0000000000, 10.0000000000, 60.0000000000
          21, 0.00000000e+00, 0.00000000e+00, 0.00000000e+00, 0.00000000e+00, 0.00000000e+00, 0.0, -1.35261508e+01, -1.50624171e+01, -1.59459710e+01, -1.79977129e+01, 0.0, 5.0000000000, 10.0000000000, 60.0000000000
          22, 0.00000000e+00, 0.00000000e+00, 0.00000000e+00, 0.00000000e+00, 0.00000000e+00, 0.0, -1.36697549e+01, -1.52086834e+01, -1.61040958e+01, -1.81391561e+01, 0.0, 5.0000000000, 10.0000000000, 60.0000000000
          23, 0.00000000e+00, 0.00000000e+00, 0.00000000e+00, 0.00000000e+00, 0.00000000e+00, 0.0, -1.38273230e+01, -1.53697254e+01, -1.62155733e+01, -1.82942259e+01, 0.0, 5.0000000000, 10.0000000000, 60.0000000000
          24, 0.00000000e+00, 0.00000000e+00, 0.00000000e+00, 0.00000000e+00, 0.00000000e+00, 0.0, -1.39971148e+01, -1.55436669e+01, -1.62189258e+01, -1.84628401e+01, 0.0, 5.0000000000, 10.0000000000, 60.0000000000
          25, 0.00000000e+00, 0.00000000e+00, 0.00000000e+00, 0.00000000e+00, 0.00000000e+00, 0.0, -1.41749409e+01, -1.57258372e+01, -1.61881336e+01, -1.86429950e+01, 0.0, 5.0000000000, 10.0000000000, 60.0000000000
          26, 0.00000000e+00, 0.00000000e+00, 0.00000000e+00, 0.00000000e+00, 0.00000000e+00, 0.0, -1.43528527e+01, -1.59076601e+01, -1.61805351e+01, -1.88268048e+01, 0.0, 5.0000000000, 10.0000000000, 60.0000000000
          27, 0.00000000e+00, 0.00000000e+00, 0.00000000e+00, 0.00000000e+00, 0.00000000e+00, 0.0, -1.45187934e+01, -1.60779215e+01, -1.62017483e+01, -1.89943515e+01, 0.0, 5.0000000000, 10.0000000000, 60.0000000000
          28, 0.00000000e+00, 0.00000000e+00, 0.00000000e+00, 0.00000000e+00, 0.00000000e+00, 0.0, -1.46592496e+01, -1.62279377e+01, -1.62408535e+01, -1.91201659e+01, 0.0, 5.0000000000, 10.0000000000, 60.0000000000
          29, 0.00000000e+00, 0.00000000e+00, 0.00000000e+00, 0.00000000e+00, 0.00000000e+00, 0.0, -1.47653654e+01, -1.63558989e+01, -1.62816157e+01, -1.92036954e+01, 0.0, 5.0000000000, 10.0000000000, 60.0000000000
          30, 0.00000000e+00, 0.00000000e+00, 0.00000000e+00, 0.00000000e+00, 0.00000000e+00, 0.0, -1.48377614e+01, -1.64645656e+01, -1.63099952e+01, -1.92707403e+01, 0.0, 5.0000000000, 10.0000000000, 60.0000000000
          31, 0.00000000e+00, 0.00000000e+00, 0.00000000e+00, 0.00000000e+00, 0.00000000e+00, 0.0, -1.48848616e+01, -1.65573058e+01, -1.63236543e+01, -1.93401841e+01, 0.0, 5.0000000000, 10.0000000000, 60.0000000000
          32, 0.00000000e+00, 0.00000000e+00, 0.00000000e+00, 0.00000000e+00, 0.00000000e+00, 0.0, -1.49166790e+01, -1.66376789e+01, -1.63317800e+01, -1.94104291e+01, 0.0, 5.0000000000, 10.0000000000, 60.0000000000
          33, 0.00000000e+00, 0.00000000e+00, 0.00000000e+00, 0.00000000e+00, 0.00000000e+00, 0.0, -1.49398474e+01, -1.67085253e+01, -1.63453718e+01, -1.94617130e+01, 0.0, 5.0000000000, 10.0000000000, 60.0000000000
          34, 0.00000000e+00, 0.00000000e+00, 0.00000000e+00, 0.00000000e+00, 0.00000000e+00, 0.0, -1.49566191e+01, -1.67680235e+01, -1.63712977e+01, -1.94750345e+01, 0.0, 5.0000000000, 10.0000000000, 60.0000000000
          35, 0.00000000e+00, 0.00000000e+00, 0.00000000e+00, 0.00000000e+00, 0.00000000e+00, 0.0, -1.49668211e+01, -1.68080726e+01, -1.64119277e+01, -1.94593567e+01, 0.0, 5.0000000000, 10.0000000000, 60.0000000000
          36, 0.00000000e+00, 0.00000000e+00, 0.00000000e+00, 0.00000000e+00, 0.00000000e+00, 0.0, -1.49706134e+01, -1.68222213e+01, -1.64656176e+01, -1.94401165e+01, 0.0, 5.0000000000, 10.0000000000, 60.0000000000
          37, 0.00000000e+00, 0.00000000e+00, 0.00000000e+00, 0.00000000e+00, 0.00000000e+00, 0.0, -1.49699870e+01, -1.68164446e+01, -1.65259573e+01, -1.94348147e+01, 0.0, 5.0000000000, 10.0000000000, 60.0000000000
          38, 0.00000000e+00, 0.00000000e+00, 0.00000000e+00, 0.00000000e+00, 0.00000000e+00, 0.0, -1.49682152e+01, -1.68055190e+01, -1.65810840e+01, -1.94508329e+01, 0.0, 5.0000000000, 10.0000000000, 60.0000000000
          39, 0.00000000e+00, 0.00000000e+00, 0.00000000e+00, 0.00000000e+00, 0.00000000e+00, 0.0, -1.49683449e+01, -1.68019975e+01, -1.66179817e+01, -1.94907619e+01, 0.0, 5.0000000000, 10.0000000000, 60.0000000000
          40, 0.00000000e+00, 0.00000000e+00, 0.00000000e+00, 0.00000000e+00, 0.00000000e+00, 0.0, -1.49721233e+01, -1.68124532e+01, -1.66329777e+01, -1.95555018e+01, 0.0, 5.0000000000, 10.0000000000, 60.0000000000
          41, 0.00000000e+00, 0.00000000e+00, 0.00000000e+00, 0.00000000e+00, 0.00000000e+00, 0.0, -1.49797303e+01, -1.68388682e+01, -1.66348812e+01, -1.96449500e+01, 0.0, 5.0000000000, 10.0000000000, 60.0000000000
          42, 0.00000000e+00, 0.00000000e+00, 0.00000000e+00, 0.00000000e+00, 0.00000000e+00, 0.0, -1.49900462e+01, -1.68800216e+01, -1.66353280e+01, -1.97564792e+01, 0.0, 5.0000000000, 10.0000000000, 60.0000000000
          43, 0.00000000e+00, 0.00000000e+00, 0.00000000e+00, 0.00000000e+00, 0.00000000e+00, 0.0, -1.50012068e+01, -1.69315113e+01, -1.66410737e+01, -1.98797086e+01, 0.0, 5.0000000000, 10.0000000000, 60.0000000000
          44, 0.00000000e+00, 0.00000000e+00, 0.00000000e+00, 0.00000000e+00, 0.00000000e+00, 0.0, -1.50113115e+01, -1.69850074e+01, -1.66535112e+01, -1.99884020e+01, 0.0, 5.0000000000, 10.0000000000, 60.0000000000
          45, 0.00000000e+00, 0.00000000e+00, 0.00000000e+00, 0.00000000e+00, 0.00000000e+00, 0.0, -1.50190896e+01, -1.70290748e+01, -1.66707229e+01, -2.00509515e+01, 0.0, 5.0000000000, 10.0000000000, 60.0000000000
          46, 0.00000000e+00, 0.00000000e+00, 0.00000000e+00, 0.00000000e+00, 0.00000000e+00, 0.0, -1.50242317e+01, -1.70546619e+01, -1.66895220e+01, -2.00702743e+01, 0.0, 5.0000000000, 10.0000000000, 60.0000000000
          47, 0.00000000e+00, 0.00000000e+00, 0.00000000e+00, 0.00000000e+00, 0.00000000e+00, 0.0, -1.50272399e+01, -1.70618476e+01, -1.67071692e+01, -2.00758626e+01, 0.0, 5.0000000000, 10.0000000000, 60.0000000000
          48, 0.00000000e+00, 0.00000000e+00, 0.00000000e+00, 0.00000000e+00, 0.00000000e+00, 0.0, -1.50289701e+01, -1.70584275e+01, -1.67224618e+01, -2.00846608e+01, 0.0, 5.0000000000, 10.0000000000, 60.0000000000
          49, 0.00000000e+00, 0.00000000e+00, 0.00000000e+00, 0.00000000e+00, 0.00000000e+00, 0.0, -1.50301979e+01, -1.70525435e+01, -1.67357433e+01, -2.00972641e+01, 0.0, 5.0000000000, 10.0000000000, 60.0000000000
          50, 0.00000000e+00, 0.00000000e+00, 0.00000000e+00, 0.00000000e+00, 0.00000000e+00, 0.0, -1.50314058e+01, -1.70487241e+01, -1.67480167e+01, -2.01083695e+01, 0.0, 5.0000000000, 10.0000000000, 60.0000000000
          51, 0.00000000e+00, 0.00000000e+00, 0.00000000e+00, 0.00000000e+00, 0.00000000e+00, 0.0, -1.50327874e+01, -1.70482779e+01, -1.67599703e+01, -2.01151639e+01, 0.0, 5.0000000000, 10.0000000000, 60.0000000000
          52, 0.00000000e+00, 0.00000000e+00, 0.00000000e+00, 0.00000000e+00, 0.00000000e+00, 0.0, -1.50343613e+01, -1.70508822e+01, -1.67715368e+01, -2.01204937e+01, 0.0, 5.0000000000, 10.0000000000, 60.0000000000
          53, 0.00000000e+00, 0.00000000e+00, 0.00000000e+00, 0.00000000e+00, 0.00000000e+00, 0.0, -1.50360881e+01, -1.70558115e+01, -1.67820582e+01, -2.01304273e+01, 0.0, 5.0000000000, 10.0000000000, 60.0000000000
          54, 0.00000000e+00, 0.00000000e+00, 0.00000000e+00, 0.00000000e+00, 0.00000000e+00, 0.0, -1.50379385e+01, -1.70625423e+01, -1.67907912e+01, -2.01504940e+01, 0.0, 5.0000000000, 10.0000000000, 60.0000000000
          55, 0.00000000e+00, 0.00000000e+00, 0.00000000e+00, 0.00000000e+00, 0.00000000e+00, 0.0, -1.50399047e+01, -1.70708484e+01, -1.67973948e+01, -2.01839256e+01, 0.0, 5.0000000000, 10.0000000000, 60.0000000000
          56, 0.00000000e+00, 0.00000000e+00, 0.00000000e+00, 0.00000000e+00, 0.00000000e+00, 0.0, -1.50419796e+01, -1.70806069e+01, -1.68021200e+01, -2.02313644e+01, 0.0, 5.0000000000, 10.0000000000, 60.0000000000
          57, 0.00000000e+00, 0.00000000e+00, 0.00000000e+00, 0.00000000e+00, 0.00000000e+00, 0.0, -1.50441347e+01, -1.70915556e+01, -1.68056454e+01, -2.02905228e+01, 0.0, 5.0000000000, 10.0000000000, 60.0000000000
          58, 0.00000000e+00, 0.00000000e+00, 0.00000000e+00, 0.00000000e+00, 0.00000000e+00, 0.0, -1.50463146e+01, -1.71031695e+01, -1.68087357e+01, -2.03551498e+01, 0.0, 5.0000000000, 10.0000000000, 60.0000000000
          59, 0.00000000e+00, 0.00000000e+00, 0.00000000e+00, 0.00000000e+00, 0.00000000e+00, 0.0, -1.50484489e+01, -1.71147145e+01, -1.68119552e+01, -2.04143828e+01, 0.0, 5.0000000000, 10.0000000000, 60.0000000000
          60, 0.00000000e+00, 0.00000000e+00, 0.00000000e+00, 0.00000000e+00, 0.00000000e+00, 0.0, -1.50504737e+01, -1.71254382e+01, -1.68155521e+01, -2.04561668e+01, 0.0, 5.0000000000, 10.0000000000, 60.0000000000
          61, 0.00000000e+00, 0.00000000e+00, 0.00000000e+00, 0.00000000e+00, 0.00000000e+00, 0.0, -1.50523497e+01, -1.71347943e+01, -1.68195027e+01, -2.04758140e+01, 0.0, 5.0000000000, 10.0000000000, 60.0000000000
          62, 0.00000000e+00, 0.00000000e+00, 0.00000000e+00, 0.00000000e+00, 0.00000000e+00, 0.0, -1.50540687e+01, -1.71425815e+01, -1.68236371e+01, -2.04795377e+01, 0.0, 5.0000000000, 10.0000000000, 60.0000000000
          63, 0.00000000e+00, 0.00000000e+00, 0.00000000e+00, 0.00000000e+00, 0.00000000e+00, 0.0, -1.50556482e+01, -1.71489322e+01, -1.68277704e+01, -2.04772385e+01, 0.0, 5.0000000000, 10.0000000000, 60.0000000000
          64, 0.00000000e+00, 0.00000000e+00, 0.00000000e+00, 0.00000000e+00, 0.00000000e+00, 0.0, -1.50571194e+01, -1.71541767e+01, -1.68317853e+01, -2.04754589e+01, 0.0, 5.0000000000, 10.0000000000, 60.0000000000
          65, 0.00000000e+00, 0.00000000e+00, 0.00000000e+00, 0.00000000e+00, 0.00000000e+00, 0.0, -1.50585139e+01, -1.71586732e+01, -1.68356514e+01, -2.04764111e+01, 0.0, 5.0000000000, 10.0000000000, 60.0000000000
          66, 0.00000000e+00, 0.00000000e+00, 0.00000000e+00, 0.00000000e+00, 0.00000000e+00, 0.0, -1.50598559e+01, -1.71626870e+01, -1.68393985e+01, -2.04797626e+01, 0.0, 5.0000000000, 10.0000000000, 60.0000000000
          67, 0.00000000e+00, 0.00000000e+00, 0.00000000e+00, 0.00000000e+00, 0.00000000e+00, 0.0, -1.50611597e+01, -1.71663526e+01, -1.68430738e+01, -2.04844030e+01, 0.0, 5.0000000000, 10.0000000000, 60.0000000000
          68, 0.00000000e+00, 0.00000000e+00, 0.00000000e+00, 0.00000000e+00, 0.00000000e+00, 0.0, -1.50624313e+01, -1.71697025e+01, -1.68467105e+01, -2.04894893e+01, 0.0, 5.0000000000, 10.0000000000, 60.0000000000
          69, 0.00000000e+00, 0.00000000e+00, 0.00000000e+00, 0.00000000e+00, 0.00000000e+00, 0.0, -1.50636729e+01, -1.71727240e+01, -1.68503165e+01, -2.04947486e+01, 0.0, 5.0000000000, 10.0000000000, 60.0000000000
          70, 0.00000000e+00, 0.00000000e+00, 0.00000000e+00, 0.00000000e+00, 0.00000000e+00, 0.0, -1.50648861e+01, -1.71754107e+01, -1.68538824e+01, -2.05002581e+01, 0.0, 5.0000000000, 10.0000000000, 60.0000000000
          71, 0.00000000e+00, 0.00000000e+00, 0.00000000e+00, 0.00000000e+00, 0.00000000e+00, 0.0, -1.50660732e+01, -1.71777889e+01, -1.68573943e+01, -2.05060605e+01, 0.0, 5.0000000000, 10.0000000000, 60.0000000000
          72, 0.00000000e+00, 0.00000000e+00, 0.00000000e+00, 0.00000000e+00, 0.00000000e+00, 0.0, -1.50672380e+01, -1.71799184e+01, -1.68608449e+01, -2.05119203e+01, 0.0, 5.0000000000, 10.0000000000, 60.0000000000
          73, 0.00000000e+00, 0.00000000e+00, 0.00000000e+00, 0.00000000e+00, 0.00000000e+00, 0.0, -1.50683844e+01, -1.71818774e+01, -1.68642356e+01, -2.05173388e+01, 0.0, 5.0000000000, 10.0000000000, 60.0000000000
          74, 0.00000000e+00, 0.00000000e+00, 0.00000000e+00, 0.00000000e+00, 0.00000000e+00, 0.0, -1.50695160e+01, -1.71837452e+01, -1.68675726e+01, -2.05217671e+01, 0.0, 5.0000000000, 10.0000000000, 60.0000000000
          75, 0.00000000e+00, 0.00000000e+00, 0.00000000e+00, 0.00000000e+00, 0.00000000e+00, 0.0, -1.50706351e+01, -1.71855898e+01, -1.68708608e+01, -2.05248622e+01, 0.0, 5.0000000000, 10.0000000000, 60.0000000000
          76, 0.00000000e+00, 0.00000000e+00, 0.00000000e+00, 0.00000000e+00, 0.00000000e+00, 0.0, -1.50717433e+01, -1.71874626e+01, -1.68741005e+01, -2.05266325e+01, 0.0, 5.0000000000, 10.0000000000, 60.0000000000
          77, 0.00000000e+00, 0.00000000e+00, 0.00000000e+00, 0.00000000e+00, 0.00000000e+00, 0.0, -1.50728411e+01, -1.71893980e+01, -1.68772865e+01, -2.05274046e+01, 0.0, 5.0000000000, 10.0000000000, 60.0000000000
          78, 0.00000000e+00, 0.00000000e+00, 0.00000000e+00, 0.00000000e+00, 0.00000000e+00, 0.0, -1.50739286e+01, -1.71914156e+01, -1.68804116e+01, -2.05276601e+01, 0.0, 5.0000000000, 10.0000000000, 60.0000000000
          79, 0.00000000e+00, 0.00000000e+00, 0.00000000e+00, 0.00000000e+00, 0.00000000e+00, 0.0, -1.50750058e+01, -1.71935211e+01, -1.68834701e+01, -2.05278506e+01, 0.0, 5.0000000000, 10.0000000000, 60.0000000000
          80, 0.00000000e+00, 0.00000000e+00, 0.00000000e+00, 0.00000000e+00, 0.00000000e+00, 0.0, -1.50760721e+01, -1.71957075e+01, -1.68864612e+01, -2.05282787e+01, 0.0, 5.0000000000, 10.0000000000, 60.0000000000
          81, 0.00000000e+00, 0.00000000e+00, 0.00000000e+00, 0.00000000e+00, 0.00000000e+00, 0.0, -1.50771270e+01, -1.71979564e+01, -1.68893890e+01, -2.05290684e+01, 0.0, 5.0000000000, 10.0000000000, 60.0000000000
          82, 0.00000000e+00, 0.00000000e+00, 0.00000000e+00, 0.00000000e+00, 0.00000000e+00, 0.0, -1.50781695e+01, -1.72002407e+01, -1.68922618e+01, -2.05302025e+01, 0.0, 5.0000000000, 10.0000000000, 60.0000000000
          83, 0.00000000e+00, 0.00000000e+00, 0.00000000e+00, 0.00000000e+00, 0.00000000e+00, 0.0, -1.50791988e+01, -1.72025284e+01, -1.68950893e+01, -2.05315880e+01, 0.0, 5.0000000000, 10.0000000000, 60.0000000000
          84, 0.00000000e+00, 0.00000000e+00, 0.00000000e+00, 0.00000000e+00, 0.00000000e+00, 0.0, -1.50802141e+01, -1.72047883e+01, -1.68978806e+01, -2.05331148e+01, 0.0, 5.0000000000, 10.0000000000, 60.0000000000
          85, 0.00000000e+00, 0.00000000e+00, 0.00000000e+00, 0.00000000e+00, 0.00000000e+00, 0.0, -1.50812149e+01, -1.72069940e+01, -1.69006430e+01, -2.05346914e+01, 0.0, 5.0000000000, 10.0000000000, 60.0000000000
          86, 0.00000000e+00, 0.00000000e+00, 0.00000000e+00, 0.00000000e+00, 0.00000000e+00, 0.0, -1.50822010e+01, -1.72091274e+01, -1.69033809e+01, -2.05362566e+01, 0.0, 5.0000000000, 10.0000000000, 60.0000000000
          87, 0.00000000e+00, 0.00000000e+00, 0.00000000e+00, 0.00000000e+00, 0.00000000e+00, 0.0, -1.50831726e+01, -1.72111798e+01, -1.69060964e+01, -2.05377739e+01, 0.0, 5.0000000000, 10.0000000000, 60.0000000000
          88, 0.00000000e+00, 0.00000000e+00, 0.00000000e+00, 0.00000000e+00, 0.00000000e+00, 0.0, -1.50841303e+01, -1.72131513e+01, -1.69087901e+01, -2.05392221e+01, 0.0, 5.0000000000, 10.0000000000, 60.0000000000
          89, 0.00000000e+00, 0.00000000e+00, 0.00000000e+00, 0.00000000e+00, 0.00000000e+00, 0.0, -1.50850749e+01, -1.72150483e+01, -1.69114613e+01, -2.05405884e+01, 0.0, 5.0000000000, 10.0000000000, 60.0000000000
          90, 0.00000000e+00, 0.00000000e+00, 0.00000000e+00, 0.00000000e+00, 0.00000000e+00, 0.0, -1.50860072e+01, -1.72168811e+01, -1.69141093e+01, -2.05418660e+01, 0.0, 5.0000000000, 10.0000000000, 60.0000000000
          91, 0.00000000e+00, 0.00000000e+00, 0.00000000e+00, 0.00000000e+00, 0.00000000e+00, 0.0, -1.50869279e+01, -1.72186608e+01, -1.69167328e+01, -2.05430559e+01, 0.0, 5.0000000000, 10.0000000000, 60.0000000000
          92, 0.00000000e+00, 0.00000000e+00, 0.00000000e+00, 0.00000000e+00, 0.00000000e+00, 0.0, -1.50878377e+01, -1.72203981e+01, -1.69193309e+01, -2.05441671e+01, 0.0, 5.0000000000, 10.0000000000, 60.0000000000
          93, 0.00000000e+00, 0.00000000e+00, 0.00000000e+00, 0.00000000e+00, 0.00000000e+00, 0.0, -1.50887373e+01, -1.72221018e+01, -1.69219027e+01, -2.05452159e+01, 0.0, 5.0000000000, 10.0000000000, 60.0000000000
          94, 0.00000000e+00, 0.00000000e+00, 0.00000000e+00, 0.00000000e+00, 0.00000000e+00, 0.0, -1.50896271e+01, -1.72237787e+01, -1.69244475e+01, -2.05462216e+01, 0.0, 5.0000000000, 10.0000000000, 60.0000000000
          95, 0.00000000e+00, 0.00000000e+00, 0.00000000e+00, 0.00000000e+00, 0.00000000e+00, 0.0, -1.50905078e+01, -1.72254337e+01, -1.69269651e+01, -2.05472025e+01, 0.0, 5.0000000000, 10.0000000000, 60.0000000000
          96, 0.00000000e+00, 0.00000000e+00, 0.00000000e+00, 0.00000000e+00, 0.00000000e+00, 0.0, -1.50913799e+01, -1.72270711e+01, -1.69294552e+01, -2.05481724e+01, 0.0, 5.0000000000, 10.0000000000, 60.0000000000
          97, 0.00000000e+00, 0.00000000e+00, 0.00000000e+00, 0.00000000e+00, 0.00000000e+00, 0.0, -1.50922443e+01, -1.72286948e+01, -1.69319181e+01, -2.05491387e+01, 0.0, 5.0000000000, 10.0000000000, 60.0000000000
          98, 0.00000000e+00, 0.00000000e+00, 0.00000000e+00, 0.00000000e+00, 0.00000000e+00, 0.0, -1.50931020e+01, -1.72303093e+01, -1.69343539e+01, -2.05501035e+01, 0.0, 5.0000000000, 10.0000000000, 60.0000000000
          99, 0.00000000e+00, 0.00000000e+00, 0.00000000e+00, 0.00000000e+00, 0.00000000e+00, 0.0, -1.50939542e+01, -1.72319203e+01, -1.69367626e+01, -2.05510654e+01, 0.0, 5.0000000000, 10.0000000000, 60.0000000000
         100, 0.00000000e+00, 0.00000000e+00, 0.00000000e+00, 0.00000000e+00, 0.00000000e+00, 0.0, -1.50948024e+01, -1.72335355e+01, -1.69391442e+01, -2.05520221e+01, 0.0, 5.0000000000, 10.0000000000, 60.0000000000
         101, 0.00000000e+00, 0.00000000e+00, 0.00000000e+00, 0.00000000e+00, 0.00000000e+00, 0.0, -1.50956484e+01, -1.72351639e+01, -1.69414987e+01, -2.05529719e+01, 0.0, 5.0000000000, 10.0000000000, 60.0000000000
         102, 0.00000000e+00, 0.00000000e+00, 0.00000000e+00, 0.00000000e+00, 0.00000000e+00, 0.0, -1.50964943e+01, -1.72368164e+01, -1.69438260e+01, -2.05539149e+01, 0.0, 5.0000000000, 10.0000000000, 60.0000000000
         103, 0.00000000e+00, 0.00000000e+00, 0.00000000e+00, 0.00000000e+00, 0.00000000e+00, 0.0, -1.50973426e+01, -1.72385054e+01, -1.69461263e+01, -2.05548530e+01, 0.0, 5.0000000000, 10.0000000000, 60.0000000000
         104, 0.00000000e+00, 0.00000000e+00, 0.00000000e+00, 0.00000000e+00, 0.00000000e+00, 0.0, -1.50981961e+01, -1.72402443e+01, -1.69484001e+01, -2.05557897e+01, 0.0, 5.0000000000, 10.0000000000, 60.0000000000
         105, 0.00000000e+00, 0.00000000e+00, 0.00000000e+00, 0.00000000e+00, 0.00000000e+00, 0.0, -1.50990580e+01, -1.72420474e+01, -1.69506485e+01, -2.05567293e+01, 0.0, 5.0000000000, 10.0000000000, 60.0000000000
         106, 0.00000000e+00, 0.00000000e+00, 0.00000000e+00, 0.00000000e+00, 0.00000000e+00, 0.0, -1.50999321e+01, -1.72439292e+01, -1.69528736e+01, -2.05576767e+01, 0.0, 5.0000000000, 10.0000000000, 60.0000000000
         107, 0.00000000e+00, 0.00000000e+00, 0.00000000e+00, 0.00000000e+00, 0.00000000e+00, 0.0, -1.51008223e+01, -1.72459048e+01, -1.69550779e+01, -2.05586365e+01, 0.0, 5.0000000000, 10.0000000000, 60.0000000000
         108, 0.00000000e+00, 0.00000000e+00, 0.00000000e+00, 0.00000000e+00, 0.00000000e+00, 0.0, -1.51017333e+01, -1.72479896e+01, -1.69572655e+01, -2.05596131e+01, 0.0, 5.0000000000, 10.0000000000, 60.0000000000
         109, 0.00000000e+00, 0.00000000e+00, 0.00000000e+00, 0.00000000e+00, 0.00000000e+00, 0.0, -1.51026703e+01, -1.72501995e+01, -1.69594410e+01, -2.05606105e+01, 0.0, 5.0000000000, 10.0000000000, 60.0000000000
         110, 0.00000000e+00, 0.00000000e+00, 0.00000000e+00, 0.00000000e+00, 0.00000000e+00, 0.0, -1.51036392e+01, -1.72525512e+01, -1.69616105e+01, -2.05616325e+01, 0.0, 5.0000000000, 10.0000000000, 60.0000000000
         111, 0.00000000e+00, 0.00000000e+00, 0.00000000e+00, 0.00000000e+00, 0.00000000e+00, 0.0, -1.51046464e+01, -1.72550623e+01, -1.69637811e+01, -2.05626821e+01, 0.0, 5.0000000000, 10.0000000000, 60.0000000000
         112, 0.00000000e+00, 0.00000000e+00, 0.00000000e+00, 0.00000000e+00, 0.00000000e+00, 0.0, -1.51056994e+01, -1.72577517e+01, -1.69659608e+01, -2.05637624e+01, 0.0, 5.0000000000, 10.0000000000, 60.0000000000
         113, 0.00000000e+00, 0.00000000e+00, 0.00000000e+00, 0.00000000e+00, 0.00000000e+00, 0.0, -1.51068062e+01, -1.72606397e+01, -1.69681591e+01, -2.05648764e+01, 0.0, 5.0000000000, 10.0000000000, 60.0000000000
         114, 0.00000000e+00, 0.00000000e+00, 0.00000000e+00, 0.00000000e+00, 0.00000000e+00, 0.0, -1.51079757e+01, -1.72637478e+01, -1.69703866e+01, -2.05660276e+01, 0.0, 5.0000000000, 10.0000000000, 60.0000000000
         115, 0.00000000e+00, 0.00000000e+00, 0.00000000e+00, 0.00000000e+00, 0.00000000e+00, 0.0, -1.51092177e+01, -1.72670993e+01, -1.69726548e+01, -2.05672199e+01, 0.0, 5.0000000000, 10.0000000000, 60.0000000000
         116, 0.00000000e+00, 0.00000000e+00, 0.00000000e+00, 0.00000000e+00, 0.00000000e+00, 0.0, -1.51105429e+01, -1.72707185e+01, -1.69749768e+01, -2.05684584e+01, 0.0, 5.0000000000, 10.0000000000, 60.0000000000
         117, 0.00000000e+00, 0.00000000e+00, 0.00000000e+00, 0.00000000e+00, 0.00000000e+00, 0.0, -1.51119627e+01, -1.72746310e+01, -1.69773667e+01, -2.05697496e+01, 0.0, 5.0000000000, 10.0000000000, 60.0000000000
         118, 0.00000000e+00, 0.00000000e+00, 0.00000000e+00, 0.00000000e+00, 0.00000000e+00, 0.0, -1.51134895e+01, -1.72788632e+01, -1.69798398e+01, -2.05711011e+01, 0.0, 5.0000000000, 10.0000000000, 60.0000000000
         119, 0.00000000e+00, 0.00000000e+00, 0.00000000e+00, 0.00000000e+00, 0.00000000e+00, 0.0, -1.51151365e+01, -1.72834420e+01, -1.69824127e+01, -2.05725222e+01, 0.0, 5.0000000000, 10.0000000000, 60.0000000000
         120, 0.00000000e+00, 0.00000000e+00, 0.00000000e+00, 0.00000000e+00, 0.00000000e+00, 0.0, -1.51169177e+01, -1.72883944e+01, -1.69851030e+01, -2.05740236e+01, 0.0, 5.0000000000, 10.0000000000, 60.0000000000
         121, 0.00000000e+00, 0.00000000e+00, 0.00000000e+00, 0.00000000e+00, 0.00000000e+00, 0.0, -1.51188481e+01, -1.72937477e+01, -1.69879295e+01, -2.05756176e+01, 0.0, 5.0000000000, 10.0000000000, 60.0000000000
         122, 0.00000000e+00, 0.00000000e+00, 0.00000000e+00, 0.00000000e+00, 0.00000000e+00, 0.0, -1.51209433e+01, -1.72995285e+01, -1.69909118e+01, -2.05773176e+01, 0.0, 5.0000000000, 10.0000000000, 60.0000000000
         123, 0.00000000e+00, 0.00000000e+00, 0.00000000e+00, 0.00000000e+00, 0.00000000e+00, 0.0, -1.51232195e+01, -1.73057630e+01, -1.69940704e+01, -2.05791386e+01, 0.0, 5.0000000000, 10.0000000000, 60.0000000000
         124, 0.00000000e+00, 0.00000000e+00, 0.00000000e+00, 0.00000000e+00, 0.00000000e+00, 0.0, -1.51256939e+01, -1.73124765e+01, -1.69974262e+01, -2.05810964e+01, 0.0, 5.0000000000, 10.0000000000, 60.0000000000
         125, 0.00000000e+00, 0.00000000e+00, 0.00000000e+00, 0.00000000e+00, 0.00000000e+00, 0.0, -1.51283842e+01, -1.73196933e+01, -1.70010006e+01, -2.05832081e+01, 0.0, 5.0000000000, 10.0000000000, 60.0000000000
         126, 0.00000000e+00, 0.00000000e+00, 0.00000000e+00, 0.00000000e+00, 0.00000000e+00, 0.0, -1.51313086e+01, -1.73274361e+01, -1.70048152e+01, -2.05854920e+01, 0.0, 5.0000000000, 10.0000000000, 60.0000000000
         127, 0.00000000e+00, 0.00000000e+00, 0.00000000e+00, 0.00000000e+00, 0.00000000e+00, 0.0, -1.51344862e+01, -1.73357261e+01, -1.70088914e+01, -2.05879670e+01, 0.0, 5.0000000000, 10.0000000000, 60.0000000000
         128, 0.00000000e+00, 0.00000000e+00, 0.00000000e+00, 0.00000000e+00, 0.00000000e+00, 0.0, -1.51379361e+01, -1.73445825e+01, -1.70132502e+01, -2.05906534e+01, 0.0, 5.0000000000, 10.0000000000, 60.0000000000
         129, 0.00000000e+00, 0.00000000e+00, 0.00000000e+00, 0.00000000e+00, 0.00000000e+00, 0.0, -1.51416781e+01, -1.73540218e+01, -1.70179119e+01, -2.05935722e+01, 0.0, 5.0000000000, 10.0000000000, 60.0000000000
         130, 0.00000000e+00, 0.00000000e+00, 0.00000000e+00, 0.00000000e+00, 0.00000000e+00, 0.0, -1.51457325e+01, -1.73640577e+01, -1.70228959e+01, -2.05967458e+01, 0.0, 5.0000000000, 10.0000000000, 60.0000000000
         131, 0.00000000e+00, 0.00000000e+00, 0.00000000e+00, 0.00000000e+00, 0.00000000e+00, 0.0, -1.51501195e+01, -1.73747003e+01, -1.70282201e+01, -2.06001975e+01, 0.0, 5.0000000000, 10.0000000000, 60.0000000000
         132, 0.00000000e+00, 0.00000000e+00, 0.00000000e+00, 0.00000000e+00, 0.00000000e+00, 0.0, -1.51548599e+01, -1.73859551e+01, -1.70339009e+01, -2.06039519e+01, 0.0, 5.0000000000, 10.0000000000, 60.0000000000
         133, 0.00000000e+00, 0.00000000e+00, 0.00000000e+00, 0.00000000e+00, 0.00000000e+00, 0.0, -1.51599745e+01, -1.73978223e+01, -1.70399526e+01, -2.06080350e+01, 0.0, 5.0000000000, 10.0000000000, 60.0000000000
         134, 0.00000000e+00, 0.00000000e+00, 0.00000000e+00, 0.00000000e+00, 0.00000000e+00, 0.0, -1.51654842e+01, -1.74102960e+01, -1.70463870e+01, -2.06124743e+01, 0.0, 5.0000000000, 10.0000000000, 60.0000000000
         135, 0.00000000e+00, 0.00000000e+00, 0.00000000e+00, 0.00000000e+00, 0.00000000e+00, 0.0, -1.51714100e+01, -1.74233624e+01, -1.70532132e+01, -2.06172988e+01, 0.0, 5.0000000000, 10.0000000000, 60.0000000000
         136, 0.00000000e+00, 0.00000000e+00, 0.00000000e+00, 0.00000000e+00, 0.00000000e+00, 0.0, -1.51777729e+01, -1.74369989e+01, -1.70604369e+01, -2.06225389e+01, 0.0, 5.0000000000, 10.0000000000, 60.0000000000
         137, 0.00000000e+00, 0.00000000e+00, 0.00000000e+00, 0.00000000e+00, 0.00000000e+00, 0.0, -1.51845940e+01, -1.74511722e+01, -1.70680600e+01, -2.06282268e+01, 0.0, 5.0000000000, 10.0000000000, 60.0000000000