TITLE = "SU2 Simulation"
VARIABLES = "Iteration","Sens_Geo","Sens_Mach","Sens_AoA","Sens_Press","Sens_Temp","Sens_AoS","Res_AdjFlow[0]","Res_AdjFlow[1]","Res_AdjFlow[2]","Res_AdjFlow[3]","Res_AdjFlow[4]","Linear_Solver_Iterations","CFL_Number","Time(min)"
ZONE T= "Convergence history"
           0, 0.00000000e+00, 0.00000000e+00, 0.00000000e+00, 0.00000000e+00, 0.00000000e+00, 0.0, -1.29878816e+01, -1.57036092e+01, -1.63306665e+01, -1.68010313e+01, 0.0, 5.0000000000, 10.0000000000, 60.0000000000
           1, 0.00000000e+00, 0.00000000e+00, 0.00000000e+00, 0.00000000e+00, 0.00000000e+00, 0.0, -1.09979962e+01, -1.37182164e+01, -1.43720076e+01, -1.62213617e+01, 0.0, 5.0000000000, 10.0000000000, 60.0000000000
           2, 0.00000000e+00, 0.00000000e+00, 0.00000000e+00, 0.00000000e+00, 0.00000000e+00, 0.0, -1.10606830e+01, -1.39651339e+01, -1.48307280e+01, -1.63850478e+01, 0.0, 5.0000000000, 10.0000000000, 60.0000000000
           3, 0.00000000e+00, 0.00000000e+00, 0.00000000e+00, 0.00000000e+00, 0.00000000e+00, 0.0, -1.11334866e+01, -1.40359178e+01, -1.47326999e+01, -1.65299752e+01, 0.0, 5.0000000000, 10.0000000000, 60.0000000000
           4, 0.00000000e+00, 0.00000000e+00, 0.00000000e+00, 0.00000000e+00, 0.00000000e+00, 0.0, -1.11979707e+01, -1.40822629e+01, -1.49007446e+01, -1.66220731e+01, 0.0, 5.0000000000, 10.0000000000, 60.0000000000
           5, 0.00000000e+00, 0.00000000e+00, 0.00000000e+00, 0.00000000e+00, 0.00000000e+00, 0.0, -1.12531499e+01, -1.41233657e+01, -1.50698799e+01, -1.66699655e+01, 0.0, 5.0000000000, 10.0000000000, 60.0000000000
           6, 0.00000000e+00, 0.00000000e+00, 0.00000000e+00, 0.00000000e+00, 0.00000000e+00, 0.0, -1.13028232e+01, -1.41539676e+01, -1.51713022e+01, -1.67002948e+01, 0.0, 5.0000000000, 10.0000000000, 60.0000000000
           7, 0.00000000e+00, 0.00000000e+00, 0.00000000e+00, 0.00000000e+00, 0.00000000e+00, 0.0, -1.13504377e+01, -1.41845635e+01, -1.52504931e+01, -1.67295042e+01, 0.0, 5.0000000000, 10.0000000000, 60.0000000000
           8, 0.00000000e+00, 0.00000000e+00, 0.00000000e+00, 0.00000000e+00, 0.00000000e+00, 0.0, -1.13976681e+01, -1.42260523e+01, -1.53217623e+01, -1.67610702e+01, 0.0, 5.0000000000, 10.0000000000, 60.0000000000
           9, 0.00000000e+00, 0.00000000e+00, 0.00000000e+00, 0.00000000e+00, 0.00000000e+00, 0.0, -1.14450956e+01, -1.42869118e+01, -1.53892684e+01, -1.67926802e+01, 0.0, 5.0000000000, 10.0000000000, 60.0000000000
          10, 0.00000000e+00, 0.00000000e+00, 0.00000000e+00, 0.00000000e+00, 0.00000000e+00, 0.0, -1.14931715e+01, -1.43734793e+01, -1.54488339e+01, -1.68222280e+01, 0.0, 5.0000000000, 10.0000000000, 60.0000000000
          11, 0.00000000e+00, 0.00000000e+00, 0.00000000e+00, 0.00000000e+00, 0.00000000e+00, 0.0, -1.15427236e+01, -1.44819452e+01, -1.54826945e+01, -1.68506913e+01, 0.0, 5.0000000000, 10.0000000000, 60.0000000000
          12, 0.00000000e+00, 0.00000000e+00, 0.00000000e+00, 0.00000000e+00, 0.00000000e+00, 0.0, -1.15949106e+01, -1.45687967e+01, -1.54819792e+01, -1.68815595e+01, 0.0, 5.0000000000, 10.0000000000, 60.0000000000
          13, 0.00000000e+00, 0.00000000e+00, 0.00000000e+00, 0.00000000e+00, 0.00000000e+00, 0.0, -1.16505398e+01, -1.45553182e+01, -1.54676462e+01, -1.69182669e+01, 0.0, 5.0000000000, 10.0000000000, 60.0000000000
          14, 0.00000000e+00, 0.00000000e+00, 0.00000000e+00, 0.00000000e+00, 0.00000000e+00, 0.0, -1.17081809e+01, -1.44708953e+01, -1.54683761e+01, -1.69615210e+01, 0.0, 5.0000000000, 10.0000000000, 60.0000000000
          15, 0.00000000e+00, 0.00000000e+00, 0.00000000e+00, 0.00000000e+00, 0.00000000e+00, 0.0, -1.17600042e+01, -1.43892935e+01, -1.55015458e+01, -1.70067361e+01, 0.0, 5.0000000000, 10.0000000000, 60.0000000000
          16, 0.00000000e+00, 0.00000000e+00, 0.00000000e+00, 0.00000000e+00, 0.00000000e+00, 0.0, -1.17871859e+01, -1.43310451e+01, -1.55755737e+01, -1.70417418e+01, 0.0, 5.0000000000, 10.0000000000, 60.0000000000
          17, 0.00000000e+00, 0.00000000e+00, 0.00000000e+00, 0.00000000e+00, 0.00000000e+00, 0.0, -1.17688676e+01, -1.42938296e+01, -1.56926363e+01, -1.70497542e+01, 0.0, 5.0000000000, 10.0000000000, 60.0000000000
          18, 0.00000000e+00, 0.00000000e+00, 0.00000000e+00, 0.00000000e+00, 0.00000000e+00, 0.0, -1.17081198e+01, -1.42717009e+01, -1.58344367e+01, -1.70233436e+01, 0.0, 5.0000000000, 10.0000000000, 60.0000000000
          19, 0.00000000e+00, 0.00000000e+00, 0.00000000e+00, 0.00000000e+00, 0.00000000e+00, 0.0, -1.16293991e+01, -1.42597401e+01, -1.59197828e+01, -1.69731256e+01, 0.0, 5.0000000000, 10.0000000000, 60.0000000000
          20, 0.00000000e+00, 0.00000000e+00, 0.00000000e+00, 0.00000000e+00, 0.00000000e+00, 0.0, -1.15526472e+01, -1.42550592e+01, -1.58920914e+01, -1.69158884e+01, 0.0, 5.0000000000, 10.0000000000, 60.0000000000
          21, 0.00000000e+00, 0.00000000e+00, 0.00000000e+00, 0.00000000e+00, 0.00000000e+00, 0.0, -1.14867056e+01, -1.42566572e+01, -1.58378113e+01, -1.68629663e+01, 0.0, 5.0000000000, 10.0000000000, 60.0000000000
          22, 0.00000000e+00, 0.00000000e+00, 0.00000000e+00, 0.00000000e+00, 0.00000000e+00, 0.0, -1.14341608e+01, -1.42647223e+01, -1.58091163e+01, -1.68195333e+01, 0.0, 5.0000000000, 10.0000000000, 60.0000000000
          23, 0.00000000e+00, 0.00000000e+00, 0.00000000e+00, 0.00000000e+00, 0.00000000e+00, 0.0, -1.13951152e+01, -1.42798457e+01, -1.58082208e+01, -1.67873004e+01, 0.0, 5.0000000000, 10.0000000000, 60.0000000000
          24, 0.00000000e+00, 0.00000000e+00, 0.00000000e+00, 0.00000000e+00, 0.00000000e+00, 0.0, -1.13688062e+01, -1.43024705e+01, -1.58258365e+01, -1.67663970e+01, 0.0, 5.0000000000, 10.0000000000, 60.0000000000
          25, 0.00000000e+00, 0.00000000e+00, 0.00000000e+00, 0.00000000e+00, 0.00000000e+00, 0.0, -1.13541927e+01, -1.43326220e+01, -1.58526626e+01, -1.67562567e+01, 0.0, 5.0000000000, 10.0000000000, 60.0000000000
          26, 0.00000000e+00, 0.00000000e+00, 0.00000000e+00, 0.00000000e+00, 0.00000000e+00, 0.0, -1.13501494e+01, -1.43698077e+01, -1.58838612e+01, -1.67559888e+01, 0.0, 5.0000000000, 10.0000000000, 60.0000000000
          27, 0.00000000e+00, 0.00000000e+00, 0.00000000e+00, 0.00000000e+00, 0.00000000e+00, 0.0, -1.13555252e+01, -1.44129695e+01, -1.59210910e+01, -1.67645323e+01, 0.0, 5.0000000000, 10.0000000000, 60.0000000000
          28, 0.00000000e+00, 0.00000000e+00, 0.00000000e+00, 0.00000000e+00, 0.00000000e+00, 0.0, -1.13691586e+01, -1.44604258e+01, -1.59712592e+01, -1.67807291e+01, 0.0, 5.0000000000, 10.0000000000, 60.0000000000
          29, 0.00000000e+00, 0.00000000e+00, 0.00000000e+00, 0.00000000e+00, 0.00000000e+00, 0.0, -1.13898776e+01, -1.45098179e+01, -1.60434683e+01, -1.68033615e+01, 0.0, 5.0000000000, 10.0000000000, 60.0000000000
          30, 0.00000000e+00, 0.00000000e+00, 0.00000000e+00, 0.00000000e+00, 0.00000000e+00, 0.0, -1.14164956e+01, -1.45581586e+01, -1.61455209e+01, -1.68311784e+01, 0.0, 5.0000000000, 10.0000000000, 60.0000000000
          31, 0.00000000e+00, 0.00000000e+00, 0.00000000e+00, 0.00000000e+00, 0.00000000e+00, 0.0, -1.14478132e+01, -1.46021571e+01, -1.62726360e+01, -1.68629256e+01, 0.0, 5.0000000000, 10.0000000000, 60.0000000000
          32, 0.00000000e+00, 0.00000000e+00, 0.00000000e+00, 0.00000000e+00, 0.00000000e+00, 0.0, -1.14826322e+01, -1.46389291e+01, -1.63629098e+01, -1.68973891e+01, 0.0, 5.0000000000, 10.0000000000, 60.0000000000
          33, 0.00000000e+00, 0.00000000e+00, 0.00000000e+00, 0.00000000e+00, 0.00000000e+00, 0.0, -1.15197837e+01, -1.46668806e+01, -1.63214826e+01, -1.69334470e+01, 0.0, 5.0000000000, 10.0000000000, 60.0000000000
          34, 0.00000000e+00, 0.00000000e+00, 0.00000000e+00, 0.00000000e+00, 0.00000000e+00, 0.0, -1.15581670e+01, -1.46861996e+01, -1.62194229e+01, -1.69701197e+01, 0.0, 5.0000000000, 10.0000000000, 60.0000000000
          35, 0.00000000e+00, 0.00000000e+00, 0.00000000e+00, 0.00000000e+00, 0.00000000e+00, 0.0, -1.15967950e+01, -1.46985618e+01, -1.61369860e+01, -1.70066075e+01, 0.0, 5.0000000000, 10.0000000000, 60.0000000000
          36, 0.00000000e+00, 0.00000000e+00, 0.00000000e+00, 0.00000000e+00, 0.00000000e+00, 0.0, -1.16348383e+01, -1.47063053e+01, -1.60873195e+01, -1.70423098e+01, 0.0, 5.0000000000, 10.0000000000, 60.0000000000
          37, 0.00000000e+00, 0.00000000e+00, 0.00000000e+00, 0.00000000e+00, 0.00000000e+00, 0.0, -1.16716613e+01, -1.47116708e+01, -1.60668516e+01, -1.70768254e+01, 0.0, 5.0000000000, 10.0000000000, 60.0000000000
          38, 0.00000000e+00, 0.00000000e+00, 0.00000000e+00, 0.00000000e+00, 0.00000000e+00, 0.0, -1.17068398e+01, -1.47164267e+01, -1.60709821e+01, -1.71099366e+01, 0.0, 5.0000000000, 10.0000000000, 60.0000000000
          39, 0.00000000e+00, 0.00000000e+00, 0.00000000e+00, 0.00000000e+00, 0.00000000e+00, 0.0, -1.17401580e+01, -1.47218310e+01, -1.60963108e+01, -1.71415846e+01, 0.0, 5.0000000000, 10.0000000000, 60.0000000000
          40, 0.00000000e+00, 0.00000000e+00, 0.00000000e+00, 0.00000000e+00, 0.00000000e+00, 0.0, -1.17715851e+01, -1.47287492e+01, -1.61406071e+01, -1.71718405e+01, 0.0, 5.0000000000, 10.0000000000, 60.0000000000
          41, 0.00000000e+00, 0.00000000e+00, 0.00000000e+00, 0.00000000e+00, 0.00000000e+00, 0.0, -1.18012383e+01, -1.47377982e+01, -1.62022304e+01, -1.72008760e+01, 0.0, 5.0000000000, 10.0000000000, 60.0000000000
          42, 0.00000000e+00, 0.00000000e+00, 0.00000000e+00, 0.00000000e+00, 0.00000000e+00, 0.0, -1.18293390e+01, -1.47494610e+01, -1.62785374e+01, -1.72289353e+01, 0.0, 5.0000000000, 10.0000000000, 60.0000000000
          43, 0.00000000e+00, 0.00000000e+00, 0.00000000e+00, 0.00000000e+00, 0.00000000e+00, 0.0, -1.18561722e+01, -1.47641586e+01, -1.63615666e+01, -1.72563075e+01, 0.0, 5.0000000000, 10.0000000000, 60.0000000000
          44, 0.00000000e+00, 0.00000000e+00, 0.00000000e+00, 0.00000000e+00, 0.00000000e+00, 0.0, -1.18820506e+01, -1.47822881e+01, -1.64301968e+01, -1.72833006e+01, 0.0, 5.0000000000, 10.0000000000, 60.0000000000
          45, 0.00000000e+00, 0.00000000e+00, 0.00000000e+00, 0.00000000e+00, 0.00000000e+00, 0.0, -1.19072886e+01, -1.48042375e+01, -1.64533366e+01, -1.73102176e+01, 0.0, 5.0000000000, 10.0000000000, 60.0000000000
          46, 0.00000000e+00, 0.00000000e+00, 0.00000000e+00, 0.00000000e+00, 0.00000000e+00, 0.0, -1.19321840e+01, -1.48303861e+01, -1.64256651e+01, -1.73373352e+01, 0.0, 5.0000000000, 10.0000000000, 60.0000000000
          47, 0.00000000e+00, 0.00000000e+00, 0.00000000e+00, 0.00000000e+00, 0.00000000e+00, 0.0, -1.19570068e+01, -1.48610992e+01, -1.63765703e+01, -1.73648871e+01, 0.0, 5.0000000000, 10.0000000000, 60.0000000000
          48, 0.00000000e+00, 0.00000000e+00, 0.00000000e+00, 0.00000000e+00, 0.00000000e+00, 0.0, -1.19819934e+01, -1.48967205e+01, -1.63321397e+01, -1.73930525e+01, 0.0, 5.0000000000, 10.0000000000, 60.0000000000
          49, 0.00000000e+00, 0.00000000e+00, 0.00000000e+00, 0.00000000e+00, 0.00000000e+00, 0.0, -1.20073434e+01, -1.49375659e+01, -1.63032460e+01, -1.74219475e+01, 0.0, 5.0000000000, 10.0000000000, 60.0000000000
          50, 0.00000000e+00, 0.00000000e+00, 0.00000000e+00, 0.00000000e+00, 0.00000000e+00, 0.0, -1.20332173e+01, -1.49839196e+01, -1.62929002e+01, -1.74516197e+01, 0.0, 5.0000000000, 10.0000000000, 60.0000000000
          51, 0.00000000e+00, 0.00000000e+00, 0.00000000e+00, 0.00000000e+00, 0.00000000e+00, 0.0, -1.20597352e+01, -1.50360317e+01, -1.63016532e+01, -1.74820484e+01, 0.0, 5.0000000000, 10.0000000000, 60.0000000000
          52, 0.00000000e+00, 0.00000000e+00, 0.00000000e+00, 0.00000000e+00, 0.00000000e+00, 0.0, -1.20869808e+01, -1.50941155e+01, -1.63297131e+01, -1.75131611e+01, 0.0, 5.0000000000, 10.0000000000, 60.0000000000
          53, 0.00000000e+00, 0.00000000e+00, 0.00000000e+00, 0.00000000e+00, 0.00000000e+00, 0.0, -1.21150063e+01, -1.51583414e+01, -1.63775899e+01, -1.75448542e+01, 0.0, 5.0000000000, 10.0000000000, 60.0000000000
          54, 0.00000000e+00, 0.00000000e+00, 0.00000000e+00, 0.00000000e+00, 0.00000000e+00, 0.0, -1.21438330e+01, -1.52288273e+01, -1.64459435e+01, -1.75770057e+01, 0.0, 5.0000000000, 10.0000000000, 60.0000000000
          55, 0.00000000e+00, 0.00000000e+00, 0.00000000e+00, 0.00000000e+00, 0.00000000e+00, 0.0, -1.21734478e+01, -1.53056232e+01, -1.65340449e+01, -1.76094777e+01, 0.0, 5.0000000000, 10.0000000000, 60.0000000000
          56, 0.00000000e+00, 0.00000000e+00, 0.00000000e+00, 0.00000000e+00, 0.00000000e+00, 0.0, -1.22038010e+01, -1.53886845e+01, -1.66340128e+01, -1.76421216e+01, 0.0, 5.0000000000, 10.0000000000, 60.0000000000
          57, 0.00000000e+00, 0.00000000e+00, 0.00000000e+00, 0.00000000e+00, 0.00000000e+00, 0.0, -1.22348067e+01, -1.54778289e+01, -1.67170773e+01, -1.76747865e+01, 0.0, 5.0000000000, 10.0000000000, 60.0000000000
          58, 0.00000000e+00, 0.00000000e+00, 0.00000000e+00, 0.00000000e+00, 0.00000000e+00, 0.0, -1.22663434e+01, -1.55726683e+01, -1.67368245e+01, -1.77073251e+01, 0.0, 5.0000000000, 10.0000000000, 60.0000000000
          59, 0.00000000e+00, 0.00000000e+00, 0.00000000e+00, 0.00000000e+00, 0.00000000e+00, 0.0, -1.22982513e+01, -1.56725140e+01, -1.66935119e+01, -1.77395900e+01, 0.0, 5.0000000000, 10.0000000000, 60.0000000000
          60, 0.00000000e+00, 0.00000000e+00, 0.00000000e+00, 0.00000000e+00, 0.00000000e+00, 0.0, -1.23303311e+01, -1.57762564e+01, -1.66334842e+01, -1.77714256e+01, 0.0, 5.0000000000, 10.0000000000, 60.0000000000
          61, 0.00000000e+00, 0.00000000e+00, 0.00000000e+00, 0.00000000e+00, 0.00000000e+00, 0.0, -1.23623481e+01, -1.58822442e+01, -1.65852216e+01, -1.78026664e+01, 0.0, 5.0000000000, 10.0000000000, 60.0000000000
          62, 0.00000000e+00, 0.00000000e+00, 0.00000000e+00, 0.00000000e+00, 0.00000000e+00, 0.0, -1.23940392e+01, -1.59882136e+01, -1.65566047e+01, -1.78331413e+01, 0.0, 5.0000000000, 10.0000000000, 60.0000000000
          63, 0.00000000e+00, 0.00000000e+00, 0.00000000e+00, 0.00000000e+00, 0.00000000e+00, 0.0, -1.24251227e+01, -1.60913574e+01, -1.65485638e+01, -1.78626806e+01, 0.0, 5.0000000000, 10.0000000000, 60.0000000000
          64, 0.00000000e+00, 0.00000000e+00, 0.00000000e+00, 0.00000000e+00, 0.00000000e+00, 0.0, -1.24553094e+01, -1.61886019e+01, -1.65607897e+01, -1.78911221e+01, 0.0, 5.0000000000, 10.0000000000, 60.0000000000
          65, 0.00000000e+00, 0.00000000e+00, 0.00000000e+00, 0.00000000e+00, 0.00000000e+00, 0.0, -1.24843192e+01, -1.62770432e+01, -1.65933594e+01, -1.79183221e+01, 0.0, 5.0000000000, 10.0000000000, 60.0000000000
          66, 0.00000000e+00, 0.00000000e+00, 0.00000000e+00, 0.00000000e+00, 0.00000000e+00, 0.0, -1.25119024e+01, -1.63543259e+01, -1.66471510e+01, -1.79441693e+01, 0.0, 5.0000000000, 10.0000000000, 60.0000000000
          67, 0.00000000e+00, 0.00000000e+00, 0.00000000e+00, 0.00000000e+00, 0.00000000e+00, 0.0, -1.25378642e+01, -1.64187944e+01, -1.67237547e+01, -1.79685999e+01, 0.0, 5.0000000000, 10.0000000000, 60.0000000000
          68, 0.00000000e+00, 0.00000000e+00, 0.00000000e+00, 0.00000000e+00, 0.00000000e+00, 0.0, -1.25620850e+01, -1.64695745e+01, -1.68241741e+01, -1.79916069e+01, 0.0, 5.0000000000, 10.0000000000, 60.0000000000
          69, 0.00000000e+00, 0.00000000e+00, 0.00000000e+00, 0.00000000e+00, 0.00000000e+00, 0.0, -1.25845348e+01, -1.65068857e+01, -1.69422853e+01, -1.80132426e+01, 0.0, 5.0000000000, 10.0000000000, 60.0000000000
          70, 0.00000000e+00, 0.00000000e+00, 0.00000000e+00, 0.00000000e+00, 0.00000000e+00, 0.0, -1.26052769e+01, -1.65324466e+01, -1.70429975e+01, -1.80336147e+01, 0.0, 5.0000000000, 10.0000000000, 60.0000000000
          71, 0.00000000e+00, 0.00000000e+00, 0.00000000e+00, 0.00000000e+00, 0.00000000e+00, 0.0, -1.26244620e+01, -1.65494044e+01, -1.70580905e+01, -1.80528786e+01, 0.0, 5.0000000000, 10.0000000000, 60.0000000000
          72, 0.00000000e+00, 0.00000000e+00, 0.00000000e+00, 0.00000000e+00, 0.00000000e+00, 0.0, -1.26423135e+01, -1.65615881e+01, -1.69946739e+01, -1.80712267e+01, 0.0, 5.0000000000, 10.0000000000, 60.0000000000
          73, 0.00000000e+00, 0.00000000e+00, 0.00000000e+00, 0.00000000e+00, 0.00000000e+00, 0.0, -1.26591067e+01, -1.65725692e+01, -1.69207987e+01, -1.80888765e+01, 0.0, 5.0000000000, 10.0000000000, 60.0000000000
          74, 0.00000000e+00, 0.00000000e+00, 0.00000000e+00, 0.00000000e+00, 0.00000000e+00, 0.0, -1.26751457e+01, -1.65850573e+01, -1.68662866e+01, -1.81060586e+01, 0.0, 5.0000000000, 10.0000000000, 60.0000000000
          75, 0.00000000e+00, 0.00000000e+00, 0.00000000e+00, 0.00000000e+00, 0.00000000e+00, 0.0, -1.26907416e+01, -1.66007188e+01, -1.68355690e+01, -1.81230052e+01, 0.0, 5.0000000000, 10.0000000000, 60.0000000000
          76, 0.00000000e+00, 0.00000000e+00, 0.00000000e+00, 0.00000000e+00, 0.00000000e+00, 0.0, -1.27061940e+01, -1.66202329e+01, -1.68272958e+01, -1.81399405e+01, 0.0, 5.0000000000, 10.0000000000, 60.0000000000
          77, 0.00000000e+00, 0.00000000e+00, 0.00000000e+00, 0.00000000e+00, 0.00000000e+00, 0.0, -1.27217773e+01, -1.66434055e+01, -1.68396821e+01, -1.81570735e+01, 0.0, 5.0000000000, 10.0000000000, 60.0000000000
          78, 0.00000000e+00, 0.00000000e+00, 0.00000000e+00, 0.00000000e+00, 0.00000000e+00, 0.0, -1.27377329e+01, -1.66692759e+01, -1.68713262e+01, -1.81745914e+01, 0.0, 5.0000000000, 10.0000000000, 60.0000000000
          79, 0.00000000e+00, 0.00000000e+00, 0.00000000e+00, 0.00000000e+00, 0.00000000e+00, 0.0, -1.27542648e+01, -1.66962552e+01, -1.69207051e+01, -1.81926567e+01, 0.0, 5.0000000000, 10.0000000000, 60.0000000000
          80, 0.00000000e+00, 0.00000000e+00, 0.00000000e+00, 0.00000000e+00, 0.00000000e+00, 0.0, -1.27715390e+01, -1.67223951e+01, -1.69845017e+01, -1.82114044e+01, 0.0, 5.0000000000, 10.0000000000, 60.0000000000
          81, 0.00000000e+00, 0.00000000e+00, 0.00000000e+00, 0.00000000e+00, 0.00000000e+00, 0.0, -1.27896853e+01, -1.67458625e+01, -1.70538064e+01, -1.82309408e+01, 0.0, 5.0000000000, 10.0000000000, 60.0000000000
          82, 0.00000000e+00, 0.00000000e+00, 0.00000000e+00, 0.00000000e+00, 0.00000000e+00, 0.0, -1.28088000e+01, -1.67655339e+01, -1.71091905e+01, -1.82513423e+01, 0.0, 5.0000000000, 10.0000000000, 60.0000000000
          83, 0.00000000e+00, 0.00000000e+00, 0.00000000e+00, 0.00000000e+00, 0.00000000e+00, 0.0, -1.28289480e+01, -1.67814232e+01, -1.71268768e+01, -1.82726542e+01, 0.0, 5.0000000000, 10.0000000000, 60.0000000000
          84, 0.00000000e+00, 0.00000000e+00, 0.00000000e+00, 0.00000000e+00, 0.00000000e+00, 0.0, -1.28501665e+01, -1.67946596e+01, -1.71044050e+01, -1.82948926e+01, 0.0, 5.0000000000, 10.0000000000, 60.0000000000
          85, 0.00000000e+00, 0.00000000e+00, 0.00000000e+00, 0.00000000e+00, 0.00000000e+00, 0.0, -1.28724683e+01, -1.68070364e+01, -1.70638290e+01, -1.83180476e+01, 0.0, 5.0000000000, 10.0000000000, 60.0000000000
          86, 0.00000000e+00, 0.00000000e+00, 0.00000000e+00, 0.00000000e+00, 0.00000000e+00, 0.0, -1.28958454e+01, -1.68204238e+01, -1.70257626e+01, -1.83420890e+01, 0.0, 5.0000000000, 10.0000000000, 60.0000000000
          87, 0.00000000e+00, 0.00000000e+00, 0.00000000e+00, 0.00000000e+00, 0.00000000e+00, 0.0, -1.29202696e+01, -1.68363119e+01, -1.69998981e+01, -1.83669686e+01, 0.0, 5.0000000000, 10.0000000000, 60.0000000000
          88, 0.00000000e+00, 0.00000000e+00, 0.00000000e+00, 0.00000000e+00, 0.00000000e+00, 0.0, -1.29456925e+01, -1.68555594e+01, -1.69893649e+01, -1.83926199e+01, 0.0, 5.0000000000, 10.0000000000, 60.0000000000
          89, 0.00000000e+00, 0.00000000e+00, 0.00000000e+00, 0.00000000e+00, 0.00000000e+00, 0.0, -1.29720419e+01, -1.68782910e+01, -1.69947785e+01, -1.84189555e+01, 0.0, 5.0000000000, 10.0000000000, 60.0000000000
          90, 0.00000000e+00, 0.00000000e+00, 0.00000000e+00, 0.00000000e+00, 0.00000000e+00, 0.0, -1.29992178e+01, -1.69038722e+01, -1.70159813e+01, -1.84458641e+01, 0.0, 5.0000000000, 10.0000000000, 60.0000000000
          91, 0.00000000e+00, 0.00000000e+00, 0.00000000e+00, 0.00000000e+00, 0.00000000e+00, 0.0, -1.30270879e+01, -1.69309505e+01, -1.70525001e+01, -1.84732070e+01, 0.0, 5.0000000000, 10.0000000000, 60.0000000000
          92, 0.00000000e+00, 0.00000000e+00, 0.00000000e+00, 0.00000000e+00, 0.00000000e+00, 0.0, -1.30554828e+01, -1.69576293e+01, -1.71032374e+01, -1.85008165e+01, 0.0, 5.0000000000, 10.0000000000, 60.0000000000
          93, 0.00000000e+00, 0.00000000e+00, 0.00000000e+00, 0.00000000e+00, 0.00000000e+00, 0.0, -1.30841938e+01, -1.69818695e+01, -1.71652595e+01, -1.85284953e+01, 0.0, 5.0000000000, 10.0000000000, 60.0000000000
          94, 0.00000000e+00, 0.00000000e+00, 0.00000000e+00, 0.00000000e+00, 0.00000000e+00, 0.0, -1.31129724e+01, -1.70021141e+01, -1.72312205e+01, -1.85560191e+01, 0.0, 5.0000000000, 10.0000000000, 60.0000000000
          95, 0.00000000e+00, 0.00000000e+00, 0.00000000e+00, 0.00000000e+00, 0.00000000e+00, 0.0, -1.31415353e+01, -1.70178911e+01, -1.72864717e+01, -1.85831432e+01, 0.0, 5.0000000000, 10.0000000000, 60.0000000000
          96, 0.00000000e+00, 0.00000000e+00, 0.00000000e+00, 0.00000000e+00, 0.00000000e+00, 0.0, -1.31695746e+01, -1.70300216e+01, -1.73130179e+01, -1.86096132e+01, 0.0, 5.0000000000, 10.0000000000, 60.0000000000
          97, 0.00000000e+00, 0.00000000e+00, 0.00000000e+00, 0.00000000e+00, 0.00000000e+00, 0.0, -1.31967744e+01, -1.70402813e+01, -1.73056604e+01, -1.86351809e+01, 0.0, 5.0000000000, 10.0000000000, 60.0000000000
          98, 0.00000000e+00, 0.00000000e+00, 0.00000000e+00, 0.00000000e+00, 0.00000000e+00, 0.0, -1.32228328e+01, -1.70507662e+01, -1.72781030e+01, -1.86596222e+01, 0.0, 5.0000000000, 10.0000000000, 60.0000000000
          99, 0.00000000e+00, 0.00000000e+00, 0.00000000e+00, 0.00000000e+00, 0.00000000e+00, 0.0, -1.32474873e+01, -1.70633274e+01, -1.72474807e+01, -1.86827578e+01, 0.0, 5.0000000000, 10.0000000000, 60.0000000000
         100, 0.00000000e+00, 0.00000000e+00, 0.00000000e+00, 0.00000000e+00, 0.00000000e+00, 0.0, -1.32705407e+01, -1.70792500e+01, -1.72238071e+01, -1.87044710e+01, 0.0, 5.0000000000, 10.0000000000, 60.0000000000
         101, 0.00000000e+00, 0.00000000e+00, 0.00000000e+00, 0.00000000e+00, 0.00000000e+00, 0.0, -1.32918812e+01, -1.70991296e+01, -1.72108261e+01, -1.87247209e+01, 0.0, 5.0000000000, 10.0000000000, 60.0000000000
         102, 0.00000000e+00, 0.00000000e+00, 0.00000000e+00, 0.00000000e+00, 0.00000000e+00, 0.0, -1.33114937e+01, -1.71228371e+01, -1.72089781e+01, -1.87435469e+01, 0.0, 5.0000000000, 10.0000000000, 60.0000000000
         103, 0.00000000e+00, 0.00000000e+00, 0.00000000e+00, 0.00000000e+00, 0.00000000e+00, 0.0, -1.33294602e+01, -1.71495037e+01, -1.72170261e+01, -1.87610644e+01, 0.0, 5.0000000000, 10.0000000000, 60.0000000000
         104, 0.00000000e+00, 0.00000000e+00, 0.00000000e+00, 0.00000000e+00, 0.00000000e+00, 0.0, -1.33459476e+01, -1.71775360e+01, -1.72325786e+01, -1.87774516e+01, 0.0, 5.0000000000, 10.0000000000, 60.0000000000
         105, 0.00000000e+00, 0.00000000e+00, 0.00000000e+00, 0.00000000e+00, 0.00000000e+00, 0.0, -1.33611891e+01, -1.72047559e+01, -1.72521496e+01, -1.87929312e+01, 0.0, 5.0000000000, 10.0000000000, 60.0000000000
         106, 0.00000000e+00, 0.00000000e+00, 0.00000000e+00, 0.00000000e+00, 0.00000000e+00, 0.0, -1.33754604e+01, -1.72287922e+01, -1.72713305e+01, -1.88077503e+01, 0.0, 5.0000000000, 10.0000000000, 60.0000000000
         107, 0.00000000e+00, 0.00000000e+00, 0.00000000e+00, 0.00000000e+00, 0.00000000e+00, 0.0, -1.33890571e+01, -1.72477426e+01, -1.72856295e+01, -1.88221617e+01, 0.0, 5.0000000000, 10.0000000000, 60.0000000000
         108, 0.00000000e+00, 0.00000000e+00, 0.00000000e+00, 0.00000000e+00, 0.00000000e+00, 0.0, -1.34022759e+01, -1.72608513e+01, -1.72920755e+01, -1.88364100e+01, 0.0, 5.0000000000, 10.0000000000, 60.0000000000
         109, 0.00000000e+00, 0.00000000e+00, 0.00000000e+00, 0.00000000e+00, 0.00000000e+00, 0.0, -1.34153994e+01, -1.72687569e+01, -1.72905989e+01, -1.88507216e+01, 0.0, 5.0000000000, 10.0000000000, 60.0000000000
         110, 0.00000000e+00, 0.00000000e+00, 0.00000000e+00, 0.00000000e+00, 0.00000000e+00, 0.0, -1.34286875e+01, -1.72731175e+01, -1.72838625e+01, -1.88652990e+01, 0.0, 5.0000000000, 10.0000000000, 60.0000000000
         111, 0.00000000e+00, 0.00000000e+00, 0.00000000e+00, 0.00000000e+00, 0.00000000e+00, 0.0, -1.34423710e+01, -1.72758929e+01, -1.72756970e+01, -1.88803188e+01, 0.0, 5.0000000000, 10.0000000000, 60.0000000000
         112, 0.00000000e+00, 0.00000000e+00, 0.00000000e+00, 0.00000000e+00, 0.00000000e+00, 0.0, -1.34566500e+01, -1.72787244e+01, -1.72695456e+01, -1.88959317e+01, 0.0, 5.0000000000, 10.0000000000, 60.0000000000
         113, 0.00000000e+00, 0.00000000e+00, 0.00000000e+00, 0.00000000e+00, 0.00000000e+00, 0.0, -1.34716920e+01, -1.72826238e+01, -1.72677424e+01, -1.89122630e+01, 0.0, 5.0000000000, 10.0000000000, 60.0000000000
         114, 0.00000000e+00, 0.00000000e+00, 0.00000000e+00, 0.00000000e+00, 0.00000000e+00, 0.0, -1.34876331e+01, -1.72879330e+01, -1.72714500e+01, -1.89294139e+01, 0.0, 5.0000000000, 10.0000000000, 60.0000000000
         115, 0.00000000e+00, 0.00000000e+00, 0.00000000e+00, 0.00000000e+00, 0.00000000e+00, 0.0, -1.35045778e+01, -1.72944401e+01, -1.72808197e+01, -1.89474619e+01, 0.0, 5.0000000000, 10.0000000000, 60.0000000000
         116, 0.00000000e+00, 0.00000000e+00, 0.00000000e+00, 0.00000000e+00, 0.00000000e+00, 0.0, -1.35226005e+01, -1.73015760e+01, -1.72951312e+01, -1.89664609e+01, 0.0, 5.0000000000, 10.0000000000, 60.0000000000
         117, 0.00000000e+00, 0.00000000e+00, 0.00000000e+00, 0.00000000e+00, 0.00000000e+00, 0.0, -1.35417458e+01, -1.73086502e+01, -1.73128640e+01, -1.89864413e+01, 0.0, 5.0000000000, 10.0000000000, 60.0000000000
         118, 0.00000000e+00, 0.00000000e+00, 0.00000000e+00, 0.00000000e+00, 0.00000000e+00, 0.0, -1.35620298e+01, -1.73150916e+01, -1.73317854e+01, -1.90074085e+01, 0.0, 5.0000000000, 10.0000000000, 60.0000000000
         119, 0.00000000e+00, 0.00000000e+00, 0.00000000e+00, 0.00000000e+00, 0.00000000e+00, 0.0, -1.35834409e+01, -1.73206392e+01, -1.73492176e+01, -1.90293427e+01, 0.0, 5.0000000000, 10.0000000000, 60.0000000000
         120, 0.00000000e+00, 0.00000000e+00, 0.00000000e+00, 0.00000000e+00, 0.00000000e+00, 0.0, -1.36059405e+01, -1.73254254e+01, -1.73626162e+01, -1.90521980e+01, 0.0, 5.0000000000, 10.0000000000, 60.0000000000
         121, 0.00000000e+00, 0.00000000e+00, 0.00000000e+00, 0.00000000e+00, 0.00000000e+00, 0.0, -1.36294640e+01, -1.73299286e+01, -1.73703628e+01, -1.90759012e+01, 0.0, 5.0000000000, 10.0000000000, 60.0000000000
         122, 0.00000000e+00, 0.00000000e+00, 0.00000000e+00, 0.00000000e+00, 0.00000000e+00, 0.0, -1.36539206e+01, -1.73348257e+01, -1.73723369e+01, -1.91003523e+01, 0.0, 5.0000000000, 10.0000000000, 60.0000000000
         123, 0.00000000e+00, 0.00000000e+00, 0.00000000e+00, 0.00000000e+00, 0.00000000e+00, 0.0, -1.36791935e+01, -1.73408097e+01, -1.73698374e+01, -1.91254237e+01, 0.0, 5.0000000000, 10.0000000000, 60.0000000000
         124, 0.00000000e+00, 0.00000000e+00, 0.00000000e+00, 0.00000000e+00, 0.00000000e+00, 0.0, -1.37051390e+01, -1.73484302e+01, -1.73649117e+01, -1.91509611e+01, 0.0, 5.0000000000, 10.0000000000, 60.0000000000
         125, 0.00000000e+00, 0.00000000e+00, 0.00000000e+00, 0.00000000e+00, 0.00000000e+00, 0.0, -1.37315859e+01, -1.73579848e+01, -1.73595794e+01, -1.91767848e+01, 0.0, 5.0000000000, 10.0000000000, 60.0000000000
         126, 0.00000000e+00, 0.00000000e+00, 0.00000000e+00, 0.00000000e+00, 0.00000000e+00, 0.0, -1.37583342e+01, -1.73694599e+01, -1.73553384e+01, -1.92026925e+01, 0.0, 5.0000000000, 10.0000000000, 60.0000000000
         127, 0.00000000e+00, 0.00000000e+00, 0.00000000e+00, 0.00000000e+00, 0.00000000e+00, 0.0, -1.37851559e+01, -1.73825156e+01, -1.73530084e+01, -1.92284636e+01, 0.0, 5.0000000000, 10.0000000000, 60.0000000000
         128, 0.00000000e+00, 0.00000000e+00, 0.00000000e+00, 0.00000000e+00, 0.00000000e+00, 0.0, -1.38117967e+01, -1.73965093e+01, -1.73527859e+01, -1.92538661e+01, 0.0, 5.0000000000, 10.0000000000, 60.0000000000
         129, 0.00000000e+00, 0.00000000e+00, 0.00000000e+00, 0.00000000e+00, 0.00000000e+00, 0.0, -1.38379824e+01, -1.74105674e+01, -1.73543883e+01, -1.92786661e+01, 0.0, 5.0000000000, 10.0000000000, 60.0000000000
         130, 0.00000000e+00, 0.00000000e+00, 0.00000000e+00, 0.00000000e+00, 0.00000000e+00, 0.0, -1.38634290e+01, -1.74237123e+01, -1.73572303e+01, -1.93026386e+01, 0.0, 5.0000000000, 10.0000000000, 60.0000000000
         131, 0.00000000e+00, 0.00000000e+00, 0.00000000e+00, 0.00000000e+00, 0.00000000e+00, 0.0, -1.38878587e+01, -1.74350399e+01, -1.73606085e+01, -1.93255817e+01, 0.0, 5.0000000000, 10.0000000000, 60.0000000000
         132, 0.00000000e+00, 0.00000000e+00, 0.00000000e+00, 0.00000000e+00, 0.00000000e+00, 0.0, -1.39110197e+01, -1.74439081e+01, -1.73638809e+01, -1.93473295e+01, 0.0, 5.0000000000, 10.0000000000, 60.0000000000
         133, 0.00000000e+00, 0.00000000e+00, 0.00000000e+00, 0.00000000e+00, 0.00000000e+00, 0.0, -1.39327096e+01, -1.74500722e+01, -1.73666141e+01, -1.93677662e+01, 0.0, 5.0000000000, 10.0000000000, 60.0000000000
         134, 0.00000000e+00, 0.00000000e+00, 0.00000000e+00, 0.00000000e+00, 0.00000000e+00, 0.0, -1.39527965e+01, -1.74537084e+01, -1.73686627e+01, -1.93868363e+01, 0.0, 5.0000000000, 10.0000000000, 60.0000000000
         135, 0.00000000e+00, 0.00000000e+00, 0.00000000e+00, 0.00000000e+00, 0.00000000e+00, 0.0, -1.39712357e+01, -1.74553178e+01, -1.73701605e+01, -1.94045507e+01, 0.0, 5.0000000000, 10.0000000000, 60.0000000000
         136, 0.00000000e+00, 0.00000000e+00, 0.00000000e+00, 0.00000000e+00, 0.00000000e+00, 0.0, -1.39880755e+01, -1.74555607e+01, -1.73714350e+01, -1.94209866e+01, 0.0, 5.0000000000, 10.0000000000, 60.0000000000
         137, 0.00000000e+00, 0.00000000e+00, 0.00000000e+00, 0.00000000e+00, 0.00000000e+00, 0.0, -1.40034530e+01, -1.74550901e+01, -1.73728802e+01, -1.94362821e+01, 0.0, 5.0000000000, 10.0000000000, 60.0000000000