TITLE = "Visualization of the volumetric solution"
VARIABLES = "x","y","Density","Momentum_x","Momentum_y","Energy","Pressure","Temperature","Mach","C<sub>p</sub>","Roe_Dissipation"
ZONE NODES= 2400, ELEMENTS= 2291, DATAPACKING=POINT, ZONETYPE=FEQUADRILATERAL
0.000000e+00	1.250000e+00	1.222607e+00	5.500252e+01	-1.746041e+01	2.556381e+05	1.017105e+05	2.898073e+02	1.383060e-01	5.434981e-01	0.000000e+00	
0.000000e+00	1.218354e+00	1.222632e+00	5.500413e+01	-1.741224e+01	2.556324e+05	1.017084e+05	2.897955e+02	1.382748e-01	5.406200e-01	0.000000e+00	
3.448276e-02	1.218354e+00	1.296504e+00	5.116438e+01	-6.879520e+01	2.771263e+05	1.097166e+05	2.948009e+02	1.921204e-01	1.183126e+01	0.000000e+00	
3.448276e-02	1.250000e+00	1.296388e+00	5.116442e+01	-6.881918e+01	2.770999e+05	1.097055e+05	2.947974e+02	1.921819e-01	1.181552e+01	0.000000e+00	
0.000000e+00	1.186709e+00	1.222650e+00	5.502941e+01	-1.738607e+01	2.556289e+05	1.017067e+05	2.897865e+02	1.383138e-01	5.382254e-01	0.000000e+00	
3.448276e-02	1.186709e+00	1.296519e+00	5.116477e+01	-6.880189e+01	2.771280e+05	1.097172e+05	2.947991e+02	1.921314e-01	1.183202e+01	0.000000e+00	
0.000000e+00	1.155063e+00	1.222658e+00	5.504407e+01	-1.737538e+01	2.556282e+05	1.017063e+05	2.897830e+02	1.383394e-01	5.375341e-01	0.000000e+00	
3.448276e-02	1.155063e+00	1.296546e+00	5.116834e+01	-6.880561e+01	2.771321e+05	1.097187e+05	2.947970e+02	1.921395e-01	1.183415e+01	0.000000e+00	
0.000000e+00	1.123418e+00	1.222659e+00	5.504841e+01	-1.737037e+01	2.556276e+05	1.017060e+05	2.897822e+02	1.383459e-01	5.371404e-01	0.000000e+00	
3.448276e-02	1.123418e+00	1.296560e+00	5.116959e+01	-6.880981e+01	2.771337e+05	1.097192e+05	2.947954e+02	1.921472e-01	1.183497e+01	0.000000e+00	
0.000000e+00	1.091772e+00	1.222656e+00	5.504804e+01	-1.736645e+01	2.556272e+05	1.017058e+05	2.897823e+02	1.383425e-01	5.369385e-01	0.000000e+00	
3.448276e-02	1.091772e+00	1.296570e+00	5.116895e+01	-6.881175e+01	2.771350e+05	1.097197e+05	2.947944e+02	1.921487e-01	1.183565e+01	0.000000e+00	
0.000000e+00	1.060127e+00	1.222653e+00	5.504746e+01	-1.736313e+01	2.556269e+05	1.017058e+05	2.897827e+02	1.383390e-01	5.368183e-01	0.000000e+00	
3.448276e-02	1.060127e+00	1.296576e+00	5.116819e+01	-6.881234e+01	2.771359e+05	1.097201e+05	2.947940e+02	1.921479e-01	1.183616e+01	0.000000e+00	
0.000000e+00	1.028481e+00	1.222652e+00	5.504771e+01	-1.736061e+01	2.556267e+05	1.017057e+05	2.897831e+02	1.383379e-01	5.367560e-01	0.000000e+00	
3.448276e-02	1.028481e+00	1.296580e+00	5.116802e+01	-6.881234e+01	2.771366e+05	1.097204e+05	2.947938e+02	1.921471e-01	1.183656e+01	0.000000e+00	
0.000000e+00	9.968354e-01	1.222650e+00	5.504847e+01	-1.735893e+01	2.556267e+05	1.017057e+05	2.897833e+02	1.383385e-01	5.367289e-01	0.000000e+00	
3.448276e-02	9.968354e-01	1.296583e+00	5.116829e+01	-6.881229e+01	2.771371e+05	1.097206e+05	2.947937e+02	1.921470e-01	1.183685e+01	0.000000e+00	
0.000000e+00	9.651899e-01	1.222649e+00	5.504914e+01	-1.735788e+01	2.556267e+05	1.017057e+05	2.897835e+02	1.383393e-01	5.367126e-01	0.000000e+00	
3.448276e-02	9.651899e-01	1.296584e+00	5.116862e+01	-6.881234e+01	2.771375e+05	1.097207e+05	2.947937e+02	1.921473e-01	1.183706e+01	0.000000e+00	
0.000000e+00	9.335443e-01	1.222649e+00	5.504950e+01	-1.735722e+01	2.556267e+05	1.017057e+05	2.897836e+02	1.383397e-01	5.367034e-01	0.000000e+00	
3.448276e-02	9.335443e-01	1.296585e+00	5.116881e+01	-6.881242e+01	2.771378e+05	1.097208e+05	2.947938e+02	1.921475e-01	1.183720e+01	0.000000e+00	
0.000000e+00	9.018987e-01	1.222648e+00	5.504957e+01	-1.735676e+01	2.556267e+05	1.017057e+05	2.897837e+02	1.383396e-01	5.366982e-01	0.000000e+00	
3.448276e-02	9.018987e-01	1.296586e+00	5.116881e+01	-6.881247e+01	2.771379e+05	1.097209e+05	2.947938e+02	1.921475e-01	1.183730e+01	0.000000e+00	
0.000000e+00	8.702532e-01	1.222648e+00	5.504951e+01	-1.735640e+01	2.556267e+05	1.017057e+05	2.897838e+02	1.383392e-01	5.366988e-01	0.000000e+00	
3.448276e-02	8.702532e-01	1.296587e+00	5.116871e+01	-6.881248e+01	2.771381e+05	1.097210e+05	2.947939e+02	1.921473e-01	1.183739e+01	0.000000e+00	
0.000000e+00	8.386076e-01	1.222648e+00	5.504941e+01	-1.735611e+01	2.556267e+05	1.017057e+05	2.897838e+02	1.383387e-01	5.367040e-01	0.000000e+00	
3.448276e-02	8.386076e-01	1.296587e+00	5.116858e+01	-6.881245e+01	2.771382e+05	1.097210e+05	2.947939e+02	1.921470e-01	1.183745e+01	0.000000e+00	
0.000000e+00	8.069620e-01	1.222648e+00	5.504932e+01	-1.735587e+01	2.556267e+05	1.017057e+05	2.897839e+02	1.383384e-01	5.367130e-01	0.000000e+00	
3.448276e-02	8.069620e-01	1.296587e+00	5.116846e+01	-6.881240e+01	2.771383e+05	1.097211e+05	2.947940e+02	1.921467e-01	1.183751e+01	0.000000e+00	
0.000000e+00	7.753165e-01	1.222648e+00	5.504926e+01	-1.735567e+01	2.556267e+05	1.017057e+05	2.897839e+02	1.383381e-01	5.367241e-01	0.000000e+00	
3.448276e-02	7.753165e-01	1.296587e+00	5.116836e+01	-6.881235e+01	2.771384e+05	1.097211e+05	2.947940e+02	1.921465e-01	1.183756e+01	0.000000e+00	
0.000000e+00	7.436709e-01	1.222648e+00	5.504922e+01	-1.735552e+01	2.556267e+05	1.017057e+05	2.897839e+02	1.383379e-01	5.367369e-01	0.000000e+00	
3.448276e-02	7.436709e-01	1.296587e+00	5.116828e+01	-6.881231e+01	2.771384e+05	1.097211e+05	2.947941e+02	1.921462e-01	1.183761e+01	0.000000e+00	
0.000000e+00	7.120253e-01	1.222648e+00	5.504919e+01	-1.735540e+01	2.556267e+05	1.017057e+05	2.897839e+02	1.383377e-01	5.367507e-01	0.000000e+00	
3.448276e-02	7.120253e-01	1.296588e+00	5.116821e+01	-6.881228e+01	2.771385e+05	1.097211e+05	2.947941e+02	1.921461e-01	1.183765e+01	0.000000e+00	
0.000000e+00	6.803797e-01	1.222648e+00	5.504916e+01	-1.735531e+01	2.556267e+05	1.017057e+05	2.897839e+02	1.383376e-01	5.367654e-01	0.000000e+00	
3.448276e-02	6.803797e-01	1.296588e+00	5.116816e+01	-6.881225e+01	2.771386e+05	1.097212e+05	2.947942e+02	1.921459e-01	1.183768e+01	0.000000e+00	
0.000000e+00	6.487342e-01	1.222648e+00	5.504914e+01	-1.735524e+01	2.556268e+05	1.017057e+05	2.897840e+02	1.383375e-01	5.367806e-01	0.000000e+00	
3.448276e-02	6.487342e-01	1.296588e+00	5.116811e+01	-6.881224e+01	2.771386e+05	1.097212e+05	2.947942e+02	1.921458e-01	1.183771e+01	0.000000e+00	
0.000000e+00	6.170886e-01	1.222648e+00	5.504912e+01	-1.735519e+01	2.556268e+05	1.017057e+05	2.897840e+02	1.383374e-01	5.367963e-01	0.000000e+00	
3.448276e-02	6.170886e-01	1.296588e+00	5.116808e+01	-6.881223e+01	2.771387e+05	1.097212e+05	2.947942e+02	1.921457e-01	1.183774e+01	0.000000e+00	
0.000000e+00	5.854430e-01	1.222648e+00	5.504911e+01	-1.735515e+01	2.556268e+05	1.017057e+05	2.897840e+02	1.383373e-01	5.368122e-01	0.000000e+00	
3.448276e-02	5.854430e-01	1.296588e+00	5.116805e+01	-6.881223e+01	2.771387e+05	1.097212e+05	2.947943e+02	1.921456e-01	1.183777e+01	0.000000e+00	
0.000000e+00	5.537975e-01	1.222648e+00	5.504910e+01	-1.735512e+01	2.556269e+05	1.017058e+05	2.897840e+02	1.383372e-01	5.368281e-01	0.000000e+00	
3.448276e-02	5.537975e-01	1.296588e+00	5.116802e+01	-6.881223e+01	2.771388e+05	1.097212e+05	2.947943e+02	1.921456e-01	1.183779e+01	0.000000e+00	
0.000000e+00	5.221519e-01	1.222648e+00	5.504909e+01	-1.735510e+01	2.556269e+05	1.017058e+05	2.897840e+02	1.383372e-01	5.368439e-01	0.000000e+00	
3.448276e-02	5.221519e-01	1.296588e+00	5.116801e+01	-6.881224e+01	2.771388e+05	1.097213e+05	2.947943e+02	1.921456e-01	1.183781e+01	0.000000e+00	
0.000000e+00	4.905063e-01	1.222648e+00	5.504908e+01	-1.735509e+01	2.556269e+05	1.017058e+05	2.897840e+02	1.383372e-01	5.368595e-01	0.000000e+00	
3.448276e-02	4.905063e-01	1.296588e+00	5.116800e+01	-6.881224e+01	2.771388e+05	1.097213e+05	2.947943e+02	1.921455e-01	1.183784e+01	0.000000e+00	
0.000000e+00	4.588608e-01	1.222649e+00	5.504909e+01	-1.735508e+01	2.556269e+05	1.017058e+05	2.897840e+02	1.383371e-01	5.368749e-01	0.000000e+00	
3.448276e-02	4.588608e-01	1.296589e+00	5.116799e+01	-6.881225e+01	2.771389e+05	1.097213e+05	2.947943e+02	1.921455e-01	1.183786e+01	0.000000e+00	
0.000000e+00	4.272152e-01	1.222649e+00	5.504909e+01	-1.735507e+01	2.556270e+05	1.017058e+05	2.897840e+02	1.383371e-01	5.368900e-01	0.000000e+00	
3.448276e-02	4.272152e-01	1.296589e+00	5.116799e+01	-6.881226e+01	2.771389e+05	1.097213e+05	2.947943e+02	1.921455e-01	1.183787e+01	0.000000e+00	
0.000000e+00	3.955696e-01	1.222649e+00	5.504910e+01	-1.735506e+01	2.556270e+05	1.017058e+05	2.897840e+02	1.383371e-01	5.369047e-01	0.000000e+00	
3.448276e-02	3.955696e-01	1.296589e+00	5.116800e+01	-6.881227e+01	2.771389e+05	1.097213e+05	2.947943e+02	1.921455e-01	1.183789e+01	0.000000e+00	
0.000000e+00	3.639241e-01	1.222649e+00	5.504912e+01	-1.735506e+01	2.556270e+05	1.017058e+05	2.897840e+02	1.383372e-01	5.369189e-01	0.000000e+00	
3.448276e-02	3.639241e-01	1.296589e+00	5.116802e+01	-6.881228e+01	2.771390e+05	1.097213e+05	2.947943e+02	1.921455e-01	1.183791e+01	0.000000e+00	
0.000000e+00	3.322785e-01	1.222649e+00	5.504914e+01	-1.735506e+01	2.556270e+05	1.017058e+05	2.897840e+02	1.383372e-01	5.369326e-01	0.000000e+00	
3.448276e-02	3.322785e-01	1.296589e+00	5.116804e+01	-6.881229e+01	2.771390e+05	1.097213e+05	2.947943e+02	1.921456e-01	1.183792e+01	0.000000e+00	
0.000000e+00	3.006329e-01	1.222649e+00	5.504917e+01	-1.735505e+01	2.556271e+05	1.017058e+05	2.897840e+02	1.383373e-01	5.369456e-01	0.000000e+00	
3.448276e-02	3.006329e-01	1.296589e+00	5.116807e+01	-6.881230e+01	2.771390e+05	1.097214e+05	2.947943e+02	1.921456e-01	1.183794e+01	0.000000e+00	
0.000000e+00	2.689873e-01	1.222649e+00	5.504920e+01	-1.735505e+01	2.556271e+05	1.017059e+05	2.897840e+02	1.383373e-01	5.369579e-01	0.000000e+00	
3.448276e-02	2.689873e-01	1.296589e+00	5.116810e+01	-6.881230e+01	2.771390e+05	1.097214e+05	2.947943e+02	1.921456e-01	1.183795e+01	0.000000e+00	
0.000000e+00	2.373418e-01	1.222649e+00	5.504924e+01	-1.735505e+01	2.556271e+05	1.017059e+05	2.897840e+02	1.383374e-01	5.369694e-01	0.000000e+00	
3.448276e-02	2.373418e-01	1.296589e+00	5.116814e+01	-6.881230e+01	2.771391e+05	1.097214e+05	2.947943e+02	1.921457e-01	1.183797e+01	0.000000e+00	
0.000000e+00	2.056962e-01	1.222649e+00	5.504928e+01	-1.735504e+01	2.556271e+05	1.017059e+05	2.897840e+02	1.383375e-01	5.369802e-01	0.000000e+00	
3.448276e-02	2.056962e-01	1.296589e+00	5.116818e+01	-6.881230e+01	2.771391e+05	1.097214e+05	2.947944e+02	1.921457e-01	1.183798e+01	0.000000e+00	
0.000000e+00	1.740506e-01	1.222649e+00	5.504933e+01	-1.735503e+01	2.556271e+05	1.017059e+05	2.897840e+02	1.383376e-01	5.369900e-01	0.000000e+00	
3.448276e-02	1.740506e-01	1.296589e+00	5.116823e+01	-6.881230e+01	2.771391e+05	1.097214e+05	2.947944e+02	1.921458e-01	1.183799e+01	0.000000e+00	
0.000000e+00	1.424051e-01	1.222649e+00	5.504938e+01	-1.735502e+01	2.556272e+05	1.017059e+05	2.897840e+02	1.383377e-01	5.369989e-01	0.000000e+00	
3.448276e-02	1.424051e-01	1.296590e+00	5.116828e+01	-6.881230e+01	2.771391e+05	1.097214e+05	2.947944e+02	1.921458e-01	1.183800e+01	0.000000e+00	
0.000000e+00	1.107595e-01	1.222649e+00	5.504943e+01	-1.735500e+01	2.556272e+05	1.017059e+05	2.897840e+02	1.383378e-01	5.370068e-01	0.000000e+00	
3.448276e-02	1.107595e-01	1.296590e+00	5.116834e+01	-6.881229e+01	2.771392e+05	1.097214e+05	2.947944e+02	1.921459e-01	1.183801e+01	0.000000e+00	
0.000000e+00	7.911392e-02	1.222649e+00	5.504949e+01	-1.735499e+01	2.556272e+05	1.017059e+05	2.897841e+02	1.383379e-01	5.370136e-01	0.000000e+00	
3.448276e-02	7.911392e-02	1.296590e+00	5.116840e+01	-6.881227e+01	2.771392e+05	1.097214e+05	2.947944e+02	1.921459e-01	1.183802e+01	0.000000e+00	
0.000000e+00	4.746835e-02	1.222650e+00	5.504955e+01	-1.735496e+01	2.556272e+05	1.017059e+05	2.897841e+02	1.383380e-01	5.370194e-01	0.000000e+00	
3.448276e-02	4.746835e-02	1.296590e+00	5.116847e+01	-6.881226e+01	2.771392e+05	1.097214e+05	2.947944e+02	1.921460e-01	1.183803e+01	0.000000e+00	
0.000000e+00	1.582278e-02	1.222650e+00	5.504962e+01	-1.735494e+01	2.556272e+05	1.017059e+05	2.897841e+02	1.383381e-01	5.370241e-01	0.000000e+00	
3.448276e-02	1.582278e-02	1.296590e+00	5.116853e+01	-6.881224e+01	2.771392e+05	1.097214e+05	2.947944e+02	1.921460e-01	1.183804e+01	0.000000e+00	
0.000000e+00	-1.582278e-02	1.222650e+00	5.504969e+01	-1.735491e+01	2.556272e+05	1.017059e+05	2.897841e+02	1.383383e-01	5.370276e-01	0.000000e+00	
3.448276e-02	-1.582278e-02	1.296590e+00	5.116861e+01	-6.881222e+01	2.771392e+05	1.097214e+05	2.947944e+02	1.921461e-01	1.183805e+01	0.000000e+00	
0.000000e+00	-4.746835e-02	1.222650e+00	5.504976e+01	-1.735487e+01	2.556272e+05	1.017059e+05	2.897841e+02	1.383384e-01	5.370300e-01	0.000000e+00	
3.448276e-02	-4.746835e-02	1.296590e+00	5.116868e+01	-6.881219e+01	2.771392e+05	1.097214e+05	2.947944e+02	1.921461e-01	1.183805e+01	0.000000e+00	
0.000000e+00	-7.911392e-02	1.222650e+00	5.504984e+01	-1.735483e+01	2.556272e+05	1.017059e+05	2.897841e+02	1.383385e-01	5.370312e-01	0.000000e+00	
3.448276e-02	-7.911392e-02	1.296590e+00	5.116876e+01	-6.881216e+01	2.771392e+05	1.097214e+05	2.947944e+02	1.921461e-01	1.183806e+01	0.000000e+00	
0.000000e+00	-1.107595e-01	1.222650e+00	5.504991e+01	-1.735479e+01	2.556272e+05	1.017059e+05	2.897841e+02	1.383387e-01	5.370313e-01	0.000000e+00	
3.448276e-02	-1.107595e-01	1.296590e+00	5.116883e+01	-6.881212e+01	2.771393e+05	1.097214e+05	2.947944e+02	1.921462e-01	1.183806e+01	0.000000e+00	
0.000000e+00	-1.424051e-01	1.222650e+00	5.504999e+01	-1.735474e+01	2.556272e+05	1.017059e+05	2.897841e+02	1.383388e-01	5.370301e-01	0.000000e+00	
3.448276e-02	-1.424051e-01	1.296590e+00	5.116892e+01	-6.881209e+01	2.771393e+05	1.097214e+05	2.947944e+02	1.921462e-01	1.183807e+01	0.000000e+00	
0.000000e+00	-1.740506e-01	1.222650e+00	5.505007e+01	-1.735469e+01	2.556272e+05	1.017059e+05	2.897841e+02	1.383390e-01	5.370277e-01	0.000000e+00	
3.448276e-02	-1.740506e-01	1.296590e+00	5.116900e+01	-6.881204e+01	2.771393e+05	1.097214e+05	2.947944e+02	1.921462e-01	1.183807e+01	0.000000e+00	
0.000000e+00	-2.056962e-01	1.222650e+00	5.505015e+01	-1.735463e+01	2.556272e+05	1.017059e+05	2.897841e+02	1.383391e-01	5.370242e-01	0.000000e+00	
3.448276e-02	-2.056962e-01	1.296590e+00	5.116908e+01	-6.881200e+01	2.771393e+05	1.097214e+05	2.947944e+02	1.921463e-01	1.183807e+01	0.000000e+00	
0.000000e+00	-2.373418e-01	1.222650e+00	5.505023e+01	-1.735457e+01	2.556272e+05	1.017059e+05	2.897841e+02	1.383393e-01	5.370195e-01	0.000000e+00	
3.448276e-02	-2.373418e-01	1.296590e+00	5.116917e+01	-6.881195e+01	2.771393e+05	1.097215e+05	2.947944e+02	1.921463e-01	1.183808e+01	0.000000e+00	
0.000000e+00	-2.689873e-01	1.222649e+00	5.505032e+01	-1.735450e+01	2.556272e+05	1.017059e+05	2.897841e+02	1.383394e-01	5.370136e-01	0.000000e+00	
3.448276e-02	-2.689873e-01	1.296590e+00	5.116925e+01	-6.881189e+01	2.771393e+05	1.097215e+05	2.947944e+02	1.921463e-01	1.183808e+01	0.000000e+00	
0.000000e+00	-3.006329e-01	1.222649e+00	5.505040e+01	-1.735443e+01	2.556272e+05	1.017059e+05	2.897840e+02	1.383396e-01	5.370065e-01	0.000000e+00	
3.448276e-02	-3.006329e-01	1.296590e+00	5.116934e+01	-6.881184e+01	2.771393e+05	1.097215e+05	2.947944e+02	1.921463e-01	1.183808e+01	0.000000e+00	
0.000000e+00	-3.322785e-01	1.222649e+00	5.505049e+01	-1.735435e+01	2.556272e+05	1.017059e+05	2.897840e+02	1.383397e-01	5.369984e-01	0.000000e+00	
3.448276e-02	-3.322785e-01	1.296590e+00	5.116942e+01	-6.881178e+01	2.771393e+05	1.097215e+05	2.947944e+02	1.921463e-01	1.183808e+01	0.000000e+00	
0.000000e+00	-3.639241e-01	1.222649e+00	5.505057e+01	-1.735426e+01	2.556272e+05	1.017059e+05	2.897840e+02	1.383398e-01	5.369892e-01	0.000000e+00	
3.448276e-02	-3.639241e-01	1.296590e+00	5.116951e+01	-6.881171e+01	2.771393e+05	1.097215e+05	2.947944e+02	1.921463e-01	1.183808e+01	0.000000e+00	
0.000000e+00	-3.955696e-01	1.222649e+00	5.505066e+01	-1.735418e+01	2.556272e+05	1.017059e+05	2.897840e+02	1.383400e-01	5.369789e-01	0.000000e+00	
3.448276e-02	-3.955696e-01	1.296590e+00	5.116959e+01	-6.881164e+01	2.771393e+05	1.097215e+05	2.947944e+02	1.921463e-01	1.183808e+01	0.000000e+00	
0.000000e+00	-4.272152e-01	1.222649e+00	5.505074e+01	-1.735408e+01	2.556272e+05	1.017059e+05	2.897840e+02	1.383401e-01	5.369676e-01	0.000000e+00	
3.448276e-02	-4.272152e-01	1.296590e+00	5.116968e+01	-6.881157e+01	2.771393e+05	1.097215e+05	2.947944e+02	1.921463e-01	1.183808e+01	0.000000e+00	
0.000000e+00	-4.588608e-01	1.222649e+00	5.505083e+01	-1.735399e+01	2.556271e+05	1.017058e+05	2.897840e+02	1.383403e-01	5.369553e-01	0.000000e+00	
3.448276e-02	-4.588608e-01	1.296590e+00	5.116977e+01	-6.881150e+01	2.771393e+05	1.097215e+05	2.947944e+02	1.921463e-01	1.183808e+01	0.000000e+00	
0.000000e+00	-4.905063e-01	1.222649e+00	5.505092e+01	-1.735388e+01	2.556271e+05	1.017058e+05	2.897840e+02	1.383404e-01	5.369420e-01	0.000000e+00	
3.448276e-02	-4.905063e-01	1.296590e+00	5.116986e+01	-6.881142e+01	2.771393e+05	1.097215e+05	2.947944e+02	1.921463e-01	1.183807e+01	0.000000e+00	
0.000000e+00	-5.221519e-01	1.222649e+00	5.505101e+01	-1.735378e+01	2.556271e+05	1.017058e+05	2.897840e+02	1.383405e-01	5.369278e-01	0.000000e+00	
3.448276e-02	-5.221519e-01	1.296590e+00	5.116994e+01	-6.881134e+01	2.771393e+05	1.097214e+05	2.947944e+02	1.921462e-01	1.183807e+01	0.000000e+00	
0.000000e+00	-5.537975e-01	1.222649e+00	5.505109e+01	-1.735367e+01	2.556271e+05	1.017058e+05	2.897840e+02	1.383407e-01	5.369126e-01	0.000000e+00	
3.448276e-02	-5.537975e-01	1.296590e+00	5.117003e+01	-6.881126e+01	2.771393e+05	1.097214e+05	2.947944e+02	1.921462e-01	1.183807e+01	0.000000e+00	
0.000000e+00	-5.854430e-01	1.222649e+00	5.505118e+01	-1.735355e+01	2.556270e+05	1.017058e+05	2.897840e+02	1.383408e-01	5.368966e-01	0.000000e+00	
3.448276e-02	-5.854430e-01	1.296590e+00	5.117012e+01	-6.881117e+01	2.771393e+05	1.097214e+05	2.947944e+02	1.921462e-01	1.183807e+01	0.000000e+00	
0.000000e+00	-6.170886e-01	1.222649e+00	5.505127e+01	-1.735343e+01	2.556270e+05	1.017058e+05	2.897840e+02	1.383409e-01	5.368797e-01	0.000000e+00	
3.448276e-02	-6.170886e-01	1.296590e+00	5.117020e+01	-6.881108e+01	2.771393e+05	1.097214e+05	2.947944e+02	1.921461e-01	1.183806e+01	0.000000e+00	
0.000000e+00	-6.487342e-01	1.222649e+00	5.505136e+01	-1.735331e+01	2.556270e+05	1.017058e+05	2.897840e+02	1.383411e-01	5.368621e-01	0.000000e+00	
3.448276e-02	-6.487342e-01	1.296590e+00	5.117029e+01	-6.881099e+01	2.771392e+05	1.097214e+05	2.947944e+02	1.921461e-01	1.183806e+01	0.000000e+00	
0.000000e+00	-6.803797e-01	1.222648e+00	5.505145e+01	-1.735317e+01	2.556270e+05	1.017058e+05	2.897840e+02	1.383412e-01	5.368440e-01	0.000000e+00	
3.448276e-02	-6.803797e-01	1.296590e+00	5.117038e+01	-6.881089e+01	2.771392e+05	1.097214e+05	2.947944e+02	1.921460e-01	1.183805e+01	0.000000e+00	
0.000000e+00	-7.120253e-01	1.222648e+00	5.505155e+01	-1.735303e+01	2.556269e+05	1.017058e+05	2.897839e+02	1.383413e-01	5.368256e-01	0.000000e+00	
3.448276e-02	-7.120253e-01	1.296590e+00	5.117049e+01	-6.881079e+01	2.771392e+05	1.097214e+05	2.947944e+02	1.921460e-01	1.183805e+01	0.000000e+00	
0.000000e+00	-7.436709e-01	1.222648e+00	5.505166e+01	-1.735288e+01	2.556269e+05	1.017057e+05	2.897839e+02	1.383415e-01	5.368067e-01	0.000000e+00	
3.448276e-02	-7.436709e-01	1.296590e+00	5.117060e+01	-6.881068e+01	2.771392e+05	1.097214e+05	2.947944e+02	1.921460e-01	1.183804e+01	0.000000e+00	
0.000000e+00	-7.753165e-01	1.222648e+00	5.505180e+01	-1.735272e+01	2.556269e+05	1.017057e+05	2.897839e+02	1.383417e-01	5.367880e-01	0.000000e+00	
3.448276e-02	-7.753165e-01	1.296590e+00	5.117074e+01	-6.881057e+01	2.771392e+05	1.097214e+05	2.947944e+02	1.921460e-01	1.183804e+01	0.000000e+00	
0.000000e+00	-8.069620e-01	1.222648e+00	5.505197e+01	-1.735254e+01	2.556268e+05	1.017057e+05	2.897839e+02	1.383420e-01	5.367685e-01	0.000000e+00	
3.448276e-02	-8.069620e-01	1.296590e+00	5.117090e+01	-6.881045e+01	2.771392e+05	1.097214e+05	2.947944e+02	1.921460e-01	1.183803e+01	0.000000e+00	
0.000000e+00	-8.386076e-01	1.222648e+00	5.505218e+01	-1.735235e+01	2.556268e+05	1.017057e+05	2.897839e+02	1.383423e-01	5.367496e-01	0.000000e+00	
3.448276e-02	-8.386076e-01	1.296590e+00	5.117109e+01	-6.881034e+01	2.771392e+05	1.097214e+05	2.947944e+02	1.921460e-01	1.183803e+01	0.000000e+00	
0.000000e+00	-8.702532e-01	1.222648e+00	5.505244e+01	-1.735217e+01	2.556268e+05	1.017057e+05	2.897839e+02	1.383428e-01	5.367280e-01	0.000000e+00	
3.448276e-02	-8.702532e-01	1.296590e+00	5.117131e+01	-6.881025e+01	2.771392e+05	1.097214e+05	2.947944e+02	1.921462e-01	1.183801e+01	0.000000e+00	
0.000000e+00	-9.018987e-01	1.222648e+00	5.505273e+01	-1.735202e+01	2.556268e+05	1.017057e+05	2.897839e+02	1.383434e-01	5.367069e-01	0.000000e+00	
3.448276e-02	-9.018987e-01	1.296590e+00	5.117153e+01	-6.881021e+01	2.771391e+05	1.097214e+05	2.947943e+02	1.921464e-01	1.183799e+01	0.000000e+00	
0.000000e+00	-9.335443e-01	1.222647e+00	5.505297e+01	-1.735189e+01	2.556267e+05	1.017057e+05	2.897838e+02	1.383439e-01	5.366760e-01	0.000000e+00	
3.448276e-02	-9.335443e-01	1.296589e+00	5.117171e+01	-6.881018e+01	2.771391e+05	1.097214e+05	2.947943e+02	1.921467e-01	1.183795e+01	0.000000e+00	
0.000000e+00	-9.651899e-01	1.222647e+00	5.505298e+01	-1.735180e+01	2.556267e+05	1.017056e+05	2.897838e+02	1.383439e-01	5.366500e-01	0.000000e+00	
3.448276e-02	-9.651899e-01	1.296589e+00	5.117173e+01	-6.881022e+01	2.771390e+05	1.097213e+05	2.947943e+02	1.921468e-01	1.183792e+01	0.000000e+00	
0.000000e+00	-9.968354e-01	1.222647e+00	5.505266e+01	-1.735155e+01	2.556266e+05	1.017056e+05	2.897838e+02	1.383430e-01	5.366160e-01	0.000000e+00	
3.448276e-02	-9.968354e-01	1.296589e+00	5.117158e+01	-6.881006e+01	2.771389e+05	1.097213e+05	2.947943e+02	1.921464e-01	1.183785e+01	0.000000e+00	
0.000000e+00	-1.028481e+00	1.222647e+00	5.505202e+01	-1.735094e+01	2.556266e+05	1.017056e+05	2.897838e+02	1.383410e-01	5.366593e-01	0.000000e+00	
3.448276e-02	-1.028481e+00	1.296589e+00	5.117128e+01	-6.880982e+01	2.771389e+05	1.097213e+05	2.947943e+02	1.921455e-01	1.183785e+01	0.000000e+00	
0.000000e+00	-1.060127e+00	1.222648e+00	5.505221e+01	-1.734930e+01	2.556268e+05	1.017057e+05	2.897839e+02	1.383402e-01	5.367751e-01	0.000000e+00	
3.448276e-02	-1.060127e+00	1.296588e+00	5.117167e+01	-6.880884e+01	2.771387e+05	1.097212e+05	2.947944e+02	1.921444e-01	1.183777e+01	0.000000e+00	
0.000000e+00	-1.091772e+00	1.222652e+00	5.505523e+01	-1.734664e+01	2.556277e+05	1.017060e+05	2.897839e+02	1.383448e-01	5.372089e-01	0.000000e+00	
3.448276e-02	-1.091772e+00	1.296588e+00	5.117370e+01	-6.880855e+01	2.771389e+05	1.097213e+05	2.947944e+02	1.921465e-01	1.183785e+01	0.000000e+00	
0.000000e+00	-1.123418e+00	1.222656e+00	5.506492e+01	-1.734266e+01	2.556287e+05	1.017063e+05	2.897836e+02	1.383636e-01	5.375653e-01	0.000000e+00	
3.448276e-02	-1.123418e+00	1.296585e+00	5.117929e+01	-6.880859e+01	2.771381e+05	1.097209e+05	2.947941e+02	1.921547e-01	1.183727e+01	0.000000e+00	
0.000000e+00	-1.155063e+00	1.222664e+00	5.507971e+01	-1.734197e+01	2.556305e+05	1.017067e+05	2.897831e+02	1.383962e-01	5.382010e-01	0.000000e+00	
3.448276e-02	-1.155063e+00	1.296584e+00	5.118532e+01	-6.881534e+01	2.771376e+05	1.097205e+05	2.947930e+02	1.921753e-01	1.183667e+01	0.000000e+00	
0.000000e+00	-1.186709e+00	1.222646e+00	5.509020e+01	-1.734606e+01	2.556283e+05	1.017056e+05	2.897841e+02	1.384249e-01	5.366479e-01	0.000000e+00	
3.448276e-02	-1.186709e+00	1.296557e+00	5.117999e+01	-6.882261e+01	2.771313e+05	1.097178e+05	2.947922e+02	1.921856e-01	1.183297e+01	0.000000e+00	
0.000000e+00	-1.218354e+00	1.222559e+00	5.505656e+01	-1.736611e+01	2.556166e+05	1.017014e+05	2.897927e+02	1.383702e-01	5.307076e-01	0.000000e+00	
3.448276e-02	-1.218354e+00	1.296544e+00	5.114463e+01	-6.885003e+01	2.771305e+05	1.097175e+05	2.947941e+02	1.921888e-01	1.183248e+01	0.000000e+00	
6.896552e-02	1.218354e+00	1.316352e+00	5.312824e+01	-1.058215e+02	2.860965e+05	1.123084e+05	2.972148e+02	2.602738e-01	1.548532e+01	0.000000e+00	
6.896552e-02	1.250000e+00	1.316439e+00	5.310597e+01	-1.058124e+02	2.861119e+05	1.123153e+05	2.972136e+02	2.602173e-01	1.549514e+01	0.000000e+00	
6.896552e-02	1.186709e+00	1.316343e+00	5.314287e+01	-1.058201e+02	2.860968e+05	1.123083e+05	2.972166e+02	2.602865e-01	1.548519e+01	0.000000e+00	
6.896552e-02	1.155063e+00	1.316341e+00	5.315412e+01	-1.058209e+02	2.860974e+05	1.123083e+05	2.972171e+02	2.602992e-01	1.548525e+01	0.000000e+00	
6.896552e-02	1.123418e+00	1.316338e+00	5.315992e+01	-1.058238e+02	2.860970e+05	1.123079e+05	2.972167e+02	2.603113e-01	1.548475e+01	0.000000e+00	
6.896552e-02	1.091772e+00	1.316340e+00	5.316252e+01	-1.058256e+02	2.860970e+05	1.123079e+05	2.972162e+02	2.603174e-01	1.548462e+01	0.000000e+00	
6.896552e-02	1.060127e+00	1.316342e+00	5.316363e+01	-1.058267e+02	2.860971e+05	1.123078e+05	2.972156e+02	2.603204e-01	1.548457e+01	0.000000e+00	
6.896552e-02	1.028481e+00	1.316344e+00	5.316430e+01	-1.058272e+02	2.860972e+05	1.123078e+05	2.972152e+02	2.603219e-01	1.548461e+01	0.000000e+00	
6.896552e-02	9.968354e-01	1.316346e+00	5.316487e+01	-1.058276e+02	2.860973e+05	1.123079e+05	2.972148e+02	2.603230e-01	1.548467e+01	0.000000e+00	
6.896552e-02	9.651899e-01	1.316348e+00	5.316534e+01	-1.058280e+02	2.860975e+05	1.123079e+05	2.972145e+02	2.603240e-01	1.548471e+01	0.000000e+00	
6.896552e-02	9.335443e-01	1.316349e+00	5.316564e+01	-1.058284e+02	2.860976e+05	1.123079e+05	2.972143e+02	2.603248e-01	1.548476e+01	0.000000e+00	
6.896552e-02	9.018987e-01	1.316350e+00	5.316577e+01	-1.058286e+02	2.860977e+05	1.123080e+05	2.972141e+02	2.603254e-01	1.548479e+01	0.000000e+00	
6.896552e-02	8.702532e-01	1.316351e+00	5.316578e+01	-1.058288e+02	2.860977e+05	1.123080e+05	2.972141e+02	2.603257e-01	1.548483e+01	0.000000e+00	
6.896552e-02	8.386076e-01	1.316351e+00	5.316573e+01	-1.058290e+02	2.860978e+05	1.123080e+05	2.972140e+02	2.603258e-01	1.548487e+01	0.000000e+00	
6.896552e-02	8.069620e-01	1.316352e+00	5.316565e+01	-1.058291e+02	2.860979e+05	1.123081e+05	2.972140e+02	2.603259e-01	1.548490e+01	0.000000e+00	
6.896552e-02	7.753165e-01	1.316352e+00	5.316557e+01	-1.058291e+02	2.860979e+05	1.123081e+05	2.972140e+02	2.603258e-01	1.548494e+01	0.000000e+00	
6.896552e-02	7.436709e-01	1.316352e+00	5.316550e+01	-1.058292e+02	2.860980e+05	1.123081e+05	2.972140e+02	2.603258e-01	1.548497e+01	0.000000e+00	
6.896552e-02	7.120253e-01	1.316352e+00	5.316544e+01	-1.058292e+02	2.860981e+05	1.123081e+05	2.972141e+02	2.603257e-01	1.548501e+01	0.000000e+00	
6.896552e-02	6.803797e-01	1.316352e+00	5.316538e+01	-1.058292e+02	2.860981e+05	1.123082e+05	2.972141e+02	2.603257e-01	1.548504e+01	0.000000e+00	
6.896552e-02	6.487342e-01	1.316352e+00	5.316533e+01	-1.058292e+02	2.860982e+05	1.123082e+05	2.972142e+02	2.603256e-01	1.548507e+01	0.000000e+00	
6.896552e-02	6.170886e-01	1.316353e+00	5.316529e+01	-1.058292e+02	2.860982e+05	1.123082e+05	2.972142e+02	2.603256e-01	1.548509e+01	0.000000e+00	
6.896552e-02	5.854430e-01	1.316353e+00	5.316526e+01	-1.058292e+02	2.860983e+05	1.123082e+05	2.972142e+02	2.603256e-01	1.548512e+01	0.000000e+00	
6.896552e-02	5.537975e-01	1.316353e+00	5.316524e+01	-1.058293e+02	2.860983e+05	1.123082e+05	2.972143e+02	2.603256e-01	1.548514e+01	0.000000e+00	
6.896552e-02	5.221519e-01	1.316353e+00	5.316522e+01	-1.058293e+02	2.860983e+05	1.123082e+05	2.972143e+02	2.603256e-01	1.548516e+01	0.000000e+00	
6.896552e-02	4.905063e-01	1.316353e+00	5.316521e+01	-1.058293e+02	2.860984e+05	1.123083e+05	2.972143e+02	2.603256e-01	1.548518e+01	0.000000e+00	
6.896552e-02	4.588608e-01	1.316353e+00	5.316520e+01	-1.058293e+02	2.860984e+05	1.123083e+05	2.972144e+02	2.603256e-01	1.548520e+01	0.000000e+00	
6.896552e-02	4.272152e-01	1.316353e+00	5.316520e+01	-1.058293e+02	2.860984e+05	1.123083e+05	2.972144e+02	2.603256e-01	1.548522e+01	0.000000e+00	
6.896552e-02	3.955696e-01	1.316353e+00	5.316521e+01	-1.058293e+02	2.860985e+05	1.123083e+05	2.972144e+02	2.603256e-01	1.548523e+01	0.000000e+00	
6.896552e-02	3.639241e-01	1.316353e+00	5.316523e+01	-1.058294e+02	2.860985e+05	1.123083e+05	2.972144e+02	2.603256e-01	1.548525e+01	0.000000e+00	
6.896552e-02	3.322785e-01	1.316353e+00	5.316525e+01	-1.058294e+02	2.860985e+05	1.123083e+05	2.972144e+02	2.603256e-01	1.548527e+01	0.000000e+00	
6.896552e-02	3.006329e-01	1.316353e+00	5.316528e+01	-1.058294e+02	2.860986e+05	1.123083e+05	2.972144e+02	2.603257e-01	1.548528e+01	0.000000e+00	
6.896552e-02	2.689873e-01	1.316353e+00	5.316532e+01	-1.058294e+02	2.860986e+05	1.123083e+05	2.972144e+02	2.603257e-01	1.548529e+01	0.000000e+00	
6.896552e-02	2.373418e-01	1.316353e+00	5.316536e+01	-1.058294e+02	2.860986e+05	1.123083e+05	2.972144e+02	2.603257e-01	1.548531e+01	0.000000e+00	
6.896552e-02	2.056962e-01	1.316353e+00	5.316540e+01	-1.058294e+02	2.860986e+05	1.123084e+05	2.972145e+02	2.603258e-01	1.548532e+01	0.000000e+00	
6.896552e-02	1.740506e-01	1.316353e+00	5.316546e+01	-1.058294e+02	2.860987e+05	1.123084e+05	2.972145e+02	2.603258e-01	1.548533e+01	0.000000e+00	
6.896552e-02	1.424051e-01	1.316353e+00	5.316551e+01	-1.058294e+02	2.860987e+05	1.123084e+05	2.972145e+02	2.603258e-01	1.548534e+01	0.000000e+00	
6.896552e-02	1.107595e-01	1.316354e+00	5.316557e+01	-1.058294e+02	2.860987e+05	1.123084e+05	2.972145e+02	2.603259e-01	1.548535e+01	0.000000e+00	
6.896552e-02	7.911392e-02	1.316354e+00	5.316564e+01	-1.058294e+02	2.860987e+05	1.123084e+05	2.972145e+02	2.603259e-01	1.548536e+01	0.000000e+00	
6.896552e-02	4.746835e-02	1.316354e+00	5.316571e+01	-1.058294e+02	2.860987e+05	1.123084e+05	2.972145e+02	2.603259e-01	1.548537e+01	0.000000e+00	
6.896552e-02	1.582278e-02	1.316354e+00	5.316578e+01	-1.058294e+02	2.860987e+05	1.123084e+05	2.972145e+02	2.603260e-01	1.548538e+01	0.000000e+00	
6.896552e-02	-1.582278e-02	1.316354e+00	5.316586e+01	-1.058293e+02	2.860988e+05	1.123084e+05	2.972145e+02	2.603260e-01	1.548539e+01	0.000000e+00	
6.896552e-02	-4.746835e-02	1.316354e+00	5.316594e+01	-1.058293e+02	2.860988e+05	1.123084e+05	2.972145e+02	2.603260e-01	1.548539e+01	0.000000e+00	
6.896552e-02	-7.911392e-02	1.316354e+00	5.316602e+01	-1.058293e+02	2.860988e+05	1.123084e+05	2.972145e+02	2.603260e-01	1.548540e+01	0.000000e+00	
6.896552e-02	-1.107595e-01	1.316354e+00	5.316610e+01	-1.058293e+02	2.860988e+05	1.123084e+05	2.972145e+02	2.603261e-01	1.548541e+01	0.000000e+00	
6.896552e-02	-1.424051e-01	1.316354e+00	5.316619e+01	-1.058292e+02	2.860988e+05	1.123084e+05	2.972145e+02	2.603261e-01	1.548541e+01	0.000000e+00	
6.896552e-02	-1.740506e-01	1.316354e+00	5.316627e+01	-1.058292e+02	2.860988e+05	1.123084e+05	2.972145e+02	2.603261e-01	1.548542e+01	0.000000e+00	