TITLE = "Visualization of the volumetric solution"
VARIABLES = "x","y","Density","Momentum_x","Momentum_y","Energy","Pressure","Temperature","Mach","C<sub>p</sub>","Roe_Dissipation"
ZONE NODES= 3200, ELEMENTS= 3081, DATAPACKING=POINT, ZONETYPE=FEQUADRILATERAL
-2.000000e+00	1.250000e+00	1.221434e+00	5.251906e+01	2.800305e-06	2.533840e+05	1.009019e+05	2.877794e+02	1.264352e-01	-5.964629e-01	0.000000e+00	
-2.000000e+00	1.218354e+00	1.221433e+00	5.252053e+01	-7.613669e-04	2.533838e+05	1.009018e+05	2.877794e+02	1.264389e-01	-5.965982e-01	0.000000e+00	
-1.948718e+00	1.218354e+00	1.221421e+00	5.252086e+01	-8.856139e-04	2.533805e+05	1.009005e+05	2.877785e+02	1.264411e-01	-5.984568e-01	0.000000e+00	
-1.948718e+00	1.250000e+00	1.221422e+00	5.251851e+01	6.741129e-06	2.533806e+05	1.009006e+05	2.877785e+02	1.264354e-01	-5.983716e-01	0.000000e+00	
-2.000000e+00	1.186709e+00	1.221433e+00	5.252139e+01	-6.426421e-04	2.533837e+05	1.009018e+05	2.877794e+02	1.264410e-01	-5.966470e-01	0.000000e+00	
-1.948718e+00	1.186709e+00	1.221422e+00	5.252246e+01	-8.464675e-04	2.533806e+05	1.009005e+05	2.877785e+02	1.264449e-01	-5.984344e-01	0.000000e+00	
-2.000000e+00	1.155063e+00	1.221433e+00	5.252174e+01	-3.641732e-04	2.533837e+05	1.009018e+05	2.877793e+02	1.264419e-01	-5.966870e-01	0.000000e+00	
-1.948718e+00	1.155063e+00	1.221421e+00	5.252297e+01	-6.502949e-04	2.533806e+05	1.009005e+05	2.877784e+02	1.264462e-01	-5.984640e-01	0.000000e+00	
-2.000000e+00	1.123418e+00	1.221433e+00	5.252188e+01	-1.440959e-04	2.533837e+05	1.009018e+05	2.877793e+02	1.264422e-01	-5.967048e-01	0.000000e+00	
-1.948718e+00	1.123418e+00	1.221421e+00	5.252300e+01	-3.768888e-04	2.533806e+05	1.009005e+05	2.877784e+02	1.264463e-01	-5.984667e-01	0.000000e+00	
-2.000000e+00	1.091772e+00	1.221433e+00	5.252199e+01	-4.031511e-05	2.533836e+05	1.009018e+05	2.877793e+02	1.264425e-01	-5.967151e-01	0.000000e+00	
-1.948718e+00	1.091772e+00	1.221421e+00	5.252298e+01	-2.160230e-04	2.533806e+05	1.009005e+05	2.877784e+02	1.264462e-01	-5.984791e-01	0.000000e+00	
-2.000000e+00	1.060127e+00	1.221433e+00	5.252207e+01	-3.102942e-07	2.533836e+05	1.009018e+05	2.877793e+02	1.264427e-01	-5.967188e-01	0.000000e+00	
-1.948718e+00	1.060127e+00	1.221421e+00	5.252298e+01	-1.105954e-04	2.533806e+05	1.009005e+05	2.877784e+02	1.264462e-01	-5.984831e-01	0.000000e+00	
-2.000000e+00	1.028481e+00	1.221433e+00	5.252212e+01	9.347521e-06	2.533836e+05	1.009018e+05	2.877793e+02	1.264428e-01	-5.967206e-01	0.000000e+00	
-1.948718e+00	1.028481e+00	1.221421e+00	5.252299e+01	-5.551922e-05	2.533806e+05	1.009005e+05	2.877784e+02	1.264463e-01	-5.984887e-01	0.000000e+00	
-2.000000e+00	9.968354e-01	1.221433e+00	5.252213e+01	1.055457e-05	2.533836e+05	1.009018e+05	2.877793e+02	1.264428e-01	-5.967203e-01	0.000000e+00	
-1.948718e+00	9.968354e-01	1.221421e+00	5.252299e+01	-1.801958e-05	2.533805e+05	1.009005e+05	2.877784e+02	1.264463e-01	-5.984908e-01	0.000000e+00	
-2.000000e+00	9.651899e-01	1.221433e+00	5.252213e+01	8.603557e-06	2.533836e+05	1.009018e+05	2.877793e+02	1.264428e-01	-5.967193e-01	0.000000e+00	
-1.948718e+00	9.651899e-01	1.221421e+00	5.252298e+01	4.162589e-06	2.533805e+05	1.009005e+05	2.877784e+02	1.264462e-01	-5.984929e-01	0.000000e+00	
-2.000000e+00	9.335443e-01	1.221433e+00	5.252211e+01	6.774030e-06	2.533836e+05	1.009018e+05	2.877793e+02	1.264428e-01	-5.967177e-01	0.000000e+00	
-1.948718e+00	9.335443e-01	1.221421e+00	5.252296e+01	2.027383e-05	2.533805e+05	1.009005e+05	2.877784e+02	1.264462e-01	-5.984934e-01	0.000000e+00	
-2.000000e+00	9.018987e-01	1.221433e+00	5.252209e+01	5.210985e-06	2.533836e+05	1.009018e+05	2.877793e+02	1.264427e-01	-5.967160e-01	0.000000e+00	
-1.948718e+00	9.018987e-01	1.221421e+00	5.252293e+01	3.067062e-05	2.533805e+05	1.009005e+05	2.877784e+02	1.264461e-01	-5.984937e-01	0.000000e+00	
-2.000000e+00	8.702532e-01	1.221433e+00	5.252206e+01	4.219587e-06	2.533836e+05	1.009018e+05	2.877793e+02	1.264426e-01	-5.967139e-01	0.000000e+00	
-1.948718e+00	8.702532e-01	1.221421e+00	5.252290e+01	3.831481e-05	2.533805e+05	1.009005e+05	2.877784e+02	1.264461e-01	-5.984932e-01	0.000000e+00	
-2.000000e+00	8.386076e-01	1.221433e+00	5.252202e+01	3.394787e-06	2.533837e+05	1.009018e+05	2.877793e+02	1.264426e-01	-5.967118e-01	0.000000e+00	
-1.948718e+00	8.386076e-01	1.221421e+00	5.252287e+01	4.307925e-05	2.533805e+05	1.009005e+05	2.877784e+02	1.264460e-01	-5.984926e-01	0.000000e+00	
-2.000000e+00	8.069620e-01	1.221433e+00	5.252199e+01	2.710032e-06	2.533837e+05	1.009018e+05	2.877793e+02	1.264425e-01	-5.967097e-01	0.000000e+00	
-1.948718e+00	8.069620e-01	1.221421e+00	5.252283e+01	4.595908e-05	2.533805e+05	1.009005e+05	2.877784e+02	1.264459e-01	-5.984915e-01	0.000000e+00	
-2.000000e+00	7.753165e-01	1.221433e+00	5.252196e+01	2.079602e-06	2.533837e+05	1.009018e+05	2.877793e+02	1.264424e-01	-5.967077e-01	0.000000e+00	
-1.948718e+00	7.753165e-01	1.221421e+00	5.252280e+01	4.707566e-05	2.533805e+05	1.009005e+05	2.877784e+02	1.264458e-01	-5.984904e-01	0.000000e+00	
-2.000000e+00	7.436709e-01	1.221433e+00	5.252192e+01	1.580900e-06	2.533837e+05	1.009018e+05	2.877793e+02	1.264423e-01	-5.967057e-01	0.000000e+00	
-1.948718e+00	7.436709e-01	1.221421e+00	5.252276e+01	4.705733e-05	2.533805e+05	1.009005e+05	2.877784e+02	1.264457e-01	-5.984892e-01	0.000000e+00	
-2.000000e+00	7.120253e-01	1.221433e+00	5.252189e+01	1.206424e-06	2.533837e+05	1.009018e+05	2.877793e+02	1.264422e-01	-5.967037e-01	0.000000e+00	
-1.948718e+00	7.120253e-01	1.221421e+00	5.252273e+01	4.614743e-05	2.533805e+05	1.009005e+05	2.877784e+02	1.264456e-01	-5.984879e-01	0.000000e+00	
-2.000000e+00	6.803797e-01	1.221433e+00	5.252186e+01	9.584270e-07	2.533837e+05	1.009018e+05	2.877793e+02	1.264422e-01	-5.967019e-01	0.000000e+00	
-1.948718e+00	6.803797e-01	1.221421e+00	5.252270e+01	4.468584e-05	2.533805e+05	1.009005e+05	2.877784e+02	1.264456e-01	-5.984865e-01	0.000000e+00	
-2.000000e+00	6.487342e-01	1.221433e+00	5.252183e+01	7.961048e-07	2.533837e+05	1.009018e+05	2.877793e+02	1.264421e-01	-5.967002e-01	0.000000e+00	
-1.948718e+00	6.487342e-01	1.221421e+00	5.252267e+01	4.280393e-05	2.533805e+05	1.009005e+05	2.877784e+02	1.264455e-01	-5.984852e-01	0.000000e+00	
-2.000000e+00	6.170886e-01	1.221433e+00	5.252181e+01	6.965673e-07	2.533837e+05	1.009018e+05	2.877793e+02	1.264420e-01	-5.966985e-01	0.000000e+00	
-1.948718e+00	6.170886e-01	1.221421e+00	5.252264e+01	4.065293e-05	2.533805e+05	1.009005e+05	2.877784e+02	1.264454e-01	-5.984840e-01	0.000000e+00	
-2.000000e+00	5.854430e-01	1.221433e+00	5.252178e+01	6.357251e-07	2.533837e+05	1.009018e+05	2.877793e+02	1.264420e-01	-5.966970e-01	0.000000e+00	
-1.948718e+00	5.854430e-01	1.221421e+00	5.252262e+01	3.830452e-05	2.533805e+05	1.009005e+05	2.877784e+02	1.264454e-01	-5.984827e-01	0.000000e+00	
-2.000000e+00	5.537975e-01	1.221433e+00	5.252176e+01	6.040939e-07	2.533837e+05	1.009018e+05	2.877793e+02	1.264419e-01	-5.966956e-01	0.000000e+00	
-1.948718e+00	5.537975e-01	1.221421e+00	5.252260e+01	3.584088e-05	2.533805e+05	1.009005e+05	2.877784e+02	1.264453e-01	-5.984815e-01	0.000000e+00	
-2.000000e+00	5.221519e-01	1.221433e+00	5.252173e+01	5.927052e-07	2.533837e+05	1.009018e+05	2.877793e+02	1.264418e-01	-5.966943e-01	0.000000e+00	
-1.948718e+00	5.221519e-01	1.221421e+00	5.252257e+01	3.331028e-05	2.533805e+05	1.009005e+05	2.877784e+02	1.264453e-01	-5.984804e-01	0.000000e+00	
-2.000000e+00	4.905063e-01	1.221433e+00	5.252171e+01	5.972049e-07	2.533837e+05	1.009018e+05	2.877793e+02	1.264418e-01	-5.966932e-01	0.000000e+00	
-1.948718e+00	4.905063e-01	1.221421e+00	5.252255e+01	3.075994e-05	2.533805e+05	1.009005e+05	2.877784e+02	1.264452e-01	-5.984794e-01	0.000000e+00	
-2.000000e+00	4.588608e-01	1.221433e+00	5.252170e+01	6.126136e-07	2.533837e+05	1.009018e+05	2.877793e+02	1.264418e-01	-5.966921e-01	0.000000e+00	
-1.948718e+00	4.588608e-01	1.221421e+00	5.252254e+01	2.821837e-05	2.533806e+05	1.009005e+05	2.877784e+02	1.264452e-01	-5.984784e-01	0.000000e+00	
-2.000000e+00	4.272152e-01	1.221433e+00	5.252168e+01	6.358151e-07	2.533837e+05	1.009018e+05	2.877793e+02	1.264417e-01	-5.966911e-01	0.000000e+00	
-1.948718e+00	4.272152e-01	1.221421e+00	5.252252e+01	2.571004e-05	2.533806e+05	1.009005e+05	2.877784e+02	1.264451e-01	-5.984775e-01	0.000000e+00	
-2.000000e+00	3.955696e-01	1.221433e+00	5.252167e+01	6.638477e-07	2.533837e+05	1.009018e+05	2.877793e+02	1.264417e-01	-5.966902e-01	0.000000e+00	
-1.948718e+00	3.955696e-01	1.221421e+00	5.252250e+01	2.324951e-05	2.533806e+05	1.009005e+05	2.877784e+02	1.264451e-01	-5.984767e-01	0.000000e+00	
-2.000000e+00	3.639241e-01	1.221433e+00	5.252165e+01	6.949022e-07	2.533837e+05	1.009018e+05	2.877793e+02	1.264416e-01	-5.966895e-01	0.000000e+00	
-1.948718e+00	3.639241e-01	1.221421e+00	5.252249e+01	2.084811e-05	2.533806e+05	1.009005e+05	2.877784e+02	1.264451e-01	-5.984760e-01	0.000000e+00	
-2.000000e+00	3.322785e-01	1.221433e+00	5.252164e+01	7.274801e-07	2.533837e+05	1.009018e+05	2.877793e+02	1.264416e-01	-5.966888e-01	0.000000e+00	
-1.948718e+00	3.322785e-01	1.221421e+00	5.252248e+01	1.851195e-05	2.533806e+05	1.009005e+05	2.877784e+02	1.264450e-01	-5.984753e-01	0.000000e+00	
-2.000000e+00	3.006329e-01	1.221433e+00	5.252163e+01	7.606780e-07	2.533837e+05	1.009018e+05	2.877793e+02	1.264416e-01	-5.966882e-01	0.000000e+00	
-1.948718e+00	3.006329e-01	1.221421e+00	5.252247e+01	1.624477e-05	2.533806e+05	1.009005e+05	2.877784e+02	1.264450e-01	-5.984748e-01	0.000000e+00	
-2.000000e+00	2.689873e-01	1.221433e+00	5.252162e+01	7.937870e-07	2.533837e+05	1.009018e+05	2.877793e+02	1.264416e-01	-5.966877e-01	0.000000e+00	
-1.948718e+00	2.689873e-01	1.221421e+00	5.252246e+01	1.404737e-05	2.533806e+05	1.009005e+05	2.877784e+02	1.264450e-01	-5.984743e-01	0.000000e+00	
-2.000000e+00	2.373418e-01	1.221433e+00	5.252162e+01	8.263901e-07	2.533837e+05	1.009018e+05	2.877793e+02	1.264416e-01	-5.966872e-01	0.000000e+00	
-1.948718e+00	2.373418e-01	1.221421e+00	5.252245e+01	1.191888e-05	2.533806e+05	1.009005e+05	2.877784e+02	1.264450e-01	-5.984738e-01	0.000000e+00	
-2.000000e+00	2.056962e-01	1.221433e+00	5.252161e+01	8.581926e-07	2.533837e+05	1.009018e+05	2.877793e+02	1.264415e-01	-5.966869e-01	0.000000e+00	
-1.948718e+00	2.056962e-01	1.221421e+00	5.252245e+01	9.856686e-06	2.533806e+05	1.009005e+05	2.877784e+02	1.264450e-01	-5.984735e-01	0.000000e+00	
-2.000000e+00	1.740506e-01	1.221433e+00	5.252160e+01	8.890568e-07	2.533837e+05	1.009018e+05	2.877793e+02	1.264415e-01	-5.966866e-01	0.000000e+00	
-1.948718e+00	1.740506e-01	1.221421e+00	5.252244e+01	7.857085e-06	2.533806e+05	1.009005e+05	2.877784e+02	1.264449e-01	-5.984732e-01	0.000000e+00	
-2.000000e+00	1.424051e-01	1.221433e+00	5.252160e+01	9.189249e-07	2.533837e+05	1.009018e+05	2.877793e+02	1.264415e-01	-5.966864e-01	0.000000e+00	
-1.948718e+00	1.424051e-01	1.221421e+00	5.252244e+01	5.915301e-06	2.533806e+05	1.009005e+05	2.877784e+02	1.264449e-01	-5.984730e-01	0.000000e+00	
-2.000000e+00	1.107595e-01	1.221433e+00	5.252160e+01	9.478231e-07	2.533837e+05	1.009018e+05	2.877793e+02	1.264415e-01	-5.966863e-01	0.000000e+00	
-1.948718e+00	1.107595e-01	1.221421e+00	5.252244e+01	4.025841e-06	2.533806e+05	1.009005e+05	2.877784e+02	1.264449e-01	-5.984729e-01	0.000000e+00	
-2.000000e+00	7.911392e-02	1.221433e+00	5.252160e+01	9.758196e-07	2.533837e+05	1.009018e+05	2.877793e+02	1.264415e-01	-5.966862e-01	0.000000e+00	
-1.948718e+00	7.911392e-02	1.221421e+00	5.252244e+01	2.182555e-06	2.533806e+05	1.009005e+05	2.877784e+02	1.264449e-01	-5.984728e-01	0.000000e+00	
-2.000000e+00	4.746835e-02	1.221433e+00	5.252160e+01	1.003022e-06	2.533837e+05	1.009018e+05	2.877793e+02	1.264415e-01	-5.966862e-01	0.000000e+00	
-1.948718e+00	4.746835e-02	1.221421e+00	5.252244e+01	3.788483e-07	2.533806e+05	1.009005e+05	2.877784e+02	1.264449e-01	-5.984728e-01	0.000000e+00	
-2.000000e+00	1.582278e-02	1.221433e+00	5.252160e+01	1.029565e-06	2.533837e+05	1.009018e+05	2.877793e+02	1.264415e-01	-5.966863e-01	0.000000e+00	
-1.948718e+00	1.582278e-02	1.221421e+00	5.252244e+01	-1.392239e-06	2.533806e+05	1.009005e+05	2.877784e+02	1.264449e-01	-5.984729e-01	0.000000e+00	
-2.000000e+00	-1.582278e-02	1.221433e+00	5.252160e+01	1.055611e-06	2.533837e+05	1.009018e+05	2.877793e+02	1.264415e-01	-5.966865e-01	0.000000e+00	
-1.948718e+00	-1.582278e-02	1.221421e+00	5.252244e+01	-3.137908e-06	2.533806e+05	1.009005e+05	2.877784e+02	1.264449e-01	-5.984730e-01	0.000000e+00	
-2.000000e+00	-4.746835e-02	1.221433e+00	5.252160e+01	1.081335e-06	2.533837e+05	1.009018e+05	2.877793e+02	1.264415e-01	-5.966867e-01	0.000000e+00	
-1.948718e+00	-4.746835e-02	1.221421e+00	5.252244e+01	-4.865549e-06	2.533806e+05	1.009005e+05	2.877784e+02	1.264449e-01	-5.984732e-01	0.000000e+00	
-2.000000e+00	-7.911392e-02	1.221433e+00	5.252161e+01	1.106912e-06	2.533837e+05	1.009018e+05	2.877793e+02	1.264415e-01	-5.966869e-01	0.000000e+00	
-1.948718e+00	-7.911392e-02	1.221421e+00	5.252245e+01	-6.582641e-06	2.533806e+05	1.009005e+05	2.877784e+02	1.264450e-01	-5.984734e-01	0.000000e+00	
-2.000000e+00	-1.107595e-01	1.221433e+00	5.252161e+01	1.132505e-06	2.533837e+05	1.009018e+05	2.877793e+02	1.264416e-01	-5.966873e-01	0.000000e+00	
-1.948718e+00	-1.107595e-01	1.221421e+00	5.252245e+01	-8.296689e-06	2.533806e+05	1.009005e+05	2.877784e+02	1.264450e-01	-5.984738e-01	0.000000e+00	
-2.000000e+00	-1.424051e-01	1.221433e+00	5.252162e+01	1.158261e-06	2.533837e+05	1.009018e+05	2.877793e+02	1.264416e-01	-5.966876e-01	0.000000e+00	
-1.948718e+00	-1.424051e-01	1.221421e+00	5.252246e+01	-1.001510e-05	2.533806e+05	1.009005e+05	2.877784e+02	1.264450e-01	-5.984742e-01	0.000000e+00	
-2.000000e+00	-1.740506e-01	1.221433e+00	5.252163e+01	1.184289e-06	2.533837e+05	1.009018e+05	2.877793e+02	1.264416e-01	-5.966881e-01	0.000000e+00	
-1.948718e+00	-1.740506e-01	1.221421e+00	5.252247e+01	-1.174510e-05	2.533806e+05	1.009005e+05	2.877784e+02	1.264450e-01	-5.984746e-01	0.000000e+00	
-2.000000e+00	-2.056962e-01	1.221433e+00	5.252164e+01	1.210662e-06	2.533837e+05	1.009018e+05	2.877793e+02	1.264416e-01	-5.966886e-01	0.000000e+00	
-1.948718e+00	-2.056962e-01	1.221421e+00	5.252248e+01	-1.349358e-05	2.533806e+05	1.009005e+05	2.877784e+02	1.264450e-01	-5.984751e-01	0.000000e+00	
-2.000000e+00	-2.373418e-01	1.221433e+00	5.252165e+01	1.237371e-06	2.533837e+05	1.009018e+05	2.877793e+02	1.264416e-01	-5.966892e-01	0.000000e+00	
-1.948718e+00	-2.373418e-01	1.221421e+00	5.252249e+01	-1.526696e-05	2.533806e+05	1.009005e+05	2.877784e+02	1.264450e-01	-5.984757e-01	0.000000e+00	
-2.000000e+00	-2.689873e-01	1.221433e+00	5.252166e+01	1.264342e-06	2.533837e+05	1.009018e+05	2.877793e+02	1.264417e-01	-5.966899e-01	0.000000e+00	
-1.948718e+00	-2.689873e-01	1.221421e+00	5.252250e+01	-1.707089e-05	2.533806e+05	1.009005e+05	2.877784e+02	1.264451e-01	-5.984763e-01	0.000000e+00	
-2.000000e+00	-3.006329e-01	1.221433e+00	5.252167e+01	1.291350e-06	2.533837e+05	1.009018e+05	2.877793e+02	1.264417e-01	-5.966906e-01	0.000000e+00	
-1.948718e+00	-3.006329e-01	1.221421e+00	5.252251e+01	-1.891023e-05	2.533806e+05	1.009005e+05	2.877784e+02	1.264451e-01	-5.984770e-01	0.000000e+00	
-2.000000e+00	-3.322785e-01	1.221433e+00	5.252168e+01	1.318059e-06	2.533837e+05	1.009018e+05	2.877793e+02	1.264417e-01	-5.966914e-01	0.000000e+00	
-1.948718e+00	-3.322785e-01	1.221421e+00	5.252252e+01	-2.078828e-05	2.533806e+05	1.009005e+05	2.877784e+02	1.264451e-01	-5.984778e-01	0.000000e+00	
-2.000000e+00	-3.639241e-01	1.221433e+00	5.252170e+01	1.343844e-06	2.533837e+05	1.009018e+05	2.877793e+02	1.264418e-01	-5.966923e-01	0.000000e+00	
-1.948718e+00	-3.639241e-01	1.221421e+00	5.252254e+01	-2.270706e-05	2.533806e+05	1.009005e+05	2.877784e+02	1.264452e-01	-5.984786e-01	0.000000e+00	
-2.000000e+00	-3.955696e-01	1.221433e+00	5.252171e+01	1.367901e-06	2.533837e+05	1.009018e+05	2.877793e+02	1.264418e-01	-5.966932e-01	0.000000e+00	
-1.948718e+00	-3.955696e-01	1.221421e+00	5.252255e+01	-2.466577e-05	2.533805e+05	1.009005e+05	2.877784e+02	1.264452e-01	-5.984795e-01	0.000000e+00	
-2.000000e+00	-4.272152e-01	1.221433e+00	5.252173e+01	1.388823e-06	2.533837e+05	1.009018e+05	2.877793e+02	1.264418e-01	-5.966942e-01	0.000000e+00	
-1.948718e+00	-4.272152e-01	1.221421e+00	5.252257e+01	-2.666167e-05	2.533805e+05	1.009005e+05	2.877784e+02	1.264453e-01	-5.984805e-01	0.000000e+00	
-2.000000e+00	-4.588608e-01	1.221433e+00	5.252175e+01	1.404927e-06	2.533837e+05	1.009018e+05	2.877793e+02	1.264419e-01	-5.966953e-01	0.000000e+00	
-1.948718e+00	-4.588608e-01	1.221421e+00	5.252259e+01	-2.868686e-05	2.533805e+05	1.009005e+05	2.877784e+02	1.264453e-01	-5.984815e-01	0.000000e+00	
-2.000000e+00	-4.905063e-01	1.221433e+00	5.252177e+01	1.413343e-06	2.533837e+05	1.009018e+05	2.877793e+02	1.264419e-01	-5.966965e-01	0.000000e+00	
-1.948718e+00	-4.905063e-01	1.221421e+00	5.252261e+01	-3.073070e-05	2.533805e+05	1.009005e+05	2.877784e+02	1.264453e-01	-5.984826e-01	0.000000e+00	
-2.000000e+00	-5.221519e-01	1.221433e+00	5.252179e+01	1.411120e-06	2.533837e+05	1.009018e+05	2.877793e+02	1.264420e-01	-5.966978e-01	0.000000e+00	
-1.948718e+00	-5.221519e-01	1.221421e+00	5.252263e+01	-3.277256e-05	2.533805e+05	1.009005e+05	2.877784e+02	1.264454e-01	-5.984837e-01	0.000000e+00	
-2.000000e+00	-5.537975e-01	1.221433e+00	5.252181e+01	1.393345e-06	2.533837e+05	1.009018e+05	2.877793e+02	1.264420e-01	-5.966992e-01	0.000000e+00	
-1.948718e+00	-5.537975e-01	1.221421e+00	5.252265e+01	-3.478851e-05	2.533805e+05	1.009005e+05	2.877784e+02	1.264455e-01	-5.984849e-01	0.000000e+00	
-2.000000e+00	-5.854430e-01	1.221433e+00	5.252184e+01	1.355907e-06	2.533837e+05	1.009018e+05	2.877793e+02	1.264421e-01	-5.967006e-01	0.000000e+00	
-1.948718e+00	-5.854430e-01	1.221421e+00	5.252268e+01	-3.673533e-05	2.533805e+05	1.009005e+05	2.877784e+02	1.264455e-01	-5.984861e-01	0.000000e+00	
-2.000000e+00	-6.170886e-01	1.221433e+00	5.252186e+01	1.289825e-06	2.533837e+05	1.009018e+05	2.877793e+02	1.264422e-01	-5.967022e-01	0.000000e+00	
-1.948718e+00	-6.170886e-01	1.221421e+00	5.252270e+01	-3.857024e-05	2.533805e+05	1.009005e+05	2.877784e+02	1.264456e-01	-5.984874e-01	0.000000e+00	
-2.000000e+00	-6.487342e-01	1.221433e+00	5.252189e+01	1.186048e-06	2.533837e+05	1.009018e+05	2.877793e+02	1.264422e-01	-5.967038e-01	0.000000e+00	
-1.948718e+00	-6.487342e-01	1.221421e+00	5.252273e+01	-4.021478e-05	2.533805e+05	1.009005e+05	2.877784e+02	1.264456e-01	-5.984887e-01	0.000000e+00	
-2.000000e+00	-6.803797e-01	1.221433e+00	5.252192e+01	1.020299e-06	2.533837e+05	1.009018e+05	2.877793e+02	1.264423e-01	-5.967055e-01	0.000000e+00	
-1.948718e+00	-6.803797e-01	1.221421e+00	5.252276e+01	-4.160421e-05	2.533805e+05	1.009005e+05	2.877784e+02	1.264457e-01	-5.984900e-01	0.000000e+00	
-2.000000e+00	-7.120253e-01	1.221433e+00	5.252195e+01	7.705864e-07	2.533837e+05	1.009018e+05	2.877793e+02	1.264424e-01	-5.967073e-01	0.000000e+00	
-1.948718e+00	-7.120253e-01	1.221421e+00	5.252279e+01	-4.258960e-05	2.533805e+05	1.009005e+05	2.877784e+02	1.264458e-01	-5.984914e-01	0.000000e+00	
-2.000000e+00	-7.436709e-01	1.221433e+00	5.252198e+01	3.953775e-07	2.533837e+05	1.009018e+05	2.877793e+02	1.264425e-01	-5.967092e-01	0.000000e+00	
-1.948718e+00	-7.436709e-01	1.221421e+00	5.252282e+01	-4.304964e-05	2.533805e+05	1.009005e+05	2.877784e+02	1.264459e-01	-5.984926e-01	0.000000e+00	
-2.000000e+00	-7.753165e-01	1.221433e+00	5.252201e+01	-1.013141e-07	2.533837e+05	1.009018e+05	2.877793e+02	1.264425e-01	-5.967112e-01	0.000000e+00	
-1.948718e+00	-7.753165e-01	1.221421e+00	5.252285e+01	-4.264280e-05	2.533805e+05	1.009005e+05	2.877784e+02	1.264459e-01	-5.984938e-01	0.000000e+00	
-2.000000e+00	-8.069620e-01	1.221433e+00	5.252205e+01	-7.294130e-07	2.533836e+05	1.009018e+05	2.877793e+02	1.264426e-01	-5.967132e-01	0.000000e+00	
-1.948718e+00	-8.069620e-01	1.221421e+00	5.252289e+01	-4.114298e-05	2.533805e+05	1.009005e+05	2.877784e+02	1.264460e-01	-5.984949e-01	0.000000e+00	
-2.000000e+00	-8.386076e-01	1.221433e+00	5.252208e+01	-1.407583e-06	2.533836e+05	1.009018e+05	2.877793e+02	1.264427e-01	-5.967152e-01	0.000000e+00	
-1.948718e+00	-8.386076e-01	1.221421e+00	5.252292e+01	-3.790921e-05	2.533805e+05	1.009005e+05	2.877784e+02	1.264461e-01	-5.984958e-01	0.000000e+00	
-2.000000e+00	-8.702532e-01	1.221433e+00	5.252211e+01	-2.226999e-06	2.533836e+05	1.009018e+05	2.877793e+02	1.264428e-01	-5.967171e-01	0.000000e+00	
-1.948718e+00	-8.702532e-01	1.221421e+00	5.252295e+01	-3.285234e-05	2.533805e+05	1.009005e+05	2.877784e+02	1.264462e-01	-5.984964e-01	0.000000e+00	
-2.000000e+00	-9.018987e-01	1.221433e+00	5.252214e+01	-3.202681e-06	2.533836e+05	1.009018e+05	2.877793e+02	1.264428e-01	-5.967191e-01	0.000000e+00	
-1.948718e+00	-9.018987e-01	1.221421e+00	5.252298e+01	-2.493439e-05	2.533805e+05	1.009005e+05	2.877784e+02	1.264463e-01	-5.984968e-01	0.000000e+00	
-2.000000e+00	-9.335443e-01	1.221433e+00	5.252216e+01	-4.750920e-06	2.533836e+05	1.009018e+05	2.877793e+02	1.264429e-01	-5.967207e-01	0.000000e+00	
-1.948718e+00	-9.335443e-01	1.221421e+00	5.252300e+01	-1.435011e-05	2.533805e+05	1.009005e+05	2.877784e+02	1.264463e-01	-5.984964e-01	0.000000e+00	
-2.000000e+00	-9.651899e-01	1.221433e+00	5.252218e+01	-6.539024e-06	2.533836e+05	1.009018e+05	2.877793e+02	1.264429e-01	-5.967222e-01	0.000000e+00	
-1.948718e+00	-9.651899e-01	1.221421e+00	5.252302e+01	1.974881e-06	2.533805e+05	1.009005e+05	2.877784e+02	1.264464e-01	-5.984958e-01	0.000000e+00	
-2.000000e+00	-9.968354e-01	1.221433e+00	5.252218e+01	-8.454395e-06	2.533836e+05	1.009018e+05	2.877793e+02	1.264429e-01	-5.967230e-01	0.000000e+00	
-1.948718e+00	-9.968354e-01	1.221421e+00	5.252303e+01	2.423668e-05	2.533805e+05	1.009005e+05	2.877784e+02	1.264464e-01	-5.984935e-01	0.000000e+00	
-2.000000e+00	-1.028481e+00	1.221433e+00	5.252216e+01	-7.158450e-06	2.533836e+05	1.009018e+05	2.877793e+02	1.264429e-01	-5.967232e-01	0.000000e+00	
-1.948718e+00	-1.028481e+00	1.221421e+00	5.252303e+01	6.195957e-05	2.533805e+05	1.009005e+05	2.877784e+02	1.264464e-01	-5.984913e-01	0.000000e+00	
-2.000000e+00	-1.060127e+00	1.221433e+00	5.252211e+01	2.575262e-06	2.533836e+05	1.009018e+05	2.877793e+02	1.264428e-01	-5.967213e-01	0.000000e+00	
-1.948718e+00	-1.060127e+00	1.221421e+00	5.252302e+01	1.170508e-04	2.533806e+05	1.009005e+05	2.877784e+02	1.264463e-01	-5.984855e-01	0.000000e+00	
-2.000000e+00	-1.091772e+00	1.221433e+00	5.252203e+01	4.281600e-05	2.533836e+05	1.009018e+05	2.877793e+02	1.264426e-01	-5.967175e-01	0.000000e+00	
-1.948718e+00	-1.091772e+00	1.221421e+00	5.252302e+01	2.229940e-04	2.533806e+05	1.009005e+05	2.877784e+02	1.264463e-01	-5.984815e-01	0.000000e+00	
-2.000000e+00	-1.123418e+00	1.221433e+00	5.252191e+01	1.469451e-04	2.533837e+05	1.009018e+05	2.877793e+02	1.264423e-01	-5.967070e-01	0.000000e+00	
-1.948718e+00	-1.123418e+00	1.221421e+00	5.252304e+01	3.841483e-04	2.533806e+05	1.009005e+05	2.877784e+02	1.264464e-01	-5.984687e-01	0.000000e+00	
-2.000000e+00	-1.155063e+00	1.221433e+00	5.252177e+01	3.678867e-04	2.533837e+05	1.009018e+05	2.877793e+02	1.264419e-01	-5.966892e-01	0.000000e+00	
-1.948718e+00	-1.155063e+00	1.221421e+00	5.252300e+01	6.591611e-04	2.533806e+05	1.009005e+05	2.877784e+02	1.264463e-01	-5.984661e-01	0.000000e+00	
-2.000000e+00	-1.186709e+00	1.221433e+00	5.252141e+01	6.471672e-04	2.533837e+05	1.009018e+05	2.877794e+02	1.264410e-01	-5.966488e-01	0.000000e+00	
-1.948718e+00	-1.186709e+00	1.221422e+00	5.252248e+01	8.563988e-04	2.533806e+05	1.009005e+05	2.877785e+02	1.264450e-01	-5.984361e-01	0.000000e+00	
-2.000000e+00	-1.218354e+00	1.221433e+00	5.252055e+01	7.679917e-04	2.533838e+05	1.009018e+05	2.877794e+02	1.264389e-01	-5.966001e-01	0.000000e+00	
-1.948718e+00	-1.218354e+00	1.221421e+00	5.252088e+01	8.977811e-04	2.533805e+05	1.009005e+05	2.877785e+02	1.264412e-01	-5.984583e-01	0.000000e+00	
-1.897436e+00	1.218354e+00	1.221413e+00	5.252025e+01	-7.826070e-04	2.533781e+05	1.008996e+05	2.877776e+02	1.264407e-01	-5.998372e-01	0.000000e+00	
-1.897436e+00	1.250000e+00	1.221414e+00	5.251728e+01	3.710945e-06	2.533780e+05	1.008996e+05	2.877776e+02	1.264335e-01	-5.997933e-01	0.000000e+00	
-1.897436e+00	1.186709e+00	1.221413e+00	5.252265e+01	-8.670590e-04	2.533782e+05	1.008996e+05	2.877776e+02	1.264465e-01	-5.998186e-01	0.000000e+00	
-1.897436e+00	1.155063e+00	1.221413e+00	5.252348e+01	-7.477497e-04	2.533782e+05	1.008995e+05	2.877776e+02	1.264485e-01	-5.998440e-01	0.000000e+00	
-1.897436e+00	1.123418e+00	1.221413e+00	5.252352e+01	-4.797527e-04	2.533782e+05	1.008995e+05	2.877776e+02	1.264486e-01	-5.998414e-01	0.000000e+00	
-1.897436e+00	1.091772e+00	1.221413e+00	5.252338e+01	-2.981700e-04	2.533782e+05	1.008995e+05	2.877776e+02	1.264482e-01	-5.998526e-01	0.000000e+00	
-1.897436e+00	1.060127e+00	1.221413e+00	5.252328e+01	-1.555355e-04	2.533782e+05	1.008995e+05	2.877776e+02	1.264480e-01	-5.998537e-01	0.000000e+00	
-1.897436e+00	1.028481e+00	1.221413e+00	5.252323e+01	-7.141973e-05	2.533781e+05	1.008995e+05	2.877776e+02	1.264479e-01	-5.998586e-01	0.000000e+00	
-1.897436e+00	9.968354e-01	1.221413e+00	5.252319e+01	-9.245710e-06	2.533781e+05	1.008995e+05	2.877776e+02	1.264478e-01	-5.998596e-01	0.000000e+00	
-1.897436e+00	9.651899e-01	1.221413e+00	5.252316e+01	2.863021e-05	2.533781e+05	1.008995e+05	2.877776e+02	1.264477e-01	-5.998614e-01	0.000000e+00	
-1.897436e+00	9.335443e-01	1.221413e+00	5.252312e+01	5.568258e-05	2.533781e+05	1.008995e+05	2.877776e+02	1.264476e-01	-5.998616e-01	0.000000e+00	
-1.897436e+00	9.018987e-01	1.221413e+00	5.252308e+01	7.234018e-05	2.533781e+05	1.008995e+05	2.877776e+02	1.264475e-01	-5.998619e-01	0.000000e+00	
-1.897436e+00	8.702532e-01	1.221413e+00	5.252304e+01	8.408201e-05	2.533781e+05	1.008995e+05	2.877776e+02	1.264474e-01	-5.998614e-01	0.000000e+00	
-1.897436e+00	8.386076e-01	1.221413e+00	5.252300e+01	9.100207e-05	2.533781e+05	1.008995e+05	2.877776e+02	1.264473e-01	-5.998609e-01	0.000000e+00	
-1.897436e+00	8.069620e-01	1.221413e+00	5.252297e+01	9.490672e-05	2.533781e+05	1.008995e+05	2.877776e+02	1.264472e-01	-5.998600e-01	0.000000e+00	
-1.897436e+00	7.753165e-01	1.221413e+00	5.252293e+01	9.588792e-05	2.533781e+05	1.008995e+05	2.877776e+02	1.264472e-01	-5.998590e-01	0.000000e+00	
-1.897436e+00	7.436709e-01	1.221413e+00	5.252289e+01	9.492553e-05	2.533781e+05	1.008995e+05	2.877776e+02	1.264471e-01	-5.998579e-01	0.000000e+00	
-1.897436e+00	7.120253e-01	1.221413e+00	5.252286e+01	9.237777e-05	2.533781e+05	1.008995e+05	2.877776e+02	1.264470e-01	-5.998568e-01	0.000000e+00	
-1.897436e+00	6.803797e-01	1.221413e+00	5.252283e+01	8.884303e-05	2.533781e+05	1.008995e+05	2.877776e+02	1.264469e-01	-5.998556e-01	0.000000e+00	
-1.897436e+00	6.487342e-01	1.221413e+00	5.252280e+01	8.457185e-05	2.533781e+05	1.008995e+05	2.877776e+02	1.264468e-01	-5.998545e-01	0.000000e+00	
-1.897436e+00	6.170886e-01	1.221413e+00	5.252277e+01	7.985182e-05	2.533781e+05	1.008995e+05	2.877776e+02	1.264468e-01	-5.998533e-01	0.000000e+00	
-1.897436e+00	5.854430e-01	1.221413e+00	5.252274e+01	7.481723e-05	2.533781e+05	1.008995e+05	2.877776e+02	1.264467e-01	-5.998522e-01	0.000000e+00	
-1.897436e+00	5.537975e-01	1.221413e+00	5.252272e+01	6.961559e-05	2.533781e+05	1.008995e+05	2.877776e+02	1.264466e-01	-5.998512e-01	0.000000e+00	
-1.897436e+00	5.221519e-01	1.221413e+00	5.252270e+01	6.433083e-05	2.533781e+05	1.008995e+05	2.877776e+02	1.264466e-01	-5.998502e-01	0.000000e+00	
-1.897436e+00	4.905063e-01	1.221413e+00	5.252268e+01	5.904587e-05	2.533781e+05	1.008995e+05	2.877776e+02	1.264465e-01	-5.998492e-01	0.000000e+00	
-1.897436e+00	4.588608e-01	1.221413e+00	5.252266e+01	5.381047e-05	2.533781e+05	1.008995e+05	2.877776e+02	1.264465e-01	-5.998483e-01	0.000000e+00	
-1.897436e+00	4.272152e-01	1.221413e+00	5.252264e+01	4.866763e-05	2.533781e+05	1.008995e+05	2.877776e+02	1.264465e-01	-5.998475e-01	0.000000e+00	
-1.897436e+00	3.955696e-01	1.221413e+00	5.252263e+01	4.364230e-05	2.533781e+05	1.008995e+05	2.877776e+02	1.264464e-01	-5.998467e-01	0.000000e+00	
-1.897436e+00	3.639241e-01	1.221413e+00	5.252262e+01	3.875345e-05	2.533781e+05	1.008995e+05	2.877776e+02	1.264464e-01	-5.998461e-01	0.000000e+00	
-1.897436e+00	3.322785e-01	1.221413e+00	5.252260e+01	3.401042e-05	2.533781e+05	1.008995e+05	2.877776e+02	1.264464e-01	-5.998454e-01	0.000000e+00	
-1.897436e+00	3.006329e-01	1.221413e+00	5.252259e+01	2.941821e-05	2.533781e+05	1.008995e+05	2.877776e+02	1.264463e-01	-5.998449e-01	0.000000e+00	
-1.897436e+00	2.689873e-01	1.221413e+00	5.252259e+01	2.497642e-05	2.533781e+05	1.008995e+05	2.877776e+02	1.264463e-01	-5.998444e-01	0.000000e+00	
-1.897436e+00	2.373418e-01	1.221413e+00	5.252258e+01	2.068162e-05	2.533781e+05	1.008995e+05	2.877776e+02	1.264463e-01	-5.998440e-01	0.000000e+00	
-1.897436e+00	2.056962e-01	1.221413e+00	5.252257e+01	1.652720e-05	2.533781e+05	1.008995e+05	2.877776e+02	1.264463e-01	-5.998437e-01	0.000000e+00	
-1.897436e+00	1.740506e-01	1.221413e+00	5.252257e+01	1.250453e-05	2.533781e+05	1.008995e+05	2.877776e+02	1.264463e-01	-5.998434e-01	0.000000e+00	
-1.897436e+00	1.424051e-01	1.221413e+00	5.252257e+01	8.603033e-06	2.533781e+05	1.008995e+05	2.877776e+02	1.264463e-01	-5.998432e-01	0.000000e+00	
-1.897436e+00	1.107595e-01	1.221413e+00	5.252256e+01	4.810802e-06	2.533781e+05	1.008995e+05	2.877776e+02	1.264463e-01	-5.998431e-01	0.000000e+00	
-1.897436e+00	7.911392e-02	1.221413e+00	5.252256e+01	1.114718e-06	2.533781e+05	1.008995e+05	2.877776e+02	1.264463e-01	-5.998430e-01	0.000000e+00	
-1.897436e+00	4.746835e-02	1.221413e+00	5.252256e+01	-2.499144e-06	2.533781e+05	1.008995e+05	2.877776e+02	1.264463e-01	-5.998430e-01	0.000000e+00	
-1.897436e+00	1.582278e-02	1.221413e+00	5.252256e+01	-6.045392e-06	2.533781e+05	1.008995e+05	2.877776e+02	1.264463e-01	-5.998431e-01	0.000000e+00	
-1.897436e+00	-1.582278e-02	1.221413e+00	5.252257e+01	-9.539111e-06	2.533781e+05	1.008995e+05	2.877776e+02	1.264463e-01	-5.998432e-01	0.000000e+00	
-1.897436e+00	-4.746835e-02	1.221413e+00	5.252257e+01	-1.299577e-05	2.533781e+05	1.008995e+05	2.877776e+02	1.264463e-01	-5.998434e-01	0.000000e+00	
-1.897436e+00	-7.911392e-02	1.221413e+00	5.252257e+01	-1.643104e-05	2.533781e+05	1.008995e+05	2.877776e+02	1.264463e-01	-5.998437e-01	0.000000e+00	
-1.897436e+00	-1.107595e-01	1.221413e+00	5.252258e+01	-1.986066e-05	2.533781e+05	1.008995e+05	2.877776e+02	1.264463e-01	-5.998440e-01	0.000000e+00	