TITLE = "Visualization of the volumetric solution"
VARIABLES = "x","y","Density","Momentum_x","Momentum_y","Energy","Pressure","Temperature","Mach","C<sub>p</sub>","Roe_Dissipation"
ZONE NODES= 3200, ELEMENTS= 3081, DATAPACKING=POINT, ZONETYPE=FEQUADRILATERAL
1.000000e+00	1.250000e+00	1.349666e+00	5.251424e+01	-1.928680e+02	3.054752e+05	1.162692e+05	3.001021e+02	4.264621e-01	2.106974e+01	0.000000e+00	
1.000000e+00	1.218354e+00	1.349666e+00	5.251427e+01	-1.928679e+02	3.054753e+05	1.162693e+05	3.001021e+02	4.264618e-01	2.106978e+01	0.000000e+00	
1.051282e+00	1.218354e+00	1.349677e+00	5.251298e+01	-1.928633e+02	3.054776e+05	1.162705e+05	3.001029e+02	4.264476e-01	2.107154e+01	0.000000e+00	
1.051282e+00	1.250000e+00	1.349676e+00	5.251298e+01	-1.928634e+02	3.054775e+05	1.162705e+05	3.001029e+02	4.264480e-01	2.107148e+01	0.000000e+00	
1.000000e+00	1.186709e+00	1.349666e+00	5.251413e+01	-1.928678e+02	3.054753e+05	1.162693e+05	3.001021e+02	4.264614e-01	2.106981e+01	0.000000e+00	
1.051282e+00	1.186709e+00	1.349677e+00	5.251283e+01	-1.928632e+02	3.054776e+05	1.162705e+05	3.001030e+02	4.264473e-01	2.107156e+01	0.000000e+00	
1.000000e+00	1.155063e+00	1.349666e+00	5.251395e+01	-1.928677e+02	3.054753e+05	1.162693e+05	3.001022e+02	4.264612e-01	2.106982e+01	0.000000e+00	
1.051282e+00	1.155063e+00	1.349677e+00	5.251267e+01	-1.928632e+02	3.054776e+05	1.162705e+05	3.001030e+02	4.264471e-01	2.107157e+01	0.000000e+00	
1.000000e+00	1.123418e+00	1.349666e+00	5.251378e+01	-1.928676e+02	3.054753e+05	1.162693e+05	3.001022e+02	4.264609e-01	2.106984e+01	0.000000e+00	
1.051282e+00	1.123418e+00	1.349677e+00	5.251250e+01	-1.928631e+02	3.054776e+05	1.162705e+05	3.001030e+02	4.264468e-01	2.107159e+01	0.000000e+00	
1.000000e+00	1.091772e+00	1.349666e+00	5.251361e+01	-1.928675e+02	3.054753e+05	1.162693e+05	3.001022e+02	4.264606e-01	2.106986e+01	0.000000e+00	
1.051282e+00	1.091772e+00	1.349677e+00	5.251234e+01	-1.928630e+02	3.054776e+05	1.162706e+05	3.001030e+02	4.264466e-01	2.107161e+01	0.000000e+00	
1.000000e+00	1.060127e+00	1.349666e+00	5.251344e+01	-1.928674e+02	3.054753e+05	1.162693e+05	3.001022e+02	4.264602e-01	2.106988e+01	0.000000e+00	
1.051282e+00	1.060127e+00	1.349677e+00	5.251219e+01	-1.928629e+02	3.054776e+05	1.162706e+05	3.001030e+02	4.264463e-01	2.107163e+01	0.000000e+00	
1.000000e+00	1.028481e+00	1.349666e+00	5.251329e+01	-1.928673e+02	3.054754e+05	1.162694e+05	3.001022e+02	4.264599e-01	2.106990e+01	0.000000e+00	
1.051282e+00	1.028481e+00	1.349677e+00	5.251204e+01	-1.928628e+02	3.054776e+05	1.162706e+05	3.001030e+02	4.264459e-01	2.107165e+01	0.000000e+00	
1.000000e+00	9.968354e-01	1.349666e+00	5.251314e+01	-1.928672e+02	3.054754e+05	1.162694e+05	3.001023e+02	4.264596e-01	2.106992e+01	0.000000e+00	
1.051282e+00	9.968354e-01	1.349677e+00	5.251190e+01	-1.928627e+02	3.054777e+05	1.162706e+05	3.001031e+02	4.264456e-01	2.107167e+01	0.000000e+00	
1.000000e+00	9.651899e-01	1.349666e+00	5.251301e+01	-1.928671e+02	3.054754e+05	1.162694e+05	3.001023e+02	4.264592e-01	2.106995e+01	0.000000e+00	
1.051282e+00	9.651899e-01	1.349677e+00	5.251177e+01	-1.928626e+02	3.054777e+05	1.162706e+05	3.001031e+02	4.264453e-01	2.107169e+01	0.000000e+00	
1.000000e+00	9.335443e-01	1.349666e+00	5.251288e+01	-1.928670e+02	3.054754e+05	1.162694e+05	3.001023e+02	4.264589e-01	2.106997e+01	0.000000e+00	
1.051282e+00	9.335443e-01	1.349677e+00	5.251164e+01	-1.928625e+02	3.054777e+05	1.162706e+05	3.001031e+02	4.264449e-01	2.107172e+01	0.000000e+00	
1.000000e+00	9.018987e-01	1.349666e+00	5.251277e+01	-1.928669e+02	3.054755e+05	1.162694e+05	3.001024e+02	4.264586e-01	2.107000e+01	0.000000e+00	
1.051282e+00	9.018987e-01	1.349677e+00	5.251153e+01	-1.928624e+02	3.054777e+05	1.162707e+05	3.001031e+02	4.264446e-01	2.107174e+01	0.000000e+00	
1.000000e+00	8.702532e-01	1.349667e+00	5.251267e+01	-1.928668e+02	3.054755e+05	1.162694e+05	3.001024e+02	4.264583e-01	2.107002e+01	0.000000e+00	
1.051282e+00	8.702532e-01	1.349677e+00	5.251143e+01	-1.928623e+02	3.054778e+05	1.162707e+05	3.001032e+02	4.264442e-01	2.107177e+01	0.000000e+00	
1.000000e+00	8.386076e-01	1.349667e+00	5.251258e+01	-1.928667e+02	3.054755e+05	1.162695e+05	3.001024e+02	4.264580e-01	2.107005e+01	0.000000e+00	
1.051282e+00	8.386076e-01	1.349677e+00	5.251134e+01	-1.928622e+02	3.054778e+05	1.162707e+05	3.001032e+02	4.264439e-01	2.107179e+01	0.000000e+00	
1.000000e+00	8.069620e-01	1.349667e+00	5.251251e+01	-1.928666e+02	3.054755e+05	1.162695e+05	3.001025e+02	4.264577e-01	2.107008e+01	0.000000e+00	
1.051282e+00	8.069620e-01	1.349678e+00	5.251126e+01	-1.928620e+02	3.054778e+05	1.162707e+05	3.001032e+02	4.264436e-01	2.107182e+01	0.000000e+00	
1.000000e+00	7.753165e-01	1.349667e+00	5.251245e+01	-1.928666e+02	3.054756e+05	1.162695e+05	3.001025e+02	4.264575e-01	2.107011e+01	0.000000e+00	
1.051282e+00	7.753165e-01	1.349678e+00	5.251119e+01	-1.928619e+02	3.054778e+05	1.162707e+05	3.001033e+02	4.264432e-01	2.107184e+01	0.000000e+00	
1.000000e+00	7.436709e-01	1.349667e+00	5.251240e+01	-1.928665e+02	3.054756e+05	1.162695e+05	3.001026e+02	4.264573e-01	2.107013e+01	0.000000e+00	
1.051282e+00	7.436709e-01	1.349678e+00	5.251113e+01	-1.928618e+02	3.054779e+05	1.162708e+05	3.001033e+02	4.264429e-01	2.107187e+01	0.000000e+00	
1.000000e+00	7.120253e-01	1.349667e+00	5.251236e+01	-1.928664e+02	3.054756e+05	1.162695e+05	3.001026e+02	4.264570e-01	2.107016e+01	0.000000e+00	
1.051282e+00	7.120253e-01	1.349678e+00	5.251109e+01	-1.928617e+02	3.054779e+05	1.162708e+05	3.001033e+02	4.264426e-01	2.107189e+01	0.000000e+00	
1.000000e+00	6.803797e-01	1.349667e+00	5.251234e+01	-1.928663e+02	3.054757e+05	1.162696e+05	3.001026e+02	4.264568e-01	2.107019e+01	0.000000e+00	
1.051282e+00	6.803797e-01	1.349678e+00	5.251105e+01	-1.928616e+02	3.054779e+05	1.162708e+05	3.001034e+02	4.264424e-01	2.107192e+01	0.000000e+00	
1.000000e+00	6.487342e-01	1.349667e+00	5.251233e+01	-1.928663e+02	3.054757e+05	1.162696e+05	3.001027e+02	4.264567e-01	2.107021e+01	0.000000e+00	
1.051282e+00	6.487342e-01	1.349678e+00	5.251103e+01	-1.928615e+02	3.054779e+05	1.162708e+05	3.001034e+02	4.264421e-01	2.107194e+01	0.000000e+00	
1.000000e+00	6.170886e-01	1.349667e+00	5.251233e+01	-1.928662e+02	3.054758e+05	1.162696e+05	3.001028e+02	4.264565e-01	2.107024e+01	0.000000e+00	
1.051282e+00	6.170886e-01	1.349678e+00	5.251102e+01	-1.928614e+02	3.054780e+05	1.162708e+05	3.001034e+02	4.264418e-01	2.107197e+01	0.000000e+00	
1.000000e+00	5.854430e-01	1.349667e+00	5.251234e+01	-1.928661e+02	3.054758e+05	1.162696e+05	3.001028e+02	4.264564e-01	2.107026e+01	0.000000e+00	
1.051282e+00	5.854430e-01	1.349678e+00	5.251102e+01	-1.928613e+02	3.054780e+05	1.162708e+05	3.001035e+02	4.264416e-01	2.107199e+01	0.000000e+00	
1.000000e+00	5.537975e-01	1.349667e+00	5.251236e+01	-1.928661e+02	3.054758e+05	1.162696e+05	3.001029e+02	4.264563e-01	2.107029e+01	0.000000e+00	
1.051282e+00	5.537975e-01	1.349678e+00	5.251104e+01	-1.928612e+02	3.054780e+05	1.162709e+05	3.001035e+02	4.264414e-01	2.107201e+01	0.000000e+00	
1.000000e+00	5.221519e-01	1.349667e+00	5.251239e+01	-1.928661e+02	3.054759e+05	1.162696e+05	3.001029e+02	4.264562e-01	2.107031e+01	0.000000e+00	
1.051282e+00	5.221519e-01	1.349678e+00	5.251106e+01	-1.928611e+02	3.054780e+05	1.162709e+05	3.001036e+02	4.264412e-01	2.107203e+01	0.000000e+00	
1.000000e+00	4.905063e-01	1.349667e+00	5.251243e+01	-1.928660e+02	3.054759e+05	1.162697e+05	3.001030e+02	4.264561e-01	2.107033e+01	0.000000e+00	
1.051282e+00	4.905063e-01	1.349678e+00	5.251109e+01	-1.928610e+02	3.054781e+05	1.162709e+05	3.001036e+02	4.264411e-01	2.107205e+01	0.000000e+00	
1.000000e+00	4.588608e-01	1.349667e+00	5.251248e+01	-1.928660e+02	3.054759e+05	1.162697e+05	3.001030e+02	4.264560e-01	2.107035e+01	0.000000e+00	
1.051282e+00	4.588608e-01	1.349678e+00	5.251113e+01	-1.928609e+02	3.054781e+05	1.162709e+05	3.001037e+02	4.264409e-01	2.107207e+01	0.000000e+00	
1.000000e+00	4.272152e-01	1.349666e+00	5.251254e+01	-1.928660e+02	3.054760e+05	1.162697e+05	3.001030e+02	4.264560e-01	2.107037e+01	0.000000e+00	
1.051282e+00	4.272152e-01	1.349678e+00	5.251118e+01	-1.928609e+02	3.054781e+05	1.162709e+05	3.001037e+02	4.264408e-01	2.107209e+01	0.000000e+00	
1.000000e+00	3.955696e-01	1.349666e+00	5.251260e+01	-1.928659e+02	3.054760e+05	1.162697e+05	3.001031e+02	4.264560e-01	2.107039e+01	0.000000e+00	
1.051282e+00	3.955696e-01	1.349678e+00	5.251123e+01	-1.928608e+02	3.054781e+05	1.162709e+05	3.001037e+02	4.264407e-01	2.107211e+01	0.000000e+00	
1.000000e+00	3.639241e-01	1.349666e+00	5.251267e+01	-1.928659e+02	3.054760e+05	1.162697e+05	3.001031e+02	4.264560e-01	2.107041e+01	0.000000e+00	
1.051282e+00	3.639241e-01	1.349678e+00	5.251130e+01	-1.928608e+02	3.054782e+05	1.162709e+05	3.001038e+02	4.264406e-01	2.107212e+01	0.000000e+00	
1.000000e+00	3.322785e-01	1.349666e+00	5.251275e+01	-1.928659e+02	3.054761e+05	1.162697e+05	3.001031e+02	4.264560e-01	2.107043e+01	0.000000e+00	
1.051282e+00	3.322785e-01	1.349677e+00	5.251137e+01	-1.928607e+02	3.054782e+05	1.162709e+05	3.001038e+02	4.264405e-01	2.107214e+01	0.000000e+00	
1.000000e+00	3.006329e-01	1.349666e+00	5.251284e+01	-1.928659e+02	3.054761e+05	1.162697e+05	3.001032e+02	4.264560e-01	2.107044e+01	0.000000e+00	
1.051282e+00	3.006329e-01	1.349677e+00	5.251144e+01	-1.928607e+02	3.054782e+05	1.162709e+05	3.001039e+02	4.264405e-01	2.107215e+01	0.000000e+00	
1.000000e+00	2.689873e-01	1.349667e+00	5.251292e+01	-1.928659e+02	3.054761e+05	1.162697e+05	3.001032e+02	4.264560e-01	2.107045e+01	0.000000e+00	
1.051282e+00	2.689873e-01	1.349677e+00	5.251152e+01	-1.928607e+02	3.054782e+05	1.162710e+05	3.001039e+02	4.264405e-01	2.107216e+01	0.000000e+00	
1.000000e+00	2.373418e-01	1.349667e+00	5.251302e+01	-1.928659e+02	3.054762e+05	1.162698e+05	3.001032e+02	4.264561e-01	2.107047e+01	0.000000e+00	
1.051282e+00	2.373418e-01	1.349677e+00	5.251161e+01	-1.928606e+02	3.054782e+05	1.162710e+05	3.001039e+02	4.264405e-01	2.107217e+01	0.000000e+00	
1.000000e+00	2.056962e-01	1.349667e+00	5.251311e+01	-1.928659e+02	3.054762e+05	1.162698e+05	3.001032e+02	4.264561e-01	2.107048e+01	0.000000e+00	
1.051282e+00	2.056962e-01	1.349677e+00	5.251170e+01	-1.928606e+02	3.054783e+05	1.162710e+05	3.001039e+02	4.264405e-01	2.107219e+01	0.000000e+00	
1.000000e+00	1.740506e-01	1.349667e+00	5.251321e+01	-1.928660e+02	3.054762e+05	1.162698e+05	3.001032e+02	4.264562e-01	2.107049e+01	0.000000e+00	
1.051282e+00	1.740506e-01	1.349677e+00	5.251179e+01	-1.928606e+02	3.054783e+05	1.162710e+05	3.001040e+02	4.264405e-01	2.107219e+01	0.000000e+00	
1.000000e+00	1.424051e-01	1.349667e+00	5.251332e+01	-1.928660e+02	3.054762e+05	1.162698e+05	3.001032e+02	4.264562e-01	2.107050e+01	0.000000e+00	
1.051282e+00	1.424051e-01	1.349677e+00	5.251189e+01	-1.928606e+02	3.054783e+05	1.162710e+05	3.001040e+02	4.264405e-01	2.107220e+01	0.000000e+00	
1.000000e+00	1.107595e-01	1.349667e+00	5.251342e+01	-1.928660e+02	3.054762e+05	1.162698e+05	3.001032e+02	4.264563e-01	2.107051e+01	0.000000e+00	
1.051282e+00	1.107595e-01	1.349677e+00	5.251198e+01	-1.928606e+02	3.054783e+05	1.162710e+05	3.001040e+02	4.264406e-01	2.107221e+01	0.000000e+00	
1.000000e+00	7.911392e-02	1.349667e+00	5.251353e+01	-1.928660e+02	3.054763e+05	1.162698e+05	3.001032e+02	4.264564e-01	2.107051e+01	0.000000e+00	
1.051282e+00	7.911392e-02	1.349677e+00	5.251208e+01	-1.928606e+02	3.054783e+05	1.162710e+05	3.001040e+02	4.264407e-01	2.107222e+01	0.000000e+00	
1.000000e+00	4.746835e-02	1.349667e+00	5.251363e+01	-1.928661e+02	3.054763e+05	1.162698e+05	3.001031e+02	4.264565e-01	2.107052e+01	0.000000e+00	
1.051282e+00	4.746835e-02	1.349677e+00	5.251218e+01	-1.928607e+02	3.054784e+05	1.162710e+05	3.001040e+02	4.264407e-01	2.107222e+01	0.000000e+00	
1.000000e+00	1.582278e-02	1.349667e+00	5.251374e+01	-1.928661e+02	3.054763e+05	1.162698e+05	3.001031e+02	4.264566e-01	2.107052e+01	0.000000e+00	
1.051282e+00	1.582278e-02	1.349677e+00	5.251228e+01	-1.928607e+02	3.054784e+05	1.162710e+05	3.001040e+02	4.264408e-01	2.107222e+01	0.000000e+00	
1.000000e+00	-1.582278e-02	1.349668e+00	5.251384e+01	-1.928662e+02	3.054763e+05	1.162698e+05	3.001031e+02	4.264567e-01	2.107053e+01	0.000000e+00	
1.051282e+00	-1.582278e-02	1.349677e+00	5.251238e+01	-1.928607e+02	3.054784e+05	1.162710e+05	3.001040e+02	4.264410e-01	2.107223e+01	0.000000e+00	
1.000000e+00	-4.746835e-02	1.349668e+00	5.251395e+01	-1.928662e+02	3.054763e+05	1.162698e+05	3.001030e+02	4.264569e-01	2.107053e+01	0.000000e+00	
1.051282e+00	-4.746835e-02	1.349677e+00	5.251247e+01	-1.928607e+02	3.054784e+05	1.162710e+05	3.001040e+02	4.264411e-01	2.107223e+01	0.000000e+00	
1.000000e+00	-7.911392e-02	1.349668e+00	5.251405e+01	-1.928662e+02	3.054763e+05	1.162698e+05	3.001030e+02	4.264570e-01	2.107053e+01	0.000000e+00	
1.051282e+00	-7.911392e-02	1.349678e+00	5.251257e+01	-1.928608e+02	3.054784e+05	1.162710e+05	3.001040e+02	4.264412e-01	2.107223e+01	0.000000e+00	
1.000000e+00	-1.107595e-01	1.349668e+00	5.251415e+01	-1.928663e+02	3.054763e+05	1.162698e+05	3.001029e+02	4.264571e-01	2.107053e+01	0.000000e+00	
1.051282e+00	-1.107595e-01	1.349678e+00	5.251266e+01	-1.928608e+02	3.054784e+05	1.162710e+05	3.001039e+02	4.264413e-01	2.107223e+01	0.000000e+00	
1.000000e+00	-1.424051e-01	1.349668e+00	5.251425e+01	-1.928664e+02	3.054763e+05	1.162698e+05	3.001029e+02	4.264572e-01	2.107053e+01	0.000000e+00	
1.051282e+00	-1.424051e-01	1.349678e+00	5.251275e+01	-1.928609e+02	3.054784e+05	1.162710e+05	3.001039e+02	4.264415e-01	2.107222e+01	0.000000e+00	
1.000000e+00	-1.740506e-01	1.349669e+00	5.251434e+01	-1.928664e+02	3.054763e+05	1.162698e+05	3.001028e+02	4.264574e-01	2.107052e+01	0.000000e+00	
1.051282e+00	-1.740506e-01	1.349678e+00	5.251284e+01	-1.928609e+02	3.054784e+05	1.162710e+05	3.001039e+02	4.264416e-01	2.107222e+01	0.000000e+00	
1.000000e+00	-2.056962e-01	1.349669e+00	5.251443e+01	-1.928665e+02	3.054763e+05	1.162698e+05	3.001028e+02	4.264575e-01	2.107052e+01	0.000000e+00	
1.051282e+00	-2.056962e-01	1.349678e+00	5.251292e+01	-1.928610e+02	3.054784e+05	1.162710e+05	3.001039e+02	4.264418e-01	2.107222e+01	0.000000e+00	
1.000000e+00	-2.373418e-01	1.349669e+00	5.251451e+01	-1.928665e+02	3.054763e+05	1.162698e+05	3.001027e+02	4.264577e-01	2.107051e+01	0.000000e+00	
1.051282e+00	-2.373418e-01	1.349678e+00	5.251300e+01	-1.928611e+02	3.054784e+05	1.162710e+05	3.001038e+02	4.264420e-01	2.107221e+01	0.000000e+00	
1.000000e+00	-2.689873e-01	1.349669e+00	5.251459e+01	-1.928666e+02	3.054763e+05	1.162698e+05	3.001027e+02	4.264578e-01	2.107051e+01	0.000000e+00	
1.051282e+00	-2.689873e-01	1.349678e+00	5.251308e+01	-1.928611e+02	3.054784e+05	1.162710e+05	3.001038e+02	4.264422e-01	2.107220e+01	0.000000e+00	
1.000000e+00	-3.006329e-01	1.349669e+00	5.251466e+01	-1.928666e+02	3.054763e+05	1.162698e+05	3.001026e+02	4.264580e-01	2.107050e+01	0.000000e+00	
1.051282e+00	-3.006329e-01	1.349678e+00	5.251315e+01	-1.928612e+02	3.054784e+05	1.162710e+05	3.001037e+02	4.264423e-01	2.107219e+01	0.000000e+00	
1.000000e+00	-3.322785e-01	1.349670e+00	5.251473e+01	-1.928667e+02	3.054763e+05	1.162698e+05	3.001026e+02	4.264581e-01	2.107049e+01	0.000000e+00	
1.051282e+00	-3.322785e-01	1.349678e+00	5.251321e+01	-1.928613e+02	3.054784e+05	1.162710e+05	3.001037e+02	4.264425e-01	2.107219e+01	0.000000e+00	
1.000000e+00	-3.639241e-01	1.349670e+00	5.251479e+01	-1.928668e+02	3.054763e+05	1.162698e+05	3.001025e+02	4.264583e-01	2.107048e+01	0.000000e+00	
1.051282e+00	-3.639241e-01	1.349679e+00	5.251327e+01	-1.928614e+02	3.054784e+05	1.162710e+05	3.001036e+02	4.264427e-01	2.107217e+01	0.000000e+00	
1.000000e+00	-3.955696e-01	1.349670e+00	5.251484e+01	-1.928668e+02	3.054763e+05	1.162698e+05	3.001025e+02	4.264584e-01	2.107047e+01	0.000000e+00	
1.051282e+00	-3.955696e-01	1.349679e+00	5.251332e+01	-1.928615e+02	3.054784e+05	1.162710e+05	3.001036e+02	4.264429e-01	2.107216e+01	0.000000e+00	
1.000000e+00	-4.272152e-01	1.349670e+00	5.251489e+01	-1.928669e+02	3.054763e+05	1.162697e+05	3.001024e+02	4.264586e-01	2.107045e+01	0.000000e+00	
1.051282e+00	-4.272152e-01	1.349679e+00	5.251336e+01	-1.928616e+02	3.054784e+05	1.162709e+05	3.001035e+02	4.264431e-01	2.107215e+01	0.000000e+00	
1.000000e+00	-4.588608e-01	1.349670e+00	5.251492e+01	-1.928669e+02	3.054763e+05	1.162697e+05	3.001024e+02	4.264587e-01	2.107044e+01	0.000000e+00	
1.051282e+00	-4.588608e-01	1.349679e+00	5.251340e+01	-1.928616e+02	3.054784e+05	1.162709e+05	3.001035e+02	4.264433e-01	2.107214e+01	0.000000e+00	
1.000000e+00	-4.905063e-01	1.349670e+00	5.251495e+01	-1.928670e+02	3.054763e+05	1.162697e+05	3.001023e+02	4.264589e-01	2.107043e+01	0.000000e+00	
1.051282e+00	-4.905063e-01	1.349679e+00	5.251343e+01	-1.928617e+02	3.054784e+05	1.162709e+05	3.001034e+02	4.264435e-01	2.107212e+01	0.000000e+00	
1.000000e+00	-5.221519e-01	1.349670e+00	5.251498e+01	-1.928671e+02	3.054762e+05	1.162697e+05	3.001023e+02	4.264590e-01	2.107041e+01	0.000000e+00	
1.051282e+00	-5.221519e-01	1.349679e+00	5.251345e+01	-1.928618e+02	3.054783e+05	1.162709e+05	3.001034e+02	4.264437e-01	2.107210e+01	0.000000e+00	
1.000000e+00	-5.537975e-01	1.349670e+00	5.251499e+01	-1.928671e+02	3.054762e+05	1.162697e+05	3.001023e+02	4.264592e-01	2.107039e+01	0.000000e+00	
1.051282e+00	-5.537975e-01	1.349679e+00	5.251346e+01	-1.928619e+02	3.054783e+05	1.162709e+05	3.001034e+02	4.264439e-01	2.107209e+01	0.000000e+00	
1.000000e+00	-5.854430e-01	1.349670e+00	5.251499e+01	-1.928672e+02	3.054762e+05	1.162697e+05	3.001022e+02	4.264593e-01	2.107037e+01	0.000000e+00	
1.051282e+00	-5.854430e-01	1.349679e+00	5.251347e+01	-1.928620e+02	3.054783e+05	1.162709e+05	3.001033e+02	4.264442e-01	2.107207e+01	0.000000e+00	
1.000000e+00	-6.170886e-01	1.349670e+00	5.251499e+01	-1.928672e+02	3.054762e+05	1.162697e+05	3.001022e+02	4.264595e-01	2.107035e+01	0.000000e+00	
1.051282e+00	-6.170886e-01	1.349679e+00	5.251347e+01	-1.928621e+02	3.054783e+05	1.162709e+05	3.001033e+02	4.264444e-01	2.107205e+01	0.000000e+00	
1.000000e+00	-6.487342e-01	1.349670e+00	5.251498e+01	-1.928673e+02	3.054761e+05	1.162697e+05	3.001022e+02	4.264596e-01	2.107033e+01	0.000000e+00	
1.051282e+00	-6.487342e-01	1.349679e+00	5.251345e+01	-1.928622e+02	3.054783e+05	1.162709e+05	3.001032e+02	4.264446e-01	2.107203e+01	0.000000e+00	
1.000000e+00	-6.803797e-01	1.349670e+00	5.251496e+01	-1.928674e+02	3.054761e+05	1.162696e+05	3.001022e+02	4.264598e-01	2.107031e+01	0.000000e+00	
1.051282e+00	-6.803797e-01	1.349679e+00	5.251343e+01	-1.928623e+02	3.054782e+05	1.162708e+05	3.001032e+02	4.264448e-01	2.107201e+01	0.000000e+00	
1.000000e+00	-7.120253e-01	1.349670e+00	5.251492e+01	-1.928674e+02	3.054761e+05	1.162696e+05	3.001022e+02	4.264599e-01	2.107028e+01	0.000000e+00	
1.051282e+00	-7.120253e-01	1.349679e+00	5.251340e+01	-1.928624e+02	3.054782e+05	1.162708e+05	3.001032e+02	4.264450e-01	2.107198e+01	0.000000e+00	
1.000000e+00	-7.436709e-01	1.349670e+00	5.251488e+01	-1.928675e+02	3.054760e+05	1.162696e+05	3.001021e+02	4.264601e-01	2.107026e+01	0.000000e+00	
1.051282e+00	-7.436709e-01	1.349679e+00	5.251337e+01	-1.928625e+02	3.054782e+05	1.162708e+05	3.001031e+02	4.264452e-01	2.107196e+01	0.000000e+00	
1.000000e+00	-7.753165e-01	1.349669e+00	5.251483e+01	-1.928675e+02	3.054760e+05	1.162696e+05	3.001021e+02	4.264602e-01	2.107023e+01	0.000000e+00	
1.051282e+00	-7.753165e-01	1.349679e+00	5.251332e+01	-1.928626e+02	3.054781e+05	1.162708e+05	3.001031e+02	4.264454e-01	2.107194e+01	0.000000e+00	
1.000000e+00	-8.069620e-01	1.349669e+00	5.251477e+01	-1.928676e+02	3.054760e+05	1.162696e+05	3.001021e+02	4.264604e-01	2.107020e+01	0.000000e+00	
1.051282e+00	-8.069620e-01	1.349679e+00	5.251326e+01	-1.928626e+02	3.054781e+05	1.162708e+05	3.001031e+02	4.264456e-01	2.107191e+01	0.000000e+00	
1.000000e+00	-8.386076e-01	1.349669e+00	5.251471e+01	-1.928676e+02	3.054759e+05	1.162695e+05	3.001021e+02	4.264605e-01	2.107018e+01	0.000000e+00	
1.051282e+00	-8.386076e-01	1.349679e+00	5.251320e+01	-1.928627e+02	3.054781e+05	1.162708e+05	3.001030e+02	4.264458e-01	2.107188e+01	0.000000e+00	
1.000000e+00	-8.702532e-01	1.349669e+00	5.251463e+01	-1.928677e+02	3.054759e+05	1.162695e+05	3.001021e+02	4.264606e-01	2.107015e+01	0.000000e+00	
1.051282e+00	-8.702532e-01	1.349679e+00	5.251312e+01	-1.928628e+02	3.054780e+05	1.162707e+05	3.001030e+02	4.264460e-01	2.107186e+01	0.000000e+00	
1.000000e+00	-9.018987e-01	1.349668e+00	5.251454e+01	-1.928677e+02	3.054758e+05	1.162695e+05	3.001021e+02	4.264608e-01	2.107012e+01	0.000000e+00	
1.051282e+00	-9.018987e-01	1.349679e+00	5.251304e+01	-1.928629e+02	3.054780e+05	1.162707e+05	3.001030e+02	4.264462e-01	2.107183e+01	0.000000e+00	
1.000000e+00	-9.335443e-01	1.349668e+00	5.251445e+01	-1.928678e+02	3.054758e+05	1.162695e+05	3.001021e+02	4.264609e-01	2.107009e+01	0.000000e+00	
1.051282e+00	-9.335443e-01	1.349678e+00	5.251295e+01	-1.928630e+02	3.054780e+05	1.162707e+05	3.001030e+02	4.264463e-01	2.107180e+01	0.000000e+00	
1.000000e+00	-9.651899e-01	1.349668e+00	5.251434e+01	-1.928678e+02	3.054757e+05	1.162695e+05	3.001021e+02	4.264610e-01	2.107006e+01	0.000000e+00	
1.051282e+00	-9.651899e-01	1.349678e+00	5.251285e+01	-1.928631e+02	3.054779e+05	1.162707e+05	3.001030e+02	4.264465e-01	2.107178e+01	0.000000e+00	
1.000000e+00	-9.968354e-01	1.349668e+00	5.251423e+01	-1.928679e+02	3.054757e+05	1.162694e+05	3.001021e+02	4.264611e-01	2.107003e+01	0.000000e+00	
1.051282e+00	-9.968354e-01	1.349678e+00	5.251275e+01	-1.928631e+02	3.054779e+05	1.162707e+05	3.001030e+02	4.264466e-01	2.107175e+01	0.000000e+00	
1.000000e+00	-1.028481e+00	1.349668e+00	5.251411e+01	-1.928679e+02	3.054756e+05	1.162694e+05	3.001021e+02	4.264612e-01	2.107000e+01	0.000000e+00	
1.051282e+00	-1.028481e+00	1.349678e+00	5.251264e+01	-1.928632e+02	3.054778e+05	1.162706e+05	3.001030e+02	4.264468e-01	2.107172e+01	0.000000e+00	
1.000000e+00	-1.060127e+00	1.349667e+00	5.251399e+01	-1.928679e+02	3.054756e+05	1.162694e+05	3.001021e+02	4.264613e-01	2.106997e+01	0.000000e+00	
1.051282e+00	-1.060127e+00	1.349678e+00	5.251252e+01	-1.928633e+02	3.054778e+05	1.162706e+05	3.001030e+02	4.264469e-01	2.107169e+01	0.000000e+00	
1.000000e+00	-1.091772e+00	1.349667e+00	5.251385e+01	-1.928680e+02	3.054755e+05	1.162694e+05	3.001021e+02	4.264614e-01	2.106994e+01	0.000000e+00	
1.051282e+00	-1.091772e+00	1.349678e+00	5.251239e+01	-1.928633e+02	3.054778e+05	1.162706e+05	3.001029e+02	4.264471e-01	2.107167e+01	0.000000e+00	
1.000000e+00	-1.123418e+00	1.349667e+00	5.251372e+01	-1.928680e+02	3.054755e+05	1.162694e+05	3.001021e+02	4.264614e-01	2.106991e+01	0.000000e+00	
1.051282e+00	-1.123418e+00	1.349677e+00	5.251225e+01	-1.928633e+02	3.054777e+05	1.162706e+05	3.001029e+02	4.264471e-01	2.107163e+01	0.000000e+00	
1.000000e+00	-1.155063e+00	1.349667e+00	5.251361e+01	-1.928681e+02	3.054755e+05	1.162693e+05	3.001021e+02	4.264616e-01	2.106990e+01	0.000000e+00	
1.051282e+00	-1.155063e+00	1.349677e+00	5.251217e+01	-1.928635e+02	3.054777e+05	1.162706e+05	3.001029e+02	4.264474e-01	2.107164e+01	0.000000e+00	
1.000000e+00	-1.186709e+00	1.349666e+00	5.251338e+01	-1.928680e+02	3.054753e+05	1.162693e+05	3.001021e+02	4.264614e-01	2.106983e+01	0.000000e+00	
1.051282e+00	-1.186709e+00	1.349677e+00	5.251203e+01	-1.928633e+02	3.054776e+05	1.162705e+05	3.001029e+02	4.264472e-01	2.107156e+01	0.000000e+00	
1.000000e+00	-1.218354e+00	1.349667e+00	5.251290e+01	-1.928682e+02	3.054754e+05	1.162693e+05	3.001021e+02	4.264615e-01	2.106988e+01	0.000000e+00	
1.051282e+00	-1.218354e+00	1.349677e+00	5.251129e+01	-1.928637e+02	3.054777e+05	1.162706e+05	3.001029e+02	4.264472e-01	2.107163e+01	0.000000e+00	
1.102564e+00	1.218354e+00	1.349685e+00	5.251211e+01	-1.928589e+02	3.054796e+05	1.162716e+05	3.001038e+02	4.264347e-01	2.107309e+01	0.000000e+00	
1.102564e+00	1.250000e+00	1.349685e+00	5.251208e+01	-1.928590e+02	3.054795e+05	1.162716e+05	3.001038e+02	4.264351e-01	2.107303e+01	0.000000e+00	
1.102564e+00	1.186709e+00	1.349685e+00	5.251198e+01	-1.928589e+02	3.054796e+05	1.162716e+05	3.001038e+02	4.264346e-01	2.107310e+01	0.000000e+00	
1.102564e+00	1.155063e+00	1.349685e+00	5.251183e+01	-1.928589e+02	3.054796e+05	1.162716e+05	3.001038e+02	4.264344e-01	2.107311e+01	0.000000e+00	
1.102564e+00	1.123418e+00	1.349685e+00	5.251168e+01	-1.928588e+02	3.054796e+05	1.162716e+05	3.001039e+02	4.264342e-01	2.107313e+01	0.000000e+00	
1.102564e+00	1.091772e+00	1.349686e+00	5.251153e+01	-1.928588e+02	3.054796e+05	1.162717e+05	3.001039e+02	4.264340e-01	2.107314e+01	0.000000e+00	
1.102564e+00	1.060127e+00	1.349686e+00	5.251139e+01	-1.928587e+02	3.054796e+05	1.162717e+05	3.001039e+02	4.264337e-01	2.107316e+01	0.000000e+00	
1.102564e+00	1.028481e+00	1.349686e+00	5.251126e+01	-1.928586e+02	3.054796e+05	1.162717e+05	3.001039e+02	4.264335e-01	2.107318e+01	0.000000e+00	
1.102564e+00	9.968354e-01	1.349686e+00	5.251113e+01	-1.928585e+02	3.054797e+05	1.162717e+05	3.001039e+02	4.264332e-01	2.107320e+01	0.000000e+00	
1.102564e+00	9.651899e-01	1.349686e+00	5.251101e+01	-1.928584e+02	3.054797e+05	1.162717e+05	3.001039e+02	4.264329e-01	2.107322e+01	0.000000e+00	
1.102564e+00	9.335443e-01	1.349686e+00	5.251090e+01	-1.928583e+02	3.054797e+05	1.162717e+05	3.001040e+02	4.264326e-01	2.107324e+01	0.000000e+00	
1.102564e+00	9.018987e-01	1.349686e+00	5.251080e+01	-1.928582e+02	3.054797e+05	1.162717e+05	3.001040e+02	4.264323e-01	2.107327e+01	0.000000e+00	
1.102564e+00	8.702532e-01	1.349686e+00	5.251070e+01	-1.928581e+02	3.054797e+05	1.162718e+05	3.001040e+02	4.264320e-01	2.107329e+01	0.000000e+00	
1.102564e+00	8.386076e-01	1.349686e+00	5.251062e+01	-1.928580e+02	3.054798e+05	1.162718e+05	3.001040e+02	4.264316e-01	2.107331e+01	0.000000e+00	
1.102564e+00	8.069620e-01	1.349686e+00	5.251054e+01	-1.928579e+02	3.054798e+05	1.162718e+05	3.001041e+02	4.264313e-01	2.107334e+01	0.000000e+00	
1.102564e+00	7.753165e-01	1.349686e+00	5.251047e+01	-1.928578e+02	3.054798e+05	1.162718e+05	3.001041e+02	4.264310e-01	2.107336e+01	0.000000e+00	
1.102564e+00	7.436709e-01	1.349686e+00	5.251042e+01	-1.928577e+02	3.054798e+05	1.162718e+05	3.001041e+02	4.264306e-01	2.107338e+01	0.000000e+00	
1.102564e+00	7.120253e-01	1.349687e+00	5.251037e+01	-1.928575e+02	3.054798e+05	1.162718e+05	3.001041e+02	4.264303e-01	2.107340e+01	0.000000e+00	
1.102564e+00	6.803797e-01	1.349687e+00	5.251034e+01	-1.928574e+02	3.054799e+05	1.162719e+05	3.001042e+02	4.264300e-01	2.107343e+01	0.000000e+00	
1.102564e+00	6.487342e-01	1.349687e+00	5.251031e+01	-1.928573e+02	3.054799e+05	1.162719e+05	3.001042e+02	4.264297e-01	2.107345e+01	0.000000e+00	
1.102564e+00	6.170886e-01	1.349687e+00	5.251029e+01	-1.928571e+02	3.054799e+05	1.162719e+05	3.001042e+02	4.264294e-01	2.107347e+01	0.000000e+00	
1.102564e+00	5.854430e-01	1.349687e+00	5.251029e+01	-1.928570e+02	3.054799e+05	1.162719e+05	3.001043e+02	4.264291e-01	2.107349e+01	0.000000e+00	
1.102564e+00	5.537975e-01	1.349687e+00	5.251029e+01	-1.928569e+02	3.054799e+05	1.162719e+05	3.001043e+02	4.264288e-01	2.107351e+01	0.000000e+00	
1.102564e+00	5.221519e-01	1.349687e+00	5.251030e+01	-1.928568e+02	3.054800e+05	1.162719e+05	3.001043e+02	4.264286e-01	2.107353e+01	0.000000e+00	
1.102564e+00	4.905063e-01	1.349687e+00	5.251032e+01	-1.928567e+02	3.054800e+05	1.162719e+05	3.001044e+02	4.264283e-01	2.107355e+01	0.000000e+00	
1.102564e+00	4.588608e-01	1.349687e+00	5.251035e+01	-1.928566e+02	3.054800e+05	1.162720e+05	3.001044e+02	4.264281e-01	2.107357e+01	0.000000e+00	
1.102564e+00	4.272152e-01	1.349687e+00	5.251039e+01	-1.928565e+02	3.054800e+05	1.162720e+05	3.001044e+02	4.264279e-01	2.107359e+01	0.000000e+00	
1.102564e+00	3.955696e-01	1.349687e+00	5.251043e+01	-1.928564e+02	3.054800e+05	1.162720e+05	3.001045e+02	4.264277e-01	2.107360e+01	0.000000e+00	
1.102564e+00	3.639241e-01	1.349687e+00	5.251049e+01	-1.928563e+02	3.054800e+05	1.162720e+05	3.001045e+02	4.264275e-01	2.107362e+01	0.000000e+00	
1.102564e+00	3.322785e-01	1.349687e+00	5.251054e+01	-1.928562e+02	3.054801e+05	1.162720e+05	3.001045e+02	4.264274e-01	2.107363e+01	0.000000e+00	
1.102564e+00	3.006329e-01	1.349686e+00	5.251061e+01	-1.928561e+02	3.054801e+05	1.162720e+05	3.001046e+02	4.264273e-01	2.107364e+01	0.000000e+00	
1.102564e+00	2.689873e-01	1.349686e+00	5.251068e+01	-1.928561e+02	3.054801e+05	1.162720e+05	3.001046e+02	4.264272e-01	2.107366e+01	0.000000e+00	
1.102564e+00	2.373418e-01	1.349686e+00	5.251075e+01	-1.928560e+02	3.054801e+05	1.162720e+05	3.001047e+02	4.264271e-01	2.107367e+01	0.000000e+00	
1.102564e+00	2.056962e-01	1.349686e+00	5.251082e+01	-1.928560e+02	3.054801e+05	1.162720e+05	3.001047e+02	4.264270e-01	2.107368e+01	0.000000e+00	
1.102564e+00	1.740506e-01	1.349686e+00	5.251090e+01	-1.928559e+02	3.054801e+05	1.162720e+05	3.001047e+02	4.264270e-01	2.107369e+01	0.000000e+00	
1.102564e+00	1.424051e-01	1.349686e+00	5.251099e+01	-1.928559e+02	3.054801e+05	1.162720e+05	3.001048e+02	4.264270e-01	2.107369e+01	0.000000e+00	
1.102564e+00	1.107595e-01	1.349686e+00	5.251107e+01	-1.928559e+02	3.054802e+05	1.162720e+05	3.001048e+02	4.264270e-01	2.107370e+01	0.000000e+00	
1.102564e+00	7.911392e-02	1.349686e+00	5.251116e+01	-1.928558e+02	3.054802e+05	1.162721e+05	3.001048e+02	4.264270e-01	2.107371e+01	0.000000e+00	
1.102564e+00	4.746835e-02	1.349686e+00	5.251124e+01	-1.928558e+02	3.054802e+05	1.162721e+05	3.001048e+02	4.264270e-01	2.107371e+01	0.000000e+00	
1.102564e+00	1.582278e-02	1.349686e+00	5.251133e+01	-1.928558e+02	3.054802e+05	1.162721e+05	3.001048e+02	4.264271e-01	2.107371e+01	0.000000e+00	
1.102564e+00	-1.582278e-02	1.349686e+00	5.251142e+01	-1.928558e+02	3.054802e+05	1.162721e+05	3.001049e+02	4.264271e-01	2.107372e+01	0.000000e+00	
1.102564e+00	-4.746835e-02	1.349686e+00	5.251150e+01	-1.928558e+02	3.054802e+05	1.162721e+05	3.001049e+02	4.264272e-01	2.107372e+01	0.000000e+00	
1.102564e+00	-7.911392e-02	1.349686e+00	5.251159e+01	-1.928559e+02	3.054802e+05	1.162721e+05	3.001049e+02	4.264273e-01	2.107372e+01	0.000000e+00	
1.102564e+00	-1.107595e-01	1.349686e+00	5.251167e+01	-1.928559e+02	3.054802e+05	1.162721e+05	3.001049e+02	4.264274e-01	2.107372e+01	0.000000e+00	
1.102564e+00	-1.424051e-01	1.349686e+00	5.251175e+01	-1.928559e+02	3.054802e+05	1.162721e+05	3.001049e+02	4.264275e-01	2.107371e+01	0.000000e+00	
1.102564e+00	-1.740506e-01	1.349686e+00	5.251183e+01	-1.928560e+02	3.054802e+05	1.162721e+05	3.001049e+02	4.264277e-01	2.107371e+01	0.000000e+00	