TITLE = "SU2 Simulation"
VARIABLES = "Iteration","CL","CD","CSF","CMx","CMy","CMz","CFx","CFy","CFz","CL/CD","AoA","Custom_ObjFunc","Res_Flow[0]","Res_Flow[1]","Res_Flow[2]","Res_Flow[3]","Res_Flow[4]","Linear_Solver_Iterations","CFL_Number","Time(min)"
ZONE T= "Convergence history"
           0, 0.00000000e+00, 0.00000000e+00, 0.00000000e+00, 0.00000000e+00, 0.00000000e+00, 0.00000000e+00, 0.00000000e+00, 0.00000000e+00, 0.00000000e+00, 0.00000000e+00, 0.00000000e+00, 0.00000000e+00, -1.62443716e+01, -1.32514527e+01, -1.32295822e+01, -1.09138774e+01, 0.00000000e+00, 5.0000000000, 5.0000000000, 0.0012432000
           1, 0.00000000e+00, 0.00000000e+00, 0.00000000e+00, 0.00000000e+00, 0.00000000e+00, 0.00000000e+00, 0.00000000e+00, 0.00000000e+00, 0.00000000e+00, 0.00000000e+00, 0.00000000e+00, 0.00000000e+00, -1.59451768e+01, 2.60255505e+00, 1.93829333e+00, 4.13441321e+00, 0.00000000e+00, 5.0000000000, 5.0000000000, 0.0024562167
           2, 0.00000000e+00, 0.00000000e+00, 0.00000000e+00, 0.00000000e+00, 0.00000000e+00, 0.00000000e+00, 0.00000000e+00, 0.00000000e+00, 0.00000000e+00, 0.00000000e+00, 0.00000000e+00, 0.00000000e+00, -9.75774367e-01, 2.48053463e+00, 2.14199371e+00, 4.56745510e+00, 0.00000000e+00, 5.0000000000, 5.0000000000, 0.0035690333
           3, 0.00000000e+00, 0.00000000e+00, 0.00000000e+00, 0.00000000e+00, 0.00000000e+00, 0.00000000e+00, 0.00000000e+00, 0.00000000e+00, 0.00000000e+00, 0.00000000e+00, 0.00000000e+00, 0.00000000e+00, -8.19220217e-01, 2.33553736e+00, 2.18133784e+00, 4.68682903e+00, 0.00000000e+00, 5.0000000000, 5.0000000000, 0.0047366000
           4, 0.00000000e+00, 0.00000000e+00, 0.00000000e+00, 0.00000000e+00, 0.00000000e+00, 0.00000000e+00, 0.00000000e+00, 0.00000000e+00, 0.00000000e+00, 0.00000000e+00, 0.00000000e+00, 0.00000000e+00, -7.78626941e-01, 2.17765313e+00, 2.16179567e+00, 4.71189503e+00, 0.00000000e+00, 5.0000000000, 5.0000000000, 0.0058091500
           5, 0.00000000e+00, 0.00000000e+00, 0.00000000e+00, 0.00000000e+00, 0.00000000e+00, 0.00000000e+00, 0.00000000e+00, 0.00000000e+00, 0.00000000e+00, 0.00000000e+00, 0.00000000e+00, 0.00000000e+00, -7.74766844e-01, 2.01270562e+00, 2.11514294e+00, 4.70598858e+00, 0.00000000e+00, 5.0000000000, 5.0000000000, 0.0069197500
           6, 0.00000000e+00, 0.00000000e+00, 0.00000000e+00, 0.00000000e+00, 0.00000000e+00, 0.00000000e+00, 0.00000000e+00, 0.00000000e+00, 0.00000000e+00, 0.00000000e+00, 0.00000000e+00, 0.00000000e+00, -7.82327356e-01, 1.84575775e+00, 2.05513907e+00, 4.69207608e+00, 0.00000000e+00, 5.0000000000, 5.0000000000, 0.0080550500
           7, 0.00000000e+00, 0.00000000e+00, 0.00000000e+00, 0.00000000e+00, 0.00000000e+00, 0.00000000e+00, 0.00000000e+00, 0.00000000e+00, 0.00000000e+00, 0.00000000e+00, 0.00000000e+00, 0.00000000e+00, -7.92407197e-01, 1.68767025e+00, 1.98883865e+00, 4.67839168e+00, 0.00000000e+00, 5.0000000000, 5.0000000000, 0.0092195167
           8, 0.00000000e+00, 0.00000000e+00, 0.00000000e+00, 0.00000000e+00, 0.00000000e+00, 0.00000000e+00, 0.00000000e+00, 0.00000000e+00, 0.00000000e+00, 0.00000000e+00, 0.00000000e+00, 0.00000000e+00, -8.02826810e-01, 1.56390348e+00, 1.92030629e+00, 4.66646919e+00, 0.00000000e+00, 5.0000000000, 5.0000000000, 0.0103842000
           9, 0.00000000e+00, 0.00000000e+00, 0.00000000e+00, 0.00000000e+00, 0.00000000e+00, 0.00000000e+00, 0.00000000e+00, 0.00000000e+00, 0.00000000e+00, 0.00000000e+00, 0.00000000e+00, 0.00000000e+00, -8.13578066e-01, 1.50449641e+00, 1.85205572e+00, 4.65560378e+00, 0.00000000e+00, 5.0000000000, 5.0000000000, 0.0115517500
          10, 0.00000000e+00, 0.00000000e+00, 0.00000000e+00, 0.00000000e+00, 0.00000000e+00, 0.00000000e+00, 0.00000000e+00, 0.00000000e+00, 0.00000000e+00, 0.00000000e+00, 0.00000000e+00, 0.00000000e+00, -8.25112936e-01, 1.50484114e+00, 1.78584787e+00, 4.64472501e+00, 0.00000000e+00, 5.0000000000, 5.0000000000, 0.0126359167
          11, 0.00000000e+00, 0.00000000e+00, 0.00000000e+00, 0.00000000e+00, 0.00000000e+00, 0.00000000e+00, 0.00000000e+00, 0.00000000e+00, 0.00000000e+00, 0.00000000e+00, 0.00000000e+00, 0.00000000e+00, -8.38118014e-01, 1.53322867e+00, 1.72285349e+00, 4.63269289e+00, 0.00000000e+00, 5.0000000000, 5.0000000000, 0.0136952667
          12, 0.00000000e+00, 0.00000000e+00, 0.00000000e+00, 0.00000000e+00, 0.00000000e+00, 0.00000000e+00, 0.00000000e+00, 0.00000000e+00, 0.00000000e+00, 0.00000000e+00, 0.00000000e+00, 0.00000000e+00, -8.53711059e-01, 1.56826752e+00, 1.66369267e+00, 4.61806942e+00, 0.00000000e+00, 5.0000000000, 5.0000000000, 0.0148101667
          13, 0.00000000e+00, 0.00000000e+00, 0.00000000e+00, 0.00000000e+00, 0.00000000e+00, 0.00000000e+00, 0.00000000e+00, 0.00000000e+00, 0.00000000e+00, 0.00000000e+00, 0.00000000e+00, 0.00000000e+00, -8.73515366e-01, 1.60261428e+00, 1.60842916e+00, 4.59902432e+00, 0.00000000e+00, 5.0000000000, 5.0000000000, 0.0158940000
          14, 0.00000000e+00, 0.00000000e+00, 0.00000000e+00, 0.00000000e+00, 0.00000000e+00, 0.00000000e+00, 0.00000000e+00, 0.00000000e+00, 0.00000000e+00, 0.00000000e+00, 0.00000000e+00, 0.00000000e+00, -8.99605877e-01, 1.63472014e+00, 1.55660860e+00, 4.57335114e+00, 0.00000000e+00, 5.0000000000, 5.0000000000, 0.0169993000
          15, 0.00000000e+00, 0.00000000e+00, 0.00000000e+00, 0.00000000e+00, 0.00000000e+00, 0.00000000e+00, 0.00000000e+00, 0.00000000e+00, 0.00000000e+00, 0.00000000e+00, 0.00000000e+00, 0.00000000e+00, -9.34352923e-01, 1.66435866e+00, 1.50743122e+00, 4.53861443e+00, 0.00000000e+00, 5.0000000000, 5.0000000000, 0.0180932667
          16, 0.00000000e+00, 0.00000000e+00, 0.00000000e+00, 0.00000000e+00, 0.00000000e+00, 0.00000000e+00, 0.00000000e+00, 0.00000000e+00, 0.00000000e+00, 0.00000000e+00, 0.00000000e+00, 0.00000000e+00, -9.80358091e-01, 1.69117194e+00, 1.45999939e+00, 4.49219970e+00, 0.00000000e+00, 5.0000000000, 5.0000000000, 0.0191878833
          17, 0.00000000e+00, 0.00000000e+00, 0.00000000e+00, 0.00000000e+00, 0.00000000e+00, 0.00000000e+00, 0.00000000e+00, 0.00000000e+00, 0.00000000e+00, 0.00000000e+00, 0.00000000e+00, 0.00000000e+00, -1.04029228e+00, 1.71443883e+00, 1.41366564e+00, 4.43155195e+00, 0.00000000e+00, 5.0000000000, 5.0000000000, 0.0202403000
          18, 0.00000000e+00, 0.00000000e+00, 0.00000000e+00, 0.00000000e+00, 0.00000000e+00, 0.00000000e+00, 0.00000000e+00, 0.00000000e+00, 0.00000000e+00, 0.00000000e+00, 0.00000000e+00, 0.00000000e+00, -1.11632132e+00, 1.73324848e+00, 1.36837175e+00, 4.35484381e+00, 0.00000000e+00, 5.0000000000, 5.0000000000, 0.0214098833
          19, 0.00000000e+00, 0.00000000e+00, 0.00000000e+00, 0.00000000e+00, 0.00000000e+00, 0.00000000e+00, 0.00000000e+00, 0.00000000e+00, 0.00000000e+00, 0.00000000e+00, 0.00000000e+00, 0.00000000e+00, -1.20744432e+00, 1.74670542e+00, 1.32497689e+00, 4.26405857e+00, 0.00000000e+00, 5.0000000000, 5.0000000000, 0.0225330833
          20, 0.00000000e+00, 0.00000000e+00, 0.00000000e+00, 0.00000000e+00, 0.00000000e+00, 0.00000000e+00, 0.00000000e+00, 0.00000000e+00, 0.00000000e+00, 0.00000000e+00, 0.00000000e+00, 0.00000000e+00, -1.30049561e+00, 1.75409964e+00, 1.28539715e+00, 4.17435466e+00, 0.00000000e+00, 5.0000000000, 5.0000000000, 0.0235781333
          21, 0.00000000e+00, 0.00000000e+00, 0.00000000e+00, 0.00000000e+00, 0.00000000e+00, 0.00000000e+00, 0.00000000e+00, 0.00000000e+00, 0.00000000e+00, 0.00000000e+00, 0.00000000e+00, 0.00000000e+00, -1.35498171e+00, 1.75498135e+00, 1.25236079e+00, 4.12671552e+00, 0.00000000e+00, 5.0000000000, 5.0000000000, 0.0246518667
          22, 0.00000000e+00, 0.00000000e+00, 0.00000000e+00, 0.00000000e+00, 0.00000000e+00, 0.00000000e+00, 0.00000000e+00, 0.00000000e+00, 0.00000000e+00, 0.00000000e+00, 0.00000000e+00, 0.00000000e+00, -1.33200568e+00, 1.74921520e+00, 1.22847088e+00, 4.15328684e+00, 0.00000000e+00, 5.0000000000, 5.0000000000, 0.0257311500
          23, 0.00000000e+00, 0.00000000e+00, 0.00000000e+00, 0.00000000e+00, 0.00000000e+00, 0.00000000e+00, 0.00000000e+00, 0.00000000e+00, 0.00000000e+00, 0.00000000e+00, 0.00000000e+00, 0.00000000e+00, -1.26000693e+00, 1.73698654e+00, 1.21486733e+00, 4.22294134e+00, 0.00000000e+00, 5.0000000000, 5.0000000000, 0.0268010000
          24, 0.00000000e+00, 0.00000000e+00, 0.00000000e+00, 0.00000000e+00, 0.00000000e+00, 0.00000000e+00, 0.00000000e+00, 0.00000000e+00, 0.00000000e+00, 0.00000000e+00, 0.00000000e+00, 0.00000000e+00, -1.18456164e+00, 1.71881462e+00, 1.21041563e+00, 4.29419284e+00, 0.00000000e+00, 5.0000000000, 5.0000000000, 0.0278789333
          25, 0.00000000e+00, 0.00000000e+00, 0.00000000e+00, 0.00000000e+00, 0.00000000e+00, 0.00000000e+00, 0.00000000e+00, 0.00000000e+00, 0.00000000e+00, 0.00000000e+00, 0.00000000e+00, 0.00000000e+00, -1.12347004e+00, 1.69552040e+00, 1.21220955e+00, 4.35129871e+00, 0.00000000e+00, 5.0000000000, 5.0000000000, 0.0289710000
          26, 0.00000000e+00, 0.00000000e+00, 0.00000000e+00, 0.00000000e+00, 0.00000000e+00, 0.00000000e+00, 0.00000000e+00, 0.00000000e+00, 0.00000000e+00, 0.00000000e+00, 0.00000000e+00, 0.00000000e+00, -1.07915659e+00, 1.66816895e+00, 1.21691190e+00, 4.39212930e+00, 0.00000000e+00, 5.0000000000, 5.0000000000, 0.0300590167
          27, 0.00000000e+00, 0.00000000e+00, 0.00000000e+00, 0.00000000e+00, 0.00000000e+00, 0.00000000e+00, 0.00000000e+00, 0.00000000e+00, 0.00000000e+00, 0.00000000e+00, 0.00000000e+00, 0.00000000e+00, -1.04977109e+00, 1.63794676e+00, 1.22184219e+00, 4.41840411e+00, 0.00000000e+00, 5.0000000000, 5.0000000000, 0.0311319500
          28, 0.00000000e+00, 0.00000000e+00, 0.00000000e+00, 0.00000000e+00, 0.00000000e+00, 0.00000000e+00, 0.00000000e+00, 0.00000000e+00, 0.00000000e+00, 0.00000000e+00, 0.00000000e+00, 0.00000000e+00, -1.03260007e+00, 1.60601312e+00, 1.22538420e+00, 4.43267177e+00, 0.00000000e+00, 5.0000000000, 5.0000000000, 0.0322008500
          29, 0.00000000e+00, 0.00000000e+00, 0.00000000e+00, 0.00000000e+00, 0.00000000e+00, 0.00000000e+00, 0.00000000e+00, 0.00000000e+00, 0.00000000e+00, 0.00000000e+00, 0.00000000e+00, 0.00000000e+00, -1.02495685e+00, 1.57335308e+00, 1.22686435e+00, 4.43749840e+00, 0.00000000e+00, 5.0000000000, 5.0000000000, 0.0333236833
          30, 0.00000000e+00, 0.00000000e+00, 0.00000000e+00, 0.00000000e+00, 0.00000000e+00, 0.00000000e+00, 0.00000000e+00, 0.00000000e+00, 0.00000000e+00, 0.00000000e+00, 0.00000000e+00, 0.00000000e+00, -1.02438297e+00, 1.54070931e+00, 1.22624465e+00, 4.43528507e+00, 0.00000000e+00, 5.0000000000, 5.0000000000, 0.0343866833
          31, 0.00000000e+00, 0.00000000e+00, 0.00000000e+00, 0.00000000e+00, 0.00000000e+00, 0.00000000e+00, 0.00000000e+00, 0.00000000e+00, 0.00000000e+00, 0.00000000e+00, 0.00000000e+00, 0.00000000e+00, -1.02870651e+00, 1.50862047e+00, 1.22382204e+00, 4.42821044e+00, 0.00000000e+00, 5.0000000000, 5.0000000000, 0.0354814833
          32, 0.00000000e+00, 0.00000000e+00, 0.00000000e+00, 0.00000000e+00, 0.00000000e+00, 0.00000000e+00, 0.00000000e+00, 0.00000000e+00, 0.00000000e+00, 0.00000000e+00, 0.00000000e+00, 0.00000000e+00, -1.03609010e+00, 1.47753013e+00, 1.22000426e+00, 4.41816659e+00, 0.00000000e+00, 5.0000000000, 5.0000000000, 0.0364975833
          33, 0.00000000e+00, 0.00000000e+00, 0.00000000e+00, 0.00000000e+00, 0.00000000e+00, 0.00000000e+00, 0.00000000e+00, 0.00000000e+00, 0.00000000e+00, 0.00000000e+00, 0.00000000e+00, 0.00000000e+00, -1.04506018e+00, 1.44789315e+00, 1.21517843e+00, 4.40670269e+00, 0.00000000e+00, 5.0000000000, 5.0000000000, 0.0375554333
          34, 0.00000000e+00, 0.00000000e+00, 0.00000000e+00, 0.00000000e+00, 0.00000000e+00, 0.00000000e+00, 0.00000000e+00, 0.00000000e+00, 0.00000000e+00, 0.00000000e+00, 0.00000000e+00, 0.00000000e+00, -1.05449928e+00, 1.42021617e+00, 1.20966299e+00, 4.39500264e+00, 0.00000000e+00, 5.0000000000, 5.0000000000, 0.0387111333
          35, 0.00000000e+00, 0.00000000e+00, 0.00000000e+00, 0.00000000e+00, 0.00000000e+00, 0.00000000e+00, 0.00000000e+00, 0.00000000e+00, 0.00000000e+00, 0.00000000e+00, 0.00000000e+00, 0.00000000e+00, -1.06361568e+00, 1.39500781e+00, 1.20369760e+00, 4.38388793e+00, 0.00000000e+00, 5.0000000000, 5.0000000000, 0.0397791833
          36, 0.00000000e+00, 0.00000000e+00, 0.00000000e+00, 0.00000000e+00, 0.00000000e+00, 0.00000000e+00, 0.00000000e+00, 0.00000000e+00, 0.00000000e+00, 0.00000000e+00, 0.00000000e+00, 0.00000000e+00, -1.07190278e+00, 1.37266922e+00, 1.19745823e+00, 4.37385208e+00, 0.00000000e+00, 5.0000000000, 5.0000000000, 0.0408995833
          37, 0.00000000e+00, 0.00000000e+00, 0.00000000e+00, 0.00000000e+00, 0.00000000e+00, 0.00000000e+00, 0.00000000e+00, 0.00000000e+00, 0.00000000e+00, 0.00000000e+00, 0.00000000e+00, 0.00000000e+00, -1.07909219e+00, 1.35339510e+00, 1.19106534e+00, 4.36511788e+00, 0.00000000e+00, 5.0000000000, 5.0000000000, 0.0420179333
          38, 0.00000000e+00, 0.00000000e+00, 0.00000000e+00, 0.00000000e+00, 0.00000000e+00, 0.00000000e+00, 0.00000000e+00, 0.00000000e+00, 0.00000000e+00, 0.00000000e+00, 0.00000000e+00, 0.00000000e+00, -1.08511396e+00, 1.33712642e+00, 1.18457848e+00, 4.35769472e+00, 0.00000000e+00, 5.0000000000, 5.0000000000, 0.0431585500
          39, 0.00000000e+00, 0.00000000e+00, 0.00000000e+00, 0.00000000e+00, 0.00000000e+00, 0.00000000e+00, 0.00000000e+00, 0.00000000e+00, 0.00000000e+00, 0.00000000e+00, 0.00000000e+00, 0.00000000e+00, -1.09005601e+00, 1.32356993e+00, 1.17799661e+00, 4.35144221e+00, 0.00000000e+00, 5.0000000000, 5.0000000000, 0.0442272833
          40, 0.00000000e+00, 0.00000000e+00, 0.00000000e+00, 0.00000000e+00, 0.00000000e+00, 0.00000000e+00, 0.00000000e+00, 0.00000000e+00, 0.00000000e+00, 0.00000000e+00, 0.00000000e+00, 0.00000000e+00, -1.09411365e+00, 1.31227734e+00, 1.17126866e+00, 4.34613734e+00, 0.00000000e+00, 5.0000000000, 5.0000000000, 0.0452768333
          41, 0.00000000e+00, 0.00000000e+00, 0.00000000e+00, 0.00000000e+00, 0.00000000e+00, 0.00000000e+00, 0.00000000e+00, 0.00000000e+00, 0.00000000e+00, 0.00000000e+00, 0.00000000e+00, 0.00000000e+00, -1.09755112e+00, 1.30273162e+00, 1.16428749e+00, 4.34151422e+00, 0.00000000e+00, 5.0000000000, 5.0000000000, 0.0464100167
          42, 0.00000000e+00, 0.00000000e+00, 0.00000000e+00, 0.00000000e+00, 0.00000000e+00, 0.00000000e+00, 0.00000000e+00, 0.00000000e+00, 0.00000000e+00, 0.00000000e+00, 0.00000000e+00, 0.00000000e+00, -1.10066957e+00, 1.29441837e+00, 1.15690853e+00, 4.33729409e+00, 0.00000000e+00, 5.0000000000, 5.0000000000, 0.0474139667
          43, 0.00000000e+00, 0.00000000e+00, 0.00000000e+00, 0.00000000e+00, 0.00000000e+00, 0.00000000e+00, 0.00000000e+00, 0.00000000e+00, 0.00000000e+00, 0.00000000e+00, 0.00000000e+00, 0.00000000e+00, -1.10378692e+00, 1.28687676e+00, 1.14898072e+00, 4.33320305e+00, 0.00000000e+00, 5.0000000000, 5.0000000000, 0.0485035500
          44, 0.00000000e+00, 0.00000000e+00, 0.00000000e+00, 0.00000000e+00, 0.00000000e+00, 0.00000000e+00, 0.00000000e+00, 0.00000000e+00, 0.00000000e+00, 0.00000000e+00, 0.00000000e+00, 0.00000000e+00, -1.10723731e+00, 1.27972134e+00, 1.14036638e+00, 4.32896639e+00, 0.00000000e+00, 5.0000000000, 5.0000000000, 0.0495553667
          45, 0.00000000e+00, 0.00000000e+00, 0.00000000e+00, 0.00000000e+00, 0.00000000e+00, 0.00000000e+00, 0.00000000e+00, 0.00000000e+00, 0.00000000e+00, 0.00000000e+00, 0.00000000e+00, 0.00000000e+00, -1.11137453e+00, 1.27265438e+00, 1.13100338e+00, 4.32431370e+00, 0.00000000e+00, 5.0000000000, 5.0000000000, 0.0506344000
          46, 0.00000000e+00, 0.00000000e+00, 0.00000000e+00, 0.00000000e+00, 0.00000000e+00, 0.00000000e+00, 0.00000000e+00, 0.00000000e+00, 0.00000000e+00, 0.00000000e+00, 0.00000000e+00, 0.00000000e+00, -1.11657840e+00, 1.26547197e+00, 1.12095702e+00, 4.31897528e+00, 0.00000000e+00, 5.0000000000, 5.0000000000, 0.0516776667
          47, 0.00000000e+00, 0.00000000e+00, 0.00000000e+00, 0.00000000e+00, 0.00000000e+00, 0.00000000e+00, 0.00000000e+00, 0.00000000e+00, 0.00000000e+00, 0.00000000e+00, 0.00000000e+00, 0.00000000e+00, -1.12325475e+00, 1.25806446e+00, 1.11041625e+00, 4.31267552e+00, 0.00000000e+00, 5.0000000000, 5.0000000000, 0.0527680167
          48, 0.00000000e+00, 0.00000000e+00, 0.00000000e+00, 0.00000000e+00, 0.00000000e+00, 0.00000000e+00, 0.00000000e+00, 0.00000000e+00, 0.00000000e+00, 0.00000000e+00, 0.00000000e+00, 0.00000000e+00, -1.13178166e+00, 1.25043783e+00, 1.09974225e+00, 4.30518591e+00, 0.00000000e+00, 5.0000000000, 5.0000000000, 0.0539000000
          49, 0.00000000e+00, 0.00000000e+00, 0.00000000e+00, 0.00000000e+00, 0.00000000e+00, 0.00000000e+00, 0.00000000e+00, 0.00000000e+00, 0.00000000e+00, 0.00000000e+00, 0.00000000e+00, 0.00000000e+00, -1.14241276e+00, 1.24275322e+00, 1.08947548e+00, 4.29641043e+00, 0.00000000e+00, 5.0000000000, 5.0000000000, 0.0549263167
          50, 0.00000000e+00, 0.00000000e+00, 0.00000000e+00, 0.00000000e+00, 0.00000000e+00, 0.00000000e+00, 0.00000000e+00, 0.00000000e+00, 0.00000000e+00, 0.00000000e+00, 0.00000000e+00, 0.00000000e+00, -1.15514023e+00, 1.23537576e+00, 1.08029595e+00, 4.28650032e+00, 0.00000000e+00, 5.0000000000, 5.0000000000, 0.0560705167
          51, 0.00000000e+00, 0.00000000e+00, 0.00000000e+00, 0.00000000e+00, 0.00000000e+00, 0.00000000e+00, 0.00000000e+00, 0.00000000e+00, 0.00000000e+00, 0.00000000e+00, 0.00000000e+00, 0.00000000e+00, -1.16955134e+00, 1.22888798e+00, 1.07290478e+00, 4.27595838e+00, 0.00000000e+00, 5.0000000000, 5.0000000000, 0.0571040833
          52, 0.00000000e+00, 0.00000000e+00, 0.00000000e+00, 0.00000000e+00, 0.00000000e+00, 0.00000000e+00, 0.00000000e+00, 0.00000000e+00, 0.00000000e+00, 0.00000000e+00, 0.00000000e+00, 0.00000000e+00, -1.18474675e+00, 1.22400316e+00, 1.06785046e+00, 4.26566288e+00, 0.00000000e+00, 5.0000000000, 5.0000000000, 0.0581085500
          53, 0.00000000e+00, 0.00000000e+00, 0.00000000e+00, 0.00000000e+00, 0.00000000e+00, 0.00000000e+00, 0.00000000e+00, 0.00000000e+00, 0.00000000e+00, 0.00000000e+00, 0.00000000e+00, 0.00000000e+00, -1.19941957e+00, 1.22133843e+00, 1.06535606e+00, 4.25672429e+00, 0.00000000e+00, 5.0000000000, 5.0000000000, 0.0591823333
          54, 0.00000000e+00, 0.00000000e+00, 0.00000000e+00, 0.00000000e+00, 0.00000000e+00, 0.00000000e+00, 0.00000000e+00, 0.00000000e+00, 0.00000000e+00, 0.00000000e+00, 0.00000000e+00, 0.00000000e+00, -1.21216032e+00, 1.22110805e+00, 1.06521870e+00, 4.25015226e+00, 0.00000000e+00, 5.0000000000, 5.0000000000, 0.0602831667
          55, 0.00000000e+00, 0.00000000e+00, 0.00000000e+00, 0.00000000e+00, 0.00000000e+00, 0.00000000e+00, 0.00000000e+00, 0.00000000e+00, 0.00000000e+00, 0.00000000e+00, 0.00000000e+00, 0.00000000e+00, -1.22190187e+00, 1.22293818e+00, 1.06685989e+00, 4.24647817e+00, 0.00000000e+00, 5.0000000000, 5.0000000000, 0.0613608833
          56, 0.00000000e+00, 0.00000000e+00, 0.00000000e+00, 0.00000000e+00, 0.00000000e+00, 0.00000000e+00, 0.00000000e+00, 0.00000000e+00, 0.00000000e+00, 0.00000000e+00, 0.00000000e+00, 0.00000000e+00, -1.22827853e+00, 1.22594685e+00, 1.06949770e+00, 4.24555632e+00, 0.00000000e+00, 5.0000000000, 5.0000000000, 0.0625259167
          57, 0.00000000e+00, 0.00000000e+00, 0.00000000e+00, 0.00000000e+00, 0.00000000e+00, 0.00000000e+00, 0.00000000e+00, 0.00000000e+00, 0.00000000e+00, 0.00000000e+00, 0.00000000e+00, 0.00000000e+00, -1.23167436e+00, 1.22904874e+00, 1.07235204e+00, 4.24667464e+00, 0.00000000e+00, 5.0000000000, 5.0000000000, 0.0636278000
          58, 0.00000000e+00, 0.00000000e+00, 0.00000000e+00, 0.00000000e+00, 0.00000000e+00, 0.00000000e+00, 0.00000000e+00, 0.00000000e+00, 0.00000000e+00, 0.00000000e+00, 0.00000000e+00, 0.00000000e+00, -1.23295229e+00, 1.23130262e+00, 1.07479931e+00, 4.24888065e+00, 0.00000000e+00, 5.0000000000, 5.0000000000, 0.0647377167
          59, 0.00000000e+00, 0.00000000e+00, 0.00000000e+00, 0.00000000e+00, 0.00000000e+00, 0.00000000e+00, 0.00000000e+00, 0.00000000e+00, 0.00000000e+00, 0.00000000e+00, 0.00000000e+00, 0.00000000e+00, -1.23306767e+00, 1.23212920e+00, 1.07644038e+00, 4.25131592e+00, 0.00000000e+00, 5.0000000000, 5.0000000000, 0.0658171667
          60, 0.00000000e+00, 0.00000000e+00, 0.00000000e+00, 0.00000000e+00, 0.00000000e+00, 0.00000000e+00, 0.00000000e+00, 0.00000000e+00, 0.00000000e+00, 0.00000000e+00, 0.00000000e+00, 0.00000000e+00, -1.23279341e+00, 1.23136497e+00, 1.07709290e+00, 4.25339492e+00, 0.00000000e+00, 5.0000000000, 5.0000000000, 0.0669818333
          61, 0.00000000e+00, 0.00000000e+00, 0.00000000e+00, 0.00000000e+00, 0.00000000e+00, 0.00000000e+00, 0.00000000e+00, 0.00000000e+00, 0.00000000e+00, 0.00000000e+00, 0.00000000e+00, 0.00000000e+00, -1.23262970e+00, 1.22919929e+00, 1.07673891e+00, 4.25481618e+00, 0.00000000e+00, 5.0000000000, 5.0000000000, 0.0681094667
          62, 0.00000000e+00, 0.00000000e+00, 0.00000000e+00, 0.00000000e+00, 0.00000000e+00, 0.00000000e+00, 0.00000000e+00, 0.00000000e+00, 0.00000000e+00, 0.00000000e+00, 0.00000000e+00, 0.00000000e+00, -1.23283862e+00, 1.22604652e+00, 1.07545709e+00, 4.25548673e+00, 0.00000000e+00, 5.0000000000, 5.0000000000, 0.0691745667
          63, 0.00000000e+00, 0.00000000e+00, 0.00000000e+00, 0.00000000e+00, 0.00000000e+00, 0.00000000e+00, 0.00000000e+00, 0.00000000e+00, 0.00000000e+00, 0.00000000e+00, 0.00000000e+00, 0.00000000e+00, -1.23353146e+00, 1.22241824e+00, 1.07336643e+00, 4.25542202e+00, 0.00000000e+00, 5.0000000000, 5.0000000000, 0.0702775333
          64, 0.00000000e+00, 0.00000000e+00, 0.00000000e+00, 0.00000000e+00, 0.00000000e+00, 0.00000000e+00, 0.00000000e+00, 0.00000000e+00, 0.00000000e+00, 0.00000000e+00, 0.00000000e+00, 0.00000000e+00, -1.23475072e+00, 1.21881875e+00, 1.07058651e+00, 4.25466651e+00, 0.00000000e+00, 5.0000000000, 5.0000000000, 0.0713759000
          65, 0.00000000e+00, 0.00000000e+00, 0.00000000e+00, 0.00000000e+00, 0.00000000e+00, 0.00000000e+00, 0.00000000e+00, 0.00000000e+00, 0.00000000e+00, 0.00000000e+00, 0.00000000e+00, 0.00000000e+00, -1.23651939e+00, 1.21567110e+00, 1.06721780e+00, 4.25325222e+00, 0.00000000e+00, 5.0000000000, 5.0000000000, 0.0723438333
          66, 0.00000000e+00, 0.00000000e+00, 0.00000000e+00, 0.00000000e+00, 0.00000000e+00, 0.00000000e+00, 0.00000000e+00, 0.00000000e+00, 0.00000000e+00, 0.00000000e+00, 0.00000000e+00, 0.00000000e+00, -1.23885528e+00, 1.21327072e+00, 1.06333772e+00, 4.25119224e+00, 0.00000000e+00, 5.0000000000, 5.0000000000, 0.0735203167
          67, 0.00000000e+00, 0.00000000e+00, 0.00000000e+00, 0.00000000e+00, 0.00000000e+00, 0.00000000e+00, 0.00000000e+00, 0.00000000e+00, 0.00000000e+00, 0.00000000e+00, 0.00000000e+00, 0.00000000e+00, -1.24176023e+00, 1.21175992e+00, 1.05900707e+00, 4.24849821e+00, 0.00000000e+00, 5.0000000000, 5.0000000000, 0.0745675667
          68, 0.00000000e+00, 0.00000000e+00, 0.00000000e+00, 0.00000000e+00, 0.00000000e+00, 0.00000000e+00, 0.00000000e+00, 0.00000000e+00, 0.00000000e+00, 0.00000000e+00, 0.00000000e+00, 0.00000000e+00, -1.24519724e+00, 1.21112071e+00, 1.05428112e+00, 4.24520798e+00, 0.00000000e+00, 5.0000000000, 5.0000000000, 0.0756987833
          69, 0.00000000e+00, 0.00000000e+00, 0.00000000e+00, 0.00000000e+00, 0.00000000e+00, 0.00000000e+00, 0.00000000e+00, 0.00000000e+00, 0.00000000e+00, 0.00000000e+00, 0.00000000e+00, 0.00000000e+00, -1.24906899e+00, 1.21118474e+00, 1.04922011e+00, 4.24141113e+00, 0.00000000e+00, 5.0000000000, 5.0000000000, 0.0767752000
          70, 0.00000000e+00, 0.00000000e+00, 0.00000000e+00, 0.00000000e+00, 0.00000000e+00, 0.00000000e+00, 0.00000000e+00, 0.00000000e+00, 0.00000000e+00, 0.00000000e+00, 0.00000000e+00, 0.00000000e+00, -1.25320665e+00, 1.21166029e+00, 1.04389465e+00, 4.23726357e+00, 0.00000000e+00, 5.0000000000, 5.0000000000, 0.0778353167
          71, 0.00000000e+00, 0.00000000e+00, 0.00000000e+00, 0.00000000e+00, 0.00000000e+00, 0.00000000e+00, 0.00000000e+00, 0.00000000e+00, 0.00000000e+00, 0.00000000e+00, 0.00000000e+00, 0.00000000e+00, -1.25737417e+00, 1.21217277e+00, 1.03838453e+00, 4.23298701e+00, 0.00000000e+00, 5.0000000000, 5.0000000000, 0.0789536667
          72, 0.00000000e+00, 0.00000000e+00, 0.00000000e+00, 0.00000000e+00, 0.00000000e+00, 0.00000000e+00, 0.00000000e+00, 0.00000000e+00, 0.00000000e+00, 0.00000000e+00, 0.00000000e+00, 0.00000000e+00, -1.26128878e+00, 1.21231169e+00, 1.03277135e+00, 4.22885238e+00, 0.00000000e+00, 5.0000000000, 5.0000000000, 0.0800552833
          73, 0.00000000e+00, 0.00000000e+00, 0.00000000e+00, 0.00000000e+00, 0.00000000e+00, 0.00000000e+00, 0.00000000e+00, 0.00000000e+00, 0.00000000e+00, 0.00000000e+00, 0.00000000e+00, 0.00000000e+00, -1.26465476e+00, 1.21167476e+00, 1.02712601e+00, 4.22514970e+00, 0.00000000e+00, 5.0000000000, 5.0000000000, 0.0811760833
          74, 0.00000000e+00, 0.00000000e+00, 0.00000000e+00, 0.00000000e+00, 0.00000000e+00, 0.00000000e+00, 0.00000000e+00, 0.00000000e+00, 0.00000000e+00, 0.00000000e+00, 0.00000000e+00, 0.00000000e+00, -1.26720318e+00, 1.20990060e+00, 1.02149481e+00, 4.22215092e+00, 0.00000000e+00, 5.0000000000, 5.0000000000, 0.0822218500
          75, 0.00000000e+00, 0.00000000e+00, 0.00000000e+00, 0.00000000e+00, 0.00000000e+00, 0.00000000e+00, 0.00000000e+00, 0.00000000e+00, 0.00000000e+00, 0.00000000e+00, 0.00000000e+00, 0.00000000e+00, -1.26872786e+00, 1.20668546e+00, 1.01588859e+00, 4.22007505e+00, 0.00000000e+00, 5.0000000000, 5.0000000000, 0.0832697167
          76, 0.00000000e+00, 0.00000000e+00, 0.00000000e+00, 0.00000000e+00, 0.00000000e+00, 0.00000000e+00, 0.00000000e+00, 0.00000000e+00, 0.00000000e+00, 0.00000000e+00, 0.00000000e+00, 0.00000000e+00, -1.26910867e+00, 1.20178308e+00, 1.01027795e+00, 4.21906382e+00, 0.00000000e+00, 5.0000000000, 5.0000000000, 0.0843828333
          77, 0.00000000e+00, 0.00000000e+00, 0.00000000e+00, 0.00000000e+00, 0.00000000e+00, 0.00000000e+00, 0.00000000e+00, 0.00000000e+00, 0.00000000e+00, 0.00000000e+00, 0.00000000e+00, 0.00000000e+00, -1.26831803e+00, 1.19499100e+00, 1.00459596e+00, 4.21917293e+00, 0.00000000e+00, 5.0000000000, 5.0000000000, 0.0854685333
          78, 0.00000000e+00, 0.00000000e+00, 0.00000000e+00, 0.00000000e+00, 0.00000000e+00, 0.00000000e+00, 0.00000000e+00, 0.00000000e+00, 0.00000000e+00, 0.00000000e+00, 0.00000000e+00, 0.00000000e+00, -1.26641267e+00, 1.18612898e+00, 9.98747425e-01, 4.22037748e+00, 0.00000000e+00, 5.0000000000, 5.0000000000, 0.0865431667
          79, 0.00000000e+00, 0.00000000e+00, 0.00000000e+00, 0.00000000e+00, 0.00000000e+00, 0.00000000e+00, 0.00000000e+00, 0.00000000e+00, 0.00000000e+00, 0.00000000e+00, 0.00000000e+00, 0.00000000e+00, -1.26351771e+00, 1.17501650e+00, 9.92621587e-01, 4.22258555e+00, 0.00000000e+00, 5.0000000000, 5.0000000000, 0.0875910833
          80, 0.00000000e+00, 0.00000000e+00, 0.00000000e+00, 0.00000000e+00, 0.00000000e+00, 0.00000000e+00, 0.00000000e+00, 0.00000000e+00, 0.00000000e+00, 0.00000000e+00, 0.00000000e+00, 0.00000000e+00, -1.25981075e+00, 1.16145735e+00, 9.86105061e-01, 4.22565254e+00, 0.00000000e+00, 5.0000000000, 5.0000000000, 0.0886700500
          81, 0.00000000e+00, 0.00000000e+00, 0.00000000e+00, 0.00000000e+00, 0.00000000e+00, 0.00000000e+00, 0.00000000e+00, 0.00000000e+00, 0.00000000e+00, 0.00000000e+00, 0.00000000e+00, 0.00000000e+00, -1.25551085e+00, 1.14523829e+00, 9.79092374e-01, 4.22939098e+00, 0.00000000e+00, 5.0000000000, 5.0000000000, 0.0897629833
          82, 0.00000000e+00, 0.00000000e+00, 0.00000000e+00, 0.00000000e+00, 0.00000000e+00, 0.00000000e+00, 0.00000000e+00, 0.00000000e+00, 0.00000000e+00, 0.00000000e+00, 0.00000000e+00, 0.00000000e+00, -1.25087206e+00, 1.12614998e+00, 9.71493197e-01, 4.23357582e+00, 0.00000000e+00, 5.0000000000, 5.0000000000, 0.0908662667
          83, 0.00000000e+00, 0.00000000e+00, 0.00000000e+00, 0.00000000e+00, 0.00000000e+00, 0.00000000e+00, 0.00000000e+00, 0.00000000e+00, 0.00000000e+00, 0.00000000e+00, 0.00000000e+00, 0.00000000e+00, -1.24617816e+00, 1.10404059e+00, 9.63236891e-01, 4.23794826e+00, 0.00000000e+00, 5.0000000000, 5.0000000000, 0.0919908333
          84, 0.00000000e+00, 0.00000000e+00, 0.00000000e+00, 0.00000000e+00, 0.00000000e+00, 0.00000000e+00, 0.00000000e+00, 0.00000000e+00, 0.00000000e+00, 0.00000000e+00, 0.00000000e+00, 0.00000000e+00, -1.24173381e+00, 1.07891838e+00, 9.54277543e-01, 4.24222301e+00, 0.00000000e+00, 5.0000000000, 5.0000000000, 0.0931218000
          85, 0.00000000e+00, 0.00000000e+00, 0.00000000e+00, 0.00000000e+00, 0.00000000e+00, 0.00000000e+00, 0.00000000e+00, 0.00000000e+00, 0.00000000e+00, 0.00000000e+00, 0.00000000e+00, 0.00000000e+00, -1.23784977e+00, 1.05112868e+00, 9.44599027e-01, 4.24610148e+00, 0.00000000e+00, 5.0000000000, 5.0000000000, 0.0942205667
          86, 0.00000000e+00, 0.00000000e+00, 0.00000000e+00, 0.00000000e+00, 0.00000000e+00, 0.00000000e+00, 0.00000000e+00, 0.00000000e+00, 0.00000000e+00, 0.00000000e+00, 0.00000000e+00, 0.00000000e+00, -1.23482177e+00, 1.02163576e+00, 9.34221137e-01, 4.24929176e+00, 0.00000000e+00, 5.0000000000, 5.0000000000, 0.0953014667
          87, 0.00000000e+00, 0.00000000e+00, 0.00000000e+00, 0.00000000e+00, 0.00000000e+00, 0.00000000e+00, 0.00000000e+00, 0.00000000e+00, 0.00000000e+00, 0.00000000e+00, 0.00000000e+00, 0.00000000e+00, -1.23290574e+00, 9.92413662e-01, 9.23208720e-01, 4.25153300e+00, 0.00000000e+00, 5.0000000000, 5.0000000000, 0.0964045500
          88, 0.00000000e+00, 0.00000000e+00, 0.00000000e+00, 0.00000000e+00, 0.00000000e+00, 0.00000000e+00, 0.00000000e+00, 0.00000000e+00, 0.00000000e+00, 0.00000000e+00, 0.00000000e+00, 0.00000000e+00, -1.23229333e+00, 9.66818033e-01, 9.11680059e-01, 4.25262015e+00, 0.00000000e+00, 5.0000000000, 5.0000000000, 0.0973950000
          89, 0.00000000e+00, 0.00000000e+00, 0.00000000e+00, 0.00000000e+00, 0.00000000e+00, 0.00000000e+00, 0.00000000e+00, 0.00000000e+00, 0.00000000e+00, 0.00000000e+00, 0.00000000e+00, 0.00000000e+00, -1.23309194e+00, 9.49508506e-01, 8.99811139e-01, 4.25242461e+00, 0.00000000e+00, 5.0000000000, 5.0000000000, 0.0985371000