 VARIABLES = "X",  "Y"
 ZONE N=        1720 , E=        3288 , F=FEPOINT, ET=QUADRILATERAL
        3.0000000000       -1.2500000000
        1.0000000000       -1.2500000000
        3.0000000000        1.2500000000
        1.0000000000        1.2500000000
        2.9393939394       -1.2500000000
        2.8787878788       -1.2500000000
        2.8181818182       -1.2500000000
        2.7575757576       -1.2500000000
        2.6969696970       -1.2500000000
        2.6363636364       -1.2500000000
        2.5757575758       -1.2500000000
        2.5151515152       -1.2500000000
        2.4545454545       -1.2500000000
        2.3939393939       -1.2500000000
        2.3333333333       -1.2500000000
        2.2727272727       -1.2500000000
        2.2121212121       -1.2500000000
        2.1515151515       -1.2500000000
        2.0909090909       -1.2500000000
        2.0303030303       -1.2500000000
        1.9696969697       -1.2500000000
        1.9090909091       -1.2500000000
        1.8484848485       -1.2500000000
        1.7878787879       -1.2500000000
        1.7272727273       -1.2500000000
        1.6666666667       -1.2500000000
        1.6060606061       -1.2500000000
        1.5454545455       -1.2500000000
        1.4848484848       -1.2500000000
        1.4242424242       -1.2500000000
        1.3636363636       -1.2500000000
        1.3030303030       -1.2500000000
        1.2424242424       -1.2500000000
        1.1818181818       -1.2500000000
        1.1212121212       -1.2500000000
        1.0606060606       -1.2500000000
        3.0000000000        1.1904761905
        3.0000000000        1.1309523810
        3.0000000000        1.0714285714
        3.0000000000        1.0119047619
        3.0000000000        0.9523809524
        3.0000000000        0.8928571429
        3.0000000000        0.8333333333
        3.0000000000        0.7738095238
        3.0000000000        0.7142857143
        3.0000000000        0.6547619048
        3.0000000000        0.5952380952
        3.0000000000        0.5357142857
        3.0000000000        0.4761904762
        3.0000000000        0.4166666667
        3.0000000000        0.3571428571
        3.0000000000        0.2976190476
        3.0000000000        0.2380952381
        3.0000000000        0.1785714286
        3.0000000000        0.1190476190
        3.0000000000        0.0595238095
        3.0000000000       -0.0000000000
        3.0000000000       -0.0595238095
        3.0000000000       -0.1190476190
        3.0000000000       -0.1785714286
        3.0000000000       -0.2380952381
        3.0000000000       -0.2976190476
        3.0000000000       -0.3571428571
        3.0000000000       -0.4166666667
        3.0000000000       -0.4761904762
        3.0000000000       -0.5357142857
        3.0000000000       -0.5952380952
        3.0000000000       -0.6547619048
        3.0000000000       -0.7142857143
        3.0000000000       -0.7738095238
        3.0000000000       -0.8333333333
        3.0000000000       -0.8928571429
        3.0000000000       -0.9523809524
        3.0000000000       -1.0119047619
        3.0000000000       -1.0714285714
        3.0000000000       -1.1309523810
        3.0000000000       -1.1904761905
        1.0606060606        1.2500000000
        1.1212121212        1.2500000000
        1.1818181818        1.2500000000
        1.2424242424        1.2500000000
        1.3030303030        1.2500000000
        1.3636363636        1.2500000000
        1.4242424242        1.2500000000
        1.4848484848        1.2500000000
        1.5454545455        1.2500000000
        1.6060606061        1.2500000000
        1.6666666667        1.2500000000
        1.7272727273        1.2500000000
        1.7878787879        1.2500000000
        1.8484848485        1.2500000000
        1.9090909091        1.2500000000
        1.9696969697        1.2500000000
        2.0303030303        1.2500000000
        2.0909090909        1.2500000000
        2.1515151515        1.2500000000
        2.2121212121        1.2500000000
        2.2727272727        1.2500000000
        2.3333333333        1.2500000000
        2.3939393939        1.2500000000
        2.4545454545        1.2500000000
        2.5151515152        1.2500000000
        2.5757575758        1.2500000000
        2.6363636364        1.2500000000
        2.6969696970        1.2500000000
        2.7575757576        1.2500000000
        2.8181818182        1.2500000000
        2.8787878788        1.2500000000
        2.9393939394        1.2500000000
        1.0000000000       -1.1904761905
        1.0000000000       -1.1309523810
        1.0000000000       -1.0714285714
        1.0000000000       -1.0119047619
        1.0000000000       -0.9523809524
        1.0000000000       -0.8928571429
        1.0000000000       -0.8333333333
        1.0000000000       -0.7738095238
        1.0000000000       -0.7142857143
        1.0000000000       -0.6547619048
        1.0000000000       -0.5952380952
        1.0000000000       -0.5357142857
        1.0000000000       -0.4761904762
        1.0000000000       -0.4166666667
        1.0000000000       -0.3571428571
        1.0000000000       -0.2976190476
        1.0000000000       -0.2380952381
        1.0000000000       -0.1785714286
        1.0000000000       -0.1190476190
        1.0000000000       -0.0595238095
        1.0000000000        0.0000000000
        1.0000000000        0.0595238095
        1.0000000000        0.1190476190
        1.0000000000        0.1785714286
        1.0000000000        0.2380952381
        1.0000000000        0.2976190476
        1.0000000000        0.3571428571
        1.0000000000        0.4166666667
        1.0000000000        0.4761904762
        1.0000000000        0.5357142857
        1.0000000000        0.5952380952
        1.0000000000        0.6547619048
        1.0000000000        0.7142857143
        1.0000000000        0.7738095238
        1.0000000000        0.8333333333
        1.0000000000        0.8928571429
        1.0000000000        0.9523809524
        1.0000000000        1.0119047619
        1.0000000000        1.0714285714
        1.0000000000        1.1309523810
        1.0000000000        1.1904761905
        1.1480086384       -1.2067835900
        2.8996538102        0.2979342640
        1.0365187813       -0.6389016408
        2.2408724956        0.3810515101
        2.8430259968        1.2072291888
        2.9326503953       -1.1098958112
        2.9344878738       -1.1720377337
        2.8793550346       -1.2029636945
        2.8813012672       -1.1432540124
        2.1439457150       -0.0300063986
        2.9013271115        0.0018200271
        2.8508472632       -0.0270889573
        2.9011752619       -0.0568816498
        2.1527763345       -1.2097043281
        2.1022531097       -1.1803984133
        2.8922530171        1.1906596377
        2.0974034743       -0.4112230874
        2.9333006570       -0.9869917404
        2.9328661639       -1.0481288116
        2.9335005763       -0.9263777037
        2.9334637706       -0.8662364135
        2.8826758547       -1.0823393500
        2.8837459804       -1.0206362893
        2.8843932577       -0.9591871218
        2.8846506687       -0.8983518919
        2.2466615827       -0.1460213718
        2.1956252239       -0.1172952543
        2.8014935066       -0.1137673623
        2.8511678786       -0.0852438922
        2.9016591457       -0.1156023074
        1.4216470544        1.2056652218
        2.7669416119       -1.2051893638
        2.8260958098       -1.1754003782
        2.3410104883        0.4993019801
        2.1368785584        0.6142633491
        2.1879168700        0.5855033804
        2.2389535751        0.5567595221
        2.2899857862        0.5280266837
        2.2906225789        0.4694577619
        2.2912585231        0.4108930681
        2.2918953270        0.3523287442
        2.3429092804        0.3236065571
        2.3422743946        0.3821723586
        2.3369882319        0.8523525479
        2.3377312165        0.7929187326
        2.2873503853        0.7628553333
        2.2866152512        0.8221074897
        2.2858091499        0.8818725692
        2.3361837792        0.9123261222
        2.3332923127        1.2096515010
        2.3866196836        0.9428609242
        2.7353881799        1.2059945969
        2.2347280952        1.2031876335
        2.2828225330        1.1802984072
        2.4370773628        0.9734999646
        2.3858486000        1.0033357724
        2.3353271511        0.9727701562
        2.2849165267        0.9422113946
        2.2839527502        1.0028840549
        2.0845313075        0.7607972864
        2.1375241777        0.5556508227
        2.0864871768        0.5843987197
        2.0858419453        0.6430472162
        2.1362260983        0.6729515962
        2.1355594431        0.7317982450
        2.3881264166        0.8230573296
        2.3888217757        0.7638876913
        2.3384263072        0.7338949196
        2.2880382405        0.7039481047
        2.2369771430        0.7328473441
        2.1859150959        0.7618372637
        2.1348684803        0.7909310468
        2.2362630283        0.7919386319
        2.1851836343        0.8211591330
        2.1341473266        0.8504958093
        2.0831842383        0.8799032851
        2.2354875284        0.8514800681
        2.1843966808        0.8810084029
        2.2346293587        0.9116126592
        2.1835563693        0.9414517177
        2.1334107696        0.9105755881
        2.2336761648        0.9722964410
        2.1826705360        1.0023591150
        2.1327073849        0.9710870764
        2.0820354341        1.0001912267
        2.1320762315        1.0317640309
        2.0798303619        1.1189243781
        2.1303107220        1.1524960713
        2.1805961241        1.1867513705
        2.3344777029        1.0332418083
        2.6879061190        1.1827237878
        2.6371428411        1.2109252960
        2.1313625871        1.0922569930
        2.1806214944        1.1248674409
        2.2306213517        1.1509057967
        2.4363928831        1.0339669206
        2.1816975677        1.0634632702
        2.2326208499        1.0331456878
        2.1943387761       -0.0001689911
        2.2447276894        0.0296682811
        2.1936954297        0.0583941994
        2.2314844868        1.0933019833
        2.2830227089        1.0632251524
        2.5391165221        1.2046124526
        2.3851415633        1.0635086539
        2.3964762215        0.0606110243
        2.4481142758       -0.0267045432
        2.3971286623        0.0020434504
        2.3454771552        0.0893422134
        2.3461254143        0.0307771932
        2.1949820497       -0.0587321392
        2.2453723237       -0.0288950287
        2.2957553296        0.0009415650
        2.2824938733        1.1223648480
        2.3337635028        1.0929966142
        2.6379873034        1.1532018491
        2.5871529272        1.1818198701
        2.6058080837       -0.3472898514
        1.9901908306        0.1147334636
        2.0412286996        0.0860079054
        2.0418708215        0.0274447975
        2.0929085077       -0.0012807804
        2.2951087348        0.0595053607
        2.2440831521        0.0882316941
        2.1433031030        0.0285567213
        2.0922662256        0.0572823312
        2.1426604496        0.0871198713
        2.1930521128        0.1169574737
        2.2944628810        0.1180693589
        2.2434389512        0.1467953080
        2.1924090241        0.1755208847
        2.1420178358        0.1456830755
        2.0916239344        0.1158454616
        1.9487329529       -0.7353008672
        2.2460169590       -0.0874582561
        2.2964024569       -0.0576220679
        2.3467757460       -0.0277876002
        1.9474921388       -0.6179060483
        2.7990952474        0.2390085177
        2.9281023194       -0.4536698514
        2.8789872297       -0.4858857294
        2.8283232801       -0.5169306398
        2.9300616306       -0.5111915320
        2.8813937451       -0.5431288388
        2.8519058738       -0.1437393242
        2.3448312299        0.1479075081
        2.6677852852       -1.1999131296
        2.7187617563       -1.1751787700
        2.7746869639       -1.1456698058
        2.8298464932       -1.1151869738
        2.7778834666       -1.0857070862
        2.7231005065       -1.1160174779
        2.6690249285       -1.1439845849
        2.6184699129       -1.1766351103
        2.9312106087       -0.5696275600
        2.8827336650       -0.6013292704
        2.8305563602       -0.5744952196
        2.2395944612        0.4981829144
        2.1885607271        0.5269133462
        2.2925340692        0.2937638430
        2.2402335932        0.4396158605
        2.1898427121        0.4097756985
        2.1904833457        0.3512117225
        2.2938181644        0.1766337552
        2.2427954692        0.2053592157
        2.2415121572        0.3224875127
        2.2421531190        0.2639233613
        2.1911245129        0.2926480684
        2.1400914244        0.3213730761
        2.1394499319        0.3799367209
        2.1892021251        0.4683414222
        2.1388085564        0.4385014778
        2.0884139343        0.4086625403
        2.0890556823        0.3500984560
        2.0954772586       -0.2355331757
        1.0593619536        1.1705782214
        1.1142114499        1.2020860644
        1.8983167566       -0.7653020194
        1.8473102916       -0.7364241495
        1.7962918136       -0.7076013327
        1.9468915992       -1.2041017999
        1.8977159783       -0.7064636741
        1.8466912706       -0.6776698308
        2.1445882530       -0.0885695040
        2.0941929573       -0.1184069811
        2.0437970926       -0.1482445037
        2.0935507538       -0.0598438828
        2.0431550214       -0.0896814045
        2.0311291413        1.1446084499
        2.0825511421        0.9400300051
        2.0322975672        0.9093878101
        2.0815803144        1.0599553179
        2.0313624382        1.0288348572
        2.0948351229       -0.1769700776
        2.1452307167       -0.1471325990
        2.1962683101       -0.1758583313
        2.1458731193       -0.2056956847
        2.1478000635       -0.3813852226
        2.0961193707       -0.2940962926
        2.1471577961       -0.3228218956
        2.1981972639       -0.3515475127
        2.1465154762       -0.2642587700
        2.1975543180       -0.2929844009
        2.1969113335       -0.2344213718
        2.2479509175       -0.2631472274
        2.0967614550       -0.3526595018
        2.0838587167        0.8201327359
        2.0335341983        0.7899005286
        2.9319955465       -0.6285186378
        2.9329602989       -0.7469730497
        2.9325507105       -0.6876589531
        2.8840857716       -0.7191244901
        2.9332663764       -0.8064726760
        2.8846316982       -0.8381565092
        2.8318455663       -1.0538533733
        2.8328877994       -0.9921553142
        2.8333648844       -0.9307792715
        2.8334798664       -0.8700842785
        2.5688721614       -1.2075197471
        2.5649223783       -1.1494203545
        2.6163554941       -1.1180623706
        2.6697906622       -1.0866337309
        2.7244671675       -1.0561287560
        2.7792198866       -1.0246269038
        2.7797768496       -0.9631999398
        2.7799252772       -0.9021439102
        2.7798255288       -0.8417811277
        2.8844317417       -0.7784646768
        2.8333624872       -0.8100775206
        2.0463652177       -0.3824971932
        2.0450811908       -0.2653707133
        2.0457232199       -0.3239338641
        1.9959690003       -0.4123350374
        1.9449308336       -0.3836092113
        1.9953270538       -0.3537714850
        1.9946850553       -0.2952082757
        1.9442888538       -0.3250458806
        1.9436468511       -0.2664827268
        1.8938924587       -0.3548836030
        1.8926084494       -0.2377572552
        1.8932504557       -0.2963203833
        1.8428534008       -0.3261582987
        1.0605020014        0.5083192258
        2.6678051250       -0.6672710533
        2.6136408975       -0.6978419593
        1.9493077993       -0.7942674756
        2.8835572584       -0.6600628123
        2.8318403626       -0.6327648574
        2.7773930564       -0.6055796697
        2.7784648149       -0.6640307001
        2.8326043865       -0.6915041010
        2.8330758892       -0.7505986753
        2.7791276922       -0.7228637644
        2.7235723532       -0.6951389212
        2.7795567071       -0.7820758768
        2.7241586249       -0.7541039101
        2.6685139163       -0.7260539393
        2.6142789934       -0.7567749280
        2.6148364595       -0.8161161380
        2.6690704481       -0.7851822102
        2.7245855087       -0.8134964650
        2.7248879703       -0.8734772897
        2.7250390204       -0.9341369728
        2.6695280935       -0.8448129459
        2.6698913258       -0.9050937567
        2.7249551393       -0.9952504769
        2.6701183789       -0.9659514427
        2.6157500325       -0.9366653831
        1.0601923246        0.5676262828
        2.6128743031       -0.6391676046
        2.6701234525       -1.0268310126
        2.0002780918       -0.8233549760
        1.9997394095       -0.7642053257
        2.6153313868       -0.8760520281
        1.8970920202       -0.6477762669
        1.8964570465       -0.5891628135
        1.8454201702       -0.5604272303
        1.9481216093       -0.6765485384
        1.9985250844       -0.6466628572
        1.2649129938        0.8101426946
        1.2641184409        0.9315159267
        1.2645058341        0.8704154056
        1.9991462734       -0.7053529091
        1.8441374402       -0.4432857959
        1.8945344258       -0.4134471944
        1.9502369939       -0.9133905438
        2.0007243886       -0.8829589663
        2.0512226503       -0.8525921594
        2.0507319393       -0.7932050533
        2.0501640569       -0.7342076631
        2.0495549513       -0.6754427386
        2.0489262021       -0.6167958047
        1.9978910941       -0.5880496801
        1.9468547454       -0.5593129087
        1.8958174870       -0.5305813053
        1.8951762342       -0.4720121161
        1.9455727196       -0.4421732136
        1.9462142697       -0.5007395140
        2.0470071105       -0.4410612048
        1.9966107579       -0.4708998351
        1.9972518829       -0.5294687154
        2.0482890457       -0.5582013169
        2.0515857082       -0.9125054368
        2.1021408824       -0.8819968740
        2.1017078289       -0.8223306022
        2.1011727140       -0.7631369252
        2.1005804376       -0.7042598438
        2.0999595031       -0.6455581408
        2.0993256161       -0.5869401806
        2.0476486444       -0.4996275765
        2.0986864329       -0.5283574806
        2.1497244198       -0.5570913660
        2.1503615991       -0.6156899921
        2.1509904096       -0.6743471384
        2.1516000575       -0.7331339475
        2.1521699203       -0.7921708438
        2.1526651252       -0.8516144501
        2.0980452856       -0.4697880414
        2.1490839138       -0.4985161546
        2.1530345167       -0.9115823897
        2.2036012288       -0.8810864512
        2.2031534446       -0.8213431337
        2.2026126792       -0.7620901012
        2.2020189622       -0.7031773100
        2.1484421948       -0.4399493349
        2.1994826566       -0.4686761754
        2.2001243696       -0.5272465036
        2.2013978545       -0.6444577291
        2.2007638769       -0.5858320737
        2.6160472063       -0.9976987127
        1.0592915185        0.7457224491
        1.0590195708        0.8052896095
        1.0587906931        0.8651025570
        1.0586417866        0.9252692668
        1.0591207022        1.1086233713
        2.0851914866        0.7018119475
        2.0348114939        0.6718656998
        2.6161803292       -1.0584299616
        2.5636950545       -1.0901379911
        1.8460587520       -0.6190231099
        2.0444391480       -0.2068076042
        1.9940430425       -0.2366451518
        2.0425129311       -0.0311183047
        1.9921169669       -0.0609558453
        1.9927589988       -0.1195189458
        1.9934010236       -0.1780820469
        1.9430048434       -0.2079196145
        1.9914749268       -0.0023927444
        1.9410788083       -0.0322303066
        1.9417208224       -0.0907934087
        1.9423628338       -0.1493565108
        1.8913244439       -0.1206310399
        1.8906824429       -0.0620679336
        1.8402854011       -0.0919057823
        1.7956601698       -0.6489015432
        2.0341718110        0.7307383489
        1.6807302689        0.5799299887
        1.6801006864        0.6385560273
        1.6794887127        0.6972752700
        1.6789141439        0.7561870871
        1.6784091807        0.8154417141
        1.6780146378        0.8752009519
        1.6777622333        0.9355239574
        1.6776407866        0.9962133815
        2.0317592135        0.9693958395
        2.0354521403        0.6131623356
        1.2930528185       -1.1322191086
        1.2934880703       -1.0730632253
        1.0433053706       -0.7483473370
        1.2439821697       -1.1047967426
        1.2420857493       -0.9812383473
        1.0406208877       -1.2091167905
        1.0499097327       -1.1578944991
        1.0483140714       -1.1010410416
        1.2383554494       -0.7426162856
        1.0918323203       -0.7665481492
        1.0399970273       -0.6903900986
        1.0877292785       -0.6605234595
        1.0904563931       -0.7145166552
        1.2435324621       -1.0431377606
        1.2431139791       -1.1663945530
        1.0937434843       -1.1918487258
        1.0956478580       -1.0712438717
        1.0954761635       -1.1328037163
        1.0497325297       -1.0413207436
        1.0605867498       -0.8131532353
        1.0368108334       -0.8675910938
        1.0454656020       -0.9241752540
        1.0464832496       -0.9824202555
        1.0944126631       -1.0124800674
        1.0920588011       -0.9503937668
        1.0861649568       -0.8914964972
        1.1927613413       -1.1925770494
        1.1449822499       -1.1603023304
        1.1951071003       -1.1337623479
        1.1457291284       -1.1023803428
        1.1948074953       -1.0734188322
        1.1448002920       -1.0421462471
        1.1934424832       -1.0118382437
        1.1785061925       -0.5999571308
        1.1845720252       -0.6562751003
        1.1382835327       -0.6855143241
        1.1430632856       -0.9807371152
        1.1911012577       -0.9499658206
        1.1885803700       -0.7135673783
        1.1411566830       -0.7415262810
        1.1360697449       -0.7973420233
        1.1396042262       -0.9191735871
        1.1358493588       -0.8580294825
        1.1885699875       -0.7715395263
        1.1874994339       -0.8298549287
        1.1882026713       -0.8888722366
        1.2388051467       -0.8599059635
        1.8434954392       -0.3847216578
        2.0329036496        0.8494580777
        2.0311723642        1.0867002563
        1.9809274375        1.0588795780
        1.9810502931        0.9992048101
        1.9814951372        0.9391087358
        1.9820198956        0.8789658834
        1.9825841252        0.8191407919
        1.9831778477        0.7597528063
        1.9837931298        0.7007323985
        1.9844220221        0.6419488776
        1.9850582857        0.5832917897
        2.1381669065        0.4970701821
        2.0871301103        0.5258032251
        2.0360933900        0.5545426771
        2.0877721631        0.4672290601
        2.0367349826        0.4959590979
        1.9826238584        1.1181242812
        1.9856980200        0.5246928214
        1.9863391938        0.4661173847
        1.9359430487        0.4362773163
        1.9353018085        0.4948474164
        1.9346621121        0.5534319952
        1.9340264799        0.6120547009
        1.9334003618        0.6707667046
        1.9327937643        0.7296619017
        1.9322214615        0.7888779556
        1.9316990898        0.8485535797
        1.9312359423        0.9087250448
        1.9308428711        0.9692175145
        1.9306169685        1.0296745537
        1.9335503276        1.1521352688
        1.9310335466        1.0898341926
        1.6775508634        1.0567939375
        1.6771906946        1.1168317518
        1.8807446085        1.1196275430
        1.8803213805        1.0602124652
        2.1216603982        1.2066862162
        2.0644476772        1.1946328552
        1.9975651582        1.1953397117
        1.9383977640        1.2108204456
        1.8807990005        1.1957580682
        1.8253947695        1.2053192153
        1.8261727655        1.1489354158
        1.8290556370        1.0895713872
        1.8296769018        1.0295231376
        1.8803408091        0.9995414424
        1.7262672261        1.2067554199
        1.7765762218        1.1778228639
        1.7267090526        1.1478220009
        1.7774958189        1.1192398720
        1.7277963823        1.0884161074
        1.7786939693        1.0591765359
        1.7283332533        1.0278813887
        1.7791564301        0.9984157489
        1.8299120645        0.9686527808
        1.8805628953        0.9386940635
        1.7285330392        0.9669499646
        1.7793579046        0.9374441817
        1.8301296602        0.9078058418
        1.8808893616        0.8781355633
        1.7287059341        0.9062076249
        1.7795850579        0.8768412165
        1.8304411770        0.8474608685
        1.8813111079        0.8181220351
        1.7289946881        0.8460162517
        1.7799354230        0.8168600476
        1.8308698447        0.7877357736
        1.8818192432        0.7586639898
        1.7294188101        0.7864292830
        1.7804068104        0.7574578994
        1.8313938361        0.7285211086
        1.8823905309        0.6996231195
        1.7299450548        0.7273098765
        1.7809623047        0.6984622260
        1.8319786754        0.6696377719
        1.8829996418        0.6408356600
        1.7305326867        0.6684805410
        1.7815654357        0.6397015886
        1.8325960400        0.6109347450
        1.8836279984        0.5821786722
        1.7311517051        0.6098036538
        1.7821917275        0.5810576516
        1.8332284838        0.5523167353
        1.8842649026        0.5235802396
        1.8338671184        0.4937341539
        1.7828279459        0.5224646659
        1.6754070461        1.1761652207
        1.4735561240        1.1753477275
        1.5733712693        1.2118727852
        1.6228152181        1.1987220772
        1.6263951202        1.1424677614
        1.5279148799        1.1988880452
        1.5746044812        1.1673583468
        1.5230309906        1.1421708865
        1.5747372446        1.1119696903
        1.6265657697        1.0845958288
        1.5278445420        0.6074823570
        1.5272193649        0.6661403236
        1.5265968868        0.7249218579
        1.5259777615        0.7839518948
        1.5253594830        0.8434046010
        1.5247324085        0.9034273733
        1.5240802484        0.9639597121
        1.5234047370        1.0245190915
        1.5749179372        1.0540300567
        1.6265443256        1.0251240576
        1.5752405595        0.9942922403
        1.6266643210        0.9648107243
        1.5756582771        0.9339489765
        1.6269363119        0.9044603774
        1.5761440409        0.8738037983
        1.6273397633        0.8445333710
        1.5766847340        0.8141563719
        1.6278435704        0.7851171380
        1.5772667530        0.7549725986
        1.6284134310        0.7260969985
        1.5778755697        0.6961007604
        1.6290208953        0.6673185441
        1.5784993204        0.6374004101
        1.6296471250        0.6086644024
        1.6302816685        0.5500659776
        1.2638019212        0.9931918232
        1.3105752687        1.2051188905
        1.5228302123        1.0842034690
        1.4711982712        1.1162118381
        1.4195280159        1.0873333081
        1.4196440899        1.1471035491
        1.3662216636        1.1771861886
        1.3673305788        1.1179972133
        1.2635953743        1.0545996386
        1.3157139454        1.0866377158
        1.3145054234        1.1463199640
        1.0586202439        0.9858603394
        1.0587748320        1.0469234544
        1.1087137839        1.0805156742
        1.1098703205        1.1413926495
        1.1620874058        1.1715958949
        1.2116905861        1.1967919567
        1.2609871702        1.1733307642
        1.2632732432        1.1147200367
        1.0611287947        0.3897180573
        1.0608142304        0.4490174329
        1.1101320888        0.4211378374
        1.1103933465        0.3619712615
        1.0614455707        0.3304201780
        1.1106554366        0.3028055870
        1.2112618590        1.1405293137
        1.1595650214        1.1120196329
        1.2111026923        1.0828167754
        1.2653160030        0.7505492082
        1.2657098020        0.6913784820
        1.2660962940        0.6324255804
        1.2125703945        0.6605977547
        1.2122645880        0.7197263527
        1.2119591195        0.7791362182
        1.2116624344        0.8390478867
        1.2113949698        0.8996740322
        1.2111911636        0.9609944200
        1.2110876453        1.0224483152
        1.7834679702        0.4638915192
        1.2385788799       -0.8011048775
        1.2401352646       -0.9198651141
        1.8447792118       -0.5018525645
        1.0617644571        0.2711235352
        1.0620853596        0.2118280716