TITLE = "SU2 Simulation"
VARIABLES = "Iteration","CL","CD","CSF","CMx","CMy","CMz","CFx","CFy","CFz","CL/CD","AoA","Custom_ObjFunc","Res_Flow[0]","Res_Flow[1]","Res_Flow[2]","Res_Flow[3]","Res_Flow[4]","Linear_Solver_Iterations","CFL_Number","Time(min)"
ZONE T= "Convergence history"
           0, 0.00000000e+00, 0.00000000e+00, 0.00000000e+00, 0.00000000e+00, 0.00000000e+00, 0.00000000e+00, 0.00000000e+00, 0.00000000e+00, 0.00000000e+00, 0.00000000e+00, 0.00000000e+00, 0.00000000e+00, -3.70734323e+00, -1.09757952e+00, -1.29867072e+01, 1.81212178e+00, 0.00000000e+00, 5.0000000000, 3.0000000000, 0.0012601167
           1, 0.00000000e+00, 0.00000000e+00, 0.00000000e+00, 0.00000000e+00, 0.00000000e+00, 0.00000000e+00, 0.00000000e+00, 0.00000000e+00, 0.00000000e+00, 0.00000000e+00, 0.00000000e+00, 0.00000000e+00, -3.89871024e+00, -1.27903879e+00, -3.54413701e+00, 1.63457505e+00, 0.00000000e+00, 5.0000000000, 3.0000000000, 0.0026073000
           2, 0.00000000e+00, 0.00000000e+00, 0.00000000e+00, 0.00000000e+00, 0.00000000e+00, 0.00000000e+00, 0.00000000e+00, 0.00000000e+00, 0.00000000e+00, 0.00000000e+00, 0.00000000e+00, 0.00000000e+00, -1.30303566e+00, 1.17343175e+00, -1.09103475e+00, 4.13726625e+00, 0.00000000e+00, 5.0000000000, 3.0000000000, 0.0038408167
           3, 0.00000000e+00, 0.00000000e+00, 0.00000000e+00, 0.00000000e+00, 0.00000000e+00, 0.00000000e+00, 0.00000000e+00, 0.00000000e+00, 0.00000000e+00, 0.00000000e+00, 0.00000000e+00, 0.00000000e+00, -1.09587838e+00, 1.37029939e+00, -5.76789942e-01, 4.33894812e+00, 0.00000000e+00, 5.0000000000, 3.0000000000, 0.0050557500
           4, 0.00000000e+00, 0.00000000e+00, 0.00000000e+00, 0.00000000e+00, 0.00000000e+00, 0.00000000e+00, 0.00000000e+00, 0.00000000e+00, 0.00000000e+00, 0.00000000e+00, 0.00000000e+00, 0.00000000e+00, -1.01006046e+00, 1.44741350e+00, -3.50441161e-01, 4.41983101e+00, 0.00000000e+00, 5.0000000000, 3.0000000000, 0.0062301667
           5, 0.00000000e+00, 0.00000000e+00, 0.00000000e+00, 0.00000000e+00, 0.00000000e+00, 0.00000000e+00, 0.00000000e+00, 0.00000000e+00, 0.00000000e+00, 0.00000000e+00, 0.00000000e+00, 0.00000000e+00, -9.69490503e-01, 1.48067014e+00, -2.53340813e-01, 4.45634935e+00, 0.00000000e+00, 5.0000000000, 3.0000000000, 0.0074209667
           6, 0.00000000e+00, 0.00000000e+00, 0.00000000e+00, 0.00000000e+00, 0.00000000e+00, 0.00000000e+00, 0.00000000e+00, 0.00000000e+00, 0.00000000e+00, 0.00000000e+00, 0.00000000e+00, 0.00000000e+00, -9.49421353e-01, 1.49465876e+00, -2.27633275e-01, 4.47325925e+00, 0.00000000e+00, 5.0000000000, 3.0000000000, 0.0086661500
           7, 0.00000000e+00, 0.00000000e+00, 0.00000000e+00, 0.00000000e+00, 0.00000000e+00, 0.00000000e+00, 0.00000000e+00, 0.00000000e+00, 0.00000000e+00, 0.00000000e+00, 0.00000000e+00, 0.00000000e+00, -9.39250435e-01, 1.49984782e+00, -2.44354488e-01, 4.48091621e+00, 0.00000000e+00, 5.0000000000, 3.0000000000, 0.0098418500
           8, 0.00000000e+00, 0.00000000e+00, 0.00000000e+00, 0.00000000e+00, 0.00000000e+00, 0.00000000e+00, 0.00000000e+00, 0.00000000e+00, 0.00000000e+00, 0.00000000e+00, 0.00000000e+00, 0.00000000e+00, -9.34163838e-01, 1.50087818e+00, -2.82174612e-01, 4.48385385e+00, 0.00000000e+00, 5.0000000000, 3.0000000000, 0.0110241167
           9, 0.00000000e+00, 0.00000000e+00, 0.00000000e+00, 0.00000000e+00, 0.00000000e+00, 0.00000000e+00, 0.00000000e+00, 0.00000000e+00, 0.00000000e+00, 0.00000000e+00, 0.00000000e+00, 0.00000000e+00, -9.31963867e-01, 1.49972125e+00, -3.20261085e-01, 4.48410524e+00, 0.00000000e+00, 5.0000000000, 3.0000000000, 0.0122518667
          10, 0.00000000e+00, 0.00000000e+00, 0.00000000e+00, 0.00000000e+00, 0.00000000e+00, 0.00000000e+00, 0.00000000e+00, 0.00000000e+00, 0.00000000e+00, 0.00000000e+00, 0.00000000e+00, 0.00000000e+00, -9.31606366e-01, 1.49719576e+00, -3.41598731e-01, 4.48267384e+00, 0.00000000e+00, 5.0000000000, 3.0000000000, 0.0134265000
          11, 0.00000000e+00, 0.00000000e+00, 0.00000000e+00, 0.00000000e+00, 0.00000000e+00, 0.00000000e+00, 0.00000000e+00, 0.00000000e+00, 0.00000000e+00, 0.00000000e+00, 0.00000000e+00, 0.00000000e+00, -9.32543033e-01, 1.49369023e+00, -3.42561563e-01, 4.48013206e+00, 0.00000000e+00, 5.0000000000, 3.0000000000, 0.0145996500
          12, 0.00000000e+00, 0.00000000e+00, 0.00000000e+00, 0.00000000e+00, 0.00000000e+00, 0.00000000e+00, 0.00000000e+00, 0.00000000e+00, 0.00000000e+00, 0.00000000e+00, 0.00000000e+00, 0.00000000e+00, -9.34445565e-01, 1.48946032e+00, -3.32328255e-01, 4.47684163e+00, 0.00000000e+00, 5.0000000000, 3.0000000000, 0.0157887333
          13, 0.00000000e+00, 0.00000000e+00, 0.00000000e+00, 0.00000000e+00, 0.00000000e+00, 0.00000000e+00, 0.00000000e+00, 0.00000000e+00, 0.00000000e+00, 0.00000000e+00, 0.00000000e+00, 0.00000000e+00, -9.37076791e-01, 1.48474425e+00, -3.20850892e-01, 4.47307015e+00, 0.00000000e+00, 5.0000000000, 3.0000000000, 0.0169461333
          14, 0.00000000e+00, 0.00000000e+00, 0.00000000e+00, 0.00000000e+00, 0.00000000e+00, 0.00000000e+00, 0.00000000e+00, 0.00000000e+00, 0.00000000e+00, 0.00000000e+00, 0.00000000e+00, 0.00000000e+00, -9.40291581e-01, 1.47970782e+00, -3.13484539e-01, 4.46895634e+00, 0.00000000e+00, 5.0000000000, 3.0000000000, 0.0181619333
          15, 0.00000000e+00, 0.00000000e+00, 0.00000000e+00, 0.00000000e+00, 0.00000000e+00, 0.00000000e+00, 0.00000000e+00, 0.00000000e+00, 0.00000000e+00, 0.00000000e+00, 0.00000000e+00, 0.00000000e+00, -9.43994916e-01, 1.47447761e+00, -3.11660038e-01, 4.46455289e+00, 0.00000000e+00, 5.0000000000, 3.0000000000, 0.0193197333
          16, 0.00000000e+00, 0.00000000e+00, 0.00000000e+00, 0.00000000e+00, 0.00000000e+00, 0.00000000e+00, 0.00000000e+00, 0.00000000e+00, 0.00000000e+00, 0.00000000e+00, 0.00000000e+00, 0.00000000e+00, -9.48054074e-01, 1.46919824e+00, -3.14663324e-01, 4.45996222e+00, 0.00000000e+00, 5.0000000000, 3.0000000000, 0.0207841167
          17, 0.00000000e+00, 0.00000000e+00, 0.00000000e+00, 0.00000000e+00, 0.00000000e+00, 0.00000000e+00, 0.00000000e+00, 0.00000000e+00, 0.00000000e+00, 0.00000000e+00, 0.00000000e+00, 0.00000000e+00, -9.52374912e-01, 1.46392039e+00, -3.20774325e-01, 4.45523175e+00, 0.00000000e+00, 5.0000000000, 3.0000000000, 0.0221670000
          18, 0.00000000e+00, 0.00000000e+00, 0.00000000e+00, 0.00000000e+00, 0.00000000e+00, 0.00000000e+00, 0.00000000e+00, 0.00000000e+00, 0.00000000e+00, 0.00000000e+00, 0.00000000e+00, 0.00000000e+00, -9.56861652e-01, 1.45869310e+00, -3.28427682e-01, 4.45042164e+00, 0.00000000e+00, 5.0000000000, 3.0000000000, 0.0233738333
          19, 0.00000000e+00, 0.00000000e+00, 0.00000000e+00, 0.00000000e+00, 0.00000000e+00, 0.00000000e+00, 0.00000000e+00, 0.00000000e+00, 0.00000000e+00, 0.00000000e+00, 0.00000000e+00, 0.00000000e+00, -9.61427384e-01, 1.45355191e+00, -3.36608670e-01, 4.44559607e+00, 0.00000000e+00, 5.0000000000, 3.0000000000, 0.0245167833
          20, 0.00000000e+00, 0.00000000e+00, 0.00000000e+00, 0.00000000e+00, 0.00000000e+00, 0.00000000e+00, 0.00000000e+00, 0.00000000e+00, 0.00000000e+00, 0.00000000e+00, 0.00000000e+00, 0.00000000e+00, -9.66016789e-01, 1.44849826e+00, -3.44594463e-01, 4.44078707e+00, 0.00000000e+00, 5.0000000000, 3.0000000000, 0.0256582500
          21, 0.00000000e+00, 0.00000000e+00, 0.00000000e+00, 0.00000000e+00, 0.00000000e+00, 0.00000000e+00, 0.00000000e+00, 0.00000000e+00, 0.00000000e+00, 0.00000000e+00, 0.00000000e+00, 0.00000000e+00, -9.70586654e-01, 1.44353920e+00, -3.51966876e-01, 4.43602397e+00, 0.00000000e+00, 5.0000000000, 3.0000000000, 0.0267949500
          22, 0.00000000e+00, 0.00000000e+00, 0.00000000e+00, 0.00000000e+00, 0.00000000e+00, 0.00000000e+00, 0.00000000e+00, 0.00000000e+00, 0.00000000e+00, 0.00000000e+00, 0.00000000e+00, 0.00000000e+00, -9.75103604e-01, 1.43868417e+00, -3.58704662e-01, 4.43133444e+00, 0.00000000e+00, 5.0000000000, 3.0000000000, 0.0279915667
          23, 0.00000000e+00, 0.00000000e+00, 0.00000000e+00, 0.00000000e+00, 0.00000000e+00, 0.00000000e+00, 0.00000000e+00, 0.00000000e+00, 0.00000000e+00, 0.00000000e+00, 0.00000000e+00, 0.00000000e+00, -9.79553652e-01, 1.43392919e+00, -3.64883894e-01, 4.42672546e+00, 0.00000000e+00, 5.0000000000, 3.0000000000, 0.0292278000
          24, 0.00000000e+00, 0.00000000e+00, 0.00000000e+00, 0.00000000e+00, 0.00000000e+00, 0.00000000e+00, 0.00000000e+00, 0.00000000e+00, 0.00000000e+00, 0.00000000e+00, 0.00000000e+00, 0.00000000e+00, -9.83927255e-01, 1.42927613e+00, -3.70657665e-01, 4.42220383e+00, 0.00000000e+00, 5.0000000000, 3.0000000000, 0.0304316000
          25, 0.00000000e+00, 0.00000000e+00, 0.00000000e+00, 0.00000000e+00, 0.00000000e+00, 0.00000000e+00, 0.00000000e+00, 0.00000000e+00, 0.00000000e+00, 0.00000000e+00, 0.00000000e+00, 0.00000000e+00, -9.88217270e-01, 1.42472930e+00, -3.76137545e-01, 4.41777752e+00, 0.00000000e+00, 5.0000000000, 3.0000000000, 0.0315280333
          26, 0.00000000e+00, 0.00000000e+00, 0.00000000e+00, 0.00000000e+00, 0.00000000e+00, 0.00000000e+00, 0.00000000e+00, 0.00000000e+00, 0.00000000e+00, 0.00000000e+00, 0.00000000e+00, 0.00000000e+00, -9.92424060e-01, 1.42028414e+00, -3.81382413e-01, 4.41344458e+00, 0.00000000e+00, 5.0000000000, 3.0000000000, 0.0327029167
          27, 0.00000000e+00, 0.00000000e+00, 0.00000000e+00, 0.00000000e+00, 0.00000000e+00, 0.00000000e+00, 0.00000000e+00, 0.00000000e+00, 0.00000000e+00, 0.00000000e+00, 0.00000000e+00, 0.00000000e+00, -9.96547898e-01, 1.41593974e+00, -3.86465428e-01, 4.40920473e+00, 0.00000000e+00, 5.0000000000, 3.0000000000, 0.0338974333
          28, 0.00000000e+00, 0.00000000e+00, 0.00000000e+00, 0.00000000e+00, 0.00000000e+00, 0.00000000e+00, 0.00000000e+00, 0.00000000e+00, 0.00000000e+00, 0.00000000e+00, 0.00000000e+00, 0.00000000e+00, -1.00058898e+00, 1.41169475e+00, -3.91407283e-01, 4.40505821e+00, 0.00000000e+00, 5.0000000000, 3.0000000000, 0.0350913000
          29, 0.00000000e+00, 0.00000000e+00, 0.00000000e+00, 0.00000000e+00, 0.00000000e+00, 0.00000000e+00, 0.00000000e+00, 0.00000000e+00, 0.00000000e+00, 0.00000000e+00, 0.00000000e+00, 0.00000000e+00, -1.00454982e+00, 1.40754425e+00, -3.96213095e-01, 4.40100141e+00, 0.00000000e+00, 5.0000000000, 3.0000000000, 0.0363157167
          30, 0.00000000e+00, 0.00000000e+00, 0.00000000e+00, 0.00000000e+00, 0.00000000e+00, 0.00000000e+00, 0.00000000e+00, 0.00000000e+00, 0.00000000e+00, 0.00000000e+00, 0.00000000e+00, 0.00000000e+00, -1.00843176e+00, 1.40348548e+00, -4.00907960e-01, 4.39703268e+00, 0.00000000e+00, 5.0000000000, 3.0000000000, 0.0375601667
          31, 0.00000000e+00, 0.00000000e+00, 0.00000000e+00, 0.00000000e+00, 0.00000000e+00, 0.00000000e+00, 0.00000000e+00, 0.00000000e+00, 0.00000000e+00, 0.00000000e+00, 0.00000000e+00, 0.00000000e+00, -1.01223594e+00, 1.39951548e+00, -4.05518912e-01, 4.39315044e+00, 0.00000000e+00, 5.0000000000, 3.0000000000, 0.0388080667
          32, 0.00000000e+00, 0.00000000e+00, 0.00000000e+00, 0.00000000e+00, 0.00000000e+00, 0.00000000e+00, 0.00000000e+00, 0.00000000e+00, 0.00000000e+00, 0.00000000e+00, 0.00000000e+00, 0.00000000e+00, -1.01596480e+00, 1.39562946e+00, -4.10028305e-01, 4.38935091e+00, 0.00000000e+00, 5.0000000000, 3.0000000000, 0.0401056500
          33, 0.00000000e+00, 0.00000000e+00, 0.00000000e+00, 0.00000000e+00, 0.00000000e+00, 0.00000000e+00, 0.00000000e+00, 0.00000000e+00, 0.00000000e+00, 0.00000000e+00, 0.00000000e+00, 0.00000000e+00, -1.01961958e+00, 1.39182496e+00, -4.14449708e-01, 4.38563232e+00, 0.00000000e+00, 5.0000000000, 3.0000000000, 0.0412985833
          34, 0.00000000e+00, 0.00000000e+00, 0.00000000e+00, 0.00000000e+00, 0.00000000e+00, 0.00000000e+00, 0.00000000e+00, 0.00000000e+00, 0.00000000e+00, 0.00000000e+00, 0.00000000e+00, 0.00000000e+00, -1.02320230e+00, 1.38809882e+00, -4.18783493e-01, 4.38199169e+00, 0.00000000e+00, 5.0000000000, 3.0000000000, 0.0425033000
          35, 0.00000000e+00, 0.00000000e+00, 0.00000000e+00, 0.00000000e+00, 0.00000000e+00, 0.00000000e+00, 0.00000000e+00, 0.00000000e+00, 0.00000000e+00, 0.00000000e+00, 0.00000000e+00, 0.00000000e+00, -1.02671550e+00, 1.38444807e+00, -4.23023759e-01, 4.37842535e+00, 0.00000000e+00, 5.0000000000, 3.0000000000, 0.0437149833
          36, 0.00000000e+00, 0.00000000e+00, 0.00000000e+00, 0.00000000e+00, 0.00000000e+00, 0.00000000e+00, 0.00000000e+00, 0.00000000e+00, 0.00000000e+00, 0.00000000e+00, 0.00000000e+00, 0.00000000e+00, -1.03016124e+00, 1.38087152e+00, -4.27180079e-01, 4.37493075e+00, 0.00000000e+00, 5.0000000000, 3.0000000000, 0.0449092000
          37, 0.00000000e+00, 0.00000000e+00, 0.00000000e+00, 0.00000000e+00, 0.00000000e+00, 0.00000000e+00, 0.00000000e+00, 0.00000000e+00, 0.00000000e+00, 0.00000000e+00, 0.00000000e+00, 0.00000000e+00, -1.03354228e+00, 1.37736750e+00, -4.31249063e-01, 4.37150436e+00, 0.00000000e+00, 5.0000000000, 3.0000000000, 0.0461192667
          38, 0.00000000e+00, 0.00000000e+00, 0.00000000e+00, 0.00000000e+00, 0.00000000e+00, 0.00000000e+00, 0.00000000e+00, 0.00000000e+00, 0.00000000e+00, 0.00000000e+00, 0.00000000e+00, 0.00000000e+00, -1.03686180e+00, 1.37393469e+00, -4.35237371e-01, 4.36814219e+00, 0.00000000e+00, 5.0000000000, 3.0000000000, 0.0473241000
          39, 0.00000000e+00, 0.00000000e+00, 0.00000000e+00, 0.00000000e+00, 0.00000000e+00, 0.00000000e+00, 0.00000000e+00, 0.00000000e+00, 0.00000000e+00, 0.00000000e+00, 0.00000000e+00, 0.00000000e+00, -1.04012251e+00, 1.37057296e+00, -4.39150797e-01, 4.36484134e+00, 0.00000000e+00, 5.0000000000, 3.0000000000, 0.0484310333
          40, 0.00000000e+00, 0.00000000e+00, 0.00000000e+00, 0.00000000e+00, 0.00000000e+00, 0.00000000e+00, 0.00000000e+00, 0.00000000e+00, 0.00000000e+00, 0.00000000e+00, 0.00000000e+00, 0.00000000e+00, -1.04332757e+00, 1.36728106e+00, -4.42992178e-01, 4.36159805e+00, 0.00000000e+00, 5.0000000000, 3.0000000000, 0.0496847000
          41, 0.00000000e+00, 0.00000000e+00, 0.00000000e+00, 0.00000000e+00, 0.00000000e+00, 0.00000000e+00, 0.00000000e+00, 0.00000000e+00, 0.00000000e+00, 0.00000000e+00, 0.00000000e+00, 0.00000000e+00, -1.04647989e+00, 1.36405804e+00, -4.46767002e-01, 4.35840912e+00, 0.00000000e+00, 5.0000000000, 3.0000000000, 0.0511491833
          42, 0.00000000e+00, 0.00000000e+00, 0.00000000e+00, 0.00000000e+00, 0.00000000e+00, 0.00000000e+00, 0.00000000e+00, 0.00000000e+00, 0.00000000e+00, 0.00000000e+00, 0.00000000e+00, 0.00000000e+00, -1.04958181e+00, 1.36090296e+00, -4.50491321e-01, 4.35527218e+00, 0.00000000e+00, 5.0000000000, 3.0000000000, 0.0526623500
          43, 0.00000000e+00, 0.00000000e+00, 0.00000000e+00, 0.00000000e+00, 0.00000000e+00, 0.00000000e+00, 0.00000000e+00, 0.00000000e+00, 0.00000000e+00, 0.00000000e+00, 0.00000000e+00, 0.00000000e+00, -1.05263567e+00, 1.35781365e+00, -4.54174882e-01, 4.35218469e+00, 0.00000000e+00, 5.0000000000, 3.0000000000, 0.0543015500
          44, 0.00000000e+00, 0.00000000e+00, 0.00000000e+00, 0.00000000e+00, 0.00000000e+00, 0.00000000e+00, 0.00000000e+00, 0.00000000e+00, 0.00000000e+00, 0.00000000e+00, 0.00000000e+00, 0.00000000e+00, -1.05564313e+00, 1.35478796e+00, -4.57839594e-01, 4.34914508e+00, 0.00000000e+00, 5.0000000000, 3.0000000000, 0.0557073667
          45, 0.00000000e+00, 0.00000000e+00, 0.00000000e+00, 0.00000000e+00, 0.00000000e+00, 0.00000000e+00, 0.00000000e+00, 0.00000000e+00, 0.00000000e+00, 0.00000000e+00, 0.00000000e+00, 0.00000000e+00, -1.05860546e+00, 1.35182316e+00, -4.61512675e-01, 4.34615220e+00, 0.00000000e+00, 5.0000000000, 3.0000000000, 0.0571079500
          46, 0.00000000e+00, 0.00000000e+00, 0.00000000e+00, 0.00000000e+00, 0.00000000e+00, 0.00000000e+00, 0.00000000e+00, 0.00000000e+00, 0.00000000e+00, 0.00000000e+00, 0.00000000e+00, 0.00000000e+00, -1.06152373e+00, 1.34891581e+00, -4.65224378e-01, 4.34320500e+00, 0.00000000e+00, 5.0000000000, 3.0000000000, 0.0584902000
          47, 0.00000000e+00, 0.00000000e+00, 0.00000000e+00, 0.00000000e+00, 0.00000000e+00, 0.00000000e+00, 0.00000000e+00, 0.00000000e+00, 0.00000000e+00, 0.00000000e+00, 0.00000000e+00, 0.00000000e+00, -1.06439843e+00, 1.34606271e+00, -4.69015162e-01, 4.34030319e+00, 0.00000000e+00, 5.0000000000, 3.0000000000, 0.0598498500
          48, 0.00000000e+00, 0.00000000e+00, 0.00000000e+00, 0.00000000e+00, 0.00000000e+00, 0.00000000e+00, 0.00000000e+00, 0.00000000e+00, 0.00000000e+00, 0.00000000e+00, 0.00000000e+00, 0.00000000e+00, -1.06723003e+00, 1.34326023e+00, -4.72922687e-01, 4.33744641e+00, 0.00000000e+00, 5.0000000000, 3.0000000000, 0.0611138167
          49, 0.00000000e+00, 0.00000000e+00, 0.00000000e+00, 0.00000000e+00, 0.00000000e+00, 0.00000000e+00, 0.00000000e+00, 0.00000000e+00, 0.00000000e+00, 0.00000000e+00, 0.00000000e+00, 0.00000000e+00, -1.07001892e+00, 1.34050480e+00, -4.76987467e-01, 4.33463427e+00, 0.00000000e+00, 5.0000000000, 3.0000000000, 0.0623164167
          50, 0.00000000e+00, 0.00000000e+00, 0.00000000e+00, 0.00000000e+00, 0.00000000e+00, 0.00000000e+00, 0.00000000e+00, 0.00000000e+00, 0.00000000e+00, 0.00000000e+00, 0.00000000e+00, 0.00000000e+00, -1.07276527e+00, 1.33779344e+00, -4.81247130e-01, 4.33186673e+00, 0.00000000e+00, 5.0000000000, 3.0000000000, 0.0635530833
          51, 0.00000000e+00, 0.00000000e+00, 0.00000000e+00, 0.00000000e+00, 0.00000000e+00, 0.00000000e+00, 0.00000000e+00, 0.00000000e+00, 0.00000000e+00, 0.00000000e+00, 0.00000000e+00, 0.00000000e+00, -1.07546952e+00, 1.33512303e+00, -4.85727110e-01, 4.32914327e+00, 0.00000000e+00, 5.0000000000, 3.0000000000, 0.0647820167
          52, 0.00000000e+00, 0.00000000e+00, 0.00000000e+00, 0.00000000e+00, 0.00000000e+00, 0.00000000e+00, 0.00000000e+00, 0.00000000e+00, 0.00000000e+00, 0.00000000e+00, 0.00000000e+00, 0.00000000e+00, -1.07813215e+00, 1.33249107e+00, -4.90438155e-01, 4.32646331e+00, 0.00000000e+00, 5.0000000000, 3.0000000000, 0.0659369167
          53, 0.00000000e+00, 0.00000000e+00, 0.00000000e+00, 0.00000000e+00, 0.00000000e+00, 0.00000000e+00, 0.00000000e+00, 0.00000000e+00, 0.00000000e+00, 0.00000000e+00, 0.00000000e+00, 0.00000000e+00, -1.08075373e+00, 1.32989564e+00, -4.95375079e-01, 4.32382623e+00, 0.00000000e+00, 5.0000000000, 3.0000000000, 0.0671683000
          54, 0.00000000e+00, 0.00000000e+00, 0.00000000e+00, 0.00000000e+00, 0.00000000e+00, 0.00000000e+00, 0.00000000e+00, 0.00000000e+00, 0.00000000e+00, 0.00000000e+00, 0.00000000e+00, 0.00000000e+00, -1.08333517e+00, 1.32733505e+00, -5.00504315e-01, 4.32123089e+00, 0.00000000e+00, 5.0000000000, 3.0000000000, 0.0684437167
          55, 0.00000000e+00, 0.00000000e+00, 0.00000000e+00, 0.00000000e+00, 0.00000000e+00, 0.00000000e+00, 0.00000000e+00, 0.00000000e+00, 0.00000000e+00, 0.00000000e+00, 0.00000000e+00, 0.00000000e+00, -1.08587755e+00, 1.32480832e+00, -5.05766332e-01, 4.31867603e+00, 0.00000000e+00, 5.0000000000, 3.0000000000, 0.0696643000
          56, 0.00000000e+00, 0.00000000e+00, 0.00000000e+00, 0.00000000e+00, 0.00000000e+00, 0.00000000e+00, 0.00000000e+00, 0.00000000e+00, 0.00000000e+00, 0.00000000e+00, 0.00000000e+00, 0.00000000e+00, -1.08838218e+00, 1.32231509e+00, -5.11073239e-01, 4.31616010e+00, 0.00000000e+00, 5.0000000000, 3.0000000000, 0.0709298000
          57, 0.00000000e+00, 0.00000000e+00, 0.00000000e+00, 0.00000000e+00, 0.00000000e+00, 0.00000000e+00, 0.00000000e+00, 0.00000000e+00, 0.00000000e+00, 0.00000000e+00, 0.00000000e+00, 0.00000000e+00, -1.09085081e+00, 1.31985552e+00, -5.16310201e-01, 4.31368098e+00, 0.00000000e+00, 5.0000000000, 3.0000000000, 0.0720867833
          58, 0.00000000e+00, 0.00000000e+00, 0.00000000e+00, 0.00000000e+00, 0.00000000e+00, 0.00000000e+00, 0.00000000e+00, 0.00000000e+00, 0.00000000e+00, 0.00000000e+00, 0.00000000e+00, 0.00000000e+00, -1.09328549e+00, 1.31743082e+00, -5.21344328e-01, 4.31123624e+00, 0.00000000e+00, 5.0000000000, 3.0000000000, 0.0731989333
          59, 0.00000000e+00, 0.00000000e+00, 0.00000000e+00, 0.00000000e+00, 0.00000000e+00, 0.00000000e+00, 0.00000000e+00, 0.00000000e+00, 0.00000000e+00, 0.00000000e+00, 0.00000000e+00, 0.00000000e+00, -1.09568881e+00, 1.31504315e+00, -5.26029539e-01, 4.30882274e+00, 0.00000000e+00, 5.0000000000, 3.0000000000, 0.0743612667
          60, 0.00000000e+00, 0.00000000e+00, 0.00000000e+00, 0.00000000e+00, 0.00000000e+00, 0.00000000e+00, 0.00000000e+00, 0.00000000e+00, 0.00000000e+00, 0.00000000e+00, 0.00000000e+00, 0.00000000e+00, -1.09806402e+00, 1.31269608e+00, -5.30225505e-01, 4.30643646e+00, 0.00000000e+00, 5.0000000000, 3.0000000000, 0.0754476500
          61, 0.00000000e+00, 0.00000000e+00, 0.00000000e+00, 0.00000000e+00, 0.00000000e+00, 0.00000000e+00, 0.00000000e+00, 0.00000000e+00, 0.00000000e+00, 0.00000000e+00, 0.00000000e+00, 0.00000000e+00, -1.10041513e+00, 1.31039508e+00, -5.33813084e-01, 4.30407244e+00, 0.00000000e+00, 5.0000000000, 3.0000000000, 0.0765566167
          62, 0.00000000e+00, 0.00000000e+00, 0.00000000e+00, 0.00000000e+00, 0.00000000e+00, 0.00000000e+00, 0.00000000e+00, 0.00000000e+00, 0.00000000e+00, 0.00000000e+00, 0.00000000e+00, 0.00000000e+00, -1.10274718e+00, 1.30814796e+00, -5.36707086e-01, 4.30172423e+00, 0.00000000e+00, 5.0000000000, 3.0000000000, 0.0777529000
          63, 0.00000000e+00, 0.00000000e+00, 0.00000000e+00, 0.00000000e+00, 0.00000000e+00, 0.00000000e+00, 0.00000000e+00, 0.00000000e+00, 0.00000000e+00, 0.00000000e+00, 0.00000000e+00, 0.00000000e+00, -1.10506645e+00, 1.30596565e+00, -5.38872746e-01, 4.29938372e+00, 0.00000000e+00, 5.0000000000, 3.0000000000, 0.0789037000
          64, 0.00000000e+00, 0.00000000e+00, 0.00000000e+00, 0.00000000e+00, 0.00000000e+00, 0.00000000e+00, 0.00000000e+00, 0.00000000e+00, 0.00000000e+00, 0.00000000e+00, 0.00000000e+00, 0.00000000e+00, -1.10738061e+00, 1.30386307e+00, -5.40333477e-01, 4.29704074e+00, 0.00000000e+00, 5.0000000000, 3.0000000000, 0.0800350833
          65, 0.00000000e+00, 0.00000000e+00, 0.00000000e+00, 0.00000000e+00, 0.00000000e+00, 0.00000000e+00, 0.00000000e+00, 0.00000000e+00, 0.00000000e+00, 0.00000000e+00, 0.00000000e+00, 0.00000000e+00, -1.10969894e+00, 1.30185995e+00, -5.41168965e-01, 4.29468271e+00, 0.00000000e+00, 5.0000000000, 3.0000000000, 0.0811956500
          66, 0.00000000e+00, 0.00000000e+00, 0.00000000e+00, 0.00000000e+00, 0.00000000e+00, 0.00000000e+00, 0.00000000e+00, 0.00000000e+00, 0.00000000e+00, 0.00000000e+00, 0.00000000e+00, 0.00000000e+00, -1.11203225e+00, 1.29998204e+00, -5.41508522e-01, 4.29229450e+00, 0.00000000e+00, 5.0000000000, 3.0000000000, 0.0823510667
          67, 0.00000000e+00, 0.00000000e+00, 0.00000000e+00, 0.00000000e+00, 0.00000000e+00, 0.00000000e+00, 0.00000000e+00, 0.00000000e+00, 0.00000000e+00, 0.00000000e+00, 0.00000000e+00, 0.00000000e+00, -1.11439260e+00, 1.29826210e+00, -5.41515808e-01, 4.28985844e+00, 0.00000000e+00, 5.0000000000, 3.0000000000, 0.0834529167
          68, 0.00000000e+00, 0.00000000e+00, 0.00000000e+00, 0.00000000e+00, 0.00000000e+00, 0.00000000e+00, 0.00000000e+00, 0.00000000e+00, 0.00000000e+00, 0.00000000e+00, 0.00000000e+00, 0.00000000e+00, -1.11679258e+00, 1.29674101e+00, -5.41369870e-01, 4.28735471e+00, 0.00000000e+00, 5.0000000000, 3.0000000000, 0.0845825167
          69, 0.00000000e+00, 0.00000000e+00, 0.00000000e+00, 0.00000000e+00, 0.00000000e+00, 0.00000000e+00, 0.00000000e+00, 0.00000000e+00, 0.00000000e+00, 0.00000000e+00, 0.00000000e+00, 0.00000000e+00, -1.11924382e+00, 1.29546890e+00, -5.41244075e-01, 4.28476248e+00, 0.00000000e+00, 5.0000000000, 3.0000000000, 0.0857096333
          70, 0.00000000e+00, 0.00000000e+00, 0.00000000e+00, 0.00000000e+00, 0.00000000e+00, 0.00000000e+00, 0.00000000e+00, 0.00000000e+00, 0.00000000e+00, 0.00000000e+00, 0.00000000e+00, 0.00000000e+00, -1.12175456e+00, 1.29450611e+00, -5.41281291e-01, 4.28206179e+00, 0.00000000e+00, 5.0000000000, 3.0000000000, 0.0868273500
          71, 0.00000000e+00, 0.00000000e+00, 0.00000000e+00, 0.00000000e+00, 0.00000000e+00, 0.00000000e+00, 0.00000000e+00, 0.00000000e+00, 0.00000000e+00, 0.00000000e+00, 0.00000000e+00, 0.00000000e+00, -1.12432572e+00, 1.29392418e+00, -5.41575851e-01, 4.27923690e+00, 0.00000000e+00, 5.0000000000, 3.0000000000, 0.0879399333
          72, 0.00000000e+00, 0.00000000e+00, 0.00000000e+00, 0.00000000e+00, 0.00000000e+00, 0.00000000e+00, 0.00000000e+00, 0.00000000e+00, 0.00000000e+00, 0.00000000e+00, 0.00000000e+00, 0.00000000e+00, -1.12694488e+00, 1.29380701e+00, -5.42151960e-01, 4.27628150e+00, 0.00000000e+00, 5.0000000000, 3.0000000000, 0.0890571667
          73, 0.00000000e+00, 0.00000000e+00, 0.00000000e+00, 0.00000000e+00, 0.00000000e+00, 0.00000000e+00, 0.00000000e+00, 0.00000000e+00, 0.00000000e+00, 0.00000000e+00, 0.00000000e+00, 0.00000000e+00, -1.12957735e+00, 1.29425226e+00, -5.42940682e-01, 4.27320660e+00, 0.00000000e+00, 5.0000000000, 3.0000000000, 0.0901675500
          74, 0.00000000e+00, 0.00000000e+00, 0.00000000e+00, 0.00000000e+00, 0.00000000e+00, 0.00000000e+00, 0.00000000e+00, 0.00000000e+00, 0.00000000e+00, 0.00000000e+00, 0.00000000e+00, 0.00000000e+00, -1.13215491e+00, 1.29537283e+00, -5.43756818e-01, 4.27005103e+00, 0.00000000e+00, 5.0000000000, 3.0000000000, 0.0912422500
          75, 0.00000000e+00, 0.00000000e+00, 0.00000000e+00, 0.00000000e+00, 0.00000000e+00, 0.00000000e+00, 0.00000000e+00, 0.00000000e+00, 0.00000000e+00, 0.00000000e+00, 0.00000000e+00, 0.00000000e+00, -1.13456076e+00, 1.29729896e+00, -5.44274828e-01, 4.26689593e+00, 0.00000000e+00, 5.0000000000, 3.0000000000, 0.0923279667
          76, 0.00000000e+00, 0.00000000e+00, 0.00000000e+00, 0.00000000e+00, 0.00000000e+00, 0.00000000e+00, 0.00000000e+00, 0.00000000e+00, 0.00000000e+00, 0.00000000e+00, 0.00000000e+00, 0.00000000e+00, -1.13661203e+00, 1.30018067e+00, -5.44005543e-01, 4.26388282e+00, 0.00000000e+00, 5.0000000000, 3.0000000000, 0.0934183000
          77, 0.00000000e+00, 0.00000000e+00, 0.00000000e+00, 0.00000000e+00, 0.00000000e+00, 0.00000000e+00, 0.00000000e+00, 0.00000000e+00, 0.00000000e+00, 0.00000000e+00, 0.00000000e+00, 0.00000000e+00, -1.13804194e+00, 1.30418979e+00, -5.42284240e-01, 4.26123459e+00, 0.00000000e+00, 5.0000000000, 3.0000000000, 0.0945522000
          78, 0.00000000e+00, 0.00000000e+00, 0.00000000e+00, 0.00000000e+00, 0.00000000e+00, 0.00000000e+00, 0.00000000e+00, 0.00000000e+00, 0.00000000e+00, 0.00000000e+00, 0.00000000e+00, 0.00000000e+00, -1.13848815e+00, 1.30951980e+00, -5.38286163e-01, 4.25927433e+00, 0.00000000e+00, 5.0000000000, 3.0000000000, 0.0957185000
          79, 0.00000000e+00, 0.00000000e+00, 0.00000000e+00, 0.00000000e+00, 0.00000000e+00, 0.00000000e+00, 0.00000000e+00, 0.00000000e+00, 0.00000000e+00, 0.00000000e+00, 0.00000000e+00, 0.00000000e+00, -1.13749726e+00, 1.31638037e+00, -5.31094991e-01, 4.25843416e+00, 0.00000000e+00, 5.0000000000, 3.0000000000, 0.0969562667
          80, 0.00000000e+00, 0.00000000e+00, 0.00000000e+00, 0.00000000e+00, 0.00000000e+00, 0.00000000e+00, 0.00000000e+00, 0.00000000e+00, 0.00000000e+00, 0.00000000e+00, 0.00000000e+00, 0.00000000e+00, -1.13455990e+00, 1.32498189e+00, -5.19842387e-01, 4.25923972e+00, 0.00000000e+00, 5.0000000000, 3.0000000000, 0.0980720167
          81, 0.00000000e+00, 0.00000000e+00, 0.00000000e+00, 0.00000000e+00, 0.00000000e+00, 0.00000000e+00, 0.00000000e+00, 0.00000000e+00, 0.00000000e+00, 0.00000000e+00, 0.00000000e+00, 0.00000000e+00, -1.12918894e+00, 1.33550543e+00, -5.03913063e-01, 4.26225301e+00, 0.00000000e+00, 5.0000000000, 3.0000000000, 0.0991974667
          82, 0.00000000e+00, 0.00000000e+00, 0.00000000e+00, 0.00000000e+00, 0.00000000e+00, 0.00000000e+00, 0.00000000e+00, 0.00000000e+00, 0.00000000e+00, 0.00000000e+00, 0.00000000e+00, 0.00000000e+00, -1.12103909e+00, 1.34805678e+00, -4.83174616e-01, 4.26796450e+00, 0.00000000e+00, 5.0000000000, 3.0000000000, 0.1002874000
          83, 0.00000000e+00, 0.00000000e+00, 0.00000000e+00, 0.00000000e+00, 0.00000000e+00, 0.00000000e+00, 0.00000000e+00, 0.00000000e+00, 0.00000000e+00, 0.00000000e+00, 0.00000000e+00, 0.00000000e+00, -1.11003658e+00, 1.36261237e+00, -4.58124456e-01, 4.27665072e+00, 0.00000000e+00, 5.0000000000, 3.0000000000, 0.1013820167
          84, 0.00000000e+00, 0.00000000e+00, 0.00000000e+00, 0.00000000e+00, 0.00000000e+00, 0.00000000e+00, 0.00000000e+00, 0.00000000e+00, 0.00000000e+00, 0.00000000e+00, 0.00000000e+00, 0.00000000e+00, -1.09649459e+00, 1.37895712e+00, -4.29887362e-01, 4.28821715e+00, 0.00000000e+00, 5.0000000000, 3.0000000000, 0.1024496667
          85, 0.00000000e+00, 0.00000000e+00, 0.00000000e+00, 0.00000000e+00, 0.00000000e+00, 0.00000000e+00, 0.00000000e+00, 0.00000000e+00, 0.00000000e+00, 0.00000000e+00, 0.00000000e+00, 0.00000000e+00, -1.08112774e+00, 1.39665331e+00, -4.00047767e-01, 4.30212151e+00, 0.00000000e+00, 5.0000000000, 3.0000000000, 0.1035553500
          86, 0.00000000e+00, 0.00000000e+00, 0.00000000e+00, 0.00000000e+00, 0.00000000e+00, 0.00000000e+00, 0.00000000e+00, 0.00000000e+00, 0.00000000e+00, 0.00000000e+00, 0.00000000e+00, 0.00000000e+00, -1.06495003e+00, 1.41505856e+00, -3.70370710e-01, 4.31742381e+00, 0.00000000e+00, 5.0000000000, 3.0000000000, 0.1047063833
          87, 0.00000000e+00, 0.00000000e+00, 0.00000000e+00, 0.00000000e+00, 0.00000000e+00, 0.00000000e+00, 0.00000000e+00, 0.00000000e+00, 0.00000000e+00, 0.00000000e+00, 0.00000000e+00, 0.00000000e+00, -1.04908644e+00, 1.43340103e+00, -3.42509444e-01, 4.33295924e+00, 0.00000000e+00, 5.0000000000, 3.0000000000, 0.1058368667
          88, 0.00000000e+00, 0.00000000e+00, 0.00000000e+00, 0.00000000e+00, 0.00000000e+00, 0.00000000e+00, 0.00000000e+00, 0.00000000e+00, 0.00000000e+00, 0.00000000e+00, 0.00000000e+00, 0.00000000e+00, -1.03456482e+00, 1.45089640e+00, -3.17771194e-01, 4.34757043e+00, 0.00000000e+00, 5.0000000000, 3.0000000000, 0.1069713500
          89, 0.00000000e+00, 0.00000000e+00, 0.00000000e+00, 0.00000000e+00, 0.00000000e+00, 0.00000000e+00, 0.00000000e+00, 0.00000000e+00, 0.00000000e+00, 0.00000000e+00, 0.00000000e+00, 0.00000000e+00, -1.02215232e+00, 1.46687390e+00, -2.96940885e-01, 4.36031812e+00, 0.00000000e+00, 5.0000000000, 3.0000000000, 0.1081138500