 VARIABLES = "X",  "Y"
 ZONE N=        1616 , E=        2888 , F=FEPOINT, ET=QUADRILATERAL
       -2.0000000000       -0.1178092500
       -1.9661324841       -0.1042722206
       -1.9356689998       -0.1223216427
       -2.0000000000       -0.0785395000
       -1.9320837478       -0.0847465458
       -1.9656040876       -0.0622934872
       -1.8995743288       -0.1119272795
       -2.0000000000       -0.0392697500
       -1.8988057194       -0.0664547513
       -1.9317854852       -0.0430897585
       -1.9655361259       -0.0207695642
       -1.8638673531       -0.1230456602
       -1.8657956669       -0.0859006377
       -2.0000000000        0.0000000000
       -1.8984446753       -0.0221907992
       -1.8651151105       -0.0440237910
       -1.9317775352       -0.0000140340
       -1.9655508845        0.0207674336
       -1.8318564118       -0.1072807273
       -1.8310891532       -0.0654683603
       -2.0000000000        0.0392697500
       -1.7983569394       -0.1283210774
       -1.8648721592       -0.0000302895
       -1.8984546322        0.0221515724
       -1.8308677812       -0.0221385241
       -1.9318122499        0.0430844115
       -1.9656336367        0.0622902603
       -1.7967536240       -0.0868128709
       -1.7966295314       -0.0441771667
       -2.0000000000        0.0785395000
       -1.7615307892       -0.1086739079
       -1.8651281661        0.0440009475
       -1.8308726640        0.0220776168
       -1.8988304984        0.0664772305
       -1.7966492507       -0.0000417253
       -1.9321088217        0.0847665403
       -1.9661631627        0.1042960817
       -1.7621891711       -0.0660920495
       -1.7625050438       -0.0222692478
       -2.0000000000        0.1178092500
       -1.7242287562       -0.1281874380
       -1.7274149866       -0.0866312169
       -1.8311037112        0.0654886971
       -1.8658179138        0.0859916255
       -1.7966367502        0.0441389870
       -1.8995760170        0.1120350964
       -1.7625058316        0.0221813805
       -1.9356766411        0.1224166932
       -1.9600958728        0.1570790000
       -1.7284231969       -0.0440093084
       -1.7286378710       -0.0000644156
       -2.0000000000        0.1570790000
       -1.6923864576       -0.1068239633
       -1.6944451894       -0.0648515954
       -1.7967707741        0.0869023972
       -1.8318843349        0.1074621938
       -1.8638504745        0.1231879758
       -1.7621888751        0.0661013136
       -1.9201917455        0.1570790000
       -1.7284226480        0.0439384471
       -1.6948548659       -0.0218962961
       -1.8802876183        0.1570790000
       -1.6948443864        0.0217374478
       -1.6609634439       -0.1225668813
       -1.6610826778       -0.0840370626
       -1.6611528010       -0.0430999828
       -1.7615155980        0.1088573507
       -1.7983890503        0.1284637340
       -1.8403834911        0.1570790000
       -1.7274185226        0.0867286366
       -1.6944176915        0.0648231341
       -1.6611599715       -0.0001254856
       -1.6611075320        0.0429264429
       -1.6296662216       -0.1068290103
       -1.6278374635       -0.0648829828
       -1.6275145835       -0.0219748280
       -1.7605752366        0.1570790000
       -1.7242258961        0.1283451369
       -1.8004793638        0.1570790000
       -1.6923293720        0.1070647728
       -1.6610239656        0.0841017216
       -1.6274573794        0.0216256623
       -1.5977464710       -0.1281820673
       -1.6277044816        0.0647171916
       -1.5948930904       -0.0866540417
       -1.5940744967       -0.0441302908
       -1.5938397908       -0.0002789332
       -1.7206711094        0.1570790000
       -1.6807669821        0.1570790000
       -1.6609004609        0.1228967065
       -1.6295677277        0.1070754693
       -1.5938545850        0.0436881119
       -1.5607962476       -0.1086348245
       -1.5945884824        0.0865485594
       -1.5605463072       -0.0662017692
       -1.5603052061       -0.0225606075
       -1.5600930534        0.0217516491
       -1.6408628549        0.1570790000
       -1.5975970372        0.1283196801
       -1.5599816552        0.0656954138
       -1.5239933317       -0.1282474355
       -1.5263935640       -0.0868085741
       -1.5602135892        0.1086431374
       -1.5267370952       -0.0444271264
       -1.5265015703       -0.0006734251
       -1.5260721643        0.0433438489
       -1.6009587277        0.1570790000
       -1.5610546004        0.1570790000
       -1.5251814417        0.0863194708
       -1.4918411683       -0.1070154030
       -1.4931552504       -0.0653373828
       -1.5231209565        0.1281411886
       -1.4929712438       -0.0227501461
       -1.4925017706        0.0206712781
       -1.4916398798        0.0639792528
       -1.5211504732        0.1570790000
       -1.4891392217        0.1067376158
       -1.4607006828       -0.1226335861
       -1.4600487854       -0.0844524245
       -1.4594750422       -0.0440266042
       -1.4812463460        0.1570790000
       -1.4589133211       -0.0016485128
       -1.4582843412        0.0409320804
       -1.4571884973        0.0823259679
       -1.4534852707        0.1222729311
       -1.4289575124       -0.1069462383
       -1.4263551758       -0.0655640785
       -1.4253619423       -0.0234000972
       -1.4413422187        0.1570790000
       -1.3973309084       -0.1281223595
       -1.4246332103        0.0191671919
       -1.4238742052        0.0606509479
       -1.4230477738        0.0997478287
       -1.4225145672        0.1313738347
       -1.3935848410       -0.0868762406
       -1.3920421509       -0.0449238564
       -1.3911335688       -0.0019244459
       -1.4014380915        0.1570790000
       -1.3596952945       -0.1084351473
       -1.3903122117        0.0408858938
       -1.3896738923        0.0823956133
       -1.3911461901        0.1221856954
       -1.3585896856       -0.0662335516
       -1.3577878535       -0.0230101474
       -1.3570575685        0.0206764344
       -1.3615339643        0.1570790000
       -1.3228915501       -0.1278349199
       -1.3241585571       -0.0862424574
       -1.3565195497        0.0640278722
       -1.3569999416        0.1068952302
       -1.3242130176       -0.0437594666
       -1.3237606802       -0.0000555537
       -1.3232956927        0.0436288356
       -1.3226148794        0.1282666599
       -1.2886202696       -0.1062177446
       -1.2902499040       -0.0637915718
       -1.3231248790        0.0862835244
       -1.3216298370        0.1570790000
       -1.2902420880       -0.0205679722
       -1.2898729791        0.0230566069
       -1.2895833747        0.0659917073
       -1.2817257098        0.1570790000
       -1.2892558678        0.1078775254
       -1.2534244581       -0.1216470581
       -1.2562148148       -0.0816662382
       -1.2564928203       -0.0403351474
       -1.2562871523        0.0025795904
       -1.2559334678        0.0457359914
       -1.2555310368        0.0871984901
       -1.2578849317        0.1240522004
       -1.2220387915       -0.1312220485
       -1.2222359983       -0.0986225448
       -1.2224256882       -0.0597410128
       -1.2225255951       -0.0180739519
       -1.2418215826        0.1570790000
       -1.2225192047        0.0250822727
       -1.2224203245        0.0686324036
       -1.2222034562        0.1135886451
       -1.1908356111       -0.1213980560
       -1.1885515949       -0.0811236968
       -1.1885870380       -0.0396403092
       -1.1888454502        0.0032860493
       -1.2019174553        0.1570790000
       -1.1890706485        0.0463339911
       -1.1892007028        0.0876342675
       -1.1864106455        0.1242946193
       -1.1561391227       -0.1052716899
       -1.1550673276       -0.0623759778
       -1.1551503115       -0.0189833263
       -1.1553510442        0.0245075091
       -1.1620133281        0.1570790000
       -1.1218535254       -0.1267356880
       -1.1554181248        0.0671100712
       -1.1553705178        0.1086003377
       -1.1217339263       -0.0839854271
       -1.1217677917       -0.0410484557
       -1.1218594932        0.0025759759
       -1.1219942592        0.0458397438
       -1.1219819739        0.1290660666
       -1.0873660818       -0.1049674575
       -1.1220377428        0.0878539769
       -1.1221092009        0.1570790000
       -1.0884553348       -0.0620301293
       -1.0885679433       -0.0188314121
       -1.0886057939        0.0243007063
       -1.0888913096        0.0671248755
       -1.0822050736        0.1570790000
       -1.0889399191        0.1088793073
       -1.0522786948       -0.1207275984
       -1.0548280820       -0.0802523180
       -1.0552876773       -0.0388582867
       -1.0552836480        0.0032532812
       -1.0553808892        0.0452980859
       -1.0563127125        0.0876124059
       -1.0573844992        0.1264458623
       -1.0197391334       -0.1306742523
       -1.0205647568       -0.0969249226
       -1.0217955122       -0.0575059526
       -1.0423009464        0.1570790000
       -1.0219082135       -0.0170392531
       -1.0218964095        0.0242150228
       -1.0216787425        0.0655993221
       -1.0205764350        0.1169799555
       -0.9836518878       -0.1200381552
       -0.9881614957       -0.0763206298
       -0.9883821870       -0.0369824384
       -1.0023968192        0.1570790000
       -0.9885583107        0.0029435374
       -0.9886282986        0.0430013715
       -0.9872361221        0.0838562000
       -0.9789834010        0.1242250493
       -0.9415529376       -0.1225273819
       -0.9577927412       -0.0926569584
       -0.9556739563       -0.0568000223
       -0.9552056332       -0.0175402963
       -0.9624926919        0.1570790000
       -0.9555853189        0.0214937120
       -0.9554020438        0.0608098343
       -0.9554519976        0.0959072304
       -0.9392424731        0.1238371521
       -0.9020666860       -0.1225162910
       -0.9215350746       -0.0840858836
       -0.9215305611       -0.0379412047
       -0.9221095918        0.0013181997
       -0.9225885647        0.1570790000
       -0.9229460439        0.0401667395
       -0.9195593142        0.0851925966
       -0.9002960541        0.1215075504
       -0.8590580176       -0.1199952112
       -0.8849620590       -0.0929262426
       -0.8867108674       -0.0568413353
       -0.8879244884       -0.0182048029
       -0.8897603028        0.0208075568
       -0.8826844375        0.1570790000
       -0.8921682139        0.0574807766
       -0.8770734553        0.0869705928
       -0.8601784370        0.1214899869
       -0.8218559529       -0.1298545618
       -0.8531304948       -0.0763130318
       -0.8533871864       -0.0375825258
       -0.8540915491        0.0015103274
       -0.8554000035        0.0491316562
       -0.8427803102        0.1570790000
       -0.8193598122       -0.0968743767
       -0.8382148290        0.0864265106
       -0.8196754483        0.1210641751
       -0.7844901729       -0.1200848524
       -0.8189977620       -0.0579044269
       -0.8195678876       -0.0188451517
       -0.8199206784        0.0209448718
       -0.8028761830        0.1570790000
       -0.7847698538       -0.0791898147
       -0.8205103454        0.0571237479
       -0.7950328513        0.0846553172
       -0.7807980967        0.1233270070
       -0.7478077058       -0.1306863596
       -0.7503408309       -0.0979561480
       -0.7849051158       -0.0392661229
       -0.7855406972        0.0005364908
       -0.7870511266        0.0398148495
       -0.7629720557        0.1570790000
       -0.7499170818       -0.0597058143
       -0.7575674986        0.0955847156
       -0.7403472521        0.1237043044
       -0.7148504568       -0.1219166273
       -0.7141219763       -0.0810858896
       -0.7503874509       -0.0199994284
       -0.7514808230        0.0200592829
       -0.7539639882        0.0606564458
       -0.7230679285        0.1570790000
       -0.7148315033       -0.0412521716
       -0.7193070441        0.0855555412
       -0.7021756605        0.1236201997
       -0.6791782144       -0.1057165978
       -0.6793416604       -0.0634691201
       -0.7159600039       -0.0004283591
       -0.7173830438        0.0409032379
       -0.6831638013        0.1570790000
       -0.6437031162       -0.1267440519
       -0.6803397519       -0.0219726686
       -0.6820821082        0.0602905475
       -0.6816568995        0.0950974505
       -0.6616183503        0.1227914839
       -0.6441455947       -0.0846870916
       -0.6448945577       -0.0431498982
       -0.6815948807        0.0191645019
       -0.6432596740        0.1570790000
       -0.6084729263       -0.1050156697
       -0.6458715113       -0.0016658599
       -0.6470439132        0.0390210000
       -0.6433026734        0.0838809523
       -0.6223463548        0.1205560015
       -0.6099456288       -0.0632788941
       -0.6104459022       -0.0217418463
       -0.6033555468        0.1570790000
       -0.5726522697       -0.1201625665
       -0.5756197523       -0.0809766072
       -0.6117171061        0.0192098301
       -0.6149489958        0.0563196488
       -0.5998072881        0.0863140584
       -0.5819219220        0.1214221627
       -0.5759479313       -0.0406410411
       -0.5750754070        0.0007258566
       -0.5634514196        0.1570790000
       -0.5402697000       -0.1283861409
       -0.5399215939       -0.0968237701
       -0.5429164848       -0.0596495544
       -0.5762273976        0.0479397161
       -0.5602466729        0.0875064770
       -0.5416534618        0.1222945408
       -0.5409963611       -0.0200389090
       -0.5372849564        0.0219930066
       -0.5235472923        0.1570790000
       -0.5032874586       -0.1166351835
       -0.5072846675       -0.0758617745
       -0.5117552692       -0.0410272317
       -0.5388838262        0.0592134094
       -0.5190922616        0.0890368248
       -0.5023134020        0.1236027247
       -0.4938222163       -0.0035178988
       -0.4942412009        0.0486168395
       -0.4836431651        0.1570790000
       -0.4702938739       -0.0856641002
       -0.4606624241       -0.1224151141
       -0.4779603229       -0.0463243602
       -0.4771437111        0.0897508874
       -0.4619851182        0.1254770742
       -0.4583618388        0.0232028775
       -0.4505093440       -0.0179183167
       -0.4437390380        0.1570790000
       -0.4524586603        0.0633774992
       -0.4402183775       -0.0572584878
       -0.4311207821       -0.0957616321
       -0.4250962841       -0.1293123199
       -0.4366931228        0.0987943598
       -0.4274535864        0.1297447950
       -0.4256795964        0.0420032415
       -0.4182260477        0.0085892037
       -0.4096067014       -0.0295734433
       -0.4038349413        0.1570790000
       -0.4107971317        0.0745737459
       -0.4001763266       -0.0700776681
       -0.3887473148       -0.1156649165
       -0.3939678087        0.1141455237
       -0.3908675310        0.0392515132
       -0.3785081870        0.0002539051
       -0.3457037610       -0.1195152760
       -0.3704180377       -0.0404789471
       -0.3639321495        0.1570790000
       -0.3709463932        0.0780563128
       -0.3613008566       -0.0821638135
       -0.3498288989        0.1157610578
       -0.3473570670        0.0341132769
       -0.3401675876       -0.0110798534
       -0.3279769744       -0.0899036030
       -0.3322365291       -0.0535960360
       -0.3240477917        0.1570790000
       -0.3305293300        0.0809668958
       -0.3057501681       -0.1186885049
       -0.3099482458        0.1168866683
       -0.3085235855        0.0138277470
       -0.3099461422        0.0504530382
       -0.3022086201       -0.0286354399
       -0.2934414941       -0.0735751271
       -0.2843332444        0.1570790000
       -0.2917554117        0.0818975919
       -0.2612297475       -0.1125891371
       -0.2754258279        0.1135391447
       -0.2723953925        0.0444252629
       -0.2709270879       -0.0028357299
       -0.2674055973       -0.0413045920
       -0.2577944234       -0.0745367733
       -0.2405759803        0.1251091643
       -0.2553814501        0.0853930679
       -0.2204617608       -0.1201317271
       -0.2271623906       -0.0837089221
       -0.2451257897        0.1570790000
       -0.2389003895        0.0177216405
       -0.2353005257       -0.0204739260
       -0.2344932219        0.0563894721
       -0.2349189396       -0.0519324713
       -0.2071205263        0.1570790000
       -0.2202232711        0.0912764964
       -0.1943249818       -0.0909422602
       -0.1853894265       -0.1250383701
       -0.1988080201       -0.0445809225
       -0.2008442561        0.1216451629
       -0.2070080671       -0.0004191547
       -0.2128841866        0.0310268025
       -0.2023140701        0.0611273076
       -0.1703690187        0.1161027836
       -0.1717580741        0.1570790000
       -0.1883827101        0.0904290042
       -0.1630204448       -0.1008620659
       -0.1687259979       -0.0715450361
       -0.1527422736       -0.1295112319
       -0.1794073974       -0.0070179939
       -0.1839677296        0.0260401842
       -0.1738636323        0.0625301149
       -0.1673877683       -0.0479127669
       -0.1608289397        0.0881730241
       -0.1514475145        0.1337909506
       -0.1706239922       -0.0295331266
       -0.1418623715       -0.0823443889
       -0.1341969922       -0.1072251579
       -0.1452736182       -0.0589280240
       -0.1231708824       -0.1321669950
       -0.1446085467        0.1088434820
       -0.1398225992        0.1570790000
       -0.1589751721        0.0118015330
       -0.1530321381       -0.0118910363
       -0.1571454070        0.0379715682
       -0.1490230522        0.0655074283
       -0.1479686041       -0.0352649497
       -0.1365781877        0.0859637098
       -0.1281174557        0.1292916462
       -0.1235714302       -0.0670364253
       -0.1165975807       -0.0882189580
       -0.1066008838       -0.1111396317
       -0.1274038617       -0.0455456256
       -0.0952674111       -0.1338804094
       -0.1216394911        0.1036779265
       -0.1099814437        0.1570790000
       -0.1366212887        0.0023563998
       -0.1390272052        0.0243286231
       -0.1290734123       -0.0197912736
       -0.1361837852        0.0459255776
       -0.1280170443        0.0666586021
       -0.1160602765        0.0822856272
       -0.1047702100        0.1199993333
       -0.1090251883       -0.0540086325
       -0.1032906410       -0.0723039280
       -0.0916983202       -0.0917861677
       -0.0819460757       -0.1148340117
       -0.1110056687       -0.0351273027
       -0.0701918237       -0.1351274882
       -0.1018262403        0.0962852626
       -0.0860633564        0.1329068662
       -0.1216103250        0.0156633851
       -0.1174383933       -0.0024093962
       -0.1219863875        0.0341914979
       -0.1200093092        0.0509988751
       -0.1101481035        0.0635181477
       -0.1086218795       -0.0168864874
       -0.0990999354        0.0760607353
       -0.0837959169        0.1067649894
       -0.0830575288        0.1570790000
       -0.0926221850       -0.0585722184
       -0.0962193264       -0.0434221470
       -0.0846911601       -0.0732007686
       -0.0693328262       -0.0991186474
       -0.0583044964       -0.1163136874
       -0.0963861254       -0.0286554875
       -0.0452001256       -0.1347054762
       -0.0863379508        0.0861259226
       -0.0663714125        0.1390846484
       -0.0637017948        0.1198022067
       -0.1077902661        0.0260551215
       -0.1056590188        0.0105604458
       -0.1007518741       -0.0033377824
       -0.1055736951        0.0450782740
       -0.0953457619        0.0586091231
       -0.0750098634       -0.0839216469
       -0.0936267001       -0.0147467660
       -0.0844576385        0.0689492339
       -0.0733474282        0.0906859972
       -0.0578714894        0.1570790000
       -0.0612907752        0.0999249553
       -0.0828531416       -0.0478678593
       -0.0778004592       -0.0605001003
       -0.0848068354       -0.0354623837
       -0.0678174936       -0.0713746627
       -0.0597578491       -0.0855384752
       -0.0508172540       -0.0997348634
       -0.0345211837       -0.1133468765
       -0.0844780412       -0.0235553943
       -0.0192901840       -0.1336345533
       -0.0726990259        0.0763492799
       -0.0434025739        0.1315834807
       -0.0452485660        0.1086805213
       -0.0944024054        0.0203250432
       -0.0962983678        0.0330290569
       -0.0914938240        0.0073577821
       -0.0868371895       -0.0038260248
       -0.0903525213        0.0443700834
       -0.0813921327        0.0545414899
       -0.0827672314       -0.0129211163
       -0.0713254284        0.0624532653
       -0.0596277891        0.0833488953
       -0.0325057053        0.1570790000
       -0.0463874564        0.0900980932
       -0.0735639040       -0.0395716837
       -0.0706817197       -0.0499646705
       -0.0666257898       -0.0593726530
       -0.0747985205       -0.0288349089
       -0.0516550087       -0.0732611692
       -0.0444124232       -0.0847143094
       -0.0360406685       -0.0955715932
       -0.0063703047       -0.1104394200
       -0.0747056218       -0.0181412389
        0.0128633712       -0.1281983546
       -0.0598970423        0.0690477968
       -0.0163725902        0.1332126216
       -0.0261240566        0.1132834125
       -0.0311943914        0.0949598403
       -0.0826644115        0.0163523856
       -0.0842481921        0.0295214951
       -0.0795437811        0.0045733842
       -0.0749834727       -0.0060097188
       -0.0775612471        0.0421669677
       -0.0692525945        0.0500706253
       -0.0559979070       -0.0621454446
       -0.0190974062       -0.0953984755
       -0.0597324672        0.0564635719
       -0.0475435871        0.0747716866
       -0.0062605918        0.1570790000
       -0.0342414703        0.0789430118
       -0.0651413200       -0.0328480155
       -0.0629673714       -0.0423028576
       -0.0594787520       -0.0517545518
       -0.0661274340       -0.0231837024
       -0.0375178307       -0.0727740661
       -0.0443884137       -0.0628988468
       -0.0288580922       -0.0828469063
       -0.0010298010       -0.0909604744
        0.0164784193       -0.1021610826
       -0.0661972162       -0.0136443291
        0.0399686860       -0.1346526814
       -0.0491068505        0.0618149444
        0.0124964838        0.1308409101
       -0.0033680960        0.1125604966
       -0.0136694599        0.0964714758
       -0.0201630631        0.0820230821
       -0.0723481302        0.0125855561
       -0.0740993956        0.0226952632
       -0.0735646956        0.0323400337
       -0.0695662683        0.0029715834
       -0.0666339216        0.0392112936
       -0.0587469152        0.0452829003
       -0.0490062967       -0.0535897548
       -0.0137858215       -0.0803927605
        0.0402454753       -0.1101242160
       -0.0648943638       -0.0046424379
       -0.0501714317        0.0505428970
       -0.0370263521        0.0653044408
        0.0220298600        0.1570790000
       -0.0213678477        0.0656349499
       -0.0559294529       -0.0357017787
       -0.0576773287       -0.0270968796
       -0.0529666973       -0.0444381943
       -0.0585122305       -0.0186776859
       -0.0240343237       -0.0707991784
       -0.0320806678       -0.0622028158
       -0.0388226858       -0.0537453453
        0.0003797161       -0.0748016993
        0.0158220099       -0.0815804053
        0.0372196820       -0.0864362628
       -0.0581625515       -0.0105489360
        0.0713743532       -0.1244633261
       -0.0405148404        0.0546195343
        0.0390839788        0.1348856256
        0.0168195700        0.1075802902
        0.0077557677        0.0905791281
       -0.0056577492        0.0828583524
       -0.0093671373        0.0710500411
       -0.0633773680        0.0100370586
       -0.0647578441        0.0188814131
       -0.0649420078        0.0289238063
       -0.0607121304        0.0024003232
       -0.0572789880        0.0350235427
       -0.0499565525        0.0405150152
       -0.0434140472       -0.0457491019
       -0.0114120621       -0.0671709108
        0.0666226723       -0.0875926265
       -0.0572204242       -0.0036266427
       -0.0421528747        0.0448989223
       -0.0287498806        0.0554688819
        0.0544647268        0.1570790000
        0.0376960888        0.1127844003
       -0.0046573379        0.0586334089
       -0.0495677526       -0.0298083377
       -0.0470932463       -0.0376979563
       -0.0510007450       -0.0222905678
       -0.0514849882       -0.0148599033
       -0.0207284473       -0.0597942099
       -0.0280785684       -0.0526929424
       -0.0343813198       -0.0456083639
       -0.0001902166       -0.0613091349
        0.0132880787       -0.0659707204
        0.0294550404       -0.0684159238
        0.0491113678       -0.0676566015
       -0.0500623686       -0.0064534924
        0.1075214875       -0.1294758255
        0.1050941467       -0.0986783256
       -0.0339820425        0.0482298827
       -0.0179778350        0.0533797074
        0.0683918424        0.1204158828
        0.0295764387        0.0913255089
        0.0042812682        0.0728970625
       -0.0553860593        0.0079192148
       -0.0569103076        0.0153194012
       -0.0556828217        0.0252101994
       -0.0527296170        0.0009431740
       -0.0489874122        0.0316309690
       -0.0419844078        0.0363689531
       -0.0386580563       -0.0387360254
       -0.0102816956       -0.0557227476
        0.0725508533       -0.0556570439
        0.0996023083       -0.0651133033
       -0.0344442196        0.0403999061
       -0.0254870363        0.0456488574
        0.0893496214        0.1570790000
        0.0535907207        0.0925052567
        0.0204947784        0.0749881896
       -0.0098984482        0.0489745947
        0.0131043838        0.0611261988
       -0.0437573050       -0.0247254544
       -0.0417537609       -0.0316021102
       -0.0449133994       -0.0181125247
       -0.0453984025       -0.0117544482
       -0.0184244610       -0.0499302635
       -0.0250538094       -0.0441589273
       -0.0307410382       -0.0385351928
       -0.0012926999       -0.0502367256
        0.0100608210       -0.0535186821
        0.0226753777       -0.0553090331
        0.0370408731       -0.0541556474
        0.0545261622       -0.0463255449
       -0.0458772869       -0.0004471364
        0.1434157369       -0.1138937068
        0.1339082440       -0.0743339819
       -0.0166749561        0.0441610878
        0.1106096413        0.1107223315
        0.0808444475        0.0864059252
        0.0395536017        0.0741395523
       -0.0021916524        0.0463020770
        0.0081528072        0.0498489354
       -0.0482649452        0.0060396517
       -0.0500169357        0.0124867592
       -0.0508301983        0.0191375374
       -0.0469916698        0.0241658378
       -0.0412181194        0.0287314210
       -0.0347897143        0.0325893456
       -0.0344304169       -0.0325382747
       -0.0413582482       -0.0063788370
       -0.0098542414       -0.0459292955
        0.0700928083       -0.0341333856
        0.0927743928       -0.0369541168
        0.1878860804       -0.1177817945
        0.1231538758       -0.0391961019
       -0.0276403803        0.0361728523
       -0.0210286175        0.0387994607
        0.1272645794        0.1570790000
        0.0601836943        0.0691209549
        0.0283306794        0.0608771148
       -0.0089976941        0.0409990927
        0.0203281030        0.0504893137
       -0.0384068725       -0.0200863577
       -0.0366937835       -0.0263421819
       -0.0395649272       -0.0136456175
       -0.0169189211       -0.0412960867
       -0.0230144034       -0.0366212763
       -0.0279595404       -0.0326838136
       -0.0024448201       -0.0410120314
        0.0071720502       -0.0435425154
        0.0170795413       -0.0450462113
        0.0282625149       -0.0443854619
        0.0412275936       -0.0392789123
        0.0532643597       -0.0311286826
       -0.0419598458        0.0048733912
       -0.0399634820       -0.0005667784
        0.1727618410       -0.0793123982
        0.1612306600       -0.0402489124
       -0.0151120095        0.0363686494
        0.1547175561        0.1165536549
        0.1119795651        0.0594096192
        0.0838048656        0.0521801865
        0.0445873199        0.0569327985
       -0.0024078249        0.0372819885
        0.0063393582        0.0399830351
        0.0148035331        0.0416143509
       -0.0435645876        0.0107893560
       -0.0448489027        0.0173202960
       -0.0400566640        0.0217102258
       -0.0345922329        0.0256106715
       -0.0284627968        0.0288574150
       -0.0297711496       -0.0274916646
       -0.0347083966       -0.0095126139
       -0.0097899154       -0.0375676388
       -0.0347429427       -0.0030531848
        0.2131727515       -0.0807326683
       -0.0209001012        0.0316545027
        0.1484791446        0.0670214636
        0.1668396227        0.1570790000
        0.0630462336        0.0457679022
        0.0330438478        0.0477439833
       -0.0085838641        0.0337228691
        0.0247279066        0.0402704289
       -0.0336163801       -0.0158269474
       -0.0319936546       -0.0218052921
       -0.0160786696       -0.0337982305
       -0.0226778091       -0.0291266868
        0.0048399649       -0.0354155612
       -0.0034446987       -0.0332663837
        0.0129343239       -0.0366783732
        0.0216555065       -0.0366903448
        0.0314161976       -0.0337157392
        0.0404285331       -0.0280779016
       -0.0361985756        0.0035141302