TITLE = "Visualization of the volumetric solution"
VARIABLES = "x","y","Density","Momentum_x","Momentum_y","Energy","Pressure","Temperature","Mach","C<sub>p</sub>","Roe_Dissipation"
ZONE NODES= 3200, ELEMENTS= 3081, DATAPACKING=POINT, ZONETYPE=FEQUADRILATERAL
-2.000000e+00	1.250000e+00	1.224976e+00	4.206766e+01	-4.424500e-11	2.540019e+05	1.013118e+05	2.881131e+02	1.009231e-01	-1.857839e-02	0.000000e+00	
-2.000000e+00	1.218354e+00	1.224976e+00	4.206766e+01	-3.157259e-09	2.540019e+05	1.013118e+05	2.881131e+02	1.009231e-01	-1.857839e-02	0.000000e+00	
-1.948718e+00	1.218354e+00	1.224976e+00	4.206766e+01	-5.237358e-09	2.540019e+05	1.013118e+05	2.881131e+02	1.009231e-01	-1.857840e-02	0.000000e+00	
-1.948718e+00	1.250000e+00	1.224976e+00	4.206766e+01	-7.019657e-10	2.540019e+05	1.013118e+05	2.881131e+02	1.009231e-01	-1.857840e-02	0.000000e+00	
-2.000000e+00	1.186709e+00	1.224976e+00	4.206766e+01	-3.053156e-09	2.540019e+05	1.013118e+05	2.881131e+02	1.009231e-01	-1.857839e-02	0.000000e+00	
-1.948718e+00	1.186709e+00	1.224976e+00	4.206766e+01	-6.136264e-09	2.540019e+05	1.013118e+05	2.881131e+02	1.009231e-01	-1.857840e-02	0.000000e+00	
-2.000000e+00	1.155063e+00	1.224976e+00	4.206766e+01	-1.877419e-09	2.540019e+05	1.013118e+05	2.881131e+02	1.009231e-01	-1.857839e-02	0.000000e+00	
-1.948718e+00	1.155063e+00	1.224976e+00	4.206766e+01	-5.548113e-09	2.540019e+05	1.013118e+05	2.881131e+02	1.009231e-01	-1.857840e-02	0.000000e+00	
-2.000000e+00	1.123418e+00	1.224976e+00	4.206766e+01	-7.596869e-10	2.540019e+05	1.013118e+05	2.881131e+02	1.009231e-01	-1.857839e-02	0.000000e+00	
-1.948718e+00	1.123418e+00	1.224976e+00	4.206766e+01	-4.317241e-09	2.540019e+05	1.013118e+05	2.881131e+02	1.009231e-01	-1.857840e-02	0.000000e+00	
-2.000000e+00	1.091772e+00	1.224976e+00	4.206766e+01	-1.866731e-10	2.540019e+05	1.013118e+05	2.881131e+02	1.009231e-01	-1.857839e-02	0.000000e+00	
-1.948718e+00	1.091772e+00	1.224976e+00	4.206766e+01	-3.475661e-09	2.540019e+05	1.013118e+05	2.881131e+02	1.009231e-01	-1.857840e-02	0.000000e+00	
-2.000000e+00	1.060127e+00	1.224976e+00	4.206766e+01	-1.423034e-11	2.540019e+05	1.013118e+05	2.881131e+02	1.009231e-01	-1.857839e-02	0.000000e+00	
-1.948718e+00	1.060127e+00	1.224976e+00	4.206766e+01	-3.016024e-09	2.540019e+05	1.013118e+05	2.881131e+02	1.009231e-01	-1.857840e-02	0.000000e+00	
-2.000000e+00	1.028481e+00	1.224976e+00	4.206766e+01	-1.862696e-11	2.540019e+05	1.013118e+05	2.881131e+02	1.009231e-01	-1.857839e-02	0.000000e+00	
-1.948718e+00	1.028481e+00	1.224976e+00	4.206766e+01	-2.831962e-09	2.540019e+05	1.013118e+05	2.881131e+02	1.009231e-01	-1.857840e-02	0.000000e+00	
-2.000000e+00	9.968354e-01	1.224976e+00	4.206766e+01	-4.104787e-11	2.540019e+05	1.013118e+05	2.881131e+02	1.009231e-01	-1.857839e-02	0.000000e+00	
-1.948718e+00	9.968354e-01	1.224976e+00	4.206766e+01	-2.714623e-09	2.540019e+05	1.013118e+05	2.881131e+02	1.009231e-01	-1.857840e-02	0.000000e+00	
-2.000000e+00	9.651899e-01	1.224976e+00	4.206766e+01	-4.219220e-11	2.540019e+05	1.013118e+05	2.881131e+02	1.009231e-01	-1.857839e-02	0.000000e+00	
-1.948718e+00	9.651899e-01	1.224976e+00	4.206766e+01	-2.601270e-09	2.540019e+05	1.013118e+05	2.881131e+02	1.009231e-01	-1.857840e-02	0.000000e+00	
-2.000000e+00	9.335443e-01	1.224976e+00	4.206766e+01	-2.814656e-11	2.540019e+05	1.013118e+05	2.881131e+02	1.009231e-01	-1.857839e-02	0.000000e+00	
-1.948718e+00	9.335443e-01	1.224976e+00	4.206766e+01	-2.470580e-09	2.540019e+05	1.013118e+05	2.881131e+02	1.009231e-01	-1.857840e-02	0.000000e+00	
-2.000000e+00	9.018987e-01	1.224976e+00	4.206766e+01	-1.586069e-11	2.540019e+05	1.013118e+05	2.881131e+02	1.009231e-01	-1.857839e-02	0.000000e+00	
-1.948718e+00	9.018987e-01	1.224976e+00	4.206766e+01	-2.341725e-09	2.540019e+05	1.013118e+05	2.881131e+02	1.009231e-01	-1.857840e-02	0.000000e+00	
-2.000000e+00	8.702532e-01	1.224976e+00	4.206766e+01	-1.077091e-11	2.540019e+05	1.013118e+05	2.881131e+02	1.009231e-01	-1.857839e-02	0.000000e+00	
-1.948718e+00	8.702532e-01	1.224976e+00	4.206766e+01	-2.221165e-09	2.540019e+05	1.013118e+05	2.881131e+02	1.009231e-01	-1.857840e-02	0.000000e+00	
-2.000000e+00	8.386076e-01	1.224976e+00	4.206766e+01	-1.179821e-11	2.540019e+05	1.013118e+05	2.881131e+02	1.009231e-01	-1.857839e-02	0.000000e+00	
-1.948718e+00	8.386076e-01	1.224976e+00	4.206766e+01	-2.112029e-09	2.540019e+05	1.013118e+05	2.881131e+02	1.009231e-01	-1.857840e-02	0.000000e+00	
-2.000000e+00	8.069620e-01	1.224976e+00	4.206766e+01	-1.498319e-11	2.540019e+05	1.013118e+05	2.881131e+02	1.009231e-01	-1.857840e-02	0.000000e+00	
-1.948718e+00	8.069620e-01	1.224976e+00	4.206766e+01	-2.009460e-09	2.540019e+05	1.013118e+05	2.881131e+02	1.009231e-01	-1.857840e-02	0.000000e+00	
-2.000000e+00	7.753165e-01	1.224976e+00	4.206766e+01	-1.808065e-11	2.540019e+05	1.013118e+05	2.881131e+02	1.009231e-01	-1.857840e-02	0.000000e+00	
-1.948718e+00	7.753165e-01	1.224976e+00	4.206766e+01	-1.910137e-09	2.540019e+05	1.013118e+05	2.881131e+02	1.009231e-01	-1.857840e-02	0.000000e+00	
-2.000000e+00	7.436709e-01	1.224976e+00	4.206766e+01	-2.023978e-11	2.540019e+05	1.013118e+05	2.881131e+02	1.009231e-01	-1.857840e-02	0.000000e+00	
-1.948718e+00	7.436709e-01	1.224976e+00	4.206766e+01	-1.811414e-09	2.540019e+05	1.013118e+05	2.881131e+02	1.009231e-01	-1.857840e-02	0.000000e+00	
-2.000000e+00	7.120253e-01	1.224976e+00	4.206766e+01	-2.165909e-11	2.540019e+05	1.013118e+05	2.881131e+02	1.009231e-01	-1.857840e-02	0.000000e+00	
-1.948718e+00	7.120253e-01	1.224976e+00	4.206766e+01	-1.712284e-09	2.540019e+05	1.013118e+05	2.881131e+02	1.009231e-01	-1.857840e-02	0.000000e+00	
-2.000000e+00	6.803797e-01	1.224976e+00	4.206766e+01	-2.268195e-11	2.540019e+05	1.013118e+05	2.881131e+02	1.009231e-01	-1.857840e-02	0.000000e+00	
-1.948718e+00	6.803797e-01	1.224976e+00	4.206766e+01	-1.612652e-09	2.540019e+05	1.013118e+05	2.881131e+02	1.009231e-01	-1.857840e-02	0.000000e+00	
-2.000000e+00	6.487342e-01	1.224976e+00	4.206766e+01	-2.361925e-11	2.540019e+05	1.013118e+05	2.881131e+02	1.009231e-01	-1.857840e-02	0.000000e+00	
-1.948718e+00	6.487342e-01	1.224976e+00	4.206766e+01	-1.512117e-09	2.540019e+05	1.013118e+05	2.881131e+02	1.009231e-01	-1.857840e-02	0.000000e+00	
-2.000000e+00	6.170886e-01	1.224976e+00	4.206766e+01	-2.423874e-11	2.540019e+05	1.013118e+05	2.881131e+02	1.009231e-01	-1.857840e-02	0.000000e+00	
-1.948718e+00	6.170886e-01	1.224976e+00	4.206766e+01	-1.410500e-09	2.540019e+05	1.013118e+05	2.881131e+02	1.009231e-01	-1.857840e-02	0.000000e+00	
-2.000000e+00	5.854430e-01	1.224976e+00	4.206766e+01	-2.495565e-11	2.540019e+05	1.013118e+05	2.881131e+02	1.009231e-01	-1.857840e-02	0.000000e+00	
-1.948718e+00	5.854430e-01	1.224976e+00	4.206766e+01	-1.307893e-09	2.540019e+05	1.013118e+05	2.881131e+02	1.009231e-01	-1.857840e-02	0.000000e+00	
-2.000000e+00	5.537975e-01	1.224976e+00	4.206766e+01	-2.514900e-11	2.540019e+05	1.013118e+05	2.881131e+02	1.009231e-01	-1.857840e-02	0.000000e+00	
-1.948718e+00	5.537975e-01	1.224976e+00	4.206766e+01	-1.203736e-09	2.540019e+05	1.013118e+05	2.881131e+02	1.009231e-01	-1.857840e-02	0.000000e+00	
-2.000000e+00	5.221519e-01	1.224976e+00	4.206766e+01	-2.535539e-11	2.540019e+05	1.013118e+05	2.881131e+02	1.009231e-01	-1.857840e-02	0.000000e+00	
-1.948718e+00	5.221519e-01	1.224976e+00	4.206766e+01	-1.098492e-09	2.540019e+05	1.013118e+05	2.881131e+02	1.009231e-01	-1.857840e-02	0.000000e+00	
-2.000000e+00	4.905063e-01	1.224976e+00	4.206766e+01	-2.542786e-11	2.540019e+05	1.013118e+05	2.881131e+02	1.009231e-01	-1.857840e-02	0.000000e+00	
-1.948718e+00	4.905063e-01	1.224976e+00	4.206766e+01	-9.920575e-10	2.540019e+05	1.013118e+05	2.881131e+02	1.009231e-01	-1.857840e-02	0.000000e+00	
-2.000000e+00	4.588608e-01	1.224976e+00	4.206766e+01	-2.548817e-11	2.540019e+05	1.013118e+05	2.881131e+02	1.009231e-01	-1.857840e-02	0.000000e+00	
-1.948718e+00	4.588608e-01	1.224976e+00	4.206766e+01	-8.845861e-10	2.540019e+05	1.013118e+05	2.881131e+02	1.009231e-01	-1.857840e-02	0.000000e+00	
-2.000000e+00	4.272152e-01	1.224976e+00	4.206766e+01	-2.554542e-11	2.540019e+05	1.013118e+05	2.881131e+02	1.009231e-01	-1.857840e-02	0.000000e+00	
-1.948718e+00	4.272152e-01	1.224976e+00	4.206766e+01	-7.763052e-10	2.540019e+05	1.013118e+05	2.881131e+02	1.009231e-01	-1.857840e-02	0.000000e+00	
-2.000000e+00	3.955696e-01	1.224976e+00	4.206766e+01	-2.516512e-11	2.540019e+05	1.013118e+05	2.881131e+02	1.009231e-01	-1.857840e-02	0.000000e+00	
-1.948718e+00	3.955696e-01	1.224976e+00	4.206766e+01	-6.670628e-10	2.540019e+05	1.013118e+05	2.881131e+02	1.009231e-01	-1.857840e-02	0.000000e+00	
-2.000000e+00	3.639241e-01	1.224976e+00	4.206766e+01	-2.503764e-11	2.540019e+05	1.013118e+05	2.881131e+02	1.009231e-01	-1.857840e-02	0.000000e+00	
-1.948718e+00	3.639241e-01	1.224976e+00	4.206766e+01	-5.575041e-10	2.540019e+05	1.013118e+05	2.881131e+02	1.009231e-01	-1.857840e-02	0.000000e+00	
-2.000000e+00	3.322785e-01	1.224976e+00	4.206766e+01	-2.465302e-11	2.540019e+05	1.013118e+05	2.881131e+02	1.009231e-01	-1.857840e-02	0.000000e+00	
-1.948718e+00	3.322785e-01	1.224976e+00	4.206766e+01	-4.475931e-10	2.540019e+05	1.013118e+05	2.881131e+02	1.009231e-01	-1.857840e-02	0.000000e+00	
-2.000000e+00	3.006329e-01	1.224976e+00	4.206766e+01	-2.433335e-11	2.540019e+05	1.013118e+05	2.881131e+02	1.009231e-01	-1.857840e-02	0.000000e+00	
-1.948718e+00	3.006329e-01	1.224976e+00	4.206766e+01	-3.377884e-10	2.540019e+05	1.013118e+05	2.881131e+02	1.009231e-01	-1.857840e-02	0.000000e+00	
-2.000000e+00	2.689873e-01	1.224976e+00	4.206766e+01	-2.405915e-11	2.540019e+05	1.013118e+05	2.881131e+02	1.009231e-01	-1.857840e-02	0.000000e+00	
-1.948718e+00	2.689873e-01	1.224976e+00	4.206766e+01	-2.282995e-10	2.540019e+05	1.013118e+05	2.881131e+02	1.009231e-01	-1.857840e-02	0.000000e+00	
-2.000000e+00	2.373418e-01	1.224976e+00	4.206766e+01	-2.356840e-11	2.540019e+05	1.013118e+05	2.881131e+02	1.009231e-01	-1.857840e-02	0.000000e+00	
-1.948718e+00	2.373418e-01	1.224976e+00	4.206766e+01	-1.193116e-10	2.540019e+05	1.013118e+05	2.881131e+02	1.009231e-01	-1.857840e-02	0.000000e+00	
-2.000000e+00	2.056962e-01	1.224976e+00	4.206766e+01	-2.311587e-11	2.540019e+05	1.013118e+05	2.881131e+02	1.009231e-01	-1.857840e-02	0.000000e+00	
-1.948718e+00	2.056962e-01	1.224976e+00	4.206766e+01	-1.125633e-11	2.540019e+05	1.013118e+05	2.881131e+02	1.009231e-01	-1.857840e-02	0.000000e+00	
-2.000000e+00	1.740506e-01	1.224976e+00	4.206766e+01	-2.281791e-11	2.540019e+05	1.013118e+05	2.881131e+02	1.009231e-01	-1.857840e-02	0.000000e+00	
-1.948718e+00	1.740506e-01	1.224976e+00	4.206766e+01	9.559305e-11	2.540019e+05	1.013118e+05	2.881131e+02	1.009231e-01	-1.857840e-02	0.000000e+00	
-2.000000e+00	1.424051e-01	1.224976e+00	4.206766e+01	-2.224135e-11	2.540019e+05	1.013118e+05	2.881131e+02	1.009231e-01	-1.857840e-02	0.000000e+00	
-1.948718e+00	1.424051e-01	1.224976e+00	4.206766e+01	2.009915e-10	2.540019e+05	1.013118e+05	2.881131e+02	1.009231e-01	-1.857840e-02	0.000000e+00	
-2.000000e+00	1.107595e-01	1.224976e+00	4.206766e+01	-2.172534e-11	2.540019e+05	1.013118e+05	2.881131e+02	1.009231e-01	-1.857840e-02	0.000000e+00	
-1.948718e+00	1.107595e-01	1.224976e+00	4.206766e+01	3.045709e-10	2.540019e+05	1.013118e+05	2.881131e+02	1.009231e-01	-1.857840e-02	0.000000e+00	
-2.000000e+00	7.911392e-02	1.224976e+00	4.206766e+01	-2.155006e-11	2.540019e+05	1.013118e+05	2.881131e+02	1.009231e-01	-1.857840e-02	0.000000e+00	
-1.948718e+00	7.911392e-02	1.224976e+00	4.206766e+01	4.058051e-10	2.540019e+05	1.013118e+05	2.881131e+02	1.009231e-01	-1.857840e-02	0.000000e+00	
-2.000000e+00	4.746835e-02	1.224976e+00	4.206766e+01	-2.124497e-11	2.540019e+05	1.013118e+05	2.881131e+02	1.009231e-01	-1.857840e-02	0.000000e+00	
-1.948718e+00	4.746835e-02	1.224976e+00	4.206766e+01	5.044294e-10	2.540019e+05	1.013118e+05	2.881131e+02	1.009231e-01	-1.857840e-02	0.000000e+00	
-2.000000e+00	1.582278e-02	1.224976e+00	4.206766e+01	-2.058586e-11	2.540019e+05	1.013118e+05	2.881131e+02	1.009231e-01	-1.857840e-02	0.000000e+00	
-1.948718e+00	1.582278e-02	1.224976e+00	4.206766e+01	6.005708e-10	2.540019e+05	1.013118e+05	2.881131e+02	1.009231e-01	-1.857840e-02	0.000000e+00	
-2.000000e+00	-1.582278e-02	1.224976e+00	4.206766e+01	-1.982885e-11	2.540019e+05	1.013118e+05	2.881131e+02	1.009231e-01	-1.857840e-02	0.000000e+00	
-1.948718e+00	-1.582278e-02	1.224976e+00	4.206766e+01	6.935304e-10	2.540019e+05	1.013118e+05	2.881131e+02	1.009231e-01	-1.857840e-02	0.000000e+00	
-2.000000e+00	-4.746835e-02	1.224976e+00	4.206766e+01	-1.936774e-11	2.540019e+05	1.013118e+05	2.881131e+02	1.009231e-01	-1.857840e-02	0.000000e+00	
-1.948718e+00	-4.746835e-02	1.224976e+00	4.206766e+01	7.829788e-10	2.540019e+05	1.013118e+05	2.881131e+02	1.009231e-01	-1.857840e-02	0.000000e+00	
-2.000000e+00	-7.911392e-02	1.224976e+00	4.206766e+01	-1.892059e-11	2.540019e+05	1.013118e+05	2.881131e+02	1.009231e-01	-1.857840e-02	0.000000e+00	
-1.948718e+00	-7.911392e-02	1.224976e+00	4.206766e+01	8.684563e-10	2.540019e+05	1.013118e+05	2.881131e+02	1.009231e-01	-1.857840e-02	0.000000e+00	
-2.000000e+00	-1.107595e-01	1.224976e+00	4.206766e+01	-1.862441e-11	2.540019e+05	1.013118e+05	2.881131e+02	1.009231e-01	-1.857840e-02	0.000000e+00	
-1.948718e+00	-1.107595e-01	1.224976e+00	4.206766e+01	9.497158e-10	2.540019e+05	1.013118e+05	2.881131e+02	1.009231e-01	-1.857840e-02	0.000000e+00	
-2.000000e+00	-1.424051e-01	1.224976e+00	4.206766e+01	-1.818047e-11	2.540019e+05	1.013118e+05	2.881131e+02	1.009231e-01	-1.857840e-02	0.000000e+00	
-1.948718e+00	-1.424051e-01	1.224976e+00	4.206766e+01	1.026702e-09	2.540019e+05	1.013118e+05	2.881131e+02	1.009231e-01	-1.857840e-02	0.000000e+00	
-2.000000e+00	-1.740506e-01	1.224976e+00	4.206766e+01	-1.794301e-11	2.540019e+05	1.013118e+05	2.881131e+02	1.009231e-01	-1.857840e-02	0.000000e+00	
-1.948718e+00	-1.740506e-01	1.224976e+00	4.206766e+01	1.098763e-09	2.540019e+05	1.013118e+05	2.881131e+02	1.009231e-01	-1.857840e-02	0.000000e+00	
-2.000000e+00	-2.056962e-01	1.224976e+00	4.206766e+01	-1.763935e-11	2.540019e+05	1.013118e+05	2.881131e+02	1.009231e-01	-1.857840e-02	0.000000e+00	
-1.948718e+00	-2.056962e-01	1.224976e+00	4.206766e+01	1.165957e-09	2.540019e+05	1.013118e+05	2.881131e+02	1.009231e-01	-1.857840e-02	0.000000e+00	
-2.000000e+00	-2.373418e-01	1.224976e+00	4.206766e+01	-1.747176e-11	2.540019e+05	1.013118e+05	2.881131e+02	1.009231e-01	-1.857840e-02	0.000000e+00	
-1.948718e+00	-2.373418e-01	1.224976e+00	4.206766e+01	1.227810e-09	2.540019e+05	1.013118e+05	2.881131e+02	1.009231e-01	-1.857840e-02	0.000000e+00	
-2.000000e+00	-2.689873e-01	1.224976e+00	4.206766e+01	-1.732308e-11	2.540019e+05	1.013118e+05	2.881131e+02	1.009231e-01	-1.857840e-02	0.000000e+00	
-1.948718e+00	-2.689873e-01	1.224976e+00	4.206766e+01	1.284383e-09	2.540019e+05	1.013118e+05	2.881131e+02	1.009231e-01	-1.857840e-02	0.000000e+00	
-2.000000e+00	-3.006329e-01	1.224976e+00	4.206766e+01	-1.703316e-11	2.540019e+05	1.013118e+05	2.881131e+02	1.009231e-01	-1.857840e-02	0.000000e+00	
-1.948718e+00	-3.006329e-01	1.224976e+00	4.206766e+01	1.335272e-09	2.540019e+05	1.013118e+05	2.881131e+02	1.009231e-01	-1.857840e-02	0.000000e+00	
-2.000000e+00	-3.322785e-01	1.224976e+00	4.206766e+01	-1.720624e-11	2.540019e+05	1.013118e+05	2.881131e+02	1.009231e-01	-1.857840e-02	0.000000e+00	
-1.948718e+00	-3.322785e-01	1.224976e+00	4.206766e+01	1.380408e-09	2.540019e+05	1.013118e+05	2.881131e+02	1.009231e-01	-1.857840e-02	0.000000e+00	
-2.000000e+00	-3.639241e-01	1.224976e+00	4.206766e+01	-1.730730e-11	2.540019e+05	1.013118e+05	2.881131e+02	1.009231e-01	-1.857840e-02	0.000000e+00	
-1.948718e+00	-3.639241e-01	1.224976e+00	4.206766e+01	1.419658e-09	2.540019e+05	1.013118e+05	2.881131e+02	1.009231e-01	-1.857840e-02	0.000000e+00	
-2.000000e+00	-3.955696e-01	1.224976e+00	4.206766e+01	-1.744413e-11	2.540019e+05	1.013118e+05	2.881131e+02	1.009231e-01	-1.857840e-02	0.000000e+00	
-1.948718e+00	-3.955696e-01	1.224976e+00	4.206766e+01	1.453260e-09	2.540019e+05	1.013118e+05	2.881131e+02	1.009231e-01	-1.857840e-02	0.000000e+00	
-2.000000e+00	-4.272152e-01	1.224976e+00	4.206766e+01	-1.795210e-11	2.540019e+05	1.013118e+05	2.881131e+02	1.009231e-01	-1.857840e-02	0.000000e+00	
-1.948718e+00	-4.272152e-01	1.224976e+00	4.206766e+01	1.480694e-09	2.540019e+05	1.013118e+05	2.881131e+02	1.009231e-01	-1.857840e-02	0.000000e+00	
-2.000000e+00	-4.588608e-01	1.224976e+00	4.206766e+01	-1.830962e-11	2.540019e+05	1.013118e+05	2.881131e+02	1.009231e-01	-1.857840e-02	0.000000e+00	
-1.948718e+00	-4.588608e-01	1.224976e+00	4.206766e+01	1.502689e-09	2.540019e+05	1.013118e+05	2.881131e+02	1.009231e-01	-1.857840e-02	0.000000e+00	
-2.000000e+00	-4.905063e-01	1.224976e+00	4.206766e+01	-1.890462e-11	2.540019e+05	1.013118e+05	2.881131e+02	1.009231e-01	-1.857840e-02	0.000000e+00	
-1.948718e+00	-4.905063e-01	1.224976e+00	4.206766e+01	1.519123e-09	2.540019e+05	1.013118e+05	2.881131e+02	1.009231e-01	-1.857840e-02	0.000000e+00	
-2.000000e+00	-5.221519e-01	1.224976e+00	4.206766e+01	-1.968409e-11	2.540019e+05	1.013118e+05	2.881131e+02	1.009231e-01	-1.857839e-02	0.000000e+00	
-1.948718e+00	-5.221519e-01	1.224976e+00	4.206766e+01	1.530273e-09	2.540019e+05	1.013118e+05	2.881131e+02	1.009231e-01	-1.857840e-02	0.000000e+00	
-2.000000e+00	-5.537975e-01	1.224976e+00	4.206766e+01	-2.065840e-11	2.540019e+05	1.013118e+05	2.881131e+02	1.009231e-01	-1.857839e-02	0.000000e+00	
-1.948718e+00	-5.537975e-01	1.224976e+00	4.206766e+01	1.536331e-09	2.540019e+05	1.013118e+05	2.881131e+02	1.009231e-01	-1.857840e-02	0.000000e+00	
-2.000000e+00	-5.854430e-01	1.224976e+00	4.206766e+01	-2.184607e-11	2.540019e+05	1.013118e+05	2.881131e+02	1.009231e-01	-1.857839e-02	0.000000e+00	
-1.948718e+00	-5.854430e-01	1.224976e+00	4.206766e+01	1.537898e-09	2.540019e+05	1.013118e+05	2.881131e+02	1.009231e-01	-1.857840e-02	0.000000e+00	
-2.000000e+00	-6.170886e-01	1.224976e+00	4.206766e+01	-2.339559e-11	2.540019e+05	1.013118e+05	2.881131e+02	1.009231e-01	-1.857839e-02	0.000000e+00	
-1.948718e+00	-6.170886e-01	1.224976e+00	4.206766e+01	1.535396e-09	2.540019e+05	1.013118e+05	2.881131e+02	1.009231e-01	-1.857840e-02	0.000000e+00	
-2.000000e+00	-6.487342e-01	1.224976e+00	4.206766e+01	-2.511073e-11	2.540019e+05	1.013118e+05	2.881131e+02	1.009231e-01	-1.857839e-02	0.000000e+00	
-1.948718e+00	-6.487342e-01	1.224976e+00	4.206766e+01	1.529689e-09	2.540019e+05	1.013118e+05	2.881131e+02	1.009231e-01	-1.857840e-02	0.000000e+00	
-2.000000e+00	-6.803797e-01	1.224976e+00	4.206766e+01	-2.693069e-11	2.540019e+05	1.013118e+05	2.881131e+02	1.009231e-01	-1.857839e-02	0.000000e+00	
-1.948718e+00	-6.803797e-01	1.224976e+00	4.206766e+01	1.521650e-09	2.540019e+05	1.013118e+05	2.881131e+02	1.009231e-01	-1.857840e-02	0.000000e+00	
-2.000000e+00	-7.120253e-01	1.224976e+00	4.206766e+01	-2.935326e-11	2.540019e+05	1.013118e+05	2.881131e+02	1.009231e-01	-1.857839e-02	0.000000e+00	
-1.948718e+00	-7.120253e-01	1.224976e+00	4.206766e+01	1.511897e-09	2.540019e+05	1.013118e+05	2.881131e+02	1.009231e-01	-1.857840e-02	0.000000e+00	
-2.000000e+00	-7.436709e-01	1.224976e+00	4.206766e+01	-3.211181e-11	2.540019e+05	1.013118e+05	2.881131e+02	1.009231e-01	-1.857839e-02	0.000000e+00	
-1.948718e+00	-7.436709e-01	1.224976e+00	4.206766e+01	1.501634e-09	2.540019e+05	1.013118e+05	2.881131e+02	1.009231e-01	-1.857840e-02	0.000000e+00	
-2.000000e+00	-7.753165e-01	1.224976e+00	4.206766e+01	-3.558714e-11	2.540019e+05	1.013118e+05	2.881131e+02	1.009231e-01	-1.857839e-02	0.000000e+00	
-1.948718e+00	-7.753165e-01	1.224976e+00	4.206766e+01	1.491957e-09	2.540019e+05	1.013118e+05	2.881131e+02	1.009231e-01	-1.857840e-02	0.000000e+00	
-2.000000e+00	-8.069620e-01	1.224976e+00	4.206766e+01	-3.987782e-11	2.540019e+05	1.013118e+05	2.881131e+02	1.009231e-01	-1.857839e-02	0.000000e+00	
-1.948718e+00	-8.069620e-01	1.224976e+00	4.206766e+01	1.484708e-09	2.540019e+05	1.013118e+05	2.881131e+02	1.009231e-01	-1.857840e-02	0.000000e+00	
-2.000000e+00	-8.386076e-01	1.224976e+00	4.206766e+01	-4.426983e-11	2.540019e+05	1.013118e+05	2.881131e+02	1.009231e-01	-1.857839e-02	0.000000e+00	
-1.948718e+00	-8.386076e-01	1.224976e+00	4.206766e+01	1.483286e-09	2.540019e+05	1.013118e+05	2.881131e+02	1.009231e-01	-1.857840e-02	0.000000e+00	
-2.000000e+00	-8.702532e-01	1.224976e+00	4.206766e+01	-4.632454e-11	2.540019e+05	1.013118e+05	2.881131e+02	1.009231e-01	-1.857839e-02	0.000000e+00	
-1.948718e+00	-8.702532e-01	1.224976e+00	4.206766e+01	1.491902e-09	2.540019e+05	1.013118e+05	2.881131e+02	1.009231e-01	-1.857840e-02	0.000000e+00	
-2.000000e+00	-9.018987e-01	1.224976e+00	4.206766e+01	-4.251229e-11	2.540019e+05	1.013118e+05	2.881131e+02	1.009231e-01	-1.857839e-02	0.000000e+00	
-1.948718e+00	-9.018987e-01	1.224976e+00	4.206766e+01	1.516071e-09	2.540019e+05	1.013118e+05	2.881131e+02	1.009231e-01	-1.857840e-02	0.000000e+00	
-2.000000e+00	-9.335443e-01	1.224976e+00	4.206766e+01	-3.163730e-11	2.540019e+05	1.013118e+05	2.881131e+02	1.009231e-01	-1.857839e-02	0.000000e+00	
-1.948718e+00	-9.335443e-01	1.224976e+00	4.206766e+01	1.553753e-09	2.540019e+05	1.013118e+05	2.881131e+02	1.009231e-01	-1.857840e-02	0.000000e+00	
-2.000000e+00	-9.651899e-01	1.224976e+00	4.206766e+01	-1.873830e-11	2.540019e+05	1.013118e+05	2.881131e+02	1.009231e-01	-1.857839e-02	0.000000e+00	
-1.948718e+00	-9.651899e-01	1.224976e+00	4.206766e+01	1.599368e-09	2.540019e+05	1.013118e+05	2.881131e+02	1.009231e-01	-1.857840e-02	0.000000e+00	
-2.000000e+00	-9.968354e-01	1.224976e+00	4.206766e+01	-2.071400e-11	2.540019e+05	1.013118e+05	2.881131e+02	1.009231e-01	-1.857839e-02	0.000000e+00	
-1.948718e+00	-9.968354e-01	1.224976e+00	4.206766e+01	1.634981e-09	2.540019e+05	1.013118e+05	2.881131e+02	1.009231e-01	-1.857840e-02	0.000000e+00	
-2.000000e+00	-1.028481e+00	1.224976e+00	4.206766e+01	-4.312871e-11	2.540019e+05	1.013118e+05	2.881131e+02	1.009231e-01	-1.857839e-02	0.000000e+00	
-1.948718e+00	-1.028481e+00	1.224976e+00	4.206766e+01	1.682461e-09	2.540019e+05	1.013118e+05	2.881131e+02	1.009231e-01	-1.857840e-02	0.000000e+00	
-2.000000e+00	-1.060127e+00	1.224976e+00	4.206766e+01	-4.687999e-11	2.540019e+05	1.013118e+05	2.881131e+02	1.009231e-01	-1.857839e-02	0.000000e+00	
-1.948718e+00	-1.060127e+00	1.224976e+00	4.206766e+01	1.805311e-09	2.540019e+05	1.013118e+05	2.881131e+02	1.009231e-01	-1.857840e-02	0.000000e+00	
-2.000000e+00	-1.091772e+00	1.224976e+00	4.206766e+01	1.258505e-10	2.540019e+05	1.013118e+05	2.881131e+02	1.009231e-01	-1.857839e-02	0.000000e+00	
-1.948718e+00	-1.091772e+00	1.224976e+00	4.206766e+01	2.211481e-09	2.540019e+05	1.013118e+05	2.881131e+02	1.009231e-01	-1.857840e-02	0.000000e+00	
-2.000000e+00	-1.123418e+00	1.224976e+00	4.206766e+01	6.979234e-10	2.540019e+05	1.013118e+05	2.881131e+02	1.009231e-01	-1.857839e-02	0.000000e+00	
-1.948718e+00	-1.123418e+00	1.224976e+00	4.206766e+01	3.007285e-09	2.540019e+05	1.013118e+05	2.881131e+02	1.009231e-01	-1.857840e-02	0.000000e+00	
-2.000000e+00	-1.155063e+00	1.224976e+00	4.206766e+01	1.810799e-09	2.540019e+05	1.013118e+05	2.881131e+02	1.009231e-01	-1.857839e-02	0.000000e+00	
-1.948718e+00	-1.155063e+00	1.224976e+00	4.206766e+01	4.197067e-09	2.540019e+05	1.013118e+05	2.881131e+02	1.009231e-01	-1.857840e-02	0.000000e+00	
-2.000000e+00	-1.186709e+00	1.224976e+00	4.206766e+01	2.978594e-09	2.540019e+05	1.013118e+05	2.881131e+02	1.009231e-01	-1.857839e-02	0.000000e+00	
-1.948718e+00	-1.186709e+00	1.224976e+00	4.206766e+01	4.754413e-09	2.540019e+05	1.013118e+05	2.881131e+02	1.009231e-01	-1.857840e-02	0.000000e+00	
-2.000000e+00	-1.218354e+00	1.224976e+00	4.206766e+01	3.076416e-09	2.540019e+05	1.013118e+05	2.881131e+02	1.009231e-01	-1.857839e-02	0.000000e+00	
-1.948718e+00	-1.218354e+00	1.224976e+00	4.206766e+01	3.829193e-09	2.540019e+05	1.013118e+05	2.881131e+02	1.009231e-01	-1.857840e-02	0.000000e+00	
-1.897436e+00	1.218354e+00	1.224976e+00	4.206766e+01	-6.861456e-09	2.540019e+05	1.013118e+05	2.881131e+02	1.009231e-01	-1.857840e-02	0.000000e+00	
-1.897436e+00	1.250000e+00	1.224976e+00	4.206766e+01	-1.383386e-09	2.540019e+05	1.013118e+05	2.881131e+02	1.009231e-01	-1.857840e-02	0.000000e+00	
-1.897436e+00	1.186709e+00	1.224976e+00	4.206766e+01	-9.022790e-09	2.540019e+05	1.013118e+05	2.881131e+02	1.009231e-01	-1.857840e-02	0.000000e+00	
-1.897436e+00	1.155063e+00	1.224976e+00	4.206766e+01	-9.055635e-09	2.540019e+05	1.013118e+05	2.881131e+02	1.009231e-01	-1.857840e-02	0.000000e+00	
-1.897436e+00	1.123418e+00	1.224976e+00	4.206766e+01	-7.830688e-09	2.540019e+05	1.013118e+05	2.881131e+02	1.009231e-01	-1.857840e-02	0.000000e+00	
-1.897436e+00	1.091772e+00	1.224976e+00	4.206766e+01	-6.720300e-09	2.540019e+05	1.013118e+05	2.881131e+02	1.009231e-01	-1.857840e-02	0.000000e+00	
-1.897436e+00	1.060127e+00	1.224976e+00	4.206766e+01	-5.953219e-09	2.540019e+05	1.013118e+05	2.881131e+02	1.009231e-01	-1.857840e-02	0.000000e+00	
-1.897436e+00	1.028481e+00	1.224976e+00	4.206766e+01	-5.561023e-09	2.540019e+05	1.013118e+05	2.881131e+02	1.009231e-01	-1.857840e-02	0.000000e+00	
-1.897436e+00	9.968354e-01	1.224976e+00	4.206766e+01	-5.307930e-09	2.540019e+05	1.013118e+05	2.881131e+02	1.009231e-01	-1.857840e-02	0.000000e+00	
-1.897436e+00	9.651899e-01	1.224976e+00	4.206766e+01	-5.096329e-09	2.540019e+05	1.013118e+05	2.881131e+02	1.009231e-01	-1.857840e-02	0.000000e+00	
-1.897436e+00	9.335443e-01	1.224976e+00	4.206766e+01	-4.867695e-09	2.540019e+05	1.013118e+05	2.881131e+02	1.009231e-01	-1.857840e-02	0.000000e+00	
-1.897436e+00	9.018987e-01	1.224976e+00	4.206766e+01	-4.636203e-09	2.540019e+05	1.013118e+05	2.881131e+02	1.009231e-01	-1.857840e-02	0.000000e+00	
-1.897436e+00	8.702532e-01	1.224976e+00	4.206766e+01	-4.409332e-09	2.540019e+05	1.013118e+05	2.881131e+02	1.009231e-01	-1.857840e-02	0.000000e+00	
-1.897436e+00	8.386076e-01	1.224976e+00	4.206766e+01	-4.195816e-09	2.540019e+05	1.013118e+05	2.881131e+02	1.009231e-01	-1.857840e-02	0.000000e+00	
-1.897436e+00	8.069620e-01	1.224976e+00	4.206766e+01	-3.991699e-09	2.540019e+05	1.013118e+05	2.881131e+02	1.009231e-01	-1.857840e-02	0.000000e+00	
-1.897436e+00	7.753165e-01	1.224976e+00	4.206766e+01	-3.793475e-09	2.540019e+05	1.013118e+05	2.881131e+02	1.009231e-01	-1.857840e-02	0.000000e+00	
-1.897436e+00	7.436709e-01	1.224976e+00	4.206766e+01	-3.596766e-09	2.540019e+05	1.013118e+05	2.881131e+02	1.009231e-01	-1.857840e-02	0.000000e+00	
-1.897436e+00	7.120253e-01	1.224976e+00	4.206766e+01	-3.399608e-09	2.540019e+05	1.013118e+05	2.881131e+02	1.009231e-01	-1.857840e-02	0.000000e+00	
-1.897436e+00	6.803797e-01	1.224976e+00	4.206766e+01	-3.201006e-09	2.540019e+05	1.013118e+05	2.881131e+02	1.009231e-01	-1.857840e-02	0.000000e+00	
-1.897436e+00	6.487342e-01	1.224976e+00	4.206766e+01	-3.000204e-09	2.540019e+05	1.013118e+05	2.881131e+02	1.009231e-01	-1.857840e-02	0.000000e+00	
-1.897436e+00	6.170886e-01	1.224976e+00	4.206766e+01	-2.797115e-09	2.540019e+05	1.013118e+05	2.881131e+02	1.009231e-01	-1.857840e-02	0.000000e+00	
-1.897436e+00	5.854430e-01	1.224976e+00	4.206766e+01	-2.591450e-09	2.540019e+05	1.013118e+05	2.881131e+02	1.009231e-01	-1.857840e-02	0.000000e+00	
-1.897436e+00	5.537975e-01	1.224976e+00	4.206766e+01	-2.383105e-09	2.540019e+05	1.013118e+05	2.881131e+02	1.009231e-01	-1.857840e-02	0.000000e+00	
-1.897436e+00	5.221519e-01	1.224976e+00	4.206766e+01	-2.172098e-09	2.540019e+05	1.013118e+05	2.881131e+02	1.009231e-01	-1.857840e-02	0.000000e+00	
-1.897436e+00	4.905063e-01	1.224976e+00	4.206766e+01	-1.958771e-09	2.540019e+05	1.013118e+05	2.881131e+02	1.009231e-01	-1.857840e-02	0.000000e+00	
-1.897436e+00	4.588608e-01	1.224976e+00	4.206766e+01	-1.743155e-09	2.540019e+05	1.013118e+05	2.881131e+02	1.009231e-01	-1.857840e-02	0.000000e+00	
-1.897436e+00	4.272152e-01	1.224976e+00	4.206766e+01	-1.525848e-09	2.540019e+05	1.013118e+05	2.881131e+02	1.009231e-01	-1.857840e-02	0.000000e+00	
-1.897436e+00	3.955696e-01	1.224976e+00	4.206766e+01	-1.306841e-09	2.540019e+05	1.013118e+05	2.881131e+02	1.009231e-01	-1.857840e-02	0.000000e+00	
-1.897436e+00	3.639241e-01	1.224976e+00	4.206766e+01	-1.087016e-09	2.540019e+05	1.013118e+05	2.881131e+02	1.009231e-01	-1.857840e-02	0.000000e+00	
-1.897436e+00	3.322785e-01	1.224976e+00	4.206766e+01	-8.665062e-10	2.540019e+05	1.013118e+05	2.881131e+02	1.009231e-01	-1.857840e-02	0.000000e+00	
-1.897436e+00	3.006329e-01	1.224976e+00	4.206766e+01	-6.460585e-10	2.540019e+05	1.013118e+05	2.881131e+02	1.009231e-01	-1.857840e-02	0.000000e+00	
-1.897436e+00	2.689873e-01	1.224976e+00	4.206766e+01	-4.261703e-10	2.540019e+05	1.013118e+05	2.881131e+02	1.009231e-01	-1.857840e-02	0.000000e+00	
-1.897436e+00	2.373418e-01	1.224976e+00	4.206766e+01	-2.074356e-10	2.540019e+05	1.013118e+05	2.881131e+02	1.009231e-01	-1.857840e-02	0.000000e+00	
-1.897436e+00	2.056962e-01	1.224976e+00	4.206766e+01	9.569066e-12	2.540019e+05	1.013118e+05	2.881131e+02	1.009231e-01	-1.857840e-02	0.000000e+00	
-1.897436e+00	1.740506e-01	1.224976e+00	4.206766e+01	2.241298e-10	2.540019e+05	1.013118e+05	2.881131e+02	1.009231e-01	-1.857840e-02	0.000000e+00	
-1.897436e+00	1.424051e-01	1.224976e+00	4.206766e+01	4.358812e-10	2.540019e+05	1.013118e+05	2.881131e+02	1.009231e-01	-1.857840e-02	0.000000e+00	
-1.897436e+00	1.107595e-01	1.224976e+00	4.206766e+01	6.438229e-10	2.540019e+05	1.013118e+05	2.881131e+02	1.009231e-01	-1.857840e-02	0.000000e+00	
-1.897436e+00	7.911392e-02	1.224976e+00	4.206766e+01	8.473079e-10	2.540019e+05	1.013118e+05	2.881131e+02	1.009231e-01	-1.857840e-02	0.000000e+00	
-1.897436e+00	4.746835e-02	1.224976e+00	4.206766e+01	1.045800e-09	2.540019e+05	1.013118e+05	2.881131e+02	1.009231e-01	-1.857840e-02	0.000000e+00	
-1.897436e+00	1.582278e-02	1.224976e+00	4.206766e+01	1.238711e-09	2.540019e+05	1.013118e+05	2.881131e+02	1.009231e-01	-1.857840e-02	0.000000e+00	
-1.897436e+00	-1.582278e-02	1.224976e+00	4.206766e+01	1.425330e-09	2.540019e+05	1.013118e+05	2.881131e+02	1.009231e-01	-1.857840e-02	0.000000e+00	
-1.897436e+00	-4.746835e-02	1.224976e+00	4.206766e+01	1.604826e-09	2.540019e+05	1.013118e+05	2.881131e+02	1.009231e-01	-1.857840e-02	0.000000e+00	
-1.897436e+00	-7.911392e-02	1.224976e+00	4.206766e+01	1.776622e-09	2.540019e+05	1.013118e+05	2.881131e+02	1.009231e-01	-1.857840e-02	0.000000e+00	
-1.897436e+00	-1.107595e-01	1.224976e+00	4.206766e+01	1.940142e-09	2.540019e+05	1.013118e+05	2.881131e+02	1.009231e-01	-1.857840e-02	0.000000e+00	