TITLE = "SU2 Simulation"
VARIABLES = "Iteration","CL","CD","CSF","CMx","CMy","CMz","CFx","CFy","CFz","CL/CD","AoA","Custom_ObjFunc","Res_Flow[0]","Res_Flow[1]","Res_Flow[2]","Res_Flow[3]","Res_Flow[4]","Linear_Solver_Iterations","CFL_Number","Time(min)"
ZONE T= "Convergence history"
           0, 0.00000000e+00, 0.00000000e+00, 0.00000000e+00, 0.00000000e+00, 0.00000000e+00, 0.00000000e+00, 0.00000000e+00, 0.00000000e+00, 0.00000000e+00, 0.00000000e+00, 0.00000000e+00, 0.00000000e+00, -1.62443716e+01, -1.32514527e+01, 1.48665328e-01, -1.09138774e+01, 0.00000000e+00, 5.0000000000, 5.0000000000, 0.0026432573
           1, 0.00000000e+00, 0.00000000e+00, 0.00000000e+00, 0.00000000e+00, 0.00000000e+00, 0.00000000e+00, 0.00000000e+00, 0.00000000e+00, 0.00000000e+00, 0.00000000e+00, 0.00000000e+00, 0.00000000e+00, -4.44288432e+00, -2.29773044e+00, 1.43663062e-01, 1.00830152e+00, 0.00000000e+00, 5.0000000000, 5.0000000000, 0.0051734511
           2, 0.00000000e+00, 0.00000000e+00, 0.00000000e+00, 0.00000000e+00, 0.00000000e+00, 0.00000000e+00, 0.00000000e+00, 0.00000000e+00, 0.00000000e+00, 0.00000000e+00, 0.00000000e+00, 0.00000000e+00, -4.33977986e+00, -2.01514277e+00, 1.38679525e-01, 1.10594202e+00, 0.00000000e+00, 5.0000000000, 5.0000000000, 0.0070538478
           3, 0.00000000e+00, 0.00000000e+00, 0.00000000e+00, 0.00000000e+00, 0.00000000e+00, 0.00000000e+00, 0.00000000e+00, 0.00000000e+00, 0.00000000e+00, 0.00000000e+00, 0.00000000e+00, 0.00000000e+00, -4.38916522e+00, -1.85734949e+00, 1.33704779e-01, 1.05135855e+00, 0.00000000e+00, 5.0000000000, 5.0000000000, 0.0089389814
           4, 0.00000000e+00, 0.00000000e+00, 0.00000000e+00, 0.00000000e+00, 0.00000000e+00, 0.00000000e+00, 0.00000000e+00, 0.00000000e+00, 0.00000000e+00, 0.00000000e+00, 0.00000000e+00, 0.00000000e+00, -4.48561605e+00, -1.74973152e+00, 1.28706163e-01, 9.54228412e-01, 0.00000000e+00, 5.0000000000, 5.0000000000, 0.0110405665
           5, 0.00000000e+00, 0.00000000e+00, 0.00000000e+00, 0.00000000e+00, 0.00000000e+00, 0.00000000e+00, 0.00000000e+00, 0.00000000e+00, 0.00000000e+00, 0.00000000e+00, 0.00000000e+00, 0.00000000e+00, -4.55652069e+00, -1.66948384e+00, 1.23676167e-01, 8.91615336e-01, 0.00000000e+00, 5.0000000000, 5.0000000000, 0.0129359072
           6, 0.00000000e+00, 0.00000000e+00, 0.00000000e+00, 0.00000000e+00, 0.00000000e+00, 0.00000000e+00, 0.00000000e+00, 0.00000000e+00, 0.00000000e+00, 0.00000000e+00, 0.00000000e+00, 0.00000000e+00, -4.57581922e+00, -1.60675870e+00, 1.18621437e-01, 8.81826062e-01, 0.00000000e+00, 5.0000000000, 5.0000000000, 0.0148696669
           7, 0.00000000e+00, 0.00000000e+00, 0.00000000e+00, 0.00000000e+00, 0.00000000e+00, 0.00000000e+00, 0.00000000e+00, 0.00000000e+00, 0.00000000e+00, 0.00000000e+00, 0.00000000e+00, 0.00000000e+00, -4.56535122e+00, -1.55636113e+00, 1.13549007e-01, 8.96517698e-01, 0.00000000e+00, 5.0000000000, 5.0000000000, 0.0168002828
           8, 0.00000000e+00, 0.00000000e+00, 0.00000000e+00, 0.00000000e+00, 0.00000000e+00, 0.00000000e+00, 0.00000000e+00, 0.00000000e+00, 0.00000000e+00, 0.00000000e+00, 0.00000000e+00, 0.00000000e+00, -4.54059714e+00, -1.51519143e+00, 1.08462878e-01, 9.22009555e-01, 0.00000000e+00, 5.0000000000, 5.0000000000, 0.0187365594
           9, 0.00000000e+00, 0.00000000e+00, 0.00000000e+00, 0.00000000e+00, 0.00000000e+00, 0.00000000e+00, 0.00000000e+00, 0.00000000e+00, 0.00000000e+00, 0.00000000e+00, 0.00000000e+00, 0.00000000e+00, -4.50619044e+00, -1.48125304e+00, 1.03364182e-01, 9.56054534e-01, 0.00000000e+00, 5.0000000000, 5.0000000000, 0.0209684520
          10, 0.00000000e+00, 0.00000000e+00, 0.00000000e+00, 0.00000000e+00, 0.00000000e+00, 0.00000000e+00, 0.00000000e+00, 0.00000000e+00, 0.00000000e+00, 0.00000000e+00, 0.00000000e+00, 0.00000000e+00, -4.46604240e+00, -1.45319115e+00, 9.82523162e-02, 9.95798713e-01, 0.00000000e+00, 5.0000000000, 5.0000000000, 0.0233610501
          11, 0.00000000e+00, 0.00000000e+00, 0.00000000e+00, 0.00000000e+00, 0.00000000e+00, 0.00000000e+00, 0.00000000e+00, 0.00000000e+00, 0.00000000e+00, 0.00000000e+00, 0.00000000e+00, 0.00000000e+00, -4.42387492e+00, -1.43004662e+00, 9.31261865e-02, 1.03775183e+00, 0.00000000e+00, 5.0000000000, 5.0000000000, 0.0258185608
          12, 0.00000000e+00, 0.00000000e+00, 0.00000000e+00, 0.00000000e+00, 0.00000000e+00, 0.00000000e+00, 0.00000000e+00, 0.00000000e+00, 0.00000000e+00, 0.00000000e+00, 0.00000000e+00, 0.00000000e+00, -4.38214572e+00, -1.41111270e+00, 8.79850331e-02, 1.07940515e+00, 0.00000000e+00, 5.0000000000, 5.0000000000, 0.0279281573
          13, 0.00000000e+00, 0.00000000e+00, 0.00000000e+00, 0.00000000e+00, 0.00000000e+00, 0.00000000e+00, 0.00000000e+00, 0.00000000e+00, 0.00000000e+00, 0.00000000e+00, 0.00000000e+00, 0.00000000e+00, -4.34227697e+00, -1.39584771e+00, 8.28287527e-02, 1.11925684e+00, 0.00000000e+00, 5.0000000000, 5.0000000000, 0.0299335572
          14, 0.00000000e+00, 0.00000000e+00, 0.00000000e+00, 0.00000000e+00, 0.00000000e+00, 0.00000000e+00, 0.00000000e+00, 0.00000000e+00, 0.00000000e+00, 0.00000000e+00, 0.00000000e+00, 0.00000000e+00, -4.30512100e+00, -1.38381992e+00, 7.76578729e-02, 1.15640970e+00, 0.00000000e+00, 5.0000000000, 5.0000000000, 0.0319277046
          15, 0.00000000e+00, 0.00000000e+00, 0.00000000e+00, 0.00000000e+00, 0.00000000e+00, 0.00000000e+00, 0.00000000e+00, 0.00000000e+00, 0.00000000e+00, 0.00000000e+00, 0.00000000e+00, 0.00000000e+00, -4.27119787e+00, -1.37467260e+00, 7.24733569e-02, 1.19032811e+00, 0.00000000e+00, 5.0000000000, 5.0000000000, 0.0338019047
          16, 0.00000000e+00, 0.00000000e+00, 0.00000000e+00, 0.00000000e+00, 0.00000000e+00, 0.00000000e+00, 0.00000000e+00, 0.00000000e+00, 0.00000000e+00, 0.00000000e+00, 0.00000000e+00, 0.00000000e+00, -4.24079914e+00, -1.36810268e+00, 6.72763888e-02, 1.22071838e+00, 0.00000000e+00, 5.0000000000, 5.0000000000, 0.0357234355
          17, 0.00000000e+00, 0.00000000e+00, 0.00000000e+00, 0.00000000e+00, 0.00000000e+00, 0.00000000e+00, 0.00000000e+00, 0.00000000e+00, 0.00000000e+00, 0.00000000e+00, 0.00000000e+00, 0.00000000e+00, -4.21405092e+00, -1.36384863e+00, 6.20682175e-02, 1.24745583e+00, 0.00000000e+00, 5.0000000000, 5.0000000000, 0.0376235447
          18, 0.00000000e+00, 0.00000000e+00, 0.00000000e+00, 0.00000000e+00, 0.00000000e+00, 0.00000000e+00, 0.00000000e+00, 0.00000000e+00, 0.00000000e+00, 0.00000000e+00, 0.00000000e+00, 0.00000000e+00, -4.19096006e+00, -1.36168409e+00, 5.68500720e-02, 1.27053492e+00, 0.00000000e+00, 5.0000000000, 5.0000000000, 0.0401034847
          19, 0.00000000e+00, 0.00000000e+00, 0.00000000e+00, 0.00000000e+00, 0.00000000e+00, 0.00000000e+00, 0.00000000e+00, 0.00000000e+00, 0.00000000e+00, 0.00000000e+00, 0.00000000e+00, 0.00000000e+00, -4.17144942e+00, -1.36141409e+00, 5.16231300e-02, 1.29003347e+00, 0.00000000e+00, 5.0000000000, 5.0000000000, 0.0425476956
          20, 0.00000000e+00, 0.00000000e+00, 0.00000000e+00, 0.00000000e+00, 0.00000000e+00, 0.00000000e+00, 0.00000000e+00, 0.00000000e+00, 0.00000000e+00, 0.00000000e+00, 0.00000000e+00, 0.00000000e+00, -4.15538598e+00, -1.36287148e+00, 4.63885118e-02, 1.30608481e+00, 0.00000000e+00, 5.0000000000, 5.0000000000, 0.0450501693
          21, 0.00000000e+00, 0.00000000e+00, 0.00000000e+00, 0.00000000e+00, 0.00000000e+00, 0.00000000e+00, 0.00000000e+00, 0.00000000e+00, 0.00000000e+00, 0.00000000e+00, 0.00000000e+00, 0.00000000e+00, -4.14260435e+00, -1.36591259e+00, 4.11472832e-02, 1.31885465e+00, 0.00000000e+00, 5.0000000000, 5.0000000000, 0.0477255929
          22, 0.00000000e+00, 0.00000000e+00, 0.00000000e+00, 0.00000000e+00, 0.00000000e+00, 0.00000000e+00, 0.00000000e+00, 0.00000000e+00, 0.00000000e+00, 0.00000000e+00, 0.00000000e+00, 0.00000000e+00, -4.13292555e+00, -1.37041174e+00, 3.59004554e-02, 1.32852229e+00, 0.00000000e+00, 5.0000000000, 5.0000000000, 0.0501143979
          23, 0.00000000e+00, 0.00000000e+00, 0.00000000e+00, 0.00000000e+00, 0.00000000e+00, 0.00000000e+00, 0.00000000e+00, 0.00000000e+00, 0.00000000e+00, 0.00000000e+00, 0.00000000e+00, 0.00000000e+00, -4.12617098e+00, -1.37625509e+00, 3.06489805e-02, 1.33526650e+00, 0.00000000e+00, 5.0000000000, 5.0000000000, 0.0520957769
          24, 0.00000000e+00, 0.00000000e+00, 0.00000000e+00, 0.00000000e+00, 0.00000000e+00, 0.00000000e+00, 0.00000000e+00, 0.00000000e+00, 0.00000000e+00, 0.00000000e+00, 0.00000000e+00, 0.00000000e+00, -4.12217095e+00, -1.38333470e+00, 2.53937458e-02, 1.33925648e+00, 0.00000000e+00, 5.0000000000, 5.0000000000, 0.0540384183
          25, 0.00000000e+00, 0.00000000e+00, 0.00000000e+00, 0.00000000e+00, 0.00000000e+00, 0.00000000e+00, 0.00000000e+00, 0.00000000e+00, 0.00000000e+00, 0.00000000e+00, 0.00000000e+00, 0.00000000e+00, -4.12076769e+00, -1.39154342e+00, 2.01355637e-02, 1.34064811e+00, 0.00000000e+00, 5.0000000000, 5.0000000000, 0.0559299758
          26, 0.00000000e+00, 0.00000000e+00, 0.00000000e+00, 0.00000000e+00, 0.00000000e+00, 0.00000000e+00, 0.00000000e+00, 0.00000000e+00, 0.00000000e+00, 0.00000000e+00, 0.00000000e+00, 0.00000000e+00, -4.12181249e+00, -1.40077124e+00, 1.48751659e-02, 1.33958579e+00, 0.00000000e+00, 5.0000000000, 5.0000000000, 0.0579036860
          27, 0.00000000e+00, 0.00000000e+00, 0.00000000e+00, 0.00000000e+00, 0.00000000e+00, 0.00000000e+00, 0.00000000e+00, 0.00000000e+00, 0.00000000e+00, 0.00000000e+00, 0.00000000e+00, 0.00000000e+00, -4.12515620e+00, -1.41090355e+00, 9.61319691e-03, 1.33621019e+00, 0.00000000e+00, 5.0000000000, 5.0000000000, 0.0599313710
          28, 0.00000000e+00, 0.00000000e+00, 0.00000000e+00, 0.00000000e+00, 0.00000000e+00, 0.00000000e+00, 0.00000000e+00, 0.00000000e+00, 0.00000000e+00, 0.00000000e+00, 0.00000000e+00, 0.00000000e+00, -4.13063223e+00, -1.42182121e+00, 4.35021095e-03, 1.33067300e+00, 0.00000000e+00, 5.0000000000, 5.0000000000, 0.0619404837
          29, 0.00000000e+00, 0.00000000e+00, 0.00000000e+00, 0.00000000e+00, 0.00000000e+00, 0.00000000e+00, 0.00000000e+00, 0.00000000e+00, 0.00000000e+00, 0.00000000e+00, 0.00000000e+00, 0.00000000e+00, -4.13803006e+00, -1.43340277e+00, -9.13329104e-04, 1.32315986e+00, 0.00000000e+00, 5.0000000000, 5.0000000000, 0.0640720337
          30, 0.00000000e+00, 0.00000000e+00, 0.00000000e+00, 0.00000000e+00, 0.00000000e+00, 0.00000000e+00, 0.00000000e+00, 0.00000000e+00, 0.00000000e+00, 0.00000000e+00, 0.00000000e+00, 0.00000000e+00, -4.14705704e+00, -1.44552791e+00, -6.17704779e-03, 1.31392367e+00, 0.00000000e+00, 5.0000000000, 5.0000000000, 0.0664682632
          31, 0.00000000e+00, 0.00000000e+00, 0.00000000e+00, 0.00000000e+00, 0.00000000e+00, 0.00000000e+00, 0.00000000e+00, 0.00000000e+00, 0.00000000e+00, 0.00000000e+00, 0.00000000e+00, 0.00000000e+00, -4.15728549e+00, -1.45808133e+00, -1.14406493e-02, 1.30333088e+00, 0.00000000e+00, 5.0000000000, 5.0000000000, 0.0683873698
          32, 0.00000000e+00, 0.00000000e+00, 0.00000000e+00, 0.00000000e+00, 0.00000000e+00, 0.00000000e+00, 0.00000000e+00, 0.00000000e+00, 0.00000000e+00, 0.00000000e+00, 0.00000000e+00, 0.00000000e+00, -4.16808267e+00, -1.47095439e+00, -1.67039036e-02, 1.29192397e+00, 0.00000000e+00, 5.0000000000, 5.0000000000, 0.0703439924
          33, 0.00000000e+00, 0.00000000e+00, 0.00000000e+00, 0.00000000e+00, 0.00000000e+00, 0.00000000e+00, 0.00000000e+00, 0.00000000e+00, 0.00000000e+00, 0.00000000e+00, 0.00000000e+00, 0.00000000e+00, -4.17852527e+00, -1.48404080e+00, -2.19666318e-02, 1.28050123e+00, 0.00000000e+00, 5.0000000000, 5.0000000000, 0.0722618740
          34, 0.00000000e+00, 0.00000000e+00, 0.00000000e+00, 0.00000000e+00, 0.00000000e+00, 0.00000000e+00, 0.00000000e+00, 0.00000000e+00, 0.00000000e+00, 0.00000000e+00, 0.00000000e+00, 0.00000000e+00, -4.18731291e+00, -1.49722040e+00, -2.72286872e-02, 1.27020681e+00, 0.00000000e+00, 5.0000000000, 5.0000000000, 0.0741653335
          35, 0.00000000e+00, 0.00000000e+00, 0.00000000e+00, 0.00000000e+00, 0.00000000e+00, 0.00000000e+00, 0.00000000e+00, 0.00000000e+00, 0.00000000e+00, 0.00000000e+00, 0.00000000e+00, 0.00000000e+00, -4.19272217e+00, -1.51032388e+00, -3.24899386e-02, 1.26260281e+00, 0.00000000e+00, 5.0000000000, 5.0000000000, 0.0761168439
          36, 0.00000000e+00, 0.00000000e+00, 0.00000000e+00, 0.00000000e+00, 0.00000000e+00, 0.00000000e+00, 0.00000000e+00, 0.00000000e+00, 0.00000000e+00, 0.00000000e+00, 0.00000000e+00, 0.00000000e+00, -4.19268255e+00, -1.52307127e+00, -3.77502566e-02, 1.25965723e+00, 0.00000000e+00, 5.0000000000, 5.0000000000, 0.0780097966
          37, 0.00000000e+00, 0.00000000e+00, 0.00000000e+00, 0.00000000e+00, 0.00000000e+00, 0.00000000e+00, 0.00000000e+00, 0.00000000e+00, 0.00000000e+00, 0.00000000e+00, 0.00000000e+00, 0.00000000e+00, -4.18507210e+00, -1.53498121e+00, -4.30095047e-02, 1.26354576e+00, 0.00000000e+00, 5.0000000000, 5.0000000000, 0.0799638327
          38, 0.00000000e+00, 0.00000000e+00, 0.00000000e+00, 0.00000000e+00, 0.00000000e+00, 0.00000000e+00, 0.00000000e+00, 0.00000000e+00, 0.00000000e+00, 0.00000000e+00, 0.00000000e+00, 0.00000000e+00, -4.16825066e+00, -1.54526114e+00, -4.82675339e-02, 1.27619527e+00, 0.00000000e+00, 5.0000000000, 5.0000000000, 0.0818611768
          39, 0.00000000e+00, 0.00000000e+00, 0.00000000e+00, 0.00000000e+00, 0.00000000e+00, 0.00000000e+00, 0.00000000e+00, 0.00000000e+00, 0.00000000e+00, 0.00000000e+00, 0.00000000e+00, 0.00000000e+00, -4.14164222e+00, -1.55271602e+00, -5.35241731e-02, 1.29866554e+00, 0.00000000e+00, 5.0000000000, 5.0000000000, 0.0837267423
          40, 0.00000000e+00, 0.00000000e+00, 0.00000000e+00, 0.00000000e+00, 0.00000000e+00, 0.00000000e+00, 0.00000000e+00, 0.00000000e+00, 0.00000000e+00, 0.00000000e+00, 0.00000000e+00, 0.00000000e+00, -4.10601386e+00, -1.55575572e+00, -5.87792092e-02, 1.33069341e+00, 0.00000000e+00, 5.0000000000, 5.0000000000, 0.0858028405
          41, 0.00000000e+00, 0.00000000e+00, 0.00000000e+00, 0.00000000e+00, 0.00000000e+00, 0.00000000e+00, 0.00000000e+00, 0.00000000e+00, 0.00000000e+00, 0.00000000e+00, 0.00000000e+00, 0.00000000e+00, -4.06324283e+00, -1.55261060e+00, -6.40323559e-02, 1.37072445e+00, 0.00000000e+00, 5.0000000000, 5.0000000000, 0.0881128895
          42, 0.00000000e+00, 0.00000000e+00, 0.00000000e+00, 0.00000000e+00, 0.00000000e+00, 0.00000000e+00, 0.00000000e+00, 0.00000000e+00, 0.00000000e+00, 0.00000000e+00, 0.00000000e+00, 0.00000000e+00, -4.01573673e+00, -1.54180789e+00, -6.92832159e-02, 1.41641634e+00, 0.00000000e+00, 5.0000000000, 5.0000000000, 0.0909237709
          43, 0.00000000e+00, 0.00000000e+00, 0.00000000e+00, 0.00000000e+00, 0.00000000e+00, 0.00000000e+00, 0.00000000e+00, 0.00000000e+00, 0.00000000e+00, 0.00000000e+00, 0.00000000e+00, 0.00000000e+00, -3.96586427e+00, -1.52276515e+00, -7.45312510e-02, 1.46527357e+00, 0.00000000e+00, 5.0000000000, 5.0000000000, 0.0940446319
          44, 0.00000000e+00, 0.00000000e+00, 0.00000000e+00, 0.00000000e+00, 0.00000000e+00, 0.00000000e+00, 0.00000000e+00, 0.00000000e+00, 0.00000000e+00, 0.00000000e+00, 0.00000000e+00, 0.00000000e+00, -3.91561853e+00, -1.49615228e+00, -7.97757632e-02, 1.51509728e+00, 0.00000000e+00, 5.0000000000, 5.0000000000, 0.0968060313
          45, 0.00000000e+00, 0.00000000e+00, 0.00000000e+00, 0.00000000e+00, 0.00000000e+00, 0.00000000e+00, 0.00000000e+00, 0.00000000e+00, 0.00000000e+00, 0.00000000e+00, 0.00000000e+00, 0.00000000e+00, -3.86651641e+00, -1.46375029e+00, -8.50158885e-02, 1.56416896e+00, 0.00000000e+00, 5.0000000000, 5.0000000000, 0.0995616858
          46, 0.00000000e+00, 0.00000000e+00, 0.00000000e+00, 0.00000000e+00, 0.00000000e+00, 0.00000000e+00, 0.00000000e+00, 0.00000000e+00, 0.00000000e+00, 0.00000000e+00, 0.00000000e+00, 0.00000000e+00, -3.81963698e+00, -1.42790545e+00, -9.02506002e-02, 1.61124845e+00, 0.00000000e+00, 5.0000000000, 5.0000000000, 0.1023190035
          47, 0.00000000e+00, 0.00000000e+00, 0.00000000e+00, 0.00000000e+00, 0.00000000e+00, 0.00000000e+00, 0.00000000e+00, 0.00000000e+00, 0.00000000e+00, 0.00000000e+00, 0.00000000e+00, 0.00000000e+00, -3.77570995e+00, -1.39093623e+00, -9.54787222e-02, 1.65549083e+00, 0.00000000e+00, 5.0000000000, 5.0000000000, 0.1050706698
          48, 0.00000000e+00, 0.00000000e+00, 0.00000000e+00, 0.00000000e+00, 0.00000000e+00, 0.00000000e+00, 0.00000000e+00, 0.00000000e+00, 0.00000000e+00, 0.00000000e+00, 0.00000000e+00, 0.00000000e+00, -3.73520580e+00, -1.35475810e+00, -1.00698951e-01, 1.69634845e+00, 0.00000000e+00, 5.0000000000, 5.0000000000, 0.1078346954
          49, 0.00000000e+00, 0.00000000e+00, 0.00000000e+00, 0.00000000e+00, 0.00000000e+00, 0.00000000e+00, 0.00000000e+00, 0.00000000e+00, 0.00000000e+00, 0.00000000e+00, 0.00000000e+00, 0.00000000e+00, -3.69840943e+00, -1.32075854e+00, -1.05909889e-01, 1.73348660e+00, 0.00000000e+00, 5.0000000000, 5.0000000000, 0.1107003770
          50, 0.00000000e+00, 0.00000000e+00, 0.00000000e+00, 0.00000000e+00, 0.00000000e+00, 0.00000000e+00, 0.00000000e+00, 0.00000000e+00, 0.00000000e+00, 0.00000000e+00, 0.00000000e+00, 0.00000000e+00, -3.66547513e+00, -1.28982683e+00, -1.11110083e-01, 1.76671926e+00, 0.00000000e+00, 5.0000000000, 5.0000000000, 0.1134660016
          51, 0.00000000e+00, 0.00000000e+00, 0.00000000e+00, 0.00000000e+00, 0.00000000e+00, 0.00000000e+00, 0.00000000e+00, 0.00000000e+00, 0.00000000e+00, 0.00000000e+00, 0.00000000e+00, 0.00000000e+00, -3.63646580e+00, -1.26244097e+00, -1.16298073e-01, 1.79596283e+00, 0.00000000e+00, 5.0000000000, 5.0000000000, 0.1162780186
          52, 0.00000000e+00, 0.00000000e+00, 0.00000000e+00, 0.00000000e+00, 0.00000000e+00, 0.00000000e+00, 0.00000000e+00, 0.00000000e+00, 0.00000000e+00, 0.00000000e+00, 0.00000000e+00, 0.00000000e+00, -3.61138026e+00, -1.23875589e+00, -1.21472445e-01, 1.82120395e+00, 0.00000000e+00, 5.0000000000, 5.0000000000, 0.1191098249
          53, 0.00000000e+00, 0.00000000e+00, 0.00000000e+00, 0.00000000e+00, 0.00000000e+00, 0.00000000e+00, 0.00000000e+00, 0.00000000e+00, 0.00000000e+00, 0.00000000e+00, 0.00000000e+00, 0.00000000e+00, -3.59017216e+00, -1.21867332e+00, -1.26631886e-01, 1.84247727e+00, 0.00000000e+00, 5.0000000000, 5.0000000000, 0.1218919093
          54, 0.00000000e+00, 0.00000000e+00, 0.00000000e+00, 0.00000000e+00, 0.00000000e+00, 0.00000000e+00, 0.00000000e+00, 0.00000000e+00, 0.00000000e+00, 0.00000000e+00, 0.00000000e+00, 0.00000000e+00, -3.57276260e+00, -1.20189306e+00, -1.31775238e-01, 1.85985072e+00, 0.00000000e+00, 5.0000000000, 5.0000000000, 0.1246617156
          55, 0.00000000e+00, 0.00000000e+00, 0.00000000e+00, 0.00000000e+00, 0.00000000e+00, 0.00000000e+00, 0.00000000e+00, 0.00000000e+00, 0.00000000e+00, 0.00000000e+00, 0.00000000e+00, 0.00000000e+00, -3.55904808e+00, -1.18795384e+00, -1.36901547e-01, 1.87341630e+00, 0.00000000e+00, 5.0000000000, 5.0000000000, 0.1273933635
          56, 0.00000000e+00, 0.00000000e+00, 0.00000000e+00, 0.00000000e+00, 0.00000000e+00, 0.00000000e+00, 0.00000000e+00, 0.00000000e+00, 0.00000000e+00, 0.00000000e+00, 0.00000000e+00, 0.00000000e+00, -3.54890450e+00, -1.17627409e+00, -1.42010118e-01, 1.88328552e+00, 0.00000000e+00, 5.0000000000, 5.0000000000, 0.1301392517
          57, 0.00000000e+00, 0.00000000e+00, 0.00000000e+00, 0.00000000e+00, 0.00000000e+00, 0.00000000e+00, 0.00000000e+00, 0.00000000e+00, 0.00000000e+00, 0.00000000e+00, 0.00000000e+00, 0.00000000e+00, -3.54218769e+00, -1.16620270e+00, -1.47100546e-01, 1.88958900e+00, 0.00000000e+00, 5.0000000000, 5.0000000000, 0.1328223947
          58, 0.00000000e+00, 0.00000000e+00, 0.00000000e+00, 0.00000000e+00, 0.00000000e+00, 0.00000000e+00, 0.00000000e+00, 0.00000000e+00, 0.00000000e+00, 0.00000000e+00, 0.00000000e+00, 0.00000000e+00, -3.53873055e+00, -1.15708473e+00, -1.52172758e-01, 1.89248006e+00, 0.00000000e+00, 5.0000000000, 5.0000000000, 0.1355484386
          59, 0.00000000e+00, 0.00000000e+00, 0.00000000e+00, 0.00000000e+00, 0.00000000e+00, 0.00000000e+00, 0.00000000e+00, 0.00000000e+00, 0.00000000e+00, 0.00000000e+00, 0.00000000e+00, 0.00000000e+00, -3.53833700e+00, -1.14833970e+00, -1.57227035e-01, 1.89214239e+00, 0.00000000e+00, 5.0000000000, 5.0000000000, 0.1392023394
          60, 0.00000000e+00, 0.00000000e+00, 0.00000000e+00, 0.00000000e+00, 0.00000000e+00, 0.00000000e+00, 0.00000000e+00, 0.00000000e+00, 0.00000000e+00, 0.00000000e+00, 0.00000000e+00, 0.00000000e+00, -3.54077311e+00, -1.13953934e+00, -1.62264035e-01, 1.88880151e+00, 0.00000000e+00, 5.0000000000, 5.0000000000, 0.1420680268
          61, 0.00000000e+00, 0.00000000e+00, 0.00000000e+00, 0.00000000e+00, 0.00000000e+00, 0.00000000e+00, 0.00000000e+00, 0.00000000e+00, 0.00000000e+00, 0.00000000e+00, 0.00000000e+00, 0.00000000e+00, -3.54575597e+00, -1.13046539e+00, -1.67284807e-01, 1.88273965e+00, 0.00000000e+00, 5.0000000000, 5.0000000000, 0.1448064679
          62, 0.00000000e+00, 0.00000000e+00, 0.00000000e+00, 0.00000000e+00, 0.00000000e+00, 0.00000000e+00, 0.00000000e+00, 0.00000000e+00, 0.00000000e+00, 0.00000000e+00, 0.00000000e+00, 0.00000000e+00, -3.55294187e+00, -1.12112898e+00, -1.72290802e-01, 1.87431265e+00, 0.00000000e+00, 5.0000000000, 5.0000000000, 0.1475441401
          63, 0.00000000e+00, 0.00000000e+00, 0.00000000e+00, 0.00000000e+00, 0.00000000e+00, 0.00000000e+00, 0.00000000e+00, 0.00000000e+00, 0.00000000e+00, 0.00000000e+00, 0.00000000e+00, 0.00000000e+00, -3.56191620e+00, -1.11174539e+00, -1.77283854e-01, 1.86396628e+00, 0.00000000e+00, 5.0000000000, 5.0000000000, 0.1502973141
          64, 0.00000000e+00, 0.00000000e+00, 0.00000000e+00, 0.00000000e+00, 0.00000000e+00, 0.00000000e+00, 0.00000000e+00, 0.00000000e+00, 0.00000000e+00, 0.00000000e+00, 0.00000000e+00, 0.00000000e+00, -3.57218920e+00, -1.10267313e+00, -1.82266115e-01, 1.85224689e+00, 0.00000000e+00, 5.0000000000, 5.0000000000, 0.1530633079
          65, 0.00000000e+00, 0.00000000e+00, 0.00000000e+00, 0.00000000e+00, 0.00000000e+00, 0.00000000e+00, 0.00000000e+00, 0.00000000e+00, 0.00000000e+00, 0.00000000e+00, 0.00000000e+00, 0.00000000e+00, -3.58320419e+00, -1.09433719e+00, -1.87239951e-01, 1.83979757e+00, 0.00000000e+00, 5.0000000000, 5.0000000000, 0.1557982935
          66, 0.00000000e+00, 0.00000000e+00, 0.00000000e+00, 0.00000000e+00, 0.00000000e+00, 0.00000000e+00, 0.00000000e+00, 0.00000000e+00, 0.00000000e+00, 0.00000000e+00, 0.00000000e+00, 0.00000000e+00, -3.59436560e+00, -1.08715724e+00, -1.92207834e-01, 1.82732886e+00, 0.00000000e+00, 5.0000000000, 5.0000000000, 0.1586509528
          67, 0.00000000e+00, 0.00000000e+00, 0.00000000e+00, 0.00000000e+00, 0.00000000e+00, 0.00000000e+00, 0.00000000e+00, 0.00000000e+00, 0.00000000e+00, 0.00000000e+00, 0.00000000e+00, 0.00000000e+00, -3.60508981e+00, -1.08149467e+00, -1.97172309e-01, 1.81555744e+00, 0.00000000e+00, 5.0000000000, 5.0000000000, 0.1615214312
          68, 0.00000000e+00, 0.00000000e+00, 0.00000000e+00, 0.00000000e+00, 0.00000000e+00, 0.00000000e+00, 0.00000000e+00, 0.00000000e+00, 0.00000000e+00, 0.00000000e+00, 0.00000000e+00, 0.00000000e+00, -3.61487313e+00, -1.07762320e+00, -2.02135989e-01, 1.80511719e+00, 0.00000000e+00, 5.0000000000, 5.0000000000, 0.1651098168
          69, 0.00000000e+00, 0.00000000e+00, 0.00000000e+00, 0.00000000e+00, 0.00000000e+00, 0.00000000e+00, 0.00000000e+00, 0.00000000e+00, 0.00000000e+00, 0.00000000e+00, 0.00000000e+00, 0.00000000e+00, -3.62336262e+00, -1.07572024e+00, -2.07101552e-01, 1.79646090e+00, 0.00000000e+00, 5.0000000000, 5.0000000000, 0.1681950966
          70, 0.00000000e+00, 0.00000000e+00, 0.00000000e+00, 0.00000000e+00, 0.00000000e+00, 0.00000000e+00, 0.00000000e+00, 0.00000000e+00, 0.00000000e+00, 0.00000000e+00, 0.00000000e+00, 0.00000000e+00, -3.63041059e+00, -1.07587337e+00, -2.12071704e-01, 1.78978133e+00, 0.00000000e+00, 5.0000000000, 5.0000000000, 0.1709275697
          71, 0.00000000e+00, 0.00000000e+00, 0.00000000e+00, 0.00000000e+00, 0.00000000e+00, 0.00000000e+00, 0.00000000e+00, 0.00000000e+00, 0.00000000e+00, 0.00000000e+00, 0.00000000e+00, 0.00000000e+00, -3.63609528e+00, -1.07809632e+00, -2.17049123e-01, 1.78497942e+00, 0.00000000e+00, 5.0000000000, 5.0000000000, 0.1736791632
          72, 0.00000000e+00, 0.00000000e+00, 0.00000000e+00, 0.00000000e+00, 0.00000000e+00, 0.00000000e+00, 0.00000000e+00, 0.00000000e+00, 0.00000000e+00, 0.00000000e+00, 0.00000000e+00, 0.00000000e+00, -3.64070082e+00, -1.08234997e+00, -2.22036400e-01, 1.78169206e+00, 0.00000000e+00, 5.0000000000, 5.0000000000, 0.1764394342
          73, 0.00000000e+00, 0.00000000e+00, 0.00000000e+00, 0.00000000e+00, 0.00000000e+00, 0.00000000e+00, 0.00000000e+00, 0.00000000e+00, 0.00000000e+00, 0.00000000e+00, 0.00000000e+00, 0.00000000e+00, -3.64466382e+00, -1.08856531e+00, -2.27035988e-01, 1.77936794e+00, 0.00000000e+00, 5.0000000000, 5.0000000000, 0.1792105563
          74, 0.00000000e+00, 0.00000000e+00, 0.00000000e+00, 0.00000000e+00, 0.00000000e+00, 0.00000000e+00, 0.00000000e+00, 0.00000000e+00, 0.00000000e+00, 0.00000000e+00, 0.00000000e+00, 0.00000000e+00, -3.64850449e+00, -1.09666581e+00, -2.32050161e-01, 1.77736330e+00, 0.00000000e+00, 5.0000000000, 5.0000000000, 0.1819710249
          75, 0.00000000e+00, 0.00000000e+00, 0.00000000e+00, 0.00000000e+00, 0.00000000e+00, 0.00000000e+00, 0.00000000e+00, 0.00000000e+00, 0.00000000e+00, 0.00000000e+00, 0.00000000e+00, 0.00000000e+00, -3.65276132e+00, -1.10658754e+00, -2.37080975e-01, 1.77502904e+00, 0.00000000e+00, 5.0000000000, 5.0000000000, 0.1847500161
          76, 0.00000000e+00, 0.00000000e+00, 0.00000000e+00, 0.00000000e+00, 0.00000000e+00, 0.00000000e+00, 0.00000000e+00, 0.00000000e+00, 0.00000000e+00, 0.00000000e+00, 0.00000000e+00, 0.00000000e+00, -3.65794199e+00, -1.11829518e+00, -2.42130240e-01, 1.77177197e+00, 0.00000000e+00, 5.0000000000, 5.0000000000, 0.1879624894
          77, 0.00000000e+00, 0.00000000e+00, 0.00000000e+00, 0.00000000e+00, 0.00000000e+00, 0.00000000e+00, 0.00000000e+00, 0.00000000e+00, 0.00000000e+00, 0.00000000e+00, 0.00000000e+00, 0.00000000e+00, -3.66449456e+00, -1.13179326e+00, -2.47199492e-01, 1.76708664e+00, 0.00000000e+00, 5.0000000000, 5.0000000000, 0.1911952841
          78, 0.00000000e+00, 0.00000000e+00, 0.00000000e+00, 0.00000000e+00, 0.00000000e+00, 0.00000000e+00, 0.00000000e+00, 0.00000000e+00, 0.00000000e+00, 0.00000000e+00, 0.00000000e+00, 0.00000000e+00, -3.67279631e+00, -1.14713181e+00, -2.52289961e-01, 1.76056378e+00, 0.00000000e+00, 5.0000000000, 5.0000000000, 0.1938946263
          79, 0.00000000e+00, 0.00000000e+00, 0.00000000e+00, 0.00000000e+00, 0.00000000e+00, 0.00000000e+00, 0.00000000e+00, 0.00000000e+00, 0.00000000e+00, 0.00000000e+00, 0.00000000e+00, 0.00000000e+00, -3.68315501e+00, -1.16440722e+00, -2.57402568e-01, 1.75188382e+00, 0.00000000e+00, 5.0000000000, 5.0000000000, 0.1966108391
          80, 0.00000000e+00, 0.00000000e+00, 0.00000000e+00, 0.00000000e+00, 0.00000000e+00, 0.00000000e+00, 0.00000000e+00, 0.00000000e+00, 0.00000000e+00, 0.00000000e+00, 0.00000000e+00, 0.00000000e+00, -3.69581682e+00, -1.18375904e+00, -2.62537894e-01, 1.74080340e+00, 0.00000000e+00, 5.0000000000, 5.0000000000, 0.1993576461
          81, 0.00000000e+00, 0.00000000e+00, 0.00000000e+00, 0.00000000e+00, 0.00000000e+00, 0.00000000e+00, 0.00000000e+00, 0.00000000e+00, 0.00000000e+00, 0.00000000e+00, 0.00000000e+00, 0.00000000e+00, -3.71097659e+00, -1.20536448e+00, -2.67696197e-01, 1.72714055e+00, 0.00000000e+00, 5.0000000000, 5.0000000000, 0.2024150881
          82, 0.00000000e+00, 0.00000000e+00, 0.00000000e+00, 0.00000000e+00, 0.00000000e+00, 0.00000000e+00, 0.00000000e+00, 0.00000000e+00, 0.00000000e+00, 0.00000000e+00, 0.00000000e+00, 0.00000000e+00, -3.72878776e+00, -1.22943223e+00, -2.72877416e-01, 1.71076147e+00, 0.00000000e+00, 5.0000000000, 5.0000000000, 0.2056345983
          83, 0.00000000e+00, 0.00000000e+00, 0.00000000e+00, 0.00000000e+00, 0.00000000e+00, 0.00000000e+00, 0.00000000e+00, 0.00000000e+00, 0.00000000e+00, 0.00000000e+00, 0.00000000e+00, 0.00000000e+00, -3.74937007e+00, -1.25619714e+00, -2.78081190e-01, 1.69157080e+00, 0.00000000e+00, 5.0000000000, 5.0000000000, 0.2095031240
          84, 0.00000000e+00, 0.00000000e+00, 0.00000000e+00, 0.00000000e+00, 0.00000000e+00, 0.00000000e+00, 0.00000000e+00, 0.00000000e+00, 0.00000000e+00, 0.00000000e+00, 0.00000000e+00, 0.00000000e+00, -3.77281451e+00, -1.28591710e+00, -2.83306897e-01, 1.66950569e+00, 0.00000000e+00, 5.0000000000, 5.0000000000, 0.2132791798
          85, 0.00000000e+00, 0.00000000e+00, 0.00000000e+00, 0.00000000e+00, 0.00000000e+00, 0.00000000e+00, 0.00000000e+00, 0.00000000e+00, 0.00000000e+00, 0.00000000e+00, 0.00000000e+00, 0.00000000e+00, -3.79918504e+00, -1.31887299e+00, -2.88553686e-01, 1.64453392e+00, 0.00000000e+00, 5.0000000000, 5.0000000000, 0.2180592987
          86, 0.00000000e+00, 0.00000000e+00, 0.00000000e+00, 0.00000000e+00, 0.00000000e+00, 0.00000000e+00, 0.00000000e+00, 0.00000000e+00, 0.00000000e+00, 0.00000000e+00, 0.00000000e+00, 0.00000000e+00, -3.82851698e+00, -1.35537233e+00, -2.93820522e-01, 1.61665603e+00, 0.00000000e+00, 5.0000000000, 5.0000000000, 0.2220986303
          87, 0.00000000e+00, 0.00000000e+00, 0.00000000e+00, 0.00000000e+00, 0.00000000e+00, 0.00000000e+00, 0.00000000e+00, 0.00000000e+00, 0.00000000e+00, 0.00000000e+00, 0.00000000e+00, 0.00000000e+00, -3.86081184e+00, -1.39575734e+00, -2.99106242e-01, 1.58591146e+00, 0.00000000e+00, 5.0000000000, 5.0000000000, 0.2258048101
          88, 0.00000000e+00, 0.00000000e+00, 0.00000000e+00, 0.00000000e+00, 0.00000000e+00, 0.00000000e+00, 0.00000000e+00, 0.00000000e+00, 0.00000000e+00, 0.00000000e+00, 0.00000000e+00, 0.00000000e+00, -3.89602815e+00, -1.44041810e+00, -3.04409603e-01, 1.55238911e+00, 0.00000000e+00, 5.0000000000, 5.0000000000, 0.2296642693
          89, 0.00000000e+00, 0.00000000e+00, 0.00000000e+00, 0.00000000e+00, 0.00000000e+00, 0.00000000e+00, 0.00000000e+00, 0.00000000e+00, 0.00000000e+00, 0.00000000e+00, 0.00000000e+00, 0.00000000e+00, -3.93406753e+00, -1.48981204e+00, -3.09729340e-01, 1.51624276e+00, 0.00000000e+00, 5.0000000000, 5.0000000000, 0.2324493230