VARIABLES = "x"
 "y"
 "Density"
 "Momentum_x"
 "Momentum_y"
 "Energy"
 "Pressure"
 "Temperature"
 "Mach"
 "C<sub>p</sub>"
 "Roe_Dissipation"
ZONE
DT=(DOUBLE,DOUBLE,DOUBLE,DOUBLE,DOUBLE,DOUBLE,DOUBLE,DOUBLE,DOUBLE,DOUBLE,DOUBLE)
                     -2                    -0.6        1.22497594356537        42.0676612854004   -2.25588492126811E-11            254001.90625           101311.796875        288.113098144531       0.100923098623753      -0.018578389659524                       0 
      -1.99749874937469                    -0.6        1.22497594356537        42.0676612854004    5.34934897371741E-11            254001.90625           101311.796875        288.113098144531       0.100923098623753     -0.0185783902046203                       0 
      -1.99499749874937                    -0.6        1.22497594356537        42.0676612854004    1.29545828687036E-10            254001.90625           101311.796875        288.113098144531       0.100923098623753     -0.0185783907497165                       0 
      -1.99249624812406                    -0.6        1.22497594356537        42.0676612854004    2.05598167636891E-10            254001.90625           101311.796875        288.113098144531       0.100923098623753     -0.0185783912948128                       0 
      -1.98999499749875                    -0.6        1.22497594356537        42.0676612854004    2.81650506586746E-10            254001.90625           101311.796875        288.113098144531       0.100923098623753     -0.0185783918399091                       0 
      -1.98749374687344                    -0.6        1.22497594356537        42.0676612854004    3.57702845536601E-10            254001.90625           101311.796875        288.113098144531       0.100923098623753     -0.0185783923850054                       0 
      -1.98499249624812                    -0.6        1.22497594356537        42.0676612854004    4.33755184486463E-10            254001.90625           101311.796875        288.113098144531       0.100923098623753     -0.0185783929301017                       0 
      -1.98249124562281                    -0.6        1.22497594356537        42.0676612854004    5.09807523436319E-10            254001.90625           101311.796875        288.113098144531       0.100923098623753      -0.018578393475198                       0 
       -1.9799899949975                    -0.6        1.22497594356537        42.0676612854004    5.85859862386174E-10            254001.90625           101311.796875        288.113098144531       0.100923098623753     -0.0185783940202943                       0 
      -1.97748874437219                    -0.6        1.22497594356537        42.0676612854004    6.61912201336036E-10            254001.90625           101311.796875        288.113098144531       0.100923098623753     -0.0185783945653905                       0 
      -1.97498749374687                    -0.6        1.22497594356537        42.0676612854004    7.37977752943489E-10            254001.90625           101311.796875        288.113098144531       0.100923098623753     -0.0185783951104868                       0 
      -1.97248624312156                    -0.6        1.22497594356537        42.0676612854004    8.14053320194614E-10            254001.90625           101311.796875        288.113098144531       0.100923098623753     -0.0185783956555831                       0 
      -1.96998499249625                    -0.6        1.22497594356537        42.0676612854004    8.90107317182799E-10            254001.90625           101311.796875        288.113098144531       0.100923098623753     -0.0185783962006794                       0 
      -1.96748374187094                    -0.6        1.22497594356537        42.0676612854004    9.66159656132655E-10            254001.90625           101311.796875        288.113098144531       0.100923098623753     -0.0185783967457757                       0 
      -1.96498249124562                    -0.6        1.22497594356537        42.0676612854004    1.04221199508251E-09            254001.90625           101311.796875        288.113098144531       0.100923098623753      -0.018578397290872                       0 
      -1.96248124062031                    -0.6        1.22497594356537        42.0676612854004    1.11826433403236E-09            254001.90625           101311.796875        288.113098144531       0.100923098623753     -0.0185783978359683                       0 
        -1.959979989995                    -0.6        1.22497594356537        42.0676612854004    1.19431667298223E-09            254001.90625           101311.796875        288.113098144531       0.100923098623753     -0.0185783983810646                       0 
      -1.95747873936968                    -0.6        1.22497594356537        42.0676612854004    1.27036901193208E-09            254001.90625           101311.796875        288.113098144531       0.100923098623753     -0.0185783989261608                       0 
      -1.95497748874437                    -0.6        1.22497594356537        42.0676612854004    1.34642135088194E-09            254001.90625           101311.796875        288.113098144531       0.100923098623753     -0.0185783994712571                       0 
      -1.95247623811906                    -0.6        1.22497594356537        42.0676612854004     1.4224736898318E-09            254001.90625           101311.796875        288.113098144531       0.100923098623753     -0.0185784000163534                       0 
      -1.94997498749375                    -0.6        1.22497594356537        42.0676612854004    1.49852602878165E-09            254001.90625           101311.796875        288.113098144531       0.100923098623753     -0.0185784005614497                       0 
      -1.94747373686843                    -0.6        1.22497594356537        42.0676612854004     1.5750011317029E-09            254001.90625           101311.796875        288.113098144531       0.100923098623753     -0.0185784008353949                       0 
      -1.94497248624312                    -0.6        1.22497594356537        42.0676612854004     1.6519033548991E-09            254001.90625           101311.796875        288.113098144531       0.100923098623753     -0.0185784008353949                       0 
      -1.94247123561781                    -0.6        1.22497594356537        42.0676612854004    1.72880557809529E-09            254001.90625           101311.796875        288.113098144531       0.100923098623753     -0.0185784008353949                       0 
       -1.9399699849925                    -0.6        1.22497594356537        42.0676612854004    1.80570780129148E-09            254001.90625           101311.796875        288.113098144531       0.100923098623753     -0.0185784008353949                       0 
      -1.93746873436718                    -0.6        1.22497594356537        42.0676612854004    1.88261002448767E-09            254001.90625           101311.796875        288.113098144531       0.100923098623753     -0.0185784008353949                       0 
      -1.93496748374187                    -0.6        1.22497594356537        42.0676612854004    1.95951224768387E-09            254001.90625           101311.796875        288.113098144531       0.100923098623753     -0.0185784008353949                       0 
      -1.93246623311656                    -0.6        1.22497594356537        42.0676612854004    2.03641447088006E-09            254001.90625           101311.796875        288.113098144531       0.100923098623753     -0.0185784008353949                       0 
      -1.92996498249125                    -0.6        1.22497594356537        42.0676612854004    2.11331669407625E-09            254001.90625           101311.796875        288.113098144531       0.100923098623753     -0.0185784008353949                       0 
      -1.92746373186593                    -0.6        1.22497594356537        42.0676612854004    2.19021891727244E-09            254001.90625           101311.796875        288.113098144531       0.100923098623753     -0.0185784008353949                       0 
      -1.92496248124062                    -0.6        1.22497594356537        42.0676612854004    2.26712741170814E-09            254001.90625           101311.796875        288.113098144531       0.100923098623753     -0.0185784008353949                       0 
      -1.92246123061531                    -0.6        1.22497594356537        42.0676612854004    2.34412425762219E-09            254001.90625           101311.796875        288.113098144531       0.100923098623753     -0.0185784008353949                       0 
      -1.91995997998999                    -0.6        1.22497594356537        42.0676612854004    2.42108078642728E-09            254001.90625           101311.796875        288.113098144531       0.100923098623753     -0.0185784008353949                       0 
      -1.91745872936468                    -0.6        1.22497594356537        42.0676612854004    2.49798300962347E-09            254001.90625           101311.796875        288.113098144531       0.100923098623753     -0.0185784008353949                       0 
      -1.91495747873937                    -0.6        1.22497594356537        42.0676612854004    2.57488523281966E-09            254001.90625           101311.796875        288.113098144531       0.100923098623753     -0.0185784008353949                       0 
      -1.91245622811406                    -0.6        1.22497594356537        42.0676612854004    2.65178745601585E-09            254001.90625           101311.796875        288.113098144531       0.100923098623753     -0.0185784008353949                       0 
      -1.90995497748874                    -0.6        1.22497594356537        42.0676612854004    2.72868967921204E-09            254001.90625           101311.796875        288.113098144531       0.100923098623753     -0.0185784008353949                       0 
      -1.90745372686343                    -0.6        1.22497594356537        42.0676612854004    2.80559190240823E-09            254001.90625           101311.796875        288.113098144531       0.100923098623753     -0.0185784008353949                       0 
      -1.90495247623812                    -0.6        1.22497594356537        42.0676612854004    2.88249412560442E-09            254001.90625           101311.796875        288.113098144531       0.100923098623753     -0.0185784008353949                       0 
      -1.90245122561281                    -0.6        1.22497594356537        42.0676612854004    2.95939634880062E-09            254001.90625           101311.796875        288.113098144531       0.100923098623753     -0.0185784008353949                       0 
      -1.89994997498749                    -0.6        1.22497594356537        42.0676612854004    3.03629857199681E-09            254001.90625           101311.796875        288.113098144531       0.100923098623753     -0.0185784008353949                       0 
      -1.89744872436218                    -0.6        1.22497594356537        42.0676612854004      3.113200795193E-09            254001.90625           101311.796875        288.113098144531       0.100923098623753     -0.0185784008353949                       0 
      -1.89494747373687                    -0.6        1.22497594356537        42.0676612854004    3.19105025143662E-09            254001.90625           101311.796875        288.113098144531       0.100923098623753     -0.0185784012873351                       0 
      -1.89244622311156                    -0.6        1.22497594356537        42.0676612854004    3.26890454237654E-09            254001.90625           101311.796875        288.113098144531       0.100923098623753      -0.018578401741582                       0 
      -1.88994497248624                    -0.6        1.22497594356537        42.0676612854004    3.34675883331646E-09            254001.90625           101311.796875        288.113098144531       0.100923098623753     -0.0185784021958289                       0 
      -1.88744372186093                    -0.6        1.22497594356537        42.0676612854004    3.42461312425638E-09            254001.90625           101311.796875        288.113098144531       0.100923098623753     -0.0185784026500758                       0 
      -1.88494247123562                    -0.6        1.22497594356537        42.0676612854004    3.50246741519631E-09            254001.90625           101311.796875        288.113098144531       0.100923098623753     -0.0185784031043227                       0 
      -1.88244122061031                    -0.6        1.22497594356537        42.0676612854004    3.58032170613623E-09            254001.90625           101311.796875        288.113098144531       0.100923098623753     -0.0185784035585696                       0 
      -1.87993996998499                    -0.6        1.22497594356537        42.0676612854004    3.65817599707616E-09            254001.90625           101311.796875        288.113098144531       0.100923098623753     -0.0185784040128165                       0 
      -1.87743871935968                    -0.6        1.22497594356537        42.0676612854004    3.73603028801608E-09            254001.90625           101311.796875        288.113098144531       0.100923098623753     -0.0185784044670634                       0 
      -1.87493746873437                    -0.6        1.22497594356537        42.0676612854004    3.81388457895601E-09            254001.90625           101311.796875        288.113098144531       0.100923098623753     -0.0185784049213103                       0 
      -1.87243621810905                    -0.6        1.22497594356537        42.0676612854004    3.89183311200787E-09            254001.90625           101311.796875        288.113098144531       0.100923098623753     -0.0185784053755572                       0 
      -1.86993496748374                    -0.6        1.22497594356537        42.0676612854004    3.96985457621982E-09            254001.90625           101311.796875        288.113098144531       0.100923098623753     -0.0185784058298041                       0 
      -1.86743371685843                    -0.6        1.22497594356537        42.0676612854004    4.04772164892637E-09            254001.90625           101311.796875        288.113098144531       0.100923098623753      -0.018578406284051                       0 
      -1.86493246623312                    -0.6        1.22497594356537        42.0676612854004    4.12557593986629E-09            254001.90625           101311.796875        288.113098144531       0.100923098623753     -0.0185784067382979                       0 
       -1.8624312156078                    -0.6        1.22497594356537        42.0676612854004    4.20343023080622E-09            254001.90625           101311.796875        288.113098144531       0.100923098623753     -0.0185784071925448                       0 
      -1.85992996498249                    -0.6        1.22497594356537        42.0676612854004    4.28128452174615E-09            254001.90625           101311.796875        288.113098144531       0.100923098623753     -0.0185784076467917                       0 
      -1.85742871435718                    -0.6        1.22497594356537        42.0676612854004    4.35913881268607E-09            254001.90625           101311.796875        288.113098144531       0.100923098623753     -0.0185784081010386                       0 
      -1.85492746373187                    -0.6        1.22497594356537        42.0676612854004    4.43699310362599E-09            254001.90625           101311.796875        288.113098144531       0.100923098623753     -0.0185784085552855                       0 
      -1.85242621310655                    -0.6        1.22497594356537        42.0676612854004    4.51484739456592E-09            254001.90625           101311.796875        288.113098144531       0.100923098623753     -0.0185784090095324                       0 
      -1.84992496248124                    -0.6        1.22497594356537        42.0676612854004    4.59270168550584E-09            254001.90625           101311.796875        288.113098144531       0.100923098623753     -0.0185784094637794                       0 
      -1.84742371185593                    -0.6        1.22497594356537        42.0676612854004    4.67055597644576E-09            254001.90625           101311.796875        288.113098144531       0.100923098623753     -0.0185784099180263                       0 
      -1.84492246123062                    -0.6        1.22497594356537        42.0676612854004    4.74930818867313E-09            254001.90625           101311.796875        288.113098144531       0.100923098623753     -0.0185784101486206                       0 
       -1.8424212106053                    -0.6        1.22497594356537        42.0676612854004    4.82898619209527E-09            254001.90625           101311.796875        288.113098144531       0.100923098623753     -0.0185784101486206                       0 
      -1.83991995997999                    -0.6        1.22497594356537        42.0676612854004     4.9086641955174E-09            254001.90625           101311.796875        288.113098144531       0.100923098623753     -0.0185784101486206                       0 
      -1.83741870935468                    -0.6        1.22497594356537        42.0676612854004    4.98834219893953E-09            254001.90625           101311.796875        288.113098144531       0.100923098623753     -0.0185784101486206                       0 
      -1.83491745872936                    -0.6        1.22497594356537        42.0676612854004    5.06802020236167E-09            254001.90625           101311.796875        288.113098144531       0.100923098623753     -0.0185784101486206                       0 
      -1.83241620810405                    -0.6        1.22497594356537        42.0676612854004     5.1476982057838E-09            254001.90625           101311.796875        288.113098144531       0.100923098623753     -0.0185784101486206                       0 
      -1.82991495747874                    -0.6        1.22497594356537        42.0676612854004    5.22737620920593E-09            254001.90625           101311.796875        288.113098144531       0.100923098623753     -0.0185784101486206                       0 
      -1.82741370685343                    -0.6        1.22497594356537        42.0676612854004    5.30705421262807E-09            254001.90625           101311.796875        288.113098144531       0.100923098623753     -0.0185784101486206                       0 
      -1.82491245622811                    -0.6        1.22497594356537        42.0676612854004     5.3867322160502E-09            254001.90625           101311.796875        288.113098144531       0.100923098623753     -0.0185784101486206                       0 
       -1.8224112056028                    -0.6        1.22497594356537        42.0676612854004    5.46642839961221E-09            254001.90625           101311.796875        288.113098144531       0.100923098623753     -0.0185784101486206                       0 
      -1.81990995497749                    -0.6        1.22497594356537        42.0676612854004    5.54640347309856E-09            254001.90625           101311.796875        288.113098144531       0.100923098623753     -0.0185784101486206                       0 
      -1.81740870435218                    -0.6        1.22497594356537        42.0676612854004    5.62625347870327E-09            254001.90625           101311.796875        288.113098144531       0.100923098623753     -0.0185784101486206                       0 
      -1.81490745372686                    -0.6        1.22497594356537        42.0676612854004     5.7059314821254E-09            254001.90625           101311.796875        288.113098144531       0.100923098623753     -0.0185784101486206                       0 
      -1.81240620310155                    -0.6        1.22497594356537        42.0676612854004    5.78560948554753E-09            254001.90625           101311.796875        288.113098144531       0.100923098623753     -0.0185784101486206                       0 
      -1.80990495247624                    -0.6        1.22497594356537        42.0676612854004    5.86528748896967E-09            254001.90625           101311.796875        288.113098144531       0.100923098623753     -0.0185784101486206                       0 
      -1.80740370185093                    -0.6        1.22497594356537        42.0676612854004     5.9449654923918E-09            254001.90625           101311.796875        288.113098144531       0.100923098623753     -0.0185784101486206                       0 
      -1.80490245122561                    -0.6        1.22497594356537        42.0676612854004    6.02464349581393E-09            254001.90625           101311.796875        288.113098144531       0.100923098623753     -0.0185784101486206                       0 
       -1.8024012006003                    -0.6        1.22497594356537        42.0676612854004    6.10432149923607E-09            254001.90625           101311.796875        288.113098144531       0.100923098623753     -0.0185784101486206                       0 
      -1.79989994997499                    -0.6        1.22497594356537        42.0676612854004     6.1839995026582E-09            254001.90625           101311.796875        288.113098144531       0.100923098623753     -0.0185784101486206                       0 
      -1.79739869934967                    -0.6        1.22497594356537        42.0676612854004    6.26367750608033E-09            254001.90625           101311.796875        288.113098144531       0.100923098623753     -0.0185784101486206                       0 
      -1.79489744872436                    -0.6        1.22497594356537        42.0676612854004    6.34335550950246E-09            254001.90625           101311.796875        288.113098144531       0.100923098623753     -0.0185784101486206                       0 
      -1.79239619809905                    -0.6        1.22497594356537        42.0676612854004    6.42555805193223E-09            254001.90625           101311.796875        288.113098144531       0.100923098623753     -0.0185784101486206                       0 
      -1.78989494747374                    -0.6        1.22497594356537        42.0676612854004    6.50778649716502E-09            254001.90625           101311.796875        288.113098144531       0.100923098623753     -0.0185784101486206                       0 
      -1.78739369684842                    -0.6        1.22497594356537        42.0676612854004    6.59001494239781E-09            254001.90625           101311.796875        288.113098144531       0.100923098623753     -0.0185784101486206                       0 
      -1.78489244622311                    -0.6        1.22497594356537        42.0676612854004     6.6722433876306E-09            254001.90625           101311.796875        288.113098144531       0.100923098623753     -0.0185784101486206                       0 
       -1.7823911955978                    -0.6        1.22497594356537        42.0676612854004    6.75447183286339E-09            254001.90625           101311.796875        288.113098144531       0.100923098623753     -0.0185784101486206                       0 
      -1.77988994497249                    -0.6        1.22497594356537        42.0676612854004    6.83670027809618E-09            254001.90625           101311.796875        288.113098144531       0.100923098623753     -0.0185784101486206                       0 
      -1.77738869434717                    -0.6        1.22497594356537        42.0676612854004    6.91892872332897E-09            254001.90625           101311.796875        288.113098144531       0.100923098623753     -0.0185784101486206                       0 
      -1.77488744372186                    -0.6        1.22497594356537        42.0676612854004    7.00115716856176E-09            254001.90625           101311.796875        288.113098144531       0.100923098623753     -0.0185784101486206                       0 
      -1.77238619309655                    -0.6        1.22497594356537        42.0676612854004    7.08338561379455E-09            254001.90625           101311.796875        288.113098144531       0.100923098623753     -0.0185784101486206                       0 
      -1.76988494247124                    -0.6        1.22497594356537        42.0676612854004    7.16586389609393E-09            254001.90625           101311.796875        288.113098144531       0.100923098623753     -0.0185784101486206                       0 
      -1.76738369184592                    -0.6        1.22497594356537        42.0676612854004    7.24853954824054E-09            254001.90625           101311.796875        288.113098144531       0.100923098623753     -0.0185784101486206                       0 
      -1.76488244122061                    -0.6        1.22497594356537        42.0676612854004    7.33080445706868E-09            254001.90625           101311.796875        288.113098144531       0.100923098623753     -0.0185784101486206                       0 
       -1.7623811905953                    -0.6        1.22497594356537        42.0676612854004    7.41303290230147E-09            254001.90625           101311.796875        288.113098144531       0.100923098623753     -0.0185784101486206                       0 
      -1.75987993996998                    -0.6        1.22497594356537        42.0676612854004    7.49526134753427E-09            254001.90625           101311.796875        288.113098144531       0.100923098623753     -0.0185784101486206                       0 
      -1.75737868934467                    -0.6        1.22497594356537        42.0676612854004    7.57748979276705E-09            254001.90625           101311.796875        288.113098144531       0.100923098623753     -0.0185784101486206                       0 
      -1.75487743871936                    -0.6        1.22497594356537        42.0676612854004    7.65971823799984E-09            254001.90625           101311.796875        288.113098144531       0.100923098623753     -0.0185784101486206                       0 
      -1.75237618809405                    -0.6        1.22497594356537        42.0676612854004    7.74194668323264E-09            254001.90625           101311.796875        288.113098144531       0.100923098623753     -0.0185784101486206                       0 
      -1.74987493746873                    -0.6        1.22497594356537        42.0676612854004    7.82417512846542E-09            254001.90625           101311.796875        288.113098144531       0.100923098623753     -0.0185784101486206                       0 
      -1.74737368684342                    -0.6        1.22497594356537        42.0676612854004    7.90640357369821E-09            254001.90625           101311.796875        288.113098144531       0.100923098623753     -0.0185784101486206                       0 
      -1.74487243621811                    -0.6        1.22497594356537        42.0676612854004      7.988632018931E-09            254001.90625           101311.796875        288.113098144531       0.100923098623753     -0.0185784101486206                       0 
       -1.7423711855928                    -0.6        1.22497594356537        42.0676612854004    8.07244192737074E-09            254001.90625           101311.796875        288.113098144531       0.100923098623753     -0.0185784103699664                       0 
      -1.73986993496748                    -0.6        1.22497594356537        42.0676612854004    8.15791585821816E-09            254001.90625           101311.796875        288.113098144531       0.100923098623753     -0.0185784108242134                       0 
      -1.73736868434217                    -0.6        1.22497594356537        42.0676612854004    8.24338978906558E-09            254001.90625           101311.796875        288.113098144531       0.100923098623753     -0.0185784112784603                       0 
      -1.73486743371686                    -0.6        1.22497594356537        42.0676612854004    8.32886371991299E-09            254001.90625           101311.796875        288.113098144531       0.100923098623753     -0.0185784117327072                       0 
      -1.73236618309155                    -0.6        1.22497594356537        42.0676612854004    8.41433765076041E-09            254001.90625           101311.796875        288.113098144531       0.100923098623753     -0.0185784121869541                       0 
      -1.72986493246623                    -0.6        1.22497594356537        42.0676612854004    8.49981158160783E-09            254001.90625           101311.796875        288.113098144531       0.100923098623753      -0.018578412641201                       0 
      -1.72736368184092                    -0.6        1.22497594356537        42.0676612854004    8.58528551245524E-09            254001.90625           101311.796875        288.113098144531       0.100923098623753     -0.0185784130954479                       0 
      -1.72486243121561                    -0.6        1.22497594356537        42.0676612854004    8.67075944330266E-09            254001.90625           101311.796875        288.113098144531       0.100923098623753     -0.0185784135496948                       0 
       -1.7223611805903                    -0.6        1.22497594356537        42.0676612854004    8.75623337415008E-09            254001.90625           101311.796875        288.113098144531       0.100923098623753     -0.0185784140039417                       0 