 VARIABLES = "X",  "Y"
 ZONE N=       16863 , E=       33158 , F=FEPOINT, ET=TRIANGLE
        0.9961947000        0.0871557400
        0.0000000000        0.0000000000
        3.0000000000       -1.2500000000
       -2.0000000000       -1.2500000000
        3.0000000000        1.2500000000
       -2.0000000000        1.2500000000
        0.9662494360        0.0887861414
        0.9362960930        0.0902607215
        0.9063358787        0.0915884515
        0.8763697888        0.0927762464
        0.8463986609        0.0938293158
        0.8164232571        0.0947527731
        0.7864442042        0.0955490360
        0.7564620656        0.0962192147
        0.7264773699        0.0967629784
        0.6964906529        0.0971807482
        0.6665024008        0.0974676877
        0.6365131631        0.0976197633
        0.6065235462        0.0976307934
        0.5765342490        0.0974924219
        0.5465461171        0.0971946479
        0.5165601853        0.0967252429
        0.4865777391        0.0960702630
        0.4566004900        0.0952100407
        0.4266304279        0.0941283743
        0.3966703142        0.0927996790
        0.3667235813        0.0911978824
        0.3367947381        0.0892912390
        0.3068896644        0.0870428507
        0.2770160002        0.0844103559
        0.2471840719        0.0813415064
        0.2174081362        0.0777707935
        0.1877080108        0.0736174503
        0.1581127628        0.0687744017
        0.1286666035        0.0630969861
        0.0994437630        0.0563673639
        0.0705838495        0.0482277158
        0.0424043434        0.0379961907
        0.0159643841        0.0239492774
        0.0198805978       -0.0208132493
        0.0483580955       -0.0300555052
        0.0778861769       -0.0352382730
        0.1077210790       -0.0382427869
        0.1376685455       -0.0397956763
        0.1676532242       -0.0402735625
        0.1976398405       -0.0399038825
        0.2276099749       -0.0388367577
        0.2575535946       -0.0371826796
        0.2874652093       -0.0350246502
        0.3173421534       -0.0324296448
        0.3471833305       -0.0294509150
        0.3769885721       -0.0261315003
        0.4067584952       -0.0225087619
        0.4364941743       -0.0186147616
        0.4661967529       -0.0144757460
        0.4958679550       -0.0101173970
        0.5255086380       -0.0055560391
        0.5551205262       -0.0008113024
        0.5847047799        0.0041028253
        0.6142624993        0.0091741482
        0.6437945911        0.0143926533
        0.6733018181        0.0197499898
        0.7027846528        0.0252399861
        0.7322432607        0.0308585395
        0.7616779981        0.0366008287
        0.7910882645        0.0424671737
        0.8204735979        0.0484571508
        0.8498332530        0.0545717446
        0.8791661885        0.0608132473
        0.9084707679        0.0671865532
        0.9377452612        0.0736966494
        0.9669874863        0.0803501751
        2.9700598802       -1.2500000000
        2.9401197605       -1.2500000000
        2.9101796407       -1.2500000000
        2.8802395210       -1.2500000000
        2.8502994012       -1.2500000000
        2.8203592814       -1.2500000000
        2.7904191617       -1.2500000000
        2.7604790419       -1.2500000000
        2.7305389222       -1.2500000000
        2.7005988024       -1.2500000000
        2.6706586826       -1.2500000000
        2.6407185629       -1.2500000000
        2.6107784431       -1.2500000000
        2.5808383234       -1.2500000000
        2.5508982036       -1.2500000000
        2.5209580838       -1.2500000000
        2.4910179641       -1.2500000000
        2.4610778443       -1.2500000000
        2.4311377246       -1.2500000000
        2.4011976048       -1.2500000000
        2.3712574850       -1.2500000000
        2.3413173653       -1.2500000000
        2.3113772455       -1.2500000000
        2.2814371257       -1.2500000000
        2.2514970060       -1.2500000000
        2.2215568862       -1.2500000000
        2.1916167665       -1.2500000000
        2.1616766467       -1.2500000000
        2.1317365269       -1.2500000000
        2.1017964072       -1.2500000000
        2.0718562874       -1.2500000000
        2.0419161677       -1.2500000000
        2.0119760479       -1.2500000000
        1.9820359281       -1.2500000000
        1.9520958084       -1.2500000000
        1.9221556886       -1.2500000000
        1.8922155689       -1.2500000000
        1.8622754491       -1.2500000000
        1.8323353293       -1.2500000000
        1.8023952096       -1.2500000000
        1.7724550898       -1.2500000000
        1.7425149701       -1.2500000000
        1.7125748503       -1.2500000000
        1.6826347305       -1.2500000000
        1.6526946108       -1.2500000000
        1.6227544910       -1.2500000000
        1.5928143713       -1.2500000000
        1.5628742515       -1.2500000000
        1.5329341317       -1.2500000000
        1.5029940120       -1.2500000000
        1.4730538922       -1.2500000000
        1.4431137725       -1.2500000000
        1.4131736527       -1.2500000000
        1.3832335329       -1.2500000000
        1.3532934132       -1.2500000000
        1.3233532934       -1.2500000000
        1.2934131737       -1.2500000000
        1.2634730539       -1.2500000000
        1.2335329341       -1.2500000000
        1.2035928144       -1.2500000000
        1.1736526946       -1.2500000000
        1.1437125749       -1.2500000000
        1.1137724551       -1.2500000000
        1.0838323353       -1.2500000000
        1.0538922156       -1.2500000000
        1.0239520958       -1.2500000000
        0.9940119760       -1.2500000000
        0.9640718563       -1.2500000000
        0.9341317365       -1.2500000000
        0.9041916168       -1.2500000000
        0.8742514970       -1.2500000000
        0.8443113772       -1.2500000000
        0.8143712575       -1.2500000000
        0.7844311377       -1.2500000000
        0.7544910180       -1.2500000000
        0.7245508982       -1.2500000000
        0.6946107784       -1.2500000000
        0.6646706587       -1.2500000000
        0.6347305389       -1.2500000000
        0.6047904192       -1.2500000000
        0.5748502994       -1.2500000000
        0.5449101796       -1.2500000000
        0.5149700599       -1.2500000000
        0.4850299401       -1.2500000000
        0.4550898204       -1.2500000000
        0.4251497006       -1.2500000000
        0.3952095808       -1.2500000000
        0.3652694611       -1.2500000000
        0.3353293413       -1.2500000000
        0.3053892216       -1.2500000000
        0.2754491018       -1.2500000000
        0.2455089820       -1.2500000000
        0.2155688623       -1.2500000000
        0.1856287425       -1.2500000000
        0.1556886228       -1.2500000000
        0.1257485030       -1.2500000000
        0.0958083832       -1.2500000000
        0.0658682635       -1.2500000000
        0.0359281437       -1.2500000000
        0.0059880240       -1.2500000000
       -0.0239520958       -1.2500000000
       -0.0538922156       -1.2500000000
       -0.0838323353       -1.2500000000
       -0.1137724551       -1.2500000000
       -0.1437125749       -1.2500000000
       -0.1736526946       -1.2500000000
       -0.2035928144       -1.2500000000
       -0.2335329341       -1.2500000000
       -0.2634730539       -1.2500000000
       -0.2934131737       -1.2500000000
       -0.3233532934       -1.2500000000
       -0.3532934132       -1.2500000000
       -0.3832335329       -1.2500000000
       -0.4131736527       -1.2500000000
       -0.4431137725       -1.2500000000
       -0.4730538922       -1.2500000000
       -0.5029940120       -1.2500000000
       -0.5329341317       -1.2500000000
       -0.5628742515       -1.2500000000
       -0.5928143713       -1.2500000000
       -0.6227544910       -1.2500000000
       -0.6526946108       -1.2500000000
       -0.6826347305       -1.2500000000
       -0.7125748503       -1.2500000000
       -0.7425149701       -1.2500000000
       -0.7724550898       -1.2500000000
       -0.8023952096       -1.2500000000
       -0.8323353293       -1.2500000000
       -0.8622754491       -1.2500000000
       -0.8922155689       -1.2500000000
       -0.9221556886       -1.2500000000
       -0.9520958084       -1.2500000000
       -0.9820359281       -1.2500000000
       -1.0119760479       -1.2500000000
       -1.0419161677       -1.2500000000
       -1.0718562874       -1.2500000000
       -1.1017964072       -1.2500000000
       -1.1317365269       -1.2500000000
       -1.1616766467       -1.2500000000
       -1.1916167665       -1.2500000000
       -1.2215568862       -1.2500000000
       -1.2514970060       -1.2500000000
       -1.2814371257       -1.2500000000
       -1.3113772455       -1.2500000000
       -1.3413173653       -1.2500000000
       -1.3712574850       -1.2500000000
       -1.4011976048       -1.2500000000
       -1.4311377246       -1.2500000000
       -1.4610778443       -1.2500000000
       -1.4910179641       -1.2500000000
       -1.5209580838       -1.2500000000
       -1.5508982036       -1.2500000000
       -1.5808383234       -1.2500000000
       -1.6107784431       -1.2500000000
       -1.6407185629       -1.2500000000
       -1.6706586826       -1.2500000000
       -1.7005988024       -1.2500000000
       -1.7305389222       -1.2500000000
       -1.7604790419       -1.2500000000
       -1.7904191617       -1.2500000000
       -1.8203592814       -1.2500000000
       -1.8502994012       -1.2500000000
       -1.8802395210       -1.2500000000
       -1.9101796407       -1.2500000000
       -1.9401197605       -1.2500000000
       -1.9700598802       -1.2500000000
        3.0000000000        1.2198795181
        3.0000000000        1.1897590361
        3.0000000000        1.1596385542
        3.0000000000        1.1295180723
        3.0000000000        1.0993975904
        3.0000000000        1.0692771084
        3.0000000000        1.0391566265
        3.0000000000        1.0090361446
        3.0000000000        0.9789156627
        3.0000000000        0.9487951807
        3.0000000000        0.9186746988
        3.0000000000        0.8885542169
        3.0000000000        0.8584337349
        3.0000000000        0.8283132530
        3.0000000000        0.7981927711
        3.0000000000        0.7680722892
        3.0000000000        0.7379518072
        3.0000000000        0.7078313253
        3.0000000000        0.6777108434
        3.0000000000        0.6475903614
        3.0000000000        0.6174698795
        3.0000000000        0.5873493976
        3.0000000000        0.5572289157
        3.0000000000        0.5271084337
        3.0000000000        0.4969879518
        3.0000000000        0.4668674699
        3.0000000000        0.4367469880
        3.0000000000        0.4066265060
        3.0000000000        0.3765060241
        3.0000000000        0.3463855422
        3.0000000000        0.3162650602
        3.0000000000        0.2861445783
        3.0000000000        0.2560240964
        3.0000000000        0.2259036145
        3.0000000000        0.1957831325
        3.0000000000        0.1656626506
        3.0000000000        0.1355421687
        3.0000000000        0.1054216867
        3.0000000000        0.0753012048
        3.0000000000        0.0451807229
        3.0000000000        0.0150602410
        3.0000000000       -0.0150602410
        3.0000000000       -0.0451807229
        3.0000000000       -0.0753012048
        3.0000000000       -0.1054216867
        3.0000000000       -0.1355421687
        3.0000000000       -0.1656626506
        3.0000000000       -0.1957831325
        3.0000000000       -0.2259036145
        3.0000000000       -0.2560240964
        3.0000000000       -0.2861445783
        3.0000000000       -0.3162650602
        3.0000000000       -0.3463855422
        3.0000000000       -0.3765060241
        3.0000000000       -0.4066265060
        3.0000000000       -0.4367469880
        3.0000000000       -0.4668674699
        3.0000000000       -0.4969879518
        3.0000000000       -0.5271084337
        3.0000000000       -0.5572289157
        3.0000000000       -0.5873493976
        3.0000000000       -0.6174698795
        3.0000000000       -0.6475903614
        3.0000000000       -0.6777108434
        3.0000000000       -0.7078313253
        3.0000000000       -0.7379518072
        3.0000000000       -0.7680722892
        3.0000000000       -0.7981927711
        3.0000000000       -0.8283132530
        3.0000000000       -0.8584337349
        3.0000000000       -0.8885542169
        3.0000000000       -0.9186746988
        3.0000000000       -0.9487951807
        3.0000000000       -0.9789156627
        3.0000000000       -1.0090361446
        3.0000000000       -1.0391566265
        3.0000000000       -1.0692771084
        3.0000000000       -1.0993975904
        3.0000000000       -1.1295180723
        3.0000000000       -1.1596385542
        3.0000000000       -1.1897590361
        3.0000000000       -1.2198795181
       -1.9700598802        1.2500000000
       -1.9401197605        1.2500000000
       -1.9101796407        1.2500000000
       -1.8802395210        1.2500000000
       -1.8502994012        1.2500000000
       -1.8203592814        1.2500000000
       -1.7904191617        1.2500000000
       -1.7604790419        1.2500000000
       -1.7305389222        1.2500000000
       -1.7005988024        1.2500000000
       -1.6706586826        1.2500000000
       -1.6407185629        1.2500000000
       -1.6107784431        1.2500000000
       -1.5808383234        1.2500000000
       -1.5508982036        1.2500000000
       -1.5209580838        1.2500000000
       -1.4910179641        1.2500000000
       -1.4610778443        1.2500000000
       -1.4311377246        1.2500000000
       -1.4011976048        1.2500000000
       -1.3712574850        1.2500000000
       -1.3413173653        1.2500000000
       -1.3113772455        1.2500000000
       -1.2814371257        1.2500000000
       -1.2514970060        1.2500000000
       -1.2215568862        1.2500000000
       -1.1916167665        1.2500000000
       -1.1616766467        1.2500000000
       -1.1317365269        1.2500000000
       -1.1017964072        1.2500000000
       -1.0718562874        1.2500000000
       -1.0419161677        1.2500000000
       -1.0119760479        1.2500000000
       -0.9820359281        1.2500000000
       -0.9520958084        1.2500000000
       -0.9221556886        1.2500000000
       -0.8922155689        1.2500000000
       -0.8622754491        1.2500000000
       -0.8323353293        1.2500000000
       -0.8023952096        1.2500000000
       -0.7724550898        1.2500000000
       -0.7425149701        1.2500000000
       -0.7125748503        1.2500000000
       -0.6826347305        1.2500000000
       -0.6526946108        1.2500000000
       -0.6227544910        1.2500000000
       -0.5928143713        1.2500000000
       -0.5628742515        1.2500000000
       -0.5329341317        1.2500000000
       -0.5029940120        1.2500000000
       -0.4730538922        1.2500000000
       -0.4431137725        1.2500000000
       -0.4131736527        1.2500000000
       -0.3832335329        1.2500000000
       -0.3532934132        1.2500000000
       -0.3233532934        1.2500000000
       -0.2934131737        1.2500000000
       -0.2634730539        1.2500000000
       -0.2335329341        1.2500000000
       -0.2035928144        1.2500000000
       -0.1736526946        1.2500000000
       -0.1437125749        1.2500000000
       -0.1137724551        1.2500000000
       -0.0838323353        1.2500000000
       -0.0538922156        1.2500000000
       -0.0239520958        1.2500000000
        0.0059880240        1.2500000000
        0.0359281437        1.2500000000
        0.0658682635        1.2500000000
        0.0958083832        1.2500000000
        0.1257485030        1.2500000000
        0.1556886228        1.2500000000
        0.1856287425        1.2500000000
        0.2155688623        1.2500000000
        0.2455089820        1.2500000000
        0.2754491018        1.2500000000
        0.3053892216        1.2500000000
        0.3353293413        1.2500000000
        0.3652694611        1.2500000000
        0.3952095808        1.2500000000
        0.4251497006        1.2500000000
        0.4550898204        1.2500000000
        0.4850299401        1.2500000000
        0.5149700599        1.2500000000
        0.5449101796        1.2500000000
        0.5748502994        1.2500000000
        0.6047904192        1.2500000000
        0.6347305389        1.2500000000
        0.6646706587        1.2500000000
        0.6946107784        1.2500000000
        0.7245508982        1.2500000000
        0.7544910180        1.2500000000
        0.7844311377        1.2500000000
        0.8143712575        1.2500000000
        0.8443113772        1.2500000000
        0.8742514970        1.2500000000
        0.9041916168        1.2500000000
        0.9341317365        1.2500000000
        0.9640718563        1.2500000000
        0.9940119760        1.2500000000
        1.0239520958        1.2500000000
        1.0538922156        1.2500000000
        1.0838323353        1.2500000000
        1.1137724551        1.2500000000
        1.1437125749        1.2500000000
        1.1736526946        1.2500000000
        1.2035928144        1.2500000000
        1.2335329341        1.2500000000
        1.2634730539        1.2500000000
        1.2934131737        1.2500000000
        1.3233532934        1.2500000000
        1.3532934132        1.2500000000
        1.3832335329        1.2500000000
        1.4131736527        1.2500000000
        1.4431137725        1.2500000000
        1.4730538922        1.2500000000
        1.5029940120        1.2500000000
        1.5329341317        1.2500000000
        1.5628742515        1.2500000000
        1.5928143713        1.2500000000
        1.6227544910        1.2500000000
        1.6526946108        1.2500000000
        1.6826347305        1.2500000000
        1.7125748503        1.2500000000
        1.7425149701        1.2500000000
        1.7724550898        1.2500000000
        1.8023952096        1.2500000000
        1.8323353293        1.2500000000
        1.8622754491        1.2500000000
        1.8922155689        1.2500000000
        1.9221556886        1.2500000000
        1.9520958084        1.2500000000
        1.9820359281        1.2500000000
        2.0119760479        1.2500000000
        2.0419161677        1.2500000000
        2.0718562874        1.2500000000
        2.1017964072        1.2500000000
        2.1317365269        1.2500000000
        2.1616766467        1.2500000000
        2.1916167665        1.2500000000
        2.2215568862        1.2500000000
        2.2514970060        1.2500000000
        2.2814371257        1.2500000000
        2.3113772455        1.2500000000
        2.3413173653        1.2500000000
        2.3712574850        1.2500000000
        2.4011976048        1.2500000000
        2.4311377246        1.2500000000
        2.4610778443        1.2500000000
        2.4910179641        1.2500000000
        2.5209580838        1.2500000000
        2.5508982036        1.2500000000
        2.5808383234        1.2500000000
        2.6107784431        1.2500000000
        2.6407185629        1.2500000000
        2.6706586826        1.2500000000
        2.7005988024        1.2500000000
        2.7305389222        1.2500000000
        2.7604790419        1.2500000000
        2.7904191617        1.2500000000
        2.8203592814        1.2500000000
        2.8502994012        1.2500000000
        2.8802395210        1.2500000000
        2.9101796407        1.2500000000
        2.9401197605        1.2500000000
        2.9700598802        1.2500000000
       -2.0000000000       -1.2198795181
       -2.0000000000       -1.1897590361
       -2.0000000000       -1.1596385542
       -2.0000000000       -1.1295180723
       -2.0000000000       -1.0993975904
       -2.0000000000       -1.0692771084
       -2.0000000000       -1.0391566265
       -2.0000000000       -1.0090361446
       -2.0000000000       -0.9789156627
       -2.0000000000       -0.9487951807
       -2.0000000000       -0.9186746988
       -2.0000000000       -0.8885542169
       -2.0000000000       -0.8584337349
       -2.0000000000       -0.8283132530
       -2.0000000000       -0.7981927711
       -2.0000000000       -0.7680722892
       -2.0000000000       -0.7379518072
       -2.0000000000       -0.7078313253
       -2.0000000000       -0.6777108434
       -2.0000000000       -0.6475903614
       -2.0000000000       -0.6174698795
       -2.0000000000       -0.5873493976
       -2.0000000000       -0.5572289157
       -2.0000000000       -0.5271084337
       -2.0000000000       -0.4969879518
       -2.0000000000       -0.4668674699
       -2.0000000000       -0.4367469880
       -2.0000000000       -0.4066265060
       -2.0000000000       -0.3765060241
       -2.0000000000       -0.3463855422
       -2.0000000000       -0.3162650602
       -2.0000000000       -0.2861445783
       -2.0000000000       -0.2560240964
       -2.0000000000       -0.2259036145
       -2.0000000000       -0.1957831325
       -2.0000000000       -0.1656626506
       -2.0000000000       -0.1355421687
       -2.0000000000       -0.1054216867
       -2.0000000000       -0.0753012048
       -2.0000000000       -0.0451807229
       -2.0000000000       -0.0150602410
       -2.0000000000        0.0150602410
       -2.0000000000        0.0451807229
       -2.0000000000        0.0753012048
       -2.0000000000        0.1054216867
       -2.0000000000        0.1355421687
       -2.0000000000        0.1656626506
       -2.0000000000        0.1957831325
       -2.0000000000        0.2259036145
       -2.0000000000        0.2560240964
       -2.0000000000        0.2861445783
       -2.0000000000        0.3162650602
       -2.0000000000        0.3463855422
       -2.0000000000        0.3765060241
       -2.0000000000        0.4066265060
       -2.0000000000        0.4367469880
       -2.0000000000        0.4668674699
       -2.0000000000        0.4969879518
       -2.0000000000        0.5271084337
       -2.0000000000        0.5572289157
       -2.0000000000        0.5873493976
       -2.0000000000        0.6174698795
       -2.0000000000        0.6475903614
       -2.0000000000        0.6777108434
       -2.0000000000        0.7078313253
       -2.0000000000        0.7379518072
       -2.0000000000        0.7680722892
       -2.0000000000        0.7981927711
       -2.0000000000        0.8283132530
       -2.0000000000        0.8584337349
       -2.0000000000        0.8885542169
       -2.0000000000        0.9186746988
       -2.0000000000        0.9487951807
       -2.0000000000        0.9789156627
       -2.0000000000        1.0090361446
       -2.0000000000        1.0391566265
       -2.0000000000        1.0692771084
       -2.0000000000        1.0993975904
       -2.0000000000        1.1295180723
       -2.0000000000        1.1596385542
       -2.0000000000        1.1897590361
       -2.0000000000        1.2198795181
        2.9731726295        0.3598598840
       -1.9798718538       -0.3277449075
        0.8244296039        1.2296113112
        0.3795597876        1.2255053104
       -0.4281769180        1.2308079801
       -0.7500351919        1.1966201026
        2.9485678096       -0.3762068900
       -1.9386316566        1.2262932498
       -1.9083822850        1.2277858495
        0.0873309855       -0.0574845224
        1.5155921906       -1.2217291253
        1.6974529706       -1.2257242139
        1.6726791701       -1.2291304087
        1.6797188658       -1.2038476925
        1.5259222021       -1.1932898278
        1.5493431684       -1.2189289436
        1.5769136539       -1.2288199387
        1.4850405596       -1.2241258216
        1.4954345053       -1.1977039180
        1.5044697670       -1.1696427627
        1.5126378393       -1.1404843982
        1.6600484089       -1.1843305171
        1.6536924253       -1.2129407505
        1.6281321129       -1.2205543305
        1.6398075899       -1.1631525835
        1.6332182156       -1.1920316145
        1.6007724330       -1.2245651623
        1.6063883105       -1.1988452278
        1.6192083115       -1.1413576631
        1.6123254194       -1.1705141147
        1.5788250289       -1.2058843258
        1.5557164393       -1.1864055406
        1.5337968732       -1.1634955011
        1.5368118374       -1.0529218981
        1.5286814445       -1.0819065665
        1.5206387484       -1.1111191132
        1.5414766994       -1.1337497186
        1.5845082285       -1.1779196722
        1.5627327627       -1.1563157265
        1.5911674761       -1.1487448451
        1.5700830108       -1.1265968440
        1.5492582480       -1.1042175643
        1.5572048648       -1.0750008582
        1.5984519997       -1.1193063109
        1.5777507423       -1.0971481518
        2.9808627232       -1.2222925352
        0.1003285554        1.1993115156
        1.7538683618       -1.2188710399
        1.8062608487       -1.2309509658
        1.7835574116       -1.2121649074
        1.8359813058       -1.2233746346
        1.8131025870       -1.2029905438
        1.7251151206       -1.2224034294
        1.7352419937       -1.1950006138
        1.7634664673       -1.1895450627
        1.7919591484       -1.1824478272
        1.8413476550       -1.1947456842
        1.8487246777       -1.1659216384
        1.8204775984       -1.1741226853
        1.6998886518        1.2272226759
        1.7260580974        1.2307733051
       -1.7846529383        1.0205389948
       -1.4288434245       -1.0354276662
       -0.7297070279        1.1810918057
       -0.7072457317        1.1689571953
       -0.7025329014        1.1962662522
       -0.6696937444        1.2289774750
       -0.6730929049        1.2048372119
       -0.6802473930        1.1767701246
        2.1742693850       -1.2221931100
       -0.8693016509        1.0745478893
        0.2762829884       -1.2073360343
        0.3021898809       -1.2039539463
       -1.0023167098        0.8868509389
       -0.7971954059       -1.2321725606
       -0.2614309377       -1.2060466670
       -0.3496908111        1.1985196362
       -0.2961325778        1.2059032444
       -0.3212489862        1.2024863721
       -0.3304084879        1.1762961213
        0.3913859160        1.1097891225
        1.2673504153       -1.0633620758
        1.0088899664        1.2260669594
        1.0337473747        1.2294993593
       -0.3945234912        1.0565147321
       -0.3744436680        1.0346264385
       -0.3830234554        1.0061580291
       -0.4030838338        1.0279459097
        0.6895074320        1.0467229202
        1.8820850646       -1.2299886308
        2.7778693188       -1.2318618998
        1.9348654128       -1.2233821075
        1.9070333239       -1.2264885958
        1.8625565443       -1.2148272076
        1.8892025818       -1.2054027494
        2.6261844050        1.2306735032
        2.5999851928        1.2272913437
        2.7640987608       -1.1868251300
        2.8045045933       -1.2270382729
        2.7854240225       -1.2073933195
        2.4176366293       -1.0300635046
        2.4376868922       -1.0519442034
        2.3036132798        1.2190554795
        2.8408990365        1.2016720623
        2.3235864187        1.1952174202
        2.4047355813        1.1057294890
        2.3846048778        1.1275910924
        2.3642605439        1.1496420276
        2.3438176813        1.1721163930
        1.7073578006       -1.1991848226
        1.6877300011       -1.1772984246
        1.6956163450       -1.1493378911
       -0.2401886692        1.1976444170
       -0.2716633067        1.1945101374
       -0.2523859456        1.1700700507
        0.4004889143        1.1390693895
        0.4222057146        1.1961214208
        0.4098271175        1.1683326400
        0.4390403219        1.1725084386
        0.4511607473        1.1993837015
        0.4290351803        1.1448152161
        0.4484820162        1.1222211965
        0.4680688382        1.1001501822
        0.4877167778        1.0782517172
        0.5074587698        1.0564283312
        0.5160683856        1.0849135019
        0.4964594471        1.1066965910
        0.4761038828        1.2021084868
        0.4770063970        1.1283861934
        0.4576762630        1.1500304514
        0.4671868745        1.1767196047
       -1.9718809834       -1.2219407354
        1.7157619906       -1.1718498309
        1.7237278067       -1.1432556123
        1.7316363480       -1.1140918393
        1.7437604302       -1.1663321717
        1.7518027761       -1.1369591614
        1.7718254799       -1.1599463042
        1.8000923589       -1.1525510758
        1.8082485205       -1.1227389543
        1.7799598257       -1.1300914104
        1.7881083804       -1.1004300414
        2.9796945591        1.0805439502
        0.6834931789       -1.2241543076
       -0.8633382411        1.1031670556
       -0.8335199592        1.1106708426
       -0.8036919660        1.1195246754
       -0.8109519596        1.0911918146
       -0.1676774795        1.1918891215
        1.3500662532       -0.7025249617
        1.4470965490       -0.7321117020
        1.4271092977       -0.7107077081
        1.4185681470       -0.7387225704
        1.4071222718       -0.6893055485
        1.3985810972       -0.7173177653
        1.3900397493       -0.7453342533
        1.3700529464       -0.7239283456
        1.7598339814       -1.1074110098
        1.7396537877       -1.0849035174
        1.7679598599       -1.0781085408
        1.7478010882       -1.0559586258