/*--------------------------------*- C++ -*----------------------------------*\
  =========                 |
  \\      /  F ield         | OpenFOAM: The Open Source CFD Toolbox
   \\    /   O peration     | Website:  https://openfoam.org
    \\  /    A nd           | Version:  6
     \\/     M anipulation  |
\*---------------------------------------------------------------------------*/
FoamFile
{
    version     2.0;
    format      ascii;
    class       surfaceScalarField;
    location    "180";
    object      phi;
}
// * * * * * * * * * * * * * * * * * * * * * * * * * * * * * * * * * * * * * //

dimensions      [0 3 -1 0 0 0 0];

internalField   nonuniform List<scalar> 
7780
(
2
1.34765e-16
2
1.18188e-16
2
3.67151e-17
2
2.84811e-16
2
2.60267e-16
2
2.83332e-16
2
3.66933e-16
2
2.79223e-16
2
1.10897e-16
2
1.88523e-16
2
3.54262e-16
2
3.31688e-16
2
3.54757e-16
2
1.67068e-16
2
-2.91325e-17
2
8.67996e-17
2
-4.97205e-17
2
-1.3792e-16
2
-9.22067e-18
2
1.72907e-16
2
1.63193e-16
2
6.88979e-17
2
1.37057e-16
2
2.39328e-16
2
2.16748e-16
2
3.47922e-17
2
9.05139e-17
2
7.84764e-17
2
2.86423e-17
2
-1.02591e-16
2
4.86856e-17
2
3.66333e-17
2
1.70285e-16
2
1.60667e-17
2
1.88296e-17
2
1.17149e-16
2
2.96402e-16
2
3.60617e-16
2
1.99411e-16
2
1.64625e-16
2
2.0448e-16
2
8.73931e-17
2
-3.9434e-17
2
-9.51427e-17
2
-8.60476e-18
2
1.57867e-16
2
1.92756e-16
2
1.99023e-16
2
2.71941e-16
2
2.29707e-16
2
3.55253e-17
2
1.88584e-16
2
1.62502e-16
2
1.33779e-16
2
1.71217e-16
2
3.23351e-16
2
2.72773e-16
2
1.36347e-16
2
-2.25095e-17
2
-6.04953e-17
2
6.55601e-18
2
-5.74273e-17
2
-1.96159e-17
2
3.36307e-17
2
-2.21408e-17
2
-8.64228e-17
2
-1.96907e-16
2
-1.87762e-16
2
-6.14814e-17
2
-1.63679e-17
2
-5.44766e-17
2
1.723e-16
2
1.99918e-16
2
1.05031e-16
2
1.04393e-17
2
5.56145e-17
2
1.44194e-16
2
2.37806e-16
2
2.17152e-16
2
1.7087e-16
2
2.02072e-16
2
1.82279e-16
2
1.68615e-16
2
7.48933e-17
2
-4.33068e-17
2
7.75476e-18
2
1.84984e-16
2
1.43683e-16
2
-1.24387e-16
2
-1.61541e-16
2
-6.46902e-19
2
5.99112e-17
2
-1.47153e-17
2
-5.68958e-17
2
1.31385e-16
2
3.03524e-16
2
3.68041e-16
2
3.1524e-16
2
3.25675e-16
2
1.23172e-16
2
-2.63482e-18
2
4.47617e-17
2
2.19826e-16
2
1.62895e-16
2
2.04015e-16
2
1.41638e-16
2
1.97293e-16
2
1.47665e-16
2
6.01683e-17
2
-3.15014e-16
2
-2.1437e-16
2
-3.93429e-17
2
-2.37977e-16
2
-7.46388e-17
2
-3.6061e-17
2
-1.31276e-16
2
-6.9622e-17
2
-1.21903e-16
2
-1.94985e-16
2
-7.09884e-17
2
5.68265e-18
2
1.16553e-16
2
-3.6864e-17
2
-2.42228e-16
2
-1.4566e-16
2
-8.21219e-17
2
4.63806e-18
2
1.15897e-16
2
-2.03657e-16
2
-5.34828e-17
2
1.24531e-18
2
7.20864e-18
2
-3.28806e-17
2
-1.24362e-17
2
-4.83589e-18
2
-8.17604e-17
2
-2.09603e-16
2
1.22104e-16
2
1.40658e-16
2
1.86722e-16
2
1.31073e-16
2
2.09046e-16
2
3.34314e-16
2
2.02115e-16
2
2.23387e-16
2
1.01847e-16
2
2.52714e-17
2
3.39469e-17
2
4.4326e-16
2
2.59909e-16
2
1.17772e-16
2
1.51027e-16
2
1.13907e-16
2
1.26284e-16
2
9.78978e-17
2
2.27127e-16
2
1.40258e-16
2
2.62408e-16
2
3.18265e-16
2
1.79425e-16
2
2.59882e-16
2
5.34143e-17
2
7.26759e-17
2
-4.81407e-17
2
-4.28186e-17
2
-5.23109e-18
2
2.95223e-17
2
-5.66205e-17
2
-7.17052e-17
2
-1.93397e-16
2
-2.13224e-16
2
5.08165e-17
2
-1.09431e-16
2
-6.34994e-17
2
2.09424e-16
2
1.12377e-16
2
2.43184e-16
2
1.65284e-16
2
1.86343e-17
2
-1.2595e-16
2
4.25939e-18
2
-6.94471e-17
2
-1.65828e-16
2
-1.67709e-16
2
-1.35973e-16
2
5.98795e-18
2
1.31972e-17
2
1.04312e-16
2
2.81674e-16
2
-1.51581e-17
2
1.71853e-16
2
2.5117e-16
2
1.41508e-16
2
1.67593e-16
2
1.65112e-16
2
3.70197e-16
2
3.02325e-16
2
3.61557e-16
2
2.59167e-16
2.19551e-16
2
-1.92245e-16
2
-1.59188e-16
2
7.68884e-17
2
2.89748e-16
2
3.58966e-16
2
2.94688e-16
2
3.20092e-16
2
2.7638e-16
2
3.15412e-16
2
2.4077e-16
2
1.74969e-16
2
3.56676e-16
2
4.92333e-16
2
2.00067e-16
2
9.72922e-17
2
-9.36095e-17
2
-1.45777e-16
2
9.21342e-19
2
1.65206e-16
2
3.0478e-16
2
2.3476e-16
2
3.13678e-16
2
7.16597e-17
2
2.03018e-16
2
2.65802e-16
2
3.16599e-17
2
5.75511e-17
2
3.02414e-17
2
3.98507e-17
2
-4.89602e-17
2
7.56195e-17
2
2.17713e-16
2
1.33998e-16
2
5.02047e-18
2
7.10973e-18
2
1.11445e-16
2
3.4281e-16
2
1.21905e-16
2
2.12376e-17
2
6.88955e-17
2
-8.36873e-17
2
-6.87154e-17
2
-7.10816e-17
2
-3.23517e-17
2
8.54013e-17
2
1.5485e-16
2
2.01e-16
2
9.00672e-17
2
1.15907e-17
2
-1.68617e-16
2
-1.73091e-17
2
-6.62683e-17
2
1.60061e-16
2
3.95562e-16
2
1.86755e-16
2
7.77252e-17
2
7.68279e-17
2
3.03318e-16
2
3.65997e-16
2
8.78722e-17
2
-1.20607e-16
2
-3.61467e-16
2
-1.385e-16
2
-5.22947e-17
2
-8.95539e-17
2
-2.02174e-16
2
-6.4394e-17
2
-1.295e-16
2
-1.96511e-16
2
-1.16231e-16
2
6.53768e-17
2
1.66285e-16
2
1.83052e-16
2
1.37147e-16
2
1.76278e-16
2
7.96435e-17
2
1.12289e-16
2
2.05569e-16
2
2.71599e-16
2
3.29906e-16
2
1.2712e-16
2
1.97115e-16
2
2.57498e-16
2
1.40497e-16
2
1.92307e-16
2
1.55942e-16
2
-2.11439e-17
2
5.71557e-17
2
1.09756e-16
2
1.78844e-16
2
-1.52587e-17
2
1.42519e-17
2
9.34757e-17
2
3.75942e-16
2
2.88961e-16
2
1.76708e-16
2
1.20481e-16
2
1.49235e-16
2
1.05564e-16
2
-3.16555e-17
2
-5.57049e-17
2
-5.21598e-18
2
-3.99004e-17
2
2.21376e-16
2
1.7822e-16
2
1.26389e-16
2
1.03187e-16
2
1.49597e-16
2
3.0469e-17
2
-4.04977e-17
2
-2.54676e-16
2
-1.57186e-16
2
-7.2422e-18
2
6.69511e-18
2
-1.07009e-16
2
-1.26416e-16
2
1.1352e-17
2
-8.03398e-17
2
1.53463e-16
2
1.19964e-16
2
-1.80838e-17
2
3.03609e-17
2
4.42527e-17
2
3.89903e-17
2
-4.27538e-17
2
-1.53181e-16
2
-3.5888e-17
2
-1.1361e-16
2
5.21614e-17
2
-1.44665e-16
2
-2.40814e-16
2
5.82079e-17
2
1.26554e-16
2
1.66168e-16
2
7.84253e-17
2
1.11124e-16
2
1.669e-17
2
-3.56542e-17
2
1.27172e-18
2
-5.53617e-17
2
1.40514e-16
2
7.44605e-17
2
-8.46211e-17
2
1.01606e-16
2
2.19879e-16
2
1.01576e-16
2
-6.87234e-17
2
-6.56035e-17
2
-1.33401e-16
2
1.29221e-16
2
-4.55627e-17
2
2.89037e-17
2
1.3636e-16
2
2.832e-16
2
3.15471e-16
2
2.04546e-16
2
1.23681e-16
2
1.2355e-16
2
2.22928e-16
2
1.33921e-16
2
-2.276e-16
2
5.46346e-18
2
2.09532e-16
2
-5.10162e-17
2
-3.37655e-16
2
-1.24048e-16
2
7.88973e-17
2
-2.62991e-17
2
-2.65402e-16
2
-1.37209e-16
2
-1.29939e-16
2
-1.32319e-16
2
-2.74999e-17
2
1.2682e-16
2
2.10141e-16
2
3.42509e-16
2
1.87702e-16
2
2.32615e-16
2
6.90553e-17
2
-5.17286e-17
2
-1.36897e-16
2
-7.66734e-17
2
-2.13983e-16
2
-2.04304e-16
2
-1.33508e-16
2
-1.74643e-17
2
7.23199e-17
2
1.30186e-16
2
2.11637e-16
2
3.47805e-16
2
3.2142e-16
2
3.44455e-16
2
3.57983e-16
2
1.04305e-16
2
-3.86817e-17
2
1.04277e-16
2
1.18361e-16
2
1.96895e-16
2
3.82805e-16
2.42146e-16
2
-1.20985e-16
2
-1.66953e-16
2
-4.76879e-17
2
8.82095e-17
2
1.86223e-16
2
3.11595e-16
2
3.39124e-16
2
1.90728e-16
2
2.69935e-16
2
3.02888e-16
2
2.29829e-16
2
1.85357e-17
2
1.67663e-16
2
1.21658e-16
2
-2.12606e-17
2
5.7606e-17
2
1.00572e-16
2
1.60774e-16
2
3.08463e-16
2
2.02679e-16
2
2.88146e-16
2
9.37593e-17
2
5.1232e-17
2
-2.93612e-17
2
-4.31294e-17
2
1.55881e-16
2
-4.96675e-17
2
2.98495e-17
2
1.22582e-16
2
3.07736e-16
2
1.08926e-16
2
1.47086e-16
2
1.21024e-16
2
1.18117e-16
2
-4.77045e-17
2
-4.18799e-17
2
-2.00471e-16
2
-5.55337e-17
2
1.26695e-16
2
8.76326e-17
2
1.06619e-16
2
-5.46492e-17
2
-1.97281e-17
2
8.38203e-17
2
3.02651e-17
2
2.84525e-17
2
9.47766e-18
2
4.31516e-17
2
8.91583e-17
2
-1.7288e-16
2
-2.05246e-16
2
1.3215e-17
2
2.01278e-16
2
1.05401e-16
2
1.70707e-16
2
2.93992e-16
2
1.13019e-16
2
1.59446e-16
2
2.09979e-16
2
1.61897e-16
2
1.37501e-16
2
9.33438e-17
2
-1.32981e-16
2
-3.40971e-17
2
-1.39951e-16
2
-2.23507e-16
2
-2.95155e-16
2
-1.78631e-16
2
-2.03198e-16
2
-3.31272e-17
2
6.94062e-17
2
1.11252e-16
2
1.11376e-16
2
1.09258e-16
2
7.85176e-17
2
3.20089e-16
2
3.39773e-16
2
8.76747e-17
2
1.93407e-16
2
1.5417e-16
2
-1.90401e-18
2
1.13513e-16
2
-4.74933e-17
2
4.73294e-17
2
4.41275e-17
2
-7.01071e-17
2
3.12556e-18
2
2.94921e-17
2
2.40454e-16
2
7.9268e-17
2
4.80274e-17
2
-1.0299e-16
2
5.58815e-17
2
6.24206e-17
2
2.2233e-16
2
7.1559e-17
2
1.8932e-16
2
5.211e-17
2
-2.96812e-17
2
-4.77623e-18
2
-2.3526e-16
2
-7.85425e-17
2
1.10206e-16
2
-9.46109e-17
2
6.0126e-18
2
4.68361e-17
2
-7.35986e-17
2
-1.59518e-16
2
-2.41005e-17
2
-4.91933e-17
2
-3.47042e-17
2
-1.66034e-16
2
4.96224e-17
2
6.05051e-17
2
-2.5277e-17
2
-9.47966e-17
2
-1.42298e-16
2
4.877e-17
2
-5.67328e-18
2
1.58711e-16
2
6.5591e-17
2
2.09504e-17
2
-3.78213e-17
2
1.39509e-16
2
1.19993e-16
2
-4.08173e-17
2
-1.28148e-16
2
-2.27521e-16
2
-1.17595e-16
2
-1.19374e-16
2
-1.6003e-17
2
-5.27268e-17
2
-1.07051e-16
2
2.7169e-17
2
9.24486e-17
2
1.16389e-17
2
1.89241e-16
2
1.07516e-16
2
7.64679e-17
2
3.50548e-17
2
6.23801e-17
2
4.05395e-17
2
8.87109e-17
2
1.40167e-16
2
1.70437e-17
2
1.25093e-16
2
1.94054e-16
2
1.51231e-16
2
5.16141e-17
2
7.44733e-17
2
1.23137e-16
2
-1.17623e-17
2
1.47289e-16
2
2.00345e-16
2
2.31469e-16
2
8.72529e-17
2
-1.14869e-16
2
-1.37065e-16
2
-9.34367e-17
2
-4.13295e-17
2
9.01523e-18
2
-5.42564e-17
2
-1.54569e-16
2
-1.34444e-16
2
5.89992e-17
2
6.65117e-17
2
-1.78543e-16
2
-2.63866e-17
2
-1.52744e-16
2
-1.63983e-16
2
-1.05923e-16
2
-4.96662e-17
2
1.07378e-17
2
-6.59066e-17
2
1.44094e-16
2
2.85561e-16
2
3.50604e-16
2
9.70109e-17
2
2.05242e-16
2
4.11949e-17
2
1.06733e-16
2
-1.4168e-17
2
4.62623e-18
2
-1.61941e-16
2
-9.35974e-17
2
2.11905e-17
2
2.54775e-16
2
1.76276e-16
2
1.57318e-16
2
3.70315e-16
2
3.95984e-16
2
1.29894e-16
2
4.94026e-17
2
2.43003e-16
2
2.73947e-16
2
-4.76885e-17
2
-5.29528e-17
2
1.0239e-16
2
1.15014e-16
6.27442e-17
2
-2.70628e-17
2
7.73398e-18
2
-8.23925e-17
2
-1.92953e-18
2
6.37415e-17
2
1.01777e-16
2
1.79166e-16
2
3.71932e-16
2
3.01096e-16
2
-4.99444e-17
2
-6.9763e-17
2
1.19301e-16
2
8.59495e-18
2
1.98154e-16
2
1.41657e-16
2
3.67385e-18
2
6.23297e-17
2
-3.49267e-17
2
-7.20008e-17
2
1.04424e-16
2
-2.10845e-17
2
2.34025e-17
2
7.26231e-17
2
3.95527e-17
2
-2.94383e-17
2
-8.78343e-17
2
1.21158e-16
2
1.24074e-16
2
1.87436e-16
2
3.51695e-16
2
4.06298e-16
2
1.08968e-16
2
-1.40302e-16
2
-7.65009e-17
2
-1.61567e-17
2
-7.21967e-17
2
-1.08649e-16
2
-1.36946e-16
2
-4.98738e-17
2
9.498e-17
2
5.35939e-17
2
1.07607e-16
2
8.7138e-17
2
-5.12694e-18
2
-9.53549e-17
2
1.97165e-18
2
7.49767e-17
2
-7.53225e-17
2
-2.98668e-16
2
1.52157e-16
2
1.70886e-16
2
-2.9694e-17
2
-1.38563e-16
2
-1.172e-17
2
-1.27913e-16
2
-3.69761e-16
2
6.00119e-17
2
3.10991e-17
2
1.88152e-16
2
2.30871e-16
2
-8.09555e-17
2
-1.89431e-16
2
-2.26381e-17
2
1.24103e-16
2
5.53386e-17
2
5.3511e-18
2
2.67586e-18
2
-2.82606e-16
2
-2.04084e-16
2
-1.28392e-16
2
-9.12092e-17
2
-8.23085e-17
2
-7.03884e-17
2
3.67523e-17
2
1.1279e-16
2
-1.25704e-16
2
-1.02048e-16
2
1.70708e-17
2
-1.60724e-16
2
1.01863e-16
2
9.06092e-17
2
-4.02855e-17
2
-5.0897e-17
2
7.48425e-18
2
3.77459e-17
2
1.06009e-17
2
1.78912e-16
2
4.29979e-16
2
3.37506e-16
2
2.60992e-16
2
2.16829e-16
2
3.53727e-16
2
1.73066e-16
2
1.30878e-18
2
-8.28774e-17
2
1.4709e-16
2
2.21604e-17
2
-7.63262e-17
2
2.02983e-16
2
2.16432e-16
2
3.5892e-16
2
2.09644e-16
2
6.27656e-17
2
1.09598e-16
2
1.49838e-17
2
-1.83395e-16
2
-1.52431e-16
2
-1.38864e-16
2
1.94785e-16
2
2.83287e-17
2
-1.0096e-16
2
-4.2225e-17
2
-7.54988e-17
2
4.59087e-17
2
5.91224e-18
2
-2.97966e-17
2
-3.58195e-17
2
7.31067e-18
2
1.01798e-16
2
8.6952e-17
2
1.68894e-16
2
1.58969e-17
2
4.20752e-17
2
-7.28484e-18
2
-1.01234e-16
2
-9.02585e-17
2
-2.20866e-16
2
-1.01276e-16
2
-1.71346e-16
2
-1.64836e-16
2
-7.91472e-17
2
-2.20611e-16
2
1.08909e-16
2
1.7335e-16
2
6.95004e-17
2
2.77977e-17
2
4.19368e-17
2
9.19759e-17
2
1.12361e-16
2
7.86158e-17
2
2.67753e-17
2
-2.92571e-17
2
-1.68855e-16
2
-8.98655e-18
2
1.16572e-16
2
9.59102e-17
2
1.12813e-16
2
6.81399e-17
2
1.79338e-16
2
5.20397e-17
2
6.87351e-17
2
1.2104e-16
2
2.76043e-19
2
-8.59245e-17
2
8.9257e-17
2
1.64875e-16
2
3.87014e-16
2
-2.0554e-17
2
-3.57865e-16
2
-1.64897e-16
2
6.5277e-17
2
3.67263e-17
2
-2.54613e-17
2
8.70991e-17
2
5.0838e-17
2
-1.72627e-16
2
-1.11505e-16
2
-2.57471e-16
2
-2.27728e-16
2
-2.67717e-16
2
-9.34533e-17
2
-4.74106e-18
2
1.70333e-16
2
3.57995e-16
2
1.531e-16
2
1.98835e-16
2
2.17988e-16
2
1.65304e-17
2
1.26573e-16
2
2.94831e-16
2
1.12093e-16
2
1.42937e-16
2
1.03182e-16
2
-2.8255e-18
2
1.63232e-17
2
3.51911e-16
2
2.0668e-16
2
1.98681e-16
2
3.13401e-16
2
1.5407e-16
2
3.11842e-16
2
2.46026e-16
2
1.90643e-16
2
2.83793e-16
2
1.70935e-16
2
1.56229e-16
2
8.52059e-17
2
-6.0648e-17
2
-8.16755e-17
-1.13636e-16
2
7.74605e-18
2
5.90788e-17
2
-7.40802e-17
2
-2.54961e-16
2
-3.87712e-17
2
9.21678e-17
2
3.87327e-18
2
3.56375e-17
2
1.20085e-16
2
3.64394e-16
2
7.95769e-17
2
5.12395e-17
2
3.80285e-17
2
6.72355e-17
2
4.3468e-17
2
-1.22519e-16
2
-9.43747e-17
2
-8.78806e-17
2
-8.23948e-17
2
9.01753e-17
2
4.48771e-17
2
2.27597e-17
2
1.85821e-16
2
1.40842e-16
2
5.93809e-17
2
1.0453e-16
2
4.39168e-17
2
1.84978e-16
2
3.48165e-16
2
2.75242e-16
2
1.4212e-16
2
1.34347e-16
2
-1.44879e-16
2
-7.97842e-17
2
-3.04598e-17
2
-1.04112e-16
2
-1.59371e-16
2
-1.68113e-16
2
-1.64433e-16
2
-1.61093e-16
2
-8.86244e-17
2
-7.57626e-17
2
-9.34254e-17
2
-6.48892e-17
2
2.19366e-17
2
-4.84809e-17
2
-2.93479e-17
2
-7.34398e-17
2
-1.72031e-17
2
-1.37847e-16
2
-5.12223e-17
2
4.21697e-17
2
5.11862e-17
2
-1.43432e-16
2
-1.07715e-16
2
-7.52612e-17
2
-1.60385e-16
2
-7.17501e-17
2
-6.76994e-17
2
-1.0097e-16
2
1.98888e-17
2
1.35285e-16
2
2.6706e-17
2
-1.88751e-16
2
-1.0913e-16
2
-1.02124e-16
2
-1.21943e-16
2
-7.62559e-17
2
-2.09185e-17
2
9.10515e-18
2
1.38533e-17
2
-8.47339e-18
2
-1.44558e-17
2
-1.8231e-17
2
3.00989e-17
2
4.56006e-17
2
-5.23643e-17
2
-7.29472e-17
2
6.94149e-17
2
1.38701e-17
2
-2.25587e-17
2
-1.50385e-16
2
-4.46926e-17
2
1.16601e-17
2
-9.6021e-18
2
2.88859e-16
2
2.05415e-16
2
1.64357e-16
2
2.53707e-16
2
3.19409e-16
2
2.3562e-16
2
6.29544e-17
2
9.69892e-17
2
7.34824e-17
2
2.22707e-17
2
-2.03027e-17
2
9.02772e-17
2
2.28253e-16
2
1.889e-16
2
1.67682e-16
2
3.06835e-16
2
4.17953e-17
2
-9.38354e-17
2
-2.84701e-16
2
-2.10171e-16
2
-3.74387e-17
2
-3.95205e-17
2
1.2844e-16
2
9.47994e-18
2
4.25996e-17
2
1.67637e-16
2
2.0055e-16
2
2.10822e-16
2
3.28425e-16
2
1.66046e-16
2
1.14949e-16
2
8.79297e-17
2
1.11587e-17
2
1.38707e-16
2
7.99889e-17
2
1.41665e-16
2
-8.68391e-17
2
-7.25869e-17
2
-1.56629e-16
2
-5.36201e-17
2
-6.86859e-17
2
-1.17233e-16
2
-1.43309e-16
2
-2.09835e-16
2
-2.54907e-16
2
-2.62801e-16
2
-3.03593e-17
2
6.59183e-17
2
-4.62963e-17
2
-2.93554e-17
2
-3.64908e-17
2
-1.55883e-16
2
3.98771e-17
2
1.74792e-16
2
1.59209e-16
2
3.52077e-17
2
-5.49984e-18
2
2.38459e-16
2
-2.21273e-17
2
-1.4665e-17
2
8.51261e-17
2
4.57424e-17
2
1.83901e-16
2
5.09769e-17
2
-8.19849e-17
2
-7.5468e-17
2
4.38484e-17
2
-8.4691e-17
2
2.65253e-17
2
-3.10222e-16
2
-1.17688e-16
2
-7.74547e-17
2
1.35789e-16
2
-9.49313e-17
2
-1.93401e-16
2
3.57711e-17
2
1.45424e-16
2
-2.40897e-17
2
4.96473e-17
2
3.00315e-17
2
4.00532e-19
2
1.75264e-17
2
2.34116e-17
2
1.40674e-16
2
1.24125e-16
2
2.45289e-16
2
1.76906e-16
2
1.02597e-16
2
2.01742e-16
2
2.90705e-16
2
2.11436e-17
2
-2.47232e-16
2
-1.22247e-17
2
4.5316e-18
2
-5.80918e-17
2
1.14562e-16
2
-1.33444e-16
2
-5.9417e-17
2
2.28834e-16
2
2.65288e-16
2
4.06191e-17
2
-1.62288e-16
2
-9.23077e-17
2
1.57625e-16
2
-4.03216e-17
2
-1.35116e-16
2
-1.84245e-16
2
-1.59138e-17
2
-1.06702e-16
2
-1.97617e-16
2
-1.40122e-16
2
-2.79703e-17
2
-4.67015e-17
2
-2.53443e-16
-2.44701e-16
2
-1.49865e-17
2
-1.75062e-16
2
-2.22531e-16
2
3.06662e-17
2
-2.50632e-16
2
-3.39098e-16
2
-2.83064e-16
2
-3.03537e-16
2
-1.64262e-16
2
-1.74682e-16
2
1.56988e-16
2
2.19936e-17
2
2.11679e-17
2
1.92401e-17
2
1.0508e-16
2
5.13898e-17
2
-1.12519e-16
2
-7.03542e-17
2
-1.19142e-16
2
-5.83662e-17
2
1.49331e-16
2
3.49895e-16
2
4.60241e-16
2
2.90096e-16
2
1.00006e-16
2
1.64203e-16
2
2.12111e-16
2
1.99525e-16
2
3.80055e-16
2
3.54655e-16
2
1.95284e-16
2
3.4805e-17
2
4.15427e-19
2
4.7827e-17
2
-3.9681e-17
2
-1.30372e-16
2
-2.4045e-16
2
-1.99502e-16
2
-8.34716e-17
2
-1.87459e-16
2
-2.58308e-16
2
-8.52612e-17
2
2.72685e-17
2
-2.8153e-17
2
-1.28184e-18
2
-1.12595e-16
2
-2.29206e-16
2
-1.4639e-16
2
-2.96325e-17
2
4.44526e-17
2
1.33194e-16
2
1.0778e-16
2
6.48613e-17
2
-9.27749e-17
2
-9.39661e-17
2
-1.31145e-16
2
-2.15332e-17
2
-1.23978e-16
2
-3.15194e-16
2
-1.5616e-16
2
2.94285e-17
2
1.52676e-16
2
-7.66433e-17
2
-1.93523e-16
2
-5.35901e-17
2
8.89595e-18
2
1.18296e-17
2
2.24375e-17
2
4.0625e-17
2
7.17369e-17
2
7.53831e-17
2
1.26317e-17
2
6.73805e-17
2
-7.97175e-17
2
5.89404e-17
2
-1.0868e-16
2
-1.14389e-16
2
2.17237e-16
2
1.91434e-16
2
-5.88067e-17
2
-2.27899e-17
2
1.65958e-17
2
9.19211e-17
2
1.08986e-16
2
1.49211e-16
2
2.24936e-17
2
7.59769e-17
2
1.44357e-16
2
1.74468e-16
2
1.19854e-16
2
-2.47205e-17
2
3.35427e-17
2
8.92244e-17
2
1.48288e-16
2
1.56759e-16
2
7.63612e-17
2
2.57542e-16
2
3.44448e-16
2
1.73924e-16
2
2.45572e-16
2
7.62737e-17
2
9.26397e-17
2
1.08361e-16
2
1.78223e-16
2
8.53402e-17
2
-5.13495e-17
2
1.05927e-16
2
2.11029e-16
2
-2.37208e-17
2
2.30348e-16
2
3.96989e-16
2
3.59189e-16
2
3.95303e-16
2
1.05845e-16
2
2.10413e-16
2
2.284e-16
2
2.26394e-16
2
2.36919e-16
2
-6.36537e-17
2
-9.1469e-17
2
-9.60184e-17
2
1.69296e-17
2
-9.27913e-17
2
-7.36834e-17
2
4.8879e-17
2
-2.98271e-17
2
-8.22385e-17
2
-1.74665e-16
2
-3.25386e-16
2
-4.55581e-16
2
-3.14721e-16
2
-2.23892e-16
2
-2.63586e-16
2
-3.35571e-16
2
-9.6881e-17
2
8.71053e-17
2
2.13764e-16
2
3.67756e-17
2
-6.05074e-17
2
-1.53528e-17
2
3.3744e-17
2
2.43509e-16
2
2.47477e-16
2
8.68795e-17
2
2.28606e-16
2
1.88057e-16
2
1.2773e-16
2
-9.61007e-17
2
-2.38791e-16
2
2.20818e-17
2
1.17536e-16
2
1.50618e-16
2
1.45642e-16
2
-1.87168e-16
2
-5.62351e-17
2
-1.45654e-19
2
-1.00757e-17
2
5.21574e-17
2
2.26789e-16
2
1.57411e-16
2
2.39257e-16
2
1.0036e-16
2
1.80045e-16
2
9.35485e-17
2
4.01233e-17
2
1.16248e-16
2
1.24854e-16
2
2.18749e-16
2
1.41007e-16
2
2.91459e-16
2
2.33833e-16
2
2.39907e-16
2
2.42913e-16
2
9.75314e-17
2
-9.14229e-17
2
-1.61975e-16
2
-2.16109e-16
2
-1.68867e-16
2
-6.9413e-17
2
-1.38877e-16
2
-1.97962e-16
2
-1.24435e-16
2
8.86432e-17
2
1.96592e-16
2
2.53465e-16
2
8.30164e-18
2
-3.13295e-17
2
-1.4846e-16
2
-4.33902e-16
2
-3.8523e-16
2
-5.77352e-16
2
-2.81137e-16
2
-2.52881e-16
2
-2.87738e-16
2
-9.45012e-17
2
-2.04225e-16
2
-1.76928e-16
2
7.25643e-18
2
2.86719e-17
-3.89396e-17
2
-1.4252e-16
2
-2.31178e-16
2
-1.39129e-16
2
-1.05956e-16
2
-2.87513e-16
2
-3.12031e-16
2
-3.18503e-16
2
-2.66739e-16
2
-1.97582e-16
2
-6.58601e-17
2
-9.96114e-17
2
-1.7871e-16
2
5.1363e-17
2
-1.56813e-16
2
-1.34632e-16
2
-7.40061e-17
2
1.16459e-16
2
9.47758e-17
2
1.2838e-16
2
6.70646e-17
2
-1.80599e-16
2
1.59733e-16
2
4.21309e-16
2
2.31703e-16
2
2.52e-16
2
1.91405e-16
2
2.53842e-16
2
3.48111e-16
2
9.60296e-17
2
4.70318e-17
2
2.99761e-16
2
2.27713e-16
2
1.22247e-16
2
-3.19493e-17
2
7.4255e-17
2
7.0862e-18
2
-2.55212e-16
2
-7.83621e-17
2
-2.52003e-16
2
-1.47382e-16
2
-1.19764e-18
2
-3.87124e-17
2
-1.08216e-16
2
-2.36033e-16
2
-2.23438e-16
2
-9.5824e-17
2
-8.63618e-19
2
2.25365e-17
2
3.11163e-17
2
-2.8595e-17
2
-8.76222e-17
2
-3.48828e-17
2
-2.27265e-16
2
-3.43121e-17
2
-6.89175e-19
2
-5.55281e-17
2
-2.50888e-16
2
-1.44815e-16
2
-1.02381e-16
2
3.05787e-17
2
-2.94965e-18
2
-7.28616e-17
2
4.12033e-18
2
-3.72655e-17
2
4.63438e-17
2
7.24117e-17
2
1.1796e-16
2
8.44236e-17
2
1.494e-16
2
1.45442e-16
2
1.31241e-16
2
2.53241e-17
2
-1.29118e-17
2
4.13401e-17
2
-1.05533e-16
2
-2.82545e-17
2
1.03372e-16
2
-6.50614e-17
2
-1.86591e-16
2
1.46198e-17
2
-7.47916e-17
2
2.4217e-17
2
8.55799e-17
2
3.13524e-17
2
-9.02653e-17
2
-8.41722e-17
2
-1.71472e-16
2
2.692e-17
2
3.43842e-17
2
-9.88797e-17
2
-1.86203e-16
2
-6.85266e-17
2
1.11464e-16
2
2.71824e-16
2
2.61961e-16
2
3.01657e-16
2
1.17162e-16
2
1.99395e-16
2
3.34064e-16
2
1.30108e-16
2
1.66834e-16
2
1.1e-16
2
2.20309e-16
2
2.89168e-16
2
2.71076e-16
2
2.05611e-16
2
1.06145e-16
2
-8.40161e-17
2
3.81924e-17
2
1.46674e-16
2
1.41973e-16
2
2.40653e-16
2
2.67926e-16
2
2.86999e-16
2
1.59971e-16
2
2.1306e-16
2
2.41189e-16
2
2.10967e-16
2
9.12958e-17
2
4.81295e-18
2
-1.03602e-16
2
1.81806e-16
2
5.30395e-17
2
-1.20193e-16
2
-1.94266e-16
2
-3.21478e-17
2
-4.79202e-17
2
-1.67023e-16
2
-4.43738e-16
2
-4.15969e-16
2
-2.85608e-16
2
-1.94215e-16
2
-6.57185e-17
2
1.40348e-17
2
9.17974e-18
2
-3.17901e-17
2
1.91954e-16
2
7.31242e-17
2
2.90774e-17
2
-9.28624e-17
2
-2.55383e-17
2
2.6041e-16
2
2.21253e-16
2
1.58362e-16
2
4.25022e-18
2
1.38384e-16
2
1.10395e-16
2
4.00276e-17
2
1.13479e-16
2
5.51552e-17
2
1.29861e-16
2
9.74944e-17
2
7.07085e-17
2
-4.37962e-18
2
-1.22462e-17
2
-8.41229e-17
2
-5.51232e-17
2
1.70905e-16
2
2.41672e-16
2
3.65222e-16
2
1.90051e-16
2
2.30787e-16
2
4.69986e-16
2
1.20774e-17
2
-1.23728e-16
2
2.29002e-16
2
2.04022e-16
2
1.59372e-16
2
4.32052e-16
2
3.62195e-16
2
2.16866e-16
2
3.52271e-16
2
1.37462e-16
2
5.53637e-17
2
-4.15296e-17
2
-1.9059e-16
2
-9.04604e-17
2
-1.98458e-16
2
-2.97845e-16
2
-1.35174e-16
2
1.2033e-17
2
-5.5344e-18
2
6.76619e-17
2
-2.51794e-17
2
-2.17281e-16
2
-1.55173e-16
2
-1.92047e-16
2
-3.45573e-16
2
-3.83773e-16
2
-3.49474e-16
2
-3.99764e-16
2
-3.56472e-16
2
-3.64995e-16
2
-2.24336e-16
2
-1.46463e-17
2
-3.37419e-17
2
3.54373e-17
2
-1.93801e-16
2
-4.93246e-17
1.08467e-16
2
-2.17525e-17
2
1.08348e-17
2
9.54434e-17
2
-3.66481e-17
2
1.0274e-16
2
-1.16142e-16
2
-1.65686e-16
2
-7.71721e-17
2
-1.23361e-16
2
-6.35057e-17
2
-2.27873e-16
2
-1.41048e-16
2
-2.50741e-16
2
-1.01667e-17
2
3.06798e-17
2
1.78705e-16
2
1.92548e-16
2
2.14326e-16
2
1.51107e-16
2
-5.46385e-17
2
2.12306e-16
2
3.12855e-17
2
-1.79642e-16
2
-5.06161e-17
2
5.69457e-17
2
2.40975e-17
2
9.10018e-17
2
2.15275e-16
2
-1.98274e-17
2
-2.12818e-17
2
-1.21524e-16
2
2.79865e-17
2
2.50687e-16
2
5.63061e-17
2
-4.41812e-17
2
-1.76544e-16
2
-2.03908e-17
2
-1.78714e-16
2
-2.92152e-16
2
-2.48674e-16
2
-1.61526e-16
2
-1.36952e-16
2
-9.45154e-17
2
-2.25191e-17
2
-1.11703e-16
2
-1.18259e-16
2
-2.28472e-16
2
-3.86027e-17
2
7.60301e-17
2
3.07967e-17
2
-7.43652e-17
2
-1.22821e-16
2
-4.2831e-17
2
-9.25392e-17
2
-1.76745e-16
2
-5.42919e-17
2
-1.2604e-16
2
-2.41565e-16
2
-1.35415e-16
2
-2.54965e-16
2
-1.4195e-16
2
-7.3535e-17
2
1.26854e-16
2
4.04239e-16
2
3.24478e-16
2
1.40433e-16
2
2.89632e-16
2
3.98516e-16
2
3.67638e-16
2
2.24689e-16
2
2.39979e-16
2
-2.26776e-17
2
-1.41342e-16
2
-1.48845e-16
2
-7.75487e-17
2
1.16608e-16
2
2.06395e-17
2
-3.75238e-17
2
-2.35365e-16
2
-3.91662e-16
2
-2.75205e-16
2
-1.61839e-17
2
6.7384e-17
2
-1.37639e-16
2
-1.387e-16
2
-1.51206e-16
2
1.05977e-16
2
2.35039e-17
2
-9.64445e-17
2
7.50874e-17
2
2.26317e-16
2
1.84649e-16
2
1.54255e-16
2
1.244e-16
2
2.54277e-16
2
3.81571e-16
2
2.88881e-16
2
9.7461e-17
2
2.36255e-17
2
1.6961e-16
2
3.50247e-16
2
3.52367e-16
2
3.20904e-16
2
1.15995e-18
2
2.06891e-17
2
2.34316e-16
2
6.37675e-17
2
2.47552e-17
2
2.51673e-17
2
7.23773e-17
2
9.64864e-17
2
3.36697e-17
2
3.7791e-17
2
8.84061e-18
2
1.3822e-16
2
1.87419e-17
2
1.45152e-16
2
1.31563e-17
2
-6.04925e-17
2
-5.72712e-17
2
-2.15811e-16
2
-3.46088e-16
2
-6.0828e-17
2
-1.90795e-16
2
-7.22032e-17
2
-1.92878e-16
2
-1.65198e-16
2
-1.01082e-16
2
-8.02661e-17
2
-6.42469e-18
2
-9.52077e-17
2
-1.50616e-16
2
-1.39103e-16
2
1.11239e-16
2
1.68376e-16
2
8.99422e-17
2
-2.45193e-16
2
-2.51188e-16
2
-9.6488e-17
2
1.68553e-16
2
1.97449e-16
2
7.8003e-17
2
1.40911e-16
2
1.36832e-16
2
1.80113e-16
2
1.45962e-16
2
7.85834e-17
2
2.36637e-17
2
1.14387e-16
2
3.07322e-16
2
1.67303e-16
2
-5.84249e-19
2
-2.50522e-17
2
1.54496e-17
2
6.91694e-17
2
7.98686e-17
2
1.23868e-16
2
-6.3924e-17
2
1.74623e-16
2
3.45414e-16
2
2.34455e-16
2
1.74347e-16
2
7.01336e-17
2
3.37116e-16
2
4.60937e-16
2
2.16216e-16
2
2.45354e-16
2
2.47972e-16
2
2.22848e-16
2
1.26934e-16
2
1.08593e-17
2
2.17515e-17
2
-1.05343e-16
2
-2.84324e-17
2
6.69503e-17
2
5.21604e-17
2
-6.69673e-17
2
-1.48781e-16
2
-2.2637e-16
2
1.3116e-18
2
-8.24821e-17
2
-5.50154e-17
2
-1.81553e-16
2
-1.91527e-16
2
-1.88486e-17
2
-1.54924e-16
2
-1.91737e-16
2
-1.48939e-16
2
-2.99578e-16
2
-1.32223e-16
2
-1.22333e-16
2
-3.03833e-16
2
-1.73746e-16
2
-1.98905e-16
2
-1.96952e-16
2
-7.27461e-17
2
-9.68573e-17
2
2.5283e-17
2
2.21617e-16
2.42135e-16
2
1.09344e-17
2
-1.23589e-17
2
-4.06077e-17
2
-8.21522e-17
2
-1.85443e-16
2
-6.90506e-17
2
-4.09293e-17
2
-1.24888e-16
2
-9.26473e-17
2
-2.40034e-16
2
-1.70772e-16
2
-8.98809e-17
2
-1.53565e-16
2
-1.05413e-16
2
1.18781e-16
2
1.07554e-16
2
2.54272e-16
2
4.59769e-16
2
3.00343e-16
2
2.616e-16
2
4.23486e-17
2
-1.08285e-16
2
-1.73275e-16
2
-1.15879e-16
2
1.4603e-16
2
5.93885e-17
2
-8.01182e-17
2
-1.04408e-16
2
5.35889e-17
2
-1.22945e-17
2
-1.28715e-17
2
9.10656e-17
2
1.76693e-16
2
1.09052e-16
2
-2.58819e-16
2
-2.1536e-16
2
-2.19025e-17
2
-3.1497e-17
2
5.30643e-17
2
7.35968e-17
2
-9.54143e-17
2
-1.7831e-16
2
-5.61805e-17
2
2.01411e-17
2
9.10249e-17
2
-1.04347e-16
2
-2.50724e-17
2
1.60688e-16
2
-4.46062e-17
2
2.35159e-17
2
9.35205e-17
2
-9.41965e-17
2
-1.68871e-16
2
-1.99413e-16
2
2.90613e-17
2
6.36435e-17
2
1.00893e-16
2
-8.17708e-17
2
-1.27838e-16
2
-1.13808e-16
2
-1.2359e-16
2
-2.06912e-16
2
-1.03026e-16
2
1.4603e-16
2
1.3702e-16
2
3.51578e-16
2
3.56899e-16
2
2.19516e-16
2
-1.33181e-16
2
-9.64644e-17
2
-1.40943e-16
2
3.97359e-17
2
-1.31037e-16
2
-1.79479e-16
2
-1.26149e-16
2
-2.13517e-17
2
-5.58729e-17
2
-2.39552e-16
2
-3.17721e-16
2
-1.61109e-16
2
-1.36766e-16
2
-3.12175e-16
2
-1.5521e-16
2
3.27269e-16
2
2.32117e-16
2
8.92322e-17
2
4.20074e-17
2
-2.3449e-18
2
1.57936e-16
2
1.93088e-16
2
7.09847e-17
2
2.50196e-17
2
1.52531e-16
2
2.20115e-16
2
2.84592e-16
2
2.33804e-16
2
1.70667e-16
2
4.03209e-17
2
5.20893e-17
2
2.35339e-16
2
1.86645e-16
2
2.22024e-16
2
1.8554e-16
2
2.11781e-16
2
3.06325e-17
2
8.71555e-17
2
1.60263e-16
2
8.35352e-17
2
-5.91137e-18
2
8.63131e-17
2
1.262e-16
2
1.16637e-16
2
1.44702e-16
2
3.2201e-16
2
2.89173e-16
2
3.01555e-16
2
1.55638e-16
2
7.91186e-17
2
2.58101e-17
2
-7.63658e-17
2
-6.1108e-17
2
-1.07864e-16
2
-3.0451e-17
2
1.00483e-16
2
-8.61199e-17
2
-5.7314e-18
2
-1.23495e-16
2
-1.95832e-16
2
3.93748e-17
2
-7.55802e-18
2
-4.15202e-17
2
-1.38123e-16
2
-3.81947e-16
2
-6.06766e-17
2
7.15805e-17
2
-1.40842e-18
2
-5.76604e-17
2
-8.87796e-17
2
-2.09323e-16
2
-2.17625e-16
2
4.4675e-17
2
1.16095e-16
2
9.62481e-17
2
3.8308e-16
2
2.9938e-16
2
6.0476e-17
2
7.93658e-17
2
5.36746e-17
2
1.3173e-16
2
1.29603e-16
2
-7.29205e-17
2
-9.0549e-17
2
-4.7626e-17
2
1.5557e-17
2
6.29221e-17
2
8.47476e-17
2
1.37323e-16
2
3.59347e-16
2
2.3328e-16
2
1.26691e-16
2
1.09335e-16
2
8.62652e-17
2
1.83345e-16
2
3.26211e-16
2
4.04236e-16
2
2.99431e-16
2
2.68704e-16
2
2.7703e-16
2
3.00791e-17
2
-8.6711e-17
2
1.63048e-16
2
-8.78411e-17
2
6.75664e-18
2
-9.18874e-17
2
-1.48273e-16
2
6.53359e-17
2
1.5974e-17
2
7.84569e-18
2
6.19663e-17
2
2.89814e-17
2
-2.71456e-17
2
-7.58045e-17
2
-2.33134e-16
2
-1.22015e-16
2
-4.35682e-16
2
-2.40128e-16
2
-1.86982e-16
2
-1.0818e-16
2
4.70996e-17
2
-8.75397e-18
2
-8.50249e-18
2
3.56597e-17
2
-2.00186e-16
2
-1.31947e-16
2
-1.27495e-16
2
-9.78186e-17
2
-9.36232e-17
2
-1.33464e-17
2
1.0205e-16
3.4451e-17
2
3.21169e-17
2
-8.89114e-18
2
-2.30375e-16
2
-4.48242e-16
2
-3.28916e-16
2
-2.7311e-16
2
-2.26342e-16
2
-2.02809e-16
2
-2.58631e-16
2
-1.8175e-16
2
-1.25546e-16
2
-1.45565e-16
2
-1.03206e-16
2
1.6425e-17
2
-5.20957e-17
2
2.43069e-16
2
2.2891e-16
2
1.15689e-16
2
1.70582e-16
2
2.67944e-16
2
6.89613e-17
2
-1.49987e-17
2
-4.23001e-17
2
1.07998e-16
2
7.34401e-17
2
3.01982e-16
2
7.70945e-17
2
-1.24367e-16
2
-1.3712e-16
2
-1.54514e-16
2
-1.25564e-16
2
1.22282e-16
2
1.58935e-16
2
6.68859e-17
2
1.7482e-16
2
-9.08796e-18
2
-2.84071e-16
2
-3.69175e-17
2
3.50066e-17
2
-2.1803e-16
2
-2.04514e-17
2
2.59273e-17
2
-3.50517e-17
2
-5.66927e-17
2
-2.38224e-16
2
-1.13447e-16
2
-1.82154e-17
2
-3.7124e-17
2
1.25304e-16
2
-8.74032e-18
2
-1.37706e-16
2
3.28491e-17
2
7.70487e-17
2
-8.79705e-17
2
-2.305e-16
2
-2.61931e-16
2
-2.00564e-16
2
-4.38679e-17
2
1.38945e-16
2
-2.37068e-17
2
2.42313e-17
2
2.36154e-16
2
9.96836e-17
2
-9.16483e-17
2
2.62313e-17
2
1.71137e-16
2
1.62239e-17
2
1.35971e-16
2
5.04649e-17
2
-1.40451e-16
2
-4.607e-16
2
-7.77232e-17
2
8.5555e-17
2
5.39494e-17
2
-6.94827e-17
2
-1.07468e-16
2
8.28666e-17
2
5.16494e-17
2
-8.35458e-17
2
-2.67328e-16
2
-2.57623e-16
2
-4.35134e-16
2
-5.28248e-16
2
-2.76174e-16
2
1.1072e-16
2
-1.01487e-16
2
-2.70783e-16
2
-1.52521e-16
2
6.41854e-17
2
-1.27998e-16
2
-8.34808e-17
2
-6.92046e-17
2
-2.22569e-18
2
4.23324e-17
2
7.13e-17
2
8.34645e-17
2
8.17796e-17
2
-5.93495e-17
2
6.89013e-18
2
8.53359e-17
2
-1.34749e-16
2
3.68458e-17
2
5.27461e-17
2
1.17897e-16
2
1.17603e-16
2
1.36759e-16
2
1.67249e-16
2
9.55321e-17
2
2.22184e-16
2
2.22448e-16
2
1.17331e-16
2
6.08508e-17
2
-4.48496e-17
2
2.65829e-16
2
2.86072e-16
2
1.05284e-16
2
-1.05128e-16
2
4.78171e-17
2
1.3035e-16
2
1.36642e-16
2
5.97747e-17
2
-6.79851e-17
2
1.8862e-17
2
1.12084e-16
2
-2.35449e-17
2
-1.69077e-16
2
-1.79416e-16
2
-1.72353e-16
2
-2.86485e-17
2
-7.27078e-17
2
-4.38888e-17
2
-8.07977e-17
2
1.23734e-16
2
-4.64594e-17
2
-1.85926e-16
2
-6.12735e-17
2
-2.13151e-16
2
-2.21244e-16
2
-7.27482e-17
2
-9.04186e-17
2
-1.15161e-16
2
8.30172e-17
2
4.87585e-17
2
2.25948e-17
2
-2.42915e-17
2
4.64562e-17
2
8.99451e-18
2
-2.2234e-17
2
-1.30192e-16
2
-2.27782e-16
2
7.25536e-17
2
-9.42181e-17
2
-2.90148e-18
2
1.90205e-16
2
1.35265e-16
2
1.13359e-16
2
1.11912e-17
2
1.9966e-16
2
1.59756e-16
2
8.12038e-17
2
1.61752e-16
2
1.03869e-16
2
7.78341e-17
2
2.91609e-16
2
3.35272e-16
2
1.65202e-16
2
1.01889e-16
2
-1.94204e-17
2
5.90546e-17
2
2.20281e-16
2
-7.50436e-17
2
3.40449e-18
2
8.28799e-18
2
-7.81655e-17
2
-1.12885e-16
2
6.35524e-18
2
6.22893e-17
2
8.18553e-17
2
-1.39598e-17
2
6.70132e-18
2
-1.2988e-16
2
-8.12811e-17
2
-1.58282e-16
2
-7.19344e-17
2
1.07364e-16
2
-4.82135e-17
2
-1.26659e-16
2
2.05905e-17
2
-1.35218e-16
2
-2.67761e-16
2
-2.60659e-16
2
-2.04091e-16
2
-7.13901e-19
2
-2.46807e-17
2
-6.67774e-17
2
-4.37878e-17
2
-1.68998e-16
2
-5.0128e-17
2
-2.8662e-16
-4.009e-16
2
6.01836e-17
2
5.059e-17
2
7.55669e-17
2
-1.48814e-17
2
-2.49359e-16
2
-4.41365e-16
2
-3.49025e-16
2
-5.5672e-16
2
-4.40632e-16
2
-4.27128e-16
2
-3.27457e-16
2
-1.54383e-16
2
-4.1271e-17
2
-1.18304e-16
2
-1.90882e-17
2
2.43893e-17
2
7.88484e-17
2
1.53244e-16
2
1.79944e-16
2
-4.84289e-17
2
1.38261e-16
2
9.00158e-17
2
2.02347e-17
2
-6.67726e-17
2
-1.11524e-18
2
-6.09858e-17
2
1.32334e-16
2
5.43867e-17
2
-1.34812e-17
2
1.68941e-17
2
3.97007e-17
2
-6.2255e-17
2
1.36276e-16
2
2.07256e-16
2
1.06051e-16
2
1.50631e-16
2
-2.56155e-17
2
-1.88982e-16
2
-8.9112e-17
2
-1.15075e-16
2
2.38129e-17
2
2.39038e-16
2
1.7571e-16
2
3.74186e-18
2
-2.26444e-16
2
-2.4607e-16
2
-9.62671e-17
2
2.65536e-17
2
-4.66145e-17
2