VARIABLES = "x"
 "y"
 "Density"
 "Momentum_x"
 "Momentum_y"
 "Energy"
 "Pressure"
 "Temperature"
 "Mach"
 "C<sub>p</sub>"
 "Roe_Dissipation"
ZONE
DT=(DOUBLE,DOUBLE,DOUBLE,DOUBLE,DOUBLE,DOUBLE,DOUBLE,DOUBLE,DOUBLE,DOUBLE,DOUBLE)
                     -1                    1.25        1.22481894493103        42.5881690979004    -2.6107662473977E-09                253974.5          101293.6015625        288.098297119141       0.102187499403954     -0.0442020483314991                       0 
                     -1         1.2474974974975        1.22481894493103        42.5881690979004   -2.70036206419019E-09                253974.5          101293.6015625        288.098297119141       0.102187499403954     -0.0442020483314991                       0 
                     -1        1.24499499499499        1.22481894493103        42.5881690979004   -2.78995788098268E-09                253974.5          101293.6015625        288.098297119141       0.102187499403954     -0.0442020483314991                       0 
                     -1        1.24249249249249        1.22481894493103        42.5881690979004   -2.87955369777518E-09                253974.5          101293.6015625        288.098297119141       0.102187499403954     -0.0442020483314991                       0 
                     -1        1.23998998998999        1.22481894493103        42.5881690979004   -2.96914951456767E-09                253974.5          101293.6015625        288.098297119141       0.102187499403954     -0.0442020483314991                       0 
                     -1        1.23748748748749        1.22481894493103        42.5881690979004   -3.05874533136017E-09                253974.5          101293.6015625        288.098297119141       0.102187499403954     -0.0442020483314991                       0 
                     -1        1.23498498498498        1.22481894493103        42.5881690979004   -3.14834114815266E-09                253974.5          101293.6015625        288.098297119141       0.102187499403954     -0.0442020483314991                       0 
                     -1        1.23248248248248        1.22481894493103        42.5881690979004    -3.2379369687352E-09                253974.5          101293.6015625        288.098297119141       0.102187499403954     -0.0442020483314991                       0 
                     -1        1.22997997997998        1.22481894493103        42.5881690979004   -3.32753278552769E-09                253974.5          101293.6015625        288.098297119141       0.102187499403954     -0.0442020483314991                       0 
                     -1        1.22747747747748        1.22481894493103        42.5881690979004   -3.41712860232018E-09                253974.5          101293.6015625        288.098297119141       0.102187499403954     -0.0442020483314991                       0 
                     -1        1.22497497497497        1.22481894493103        42.5881690979004   -3.50672441911268E-09                253974.5          101293.6015625        288.098297119141       0.102187499403954     -0.0442020483314991                       0 
                     -1        1.22247247247247        1.22481894493103        42.5881690979004   -3.59632023590517E-09                253974.5          101293.6015625        288.098297119141       0.102187499403954     -0.0442020483314991                       0 
                     -1        1.21996996996997        1.22481894493103        42.5881690979004   -3.68591605269767E-09                253974.5          101293.6015625        288.098297119141       0.102187499403954     -0.0442020483314991                       0 
                     -1        1.21746746746747        1.22481894493103        42.5881690979004   -3.76828461341281E-09                253974.5          101293.6015625        288.098297119141       0.102187499403954     -0.0442020483314991                       0 
                     -1        1.21496496496496        1.22481894493103        42.5881690979004   -3.83747903908177E-09                253974.5          101293.6015625        288.098297119141       0.102187499403954     -0.0442020483314991                       0 
                     -1        1.21246246246246        1.22481894493103        42.5881690979004   -3.90667346475073E-09                253974.5          101293.6015625        288.098297119141       0.102187499403954     -0.0442020483314991                       0 
                     -1        1.20995995995996        1.22481894493103        42.5881690979004   -3.97586789041968E-09                253974.5          101293.6015625        288.098297119141       0.102187499403954     -0.0442020483314991                       0 
                     -1        1.20745745745746        1.22481894493103        42.5881690979004   -4.04506231608864E-09                253974.5          101293.6015625        288.098297119141       0.102187499403954     -0.0442020483314991                       0 
                     -1        1.20495495495495        1.22481894493103        42.5881690979004   -4.11425674175759E-09                253974.5          101293.6015625        288.098297119141       0.102187499403954     -0.0442020483314991                       0 
                     -1        1.20245245245245        1.22481894493103        42.5881690979004   -4.18345117158023E-09                253974.5          101293.6015625        288.098297119141       0.102187499403954     -0.0442020483314991                       0 
                     -1        1.19994994994995        1.22481894493103        42.5881690979004   -4.25264559724918E-09                253974.5          101293.6015625        288.098297119141       0.102187499403954     -0.0442020483314991                       0 
                     -1        1.19744744744745        1.22481894493103        42.5881690979004   -4.32184002291814E-09                253974.5          101293.6015625        288.098297119141       0.102187499403954     -0.0442020483314991                       0 
                     -1        1.19494494494494        1.22481894493103        42.5881690979004    -4.3910344485871E-09                253974.5          101293.6015625        288.098297119141       0.102187499403954     -0.0442020483314991                       0 
                     -1        1.19244244244244        1.22481894493103        42.5881690979004   -4.46022887425605E-09                253974.5          101293.6015625        288.098297119141       0.102187499403954     -0.0442020483314991                       0 
                     -1        1.18993993993994        1.22481894493103        42.5881690979004   -4.52942329992501E-09                253974.5          101293.6015625        288.098297119141       0.102187499403954     -0.0442020483314991                       0 
                     -1        1.18743743743744        1.22481894493103        42.5881690979004   -4.59861772559396E-09                253974.5          101293.6015625        288.098297119141       0.102187499403954     -0.0442020483314991                       0 
                     -1        1.18493493493493        1.22481894493103        42.5881690979004   -4.65325092991994E-09                253974.5          101293.6015625        288.098297119141       0.102187499403954     -0.0442020483314991                       0 
                     -1        1.18243243243243        1.22481894493103        42.5881690979004   -4.70190578166091E-09                253974.5          101293.6015625        288.098297119141       0.102187499403954     -0.0442020483314991                       0 
                     -1        1.17992992992993        1.22481894493103        42.5881690979004   -4.75056063340188E-09                253974.5          101293.6015625        288.098297119141       0.102187499403954     -0.0442020483314991                       0 
                     -1        1.17742742742743        1.22481894493103        42.5881690979004   -4.79921548514285E-09                253974.5          101293.6015625        288.098297119141       0.102187499403954     -0.0442020483314991                       0 
                     -1        1.17492492492492        1.22481894493103        42.5881690979004   -4.84787033688381E-09                253974.5          101293.6015625        288.098297119141       0.102187499403954     -0.0442020483314991                       0 
                     -1        1.17242242242242        1.22481894493103        42.5881690979004   -4.89652518862478E-09                253974.5          101293.6015625        288.098297119141       0.102187499403954     -0.0442020483314991                       0 
                     -1        1.16991991991992        1.22481894493103        42.5881690979004   -4.94518004396985E-09                253974.5          101293.6015625        288.098297119141       0.102187499403954     -0.0442020483314991                       0 
                     -1        1.16741741741742        1.22481894493103        42.5881690979004   -4.99383489571081E-09                253974.5          101293.6015625        288.098297119141       0.102187499403954     -0.0442020483314991                       0 
                     -1        1.16491491491491        1.22481894493103        42.5881690979004   -5.04248974745178E-09                253974.5          101293.6015625        288.098297119141       0.102187499403954     -0.0442020483314991                       0 
                     -1        1.16241241241241        1.22481894493103        42.5881690979004   -5.09114459919275E-09                253974.5          101293.6015625        288.098297119141       0.102187499403954     -0.0442020483314991                       0 
                     -1        1.15990990990991        1.22481894493103        42.5881690979004   -5.13979945093372E-09                253974.5          101293.6015625        288.098297119141       0.102187499403954     -0.0442020483314991                       0 
                     -1        1.15740740740741        1.22481894493103        42.5881690979004   -5.18845430267468E-09                253974.5          101293.6015625        288.098297119141       0.102187499403954     -0.0442020483314991                       0 
                     -1         1.1549049049049        1.22481894493103        42.5881690979004   -5.23528090984442E-09                253974.5          101293.6015625        288.098297119141       0.102187499403954     -0.0442020483314991                       0 
                     -1         1.1524024024024        1.22481894493103        42.5881690979004    -5.2550023604429E-09                253974.5          101293.6015625        288.098297119141       0.102187499403954     -0.0442020483314991                       0 
                     -1         1.1498998998999        1.22481894493103        42.5881690979004   -5.27472381104138E-09                253974.5          101293.6015625        288.098297119141       0.102187499403954     -0.0442020483314991                       0 
                     -1         1.1473973973974        1.22481894493103        42.5881690979004   -5.29444526163987E-09                253974.5          101293.6015625        288.098297119141       0.102187499403954     -0.0442020483314991                       0 
                     -1        1.14489489489489        1.22481894493103        42.5881690979004   -5.31416671223835E-09                253974.5          101293.6015625        288.098297119141       0.102187499403954     -0.0442020483314991                       0 
                     -1        1.14239239239239        1.22481894493103        42.5881690979004   -5.33388816283684E-09                253974.5          101293.6015625        288.098297119141       0.102187499403954     -0.0442020483314991                       0 
                     -1        1.13988988988989        1.22481894493103        42.5881690979004   -5.35360961343532E-09                253974.5          101293.6015625        288.098297119141       0.102187499403954     -0.0442020483314991                       0 
                     -1        1.13738738738739        1.22481894493103        42.5881690979004   -5.37333106738937E-09                253974.5          101293.6015625        288.098297119141       0.102187499403954     -0.0442020483314991                       0 
                     -1        1.13488488488488        1.22481894493103        42.5881690979004   -5.39305251798785E-09                253974.5          101293.6015625        288.098297119141       0.102187499403954     -0.0442020483314991                       0 
                     -1        1.13238238238238        1.22481894493103        42.5881690979004   -5.41277396858634E-09                253974.5          101293.6015625        288.098297119141       0.102187499403954     -0.0442020483314991                       0 
                     -1        1.12987987987988        1.22481894493103        42.5881690979004   -5.43249541918482E-09                253974.5          101293.6015625        288.098297119141       0.102187499403954     -0.0442020483314991                       0 
                     -1        1.12737737737738        1.22481894493103        42.5881690979004   -5.45221686978331E-09                253974.5          101293.6015625        288.098297119141       0.102187499403954     -0.0442020483314991                       0 
                     -1        1.12487487487487        1.22481894493103        42.5881690979004   -5.47193832038179E-09                253974.5          101293.6015625        288.098297119141       0.102187499403954     -0.0442020483314991                       0 
                     -1        1.12237237237237        1.22481894493103        42.5881690979004   -5.48248425186561E-09                253974.5          101293.6015625        288.098297119141       0.102187499403954     -0.0442020483314991                       0 
                     -1        1.11986986986987        1.22481894493103        42.5881690979004   -5.48024535971383E-09                253974.5          101293.6015625        288.098297119141       0.102187499403954     -0.0442020483314991                       0 
                     -1        1.11736736736737        1.22481894493103        42.5881690979004   -5.47800646756205E-09                253974.5          101293.6015625        288.098297119141       0.102187499403954     -0.0442020483314991                       0 
                     -1        1.11486486486486        1.22481894493103        42.5881690979004   -5.47576757541027E-09                253974.5          101293.6015625        288.098297119141       0.102187499403954     -0.0442020483314991                       0 
                     -1        1.11236236236236        1.22481894493103        42.5881690979004   -5.47352868325849E-09                253974.5          101293.6015625        288.098297119141       0.102187499403954     -0.0442020483314991                       0 
                     -1        1.10985985985986        1.22481894493103        42.5881690979004   -5.47128979110671E-09                253974.5          101293.6015625        288.098297119141       0.102187499403954     -0.0442020483314991                       0 
                     -1        1.10735735735736        1.22481894493103        42.5881690979004   -5.46905090449489E-09                253974.5          101293.6015625        288.098297119141       0.102187499403954     -0.0442020483314991                       0 
                     -1        1.10485485485485        1.22481894493103        42.5881690979004   -5.46681201234311E-09                253974.5          101293.6015625        288.098297119141       0.102187499403954     -0.0442020483314991                       0 
                     -1        1.10235235235235        1.22481894493103        42.5881690979004   -5.46457312019133E-09                253974.5          101293.6015625        288.098297119141       0.102187499403954     -0.0442020483314991                       0 
                     -1        1.09984984984985        1.22481894493103        42.5881690979004   -5.46233422803955E-09                253974.5          101293.6015625        288.098297119141       0.102187499403954     -0.0442020483314991                       0 
                     -1        1.09734734734735        1.22481894493103        42.5881690979004   -5.46009533588777E-09                253974.5          101293.6015625        288.098297119141       0.102187499403954     -0.0442020483314991                       0 
                     -1        1.09484484484484        1.22481894493103        42.5881690979004   -5.45785644373599E-09                253974.5          101293.6015625        288.098297119141       0.102187499403954     -0.0442020483314991                       0 
                     -1        1.09234234234234        1.22481894493103        42.5881690979004   -5.45561755158421E-09                253974.5          101293.6015625        288.098297119141       0.102187499403954     -0.0442020483314991                       0 
                     -1        1.08983983983984        1.22481894493103        42.5881690979004    -5.4400163222192E-09                253974.5          101293.6015625        288.098297119141       0.102187499403954     -0.0442020483314991                       0 
                     -1        1.08733733733734        1.22481894493103        42.5881690979004   -5.42047039164852E-09                253974.5          101293.6015625        288.098297119141       0.102187499403954     -0.0442020483314991                       0 
                     -1        1.08483483483483        1.22481894493103        42.5881690979004   -5.40092446107784E-09                253974.5          101293.6015625        288.098297119141       0.102187499403954     -0.0442020483314991                       0 
                     -1        1.08233233233233        1.22481894493103        42.5881690979004   -5.38137853050717E-09                253974.5          101293.6015625        288.098297119141       0.102187499403954     -0.0442020483314991                       0 
                     -1        1.07982982982983        1.22481894493103        42.5881690979004   -5.36183259993649E-09                253974.5          101293.6015625        288.098297119141       0.102187499403954     -0.0442020483314991                       0 
                     -1        1.07732732732733        1.22481894493103        42.5881690979004   -5.34228666936581E-09                253974.5          101293.6015625        288.098297119141       0.102187499403954     -0.0442020483314991                       0 
                     -1        1.07482482482482        1.22481894493103        42.5881690979004   -5.32274074852426E-09                253974.5          101293.6015625        288.098297119141       0.102187499403954     -0.0442020483314991                       0 
                     -1        1.07232232232232        1.22481894493103        42.5881690979004   -5.30319481795358E-09                253974.5          101293.6015625        288.098297119141       0.102187499403954     -0.0442020483314991                       0 
                     -1        1.06981981981982        1.22481894493103        42.5881690979004   -5.28364888738291E-09                253974.5          101293.6015625        288.098297119141       0.102187499403954     -0.0442020483314991                       0 
                     -1        1.06731731731732        1.22481894493103        42.5881690979004   -5.26410295681223E-09                253974.5          101293.6015625        288.098297119141       0.102187499403954     -0.0442020483314991                       0 
                     -1        1.06481481481481        1.22481894493103        42.5881690979004   -5.24455702624155E-09                253974.5          101293.6015625        288.098297119141       0.102187499403954     -0.0442020483314991                       0 
                     -1        1.06231231231231        1.22481894493103        42.5881690979004   -5.22501109567088E-09                253974.5          101293.6015625        288.098297119141       0.102187499403954     -0.0442020483314991                       0 
                     -1        1.05980980980981        1.22481894493103        42.5881690979004   -5.20447834123102E-09                253974.5          101293.6015625        288.098297119141       0.102187499403954     -0.0442020483314991                       0 
                     -1        1.05730730730731        1.22481894493103        42.5881690979004   -5.17714725685508E-09                253974.5          101293.6015625        288.098297119141       0.102187499403954     -0.0442020483314991                       0 
                     -1         1.0548048048048        1.22481894493103        42.5881690979004   -5.14981617247914E-09                253974.5          101293.6015625        288.098297119141       0.102187499403954     -0.0442020483314991                       0 
                     -1         1.0523023023023        1.22481894493103        42.5881690979004    -5.1224850881032E-09                253974.5          101293.6015625        288.098297119141       0.102187499403954     -0.0442020483314991                       0 
                     -1         1.0497997997998        1.22481894493103        42.5881690979004   -5.09515400372726E-09                253974.5          101293.6015625        288.098297119141       0.102187499403954     -0.0442020483314991                       0 
                     -1         1.0472972972973        1.22481894493103        42.5881690979004   -5.06782291935132E-09                253974.5          101293.6015625        288.098297119141       0.102187499403954     -0.0442020483314991                       0 
                     -1        1.04479479479479        1.22481894493103        42.5881690979004   -5.04049183497538E-09                253974.5          101293.6015625        288.098297119141       0.102187499403954     -0.0442020483314991                       0 
                     -1        1.04229229229229        1.22481894493103        42.5881690979004   -5.01316076581148E-09                253974.5          101293.6015625        288.098297119141       0.102187499403954     -0.0442020483314991                       0 
                     -1        1.03978978978979        1.22481894493103        42.5881690979004   -4.98582968143554E-09                253974.5          101293.6015625        288.098297119141       0.102187499403954     -0.0442020483314991                       0 
                     -1        1.03728728728729        1.22481894493103        42.5881690979004    -4.9584985970596E-09                253974.5          101293.6015625        288.098297119141       0.102187499403954     -0.0442020483314991                       0 
                     -1        1.03478478478478        1.22481894493103        42.5881690979004   -4.93116751268366E-09                253974.5          101293.6015625        288.098297119141       0.102187499403954     -0.0442020483314991                       0 
                     -1        1.03228228228228        1.22481894493103        42.5881690979004   -4.90383642830772E-09                253974.5          101293.6015625        288.098297119141       0.102187499403954     -0.0442020483314991                       0 
                     -1        1.02977977977978        1.22481894493103        42.5881690979004   -4.87650534393178E-09                253974.5          101293.6015625        288.098297119141       0.102187499403954     -0.0442020483314991                       0 
                     -1        1.02727727727728        1.22481894493103        42.5881690979004   -4.84800727554478E-09                253974.5          101293.6015625        288.098297119141       0.102187499403954     -0.0442020483314991                       0 
                     -1        1.02477477477477        1.22481894493103        42.5881690979004   -4.81825008066478E-09                253974.5          101293.6015625        288.098297119141       0.102187499403954     -0.0442020483314991                       0 
                     -1        1.02227227227227        1.22481894493103        42.5881690979004   -4.78849288578477E-09                253974.5          101293.6015625        288.098297119141       0.102187499403954     -0.0442020483314991                       0 
                     -1        1.01976976976977        1.22481894493103        42.5881690979004   -4.75873569090476E-09                253974.5          101293.6015625        288.098297119141       0.102187499403954     -0.0442020483314991                       0 
                     -1        1.01726726726727        1.22481894493103        42.5881690979004   -4.72897849602475E-09                253974.5          101293.6015625        288.098297119141       0.102187499403954     -0.0442020483314991                       0 
                     -1        1.01476476476476        1.22481894493103        42.5881690979004   -4.69922130114474E-09                253974.5          101293.6015625        288.098297119141       0.102187499403954     -0.0442020483314991                       0 
                     -1        1.01226226226226        1.22481894493103        42.5881690979004   -4.66946412594003E-09                253974.5          101293.6015625        288.098297119141       0.102187499403954     -0.0442020483314991                       0 
                     -1        1.00975975975976        1.22481894493103        42.5881690979004   -4.63970693106002E-09                253974.5          101293.6015625        288.098297119141       0.102187499403954     -0.0442020483314991                       0 
                     -1        1.00725725725726        1.22481894493103        42.5881690979004   -4.60994973618001E-09                253974.5          101293.6015625        288.098297119141       0.102187499403954     -0.0442020483314991                       0 
                     -1        1.00475475475475        1.22481894493103        42.5881690979004   -4.58019254130001E-09                253974.5          101293.6015625        288.098297119141       0.102187499403954     -0.0442020483314991                       0 
                     -1        1.00225225225225        1.22481894493103        42.5881690979004      -4.55043534642E-09                253974.5          101293.6015625        288.098297119141       0.102187499403954     -0.0442020483314991                       0 
                     -1        0.99974974974975        1.22481894493103        42.5881690979004   -4.52067815153999E-09                253974.5          101293.6015625        288.098297119141       0.102187499403954     -0.0442020483314991                       0 
                     -1       0.997247247247247        1.22481894493103        42.5881690979004   -4.49092095665998E-09                253974.5          101293.6015625        288.098297119141       0.102187499403954     -0.0442020483314991                       0 
                     -1       0.994744744744745        1.22481894493103        42.5881690979004   -4.46276816605223E-09                253974.5          101293.6015625        288.098297119141       0.102187499403954     -0.0442020483314991                       0 
                     -1       0.992242242242242        1.22481894493103        42.5881690979004   -4.43493142426902E-09                253974.5          101293.6015625        288.098297119141       0.102187499403954     -0.0442020483314991                       0 
                     -1        0.98973973973974        1.22481894493103        42.5881690979004   -4.40709468248581E-09                253974.5          101293.6015625        288.098297119141       0.102187499403954     -0.0442020483314991                       0 
                     -1       0.987237237237237        1.22481894493103        42.5881690979004   -4.37925794070259E-09                253974.5          101293.6015625        288.098297119141       0.102187499403954     -0.0442020483314991                       0 
                     -1       0.984734734734735        1.22481894493103        42.5881690979004   -4.35142119891938E-09                253974.5          101293.6015625        288.098297119141       0.102187499403954     -0.0442020483314991                       0 
                     -1       0.982232232232232        1.22481894493103        42.5881690979004   -4.32358445713616E-09                253974.5          101293.6015625        288.098297119141       0.102187499403954     -0.0442020483314991                       0 
                     -1        0.97972972972973        1.22481894493103        42.5881690979004   -4.29574773806998E-09                253974.5          101293.6015625        288.098297119141       0.102187499403954     -0.0442020483314991                       0 
                     -1       0.977227227227227        1.22481894493103        42.5881690979004   -4.26791099628677E-09                253974.5          101293.6015625        288.098297119141       0.102187499403954     -0.0442020483314991                       0 
                     -1       0.974724724724725        1.22481894493103        42.5881690979004   -4.24007425450355E-09                253974.5          101293.6015625        288.098297119141       0.102187499403954     -0.0442020483314991                       0 
                     -1       0.972222222222222        1.22481894493103        42.5881690979004   -4.21223751272034E-09                253974.5          101293.6015625        288.098297119141       0.102187499403954     -0.0442020483314991                       0 