VARIABLES = "x"
 "y"
 "Density"
 "Momentum_x"
 "Momentum_y"
 "Energy"
 "Pressure"
 "Temperature"
 "Mach"
 "C<sub>p</sub>"
 "Roe_Dissipation"
ZONE
DT=(DOUBLE,DOUBLE,DOUBLE,DOUBLE,DOUBLE,DOUBLE,DOUBLE,DOUBLE,DOUBLE,DOUBLE,DOUBLE)
                     -2                     0.6        1.22481894493103        42.5881690979004   -3.27707908621265E-12                253974.5          101293.6015625        288.098297119141       0.102187499403954     -0.0442020297050476                       0 
      -1.99749874937469                     0.6        1.22481894493103        42.5881690979004   -8.78523250290465E-12                253974.5          101293.6015625        288.098297119141       0.102187499403954     -0.0442020297050476                       0 
      -1.99499749874937                     0.6        1.22481894493103        42.5881690979004   -1.42933859195971E-11                253974.5          101293.6015625        288.098297119141       0.102187499403954     -0.0442020297050476                       0 
      -1.99249624812406                     0.6        1.22481894493103        42.5881690979004   -1.98015393362891E-11                253974.5          101293.6015625        288.098297119141       0.102187499403954     -0.0442020297050476                       0 
      -1.98999499749875                     0.6        1.22481894493103        42.5881690979004   -2.53096927529811E-11                253974.5          101293.6015625        288.098297119141       0.102187499403954     -0.0442020297050476                       0 
      -1.98749374687344                     0.6        1.22481894493103        42.5881690979004   -3.08178461696731E-11                253974.5          101293.6015625        288.098297119141       0.102187499403954     -0.0442020297050476                       0 
      -1.98499249624812                     0.6        1.22481894493103        42.5881690979004   -3.63259995863656E-11                253974.5          101293.6015625        288.098297119141       0.102187499403954     -0.0442020297050476                       0 
      -1.98249124562281                     0.6        1.22481894493103        42.5881690979004   -4.18341530030576E-11                253974.5          101293.6015625        288.098297119141       0.102187499403954     -0.0442020297050476                       0 
       -1.9799899949975                     0.6        1.22481894493103        42.5881690979004   -4.73423064197496E-11                253974.5          101293.6015625        288.098297119141       0.102187499403954     -0.0442020297050476                       0 
      -1.97748874437219                     0.6        1.22481894493103        42.5881690979004   -5.28504598364421E-11                253974.5          101293.6015625        288.098297119141       0.102187499403954     -0.0442020297050476                       0 
      -1.97498749374687                     0.6        1.22481894493103        42.5881690979004   -5.81803285782353E-11                253974.5          101293.6015625        288.098297119141       0.102187499403954     -0.0442020297050476                       0 
      -1.97248624312156                     0.6        1.22481894493103        42.5881690979004   -6.33750514750134E-11                253974.5          101293.6015625        288.098297119141       0.102187499403954     -0.0442020297050476                       0 
      -1.96998499249625                     0.6        1.22481894493103        42.5881690979004   -6.88608321917915E-11                253974.5          101293.6015625        288.098297119141       0.102187499403954     -0.0442020297050476                       0 
      -1.96748374187094                     0.6        1.22481894493103        42.5881690979004   -7.43689856084835E-11                253974.5          101293.6015625        288.098297119141       0.102187499403954     -0.0442020297050476                       0 
      -1.96498249124562                     0.6        1.22481894493103        42.5881690979004   -7.98771390251754E-11                253974.5          101293.6015625        288.098297119141       0.102187499403954     -0.0442020297050476                       0 
      -1.96248124062031                     0.6        1.22481894493103        42.5881690979004   -8.53852924418674E-11                253974.5          101293.6015625        288.098297119141       0.102187499403954     -0.0442020297050476                       0 
        -1.959979989995                     0.6        1.22481894493103        42.5881690979004   -9.08934458585599E-11                253974.5          101293.6015625        288.098297119141       0.102187499403954     -0.0442020297050476                       0 
      -1.95747873936968                     0.6        1.22481894493103        42.5881690979004   -9.64015992752519E-11                253974.5          101293.6015625        288.098297119141       0.102187499403954     -0.0442020297050476                       0 
      -1.95497748874437                     0.6        1.22481894493103        42.5881690979004   -1.01909752691944E-10                253974.5          101293.6015625        288.098297119141       0.102187499403954     -0.0442020297050476                       0 
      -1.95247623811906                     0.6        1.22481894493103        42.5881690979004   -1.07417906108636E-10                253974.5          101293.6015625        288.098297119141       0.102187499403954     -0.0442020297050476                       0 
      -1.94997498749375                     0.6        1.22481894493103        42.5881690979004   -1.12926059525328E-10                253974.5          101293.6015625        288.098297119141       0.102187499403954     -0.0442020297050476                       0 
      -1.94747373686843                     0.6        1.22481894493103        42.5881690979004   -1.18336927336648E-10                253974.5          101293.6015625        288.098297119141       0.102187499403954     -0.0442020297050476                       0 
      -1.94497248624312                     0.6        1.22481894493103        42.5881690979004   -1.23649507078675E-10                253974.5          101293.6015625        288.098297119141       0.102187499403954     -0.0442020297050476                       0 
      -1.94247123561781                     0.6        1.22481894493103        42.5881690979004   -1.28962086820701E-10                253974.5          101293.6015625        288.098297119141       0.102187499403954     -0.0442020297050476                       0 
       -1.9399699849925                     0.6        1.22481894493103        42.5881690979004   -1.34274666562728E-10                253974.5          101293.6015625        288.098297119141       0.102187499403954     -0.0442020297050476                       0 
      -1.93746873436718                     0.6        1.22481894493103        42.5881690979004   -1.39587246304754E-10                253974.5          101293.6015625        288.098297119141       0.102187499403954     -0.0442020297050476                       0 
      -1.93496748374187                     0.6        1.22481894493103        42.5881690979004   -1.44899826046781E-10                253974.5          101293.6015625        288.098297119141       0.102187499403954     -0.0442020297050476                       0 
      -1.93246623311656                     0.6        1.22481894493103        42.5881690979004   -1.50212405788808E-10                253974.5          101293.6015625        288.098297119141       0.102187499403954     -0.0442020297050476                       0 
      -1.92996498249125                     0.6        1.22481894493103        42.5881690979004   -1.55524985530834E-10                253974.5          101293.6015625        288.098297119141       0.102187499403954     -0.0442020297050476                       0 
      -1.92746373186593                     0.6        1.22481894493103        42.5881690979004   -1.60837565272861E-10                253974.5          101293.6015625        288.098297119141       0.102187499403954     -0.0442020297050476                       0 
      -1.92496248124062                     0.6        1.22481894493103        42.5881690979004   -1.66129952800844E-10                253974.5          101293.6015625        288.098297119141       0.102187499403954     -0.0442020297050476                       0 
      -1.92246123061531                     0.6        1.22481894493103        42.5881690979004   -1.71137865152737E-10                253974.5          101293.6015625        288.098297119141       0.102187499403954     -0.0442020297050476                       0 
      -1.91995997998999                     0.6        1.22481894493103        42.5881690979004   -1.76275591027709E-10                253974.5          101293.6015625        288.098297119141       0.102187499403954     -0.0442020297050476                       0 
      -1.91745872936468                     0.6        1.22481894493103        42.5881690979004   -1.81588170769735E-10                253974.5          101293.6015625        288.098297119141       0.102187499403954     -0.0442020297050476                       0 
      -1.91495747873937                     0.6        1.22481894493103        42.5881690979004   -1.86900750511762E-10                253974.5          101293.6015625        288.098297119141       0.102187499403954     -0.0442020297050476                       0 
      -1.91245622811406                     0.6        1.22481894493103        42.5881690979004   -1.92213330253788E-10                253974.5          101293.6015625        288.098297119141       0.102187499403954     -0.0442020297050476                       0 
      -1.90995497748874                     0.6        1.22481894493103        42.5881690979004   -1.97525909995815E-10                253974.5          101293.6015625        288.098297119141       0.102187499403954     -0.0442020297050476                       0 
      -1.90745372686343                     0.6        1.22481894493103        42.5881690979004   -2.02838489737842E-10                253974.5          101293.6015625        288.098297119141       0.102187499403954     -0.0442020297050476                       0 
      -1.90495247623812                     0.6        1.22481894493103        42.5881690979004   -2.08151069479868E-10                253974.5          101293.6015625        288.098297119141       0.102187499403954     -0.0442020297050476                       0 
      -1.90245122561281                     0.6        1.22481894493103        42.5881690979004   -2.13463649221895E-10                253974.5          101293.6015625        288.098297119141       0.102187499403954     -0.0442020297050476                       0 
      -1.89994997498749                     0.6        1.22481894493103        42.5881690979004   -2.18776228963922E-10                253974.5          101293.6015625        288.098297119141       0.102187499403954     -0.0442020297050476                       0 
      -1.89744872436218                     0.6        1.22481894493103        42.5881690979004   -2.24088808705948E-10                253974.5          101293.6015625        288.098297119141       0.102187499403954     -0.0442020297050476                       0 
      -1.89494747373687                     0.6        1.22481894493103        42.5881690979004    -2.2933185222491E-10                253974.5          101293.6015625        288.098297119141       0.102187499403954     -0.0442020297050476                       0 
      -1.89244622311156                     0.6        1.22481894493103        42.5881690979004   -2.34574540829607E-10                253974.5          101293.6015625        288.098297119141       0.102187499403954     -0.0442020297050476                       0 
      -1.88994497248624                     0.6        1.22481894493103        42.5881690979004   -2.39817229434303E-10                253974.5          101293.6015625        288.098297119141       0.102187499403954     -0.0442020297050476                       0 
      -1.88744372186093                     0.6        1.22481894493103        42.5881690979004   -2.45059918038999E-10                253974.5          101293.6015625        288.098297119141       0.102187499403954     -0.0442020297050476                       0 
      -1.88494247123562                     0.6        1.22481894493103        42.5881690979004   -2.50302606643696E-10                253974.5          101293.6015625        288.098297119141       0.102187499403954     -0.0442020297050476                       0 
      -1.88244122061031                     0.6        1.22481894493103        42.5881690979004   -2.55545295248393E-10                253974.5          101293.6015625        288.098297119141       0.102187499403954     -0.0442020297050476                       0 
      -1.87993996998499                     0.6        1.22481894493103        42.5881690979004   -2.60787983853089E-10                253974.5          101293.6015625        288.098297119141       0.102187499403954     -0.0442020297050476                       0 
      -1.87743871935968                     0.6        1.22481894493103        42.5881690979004   -2.66030672457786E-10                253974.5          101293.6015625        288.098297119141       0.102187499403954     -0.0442020297050476                       0 
      -1.87493746873437                     0.6        1.22481894493103        42.5881690979004   -2.71273361062482E-10                253974.5          101293.6015625        288.098297119141       0.102187499403954     -0.0442020297050476                       0 
      -1.87243621810905                     0.6        1.22481894493103        42.5881690979004    -2.7635025843985E-10                253974.5          101293.6015625        288.098297119141       0.102187499403954     -0.0442020297050476                       0 
      -1.86993496748374                     0.6        1.22481894493103        42.5881690979004   -2.81298854930378E-10                253974.5          101293.6015625        288.098297119141       0.102187499403954     -0.0442020297050476                       0 
      -1.86743371685843                     0.6        1.22481894493103        42.5881690979004    -2.8651905778287E-10                253974.5          101293.6015625        288.098297119141       0.102187499403954     -0.0442020297050476                       0 
      -1.86493246623312                     0.6        1.22481894493103        42.5881690979004   -2.91761746387567E-10                253974.5          101293.6015625        288.098297119141       0.102187499403954     -0.0442020297050476                       0 
       -1.8624312156078                     0.6        1.22481894493103        42.5881690979004   -2.97004434992263E-10                253974.5          101293.6015625        288.098297119141       0.102187499403954     -0.0442020297050476                       0 
      -1.85992996498249                     0.6        1.22481894493103        42.5881690979004    -3.0224712359696E-10                253974.5          101293.6015625        288.098297119141       0.102187499403954     -0.0442020297050476                       0 
      -1.85742871435718                     0.6        1.22481894493103        42.5881690979004   -3.07489812201656E-10                253974.5          101293.6015625        288.098297119141       0.102187499403954     -0.0442020297050476                       0 
      -1.85492746373187                     0.6        1.22481894493103        42.5881690979004   -3.12732500806352E-10                253974.5          101293.6015625        288.098297119141       0.102187499403954     -0.0442020297050476                       0 
      -1.85242621310655                     0.6        1.22481894493103        42.5881690979004   -3.17975189411049E-10                253974.5          101293.6015625        288.098297119141       0.102187499403954     -0.0442020297050476                       0 
      -1.84992496248124                     0.6        1.22481894493103        42.5881690979004   -3.23217878015746E-10                253974.5          101293.6015625        288.098297119141       0.102187499403954     -0.0442020297050476                       0 
      -1.84742371185593                     0.6        1.22481894493103        42.5881690979004   -3.28460566620442E-10                253974.5          101293.6015625        288.098297119141       0.102187499403954     -0.0442020297050476                       0 
      -1.84492246123062                     0.6        1.22481894493103        42.5881690979004   -3.33604908360191E-10                253974.5          101293.6015625        288.098297119141       0.102187499403954     -0.0442020297050476                       0 
       -1.8424212106053                     0.6        1.22481894493103        42.5881690979004   -3.38647850720203E-10                253974.5          101293.6015625        288.098297119141       0.102187499403954     -0.0442020297050476                       0 
      -1.83991995997999                     0.6        1.22481894493103        42.5881690979004   -3.43690793080214E-10                253974.5          101293.6015625        288.098297119141       0.102187499403954     -0.0442020297050476                       0 
      -1.83741870935468                     0.6        1.22481894493103        42.5881690979004   -3.48733735440226E-10                253974.5          101293.6015625        288.098297119141       0.102187499403954     -0.0442020297050476                       0 
      -1.83491745872936                     0.6        1.22481894493103        42.5881690979004   -3.53776677800238E-10                253974.5          101293.6015625        288.098297119141       0.102187499403954     -0.0442020297050476                       0 
      -1.83241620810405                     0.6        1.22481894493103        42.5881690979004   -3.58819620160249E-10                253974.5          101293.6015625        288.098297119141       0.102187499403954     -0.0442020297050476                       0 
      -1.82991495747874                     0.6        1.22481894493103        42.5881690979004    -3.6386256252026E-10                253974.5          101293.6015625        288.098297119141       0.102187499403954     -0.0442020297050476                       0 
      -1.82741370685343                     0.6        1.22481894493103        42.5881690979004   -3.68905504880272E-10                253974.5          101293.6015625        288.098297119141       0.102187499403954     -0.0442020297050476                       0 
      -1.82491245622811                     0.6        1.22481894493103        42.5881690979004   -3.73948447240284E-10                253974.5          101293.6015625        288.098297119141       0.102187499403954     -0.0442020297050476                       0 
       -1.8224112056028                     0.6        1.22481894493103        42.5881690979004   -3.78974026050587E-10                253974.5          101293.6015625        288.098297119141       0.102187499403954     -0.0442020297050476                       0 
      -1.81990995497749                     0.6        1.22481894493103        42.5881690979004   -3.83733241725388E-10                253974.5          101293.6015625        288.098297119141       0.102187499403954     -0.0442020297050476                       0 
      -1.81740870435218                     0.6        1.22481894493103        42.5881690979004   -3.88611907657067E-10                253974.5          101293.6015625        288.098297119141       0.102187499403954     -0.0442020297050476                       0 
      -1.81490745372686                     0.6        1.22481894493103        42.5881690979004   -3.93654850017078E-10                253974.5          101293.6015625        288.098297119141       0.102187499403954     -0.0442020297050476                       0 
      -1.81240620310155                     0.6        1.22481894493103        42.5881690979004    -3.9869779237709E-10                253974.5          101293.6015625        288.098297119141       0.102187499403954     -0.0442020297050476                       0 
      -1.80990495247624                     0.6        1.22481894493103        42.5881690979004   -4.03740734737102E-10                253974.5          101293.6015625        288.098297119141       0.102187499403954     -0.0442020297050476                       0 
      -1.80740370185093                     0.6        1.22481894493103        42.5881690979004   -4.08783677097113E-10                253974.5          101293.6015625        288.098297119141       0.102187499403954     -0.0442020297050476                       0 
      -1.80490245122561                     0.6        1.22481894493103        42.5881690979004   -4.13826619457124E-10                253974.5          101293.6015625        288.098297119141       0.102187499403954     -0.0442020297050476                       0 
       -1.8024012006003                     0.6        1.22481894493103        42.5881690979004   -4.18869561817136E-10                253974.5          101293.6015625        288.098297119141       0.102187499403954     -0.0442020297050476                       0 
      -1.79989994997499                     0.6        1.22481894493103        42.5881690979004   -4.23912504177148E-10                253974.5          101293.6015625        288.098297119141       0.102187499403954     -0.0442020297050476                       0 
      -1.79739869934967                     0.6        1.22481894493103        42.5881690979004   -4.28955446537159E-10                253974.5          101293.6015625        288.098297119141       0.102187499403954     -0.0442020297050476                       0 
      -1.79489744872436                     0.6        1.22481894493103        42.5881690979004    -4.3399838889717E-10                253974.5          101293.6015625        288.098297119141       0.102187499403954     -0.0442020297050476                       0 
      -1.79239619809905                     0.6        1.22481894493103        42.5881690979004   -4.38771287095194E-10                253974.5          101293.6015625        288.098297119141       0.102187499403954     -0.0442020297050476                       0 
      -1.78989494747374                     0.6        1.22481894493103        42.5881690979004   -4.43541414529639E-10                253974.5          101293.6015625        288.098297119141       0.102187499403954     -0.0442020297050476                       0 
      -1.78739369684842                     0.6        1.22481894493103        42.5881690979004   -4.48311541964084E-10                253974.5          101293.6015625        288.098297119141       0.102187499403954     -0.0442020297050476                       0 
      -1.78489244622311                     0.6        1.22481894493103        42.5881690979004   -4.53081669398528E-10                253974.5          101293.6015625        288.098297119141       0.102187499403954     -0.0442020297050476                       0 
       -1.7823911955978                     0.6        1.22481894493103        42.5881690979004   -4.57851796832972E-10                253974.5          101293.6015625        288.098297119141       0.102187499403954     -0.0442020297050476                       0 
      -1.77988994497249                     0.6        1.22481894493103        42.5881690979004   -4.62621924267417E-10                253974.5          101293.6015625        288.098297119141       0.102187499403954     -0.0442020297050476                       0 
      -1.77738869434717                     0.6        1.22481894493103        42.5881690979004   -4.67392051701862E-10                253974.5          101293.6015625        288.098297119141       0.102187499403954     -0.0442020297050476                       0 
      -1.77488744372186                     0.6        1.22481894493103        42.5881690979004   -4.72162179136306E-10                253974.5          101293.6015625        288.098297119141       0.102187499403954     -0.0442020297050476                       0 
      -1.77238619309655                     0.6        1.22481894493103        42.5881690979004    -4.7693230657075E-10                253974.5          101293.6015625        288.098297119141       0.102187499403954     -0.0442020297050476                       0 
      -1.76988494247124                     0.6        1.22481894493103        42.5881690979004   -4.81551585566267E-10                253974.5          101293.6015625        288.098297119141       0.102187499403954     -0.0442020297050476                       0 
      -1.76738369184592                     0.6        1.22481894493103        42.5881690979004   -4.86051695161692E-10                253974.5          101293.6015625        288.098297119141       0.102187499403954     -0.0442020297050476                       0 
      -1.76488244122061                     0.6        1.22481894493103        42.5881690979004   -4.90799806341655E-10                253974.5          101293.6015625        288.098297119141       0.102187499403954     -0.0442020297050476                       0 
       -1.7623811905953                     0.6        1.22481894493103        42.5881690979004   -4.95569933776099E-10                253974.5          101293.6015625        288.098297119141       0.102187499403954     -0.0442020297050476                       0 
      -1.75987993996998                     0.6        1.22481894493103        42.5881690979004   -5.00340061210544E-10                253974.5          101293.6015625        288.098297119141       0.102187499403954     -0.0442020297050476                       0 
      -1.75737868934467                     0.6        1.22481894493103        42.5881690979004   -5.05110188644988E-10                253974.5          101293.6015625        288.098297119141       0.102187499403954     -0.0442020297050476                       0 
      -1.75487743871936                     0.6        1.22481894493103        42.5881690979004   -5.09880316079433E-10                253974.5          101293.6015625        288.098297119141       0.102187499403954     -0.0442020297050476                       0 
      -1.75237618809405                     0.6        1.22481894493103        42.5881690979004   -5.14650443513877E-10                253974.5          101293.6015625        288.098297119141       0.102187499403954     -0.0442020297050476                       0 
      -1.74987493746873                     0.6        1.22481894493103        42.5881690979004   -5.19420570948322E-10                253974.5          101293.6015625        288.098297119141       0.102187499403954     -0.0442020297050476                       0 
      -1.74737368684342                     0.6        1.22481894493103        42.5881690979004   -5.24190698382766E-10                253974.5          101293.6015625        288.098297119141       0.102187499403954     -0.0442020297050476                       0 
      -1.74487243621811                     0.6        1.22481894493103        42.5881690979004   -5.28960825817211E-10                253974.5          101293.6015625        288.098297119141       0.102187499403954     -0.0442020297050476                       0 
       -1.7423711855928                     0.6        1.22481894493103        42.5881690979004   -5.33565228667542E-10                253974.5          101293.6015625        288.098297119141       0.102187499403954     -0.0442020297050476                       0 
      -1.73986993496748                     0.6        1.22481894493103        42.5881690979004   -5.37995255395648E-10                253974.5          101293.6015625        288.098297119141       0.102187499403954     -0.0442020297050476                       0 
      -1.73736868434217                     0.6        1.22481894493103        42.5881690979004   -5.42425282123755E-10                253974.5          101293.6015625        288.098297119141       0.102187499403954     -0.0442020297050476                       0 
      -1.73486743371686                     0.6        1.22481894493103        42.5881690979004   -5.46855308851862E-10                253974.5          101293.6015625        288.098297119141       0.102187499403954     -0.0442020297050476                       0 
      -1.73236618309155                     0.6        1.22481894493103        42.5881690979004   -5.51285335579969E-10                253974.5          101293.6015625        288.098297119141       0.102187499403954     -0.0442020297050476                       0 
      -1.72986493246623                     0.6        1.22481894493103        42.5881690979004   -5.55715362308075E-10                253974.5          101293.6015625        288.098297119141       0.102187499403954     -0.0442020297050476                       0 
      -1.72736368184092                     0.6        1.22481894493103        42.5881690979004   -5.60145389036182E-10                253974.5          101293.6015625        288.098297119141       0.102187499403954     -0.0442020297050476                       0 
      -1.72486243121561                     0.6        1.22481894493103        42.5881690979004   -5.64575415764289E-10                253974.5          101293.6015625        288.098297119141       0.102187499403954     -0.0442020297050476                       0 
       -1.7223611805903                     0.6        1.22481894493103        42.5881690979004   -5.69005442492395E-10                253974.5          101293.6015625        288.098297119141       0.102187499403954     -0.0442020297050476                       0 