 VARIABLES = "X",  "Y"
 ZONE N=        8492 , E=       16598 , F=FEPOINT, ET=TRIANGLE
        0.1956968100        0.0000000000
        0.0456968100        0.0000000000
        0.1956968100        0.0510500000
        0.0456968100        0.0510500000
        0.1946478590        0.0000000000
        0.1935989079        0.0000000000
        0.1925499569        0.0000000000
        0.1915010058        0.0000000000
        0.1904520548        0.0000000000
        0.1894031037        0.0000000000
        0.1883541527        0.0000000000
        0.1873052016        0.0000000000
        0.1862562506        0.0000000000
        0.1852072995        0.0000000000
        0.1841583485        0.0000000000
        0.1831093974        0.0000000000
        0.1820604464        0.0000000000
        0.1810114953        0.0000000000
        0.1799625443        0.0000000000
        0.1789135932        0.0000000000
        0.1778646422        0.0000000000
        0.1768156911        0.0000000000
        0.1757667401        0.0000000000
        0.1747177890        0.0000000000
        0.1736688380        0.0000000000
        0.1726198869        0.0000000000
        0.1715709359        0.0000000000
        0.1705219848        0.0000000000
        0.1694730338        0.0000000000
        0.1684240827        0.0000000000
        0.1673751317        0.0000000000
        0.1663261806        0.0000000000
        0.1652772296        0.0000000000
        0.1642282785        0.0000000000
        0.1631793275        0.0000000000
        0.1621303764        0.0000000000
        0.1610814254        0.0000000000
        0.1600324743        0.0000000000
        0.1589835233        0.0000000000
        0.1579345722        0.0000000000
        0.1568856212        0.0000000000
        0.1558366701        0.0000000000
        0.1547877191        0.0000000000
        0.1537387680        0.0000000000
        0.1526898170        0.0000000000
        0.1516408659        0.0000000000
        0.1505919149        0.0000000000
        0.1495429638        0.0000000000
        0.1484940128        0.0000000000
        0.1474450617        0.0000000000
        0.1463961107        0.0000000000
        0.1453471597        0.0000000000
        0.1442982086        0.0000000000
        0.1432492576        0.0000000000
        0.1422003065        0.0000000000
        0.1411513555        0.0000000000
        0.1401024044        0.0000000000
        0.1390534534        0.0000000000
        0.1380045023        0.0000000000
        0.1369555513        0.0000000000
        0.1359066002        0.0000000000
        0.1348576492        0.0000000000
        0.1338086981        0.0000000000
        0.1327597471        0.0000000000
        0.1317107960        0.0000000000
        0.1306618450        0.0000000000
        0.1296128939        0.0000000000
        0.1285639429        0.0000000000
        0.1275149918        0.0000000000
        0.1264660408        0.0000000000
        0.1254170897        0.0000000000
        0.1243681387        0.0000000000
        0.1233191876        0.0000000000
        0.1222702366        0.0000000000
        0.1212212855        0.0000000000
        0.1201723345        0.0000000000
        0.1191233834        0.0000000000
        0.1180744324        0.0000000000
        0.1170254813        0.0000000000
        0.1159765303        0.0000000000
        0.1149275792        0.0000000000
        0.1138786282        0.0000000000
        0.1128296771        0.0000000000
        0.1117807261        0.0000000000
        0.1107317750        0.0000000000
        0.1096828240        0.0000000000
        0.1086338729        0.0000000000
        0.1075849219        0.0000000000
        0.1065359708        0.0000000000
        0.1054870198        0.0000000000
        0.1044380687        0.0000000000
        0.1033891177        0.0000000000
        0.1023401666        0.0000000000
        0.1012912156        0.0000000000
        0.1002422645        0.0000000000
        0.0991933135        0.0000000000
        0.0981443624        0.0000000000
        0.0970954114        0.0000000000
        0.0960464603        0.0000000000
        0.0949975093        0.0000000000
        0.0939485583        0.0000000000
        0.0928996072        0.0000000000
        0.0918506562        0.0000000000
        0.0908017051        0.0000000000
        0.0897527541        0.0000000000
        0.0887038030        0.0000000000
        0.0876548520        0.0000000000
        0.0866059009        0.0000000000
        0.0855569499        0.0000000000
        0.0845079988        0.0000000000
        0.0834590478        0.0000000000
        0.0824100967        0.0000000000
        0.0813611457        0.0000000000
        0.0803121946        0.0000000000
        0.0792632436        0.0000000000
        0.0782142925        0.0000000000
        0.0771653415        0.0000000000
        0.0761163904        0.0000000000
        0.0750674394        0.0000000000
        0.0740184883        0.0000000000
        0.0729695373        0.0000000000
        0.0719205862        0.0000000000
        0.0708716352        0.0000000000
        0.0698226841        0.0000000000
        0.0687737331        0.0000000000
        0.0677247820        0.0000000000
        0.0666758310        0.0000000000
        0.0656268799        0.0000000000
        0.0645779289        0.0000000000
        0.0635289778        0.0000000000
        0.0624800268        0.0000000000
        0.0614310757        0.0000000000
        0.0603821247        0.0000000000
        0.0593331736        0.0000000000
        0.0582842226        0.0000000000
        0.0572352715        0.0000000000
        0.0561863205        0.0000000000
        0.0551373694        0.0000000000
        0.0540884184        0.0000000000
        0.0530394673        0.0000000000
        0.0519905163        0.0000000000
        0.0509415652        0.0000000000
        0.0498926142        0.0000000000
        0.0488436631        0.0000000000
        0.0477947121        0.0000000000
        0.0467457610        0.0000000000
        0.1956968100        0.0500081633
        0.1956968100        0.0489663265
        0.1956968100        0.0479244898
        0.1956968100        0.0468826531
        0.1956968100        0.0458408163
        0.1956968100        0.0447989796
        0.1956968100        0.0437571429
        0.1956968100        0.0427153061
        0.1956968100        0.0416734694
        0.1956968100        0.0406316327
        0.1956968100        0.0395897959
        0.1956968100        0.0385479592
        0.1956968100        0.0375061224
        0.1956968100        0.0364642857
        0.1956968100        0.0354224490
        0.1956968100        0.0343806122
        0.1956968100        0.0333387755
        0.1956968100        0.0322969388
        0.1956968100        0.0312551020
        0.1956968100        0.0302132653
        0.1956968100        0.0291714286
        0.1956968100        0.0281295918
        0.1956968100        0.0270877551
        0.1956968100        0.0260459184
        0.1956968100        0.0250040816
        0.1956968100        0.0239622449
        0.1956968100        0.0229204082
        0.1956968100        0.0218785714
        0.1956968100        0.0208367347
        0.1956968100        0.0197948980
        0.1956968100        0.0187530612
        0.1956968100        0.0177112245
        0.1956968100        0.0166693878
        0.1956968100        0.0156275510
        0.1956968100        0.0145857143
        0.1956968100        0.0135438776
        0.1956968100        0.0125020408
        0.1956968100        0.0114602041
        0.1956968100        0.0104183673
        0.1956968100        0.0093765306
        0.1956968100        0.0083346939
        0.1956968100        0.0072928571
        0.1956968100        0.0062510204
        0.1956968100        0.0052091837
        0.1956968100        0.0041673469
        0.1956968100        0.0031255102
        0.1956968100        0.0020836735
        0.1956968100        0.0010418367
        0.0467457610        0.0510500000
        0.0477947121        0.0510500000
        0.0488436631        0.0510500000
        0.0498926142        0.0510500000
        0.0509415652        0.0510500000
        0.0519905163        0.0510500000
        0.0530394673        0.0510500000
        0.0540884184        0.0510500000
        0.0551373694        0.0510500000
        0.0561863205        0.0510500000
        0.0572352715        0.0510500000
        0.0582842226        0.0510500000
        0.0593331736        0.0510500000
        0.0603821247        0.0510500000
        0.0614310757        0.0510500000
        0.0624800268        0.0510500000
        0.0635289778        0.0510500000
        0.0645779289        0.0510500000
        0.0656268799        0.0510500000
        0.0666758310        0.0510500000
        0.0677247820        0.0510500000
        0.0687737331        0.0510500000
        0.0698226841        0.0510500000
        0.0708716352        0.0510500000
        0.0719205862        0.0510500000
        0.0729695373        0.0510500000
        0.0740184883        0.0510500000
        0.0750674394        0.0510500000
        0.0761163904        0.0510500000
        0.0771653415        0.0510500000
        0.0782142925        0.0510500000
        0.0792632436        0.0510500000
        0.0803121946        0.0510500000
        0.0813611457        0.0510500000
        0.0824100967        0.0510500000
        0.0834590478        0.0510500000
        0.0845079988        0.0510500000
        0.0855569499        0.0510500000
        0.0866059009        0.0510500000
        0.0876548520        0.0510500000
        0.0887038030        0.0510500000
        0.0897527541        0.0510500000
        0.0908017051        0.0510500000
        0.0918506562        0.0510500000
        0.0928996072        0.0510500000
        0.0939485583        0.0510500000
        0.0949975093        0.0510500000
        0.0960464603        0.0510500000
        0.0970954114        0.0510500000
        0.0981443624        0.0510500000
        0.0991933135        0.0510500000
        0.1002422645        0.0510500000
        0.1012912156        0.0510500000
        0.1023401666        0.0510500000
        0.1033891177        0.0510500000
        0.1044380687        0.0510500000
        0.1054870198        0.0510500000
        0.1065359708        0.0510500000
        0.1075849219        0.0510500000
        0.1086338729        0.0510500000
        0.1096828240        0.0510500000
        0.1107317750        0.0510500000
        0.1117807261        0.0510500000
        0.1128296771        0.0510500000
        0.1138786282        0.0510500000
        0.1149275792        0.0510500000
        0.1159765303        0.0510500000
        0.1170254813        0.0510500000
        0.1180744324        0.0510500000
        0.1191233834        0.0510500000
        0.1201723345        0.0510500000
        0.1212212855        0.0510500000
        0.1222702366        0.0510500000
        0.1233191876        0.0510500000
        0.1243681387        0.0510500000
        0.1254170897        0.0510500000
        0.1264660408        0.0510500000
        0.1275149918        0.0510500000
        0.1285639429        0.0510500000
        0.1296128939        0.0510500000
        0.1306618450        0.0510500000
        0.1317107960        0.0510500000
        0.1327597471        0.0510500000
        0.1338086981        0.0510500000
        0.1348576492        0.0510500000
        0.1359066002        0.0510500000
        0.1369555513        0.0510500000
        0.1380045023        0.0510500000
        0.1390534534        0.0510500000
        0.1401024044        0.0510500000
        0.1411513555        0.0510500000
        0.1422003065        0.0510500000
        0.1432492576        0.0510500000
        0.1442982086        0.0510500000
        0.1453471597        0.0510500000
        0.1463961107        0.0510500000
        0.1474450617        0.0510500000
        0.1484940128        0.0510500000
        0.1495429638        0.0510500000
        0.1505919149        0.0510500000
        0.1516408659        0.0510500000
        0.1526898170        0.0510500000
        0.1537387680        0.0510500000
        0.1547877191        0.0510500000
        0.1558366701        0.0510500000
        0.1568856212        0.0510500000
        0.1579345722        0.0510500000
        0.1589835233        0.0510500000
        0.1600324743        0.0510500000
        0.1610814254        0.0510500000
        0.1621303764        0.0510500000
        0.1631793275        0.0510500000
        0.1642282785        0.0510500000
        0.1652772296        0.0510500000
        0.1663261806        0.0510500000
        0.1673751317        0.0510500000
        0.1684240827        0.0510500000
        0.1694730338        0.0510500000
        0.1705219848        0.0510500000
        0.1715709359        0.0510500000
        0.1726198869        0.0510500000
        0.1736688380        0.0510500000
        0.1747177890        0.0510500000
        0.1757667401        0.0510500000
        0.1768156911        0.0510500000
        0.1778646422        0.0510500000
        0.1789135932        0.0510500000
        0.1799625443        0.0510500000
        0.1810114953        0.0510500000
        0.1820604464        0.0510500000
        0.1831093974        0.0510500000
        0.1841583485        0.0510500000
        0.1852072995        0.0510500000
        0.1862562506        0.0510500000
        0.1873052016        0.0510500000
        0.1883541527        0.0510500000
        0.1894031037        0.0510500000
        0.1904520548        0.0510500000
        0.1915010058        0.0510500000
        0.1925499569        0.0510500000
        0.1935989079        0.0510500000
        0.1946478590        0.0510500000
        0.0456968100        0.0010418367
        0.0456968100        0.0020836735
        0.0456968100        0.0031255102
        0.0456968100        0.0041673469
        0.0456968100        0.0052091837
        0.0456968100        0.0062510204
        0.0456968100        0.0072928571
        0.0456968100        0.0083346939
        0.0456968100        0.0093765306
        0.0456968100        0.0104183673
        0.0456968100        0.0114602041
        0.0456968100        0.0125020408
        0.0456968100        0.0135438776
        0.0456968100        0.0145857143
        0.0456968100        0.0156275510
        0.0456968100        0.0166693878
        0.0456968100        0.0177112245
        0.0456968100        0.0187530612
        0.0456968100        0.0197948980
        0.0456968100        0.0208367347
        0.0456968100        0.0218785714
        0.0456968100        0.0229204082
        0.0456968100        0.0239622449
        0.0456968100        0.0250040816
        0.0456968100        0.0260459184
        0.0456968100        0.0270877551
        0.0456968100        0.0281295918
        0.0456968100        0.0291714286
        0.0456968100        0.0302132653
        0.0456968100        0.0312551020
        0.0456968100        0.0322969388
        0.0456968100        0.0333387755
        0.0456968100        0.0343806122
        0.0456968100        0.0354224490
        0.0456968100        0.0364642857
        0.0456968100        0.0375061224
        0.0456968100        0.0385479592
        0.0456968100        0.0395897959
        0.0456968100        0.0406316327
        0.0456968100        0.0416734694
        0.0456968100        0.0427153061
        0.0456968100        0.0437571429
        0.0456968100        0.0447989796
        0.0456968100        0.0458408163
        0.0456968100        0.0468826531
        0.0456968100        0.0479244898
        0.0456968100        0.0489663265
        0.0456968100        0.0500081633
        0.1804897910        0.0503311306
        0.0881828156        0.0503314079
        0.1260357340        0.0007500827
        0.1280299028        0.0007776799
        0.0526627925        0.0501707745
        0.0518354552        0.0497579948
        0.0509610884        0.0502805719
        0.0509741048        0.0492475557
        0.0500946730        0.0497397368
        0.0500999298        0.0487219638
        0.0492560683        0.0501424570
        0.0491982786        0.0492076700
        0.0483239650        0.0498193852
        0.0483406892        0.0487163741
        0.0492200654        0.0481856276
        0.0483534710        0.0476288351
        0.1699124626        0.0503185449
        0.1707651768        0.0500416722
        0.1927530316        0.0017611890
        0.1884824808        0.0502733666
        0.1663493080        0.0503695195
        0.1680462287        0.0502863533
        0.1689905919        0.0500169886
        0.1886725885        0.0418188066
        0.1921264213        0.0501572503
        0.1651839109        0.0007872446
        0.1651207751        0.0018150991
        0.1642306989        0.0023144670
        0.1200295812        0.0007943590
        0.1770177973        0.0496793123
        0.1778910588        0.0502157612
        0.1797116062        0.0500927561
        0.1779099699        0.0491642835
        0.1787890354        0.0496731419
        0.1796565150        0.0490999037
        0.1195886609        0.0502545704
        0.1940051777        0.0501432190
        0.1930623808        0.0498405077
        0.1939097531        0.0491641200
        0.1939082513        0.0481150164
        0.1930440518        0.0487259231
        0.1903920865        0.0502810217
        0.1912722422        0.0497474085
        0.1921791180        0.0492170798
        0.1761050417        0.0501684599
        0.1752485949        0.0504018881
        0.1744227534        0.0500818986
        0.1212344848        0.0400482388
        0.1203414216        0.0405512444
        0.0466024544        0.0443183337
        0.1944857441        0.0317214022
        0.1221276136        0.0395453752
        0.1284166185        0.0494046271
        0.1274563314        0.0491966931
        0.1264961701        0.0493865897
        0.1274201079        0.0478773864
        0.1265123793        0.0473535197
        0.1264877486        0.0483853973
        0.1256271857        0.0488868146
        0.1194484538        0.0410545265
        0.0670738124        0.0502359331
        0.0679038392        0.0498350045
        0.0678972189        0.0488156000
        0.0651987758        0.0502299156
        0.0661361237        0.0499379466
        0.0670017575        0.0493132467
        0.1354239516        0.0412361846
        0.1701118284        0.0349512062
        0.0652545903        0.0493070310
        0.0661290245        0.0488493399
        0.0670090913        0.0483033000
        0.0679000171        0.0477801172
        0.0652439172        0.0482979993
        0.0661295572        0.0477859095
        0.0652441666        0.0472467094
        0.0661347478        0.0467215691
        0.0670170093        0.0472545390
        0.0679075501        0.0467272556
        0.0679165282        0.0456697201
        0.0670252217        0.0461938670
        0.0652503788        0.0461820854
        0.0661424901        0.0456576913
        0.0652590663        0.0451204902
        0.0661517144        0.0446019673
        0.1283062596        0.0473814582
        0.1690705911        0.0479050382
        0.1690393677        0.0489507790
        0.1681431102        0.0493789582
        0.1672260393        0.0498786030
        0.1939140289        0.0470382495
        0.1930370405        0.0476334867
        0.1939290293        0.0448897613
        0.1939216496        0.0459598881
        0.1930449277        0.0454601412
        0.1930390852        0.0465439410
        0.1921594082        0.0471165639
        0.1921631327        0.0481907001
        0.1912675989        0.0487283886
        0.1912717921        0.0476730531
        0.1903738861        0.0482179361
        0.1903634056        0.0492582751
        0.1894446473        0.0497845942
        0.1692186047        0.0354538049
        0.1787869374        0.0486319343
        0.1345310390        0.0417427011
        0.1805313873        0.0495465368
        0.1815181862        0.0459619614
        0.1796803033        0.0480763420
        0.1805911404        0.0475476735
        0.1815000475        0.0470373095
        0.1867929214        0.0501414488
        0.1876437545        0.0497283108
        0.1894714612        0.0487523944
        0.1885631015        0.0492503265
        0.1823841420        0.0476045400
        0.1805635121        0.0485733832
        0.1814798179        0.0480940540
        0.1851021996        0.0502592316
        0.1859498224        0.0497199705
        0.1868040043        0.0491706749
        0.1876978729        0.0487083900
        0.1885949440        0.0482092453
        0.1894913083        0.0476864321
        0.1832819131        0.0470898833
        0.1824011607        0.0465230843
        0.1824166089        0.0454402514
        0.1832977281        0.0459990509
        0.1841769505        0.0465591405
        0.1813445504        0.0500978754
        0.1814490630        0.0491122097
        0.1823582136        0.0486671628
        0.1832632432        0.0481707042
        0.1841602232        0.0476496882
        0.1850549656        0.0471106896
        0.1859516504        0.0465695771
        0.1868489544        0.0460332887
        0.1822915177        0.0496966816
        0.1831827206        0.0502466335
        0.1832343594        0.0492181779
        0.1841421753        0.0497547410
        0.1841456840        0.0487208028
        0.1850416272        0.0492304925
        0.1850396840        0.0481867692
        0.1859224225        0.0486979326
        0.1859343471        0.0476468752
        0.1868179024        0.0481679256
        0.1868334574        0.0471124718
        0.1877166286        0.0476588995
        0.1877309775        0.0465833742
        0.1886120845        0.0471366363
        0.1886258303        0.0460506508
        0.1921632005        0.0460287865
        0.1912783802        0.0465904184
        0.1903869489        0.0471435256
        0.1895061861        0.0466006582
        0.1939357669        0.0438301567
        0.1930518380        0.0443889612
        0.1921697356        0.0449476562
        0.1948558838        0.0391282166
        0.1948483894        0.0401603829
        0.1948439131        0.0411959123
        0.1948521352        0.0496545100
        0.1948473305        0.0485697352
        0.1948506666        0.0475025521
        0.1948569911        0.0464386286
        0.1948618964        0.0453787900
        0.1948642998        0.0443246337
        0.1948621265        0.0432748163
        0.1948451606        0.0422322929
        0.1939716042        0.0396778935
        0.1939624420        0.0407077568
        0.1939553781        0.0417411535
        0.1939454426        0.0427762537
        0.1930871828        0.0402203458
        0.1930772487        0.0412509216
        0.1930686367        0.0422864562
        0.1930593918        0.0433313351
        0.1922041901        0.0407580770
        0.1921942682        0.0417907625
        0.1921853972        0.0428305649
        0.1912862460        0.0455035172
        0.1903983397        0.0460549777
        0.1895186792        0.0455133013
        0.1921771668        0.0438816258
        0.1913216495        0.0412905695
        0.1913118978        0.0423259147
        0.1913030032        0.0433703673
        0.1912945142        0.0444286431
        0.1904086073        0.0449724587
        0.1877446743        0.0455011420
        0.1886384513        0.0449701515
        0.1895299670        0.0444388339
        0.1904182897        0.0439060489
        0.1904376782        0.0418171165
        0.1904278132        0.0428557868
        0.1895510117        0.0423383883
        0.1895405884        0.0433815409
        0.1886614993        0.0428562924
        0.1877813547        0.0423310403
        0.1886502601        0.0439052502
        0.1877697621        0.0433732082
        0.1877576258        0.0444291342
        0.1868633768        0.0449553259
        0.1868765462        0.0438914642
        0.1859823692        0.0444130967
        0.1859679393        0.0454858996
        0.1850721193        0.0460216052
        0.1948841886        0.0370925777
        0.1948669671        0.0381030706
        0.1939852322        0.0386544703
        0.1940057783        0.0376416596
        0.1931227176        0.0381751019
        0.1931011878        0.0391946634
        0.1922369401        0.0387058801
        0.1922173055        0.0397300248
        0.1913500031        0.0392340181
        0.1913335300        0.0402606226
        0.1904487251        0.0407853544
        0.1895618415        0.0413042767
        0.1578563924        0.0194408009
        0.0615550092        0.0503176020
        0.0670342802        0.0451357149
        0.0679263316        0.0446177788
        0.0679587499        0.0415104784
        0.0670441778        0.0440867952
        0.0679367627        0.0435749953
        0.0679476277        0.0425401553
        0.0670547157        0.0430475204
        0.0661618746        0.0435570924
        0.0652689630        0.0440693103
        0.1579906772        0.0007701996
        0.1949846215        0.0352275478
        0.1949155090        0.0361162213
        0.1940371439        0.0366441707
        0.1940938112        0.0356610294
        0.1932172579        0.0361518967
        0.1931571312        0.0371618866
        0.1922682268        0.0376849668
        0.1923197193        0.0366656612
        0.1914139266        0.0371865190
        0.1926835431        0.0326651241
        0.1936132302        0.0321960077
        0.1944653672        0.0327446284
        0.1944300446        0.0337522324
        0.1942885165        0.0347048689
        0.1935708579        0.0331989612
        0.1934779055        0.0341726912
        0.1256163874        0.0478678025
        0.1247541341        0.0494344326
        0.1247261945        0.0483842784
        0.1247309724        0.0473501613
        0.1238501457        0.0468211626
        0.1247374478        0.0463086223
        0.1256228501        0.0468344613
        0.1256278163        0.0457958991
        0.1913749430        0.0382096238
        0.1905090468        0.0377067170
        0.1461536875        0.0341733907
        0.1461650372        0.0331485373
        0.1291883317        0.0468914544
        0.1300840196        0.0474497886
        0.1283520784        0.0484211444
        0.1292017302        0.0479258344
        0.1292023932        0.0489422714
        0.1159316354        0.0379386838
        0.1909484625        0.0016425609
        0.1918867583        0.0022086589
        0.1139711569        0.0503449600
        0.1158923781        0.0503500950
        0.1176518876        0.0502572341
        0.1167887653        0.0498476976
        0.1177095573        0.0493416790
        0.1186160895        0.0499719219
        0.1185986918        0.0488966322
        0.1238443114        0.0478665735
        0.1238367353        0.0489060549
        0.1229103747        0.0494098372
        0.1229988210        0.0410951803
        0.1229886951        0.0421243148
        0.1229798732        0.0431571233
        0.1221165748        0.0405713634
        0.1212236106        0.0410745962
        0.1203308094        0.0415781675
        0.1194382298        0.0420823951
        0.1185458723        0.0425877191
        0.1194294255        0.0431135534
        0.1221060025        0.0415987943
        0.1212134210        0.0421027448
        0.1203211949        0.0426074366
        0.1185380879        0.0436218432
        0.1194231899        0.0441500612
        0.1185337141        0.0446632810
        0.1194209017        0.0451936632
        0.1203087922        0.0446789128
        0.1203134773        0.0436405940
        0.1220964097        0.0426288440
        0.1212046118        0.0431339689
        0.1203079441        0.0457219413
        0.1211952136        0.0452088890
        0.1211981987        0.0441694397
        0.1220886201        0.0436628345
        0.1220836729        0.0447013135
        0.1229731621        0.0441947734
        0.1229692698        0.0452370542
        0.1229681343        0.0462814793
        0.1229674638        0.0473238771
        0.1220823861        0.0457425316
        0.1220843678        0.0467813245
        0.1229580184        0.0483602818
        0.1220851106        0.0478107652
        0.1220600156        0.0488264622
        0.1211697182        0.0492175182
        0.1205291814        0.0499493404
        0.1195246408        0.0493833136
        0.1203397887        0.0488601916
        0.1211970398        0.0482777908
        0.1211958859        0.0462484810
        0.1211983749        0.0472782843
        0.1203158857        0.0478074537
        0.1194579155        0.0483557331
        0.1203105322        0.0467661338
        0.1194237875        0.0462443923
        0.1194335243        0.0472999321
        0.1185636479        0.0478346010
        0.1167726544        0.0488410303
        0.1176826218        0.0483402445
        0.1535960694        0.0012858783
        0.1527132388        0.0007514810
        0.1404388080        0.0016512043
        0.1168248599        0.0374360495
        0.1159429820        0.0369137771
        0.1150497563        0.0374163964
        0.1660224349        0.0013356495
        0.1699051843        0.0494495351
        0.1699513477        0.0484598481
        0.1708605529        0.0479937454
        0.1717521260        0.0475027796
        0.1257457415        0.0334348933
        0.1248525180        0.0339374912
        0.1239592945        0.0344400894
        0.1176954317        0.0389833533
        0.1221388505        0.0385200735
        0.1212456584        0.0390227714
        0.1203524897        0.0395255238
        0.1194593576        0.0400283829