 VARIABLES = "X",  "Y"
 ZONE N=          75 , E=         106 , F=FEPOINT, ET=TRIANGLE
        0.0000000000       -0.1570790000
       -2.0000000000       -0.1570790000
        0.0000000000        0.1570790000
       -2.0000000000        0.1570790000
       -0.1111111111       -0.1570790000
       -0.2222222222       -0.1570790000
       -0.3333333333       -0.1570790000
       -0.4444444444       -0.1570790000
       -0.5555555556       -0.1570790000
       -0.6666666667       -0.1570790000
       -0.7777777778       -0.1570790000
       -0.8888888889       -0.1570790000
       -1.0000000000       -0.1570790000
       -1.1111111111       -0.1570790000
       -1.2222222222       -0.1570790000
       -1.3333333333       -0.1570790000
       -1.4444444444       -0.1570790000
       -1.5555555556       -0.1570790000
       -1.6666666667       -0.1570790000
       -1.7777777778       -0.1570790000
       -1.8888888889       -0.1570790000
        0.0000000000        0.0523596667
        0.0000000000       -0.0523596667
       -1.8888888889        0.1570790000
       -1.7777777778        0.1570790000
       -1.6666666667        0.1570790000
       -1.5555555556        0.1570790000
       -1.4444444444        0.1570790000
       -1.3333333333        0.1570790000
       -1.2222222222        0.1570790000
       -1.1111111111        0.1570790000
       -1.0000000000        0.1570790000
       -0.8888888889        0.1570790000
       -0.7777777778        0.1570790000
       -0.6666666667        0.1570790000
       -0.5555555556        0.1570790000
       -0.4444444444        0.1570790000
       -0.3333333333        0.1570790000
       -0.2222222222        0.1570790000
       -0.1111111111        0.1570790000
       -2.0000000000       -0.0523596667
       -2.0000000000        0.0523596667
       -0.2948508002        0.0733711008
       -0.4433514234       -0.0725170952
       -0.3808164900        0.0486190914
       -0.5960555804       -0.0333909617
       -0.6052403504        0.0826223903
       -0.5098097187        0.0508947109
       -0.3103195844       -0.0307873668
       -0.2011147077        0.0542374886
       -0.1910042443       -0.0589550167
       -0.7034766167        0.0798219414
       -0.7233663251       -0.0339370930
       -0.8166419942        0.0785917770
       -0.8482178896       -0.0354728520
       -0.9308940156        0.0773288573
       -0.9629139307       -0.0371958543
       -1.0433496836        0.0760248824
       -1.0751450894       -0.0390567236
       -1.1547932585        0.0745528703
       -1.1860827130       -0.0413229708
       -1.2647013574        0.0723163869
       -1.2944389810       -0.0448746200
       -1.8092739816       -0.0594647707
       -1.7758355258        0.0742526944
       -1.7106918005       -0.0476003681
       -1.3689043313        0.0666396152
       -1.4452137022        0.0431127383
       -1.6324003058        0.0699313009
       -1.5219537114        0.0661874689
       -1.3958711315       -0.0514146455
       -1.5972091694       -0.0468541689
       -1.4933702812       -0.0506230596
       -0.1024553412        0.0001073132
       -1.8882762907        0.0059024826
 
         2        21        41
        41        21        75
        21        64        75
        41        75        42
        64        65        75
        21        20        64
        75        24        42
        75        65        24
        66        65        64
        20        66        64
        42        24         4
        65        25        24
        69        65        66
        19        66        20
        65        26        25
        66        72        69
        69        26        65
        19        72        66
        72        70        69
        69        27        26
        18        72        19
        70        27        69
        73        70        72
        18        73        72
        28        27        70
        68        70        73
        17        73        18
        68        28        70
        71        68        73
        73        17        71
        67        28        68
        67        68        71
        71        17        16
        29        28        67
        71        63        67
        71        16        63
        62        29        67
        62        67        63
        63        16        15
        30        29        62
        63        61        62
        63        15        61
        62        60        30
        61        60        62
        61        15        14
        60        31        30
        60        61        59
        59        61        14
        60        58        31
        59        58        60
        13        59        14
        58        32        31
        58        59        57
        57        59        13
        58        56        32
        57        56        58
        12        57        13
        56        33        32
        56        57        55
        55        57        12
        56        54        33
        55        54        56
        11        55        12
        54        34        33
        54        55        53
        53        55        11
        54        52        34
        53        52        54
        10        53        11
        52        35        34
        52        53        46
        46        53        10
        52        47        35
        46        47        52
         9        46        10
        47        36        35
        46        48        47
        44        46         9
        48        36        47
        44        48        46
         8        44         9
        48        37        36
        45        48        44
         7        44         8
        48        45        37
        49        45        44
         7        49        44
        45        38        37
        43        45        49
         6        49         7
        43        38        45
        50        43        49
         6        51        49
        43        39        38
        51        50        49
        50        39        43
         5        51         6
        51        74        50
        50        40        39
         5        74        51
        74        40        50
        74         5        23
        22        40        74
        23         5         1
        22        74        23
        22         3        40
