 VARIABLES = "X",  "Y"
 ZONE N=         327 , E=         576 , F=FEPOINT, ET=TRIANGLE
        1.0000000000       -0.1570790000
        0.0000000000       -0.1570790000
        1.0000000000        0.1570790000
        0.0000000000        0.1570790000
        0.9655172414       -0.1570790000
        0.9310344828       -0.1570790000
        0.8965517241       -0.1570790000
        0.8620689655       -0.1570790000
        0.8275862069       -0.1570790000
        0.7931034483       -0.1570790000
        0.7586206897       -0.1570790000
        0.7241379310       -0.1570790000
        0.6896551724       -0.1570790000
        0.6551724138       -0.1570790000
        0.6206896552       -0.1570790000
        0.5862068966       -0.1570790000
        0.5517241379       -0.1570790000
        0.5172413793       -0.1570790000
        0.4827586207       -0.1570790000
        0.4482758621       -0.1570790000
        0.4137931034       -0.1570790000
        0.3793103448       -0.1570790000
        0.3448275862       -0.1570790000
        0.3103448276       -0.1570790000
        0.2758620690       -0.1570790000
        0.2413793103       -0.1570790000
        0.2068965517       -0.1570790000
        0.1724137931       -0.1570790000
        0.1379310345       -0.1570790000
        0.1034482759       -0.1570790000
        0.0689655172       -0.1570790000
        0.0344827586       -0.1570790000
        1.0000000000        0.1221725556
        1.0000000000        0.0872661111
        1.0000000000        0.0523596667
        1.0000000000        0.0174532222
        1.0000000000       -0.0174532222
        1.0000000000       -0.0523596667
        1.0000000000       -0.0872661111
        1.0000000000       -0.1221725556
        0.0344827586        0.1570790000
        0.0689655172        0.1570790000
        0.1034482759        0.1570790000
        0.1379310345        0.1570790000
        0.1724137931        0.1570790000
        0.2068965517        0.1570790000
        0.2413793103        0.1570790000
        0.2758620690        0.1570790000
        0.3103448276        0.1570790000
        0.3448275862        0.1570790000
        0.3793103448        0.1570790000
        0.4137931034        0.1570790000
        0.4482758621        0.1570790000
        0.4827586207        0.1570790000
        0.5172413793        0.1570790000
        0.5517241379        0.1570790000
        0.5862068966        0.1570790000
        0.6206896552        0.1570790000
        0.6551724138        0.1570790000
        0.6896551724        0.1570790000
        0.7241379310        0.1570790000
        0.7586206897        0.1570790000
        0.7931034483        0.1570790000
        0.8275862069        0.1570790000
        0.8620689655        0.1570790000
        0.8965517241        0.1570790000
        0.9310344828        0.1570790000
        0.9655172414        0.1570790000
        0.0000000000       -0.1221725556
        0.0000000000       -0.0872661111
        0.0000000000       -0.0523596667
        0.0000000000       -0.0174532222
        0.0000000000        0.0174532222
        0.0000000000        0.0523596667
        0.0000000000        0.0872661111
        0.0000000000        0.1221725556
        0.9521486390        0.1273998774
        0.9159622429        0.1270300399
        0.8806405230        0.1271817880
        0.8456819117        0.1267540116
        0.7415377880        0.1270229529
        0.7761451958        0.1270509343
        0.8108989593        0.1270518181
        0.9325359703        0.0984903429
        0.8988330015        0.0977034716
        0.8637892670        0.0971592388
        0.8290021698        0.0969133089
        0.7590879509        0.0966329086
        0.7939003677        0.0967090657
        0.7071568346       -0.1192393034
        0.7417433939       -0.1191016068
        0.8828864909       -0.1174520882
        0.5693765483       -0.1196018960
        0.7765045658       -0.1188963407
        0.8469459578       -0.1180848976
        0.8115386205       -0.1185728268
        0.9199230788       -0.1168045344
        0.9583994043       -0.1152540000
        0.5349603123       -0.1196837346
        0.5005446003       -0.1197651180
        0.9698789563        0.0977287202
        0.9787378619        0.0692732071
        0.9685091728        0.0408690996
        0.9485532524        0.0677532279
        0.9344474442        0.0371550293
        0.9542041077        0.0089008003
        0.9192553450        0.0058601536
        0.9159159509        0.0673172840
        0.9002920568        0.0359373170
        0.8819360228        0.0666269004
        0.8653259650        0.0351947269
        0.8838883089        0.0042665335
        0.9723178291       -0.0201279618
        0.9681465873       -0.0807699760
        0.9539964134       -0.0526519606
        0.9370709271       -0.0234514760
        0.9364604744       -0.0859875906
        0.9196430502       -0.0559409040
        0.9021153409       -0.0260911424
        0.9018912722       -0.0876790021
        0.8843595195       -0.0580092833
        0.8664591775       -0.0277004146
        0.8659601619       -0.0887933855
        0.8484338838       -0.0592554111
        0.8305435972       -0.0286458787
        0.8300236151       -0.0895999881
        0.8125576049       -0.0600165636
        0.7944764514       -0.0901306602
        0.7770922153       -0.0604639010
        0.7593662609       -0.0904496555
        0.7948478554       -0.0291957722
        0.7595891734       -0.0295044372
        0.7420732940       -0.0607158594
        0.5523980369       -0.0910463587
        0.8482083276        0.0033310974
        0.8470095733        0.0662091863
        0.8299148396        0.0347127971
        0.8125039682        0.0027686110
        0.8118240614        0.0659099197
        0.7945255723        0.0344061592
        0.7770927704        0.0024396318
        0.7767143859        0.0657270218
        0.7418310748        0.0655375793
        0.7072697590        0.0655774310
        0.6727795585        0.0655173135
        0.7593898196        0.0342440350
        0.7246713359        0.0341415781
        0.6900984456        0.0340366546
        0.6726660334       -0.1193440349
        0.6037951204       -0.1195192374
        0.6382209292       -0.1194344686
        0.5869533973        0.0338627298
        0.6039964716        0.0654083443
        0.6383689370        0.0654609877
        0.6212938642        0.0339121403
        0.6556631284        0.0339675545
        0.5867785198       -0.0909800808
        0.7245938287       -0.0906366479
        0.7420895697        0.0022595901
        0.7247361760       -0.0296784048
        0.7073811120       -0.0608604207
        0.6900295272       -0.0907542388
        0.7074109086        0.0021378218
        0.6901528536       -0.0297855280
        0.6728785284       -0.0609524736
        0.6729186122        0.0020547254
        0.6557154868       -0.0298588857
        0.6555733087       -0.0908398801
        0.6211660512       -0.0909123681
        0.6384693657       -0.0610210495
        0.6385282768        0.0019920473
        0.6213475655       -0.0299172878
        0.6041008120       -0.0610803062
        0.6041846365        0.0019390591
        0.5870088180       -0.0299695974
        0.5697479828       -0.0611363910
        0.5354004890       -0.0611917501
        0.5180196681       -0.0911123554
        0.4661287021       -0.1198460481
        0.4317120006       -0.1199263340
        0.5698599382        0.0018902986
        0.5526809405       -0.0300198173
        0.5696402062        0.0653581977
        0.5526242483        0.0338162070
        0.5355420101        0.0018431349
        0.5183565060       -0.0300696349
        0.5352901164        0.0653094488
        0.5182989554        0.0337708868
        0.5012259900        0.0017963465
        0.4840326730       -0.0301196102
        0.5010543897       -0.0612471989
        0.4836415994       -0.0911783272
        0.4667081001       -0.0613028290
        0.5009420035        0.0652612893
        0.4839744944        0.0337259150
        0.4669098319        0.0017495346
        0.4665940215        0.0652132558
        0.4496492121        0.0336810433
        0.4492628839       -0.0912441392
        0.3972931632       -0.1200054800
        0.4148820572       -0.0913093126
        0.4323602125       -0.0613583141
        0.3980076639       -0.0614127290
        0.3284329173       -0.1201532692
        0.3628690145       -0.1200821995
        0.3804955729       -0.0913725996
        0.0530248271       -0.1180807318
        0.0717079459       -0.0882508372
        0.0573832892        0.0082329700
        0.0872772618       -0.1191835260
        0.0572732430       -0.0575277512
        0.0672971716       -0.0254219568
        0.1048810745       -0.0895633690
        0.0231421399       -0.1120059413
        0.0306682078       -0.0779069118
        0.0280731986       -0.0403096865
        0.0278711301       -0.0027908370
        0.0301880606        0.0338744548
        0.0227336799        0.0663367934
        0.0534873875        0.0674513712
        0.0338535896        0.0952278885
        0.0490646712        0.1255346760
        0.0848834212        0.1257071908
        0.0883882523       -0.0575594314
        0.0683953890        0.0967454513
        0.0873768678        0.0668211873
        0.1214322518       -0.1195780521
        0.1214120994        0.0659608869
        0.0719736343        0.0366161512
        0.0885866206        0.0040856025
        0.1038433432       -0.0276208627
        0.1218394973       -0.0594080086
        0.1051199151        0.0352815209
        0.1558218949       -0.1198965428
        0.1388917129       -0.0904109354
        0.1562292270       -0.0604775640
        0.1388794866       -0.0288883526
        0.1219967030        0.0030839919
        0.2594759873       -0.1202419259
        0.2939734318       -0.1202113667
        0.2771844434       -0.0914922986
        0.2948054007       -0.0615236285
        0.2777918045       -0.0303293905
        0.2249321979       -0.1202204462
        0.2426273194       -0.0914487255
        0.2602715184       -0.0614920907
        0.1031957511        0.0963960843
        0.1903592845       -0.1201143046
        0.1733619314       -0.0909739378
        0.2079973171       -0.0912972218
        0.1909072331       -0.0610627706
        0.1736559249       -0.0296326789
        0.1563779342        0.0023938544
        0.4322446015        0.0651652561
        0.4497079191       -0.0301696990
        0.4325917310        0.0017028524
        0.4153206841        0.0336365160
        0.1203635200        0.1256570671
        0.2256283929       -0.0613631479
        0.2431831697       -0.0302528485
        0.2084497773       -0.0300484808
        0.1911018674        0.0019452418
        0.3116661622       -0.0914761577
        0.4153799005       -0.0302193523
        0.3982678462        0.0016570709
        0.3978905678        0.0651175751
        0.3635244242        0.0650710956
        0.3809831809        0.0335932476
        0.3460954097       -0.0914307821
        0.3636431269       -0.0614636662
        0.3810429692       -0.0302670704
        0.3639290516        0.0016142479
        0.3466237987        0.0335535999
        0.3291303274        0.0650280191
        0.3292512328       -0.0615051399
        0.3466843830       -0.0303090321
        0.3122797119       -0.0303361977
        0.3295562575        0.0015794440
        0.2951164803        0.0015640194
        0.3122176877        0.0335231782
        0.2777266711        0.0335141318
        0.1380797058        0.0959894470
        0.1553351406        0.1256331924
        0.2247437519        0.1257340067
        0.2605673524        0.0015906542
        0.1390688931        0.0344374095
        0.1559327373        0.0654055890
        0.1736081263        0.0339408571
        0.1900949697        0.1256652141
        0.1729410732        0.0957744620
        0.1906931372        0.0651239376
        0.2258825734        0.0016986840
        0.2083723324        0.0336720167
        0.2946801924        0.0649934946
        0.2077389476        0.0957035467
        0.2431117950        0.0335501376
        0.2254668048        0.0650074354
        0.2601357113        0.0649788481
        0.2424317001        0.0957087250
        0.2593092326        0.1258195909
        0.2770108890        0.0957485472
        0.2938115510        0.1259112828
        0.3115002179        0.0958029247
        0.3282725598        0.1260047660
        0.3459329124        0.0958630976
        0.3627105900        0.1260984730
        0.3803356869        0.0959253911
        0.3971375860        0.1261917971
        0.4147248023        0.0959882727
        0.4315599648        0.1262844669
        0.4491084592        0.0960511078
        0.4659806971        0.1263763533
        0.4834902681        0.0961136580
        0.5004010432        0.1264674127
        0.5178717944        0.0961759113
        0.5348216437        0.1265576580
        0.5522541682        0.0962380199
        0.5692432292        0.1266469950
        0.5866394237        0.0963000879
        0.6036673584        0.1267344895
        0.6210324410        0.0963616337
        0.7243410153        0.0964832079
        0.6899013797        0.0964833235
        0.6554446673        0.0964217316
        0.7069769493        0.1268858681
        0.6380975337        0.1268158622
        0.6725402154        0.1268760700
 
         2        32        69
        32       214        69
        69       214        70
        32       207       214
       214       215        70
       214       207       215
        32        31       207
        70       215        71
       207       208       215
        31       210       207
       215       216        71
       208       211       215
       207       210       208
        31        30       210
        71       216        72
       215       211       216
       208       224       211
       210       213       208
       210        30       227
       216       217        72
       211       212       216
       224       212       211
       213       224       208
       210       227       213
        30        29       227
        72       217        73
       216       212       217
       224       231       212
       224       213       232
       227       235       213
       227        29       234
       217       218        73
       212       209       217
       212       231       230
       224       232       231
       213       235       232
       227       234       235
        29        28       234
        73       218        74
       218       217       209
       212       230       209
       231       238       230
       237       231       232
       235       236       232
       235       234       249
       234        28       248
       218       219        74
       218       209       229
       209       230       229
       230       238       233
       237       238       231
       232       236       237
       235       249       236
       234       248       249
       248        28        27
        74       219        75
       219       218       220
       218       229       220
       230       233       229
       238       286       233
       237       253       238
       237       236       252
       249       251       236
       250       249       248
       248        27       244
       219       221        75
       219       220       221
       229       226       220
       233       226       229
       233       286       228
       253       286       238
       252       253       237
       236       251       252
       249       250       251
       250       248       244
       244        27        26
        75       221        76
       221       220       225
       220       226       225
       233       228       226
       228       286       287
       288       286       253
       252       262       253
       252       251       261
       259       251       250
       250       244       245
       244        26       239
       221       222        76
       221       225       222
       247       225       226
       226       228       247
       286       288       287
       282       228       287
       288       253       262
       261       262       252
       251       259       261
       245       259       250
       245       244       239
       239        26        25
       222        41        76
       223       222       225
       225       247       223
       247       228       282
       288       291       287
       282       287       290
       262       293       288
       292       262       261
       261       259       260
       246       259       245
       245       239       241
       240       239        25
        76        41         4
        42        41       222
       223        42       222
       223       247       258
       282       258       247
       287       291       290
       288       293       291
       283       282       290
       292       293       262
       292       261       260
       260       259       246
       241       246       245
       241       239       240
       240        25        24
        43        42       223
        43       223       258
       258       282       283
       290       291       295
       293       297       291
       289       283       290
       296       293       292
       292       260       285
       243       260       246
       242       246       241
       263       241       240
       204       240        24
        44        43       258
        44       258       283
       291       297       295
       289       290       295
       296       297       293
       289        45       283
       285       296       292
       285       260       243
       246       242       243
       263       242       241
       240       204       263
        23       204        24
        45        44       283
       295       297       299
       289       295       284
       298       297       296
        46        45       289
       281       296       285
       285       243       279
       243       242       277
       242       263       275
       204       269       263
        23       205       204
       298       299       297
       295       299       284
       284        46       289
       296       281       298
       279       281       285
       243       277       279
       277       242       275
       275       263       269
       205       269       204
        22       205        23
       301       299       298
       284       299       300
        47        46       284
       281       294       298
       280       281       279
       278       279       277
       276       277       275
       270       275       269
       206       269       205
       200       205        22
       294       301       298
       300       299       301
        47       284       300
       281       280       294
       278       280       279
       276       278       277
       270       276       275
       206       270       269
       200       206       205
        21       200        22
       303       301       294
       300       301       302
        48        47       300
       294       280       274
       280       278       273
       278       276       272
       271       276       270
       203       270       206
       201       206       200
       180       200        21
       294       274       303
       302       301       303
        48       300       302
       280       273       274
       278       272       273
       272       276       271
       203       271       270
       203       206       201
       180       201       200
        20       180        21
       274       305       303
       304       302       303
       302        49        48
       274       273       267
       273       272       268
       272       271       265
       264       271       203
       203       201       202
       199       201       180
       179       180        20
       304       303       305
       274       267       305
       304        49       302
       267       273       268
       272       265       268
       265       271       264
       202       264       203
       199       202       201
       179       199       180
        19       179        20
       306       304       305
       267       307       305
       304        50        49
       268       266       267
       265       257       268
       265       264       256
       255       264       202
       199       193       202
       192       199       179
       100       179        19
       307       306       305
       306        50       304
       267       266       307
       257       266       268
       265       256       257
       256       264       255
       193       255       202
       193       199       192
       100       192       179
        18       100        19
       308       306       307
       306        51        50
       266       309       307
       257       254       266
       257       256       198
       256       255       196
       190       255       193
       193       192       191
       178       192       100
        99       100        18
       309       308       307
       308        51       306
       266       254       309
       257       198       254
       256       196       198
       196       255       190
       191       190       193
       191       192       178
        99       178       100
        17        99        18
       310       308       309
       308        52        51
       254       311       309
       254       198       197
       198       196       195
       190       189       196
       190       191       186
       177       191       178
       134       178        99
        93        99        17
       311       310       309
       310        52       308
       254       197       311
       198       195       197
       189       195       196
       190       186       189
       186       191       177
       134       177       178
        93       134        99
        16        93        17
       312       310       311
       310        53        52
       197       313       311
       197       195       194
       195       189       188
       186       185       189
       186       177       182
       176       177       134
        93       157       134
        16       150        93
       313       312       311
       312        53       310
       197       194       313
       195       188       194
       185       188       189
       185       186       182
       176       182       177
       176       134       157
       150       157        93
        15       150        16
       314       312       313
       312        54        53
       194       315       313
       194       188       187
       188       185       184
       182       181       185
       175       182       176
       173       176       157
       150       169       157
        15       151       150
       315       314       313
       314        54       312
       194       187       315
       188       184       187
       181       184       185
       181       182       175
       175       176       173
       173       157       169
       151       169       150
        14       151        15
       316       314       315
       314        55        54
       187       317       315
       187       184       183
       184       181       152
       181       175       174
       172       175       173
       170       173       169
       168       169       151
       149       151        14
       317       316       315
       316        55       314
       187       183       317
       184       152       183
       152       181       174
       174       175       172
       172       173       170
       168       170       169
       149       168       151
        13       149        14
       318       316       317
       316        56        55
       183       319       317
       152       153       183
       152       174       155
       172       171       174
       167       172       170
       170       168       165
       162       168       149
        90       149        13
       319       318       317
       318        56       316
       183       153       319
       152       155       153
       174       171       155
       171       172       167
       170       165       167
       165       168       162
        90       162       149
        12        90        13
       320       318       319
       318        57        56
       153       321       319
       153       155       154
       155       171       156
       167       166       171
       167       165       164
       161       165       162
       158       162        90
        91        90        12
       321       320       319
       320        57       318
       154       321       153
       156       154       155
       166       156       171
       167       164       166
       164       165       161
       161       162       158
       158        90        91
        11        91        12
       326       320       321
       320        58        57
       154       324       321
       145       154       156
       148       156       166
       163       166       164
       164       161       160
       161       158       133
       130       158        91
        11        94        91
       326       321       324
       326        58       320
       145       324       154
       148       145       156
       163       148       166
       164       160       163
       161       133       160
       158       130       133
       130        91        94
        10        94        11
       324       327       326
       326        59        58
       323       324       145
       144       145       148
       163       147       148
       163       160       159
       133       132       160
       129       133       130
       130        94       128
        10        96        94
       327        59       326
       323       327       324
       144       323       145
       148       147       144
       163       159       147
       132       159       160
       132       133       129
       129       130       128
        94        96       128
        96        10         9
       327        60        59
       325       327       323
       322       323       144
       144       147       143
       159       146       147
       141       159       132
       132       129       131
       129       128       127
        96       126       128
         9        95        96
       327       325        60
       325       323       322
       144       143       322
       147       146       143
       159       141       146
       131       141       132
       129       127       131
       126       127       128
        96        95       126
         9         8        95
       325        61        60
       325       322        81
       322       143        88
       146       142       143
       146       141       140
       138       141       131
       131       127       125
       127       126       124
        95       123       126
         8        92        95
       325        81        61
        81       322        88
        88       143       142
       146       140       142
       141       138       140
       131       125       138
       127       124       125
       123       124       126
        95        92       123
         8         7        92
        81        62        61
        88        82        81
        88       142        89
       140       139       142
       140       138       137
       125       135       138
       122       125       124
       121       124       123
        92       120       123
        92         7        97
        82        62        81
        88        89        82
       139        89       142
       140       137       139
       138       135       137
       135       125       122
       122       124       121
       123       120       121
        97       120        92
         7         6        97
        82        63        62
        89        83        82
        87        89       139
       137       136       139
       137       135       111
       135       122       112
       122       121       119
       118       121       120
        97       117       120
        97         6        98
        83        63        82
        87        83        89
       136        87       139
       137       111       136
       111       135       112
       112       122       119
       119       121       118
       118       120       117
        98       117        97
         6         5        98
        64        63        83
        80        83        87
        86        87       136
       111       110       136
       112       109       111
       112       119       107
       116       119       118
       115       118       117
        98       114       117
        98         5        40
        64        83        80
        86        80        87
       110        86       136
       109       110       111
       112       107       109
       107       119       116
       116       118       115
       115       117       114
        39       114        98
        40         5         1
        39        98        40
        65        64        80