TITLE = "Visualization of the volumetric solution"
VARIABLES = "x","y","Density","Momentum_x","Momentum_y","Energy","Pressure","Temperature","Mach","C<sub>p</sub>","Roe_Dissipation"
ZONE NODES= 4190, ELEMENTS= 8110, DATAPACKING=POINT, ZONETYPE=FEQUADRILATERAL
4.569681e-02	1.501471e-03	1.229475e+00	4.489658e+01	-4.472709e+00	2.554151e+05	1.018349e+05	2.885407e+02	1.077669e-01	4.253735e-01	0.000000e+00	
4.733293e-02	1.295452e-03	1.229484e+00	4.490009e+01	-4.476418e+00	2.554168e+05	1.018355e+05	2.885404e+02	1.077754e-01	4.259025e-01	0.000000e+00	
4.569681e-02	3.002941e-03	1.229485e+00	4.490085e+01	-4.476621e+00	2.554165e+05	1.018354e+05	2.885398e+02	1.077773e-01	4.257995e-01	0.000000e+00	
4.758073e-02	2.841942e-03	1.229484e+00	4.489847e+01	-4.475415e+00	2.554163e+05	1.018354e+05	2.885400e+02	1.077714e-01	4.257676e-01	0.000000e+00	
4.910887e-02	1.148279e-03	1.229483e+00	4.490020e+01	-4.477428e+00	2.554164e+05	1.018353e+05	2.885403e+02	1.077761e-01	4.257522e-01	0.000000e+00	
4.657002e-02	4.421019e-03	1.229483e+00	4.490061e+01	-4.472212e+00	2.554161e+05	1.018352e+05	2.885398e+02	1.077759e-01	4.256532e-01	0.000000e+00	
4.843750e-02	4.294370e-03	1.229486e+00	4.489701e+01	-4.473980e+00	2.554167e+05	1.018355e+05	2.885400e+02	1.077674e-01	4.259057e-01	0.000000e+00	
4.569681e-02	4.504412e-03	1.229485e+00	4.490319e+01	-4.469587e+00	2.554164e+05	1.018353e+05	2.885397e+02	1.077812e-01	4.257512e-01	0.000000e+00	
4.954481e-02	2.741447e-03	1.229486e+00	4.489632e+01	-4.476670e+00	2.554168e+05	1.018356e+05	2.885402e+02	1.077664e-01	4.259391e-01	0.000000e+00	
5.072780e-02	1.124660e-03	1.229485e+00	4.489819e+01	-4.478817e+00	2.554168e+05	1.018355e+05	2.885403e+02	1.077715e-01	4.259143e-01	0.000000e+00	
4.738093e-02	5.790379e-03	1.229486e+00	4.489895e+01	-4.470855e+00	2.554167e+05	1.018355e+05	2.885400e+02	1.077713e-01	4.258825e-01	0.000000e+00	
4.569681e-02	6.005882e-03	1.229486e+00	4.490222e+01	-4.467120e+00	2.554167e+05	1.018355e+05	2.885399e+02	1.077782e-01	4.258644e-01	0.000000e+00	
5.020692e-02	4.230977e-03	1.229486e+00	4.489512e+01	-4.475354e+00	2.554167e+05	1.018355e+05	2.885401e+02	1.077633e-01	4.259218e-01	0.000000e+00	
4.929231e-02	5.674178e-03	1.229487e+00	4.489601e+01	-4.472820e+00	2.554168e+05	1.018356e+05	2.885401e+02	1.077647e-01	4.259632e-01	0.000000e+00	
5.117273e-02	2.731417e-03	1.229486e+00	4.489492e+01	-4.477448e+00	2.554167e+05	1.018356e+05	2.885402e+02	1.077633e-01	4.259353e-01	0.000000e+00	
5.218003e-02	1.180199e-03	1.229485e+00	4.489663e+01	-4.479198e+00	2.554168e+05	1.018356e+05	2.885403e+02	1.077678e-01	4.259486e-01	0.000000e+00	
4.686120e-02	7.117562e-03	1.229486e+00	4.489865e+01	-4.467316e+00	2.554168e+05	1.018356e+05	2.885401e+02	1.077697e-01	4.259416e-01	0.000000e+00	
4.851730e-02	7.046222e-03	1.229486e+00	4.489574e+01	-4.469754e+00	2.554168e+05	1.018356e+05	2.885401e+02	1.077634e-01	4.259505e-01	0.000000e+00	
5.177670e-02	4.218938e-03	1.229487e+00	4.489350e+01	-4.476554e+00	2.554169e+05	1.018356e+05	2.885402e+02	1.077596e-01	4.260088e-01	0.000000e+00	
5.096092e-02	5.626283e-03	1.229487e+00	4.489382e+01	-4.474507e+00	2.554169e+05	1.018357e+05	2.885401e+02	1.077599e-01	4.260278e-01	0.000000e+00	
4.569681e-02	7.507353e-03	1.229485e+00	4.489989e+01	-4.465314e+00	2.554167e+05	1.018355e+05	2.885401e+02	1.077723e-01	4.258738e-01	0.000000e+00	
5.017661e-02	6.989415e-03	1.229488e+00	4.489280e+01	-4.471739e+00	2.554170e+05	1.018357e+05	2.885402e+02	1.077568e-01	4.260611e-01	0.000000e+00	
5.256562e-02	2.791678e-03	1.229487e+00	4.489374e+01	-4.478159e+00	2.554169e+05	1.018357e+05	2.885402e+02	1.077606e-01	4.260144e-01	0.000000e+00	
5.319615e-02	1.509862e-03	1.229486e+00	4.489495e+01	-4.479405e+00	2.554169e+05	1.018356e+05	2.885403e+02	1.077638e-01	4.259968e-01	0.000000e+00	
4.787090e-02	8.359966e-03	1.229487e+00	4.489286e+01	-4.466016e+00	2.554169e+05	1.018357e+05	2.885402e+02	1.077556e-01	4.260313e-01	0.000000e+00	
4.667331e-02	8.333653e-03	1.229486e+00	4.489616e+01	-4.464536e+00	2.554168e+05	1.018356e+05	2.885402e+02	1.077631e-01	4.259740e-01	0.000000e+00	
4.944217e-02	8.315081e-03	1.229488e+00	4.488948e+01	-4.468508e+00	2.554169e+05	1.018357e+05	2.885403e+02	1.077481e-01	4.260872e-01	0.000000e+00	
5.419501e-02	1.182631e-03	1.229486e+00	4.489479e+01	-4.480096e+00	2.554170e+05	1.018357e+05	2.885404e+02	1.077635e-01	4.260218e-01	0.000000e+00	
5.320975e-02	4.213305e-03	1.229487e+00	4.489241e+01	-4.477439e+00	2.554169e+05	1.018357e+05	2.885402e+02	1.077572e-01	4.260372e-01	0.000000e+00	
5.249371e-02	5.602531e-03	1.229488e+00	4.489207e+01	-4.475702e+00	2.554170e+05	1.018357e+05	2.885402e+02	1.077560e-01	4.260591e-01	0.000000e+00	
5.175034e-02	6.952956e-03	1.229488e+00	4.489056e+01	-4.473379e+00	2.554170e+05	1.018357e+05	2.885402e+02	1.077518e-01	4.260788e-01	0.000000e+00	
4.569681e-02	9.008824e-03	1.229486e+00	4.489621e+01	-4.461895e+00	2.554168e+05	1.018356e+05	2.885401e+02	1.077626e-01	4.259748e-01	0.000000e+00	
5.101316e-02	8.273093e-03	1.229488e+00	4.488689e+01	-4.470579e+00	2.554170e+05	1.018358e+05	2.885403e+02	1.077424e-01	4.261260e-01	0.000000e+00	
5.382342e-02	2.781976e-03	1.229487e+00	4.489289e+01	-4.478780e+00	2.554169e+05	1.018357e+05	2.885403e+02	1.077587e-01	4.260213e-01	0.000000e+00	
4.695514e-02	9.711521e-03	1.229487e+00	4.488792e+01	-4.460642e+00	2.554167e+05	1.018357e+05	2.885403e+02	1.077426e-01	4.260471e-01	0.000000e+00	
4.870349e-02	9.629457e-03	1.229488e+00	4.488374e+01	-4.464407e+00	2.554170e+05	1.018358e+05	2.885403e+02	1.077334e-01	4.261738e-01	0.000000e+00	
5.028411e-02	9.576778e-03	1.229488e+00	4.488164e+01	-4.467633e+00	2.554169e+05	1.018358e+05	2.885404e+02	1.077292e-01	4.261677e-01	0.000000e+00	
5.513486e-02	2.696156e-03	1.229487e+00	4.489210e+01	-4.479441e+00	2.554170e+05	1.018357e+05	2.885403e+02	1.077569e-01	4.260662e-01	0.000000e+00	
5.558173e-02	1.122176e-03	1.229487e+00	4.489383e+01	-4.480623e+00	2.554171e+05	1.018357e+05	2.885404e+02	1.077614e-01	4.260598e-01	0.000000e+00	
5.395376e-02	5.579038e-03	1.229488e+00	4.489057e+01	-4.476696e+00	2.554170e+05	1.018358e+05	2.885402e+02	1.077526e-01	4.260981e-01	0.000000e+00	
5.459643e-02	4.180964e-03	1.229488e+00	4.489134e+01	-4.478237e+00	2.554170e+05	1.018357e+05	2.885402e+02	1.077548e-01	4.260814e-01	0.000000e+00	
5.325495e-02	6.925640e-03	1.229488e+00	4.488859e+01	-4.474703e+00	2.554170e+05	1.018358e+05	2.885403e+02	1.077474e-01	4.261220e-01	0.000000e+00	
5.253642e-02	8.240688e-03	1.229488e+00	4.488493e+01	-4.472416e+00	2.554170e+05	1.018358e+05	2.885403e+02	1.077381e-01	4.261534e-01	0.000000e+00	
4.569681e-02	1.051029e-02	1.229487e+00	4.488843e+01	-4.454640e+00	2.554168e+05	1.018357e+05	2.885402e+02	1.077423e-01	4.260644e-01	0.000000e+00	
5.181432e-02	9.538670e-03	1.229489e+00	4.488041e+01	-4.470215e+00	2.554170e+05	1.018359e+05	2.885404e+02	1.077268e-01	4.262029e-01	0.000000e+00	
4.802778e-02	1.094344e-02	1.229489e+00	4.487713e+01	-4.460620e+00	2.554168e+05	1.018359e+05	2.885404e+02	1.077167e-01	4.262087e-01	0.000000e+00	
4.956289e-02	1.087395e-02	1.229489e+00	4.487689e+01	-4.465175e+00	2.554170e+05	1.018359e+05	2.885405e+02	1.077172e-01	4.262572e-01	0.000000e+00	
4.677227e-02	1.110944e-02	1.229487e+00	4.487871e+01	-4.454870e+00	2.554165e+05	1.018357e+05	2.885404e+02	1.077193e-01	4.260774e-01	0.000000e+00	
5.109160e-02	1.082921e-02	1.229489e+00	4.487759e+01	-4.468868e+00	2.554170e+05	1.018359e+05	2.885404e+02	1.077197e-01	4.262590e-01	0.000000e+00	
5.600610e-02	4.139899e-03	1.229488e+00	4.489039e+01	-4.478871e+00	2.554171e+05	1.018358e+05	2.885403e+02	1.077527e-01	4.261047e-01	0.000000e+00	
5.655040e-02	2.655430e-03	1.229487e+00	4.489131e+01	-4.479977e+00	2.554171e+05	1.018357e+05	2.885403e+02	1.077551e-01	4.260947e-01	0.000000e+00	
5.704847e-02	1.112254e-03	1.229487e+00	4.489294e+01	-4.480947e+00	2.554171e+05	1.018357e+05	2.885404e+02	1.077593e-01	4.260903e-01	0.000000e+00	
5.539296e-02	5.549468e-03	1.229488e+00	4.488925e+01	-4.477487e+00	2.554171e+05	1.018358e+05	2.885403e+02	1.077496e-01	4.261206e-01	0.000000e+00	
5.472337e-02	6.899421e-03	1.229488e+00	4.488699e+01	-4.475763e+00	2.554170e+05	1.018358e+05	2.885403e+02	1.077438e-01	4.261405e-01	0.000000e+00	
5.402311e-02	8.213349e-03	1.229488e+00	4.488347e+01	-4.473885e+00	2.554170e+05	1.018358e+05	2.885403e+02	1.077350e-01	4.261703e-01	0.000000e+00	
5.331052e-02	9.508645e-03	1.229489e+00	4.487988e+01	-4.472303e+00	2.554170e+05	1.018359e+05	2.885404e+02	1.077260e-01	4.262060e-01	0.000000e+00	
4.569681e-02	1.201176e-02	1.229486e+00	4.487597e+01	-4.445639e+00	2.554162e+05	1.018357e+05	2.885404e+02	1.077107e-01	4.260233e-01	0.000000e+00	
5.259324e-02	1.079580e-02	1.229489e+00	4.487876e+01	-4.471627e+00	2.554171e+05	1.018359e+05	2.885404e+02	1.077232e-01	4.262589e-01	0.000000e+00	
4.883436e-02	1.216020e-02	1.229490e+00	4.487691e+01	-4.464358e+00	2.554172e+05	1.018360e+05	2.885405e+02	1.077170e-01	4.263395e-01	0.000000e+00	
4.727646e-02	1.218850e-02	1.229492e+00	4.487415e+01	-4.457527e+00	2.554174e+05	1.018362e+05	2.885405e+02	1.077086e-01	4.264569e-01	0.000000e+00	
5.036395e-02	1.211647e-02	1.229491e+00	4.488001e+01	-4.469025e+00	2.554174e+05	1.018361e+05	2.885405e+02	1.077254e-01	4.263545e-01	0.000000e+00	
5.187132e-02	1.208014e-02	1.229490e+00	4.488332e+01	-4.472402e+00	2.554174e+05	1.018360e+05	2.885404e+02	1.077341e-01	4.263188e-01	0.000000e+00	
5.683935e-02	5.520308e-03	1.229488e+00	4.488803e+01	-4.478149e+00	2.554171e+05	1.018358e+05	2.885403e+02	1.077468e-01	4.261454e-01	0.000000e+00	
5.745047e-02	4.111238e-03	1.229488e+00	4.488944e+01	-4.479398e+00	2.554171e+05	1.018358e+05	2.885403e+02	1.077505e-01	4.261311e-01	0.000000e+00	
5.801104e-02	2.638046e-03	1.229488e+00	4.489054e+01	-4.480399e+00	2.554171e+05	1.018358e+05	2.885404e+02	1.077534e-01	4.261242e-01	0.000000e+00	
5.853604e-02	1.114943e-03	1.229487e+00	4.489217e+01	-4.481233e+00	2.554172e+05	1.018358e+05	2.885404e+02	1.077575e-01	4.261171e-01	0.000000e+00	
5.618128e-02	6.872814e-03	1.229489e+00	4.488562e+01	-4.476644e+00	2.554171e+05	1.018358e+05	2.885403e+02	1.077407e-01	4.261627e-01	0.000000e+00	
5.549185e-02	8.187624e-03	1.229489e+00	4.488238e+01	-4.475118e+00	2.554170e+05	1.018359e+05	2.885404e+02	1.077327e-01	4.261858e-01	0.000000e+00	
5.478658e-02	9.482308e-03	1.229489e+00	4.487973e+01	-4.473999e+00	2.554170e+05	1.018359e+05	2.885404e+02	1.077261e-01	4.262174e-01	0.000000e+00	
5.407451e-02	1.076806e-02	1.229489e+00	4.488020e+01	-4.473820e+00	2.554171e+05	1.018359e+05	2.885404e+02	1.077271e-01	4.262564e-01	0.000000e+00	
4.658518e-02	1.351172e-02	1.229496e+00	4.487623e+01	-4.455127e+00	2.554186e+05	1.018366e+05	2.885408e+02	1.077126e-01	4.268193e-01	0.000000e+00	
5.335843e-02	1.205057e-02	1.229490e+00	4.488643e+01	-4.474917e+00	2.554175e+05	1.018360e+05	2.885404e+02	1.077421e-01	4.263079e-01	0.000000e+00	
4.962332e-02	1.340528e-02	1.229492e+00	4.489038e+01	-4.470959e+00	2.554181e+05	1.018362e+05	2.885405e+02	1.077504e-01	4.264678e-01	0.000000e+00	
4.808977e-02	1.345115e-02	1.229492e+00	4.488439e+01	-4.465130e+00	2.554181e+05	1.018363e+05	2.885406e+02	1.077347e-01	4.265298e-01	0.000000e+00	
5.114024e-02	1.336474e-02	1.229491e+00	4.489542e+01	-4.474607e+00	2.554181e+05	1.018361e+05	2.885405e+02	1.077633e-01	4.264068e-01	0.000000e+00	
4.569681e-02	1.351324e-02	1.229491e+00	4.487220e+01	-4.442304e+00	2.554172e+05	1.018361e+05	2.885407e+02	1.077005e-01	4.264226e-01	0.000000e+00	
5.263677e-02	1.333241e-02	1.229491e+00	4.489966e+01	-4.477181e+00	2.554182e+05	1.018361e+05	2.885404e+02	1.077740e-01	4.263679e-01	0.000000e+00	
5.764065e-02	6.847394e-03	1.229489e+00	4.488445e+01	-4.477369e+00	2.554171e+05	1.018358e+05	2.885403e+02	1.077381e-01	4.261774e-01	0.000000e+00	
5.829754e-02	5.495833e-03	1.229489e+00	4.488691e+01	-4.478681e+00	2.554171e+05	1.018358e+05	2.885403e+02	1.077443e-01	4.261640e-01	0.000000e+00	
5.891439e-02	4.092071e-03	1.229488e+00	4.488855e+01	-4.479809e+00	2.554171e+05	1.018358e+05	2.885403e+02	1.077485e-01	4.261522e-01	0.000000e+00	
5.948818e-02	2.629996e-03	1.229488e+00	4.488982e+01	-4.480722e+00	2.554172e+05	1.018358e+05	2.885404e+02	1.077517e-01	4.261484e-01	0.000000e+00	
6.002962e-02	1.121366e-03	1.229488e+00	4.489147e+01	-4.481456e+00	2.554172e+05	1.018358e+05	2.885404e+02	1.077558e-01	4.261439e-01	0.000000e+00	
5.695520e-02	8.162565e-03	1.229489e+00	4.488160e+01	-4.476138e+00	2.554170e+05	1.018359e+05	2.885404e+02	1.077310e-01	4.261971e-01	0.000000e+00	
5.625369e-02	9.457341e-03	1.229489e+00	4.487991e+01	-4.475391e+00	2.554170e+05	1.018359e+05	2.885404e+02	1.077268e-01	4.262218e-01	0.000000e+00	
5.554478e-02	1.074273e-02	1.229489e+00	4.488176e+01	-4.475557e+00	2.554172e+05	1.018359e+05	2.885404e+02	1.077312e-01	4.262542e-01	0.000000e+00	
5.483239e-02	1.202454e-02	1.229490e+00	4.488937e+01	-4.476856e+00	2.554176e+05	1.018360e+05	2.885404e+02	1.077495e-01	4.262924e-01	0.000000e+00	
4.730874e-02	1.475414e-02	1.229496e+00	4.489948e+01	-4.470777e+00	2.554194e+05	1.018366e+05	2.885408e+02	1.077716e-01	4.267904e-01	0.000000e+00	
4.569681e-02	1.501471e-02	1.229493e+00	4.488603e+01	-4.463124e+00	2.554187e+05	1.018365e+05	2.885412e+02	1.077380e-01	4.267336e-01	0.000000e+00	
5.411691e-02	1.330525e-02	1.229491e+00	4.490333e+01	-4.479063e+00	2.554182e+05	1.018360e+05	2.885404e+02	1.077832e-01	4.263401e-01	0.000000e+00	
5.039244e-02	1.465288e-02	1.229493e+00	4.491382e+01	-4.477879e+00	2.554191e+05	1.018362e+05	2.885405e+02	1.078077e-01	4.264995e-01	0.000000e+00	
4.886200e-02	1.470553e-02	1.229494e+00	4.490817e+01	-4.474827e+00	2.554192e+05	1.018364e+05	2.885406e+02	1.077934e-01	4.266103e-01	0.000000e+00	
5.190522e-02	1.461492e-02	1.229492e+00	4.491805e+01	-4.479968e+00	2.554191e+05	1.018362e+05	2.885404e+02	1.078183e-01	4.264411e-01	0.000000e+00	
5.339650e-02	1.458578e-02	1.229492e+00	4.492149e+01	-4.481551e+00	2.554191e+05	1.018361e+05	2.885404e+02	1.078269e-01	4.263912e-01	0.000000e+00	
5.841839e-02	8.138234e-03	1.229489e+00	4.488106e+01	-4.476997e+00	2.554170e+05	1.018359e+05	2.885404e+02	1.077299e-01	4.262081e-01	0.000000e+00	
5.910364e-02	6.823825e-03	1.229489e+00	4.488346e+01	-4.477974e+00	2.554171e+05	1.018359e+05	2.885403e+02	1.077359e-01	4.261922e-01	0.000000e+00	
5.976303e-02	5.475058e-03	1.229489e+00	4.488588e+01	-4.479110e+00	2.554171e+05	1.018359e+05	2.885403e+02	1.077419e-01	4.261815e-01	0.000000e+00	
6.038647e-02	4.077517e-03	1.229488e+00	4.488769e+01	-4.480129e+00	2.554172e+05	1.018358e+05	2.885404e+02	1.077465e-01	4.261715e-01	0.000000e+00	
6.097074e-02	2.625297e-03	1.229488e+00	4.488915e+01	-4.480967e+00	2.554172e+05	1.018358e+05	2.885404e+02	1.077502e-01	4.261688e-01	0.000000e+00	
6.152489e-02	1.128904e-03	1.229488e+00	4.489087e+01	-4.481622e+00	2.554173e+05	1.018358e+05	2.885405e+02	1.077544e-01	4.261637e-01	0.000000e+00	
5.771807e-02	9.432921e-03	1.229489e+00	4.488031e+01	-4.476546e+00	2.554171e+05	1.018359e+05	2.885404e+02	1.077280e-01	4.262282e-01	0.000000e+00	
5.701052e-02	1.071825e-02	1.229489e+00	4.488340e+01	-4.476972e+00	2.554172e+05	1.018359e+05	2.885404e+02	1.077354e-01	4.262534e-01	0.000000e+00	
5.629986e-02	1.199989e-02	1.229490e+00	4.489210e+01	-4.478385e+00	2.554177e+05	1.018360e+05	2.885404e+02	1.077564e-01	4.262843e-01	0.000000e+00	
5.558744e-02	1.328028e-02	1.229491e+00	4.490654e+01	-4.480516e+00	2.554183e+05	1.018360e+05	2.885404e+02	1.077912e-01	4.263200e-01	0.000000e+00	
4.809171e-02	1.604425e-02	1.229495e+00	4.492971e+01	-4.479680e+00	2.554203e+05	1.018365e+05	2.885406e+02	1.078456e-01	4.267203e-01	0.000000e+00	
4.686796e-02	1.601423e-02	1.229504e+00	4.492337e+01	-4.480395e+00	2.554220e+05	1.018372e+05	2.885408e+02	1.078299e-01	4.273338e-01	0.000000e+00	
5.487285e-02	1.456031e-02	1.229491e+00	4.492432e+01	-4.482750e+00	2.554191e+05	1.018361e+05	2.885403e+02	1.078339e-01	4.263608e-01	0.000000e+00	
5.115748e-02	1.589796e-02	1.229493e+00	4.493655e+01	-4.482458e+00	2.554200e+05	1.018362e+05	2.885405e+02	1.078628e-01	4.265088e-01	0.000000e+00	
4.961480e-02	1.594641e-02	1.229495e+00	4.493327e+01	-4.481113e+00	2.554203e+05	1.018364e+05	2.885405e+02	1.078545e-01	4.266484e-01	0.000000e+00	
5.266823e-02	1.586613e-02	1.229492e+00	4.493896e+01	-4.483563e+00	2.554199e+05	1.018362e+05	2.885404e+02	1.078688e-01	4.264525e-01	0.000000e+00	
4.569681e-02	1.651618e-02	1.229516e+00	4.492671e+01	-4.482995e+00	2.554249e+05	1.018384e+05	2.885410e+02	1.078373e-01	4.282815e-01	0.000000e+00	
5.415482e-02	1.584011e-02	1.229492e+00	4.494088e+01	-4.484464e+00	2.554198e+05	1.018361e+05	2.885404e+02	1.078736e-01	4.264025e-01	0.000000e+00	
5.988247e-02	8.114565e-03	1.229489e+00	4.488073e+01	-4.477717e+00	2.554170e+05	1.018359e+05	2.885404e+02	1.077293e-01	4.262174e-01	0.000000e+00	
5.918207e-02	9.408820e-03	1.229489e+00	4.488088e+01	-4.477511e+00	2.554171e+05	1.018359e+05	2.885404e+02	1.077296e-01	4.262331e-01	0.000000e+00	
6.056894e-02	6.801565e-03	1.229489e+00	4.488263e+01	-4.478474e+00	2.554171e+05	1.018359e+05	2.885404e+02	1.077340e-01	4.262045e-01	0.000000e+00	
6.123166e-02	5.456141e-03	1.229489e+00	4.488494e+01	-4.479451e+00	2.554171e+05	1.018359e+05	2.885403e+02	1.077398e-01	4.261965e-01	0.000000e+00	
6.186133e-02	4.064727e-03	1.229489e+00	4.488688e+01	-4.480372e+00	2.554172e+05	1.018359e+05	2.885404e+02	1.077446e-01	4.261888e-01	0.000000e+00	
6.245485e-02	2.621637e-03	1.229488e+00	4.488850e+01	-4.481147e+00	2.554173e+05	1.018359e+05	2.885404e+02	1.077486e-01	4.261877e-01	0.000000e+00	
6.302058e-02	1.136721e-03	1.229488e+00	4.489030e+01	-4.481748e+00	2.554173e+05	1.018359e+05	2.885405e+02	1.077531e-01	4.261844e-01	0.000000e+00	
5.847487e-02	1.069405e-02	1.229489e+00	4.488506e+01	-4.478132e+00	2.554173e+05	1.018359e+05	2.885404e+02	1.077397e-01	4.262534e-01	0.000000e+00	
5.776483e-02	1.197565e-02	1.229490e+00	4.489466e+01	-4.479615e+00	2.554177e+05	1.018360e+05	2.885404e+02	1.077628e-01	4.262773e-01	0.000000e+00	
5.705359e-02	1.325599e-02	1.229490e+00	4.490940e+01	-4.481657e+00	2.554184e+05	1.018360e+05	2.885403e+02	1.077983e-01	4.263057e-01	0.000000e+00	
5.634145e-02	1.453596e-02	1.229491e+00	4.492673e+01	-4.483696e+00	2.554191e+05	1.018360e+05	2.885403e+02	1.078399e-01	4.263367e-01	0.000000e+00	
4.737633e-02	1.729631e-02	1.229493e+00	4.494201e+01	-4.483147e+00	2.554206e+05	1.018364e+05	2.885408e+02	1.078758e-01	4.266347e-01	0.000000e+00	
4.874549e-02	1.722151e-02	1.229495e+00	4.494547e+01	-4.483812e+00	2.554209e+05	1.018365e+05	2.885407e+02	1.078841e-01	4.267159e-01	0.000000e+00	
5.562798e-02	1.581575e-02	1.229491e+00	4.494242e+01	-4.485188e+00	2.554198e+05	1.018361e+05	2.885403e+02	1.078775e-01	4.263704e-01	0.000000e+00	
5.193010e-02	1.714490e-02	1.229493e+00	4.495009e+01	-4.484853e+00	2.554205e+05	1.018362e+05	2.885405e+02	1.078955e-01	4.265011e-01	0.000000e+00	
5.038687e-02	1.717545e-02	1.229494e+00	4.494833e+01	-4.484215e+00	2.554206e+05	1.018363e+05	2.885406e+02	1.078911e-01	4.265815e-01	0.000000e+00	
5.343214e-02	1.711941e-02	1.229492e+00	4.495131e+01	-4.485436e+00	2.554203e+05	1.018362e+05	2.885404e+02	1.078986e-01	4.264437e-01	0.000000e+00	
4.569681e-02	1.801765e-02	1.229497e+00	4.493701e+01	-4.487812e+00	2.554215e+05	1.018368e+05	2.885413e+02	1.078646e-01	4.270125e-01	0.000000e+00	
5.491257e-02	1.709536e-02	1.229492e+00	4.495218e+01	-4.485970e+00	2.554202e+05	1.018361e+05	2.885404e+02	1.079009e-01	4.264025e-01	0.000000e+00	
6.134717e-02	8.091297e-03	1.229489e+00	4.488058e+01	-4.478326e+00	2.554171e+05	1.018359e+05	2.885404e+02	1.077291e-01	4.262263e-01	0.000000e+00	
6.064621e-02	9.384922e-03	1.229489e+00	4.488159e+01	-4.478322e+00	2.554171e+05	1.018359e+05	2.885404e+02	1.077315e-01	4.262387e-01	0.000000e+00	
5.993893e-02	1.066996e-02	1.229489e+00	4.488674e+01	-4.479094e+00	2.554174e+05	1.018359e+05	2.885404e+02	1.077439e-01	4.262546e-01	0.000000e+00	
6.203522e-02	6.779928e-03	1.229489e+00	4.488195e+01	-4.478890e+00	2.554171e+05	1.018359e+05	2.885404e+02	1.077325e-01	4.262161e-01	0.000000e+00	
6.270134e-02	5.437921e-03	1.229489e+00	4.488410e+01	-4.479722e+00	2.554172e+05	1.018359e+05	2.885404e+02	1.077378e-01	4.262100e-01	0.000000e+00	
6.333696e-02	4.052467e-03	1.229489e+00	4.488611e+01	-4.480553e+00	2.554172e+05	1.018359e+05	2.885404e+02	1.077428e-01	4.262037e-01	0.000000e+00	
6.393932e-02	2.618217e-03	1.229489e+00	4.488789e+01	-4.481273e+00	2.554173e+05	1.018359e+05	2.885404e+02	1.077472e-01	4.262036e-01	0.000000e+00	
6.451634e-02	1.144557e-03	1.229488e+00	4.488977e+01	-4.481829e+00	2.554173e+05	1.018359e+05	2.885405e+02	1.077518e-01	4.262006e-01	0.000000e+00	
5.922903e-02	1.195151e-02	1.229490e+00	4.489707e+01	-4.480618e+00	2.554178e+05	1.018360e+05	2.885404e+02	1.077688e-01	4.262736e-01	0.000000e+00	
5.851816e-02	1.323185e-02	1.229490e+00	4.491196e+01	-4.482576e+00	2.554184e+05	1.018360e+05	2.885403e+02	1.078046e-01	4.262956e-01	0.000000e+00	
5.780685e-02	1.451183e-02	1.229491e+00	4.492882e+01	-4.484450e+00	2.554191e+05	1.018360e+05	2.885403e+02	1.078451e-01	4.263202e-01	0.000000e+00	
5.709508e-02	1.579169e-02	1.229491e+00	4.494370e+01	-4.485776e+00	2.554198e+05	1.018361e+05	2.885403e+02	1.078807e-01	4.263461e-01	0.000000e+00	
4.808169e-02	1.840797e-02	1.229496e+00	4.494680e+01	-4.487014e+00	2.554213e+05	1.018366e+05	2.885408e+02	1.078879e-01	4.268273e-01	0.000000e+00	
4.963145e-02	1.843557e-02	1.229494e+00	4.494984e+01	-4.486021e+00	2.554209e+05	1.018364e+05	2.885407e+02	1.078950e-01	4.266379e-01	0.000000e+00	
4.684279e-02	1.861256e-02	1.229497e+00	4.494312e+01	-4.489440e+00	2.554216e+05	1.018368e+05	2.885410e+02	1.078795e-01	4.269683e-01	0.000000e+00	
5.638263e-02	1.707148e-02	1.229491e+00	4.495283e+01	-4.486422e+00	2.554202e+05	1.018361e+05	2.885404e+02	1.079025e-01	4.263719e-01	0.000000e+00	
5.270503e-02	1.839797e-02	1.229492e+00	4.495305e+01	-4.486090e+00	2.554205e+05	1.018362e+05	2.885405e+02	1.079029e-01	4.264794e-01	0.000000e+00	
5.118751e-02	1.842001e-02	1.229493e+00	4.495176e+01	-4.485881e+00	2.554207e+05	1.018363e+05	2.885406e+02	1.078997e-01	4.265461e-01	0.000000e+00	
5.419475e-02	1.837481e-02	1.229492e+00	4.495392e+01	-4.486384e+00	2.554204e+05	1.018362e+05	2.885405e+02	1.079051e-01	4.264319e-01	0.000000e+00	
4.569681e-02	1.951912e-02	1.229496e+00	4.493702e+01	-4.496533e+00	2.554210e+05	1.018366e+05	2.885409e+02	1.078669e-01	4.268426e-01	0.000000e+00	
5.566917e-02	1.835121e-02	1.229491e+00	4.495451e+01	-4.486690e+00	2.554203e+05	1.018361e+05	2.885404e+02	1.079066e-01	4.263957e-01	0.000000e+00	
6.281212e-02	8.068201e-03	1.229489e+00	4.488059e+01	-4.478842e+00	2.554171e+05	1.018359e+05	2.885404e+02	1.077292e-01	4.262345e-01	0.000000e+00	
6.211048e-02	9.361127e-03	1.229489e+00	4.488240e+01	-4.479009e+00	2.554172e+05	1.018359e+05	2.885404e+02	1.077336e-01	4.262441e-01	0.000000e+00	
6.140298e-02	1.064593e-02	1.229490e+00	4.488842e+01	-4.479899e+00	2.554175e+05	1.018359e+05	2.885404e+02	1.077481e-01	4.262567e-01	0.000000e+00	
6.069305e-02	1.192741e-02	1.229490e+00	4.489933e+01	-4.481444e+00	2.554179e+05	1.018360e+05	2.885404e+02	1.077743e-01	4.262715e-01	0.000000e+00	
6.350182e-02	6.758508e-03	1.229489e+00	4.488142e+01	-4.479235e+00	2.554171e+05	1.018359e+05	2.885404e+02	1.077313e-01	4.262267e-01	0.000000e+00	
6.417129e-02	5.419892e-03	1.229489e+00	4.488335e+01	-4.479935e+00	2.554172e+05	1.018359e+05	2.885404e+02	1.077361e-01	4.262223e-01	0.000000e+00	
6.481275e-02	4.040308e-03	1.229489e+00	4.488539e+01	-4.480683e+00	2.554172e+05	1.018359e+05	2.885404e+02	1.077411e-01	4.262177e-01	0.000000e+00	
6.542382e-02	2.614795e-03	1.229489e+00	4.488729e+01	-4.481354e+00	2.554173e+05	1.018359e+05	2.885404e+02	1.077458e-01	4.262182e-01	0.000000e+00	
6.601210e-02	1.152334e-03	1.229488e+00	4.488927e+01	-4.481879e+00	2.554174e+05	1.018359e+05	2.885405e+02	1.077506e-01	4.262166e-01	0.000000e+00	
5.998226e-02	1.320774e-02	1.229490e+00	4.491429e+01	-4.483322e+00	2.554185e+05	1.018360e+05	2.885403e+02	1.078103e-01	4.262889e-01	0.000000e+00	
5.927118e-02	1.448773e-02	1.229491e+00	4.493066e+01	-4.485058e+00	2.554192e+05	1.018360e+05	2.885403e+02	1.078496e-01	4.263081e-01	0.000000e+00	
5.855994e-02	1.576763e-02	1.229491e+00	4.494477e+01	-4.486252e+00	2.554197e+05	1.018360e+05	2.885403e+02	1.078834e-01	4.263286e-01	0.000000e+00	
5.784848e-02	1.704748e-02	1.229491e+00	4.495332e+01	-4.486801e+00	2.554201e+05	1.018361e+05	2.885403e+02	1.079038e-01	4.263492e-01	0.000000e+00	
4.888284e-02	1.970393e-02	1.229493e+00	4.494318e+01	-4.488536e+00	2.554206e+05	1.018364e+05	2.885407e+02	1.078799e-01	4.266244e-01	0.000000e+00	
4.727992e-02	1.969935e-02	1.229494e+00	4.494027e+01	-4.490913e+00	2.554206e+05	1.018364e+05	2.885408e+02	1.078735e-01	4.266702e-01	0.000000e+00	
5.044353e-02	1.969650e-02	1.229493e+00	4.494566e+01	-4.487481e+00	2.554205e+05	1.018363e+05	2.885406e+02	1.078856e-01	4.265594e-01	0.000000e+00	
5.713670e-02	1.832733e-02	1.229491e+00	4.495491e+01	-4.486970e+00	2.554202e+05	1.018361e+05	2.885404e+02	1.079076e-01	4.263686e-01	0.000000e+00	
5.347385e-02	1.965473e-02	1.229492e+00	4.494900e+01	-4.487038e+00	2.554203e+05	1.018362e+05	2.885405e+02	1.078935e-01	4.264530e-01	0.000000e+00	
5.197362e-02	1.967738e-02	1.229492e+00	4.494758e+01	-4.487116e+00	2.554204e+05	1.018362e+05	2.885406e+02	1.078901e-01	4.265014e-01	0.000000e+00	
5.495422e-02	1.963113e-02	1.229491e+00	4.495005e+01	-4.487102e+00	2.554202e+05	1.018361e+05	2.885405e+02	1.078961e-01	4.264149e-01	0.000000e+00	
4.656018e-02	2.101427e-02	1.229493e+00	4.493405e+01	-4.494461e+00	2.554201e+05	1.018363e+05	2.885407e+02	1.078596e-01	4.265830e-01	0.000000e+00	
5.642436e-02	1.960722e-02	1.229491e+00	4.495083e+01	-4.487218e+00	2.554201e+05	1.018361e+05	2.885405e+02	1.078980e-01	4.263850e-01	0.000000e+00	
6.427714e-02	8.045159e-03	1.229489e+00	4.488072e+01	-4.479282e+00	2.554171e+05	1.018359e+05	2.885404e+02	1.077296e-01	4.262426e-01	0.000000e+00	
6.357480e-02	9.337371e-03	1.229489e+00	4.488331e+01	-4.479594e+00	2.554172e+05	1.018359e+05	2.885404e+02	1.077358e-01	4.262499e-01	0.000000e+00	
6.286705e-02	1.062191e-02	1.229490e+00	4.489008e+01	-4.480577e+00	2.554175e+05	1.018359e+05	2.885404e+02	1.077522e-01	4.262596e-01	0.000000e+00	
6.215705e-02	1.190331e-02	1.229490e+00	4.490147e+01	-4.482131e+00	2.554180e+05	1.018360e+05	2.885403e+02	1.077796e-01	4.262712e-01	0.000000e+00	
6.144626e-02	1.318363e-02	1.229490e+00	4.491641e+01	-4.483934e+00	2.554186e+05	1.018360e+05	2.885403e+02	1.078155e-01	4.262848e-01	0.000000e+00	
6.496849e-02	6.737137e-03	1.229489e+00	4.488101e+01	-4.479525e+00	2.554171e+05	1.018359e+05	2.885404e+02	1.077304e-01	4.262365e-01	0.000000e+00	
6.564129e-02	5.401884e-03	1.229489e+00	4.488268e+01	-4.480103e+00	2.554172e+05	1.018359e+05	2.885404e+02	1.077345e-01	4.262336e-01	0.000000e+00	
6.628853e-02	4.028124e-03	1.229489e+00	4.488471e+01	-4.480772e+00	2.554172e+05	1.018359e+05	2.885404e+02	1.077395e-01	4.262299e-01	0.000000e+00	
6.690831e-02	2.611304e-03	1.229489e+00	4.488671e+01	-4.481400e+00	2.554173e+05	1.018359e+05	2.885405e+02	1.077444e-01	4.262320e-01	0.000000e+00	
6.750784e-02	1.160020e-03	1.229489e+00	4.488877e+01	-4.481891e+00	2.554174e+05	1.018359e+05	2.885405e+02	1.077494e-01	4.262289e-01	0.000000e+00	
6.073523e-02	1.446362e-02	1.229491e+00	4.493230e+01	-4.485553e+00	2.554192e+05	1.018360e+05	2.885403e+02	1.078536e-01	4.262999e-01	0.000000e+00	
6.002411e-02	1.574352e-02	1.229491e+00	4.494570e+01	-4.486638e+00	2.554197e+05	1.018360e+05	2.885403e+02	1.078857e-01	4.263160e-01	0.000000e+00	
5.931294e-02	1.702341e-02	1.229491e+00	4.495369e+01	-4.487113e+00	2.554201e+05	1.018360e+05	2.885403e+02	1.079048e-01	4.263324e-01	0.000000e+00	
5.860168e-02	1.830329e-02	1.229491e+00	4.495518e+01	-4.487215e+00	2.554202e+05	1.018361e+05	2.885404e+02	1.079083e-01	4.263480e-01	0.000000e+00	
4.968763e-02	2.098673e-02	1.229493e+00	4.493743e+01	-4.489836e+00	2.554202e+05	1.018363e+05	2.885406e+02	1.078666e-01	4.265622e-01	0.000000e+00	
4.811022e-02	2.100591e-02	1.229494e+00	4.493505e+01	-4.491708e+00	2.554204e+05	1.018364e+05	2.885407e+02	1.078612e-01	4.266720e-01	0.000000e+00	
5.123389e-02	2.096216e-02	1.229492e+00	4.493958e+01	-4.488842e+00	2.554201e+05	1.018363e+05	2.885406e+02	1.078715e-01	4.265190e-01	0.000000e+00	
4.569681e-02	2.102059e-02	1.229496e+00	4.493449e+01	-4.497448e+00	2.554207e+05	1.018365e+05	2.885406e+02	1.078611e-01	4.267473e-01	0.000000e+00	
5.789025e-02	1.958318e-02	1.229491e+00	4.495140e+01	-4.487349e+00	2.554201e+05	1.018361e+05	2.885404e+02	1.078994e-01	4.263617e-01	0.000000e+00	
5.423666e-02	2.091183e-02	1.229491e+00	4.494305e+01	-4.488024e+00	2.554200e+05	1.018361e+05	2.885405e+02	1.078796e-01	4.264290e-01	0.000000e+00	
5.274776e-02	2.093676e-02	1.229492e+00	4.494150e+01	-4.488295e+00	2.554200e+05	1.018362e+05	2.885406e+02	1.078760e-01	4.264662e-01	0.000000e+00	
5.571096e-02	2.088737e-02	1.229491e+00	4.494432e+01	-4.487892e+00	2.554199e+05	1.018361e+05	2.885405e+02	1.078827e-01	4.263972e-01	0.000000e+00	
4.728637e-02	2.233563e-02	1.229493e+00	4.492983e+01	-4.493958e+00	2.554200e+05	1.018363e+05	2.885407e+02	1.078495e-01	4.265750e-01	0.000000e+00	
4.569681e-02	2.252206e-02	1.229491e+00	4.492921e+01	-4.495441e+00	2.554195e+05	1.018361e+05	2.885406e+02	1.078485e-01	4.264284e-01	0.000000e+00	
5.717847e-02	2.086314e-02	1.229491e+00	4.494534e+01	-4.487840e+00	2.554199e+05	1.018361e+05	2.885405e+02	1.078851e-01	4.263724e-01	0.000000e+00	
6.574217e-02	8.022124e-03	1.229489e+00	4.488098e+01	-4.479659e+00	2.554172e+05	1.018359e+05	2.885404e+02	1.077303e-01	4.262504e-01	0.000000e+00	
6.503913e-02	9.313625e-03	1.229489e+00	4.488428e+01	-4.480095e+00	2.554173e+05	1.018359e+05	2.885404e+02	1.077383e-01	4.262558e-01	0.000000e+00	
6.433112e-02	1.059790e-02	1.229490e+00	4.489173e+01	-4.481153e+00	2.554176e+05	1.018360e+05	2.885404e+02	1.077562e-01	4.262633e-01	0.000000e+00	
6.362104e-02	1.187922e-02	1.229490e+00	4.490351e+01	-4.482706e+00	2.554181e+05	1.018360e+05	2.885403e+02	1.077846e-01	4.262721e-01	0.000000e+00	
6.291024e-02	1.315951e-02	1.229490e+00	4.491838e+01	-4.484440e+00	2.554186e+05	1.018360e+05	2.885403e+02	1.078203e-01	4.262827e-01	0.000000e+00	
6.219921e-02	1.443950e-02	1.229490e+00	4.493377e+01	-4.485956e+00	2.554192e+05	1.018360e+05	2.885403e+02	1.078572e-01	4.262944e-01	0.000000e+00	
6.643516e-02	6.715762e-03	1.229489e+00	4.488071e+01	-4.479768e+00	2.554171e+05	1.018359e+05	2.885404e+02	1.077297e-01	4.262459e-01	0.000000e+00	