TITLE = "Visualization of the volumetric solution"
VARIABLES = "x","y","Density","Momentum_x","Momentum_y","Energy","Pressure","Temperature","Mach","C<sub>p</sub>","Roe_Dissipation"
ZONE NODES= 4176, ELEMENTS= 8082, DATAPACKING=POINT, ZONETYPE=FEQUADRILATERAL
-1.500000e-01	1.501471e-03	1.228363e+00	4.492106e+01	1.431628e-06	2.550845e+05	1.017052e+05	2.884344e+02	1.074116e-01	3.172213e-01	0.000000e+00	
-1.480624e-01	1.310814e-03	1.228362e+00	4.492106e+01	6.548782e-06	2.550845e+05	1.017052e+05	2.884344e+02	1.074116e-01	3.172118e-01	0.000000e+00	
-1.487328e-01	2.580410e-03	1.228362e+00	4.492105e+01	5.938494e-06	2.550845e+05	1.017052e+05	2.884344e+02	1.074115e-01	3.172148e-01	0.000000e+00	
-1.500000e-01	3.002941e-03	1.228363e+00	4.492104e+01	9.533583e-07	2.550845e+05	1.017052e+05	2.884344e+02	1.074115e-01	3.172213e-01	0.000000e+00	
-1.471595e-01	2.535387e-03	1.228362e+00	4.492105e+01	1.046739e-05	2.550845e+05	1.017052e+05	2.884344e+02	1.074116e-01	3.172091e-01	0.000000e+00	
-1.463455e-01	1.262086e-03	1.228362e+00	4.492105e+01	8.806916e-06	2.550844e+05	1.017052e+05	2.884344e+02	1.074115e-01	3.172058e-01	0.000000e+00	
-1.490702e-01	3.754575e-03	1.228362e+00	4.492105e+01	5.195039e-06	2.550845e+05	1.017052e+05	2.884344e+02	1.074115e-01	3.172161e-01	0.000000e+00	
-1.478765e-01	3.764208e-03	1.228362e+00	4.492105e+01	9.593730e-06	2.550845e+05	1.017052e+05	2.884344e+02	1.074115e-01	3.172115e-01	0.000000e+00	
-1.500000e-01	4.504412e-03	1.228363e+00	4.492105e+01	1.018463e-06	2.550845e+05	1.017052e+05	2.884344e+02	1.074115e-01	3.172212e-01	0.000000e+00	
-1.455895e-01	2.524707e-03	1.228362e+00	4.492105e+01	1.395465e-05	2.550844e+05	1.017052e+05	2.884344e+02	1.074116e-01	3.172027e-01	0.000000e+00	
-1.463810e-01	3.773852e-03	1.228362e+00	4.492105e+01	1.201849e-05	2.550844e+05	1.017052e+05	2.884344e+02	1.074116e-01	3.172054e-01	0.000000e+00	
-1.447966e-01	1.260208e-03	1.228362e+00	4.492104e+01	1.026524e-05	2.550844e+05	1.017052e+05	2.884344e+02	1.074115e-01	3.171995e-01	0.000000e+00	
-1.487748e-01	4.940772e-03	1.228362e+00	4.492105e+01	5.888293e-06	2.550845e+05	1.017052e+05	2.884344e+02	1.074116e-01	3.172146e-01	0.000000e+00	
-1.472336e-01	5.000025e-03	1.228362e+00	4.492106e+01	7.732875e-06	2.550845e+05	1.017052e+05	2.884344e+02	1.074116e-01	3.172090e-01	0.000000e+00	
-1.500000e-01	6.005882e-03	1.228363e+00	4.492106e+01	3.906204e-06	2.550845e+05	1.017052e+05	2.884344e+02	1.074116e-01	3.172209e-01	0.000000e+00	
-1.448422e-01	3.782243e-03	1.228362e+00	4.492106e+01	1.253364e-05	2.550844e+05	1.017052e+05	2.884344e+02	1.074116e-01	3.171997e-01	0.000000e+00	
-1.440625e-01	2.530366e-03	1.228362e+00	4.492105e+01	1.361743e-05	2.550844e+05	1.017052e+05	2.884344e+02	1.074116e-01	3.171968e-01	0.000000e+00	
-1.456497e-01	5.032765e-03	1.228362e+00	4.492106e+01	7.235180e-06	2.550844e+05	1.017052e+05	2.884344e+02	1.074116e-01	3.172028e-01	0.000000e+00	
-1.432829e-01	1.264436e-03	1.228362e+00	4.492103e+01	1.110892e-05	2.550844e+05	1.017052e+05	2.884344e+02	1.074115e-01	3.171935e-01	0.000000e+00	
-1.482573e-01	6.214248e-03	1.228362e+00	4.492107e+01	5.954383e-06	2.550845e+05	1.017052e+05	2.884344e+02	1.074116e-01	3.172125e-01	0.000000e+00	
-1.465008e-01	6.284468e-03	1.228362e+00	4.492107e+01	5.199126e-06	2.550844e+05	1.017052e+05	2.884344e+02	1.074116e-01	3.172063e-01	0.000000e+00	
-1.490374e-01	7.521155e-03	1.228362e+00	4.492107e+01	1.232657e-06	2.550845e+05	1.017052e+05	2.884344e+02	1.074116e-01	3.172151e-01	0.000000e+00	
-1.441103e-01	5.042758e-03	1.228362e+00	4.492107e+01	7.676803e-06	2.550844e+05	1.017052e+05	2.884344e+02	1.074116e-01	3.171968e-01	0.000000e+00	
-1.433351e-01	3.783206e-03	1.228362e+00	4.492107e+01	1.180407e-05	2.550844e+05	1.017052e+05	2.884344e+02	1.074116e-01	3.171937e-01	0.000000e+00	
-1.425571e-01	2.528971e-03	1.228362e+00	4.492106e+01	1.291089e-05	2.550844e+05	1.017052e+05	2.884344e+02	1.074116e-01	3.171907e-01	0.000000e+00	
-1.448995e-01	6.307025e-03	1.228362e+00	4.492108e+01	4.843159e-06	2.550844e+05	1.017052e+05	2.884344e+02	1.074116e-01	3.171999e-01	0.000000e+00	
-1.417786e-01	1.264798e-03	1.228362e+00	4.492103e+01	1.146268e-05	2.550844e+05	1.017052e+05	2.884344e+02	1.074115e-01	3.171876e-01	0.000000e+00	
-1.473657e-01	7.563776e-03	1.228362e+00	4.492108e+01	2.535089e-06	2.550845e+05	1.017052e+05	2.884344e+02	1.074116e-01	3.172096e-01	0.000000e+00	
-1.500000e-01	7.507353e-03	1.228363e+00	4.492106e+01	2.839341e-07	2.550845e+05	1.017052e+05	2.884344e+02	1.074116e-01	3.172207e-01	0.000000e+00	
-1.456998e-01	7.578663e-03	1.228362e+00	4.492108e+01	3.378819e-06	2.550844e+05	1.017052e+05	2.884344e+02	1.074116e-01	3.172029e-01	0.000000e+00	
-1.482331e-01	8.906759e-03	1.228362e+00	4.492108e+01	-2.041677e-06	2.550845e+05	1.017052e+05	2.884344e+02	1.074116e-01	3.172123e-01	0.000000e+00	
-1.500000e-01	9.008824e-03	1.228363e+00	4.492107e+01	-3.771525e-06	2.550845e+05	1.017052e+05	2.884344e+02	1.074116e-01	3.172207e-01	0.000000e+00	
-1.433623e-01	6.313811e-03	1.228362e+00	4.492108e+01	4.611068e-06	2.550844e+05	1.017052e+05	2.884344e+02	1.074116e-01	3.171938e-01	0.000000e+00	
-1.425934e-01	5.043477e-03	1.228362e+00	4.492108e+01	7.038735e-06	2.550844e+05	1.017052e+05	2.884344e+02	1.074116e-01	3.171908e-01	0.000000e+00	
-1.418238e-01	3.779798e-03	1.228362e+00	4.492107e+01	1.028415e-05	2.550844e+05	1.017052e+05	2.884344e+02	1.074116e-01	3.171877e-01	0.000000e+00	
-1.410502e-01	2.521547e-03	1.228362e+00	4.492106e+01	1.105777e-05	2.550844e+05	1.017052e+05	2.884344e+02	1.074116e-01	3.171847e-01	0.000000e+00	
-1.441265e-01	7.580382e-03	1.228362e+00	4.492109e+01	3.676565e-06	2.550844e+05	1.017052e+05	2.884344e+02	1.074116e-01	3.171969e-01	0.000000e+00	
-1.402752e-01	1.269707e-03	1.228362e+00	4.492103e+01	1.075962e-05	2.550844e+05	1.017052e+05	2.884344e+02	1.074115e-01	3.171814e-01	0.000000e+00	
-1.464971e-01	8.872455e-03	1.228362e+00	4.492108e+01	1.392358e-06	2.550844e+05	1.017052e+05	2.884344e+02	1.074116e-01	3.172062e-01	0.000000e+00	
-1.487090e-01	1.018998e-02	1.228362e+00	4.492106e+01	-2.939278e-06	2.550845e+05	1.017052e+05	2.884344e+02	1.074116e-01	3.172142e-01	0.000000e+00	
-1.448881e-01	8.859340e-03	1.228362e+00	4.492108e+01	2.961784e-06	2.550844e+05	1.017052e+05	2.884344e+02	1.074116e-01	3.171998e-01	0.000000e+00	
-1.472389e-01	1.017172e-02	1.228362e+00	4.492107e+01	-2.028482e-06	2.550845e+05	1.017052e+05	2.884344e+02	1.074116e-01	3.172088e-01	0.000000e+00	
-1.500000e-01	1.051029e-02	1.228363e+00	4.492106e+01	-1.352025e-06	2.550845e+05	1.017052e+05	2.884344e+02	1.074116e-01	3.172209e-01	0.000000e+00	
-1.418419e-01	6.308574e-03	1.228362e+00	4.492109e+01	4.403548e-06	2.550844e+05	1.017052e+05	2.884344e+02	1.074117e-01	3.171878e-01	0.000000e+00	
-1.425995e-01	7.574958e-03	1.228362e+00	4.492109e+01	3.760931e-06	2.550844e+05	1.017052e+05	2.884344e+02	1.074117e-01	3.171908e-01	0.000000e+00	
-1.410802e-01	5.039513e-03	1.228362e+00	4.492109e+01	6.147080e-06	2.550844e+05	1.017052e+05	2.884344e+02	1.074117e-01	3.171848e-01	0.000000e+00	
-1.403153e-01	3.774966e-03	1.228362e+00	4.492108e+01	8.427756e-06	2.550844e+05	1.017052e+05	2.884344e+02	1.074116e-01	3.171817e-01	0.000000e+00	
-1.395475e-01	2.514366e-03	1.228362e+00	4.492106e+01	9.078536e-06	2.550844e+05	1.017052e+05	2.884344e+02	1.074116e-01	3.171787e-01	0.000000e+00	
-1.433463e-01	8.846870e-03	1.228362e+00	4.492109e+01	3.738948e-06	2.550844e+05	1.017052e+05	2.884344e+02	1.074117e-01	3.171938e-01	0.000000e+00	
-1.387748e-01	1.268516e-03	1.228362e+00	4.492103e+01	8.392736e-06	2.550844e+05	1.017052e+05	2.884344e+02	1.074115e-01	3.171756e-01	0.000000e+00	
-1.456293e-01	1.014820e-02	1.228362e+00	4.492107e+01	8.512709e-07	2.550844e+05	1.017052e+05	2.884344e+02	1.074116e-01	3.172026e-01	0.000000e+00	
-1.478460e-01	1.142355e-02	1.228362e+00	4.492106e+01	-3.453884e-06	2.550845e+05	1.017052e+05	2.884344e+02	1.074116e-01	3.172112e-01	0.000000e+00	
-1.490372e-01	1.138779e-02	1.228362e+00	4.492106e+01	-2.742729e-06	2.550845e+05	1.017052e+05	2.884344e+02	1.074116e-01	3.172157e-01	0.000000e+00	
-1.440817e-01	1.012705e-02	1.228362e+00	4.492108e+01	2.214253e-06	2.550844e+05	1.017052e+05	2.884344e+02	1.074116e-01	3.171966e-01	0.000000e+00	
-1.463405e-01	1.143791e-02	1.228362e+00	4.492106e+01	-3.034283e-06	2.550844e+05	1.017052e+05	2.884344e+02	1.074116e-01	3.172053e-01	0.000000e+00	
-1.500000e-01	1.201176e-02	1.228363e+00	4.492105e+01	-6.131774e-07	2.550845e+05	1.017052e+05	2.884344e+02	1.074115e-01	3.172211e-01	0.000000e+00	
-1.403356e-01	6.293032e-03	1.228362e+00	4.492109e+01	3.793911e-06	2.550844e+05	1.017052e+05	2.884344e+02	1.074117e-01	3.171818e-01	0.000000e+00	
-1.410879e-01	7.561704e-03	1.228362e+00	4.492109e+01	3.575000e-06	2.550844e+05	1.017052e+05	2.884344e+02	1.074117e-01	3.171848e-01	0.000000e+00	
-1.418318e-01	8.832745e-03	1.228362e+00	4.492109e+01	3.869538e-06	2.550844e+05	1.017052e+05	2.884344e+02	1.074117e-01	3.171877e-01	0.000000e+00	
-1.395776e-01	5.024873e-03	1.228362e+00	4.492109e+01	4.771554e-06	2.550844e+05	1.017052e+05	2.884344e+02	1.074117e-01	3.171788e-01	0.000000e+00	
-1.388159e-01	3.761765e-03	1.228362e+00	4.492108e+01	6.222660e-06	2.550844e+05	1.017052e+05	2.884344e+02	1.074117e-01	3.171758e-01	0.000000e+00	
-1.380490e-01	2.503779e-03	1.228362e+00	4.492107e+01	6.466178e-06	2.550843e+05	1.017052e+05	2.884344e+02	1.074116e-01	3.171727e-01	0.000000e+00	
-1.425653e-01	1.010812e-02	1.228362e+00	4.492108e+01	3.166703e-06	2.550844e+05	1.017052e+05	2.884344e+02	1.074116e-01	3.171906e-01	0.000000e+00	
-1.372780e-01	1.264875e-03	1.228362e+00	4.492103e+01	4.289104e-06	2.550843e+05	1.017052e+05	2.884344e+02	1.074116e-01	3.171696e-01	0.000000e+00	
-1.448051e-01	1.141507e-02	1.228362e+00	4.492107e+01	-1.129924e-06	2.550844e+05	1.017052e+05	2.884344e+02	1.074116e-01	3.171994e-01	0.000000e+00	
-1.470538e-01	1.276798e-02	1.228362e+00	4.492106e+01	-4.581011e-06	2.550845e+05	1.017052e+05	2.884344e+02	1.074116e-01	3.172080e-01	0.000000e+00	
-1.486948e-01	1.279309e-02	1.228362e+00	4.492106e+01	-2.330477e-06	2.550845e+05	1.017052e+05	2.884344e+02	1.074116e-01	3.172142e-01	0.000000e+00	
-1.432898e-01	1.139003e-02	1.228362e+00	4.492107e+01	7.471650e-07	2.550844e+05	1.017052e+05	2.884344e+02	1.074116e-01	3.171934e-01	0.000000e+00	
-1.455254e-01	1.271981e-02	1.228362e+00	4.492106e+01	-3.703783e-06	2.550844e+05	1.017052e+05	2.884344e+02	1.074116e-01	3.172022e-01	0.000000e+00	
-1.500000e-01	1.351324e-02	1.228363e+00	4.492106e+01	1.729641e-06	2.550845e+05	1.017052e+05	2.884344e+02	1.074115e-01	3.172211e-01	0.000000e+00	
-1.395803e-01	7.545106e-03	1.228362e+00	4.492109e+01	2.991056e-06	2.550844e+05	1.017052e+05	2.884344e+02	1.074117e-01	3.171788e-01	0.000000e+00	
-1.388306e-01	6.275009e-03	1.228362e+00	4.492110e+01	2.725791e-06	2.550844e+05	1.017052e+05	2.884344e+02	1.074117e-01	3.171758e-01	0.000000e+00	
-1.403236e-01	8.816461e-03	1.228362e+00	4.492109e+01	3.613667e-06	2.550844e+05	1.017052e+05	2.884344e+02	1.074117e-01	3.171817e-01	0.000000e+00	
-1.410586e-01	1.009025e-02	1.228362e+00	4.492108e+01	3.416496e-06	2.550844e+05	1.017052e+05	2.884344e+02	1.074117e-01	3.171846e-01	0.000000e+00	
-1.380763e-01	5.007166e-03	1.228362e+00	4.492109e+01	2.986147e-06	2.550843e+05	1.017052e+05	2.884344e+02	1.074117e-01	3.171729e-01	0.000000e+00	
-1.373172e-01	3.745202e-03	1.228362e+00	4.492109e+01	3.495749e-06	2.550843e+05	1.017052e+05	2.884344e+02	1.074117e-01	3.171698e-01	0.000000e+00	
-1.365543e-01	2.493191e-03	1.228362e+00	4.492107e+01	2.453932e-06	2.550843e+05	1.017052e+05	2.884344e+02	1.074116e-01	3.171668e-01	0.000000e+00	
-1.417854e-01	1.136812e-02	1.228362e+00	4.492108e+01	1.780229e-06	2.550844e+05	1.017052e+05	2.884344e+02	1.074116e-01	3.171875e-01	0.000000e+00	
-1.357841e-01	1.260955e-03	1.228362e+00	4.492103e+01	-1.960087e-07	2.550843e+05	1.017052e+05	2.884344e+02	1.074116e-01	3.171636e-01	0.000000e+00	
-1.440103e-01	1.268124e-02	1.228362e+00	4.492107e+01	-1.918903e-06	2.550844e+05	1.017052e+05	2.884344e+02	1.074116e-01	3.171962e-01	0.000000e+00	
-1.477508e-01	1.418309e-02	1.228362e+00	4.492106e+01	-4.395809e-06	2.550845e+05	1.017052e+05	2.884344e+02	1.074116e-01	3.172109e-01	0.000000e+00	
-1.462507e-01	1.404743e-02	1.228362e+00	4.492106e+01	-4.145793e-06	2.550844e+05	1.017052e+05	2.884344e+02	1.074116e-01	3.172049e-01	0.000000e+00	
-1.489635e-01	1.419880e-02	1.228362e+00	4.492106e+01	-2.155540e-06	2.550845e+05	1.017052e+05	2.884344e+02	1.074116e-01	3.172154e-01	0.000000e+00	
-1.425066e-01	1.265175e-02	1.228362e+00	4.492107e+01	-5.990299e-07	2.550844e+05	1.017052e+05	2.884344e+02	1.074116e-01	3.171903e-01	0.000000e+00	
-1.447338e-01	1.398254e-02	1.228362e+00	4.492107e+01	-3.039428e-06	2.550844e+05	1.017052e+05	2.884344e+02	1.074116e-01	3.171990e-01	0.000000e+00	
-1.500000e-01	1.501471e-02	1.228363e+00	4.492106e+01	-3.515530e-07	2.550845e+05	1.017052e+05	2.884344e+02	1.074116e-01	3.172208e-01	0.000000e+00	
-1.380755e-01	7.525537e-03	1.228362e+00	4.492110e+01	1.988944e-06	2.550843e+05	1.017052e+05	2.884344e+02	1.074117e-01	3.171728e-01	0.000000e+00	
-1.388170e-01	8.798070e-03	1.228362e+00	4.492109e+01	2.948108e-06	2.550844e+05	1.017052e+05	2.884344e+02	1.074117e-01	3.171758e-01	0.000000e+00	
-1.373298e-01	6.254068e-03	1.228362e+00	4.492110e+01	1.218177e-06	2.550843e+05	1.017052e+05	2.884344e+02	1.074117e-01	3.171699e-01	0.000000e+00	
-1.395530e-01	1.007187e-02	1.228362e+00	4.492109e+01	3.195425e-06	2.550844e+05	1.017052e+05	2.884344e+02	1.074117e-01	3.171787e-01	0.000000e+00	
-1.402827e-01	1.134806e-02	1.228362e+00	4.492108e+01	2.177563e-06	2.550844e+05	1.017052e+05	2.884344e+02	1.074117e-01	3.171815e-01	0.000000e+00	
-1.365808e-01	4.985529e-03	1.228362e+00	4.492110e+01	7.291312e-07	2.550843e+05	1.017052e+05	2.884344e+02	1.074117e-01	3.171669e-01	0.000000e+00	
-1.358278e-01	3.724667e-03	1.228362e+00	4.492109e+01	1.585233e-07	2.550843e+05	1.017052e+05	2.884344e+02	1.074117e-01	3.171639e-01	0.000000e+00	
-1.350681e-01	2.478083e-03	1.228362e+00	4.492107e+01	-1.793654e-06	2.550843e+05	1.017052e+05	2.884344e+02	1.074117e-01	3.171609e-01	0.000000e+00	
-1.410065e-01	1.262779e-02	1.228362e+00	4.492108e+01	2.061162e-07	2.550844e+05	1.017052e+05	2.884344e+02	1.074116e-01	3.171844e-01	0.000000e+00	
-1.342962e-01	1.254242e-03	1.228362e+00	4.492104e+01	-3.969618e-06	2.550843e+05	1.017052e+05	2.884344e+02	1.074116e-01	3.171577e-01	0.000000e+00	
-1.432269e-01	1.394150e-02	1.228362e+00	4.492107e+01	-2.301657e-06	2.550844e+05	1.017052e+05	2.884344e+02	1.074116e-01	3.171931e-01	0.000000e+00	
-1.484814e-01	1.554826e-02	1.228362e+00	4.492107e+01	-2.630835e-06	2.550845e+05	1.017052e+05	2.884344e+02	1.074116e-01	3.172137e-01	0.000000e+00	
-1.470082e-01	1.534684e-02	1.228362e+00	4.492107e+01	-3.772805e-06	2.550845e+05	1.017052e+05	2.884344e+02	1.074116e-01	3.172078e-01	0.000000e+00	
-1.454716e-01	1.528075e-02	1.228362e+00	4.492107e+01	-3.398674e-06	2.550844e+05	1.017052e+05	2.884344e+02	1.074116e-01	3.172018e-01	0.000000e+00	
-1.417271e-01	1.391150e-02	1.228362e+00	4.492107e+01	-1.628562e-06	2.550844e+05	1.017052e+05	2.884344e+02	1.074116e-01	3.171872e-01	0.000000e+00	
-1.439536e-01	1.523390e-02	1.228362e+00	4.492107e+01	-2.944914e-06	2.550844e+05	1.017052e+05	2.884344e+02	1.074116e-01	3.171959e-01	0.000000e+00	
-1.500000e-01	1.651618e-02	1.228363e+00	4.492107e+01	1.131392e-06	2.550845e+05	1.017052e+05	2.884344e+02	1.074116e-01	3.172208e-01	0.000000e+00	
-1.365772e-01	7.502270e-03	1.228362e+00	4.492110e+01	6.317196e-07	2.550843e+05	1.017052e+05	2.884344e+02	1.074117e-01	3.171669e-01	0.000000e+00	
-1.373150e-01	8.776646e-03	1.228362e+00	4.492110e+01	1.945810e-06	2.550843e+05	1.017052e+05	2.884344e+02	1.074117e-01	3.171698e-01	0.000000e+00	
-1.380496e-01	1.005156e-02	1.228362e+00	4.492109e+01	2.587028e-06	2.550843e+05	1.017052e+05	2.884344e+02	1.074117e-01	3.171727e-01	0.000000e+00	
-1.358371e-01	6.228887e-03	1.228362e+00	4.492110e+01	-6.716173e-07	2.550843e+05	1.017052e+05	2.884344e+02	1.074117e-01	3.171640e-01	0.000000e+00	
-1.387802e-01	1.132767e-02	1.228362e+00	4.492109e+01	2.082830e-06	2.550844e+05	1.017052e+05	2.884344e+02	1.074117e-01	3.171756e-01	0.000000e+00	
-1.395065e-01	1.260582e-02	1.228362e+00	4.492108e+01	5.605130e-07	2.550844e+05	1.017052e+05	2.884344e+02	1.074117e-01	3.171785e-01	0.000000e+00	
-1.350947e-01	4.959161e-03	1.228362e+00	4.492110e+01	-1.918290e-06	2.550843e+05	1.017052e+05	2.884344e+02	1.074117e-01	3.171610e-01	0.000000e+00	
-1.343475e-01	3.698457e-03	1.228362e+00	4.492109e+01	-3.285618e-06	2.550843e+05	1.017052e+05	2.884344e+02	1.074117e-01	3.171580e-01	0.000000e+00	
-1.335890e-01	2.454906e-03	1.228362e+00	4.492107e+01	-5.351472e-06	2.550843e+05	1.017052e+05	2.884344e+02	1.074117e-01	3.171550e-01	0.000000e+00	
-1.402291e-01	1.388648e-02	1.228362e+00	4.492108e+01	-1.127657e-06	2.550844e+05	1.017052e+05	2.884344e+02	1.074116e-01	3.171813e-01	0.000000e+00	
-1.328088e-01	1.241716e-03	1.228362e+00	4.492104e+01	-7.040799e-06	2.550843e+05	1.017052e+05	2.884344e+02	1.074116e-01	3.171519e-01	0.000000e+00	
-1.424484e-01	1.519832e-02	1.228362e+00	4.492107e+01	-2.544143e-06	2.550844e+05	1.017052e+05	2.884344e+02	1.074116e-01	3.171900e-01	0.000000e+00	
-1.475197e-01	1.651419e-02	1.228362e+00	4.492107e+01	-2.777015e-06	2.550845e+05	1.017052e+05	2.884344e+02	1.074116e-01	3.172100e-01	0.000000e+00	
-1.462288e-01	1.656475e-02	1.228362e+00	4.492107e+01	-2.742206e-06	2.550844e+05	1.017052e+05	2.884344e+02	1.074116e-01	3.172048e-01	0.000000e+00	
-1.446953e-01	1.652588e-02	1.228362e+00	4.492107e+01	-2.448175e-06	2.550844e+05	1.017052e+05	2.884344e+02	1.074116e-01	3.171989e-01	0.000000e+00	
-1.485555e-01	1.723055e-02	1.228362e+00	4.492108e+01	-5.641321e-07	2.550845e+05	1.017052e+05	2.884344e+02	1.074116e-01	3.172140e-01	0.000000e+00	
-1.409501e-01	1.516953e-02	1.228362e+00	4.492108e+01	-2.106984e-06	2.550844e+05	1.017052e+05	2.884344e+02	1.074116e-01	3.171841e-01	0.000000e+00	
-1.431759e-01	1.648716e-02	1.228362e+00	4.492108e+01	-2.348991e-06	2.550844e+05	1.017052e+05	2.884344e+02	1.074116e-01	3.171929e-01	0.000000e+00	
-1.500000e-01	1.801765e-02	1.228363e+00	4.492107e+01	-2.900474e-07	2.550845e+05	1.017052e+05	2.884344e+02	1.074116e-01	3.172206e-01	0.000000e+00	
-1.350880e-01	7.473605e-03	1.228362e+00	4.492110e+01	-1.069078e-06	2.550843e+05	1.017052e+05	2.884344e+02	1.074117e-01	3.171610e-01	0.000000e+00	
-1.358209e-01	8.750855e-03	1.228362e+00	4.492110e+01	6.401565e-07	2.550843e+05	1.017052e+05	2.884344e+02	1.074117e-01	3.171639e-01	0.000000e+00	
-1.365524e-01	1.002797e-02	1.228362e+00	4.492109e+01	1.661693e-06	2.550843e+05	1.017052e+05	2.884344e+02	1.074117e-01	3.171668e-01	0.000000e+00	
-1.372817e-01	1.130526e-02	1.228362e+00	4.492109e+01	1.629639e-06	2.550843e+05	1.017052e+05	2.884344e+02	1.074117e-01	3.171697e-01	0.000000e+00	
-1.343543e-01	6.197093e-03	1.228362e+00	4.492110e+01	-2.862715e-06	2.550843e+05	1.017052e+05	2.884344e+02	1.074117e-01	3.171581e-01	0.000000e+00	
-1.380082e-01	1.258339e-02	1.228362e+00	4.492108e+01	5.839826e-07	2.550843e+05	1.017052e+05	2.884344e+02	1.074117e-01	3.171725e-01	0.000000e+00	
-1.387322e-01	1.386288e-02	1.228362e+00	4.492108e+01	-8.091875e-07	2.550844e+05	1.017052e+05	2.884344e+02	1.074117e-01	3.171754e-01	0.000000e+00	
-1.336197e-01	4.923915e-03	1.228362e+00	4.492110e+01	-4.673673e-06	2.550843e+05	1.017052e+05	2.884344e+02	1.074117e-01	3.171552e-01	0.000000e+00	
-1.328809e-01	3.658778e-03	1.228362e+00	4.492110e+01	-6.120295e-06	2.550843e+05	1.017052e+05	2.884344e+02	1.074117e-01	3.171522e-01	0.000000e+00	
-1.321297e-01	2.410448e-03	1.228362e+00	4.492107e+01	-7.948963e-06	2.550843e+05	1.017052e+05	2.884344e+02	1.074117e-01	3.171493e-01	0.000000e+00	
-1.394543e-01	1.514387e-02	1.228362e+00	4.492108e+01	-1.692310e-06	2.550844e+05	1.017052e+05	2.884344e+02	1.074116e-01	3.171782e-01	0.000000e+00	
-1.313518e-01	1.210492e-03	1.228362e+00	4.492104e+01	-8.767916e-06	2.550843e+05	1.017052e+05	2.884344e+02	1.074116e-01	3.171461e-01	0.000000e+00	
-1.416721e-01	1.645458e-02	1.228362e+00	4.492108e+01	-1.840044e-06	2.550844e+05	1.017052e+05	2.884344e+02	1.074116e-01	3.171870e-01	0.000000e+00	
-1.472112e-01	1.789465e-02	1.228362e+00	4.492108e+01	-1.241406e-06	2.550845e+05	1.017052e+05	2.884344e+02	1.074116e-01	3.172088e-01	0.000000e+00	
-1.454774e-01	1.782696e-02	1.228362e+00	4.492108e+01	-1.016341e-06	2.550844e+05	1.017052e+05	2.884344e+02	1.074116e-01	3.172017e-01	0.000000e+00	
-1.439157e-01	1.777922e-02	1.228362e+00	4.492108e+01	-6.217025e-07	2.550844e+05	1.017052e+05	2.884344e+02	1.074116e-01	3.171959e-01	0.000000e+00	
-1.485310e-01	1.866709e-02	1.228362e+00	4.492108e+01	-1.274881e-06	2.550845e+05	1.017052e+05	2.884344e+02	1.074116e-01	3.172140e-01	0.000000e+00	
-1.401755e-01	1.642626e-02	1.228362e+00	4.492108e+01	-1.494766e-06	2.550844e+05	1.017052e+05	2.884344e+02	1.074116e-01	3.171811e-01	0.000000e+00	
-1.423980e-01	1.774165e-02	1.228362e+00	4.492108e+01	-3.501788e-07	2.550844e+05	1.017052e+05	2.884344e+02	1.074116e-01	3.171898e-01	0.000000e+00	
-1.500000e-01	1.951912e-02	1.228363e+00	4.492107e+01	-1.508924e-06	2.550845e+05	1.017052e+05	2.884344e+02	1.074116e-01	3.172208e-01	0.000000e+00	
-1.343361e-01	8.718922e-03	1.228362e+00	4.492110e+01	-9.933498e-07	2.550843e+05	1.017052e+05	2.884344e+02	1.074117e-01	3.171580e-01	0.000000e+00	
-1.336083e-01	7.437014e-03	1.228362e+00	4.492110e+01	-3.111943e-06	2.550843e+05	1.017052e+05	2.884344e+02	1.074117e-01	3.171551e-01	0.000000e+00	
-1.350638e-01	9.999794e-03	1.228362e+00	4.492110e+01	4.361354e-07	2.550843e+05	1.017052e+05	2.884344e+02	1.074117e-01	3.171609e-01	0.000000e+00	
-1.357904e-01	1.127967e-02	1.228362e+00	4.492109e+01	8.600266e-07	2.550843e+05	1.017052e+05	2.884344e+02	1.074117e-01	3.171638e-01	0.000000e+00	
-1.365155e-01	1.255913e-02	1.228362e+00	4.492109e+01	2.999745e-07	2.550843e+05	1.017052e+05	2.884344e+02	1.074117e-01	3.171666e-01	0.000000e+00	
-1.328819e-01	6.154746e-03	1.228362e+00	4.492110e+01	-5.349311e-06	2.550843e+05	1.017052e+05	2.884344e+02	1.074117e-01	3.171522e-01	0.000000e+00	
-1.372389e-01	1.383879e-02	1.228362e+00	4.492108e+01	-7.106988e-07	2.550843e+05	1.017052e+05	2.884344e+02	1.074117e-01	3.171695e-01	0.000000e+00	
-1.379611e-01	1.511905e-02	1.228362e+00	4.492108e+01	-1.417029e-06	2.550843e+05	1.017052e+05	2.884344e+02	1.074117e-01	3.171723e-01	0.000000e+00	
-1.321574e-01	4.873169e-03	1.228362e+00	4.492111e+01	-7.212476e-06	2.550843e+05	1.017052e+05	2.884344e+02	1.074117e-01	3.171493e-01	0.000000e+00	
-1.314327e-01	3.594607e-03	1.228362e+00	4.492110e+01	-8.283190e-06	2.550843e+05	1.017052e+05	2.884344e+02	1.074117e-01	3.171464e-01	0.000000e+00	
-1.307009e-01	2.332084e-03	1.228362e+00	4.492107e+01	-8.817374e-06	2.550843e+05	1.017052e+05	2.884344e+02	1.074117e-01	3.171435e-01	0.000000e+00	
-1.386824e-01	1.640003e-02	1.228362e+00	4.492108e+01	-1.216413e-06	2.550844e+05	1.017052e+05	2.884344e+02	1.074117e-01	3.171752e-01	0.000000e+00	
-1.299376e-01	1.145164e-03	1.228362e+00	4.492104e+01	-7.827688e-06	2.550842e+05	1.017051e+05	2.884344e+02	1.074116e-01	3.171407e-01	0.000000e+00	
-1.408975e-01	1.771005e-02	1.228362e+00	4.492108e+01	-1.537155e-07	2.550844e+05	1.017052e+05	2.884344e+02	1.074116e-01	3.171839e-01	0.000000e+00	
-1.474856e-01	1.928961e-02	1.228362e+00	4.492107e+01	8.674792e-07	2.550845e+05	1.017052e+05	2.884344e+02	1.074116e-01	3.172099e-01	0.000000e+00	
-1.461855e-01	1.913184e-02	1.228362e+00	4.492107e+01	9.865797e-07	2.550844e+05	1.017052e+05	2.884344e+02	1.074116e-01	3.172046e-01	0.000000e+00	
-1.446459e-01	1.907073e-02	1.228362e+00	4.492107e+01	1.211979e-06	2.550844e+05	1.017052e+05	2.884344e+02	1.074116e-01	3.171986e-01	0.000000e+00	
-1.431242e-01	1.902920e-02	1.228362e+00	4.492107e+01	1.603671e-06	2.550844e+05	1.017052e+05	2.884344e+02	1.074116e-01	3.171927e-01	0.000000e+00	
-1.484020e-01	2.029885e-02	1.228362e+00	4.492107e+01	2.598167e-06	2.550845e+05	1.017052e+05	2.884344e+02	1.074116e-01	3.172135e-01	0.000000e+00	
-1.394037e-01	1.768181e-02	1.228362e+00	4.492108e+01	-6.509069e-08	2.550844e+05	1.017052e+05	2.884344e+02	1.074116e-01	3.171780e-01	0.000000e+00	
-1.416204e-01	1.899482e-02	1.228362e+00	4.492107e+01	1.496212e-06	2.550844e+05	1.017052e+05	2.884344e+02	1.074116e-01	3.171868e-01	0.000000e+00	
-1.500000e-01	2.102059e-02	1.228363e+00	4.492106e+01	1.848252e-06	2.550845e+05	1.017052e+05	2.884344e+02	1.074116e-01	3.172208e-01	0.000000e+00	
-1.328595e-01	8.678811e-03	1.228362e+00	4.492110e+01	-3.025795e-06	2.550843e+05	1.017052e+05	2.884344e+02	1.074117e-01	3.171521e-01	0.000000e+00	
-1.335835e-01	9.965600e-03	1.228362e+00	4.492110e+01	-1.133520e-06	2.550843e+05	1.017052e+05	2.884344e+02	1.074117e-01	3.171550e-01	0.000000e+00	
-1.321372e-01	7.389467e-03	1.228362e+00	4.492110e+01	-5.662664e-06	2.550843e+05	1.017052e+05	2.884344e+02	1.074117e-01	3.171493e-01	0.000000e+00	
-1.343073e-01	1.124992e-02	1.228362e+00	4.492110e+01	-2.300888e-07	2.550843e+05	1.017052e+05	2.884344e+02	1.074117e-01	3.171579e-01	0.000000e+00	
-1.350301e-01	1.253223e-02	1.228362e+00	4.492109e+01	-2.935241e-07	2.550843e+05	1.017052e+05	2.884344e+02	1.074117e-01	3.171608e-01	0.000000e+00	
-1.357518e-01	1.381333e-02	1.228362e+00	4.492109e+01	-8.795977e-07	2.550843e+05	1.017052e+05	2.884344e+02	1.074117e-01	3.171636e-01	0.000000e+00	
-1.314198e-01	6.096699e-03	1.228362e+00	4.492111e+01	-8.274768e-06	2.550843e+05	1.017052e+05	2.884344e+02	1.074117e-01	3.171464e-01	0.000000e+00	
-1.364727e-01	1.509394e-02	1.228362e+00	4.492108e+01	-1.335812e-06	2.550843e+05	1.017052e+05	2.884344e+02	1.074117e-01	3.171665e-01	0.000000e+00	
-1.371932e-01	1.637451e-02	1.228362e+00	4.492108e+01	-1.108475e-06	2.550843e+05	1.017052e+05	2.884344e+02	1.074117e-01	3.171693e-01	0.000000e+00	
-1.307100e-01	4.796656e-03	1.228362e+00	4.492111e+01	-1.037186e-05	2.550843e+05	1.017052e+05	2.884344e+02	1.074118e-01	3.171435e-01	0.000000e+00	
-1.300104e-01	3.482966e-03	1.228362e+00	4.492110e+01	-1.103996e-05	2.550843e+05	1.017051e+05	2.884344e+02	1.074117e-01	3.171406e-01	0.000000e+00	
-1.293244e-01	2.162865e-03	1.228362e+00	4.492107e+01	-1.134403e-05	2.550842e+05	1.017051e+05	2.884344e+02	1.074117e-01	3.171381e-01	0.000000e+00	
-1.379137e-01	1.765531e-02	1.228362e+00	4.492108e+01	-8.484260e-08	2.550843e+05	1.017052e+05	2.884344e+02	1.074117e-01	3.171721e-01	0.000000e+00	
-1.286976e-01	1.021265e-03	1.228362e+00	4.492104e+01	-4.483157e-06	2.550842e+05	1.017051e+05	2.884344e+02	1.074116e-01	3.171347e-01	0.000000e+00	
-1.401253e-01	1.896440e-02	1.228362e+00	4.492108e+01	1.438576e-06	2.550844e+05	1.017052e+05	2.884344e+02	1.074116e-01	3.171809e-01	0.000000e+00	
-1.469244e-01	2.036900e-02	1.228362e+00	4.492107e+01	3.318358e-06	2.550845e+05	1.017052e+05	2.884344e+02	1.074116e-01	3.172075e-01	0.000000e+00	
-1.453732e-01	2.034236e-02	1.228362e+00	4.492107e+01	2.809039e-06	2.550844e+05	1.017052e+05	2.884344e+02	1.074116e-01	3.172014e-01	0.000000e+00	
-1.438503e-01	2.031087e-02	1.228362e+00	4.492107e+01	2.354251e-06	2.550844e+05	1.017052e+05	2.884344e+02	1.074116e-01	3.171955e-01	0.000000e+00	
-1.423443e-01	2.027856e-02	1.228362e+00	4.492107e+01	2.314523e-06	2.550844e+05	1.017052e+05	2.884344e+02	1.074116e-01	3.171896e-01	0.000000e+00	
-1.488428e-01	2.164406e-02	1.228362e+00	4.492106e+01	5.095405e-06	2.550845e+05	1.017052e+05	2.884344e+02	1.074116e-01	3.172150e-01	0.000000e+00	
-1.386346e-01	1.893651e-02	1.228362e+00	4.492108e+01	1.265930e-06	2.550844e+05	1.017052e+05	2.884344e+02	1.074116e-01	3.171750e-01	0.000000e+00	
-1.475912e-01	2.152331e-02	1.228362e+00	4.492106e+01	5.753158e-06	2.550845e+05	1.017052e+05	2.884344e+02	1.074116e-01	3.172104e-01	0.000000e+00	
-1.408481e-01	2.024737e-02	1.228362e+00	4.492107e+01	2.277696e-06	2.550844e+05	1.017052e+05	2.884344e+02	1.074116e-01	3.171837e-01	0.000000e+00	
-1.500000e-01	2.252206e-02	1.228363e+00	4.492105e+01	2.016225e-06	2.550845e+05	1.017052e+05	2.884344e+02	1.074115e-01	3.172209e-01	0.000000e+00	
-1.313899e-01	8.628898e-03	1.228362e+00	4.492110e+01	-5.622482e-06	2.550843e+05	1.017052e+05	2.884344e+02	1.074117e-01	3.171463e-01	0.000000e+00	
-1.321101e-01	9.924148e-03	1.228362e+00	4.492110e+01	-3.112614e-06	2.550843e+05	1.017052e+05	2.884344e+02	1.074117e-01	3.171492e-01	0.000000e+00	
-1.328314e-01	1.121510e-02	1.228362e+00	4.492110e+01	-1.671213e-06	2.550843e+05	1.017052e+05	2.884344e+02	1.074117e-01	3.171520e-01	0.000000e+00	
-1.306742e-01	7.328579e-03	1.228362e+00	4.492110e+01	-8.994975e-06	2.550843e+05	1.017052e+05	2.884344e+02	1.074117e-01	3.171434e-01	0.000000e+00	
-1.335521e-01	1.250209e-02	1.228362e+00	4.492110e+01	-1.219897e-06	2.550843e+05	1.017052e+05	2.884344e+02	1.074117e-01	3.171549e-01	0.000000e+00	
-1.342717e-01	1.378602e-02	1.228362e+00	4.492109e+01	-1.351781e-06	2.550843e+05	1.017052e+05	2.884344e+02	1.074117e-01	3.171578e-01	0.000000e+00	
-1.349907e-01	1.506802e-02	1.228362e+00	4.492109e+01	-1.511739e-06	2.550843e+05	1.017052e+05	2.884344e+02	1.074117e-01	3.171606e-01	0.000000e+00	
-1.299678e-01	6.018267e-03	1.228362e+00	4.492111e+01	-1.250629e-05	2.550843e+05	1.017051e+05	2.884344e+02	1.074118e-01	3.171406e-01	0.000000e+00	
-1.357095e-01	1.634902e-02	1.228362e+00	4.492108e+01	-1.192304e-06	2.550843e+05	1.017052e+05	2.884344e+02	1.074117e-01	3.171635e-01	0.000000e+00	
-1.364283e-01	1.762962e-02	1.228362e+00	4.492108e+01	-2.457872e-07	2.550843e+05	1.017052e+05	2.884344e+02	1.074117e-01	3.171663e-01	0.000000e+00	
-1.292762e-01	4.682333e-03	1.228362e+00	4.492111e+01	-1.538096e-05	2.550842e+05	1.017051e+05	2.884344e+02	1.074118e-01	3.171377e-01	0.000000e+00	
-1.286041e-01	3.284351e-03	1.228362e+00	4.492110e+01	-1.712963e-05	2.550842e+05	1.017051e+05	2.884344e+02	1.074118e-01	3.171351e-01	0.000000e+00	
-1.279539e-01	1.712650e-03	1.228362e+00	4.492107e+01	-1.202757e-05	2.550842e+05	1.017051e+05	2.884344e+02	1.074117e-01	3.171319e-01	0.000000e+00	
-1.371477e-01	1.891017e-02	1.228362e+00	4.492108e+01	1.015709e-06	2.550843e+05	1.017052e+05	2.884344e+02	1.074117e-01	3.171691e-01	0.000000e+00	
-1.393564e-01	2.021819e-02	1.228362e+00	4.492107e+01	2.187213e-06	2.550844e+05	1.017052e+05	2.884344e+02	1.074116e-01	3.171778e-01	0.000000e+00	
-1.460942e-01	2.158457e-02	1.228362e+00	4.492106e+01	3.771539e-06	2.550844e+05	1.017052e+05	2.884344e+02	1.074116e-01	3.172042e-01	0.000000e+00	