TITLE = "Visualization of the volumetric solution"
VARIABLES = "x","y","Density","Momentum_x","Momentum_y","Energy","Pressure","Temperature","Mach","C<sub>p</sub>","Roe_Dissipation"
ZONE NODES= 1294, ELEMENTS= 2458, DATAPACKING=POINT, ZONETYPE=FEQUADRILATERAL
0.000000e+00	1.501471e-03	1.228390e+00	4.492757e+01	-8.301597e-02	2.550919e+05	1.017081e+05	2.884361e+02	1.074246e-01	3.196303e-01	0.000000e+00	
1.593660e-03	1.906215e-03	1.228037e+00	4.490828e+01	1.253025e+00	2.549895e+05	1.016671e+05	2.884027e+02	1.074572e-01	2.853976e-01	0.000000e+00	
2.967304e-03	1.115707e-03	1.227630e+00	4.494258e+01	2.465487e+00	2.548803e+05	1.016221e+05	2.883705e+02	1.077007e-01	2.478228e-01	0.000000e+00	
0.000000e+00	3.002941e-03	1.228402e+00	4.493745e+01	-7.715450e-02	2.550941e+05	1.017089e+05	2.884356e+02	1.074473e-01	3.202484e-01	0.000000e+00	
2.856536e-03	2.649630e-03	1.227699e+00	4.494079e+01	2.352629e+00	2.548958e+05	1.016284e+05	2.883724e+02	1.076756e-01	2.531243e-01	0.000000e+00	
1.605617e-03	3.509165e-03	1.228064e+00	4.491385e+01	1.240494e+00	2.549953e+05	1.016694e+05	2.884027e+02	1.074673e-01	2.872870e-01	0.000000e+00	
4.181116e-03	1.820913e-03	1.227395e+00	4.493174e+01	3.312877e+00	2.548125e+05	1.015942e+05	2.883468e+02	1.078301e-01	2.246127e-01	0.000000e+00	
0.000000e+00	4.504412e-03	1.228391e+00	4.493964e+01	-6.513605e-02	2.550918e+05	1.017079e+05	2.884354e+02	1.074534e-01	3.194472e-01	0.000000e+00	
4.105300e-03	3.361449e-03	1.227476e+00	4.492146e+01	3.260195e+00	2.548300e+05	1.016015e+05	2.883483e+02	1.077889e-01	2.306413e-01	0.000000e+00	
2.822900e-03	4.197749e-03	1.227681e+00	4.493408e+01	2.330086e+00	2.548928e+05	1.016273e+05	2.883734e+02	1.076582e-01	2.522023e-01	0.000000e+00	
1.592685e-03	5.067396e-03	1.228058e+00	4.491651e+01	1.232441e+00	2.549944e+05	1.016689e+05	2.884029e+02	1.074736e-01	2.869298e-01	0.000000e+00	
5.398695e-03	2.561298e-03	1.227249e+00	4.492130e+01	4.032406e+00	2.547666e+05	1.015751e+05	2.883267e+02	1.079620e-01	2.086748e-01	0.000000e+00	
5.386332e-03	1.179361e-03	1.227170e+00	4.491934e+01	4.035437e+00	2.547509e+05	1.015689e+05	2.883275e+02	1.079648e-01	2.034465e-01	0.000000e+00	
0.000000e+00	6.005882e-03	1.228399e+00	4.493934e+01	-6.911390e-02	2.550935e+05	1.017086e+05	2.884354e+02	1.074520e-01	3.200090e-01	0.000000e+00	
5.405242e-03	4.086295e-03	1.227211e+00	4.493067e+01	4.039427e+00	2.547590e+05	1.015719e+05	2.883267e+02	1.079892e-01	2.060030e-01	0.000000e+00	
4.080869e-03	4.898828e-03	1.227458e+00	4.492095e+01	3.251556e+00	2.548268e+05	1.016002e+05	2.883489e+02	1.077877e-01	2.295874e-01	0.000000e+00	
2.803746e-03	5.740016e-03	1.227697e+00	4.493419e+01	2.311487e+00	2.548964e+05	1.016288e+05	2.883738e+02	1.076547e-01	2.534120e-01	0.000000e+00	
1.578167e-03	6.596870e-03	1.228062e+00	4.491655e+01	1.221648e+00	2.549953e+05	1.016693e+05	2.884031e+02	1.074726e-01	2.872305e-01	0.000000e+00	
6.791423e-03	1.443614e-03	1.227026e+00	4.490955e+01	4.681743e+00	2.547072e+05	1.015506e+05	2.883095e+02	1.081070e-01	1.881676e-01	0.000000e+00	
6.763357e-03	3.300513e-03	1.227015e+00	4.492434e+01	4.683281e+00	2.547048e+05	1.015494e+05	2.883087e+02	1.081437e-01	1.871932e-01	0.000000e+00	
0.000000e+00	7.507353e-03	1.228397e+00	4.493724e+01	-7.274342e-02	2.550931e+05	1.017084e+05	2.884355e+02	1.074472e-01	3.198903e-01	0.000000e+00	
5.388284e-03	5.602550e-03	1.227216e+00	4.492730e+01	4.027639e+00	2.547602e+05	1.015725e+05	2.883272e+02	1.079782e-01	2.064807e-01	0.000000e+00	
6.743764e-03	4.793716e-03	1.227039e+00	4.492607e+01	4.671929e+00	2.547099e+05	1.015514e+05	2.883089e+02	1.081429e-01	1.888939e-01	0.000000e+00	
4.063878e-03	6.427379e-03	1.227469e+00	4.492099e+01	3.239116e+00	2.548294e+05	1.016012e+05	2.883492e+02	1.077846e-01	2.304618e-01	0.000000e+00	
2.789365e-03	7.264837e-03	1.227696e+00	4.493244e+01	2.302518e+00	2.548964e+05	1.016288e+05	2.883741e+02	1.076494e-01	2.534410e-01	0.000000e+00	
1.566586e-03	8.108290e-03	1.228065e+00	4.491533e+01	1.212576e+00	2.549962e+05	1.016697e+05	2.884033e+02	1.074688e-01	2.875463e-01	0.000000e+00	
8.183319e-03	2.537978e-03	1.226865e+00	4.491563e+01	5.184835e+00	2.546636e+05	1.015322e+05	2.882951e+02	1.082699e-01	1.728457e-01	0.000000e+00	
8.114645e-03	4.019048e-03	1.226872e+00	4.492435e+01	5.170194e+00	2.546650e+05	1.015326e+05	2.882948e+02	1.082861e-01	1.732135e-01	0.000000e+00	
8.224260e-03	1.124312e-03	1.226871e+00	4.491160e+01	5.210098e+00	2.546643e+05	1.015325e+05	2.882945e+02	1.082668e-01	1.730784e-01	0.000000e+00	
0.000000e+00	9.008824e-03	1.228397e+00	4.493561e+01	-7.618276e-02	2.550930e+05	1.017085e+05	2.884356e+02	1.074433e-01	3.199040e-01	0.000000e+00	
6.726640e-03	6.313085e-03	1.227033e+00	4.492371e+01	4.666762e+00	2.547089e+05	1.015511e+05	2.883093e+02	1.081364e-01	1.885928e-01	0.000000e+00	
5.374312e-03	7.122872e-03	1.227218e+00	4.492700e+01	4.019942e+00	2.547608e+05	1.015727e+05	2.883274e+02	1.079756e-01	2.066654e-01	0.000000e+00	
8.087147e-03	5.520810e-03	1.226875e+00	4.492656e+01	5.164979e+00	2.546658e+05	1.015330e+05	2.882949e+02	1.082896e-01	1.734890e-01	0.000000e+00	
4.052324e-03	7.942604e-03	1.227469e+00	4.491962e+01	3.232929e+00	2.548294e+05	1.016013e+05	2.883494e+02	1.077802e-01	2.304809e-01	0.000000e+00	
2.779726e-03	8.768800e-03	1.227701e+00	4.493109e+01	2.295100e+00	2.548975e+05	1.016293e+05	2.883743e+02	1.076448e-01	2.538231e-01	0.000000e+00	
1.558240e-03	9.602798e-03	1.228065e+00	4.491378e+01	1.206473e+00	2.549963e+05	1.016698e+05	2.884035e+02	1.074646e-01	2.876108e-01	0.000000e+00	
9.478549e-03	1.779655e-03	1.226775e+00	4.491758e+01	5.537323e+00	2.546377e+05	1.015212e+05	2.882851e+02	1.083844e-01	1.636567e-01	0.000000e+00	
9.472420e-03	3.241797e-03	1.226751e+00	4.491821e+01	5.538976e+00	2.546325e+05	1.015191e+05	2.882847e+02	1.083886e-01	1.618982e-01	0.000000e+00	
9.439759e-03	4.740847e-03	1.226769e+00	4.492157e+01	5.529460e+00	2.546363e+05	1.015205e+05	2.882845e+02	1.083922e-01	1.631302e-01	0.000000e+00	
0.000000e+00	1.051029e-02	1.228397e+00	4.493400e+01	-8.052265e-02	2.550931e+05	1.017085e+05	2.884357e+02	1.074395e-01	3.199472e-01	0.000000e+00	
6.714409e-03	7.830852e-03	1.227037e+00	4.492203e+01	4.660804e+00	2.547098e+05	1.015515e+05	2.883095e+02	1.081306e-01	1.889305e-01	0.000000e+00	
8.069638e-03	7.040853e-03	1.226878e+00	4.492532e+01	5.159633e+00	2.546666e+05	1.015333e+05	2.882952e+02	1.082849e-01	1.737643e-01	0.000000e+00	
5.365895e-03	8.629747e-03	1.227219e+00	4.492510e+01	4.015739e+00	2.547612e+05	1.015729e+05	2.883276e+02	1.079700e-01	2.068362e-01	0.000000e+00	
9.415672e-03	6.260710e-03	1.226767e+00	4.492350e+01	5.527236e+00	2.546358e+05	1.015203e+05	2.882846e+02	1.083963e-01	1.629570e-01	0.000000e+00	
4.046920e-03	9.434109e-03	1.227470e+00	4.491856e+01	3.229707e+00	2.548296e+05	1.016014e+05	2.883495e+02	1.077770e-01	2.305814e-01	0.000000e+00	
1.076627e-02	1.045537e-03	1.226683e+00	4.492346e+01	5.783615e+00	2.546138e+05	1.015110e+05	2.882778e+02	1.084816e-01	1.551934e-01	0.000000e+00	
2.775277e-03	1.024550e-02	1.227702e+00	4.492927e+01	2.292989e+00	2.548978e+05	1.016294e+05	2.883745e+02	1.076401e-01	2.539747e-01	0.000000e+00	
1.552584e-03	1.107536e-02	1.228066e+00	4.491423e+01	1.203546e+00	2.549966e+05	1.016699e+05	2.884037e+02	1.074654e-01	2.876978e-01	0.000000e+00	
1.079971e-02	2.491274e-03	1.226681e+00	4.492275e+01	5.786091e+00	2.546131e+05	1.015108e+05	2.882776e+02	1.084809e-01	1.549769e-01	0.000000e+00	
1.077403e-02	3.971043e-03	1.226688e+00	4.491963e+01	5.779596e+00	2.546144e+05	1.015113e+05	2.882775e+02	1.084709e-01	1.554423e-01	0.000000e+00	
1.074566e-02	5.488710e-03	1.226688e+00	4.492316e+01	5.776806e+00	2.546143e+05	1.015112e+05	2.882773e+02	1.084785e-01	1.553649e-01	0.000000e+00	
0.000000e+00	1.201176e-02	1.228401e+00	4.493406e+01	-8.871618e-02	2.550942e+05	1.017090e+05	2.884360e+02	1.074392e-01	3.203141e-01	0.000000e+00	
8.057115e-03	8.555467e-03	1.226878e+00	4.492369e+01	5.156017e+00	2.546666e+05	1.015333e+05	2.882954e+02	1.082800e-01	1.737972e-01	0.000000e+00	
6.707125e-03	9.331567e-03	1.227037e+00	4.492053e+01	4.658185e+00	2.547098e+05	1.015515e+05	2.883097e+02	1.081263e-01	1.889624e-01	0.000000e+00	
9.398024e-03	7.784760e-03	1.226769e+00	4.492259e+01	5.523658e+00	2.546365e+05	1.015206e+05	2.882848e+02	1.083929e-01	1.631851e-01	0.000000e+00	
5.364219e-03	1.011105e-02	1.227219e+00	4.492393e+01	4.014757e+00	2.547611e+05	1.015729e+05	2.883276e+02	1.079670e-01	2.068280e-01	0.000000e+00	
1.072344e-02	7.019270e-03	1.226690e+00	4.492345e+01	5.774569e+00	2.546149e+05	1.015115e+05	2.882774e+02	1.084783e-01	1.555630e-01	0.000000e+00	
4.049796e-03	1.089275e-02	1.227469e+00	4.491703e+01	3.232726e+00	2.548295e+05	1.016014e+05	2.883495e+02	1.077740e-01	2.305488e-01	0.000000e+00	
1.213140e-02	1.742315e-03	1.226626e+00	4.492239e+01	5.939430e+00	2.545988e+05	1.015047e+05	2.882732e+02	1.085332e-01	1.499350e-01	0.000000e+00	
2.778204e-03	1.168444e-02	1.227701e+00	4.492741e+01	2.296509e+00	2.548975e+05	1.016293e+05	2.883745e+02	1.076362e-01	2.538833e-01	0.000000e+00	
1.549501e-03	1.251287e-02	1.228056e+00	4.491738e+01	1.204355e+00	2.549946e+05	1.016690e+05	2.884037e+02	1.074739e-01	2.869963e-01	0.000000e+00	
1.209110e-02	3.216604e-03	1.226645e+00	4.491991e+01	5.933089e+00	2.546026e+05	1.015063e+05	2.882732e+02	1.085237e-01	1.512483e-01	0.000000e+00	
1.205869e-02	4.727962e-03	1.226639e+00	4.492000e+01	5.932628e+00	2.546011e+05	1.015057e+05	2.882730e+02	1.085243e-01	1.507656e-01	0.000000e+00	
1.203366e-02	6.259474e-03	1.226645e+00	4.492126e+01	5.930645e+00	2.546023e+05	1.015062e+05	2.882729e+02	1.085262e-01	1.511380e-01	0.000000e+00	
0.000000e+00	1.351324e-02	1.228419e+00	4.494184e+01	-1.100411e-01	2.550988e+05	1.017107e+05	2.884366e+02	1.074562e-01	3.217487e-01	0.000000e+00	
8.047852e-03	1.005130e-02	1.226879e+00	4.492239e+01	5.153027e+00	2.546670e+05	1.015335e+05	2.882955e+02	1.082759e-01	1.739455e-01	0.000000e+00	
9.383441e-03	9.295837e-03	1.226769e+00	4.492116e+01	5.520559e+00	2.546366e+05	1.015207e+05	2.882850e+02	1.083885e-01	1.632454e-01	0.000000e+00	
6.705142e-03	1.080775e-02	1.227036e+00	4.492004e+01	4.657043e+00	2.547097e+05	1.015515e+05	2.883097e+02	1.081249e-01	1.889224e-01	0.000000e+00	
1.070482e-02	8.542636e-03	1.226690e+00	4.492285e+01	5.772548e+00	2.546150e+05	1.015116e+05	2.882776e+02	1.084762e-01	1.556350e-01	0.000000e+00	
5.371519e-03	1.156192e-02	1.227220e+00	4.492319e+01	4.018748e+00	2.547614e+05	1.015730e+05	2.883276e+02	1.079660e-01	2.069172e-01	0.000000e+00	
1.201230e-02	7.791409e-03	1.226644e+00	4.492150e+01	5.930446e+00	2.546020e+05	1.015061e+05	2.882730e+02	1.085268e-01	1.510554e-01	0.000000e+00	
4.066450e-03	1.231246e-02	1.227460e+00	4.491810e+01	3.241986e+00	2.548273e+05	1.016004e+05	2.883492e+02	1.077790e-01	2.297934e-01	0.000000e+00	
1.340839e-02	2.510743e-03	1.226621e+00	4.491891e+01	5.997873e+00	2.545963e+05	1.015036e+05	2.882714e+02	1.085442e-01	1.490383e-01	0.000000e+00	
1.352987e-02	1.060063e-03	1.226611e+00	4.492227e+01	6.000307e+00	2.545941e+05	1.015027e+05	2.882713e+02	1.085539e-01	1.482863e-01	0.000000e+00	
2.799069e-03	1.306964e-02	1.227714e+00	4.492496e+01	2.319740e+00	2.548997e+05	1.016302e+05	2.883740e+02	1.076321e-01	2.546413e-01	0.000000e+00	
1.556746e-03	1.388224e-02	1.228038e+00	4.492394e+01	1.231167e+00	2.549902e+05	1.016672e+05	2.884027e+02	1.074931e-01	2.854545e-01	0.000000e+00	
1.335976e-02	3.992385e-03	1.226619e+00	4.492016e+01	5.999781e+00	2.545957e+05	1.015034e+05	2.882712e+02	1.085480e-01	1.488344e-01	0.000000e+00	
1.333244e-02	5.510339e-03	1.226621e+00	4.492020e+01	5.999934e+00	2.545960e+05	1.015035e+05	2.882710e+02	1.085480e-01	1.489291e-01	0.000000e+00	
1.330959e-02	7.042693e-03	1.226621e+00	4.492155e+01	6.000644e+00	2.545959e+05	1.015035e+05	2.882709e+02	1.085514e-01	1.488891e-01	0.000000e+00	
0.000000e+00	1.501471e-02	1.228400e+00	4.495220e+01	-1.663523e-01	2.550961e+05	1.017094e+05	2.884375e+02	1.074829e-01	3.207134e-01	0.000000e+00	
9.370048e-03	1.078714e-02	1.226770e+00	4.492046e+01	5.517611e+00	2.546368e+05	1.015208e+05	2.882851e+02	1.083859e-01	1.633384e-01	0.000000e+00	
8.040996e-03	1.152576e-02	1.226879e+00	4.492250e+01	5.150869e+00	2.546671e+05	1.015335e+05	2.882956e+02	1.082756e-01	1.739663e-01	0.000000e+00	
1.068724e-02	1.004790e-02	1.226691e+00	4.492166e+01	5.770172e+00	2.546152e+05	1.015116e+05	2.882777e+02	1.084726e-01	1.557084e-01	0.000000e+00	
6.708182e-03	1.226062e-02	1.227036e+00	4.492124e+01	4.658354e+00	2.547097e+05	1.015515e+05	2.883096e+02	1.081281e-01	1.889196e-01	0.000000e+00	
1.199195e-02	9.308597e-03	1.226645e+00	4.492071e+01	5.929235e+00	2.546023e+05	1.015062e+05	2.882731e+02	1.085244e-01	1.511664e-01	0.000000e+00	
5.388471e-03	1.298644e-02	1.227216e+00	4.492569e+01	4.025711e+00	2.547603e+05	1.015725e+05	2.883272e+02	1.079739e-01	2.065096e-01	0.000000e+00	
1.328733e-02	8.568517e-03	1.226622e+00	4.492126e+01	6.000821e+00	2.545960e+05	1.015035e+05	2.882709e+02	1.085508e-01	1.489298e-01	0.000000e+00	
4.103744e-03	1.369770e-02	1.227461e+00	4.492137e+01	3.265204e+00	2.548270e+05	1.016002e+05	2.883484e+02	1.077909e-01	2.296267e-01	0.000000e+00	
1.465728e-02	3.286526e-03	1.226617e+00	4.491672e+01	5.986970e+00	2.545956e+05	1.015034e+05	2.882718e+02	1.085359e-01	1.488516e-01	0.000000e+00	
1.474109e-02	1.827074e-03	1.226629e+00	4.491897e+01	5.979459e+00	2.545982e+05	1.015045e+05	2.882719e+02	1.085377e-01	1.497335e-01	0.000000e+00	
2.877390e-03	1.438691e-02	1.227683e+00	4.492881e+01	2.369803e+00	2.548921e+05	1.016271e+05	2.883722e+02	1.076506e-01	2.520016e-01	0.000000e+00	
1.744312e-03	1.504115e-02	1.228007e+00	4.492844e+01	1.441254e+00	2.549787e+05	1.016624e+05	2.883964e+02	1.075227e-01	2.814639e-01	0.000000e+00	
1.462632e-02	4.777013e-03	1.226625e+00	4.491817e+01	5.988715e+00	2.545971e+05	1.015040e+05	2.882715e+02	1.085392e-01	1.493381e-01	0.000000e+00	
1.460176e-02	6.297777e-03	1.226623e+00	4.491944e+01	5.991904e+00	2.545964e+05	1.015037e+05	2.882712e+02	1.085434e-01	1.491052e-01	0.000000e+00	
1.457748e-02	7.826658e-03	1.226624e+00	4.492016e+01	5.993549e+00	2.545967e+05	1.015038e+05	2.882711e+02	1.085456e-01	1.491787e-01	0.000000e+00	
1.538662e-03	1.619452e-02	1.228105e+00	4.492004e+01	1.214626e+00	2.550044e+05	1.016729e+05	2.884032e+02	1.074767e-01	2.902542e-01	0.000000e+00	
1.066942e-02	1.153422e-02	1.226692e+00	4.492151e+01	5.767723e+00	2.546154e+05	1.015117e+05	2.882778e+02	1.084714e-01	1.557941e-01	0.000000e+00	
9.356669e-03	1.226062e-02	1.226771e+00	4.492122e+01	5.514746e+00	2.546370e+05	1.015209e+05	2.882851e+02	1.083868e-01	1.634117e-01	0.000000e+00	
8.034534e-03	1.298341e-02	1.226881e+00	4.492432e+01	5.149229e+00	2.546674e+05	1.015337e+05	2.882956e+02	1.082793e-01	1.740686e-01	0.000000e+00	
1.197136e-02	1.080626e-02	1.226645e+00	4.492002e+01	5.927948e+00	2.546024e+05	1.015062e+05	2.882732e+02	1.085224e-01	1.511852e-01	0.000000e+00	
6.711211e-03	1.369816e-02	1.227035e+00	4.492433e+01	4.659501e+00	2.547095e+05	1.015513e+05	2.883095e+02	1.081359e-01	1.888132e-01	0.000000e+00	
1.326483e-02	1.007664e-02	1.226621e+00	4.492070e+01	6.000812e+00	2.545960e+05	1.015035e+05	2.882710e+02	1.085494e-01	1.489289e-01	0.000000e+00	
5.402072e-03	1.439934e-02	1.227217e+00	4.493014e+01	4.033503e+00	2.547604e+05	1.015725e+05	2.883269e+02	1.079861e-01	2.065047e-01	0.000000e+00	
1.455315e-02	9.344072e-03	1.226623e+00	4.491999e+01	5.995036e+00	2.545965e+05	1.015038e+05	2.882712e+02	1.085457e-01	1.491230e-01	0.000000e+00	
4.123338e-03	1.508189e-02	1.227450e+00	4.492865e+01	3.274404e+00	2.548245e+05	1.015992e+05	2.883479e+02	1.078109e-01	2.287172e-01	0.000000e+00	
1.592224e-02	4.058226e-03	1.226647e+00	4.491621e+01	5.907378e+00	2.546035e+05	1.015068e+05	2.882740e+02	1.085065e-01	1.516343e-01	0.000000e+00	
1.594854e-02	2.629376e-03	1.226651e+00	4.491953e+01	5.905217e+00	2.546044e+05	1.015071e+05	2.882741e+02	1.085134e-01	1.519135e-01	0.000000e+00	
1.597084e-02	1.244778e-03	1.226652e+00	4.492374e+01	5.908216e+00	2.546045e+05	1.015071e+05	2.882738e+02	1.085242e-01	1.518906e-01	0.000000e+00	
2.867734e-03	1.573309e-02	1.227702e+00	4.494382e+01	2.365431e+00	2.548963e+05	1.016285e+05	2.883719e+02	1.076843e-01	2.532293e-01	0.000000e+00	
0.000000e+00	1.651618e-02	1.228362e+00	4.493496e+01	-1.217016e-01	2.550871e+05	1.017061e+05	2.884369e+02	1.074447e-01	3.179280e-01	0.000000e+00	
1.589415e-02	5.554688e-03	1.226647e+00	4.491812e+01	5.911115e+00	2.546032e+05	1.015066e+05	2.882737e+02	1.085123e-01	1.515228e-01	0.000000e+00	
1.586619e-02	7.080910e-03	1.226648e+00	4.491951e+01	5.914603e+00	2.546033e+05	1.015066e+05	2.882735e+02	1.085166e-01	1.515309e-01	0.000000e+00	
1.583923e-02	8.606398e-03	1.226647e+00	4.492030e+01	5.918008e+00	2.546030e+05	1.015065e+05	2.882734e+02	1.085197e-01	1.514163e-01	0.000000e+00	
1.512335e-03	1.755977e-02	1.228085e+00	4.490941e+01	1.175385e+00	2.550011e+05	1.016718e+05	2.884046e+02	1.074503e-01	2.892822e-01	0.000000e+00	
1.195009e-02	1.228744e-02	1.226645e+00	4.492039e+01	5.926529e+00	2.546025e+05	1.015063e+05	2.882732e+02	1.085228e-01	1.512371e-01	0.000000e+00	
1.065064e-02	1.300631e-02	1.226693e+00	4.492268e+01	5.765332e+00	2.546157e+05	1.015118e+05	2.882778e+02	1.084733e-01	1.558742e-01	0.000000e+00	
9.341614e-03	1.372198e-02	1.226772e+00	4.492323e+01	5.511914e+00	2.546374e+05	1.015210e+05	2.882851e+02	1.083906e-01	1.635190e-01	0.000000e+00	
8.024047e-03	1.443120e-02	1.226882e+00	4.492661e+01	5.146670e+00	2.546678e+05	1.015338e+05	2.882955e+02	1.082840e-01	1.741623e-01	0.000000e+00	
1.324190e-02	1.156654e-02	1.226621e+00	4.492044e+01	6.000528e+00	2.545960e+05	1.015035e+05	2.882711e+02	1.085487e-01	1.489478e-01	0.000000e+00	
6.703652e-03	1.512912e-02	1.227037e+00	4.492661e+01	4.657635e+00	2.547099e+05	1.015514e+05	2.883095e+02	1.081407e-01	1.889137e-01	0.000000e+00	
1.452881e-02	1.084314e-02	1.226623e+00	4.491955e+01	5.996042e+00	2.545965e+05	1.015037e+05	2.882712e+02	1.085450e-01	1.491084e-01	0.000000e+00	
5.389073e-03	1.581012e-02	1.227218e+00	4.493056e+01	4.028085e+00	2.547607e+05	1.015726e+05	2.883270e+02	1.079859e-01	2.065972e-01	0.000000e+00	
1.581323e-02	1.011570e-02	1.226647e+00	4.492024e+01	5.920398e+00	2.546030e+05	1.015065e+05	2.882734e+02	1.085203e-01	1.513933e-01	0.000000e+00	
4.082282e-03	1.646307e-02	1.227454e+00	4.492894e+01	3.254679e+00	2.548258e+05	1.015997e+05	2.883485e+02	1.078078e-01	2.291619e-01	0.000000e+00	
1.721195e-02	3.305979e-03	1.226693e+00	4.491764e+01	5.771009e+00	2.546157e+05	1.015119e+05	2.882780e+02	1.084630e-01	1.559323e-01	0.000000e+00	
1.718672e-02	4.800381e-03	1.226691e+00	4.491642e+01	5.772880e+00	2.546152e+05	1.015117e+05	2.882779e+02	1.084609e-01	1.557570e-01	0.000000e+00	
1.718109e-02	1.844481e-03	1.226686e+00	4.492308e+01	5.777245e+00	2.546141e+05	1.015112e+05	2.882776e+02	1.084785e-01	1.553222e-01	0.000000e+00	
2.770237e-03	1.704385e-02	1.227687e+00	4.493997e+01	2.304970e+00	2.548948e+05	1.016280e+05	2.883740e+02	1.076685e-01	2.528059e-01	0.000000e+00	
0.000000e+00	1.801765e-02	1.228386e+00	4.493345e+01	-1.095747e-01	2.550915e+05	1.017079e+05	2.884363e+02	1.074391e-01	3.194160e-01	0.000000e+00	
1.715491e-02	6.326575e-03	1.226690e+00	4.491705e+01	5.777603e+00	2.546148e+05	1.015115e+05	2.882776e+02	1.084640e-01	1.556064e-01	0.000000e+00	
1.712468e-02	7.860704e-03	1.226690e+00	4.491868e+01	5.782254e+00	2.546146e+05	1.015114e+05	2.882774e+02	1.084693e-01	1.555417e-01	0.000000e+00	
1.709666e-02	9.382030e-03	1.226689e+00	4.491922e+01	5.786687e+00	2.546143e+05	1.015113e+05	2.882773e+02	1.084721e-01	1.554148e-01	0.000000e+00	
1.840894e-02	1.087352e-03	1.226731e+00	4.492134e+01	5.600616e+00	2.546272e+05	1.015168e+05	2.882829e+02	1.084163e-01	1.599913e-01	0.000000e+00	
2.730571e-03	1.842071e-02	1.227715e+00	4.492757e+01	2.262749e+00	2.549010e+05	1.016308e+05	2.883753e+02	1.076311e-01	2.550842e-01	0.000000e+00	
1.494383e-03	1.899111e-02	1.228078e+00	4.490836e+01	1.159999e+00	2.549999e+05	1.016713e+05	2.884049e+02	1.074474e-01	2.888915e-01	0.000000e+00	
1.321847e-02	1.304311e-02	1.226621e+00	4.492126e+01	6.000354e+00	2.545961e+05	1.015036e+05	2.882710e+02	1.085506e-01	1.489564e-01	0.000000e+00	
1.192791e-02	1.375784e-02	1.226646e+00	4.492183e+01	5.925251e+00	2.546027e+05	1.015063e+05	2.882732e+02	1.085257e-01	1.512834e-01	0.000000e+00	
1.063013e-02	1.446986e-02	1.226694e+00	4.492456e+01	5.762958e+00	2.546161e+05	1.015120e+05	2.882778e+02	1.084769e-01	1.559798e-01	0.000000e+00	
9.322821e-03	1.517682e-02	1.226774e+00	4.492499e+01	5.508410e+00	2.546379e+05	1.015212e+05	2.882852e+02	1.083936e-01	1.636587e-01	0.000000e+00	
8.005291e-03	1.587455e-02	1.226885e+00	4.492760e+01	5.141755e+00	2.546684e+05	1.015340e+05	2.882956e+02	1.082847e-01	1.743734e-01	0.000000e+00	
1.450441e-02	1.232634e-02	1.226623e+00	4.491977e+01	5.996973e+00	2.545964e+05	1.015037e+05	2.882712e+02	1.085459e-01	1.490786e-01	0.000000e+00	
6.679541e-03	1.655745e-02	1.227040e+00	4.492588e+01	4.648561e+00	2.547109e+05	1.015519e+05	2.883098e+02	1.081364e-01	1.892580e-01	0.000000e+00	
1.578786e-02	1.160694e-02	1.226646e+00	4.492018e+01	5.922600e+00	2.546027e+05	1.015064e+05	2.882733e+02	1.085210e-01	1.513130e-01	0.000000e+00	
5.349864e-03	1.721754e-02	1.227225e+00	4.492906e+01	4.008285e+00	2.547626e+05	1.015734e+05	2.883276e+02	1.079773e-01	2.072542e-01	0.000000e+00	
1.707016e-02	1.088355e-02	1.226688e+00	4.491944e+01	5.790234e+00	2.546141e+05	1.015112e+05	2.882772e+02	1.084738e-01	1.553398e-01	0.000000e+00	
4.024073e-03	1.784016e-02	1.227480e+00	4.492099e+01	3.216600e+00	2.548321e+05	1.016023e+05	2.883498e+02	1.077796e-01	2.313794e-01	0.000000e+00	
1.847010e-02	4.034485e-03	1.226746e+00	4.491840e+01	5.587878e+00	2.546305e+05	1.015182e+05	2.882833e+02	1.084041e-01	1.611491e-01	0.000000e+00	
1.847912e-02	2.547148e-03	1.226762e+00	4.492063e+01	5.583565e+00	2.546338e+05	1.015195e+05	2.882832e+02	1.084067e-01	1.622416e-01	0.000000e+00	
1.844029e-02	5.562130e-03	1.226752e+00	4.491745e+01	5.589389e+00	2.546315e+05	1.015186e+05	2.882831e+02	1.084018e-01	1.614954e-01	0.000000e+00	
0.000000e+00	1.951912e-02	1.228391e+00	4.493351e+01	-1.048973e-01	2.550924e+05	1.017082e+05	2.884362e+02	1.074388e-01	3.197021e-01	0.000000e+00	
1.840879e-02	7.105350e-03	1.226747e+00	4.491785e+01	5.595246e+00	2.546303e+05	1.015181e+05	2.882829e+02	1.084050e-01	1.610800e-01	0.000000e+00	
1.837936e-02	8.640253e-03	1.226747e+00	4.491914e+01	5.600072e+00	2.546303e+05	1.015181e+05	2.882827e+02	1.084095e-01	1.610661e-01	0.000000e+00	
1.835190e-02	1.015457e-02	1.226745e+00	4.491971e+01	5.605205e+00	2.546298e+05	1.015178e+05	2.882825e+02	1.084126e-01	1.608674e-01	0.000000e+00	
1.977224e-02	1.797840e-03	1.226820e+00	4.491563e+01	5.343652e+00	2.546509e+05	1.015268e+05	2.882904e+02	1.083190e-01	1.683532e-01	0.000000e+00	
2.707983e-03	1.984637e-02	1.227717e+00	4.492411e+01	2.243394e+00	2.549019e+05	1.016312e+05	2.883759e+02	1.076202e-01	2.554119e-01	0.000000e+00	
3.986968e-03	1.924626e-02	1.227478e+00	4.491583e+01	3.192840e+00	2.548322e+05	1.016025e+05	2.883506e+02	1.077633e-01	2.314983e-01	0.000000e+00	
1.477650e-03	2.045351e-02	1.228082e+00	4.491144e+01	1.148676e+00	2.550008e+05	1.016716e+05	2.884050e+02	1.074537e-01	2.891617e-01	0.000000e+00	
1.447988e-02	1.379922e-02	1.226623e+00	4.492085e+01	5.998019e+00	2.545964e+05	1.015037e+05	2.882711e+02	1.085488e-01	1.490516e-01	0.000000e+00	
1.319451e-02	1.451186e-02	1.226622e+00	4.492277e+01	6.000321e+00	2.545962e+05	1.015036e+05	2.882710e+02	1.085541e-01	1.489743e-01	0.000000e+00	
1.190462e-02	1.522241e-02	1.226647e+00	4.492341e+01	5.924061e+00	2.546029e+05	1.015064e+05	2.882731e+02	1.085290e-01	1.513417e-01	0.000000e+00	
1.060734e-02	1.592925e-02	1.226696e+00	4.492564e+01	5.760294e+00	2.546164e+05	1.015121e+05	2.882778e+02	1.084785e-01	1.560919e-01	0.000000e+00	
9.299467e-03	1.662906e-02	1.226776e+00	4.492494e+01	5.503763e+00	2.546384e+05	1.015214e+05	2.882853e+02	1.083919e-01	1.638342e-01	0.000000e+00	
7.978628e-03	1.731685e-02	1.226887e+00	4.492587e+01	5.133991e+00	2.546690e+05	1.015343e+05	2.882959e+02	1.082782e-01	1.746022e-01	0.000000e+00	
1.576277e-02	1.308484e-02	1.226645e+00	4.492080e+01	5.924599e+00	2.546026e+05	1.015063e+05	2.882733e+02	1.085231e-01	1.512651e-01	0.000000e+00	
6.645574e-03	1.798628e-02	1.227044e+00	4.492241e+01	4.635366e+00	2.547119e+05	1.015523e+05	2.883103e+02	1.081245e-01	1.896382e-01	0.000000e+00	
1.704449e-02	1.236821e-02	1.226687e+00	4.491969e+01	5.793500e+00	2.546138e+05	1.015111e+05	2.882771e+02	1.084755e-01	1.552373e-01	0.000000e+00	
5.308157e-03	1.863027e-02	1.227226e+00	4.492459e+01	3.988177e+00	2.547632e+05	1.015738e+05	2.883284e+02	1.079622e-01	2.075585e-01	0.000000e+00	
1.832569e-02	1.164832e-02	1.226744e+00	4.492017e+01	5.609451e+00	2.546295e+05	1.015177e+05	2.882824e+02	1.084150e-01	1.607734e-01	0.000000e+00	
1.971851e-02	4.797622e-03	1.226820e+00	4.491744e+01	5.357685e+00	2.546505e+05	1.015266e+05	2.882899e+02	1.083274e-01	1.681925e-01	0.000000e+00	
1.974704e-02	3.274718e-03	1.226827e+00	4.492075e+01	5.350555e+00	2.546521e+05	1.015272e+05	2.882900e+02	1.083326e-01	1.686851e-01	0.000000e+00	
1.968912e-02	6.344301e-03	1.226822e+00	4.491777e+01	5.361925e+00	2.546507e+05	1.015267e+05	2.882897e+02	1.083293e-01	1.682591e-01	0.000000e+00	
0.000000e+00	2.102059e-02	1.228392e+00	4.493435e+01	-1.056429e-01	2.550927e+05	1.017083e+05	2.884362e+02	1.074407e-01	3.198039e-01	0.000000e+00	
1.966041e-02	7.890787e-03	1.226819e+00	4.491760e+01	5.367834e+00	2.546499e+05	1.015263e+05	2.882894e+02	1.083309e-01	1.679717e-01	0.000000e+00	
1.963292e-02	9.419027e-03	1.226818e+00	4.491871e+01	5.373318e+00	2.546497e+05	1.015262e+05	2.882892e+02	1.083351e-01	1.678894e-01	0.000000e+00	
1.960650e-02	1.092412e-02	1.226816e+00	4.491923e+01	5.378963e+00	2.546492e+05	1.015260e+05	2.882891e+02	1.083382e-01	1.677078e-01	0.000000e+00	
2.103765e-02	2.567139e-03	1.226892e+00	4.491326e+01	5.055904e+00	2.546719e+05	1.015358e+05	2.882988e+02	1.082262e-01	1.758353e-01	0.000000e+00	
2.115052e-02	1.104294e-03	1.226930e+00	4.491327e+01	5.015823e+00	2.546804e+05	1.015392e+05	2.882998e+02	1.082120e-01	1.787210e-01	0.000000e+00	
3.963372e-03	2.068259e-02	1.227485e+00	4.491419e+01	3.175433e+00	2.548337e+05	1.016032e+05	2.883510e+02	1.077558e-01	2.320529e-01	0.000000e+00	
2.691427e-03	2.130173e-02	1.227723e+00	4.492505e+01	2.230861e+00	2.549034e+05	1.016318e+05	2.883761e+02	1.076203e-01	2.559176e-01	0.000000e+00	
5.276828e-03	2.006047e-02	1.227234e+00	4.492060e+01	3.970049e+00	2.547652e+05	1.015747e+05	2.883290e+02	1.079480e-01	2.082819e-01	0.000000e+00	
1.461939e-03	2.193160e-02	1.228084e+00	4.491346e+01	1.139374e+00	2.550015e+05	1.016719e+05	2.884052e+02	1.074577e-01	2.893860e-01	0.000000e+00	
1.445514e-02	1.526656e-02	1.226623e+00	4.492226e+01	5.999193e+00	2.545964e+05	1.015036e+05	2.882710e+02	1.085525e-01	1.490295e-01	0.000000e+00	
1.573777e-02	1.455494e-02	1.226645e+00	4.492204e+01	5.926763e+00	2.546025e+05	1.015062e+05	2.882731e+02	1.085268e-01	1.512016e-01	0.000000e+00	
1.317003e-02	1.597675e-02	1.226623e+00	4.492398e+01	6.000349e+00	2.545963e+05	1.015036e+05	2.882709e+02	1.085570e-01	1.489939e-01	0.000000e+00	
1.188024e-02	1.668444e-02	1.226648e+00	4.492390e+01	5.922661e+00	2.546031e+05	1.015065e+05	2.882732e+02	1.085297e-01	1.514073e-01	0.000000e+00	
1.058252e-02	1.738730e-02	1.226697e+00	4.492499e+01	5.756948e+00	2.546168e+05	1.015123e+05	2.882780e+02	1.084758e-01	1.562201e-01	0.000000e+00	
9.272987e-03	1.808136e-02	1.226778e+00	4.492287e+01	5.497677e+00	2.546389e+05	1.015216e+05	2.882856e+02	1.083850e-01	1.640407e-01	0.000000e+00	
7.948925e-03	1.876135e-02	1.226890e+00	4.492273e+01	5.124203e+00	2.546697e+05	1.015346e+05	2.882963e+02	1.082678e-01	1.749004e-01	0.000000e+00	
1.701921e-02	1.384203e-02	1.226686e+00	4.492059e+01	5.796622e+00	2.546136e+05	1.015110e+05	2.882770e+02	1.084787e-01	1.551532e-01	0.000000e+00	
6.612712e-03	1.942184e-02	1.227049e+00	4.491853e+01	4.621020e+00	2.547132e+05	1.015529e+05	2.883108e+02	1.081111e-01	1.901413e-01	0.000000e+00	
1.830013e-02	1.312744e-02	1.226743e+00	4.492076e+01	5.613554e+00	2.546292e+05	1.015175e+05	2.882823e+02	1.084178e-01	1.606313e-01	0.000000e+00	
1.958077e-02	1.241048e-02	1.226815e+00	4.491992e+01	5.384095e+00	2.546489e+05	1.015259e+05	2.882890e+02	1.083414e-01	1.675833e-01	0.000000e+00	
2.099268e-02	4.056808e-03	1.226914e+00	4.491937e+01	5.065001e+00	2.546760e+05	1.015373e+05	2.882982e+02	1.082414e-01	1.771023e-01	0.000000e+00	
2.096468e-02	5.589271e-03	1.226901e+00	4.491781e+01	5.076083e+00	2.546731e+05	1.015362e+05	2.882979e+02	1.082418e-01	1.761649e-01	0.000000e+00	
2.093864e-02	7.138026e-03	1.226905e+00	4.491844e+01	5.081197e+00	2.546737e+05	1.015364e+05	2.882977e+02	1.082444e-01	1.763450e-01	0.000000e+00	
0.000000e+00	2.252206e-02	1.228392e+00	4.493446e+01	-1.092960e-01	2.550929e+05	1.017084e+05	2.884364e+02	1.074409e-01	3.198523e-01	0.000000e+00	
2.091256e-02	8.677559e-03	1.226901e+00	4.491841e+01	5.088023e+00	2.546727e+05	1.015360e+05	2.882974e+02	1.082466e-01	1.759960e-01	0.000000e+00	
2.088668e-02	1.019496e-02	1.226900e+00	4.491924e+01	5.094169e+00	2.546725e+05	1.015358e+05	2.882973e+02	1.082503e-01	1.758954e-01	0.000000e+00	
2.086113e-02	1.169042e-02	1.226898e+00	4.491981e+01	5.100678e+00	2.546719e+05	1.015356e+05	2.882971e+02	1.082536e-01	1.756779e-01	0.000000e+00	
2.226877e-02	3.349975e-03	1.226997e+00	4.491270e+01	4.730235e+00	2.547003e+05	1.015477e+05	2.883081e+02	1.081294e-01	1.857673e-01	0.000000e+00	
2.235129e-02	1.889431e-03	1.227032e+00	4.491802e+01	4.704298e+00	2.547080e+05	1.015507e+05	2.883087e+02	1.081324e-01	1.883267e-01	0.000000e+00	
3.946849e-03	2.214046e-02	1.227486e+00	4.491555e+01	3.164935e+00	2.548343e+05	1.016034e+05	2.883513e+02	1.077571e-01	2.322453e-01	0.000000e+00	
5.254545e-03	2.150909e-02	1.227237e+00	4.492013e+01	3.958103e+00	2.547659e+05	1.015750e+05	2.883293e+02	1.079441e-01	2.085331e-01	0.000000e+00	
2.677846e-03	2.277377e-02	1.227727e+00	4.492615e+01	2.221808e+00	2.549044e+05	1.016321e+05	2.883763e+02	1.076215e-01	2.562344e-01	0.000000e+00	
6.585885e-03	2.086853e-02	1.227050e+00	4.491671e+01	4.609513e+00	2.547137e+05	1.015532e+05	2.883111e+02	1.081038e-01	1.903549e-01	0.000000e+00	
1.447133e-03	2.341762e-02	1.228087e+00	4.491412e+01	1.130042e+00	2.550024e+05	1.016722e+05	2.884054e+02	1.074585e-01	2.896615e-01	0.000000e+00	