TITLE = "SU2 Simulation"
VARIABLES = "Iteration","CL","CD","CSF","CMx","CMy","CMz","CFx","CFy","CFz","CL/CD","AoA","Custom_ObjFunc","Res_Flow[0]","Res_Flow[1]","Res_Flow[2]","Res_Flow[3]","Res_Flow[4]","Linear_Solver_Iterations","CFL_Number","Time(min)"
ZONE T= "Convergence history"
           0, 0.00000000e+00, 0.00000000e+00, 0.00000000e+00, 0.00000000e+00, 0.00000000e+00, 0.00000000e+00, 0.00000000e+00, 0.00000000e+00, 0.00000000e+00, 0.00000000e+00, 0.00000000e+00, 0.00000000e+00, -3.74585612e+00, -1.27340018e+00, -1.38588530e+01, 1.69476149e+00, 0.00000000e+00, 5.0000000000, 6.0000000000, 0.0019361667
           1, 0.00000000e+00, 0.00000000e+00, 0.00000000e+00, 0.00000000e+00, 0.00000000e+00, 0.00000000e+00, 0.00000000e+00, 0.00000000e+00, 0.00000000e+00, 0.00000000e+00, 0.00000000e+00, 0.00000000e+00, -3.99212145e+00, -1.52404367e+00, -3.30466748e+00, 1.45041840e+00, 0.00000000e+00, 5.0000000000, 6.0000000000, 0.0038884333
           2, 0.00000000e+00, 0.00000000e+00, 0.00000000e+00, 0.00000000e+00, 0.00000000e+00, 0.00000000e+00, 0.00000000e+00, 0.00000000e+00, 0.00000000e+00, 0.00000000e+00, 0.00000000e+00, 0.00000000e+00, -4.12301928e+00, -1.65008885e+00, -3.12158579e+00, 1.32031772e+00, 0.00000000e+00, 5.0000000000, 6.0000000000, 0.0056944500
           3, 0.00000000e+00, 0.00000000e+00, 0.00000000e+00, 0.00000000e+00, 0.00000000e+00, 0.00000000e+00, 0.00000000e+00, 0.00000000e+00, 0.00000000e+00, 0.00000000e+00, 0.00000000e+00, 0.00000000e+00, -4.17404025e+00, -1.70207834e+00, -2.97832365e+00, 1.26828352e+00, 0.00000000e+00, 5.0000000000, 6.0000000000, 0.0075232167
           4, 0.00000000e+00, 0.00000000e+00, 0.00000000e+00, 0.00000000e+00, 0.00000000e+00, 0.00000000e+00, 0.00000000e+00, 0.00000000e+00, 0.00000000e+00, 0.00000000e+00, 0.00000000e+00, 0.00000000e+00, -4.20977005e+00, -1.73948802e+00, -2.87390877e+00, 1.23216028e+00, 0.00000000e+00, 5.0000000000, 6.0000000000, 0.0094331667
           5, 0.00000000e+00, 0.00000000e+00, 0.00000000e+00, 0.00000000e+00, 0.00000000e+00, 0.00000000e+00, 0.00000000e+00, 0.00000000e+00, 0.00000000e+00, 0.00000000e+00, 0.00000000e+00, 0.00000000e+00, -4.24199226e+00, -1.77120070e+00, -2.79024201e+00, 1.19967931e+00, 0.00000000e+00, 5.0000000000, 6.0000000000, 0.0112587667
           6, 0.00000000e+00, 0.00000000e+00, 0.00000000e+00, 0.00000000e+00, 0.00000000e+00, 0.00000000e+00, 0.00000000e+00, 0.00000000e+00, 0.00000000e+00, 0.00000000e+00, 0.00000000e+00, 0.00000000e+00, -4.26854169e+00, -1.79699409e+00, -2.72566193e+00, 1.17283007e+00, 0.00000000e+00, 5.0000000000, 6.0000000000, 0.0131374667
           7, 0.00000000e+00, 0.00000000e+00, 0.00000000e+00, 0.00000000e+00, 0.00000000e+00, 0.00000000e+00, 0.00000000e+00, 0.00000000e+00, 0.00000000e+00, 0.00000000e+00, 0.00000000e+00, 0.00000000e+00, -4.28944792e+00, -1.81756989e+00, -2.67780540e+00, 1.15174176e+00, 0.00000000e+00, 5.0000000000, 6.0000000000, 0.0149842833
           8, 0.00000000e+00, 0.00000000e+00, 0.00000000e+00, 0.00000000e+00, 0.00000000e+00, 0.00000000e+00, 0.00000000e+00, 0.00000000e+00, 0.00000000e+00, 0.00000000e+00, 0.00000000e+00, 0.00000000e+00, -4.30608966e+00, -1.83376676e+00, -2.64178494e+00, 1.13513409e+00, 0.00000000e+00, 5.0000000000, 6.0000000000, 0.0168186333
           9, 0.00000000e+00, 0.00000000e+00, 0.00000000e+00, 0.00000000e+00, 0.00000000e+00, 0.00000000e+00, 0.00000000e+00, 0.00000000e+00, 0.00000000e+00, 0.00000000e+00, 0.00000000e+00, 0.00000000e+00, -4.31942023e+00, -1.84611200e+00, -2.61338985e+00, 1.12207142e+00, 0.00000000e+00, 5.0000000000, 6.0000000000, 0.0186157500
          10, 0.00000000e+00, 0.00000000e+00, 0.00000000e+00, 0.00000000e+00, 0.00000000e+00, 0.00000000e+00, 0.00000000e+00, 0.00000000e+00, 0.00000000e+00, 0.00000000e+00, 0.00000000e+00, 0.00000000e+00, -4.32986862e+00, -1.85490128e+00, -2.59017026e+00, 1.11213241e+00, 0.00000000e+00, 5.0000000000, 6.0000000000, 0.0204624333
          11, 0.00000000e+00, 0.00000000e+00, 0.00000000e+00, 0.00000000e+00, 0.00000000e+00, 0.00000000e+00, 0.00000000e+00, 0.00000000e+00, 0.00000000e+00, 0.00000000e+00, 0.00000000e+00, 0.00000000e+00, -4.33765199e+00, -1.86030467e+00, -2.57085369e+00, 1.10511394e+00, 0.00000000e+00, 5.0000000000, 6.0000000000, 0.0222255000
          12, 0.00000000e+00, 0.00000000e+00, 0.00000000e+00, 0.00000000e+00, 0.00000000e+00, 0.00000000e+00, 0.00000000e+00, 0.00000000e+00, 0.00000000e+00, 0.00000000e+00, 0.00000000e+00, 0.00000000e+00, -4.34295123e+00, -1.86249074e+00, -2.55465171e+00, 1.10083860e+00, 0.00000000e+00, 5.0000000000, 6.0000000000, 0.0240490000
          13, 0.00000000e+00, 0.00000000e+00, 0.00000000e+00, 0.00000000e+00, 0.00000000e+00, 0.00000000e+00, 0.00000000e+00, 0.00000000e+00, 0.00000000e+00, 0.00000000e+00, 0.00000000e+00, 0.00000000e+00, -4.34600077e+00, -1.86176767e+00, -2.54096481e+00, 1.09904649e+00, 0.00000000e+00, 5.0000000000, 6.0000000000, 0.0258332833
          14, 0.00000000e+00, 0.00000000e+00, 0.00000000e+00, 0.00000000e+00, 0.00000000e+00, 0.00000000e+00, 0.00000000e+00, 0.00000000e+00, 0.00000000e+00, 0.00000000e+00, 0.00000000e+00, 0.00000000e+00, -4.34715151e+00, -1.85867673e+00, -2.52931613e+00, 1.09932485e+00, 0.00000000e+00, 5.0000000000, 6.0000000000, 0.0276458000
          15, 0.00000000e+00, 0.00000000e+00, 0.00000000e+00, 0.00000000e+00, 0.00000000e+00, 0.00000000e+00, 0.00000000e+00, 0.00000000e+00, 0.00000000e+00, 0.00000000e+00, 0.00000000e+00, 0.00000000e+00, -4.34689555e+00, -1.85399244e+00, -2.51932922e+00, 1.10108910e+00, 0.00000000e+00, 5.0000000000, 6.0000000000, 0.0299060333
          16, 0.00000000e+00, 0.00000000e+00, 0.00000000e+00, 0.00000000e+00, 0.00000000e+00, 0.00000000e+00, 0.00000000e+00, 0.00000000e+00, 0.00000000e+00, 0.00000000e+00, 0.00000000e+00, 0.00000000e+00, -4.34583905e+00, -1.84863531e+00, -2.51070317e+00, 1.10362625e+00, 0.00000000e+00, 5.0000000000, 6.0000000000, 0.0321298500
          17, 0.00000000e+00, 0.00000000e+00, 0.00000000e+00, 0.00000000e+00, 0.00000000e+00, 0.00000000e+00, 0.00000000e+00, 0.00000000e+00, 0.00000000e+00, 0.00000000e+00, 0.00000000e+00, 0.00000000e+00, -4.34463155e+00, -1.84353689e+00, -2.50319305e+00, 1.10618625e+00, 0.00000000e+00, 5.0000000000, 6.0000000000, 0.0340311667
          18, 0.00000000e+00, 0.00000000e+00, 0.00000000e+00, 0.00000000e+00, 0.00000000e+00, 0.00000000e+00, 0.00000000e+00, 0.00000000e+00, 0.00000000e+00, 0.00000000e+00, 0.00000000e+00, 0.00000000e+00, -4.34387360e+00, -1.83950241e+00, -2.49660010e+00, 1.10809146e+00, 0.00000000e+00, 5.0000000000, 6.0000000000, 0.0359314333
          19, 0.00000000e+00, 0.00000000e+00, 0.00000000e+00, 0.00000000e+00, 0.00000000e+00, 0.00000000e+00, 0.00000000e+00, 0.00000000e+00, 0.00000000e+00, 0.00000000e+00, 0.00000000e+00, 0.00000000e+00, -4.34402918e+00, -1.83710488e+00, -2.49076718e+00, 1.10883384e+00, 0.00000000e+00, 5.0000000000, 6.0000000000, 0.0378504167
          20, 0.00000000e+00, 0.00000000e+00, 0.00000000e+00, 0.00000000e+00, 0.00000000e+00, 0.00000000e+00, 0.00000000e+00, 0.00000000e+00, 0.00000000e+00, 0.00000000e+00, 0.00000000e+00, 0.00000000e+00, -4.34536522e+00, -1.83662779e+00, -2.48557424e+00, 1.10813693e+00, 0.00000000e+00, 5.0000000000, 6.0000000000, 0.0397391833
          21, 0.00000000e+00, 0.00000000e+00, 0.00000000e+00, 0.00000000e+00, 0.00000000e+00, 0.00000000e+00, 0.00000000e+00, 0.00000000e+00, 0.00000000e+00, 0.00000000e+00, 0.00000000e+00, 0.00000000e+00, -4.34793160e+00, -1.83806055e+00, -2.48093239e+00, 1.10597134e+00, 0.00000000e+00, 5.0000000000, 6.0000000000, 0.0416633167
          22, 0.00000000e+00, 0.00000000e+00, 0.00000000e+00, 0.00000000e+00, 0.00000000e+00, 0.00000000e+00, 0.00000000e+00, 0.00000000e+00, 0.00000000e+00, 0.00000000e+00, 0.00000000e+00, 0.00000000e+00, -4.35158391e+00, -1.84114228e+00, -2.47677656e+00, 1.10252405e+00, 0.00000000e+00, 5.0000000000, 6.0000000000, 0.0435570667
          23, 0.00000000e+00, 0.00000000e+00, 0.00000000e+00, 0.00000000e+00, 0.00000000e+00, 0.00000000e+00, 0.00000000e+00, 0.00000000e+00, 0.00000000e+00, 0.00000000e+00, 0.00000000e+00, 0.00000000e+00, -4.35604121e+00, -1.84544338e+00, -2.47305862e+00, 1.09813095e+00, 0.00000000e+00, 5.0000000000, 6.0000000000, 0.0454367833
          24, 0.00000000e+00, 0.00000000e+00, 0.00000000e+00, 0.00000000e+00, 0.00000000e+00, 0.00000000e+00, 0.00000000e+00, 0.00000000e+00, 0.00000000e+00, 0.00000000e+00, 0.00000000e+00, 0.00000000e+00, -4.36096273e+00, -1.85046835e+00, -2.46974186e+00, 1.09318974e+00, 0.00000000e+00, 5.0000000000, 6.0000000000, 0.0473081667
          25, 0.00000000e+00, 0.00000000e+00, 0.00000000e+00, 0.00000000e+00, 0.00000000e+00, 0.00000000e+00, 0.00000000e+00, 0.00000000e+00, 0.00000000e+00, 0.00000000e+00, 0.00000000e+00, 0.00000000e+00, -4.36602317e+00, -1.85575674e+00, -2.46679748e+00, 1.08807529e+00, 0.00000000e+00, 5.0000000000, 6.0000000000, 0.0492657667
          26, 0.00000000e+00, 0.00000000e+00, 0.00000000e+00, 0.00000000e+00, 0.00000000e+00, 0.00000000e+00, 0.00000000e+00, 0.00000000e+00, 0.00000000e+00, 0.00000000e+00, 0.00000000e+00, 0.00000000e+00, -4.37096718e+00, -1.86095853e+00, -2.46420247e+00, 1.08307856e+00, 0.00000000e+00, 5.0000000000, 6.0000000000, 0.0511575667
          27, 0.00000000e+00, 0.00000000e+00, 0.00000000e+00, 0.00000000e+00, 0.00000000e+00, 0.00000000e+00, 0.00000000e+00, 0.00000000e+00, 0.00000000e+00, 0.00000000e+00, 0.00000000e+00, 0.00000000e+00, -4.37563233e+00, -1.86586774e+00, -2.46193797e+00, 1.07838149e+00, 0.00000000e+00, 5.0000000000, 6.0000000000, 0.0531888500
          28, 0.00000000e+00, 0.00000000e+00, 0.00000000e+00, 0.00000000e+00, 0.00000000e+00, 0.00000000e+00, 0.00000000e+00, 0.00000000e+00, 0.00000000e+00, 0.00000000e+00, 0.00000000e+00, 0.00000000e+00, -4.37994230e+00, -1.87041395e+00, -2.45998795e+00, 1.07406592e+00, 0.00000000e+00, 5.0000000000, 6.0000000000, 0.0550314833
          29, 0.00000000e+00, 0.00000000e+00, 0.00000000e+00, 0.00000000e+00, 0.00000000e+00, 0.00000000e+00, 0.00000000e+00, 0.00000000e+00, 0.00000000e+00, 0.00000000e+00, 0.00000000e+00, 0.00000000e+00, -4.38388269e+00, -1.87462489e+00, -2.45833741e+00, 1.07014256e+00, 0.00000000e+00, 5.0000000000, 6.0000000000, 0.0569342833
          30, 0.00000000e+00, 0.00000000e+00, 0.00000000e+00, 0.00000000e+00, 0.00000000e+00, 0.00000000e+00, 0.00000000e+00, 0.00000000e+00, 0.00000000e+00, 0.00000000e+00, 0.00000000e+00, 0.00000000e+00, -4.38747466e+00, -1.87857718e+00, -2.45697127e+00, 1.06658240e+00, 0.00000000e+00, 5.0000000000, 6.0000000000, 0.0588069500
          31, 0.00000000e+00, 0.00000000e+00, 0.00000000e+00, 0.00000000e+00, 0.00000000e+00, 0.00000000e+00, 0.00000000e+00, 0.00000000e+00, 0.00000000e+00, 0.00000000e+00, 0.00000000e+00, 0.00000000e+00, -4.39075963e+00, -1.88234850e+00, -2.45587340e+00, 1.06333580e+00, 0.00000000e+00, 5.0000000000, 6.0000000000, 0.0611099333
          32, 0.00000000e+00, 0.00000000e+00, 0.00000000e+00, 0.00000000e+00, 0.00000000e+00, 0.00000000e+00, 0.00000000e+00, 0.00000000e+00, 0.00000000e+00, 0.00000000e+00, 0.00000000e+00, 0.00000000e+00, -4.39380154e+00, -1.88597619e+00, -2.45502644e+00, 1.06033171e+00, 0.00000000e+00, 5.0000000000, 6.0000000000, 0.0638286167
          33, 0.00000000e+00, 0.00000000e+00, 0.00000000e+00, 0.00000000e+00, 0.00000000e+00, 0.00000000e+00, 0.00000000e+00, 0.00000000e+00, 0.00000000e+00, 0.00000000e+00, 0.00000000e+00, 0.00000000e+00, -4.39670676e+00, -1.88942077e+00, -2.45441184e+00, 1.05745736e+00, 0.00000000e+00, 5.0000000000, 6.0000000000, 0.0657281167
          34, 0.00000000e+00, 0.00000000e+00, 0.00000000e+00, 0.00000000e+00, 0.00000000e+00, 0.00000000e+00, 0.00000000e+00, 0.00000000e+00, 0.00000000e+00, 0.00000000e+00, 0.00000000e+00, 0.00000000e+00, -4.39965566e+00, -1.89253236e+00, -2.45401026e+00, 1.05452509e+00, 0.00000000e+00, 5.0000000000, 6.0000000000, 0.0675908833
          35, 0.00000000e+00, 0.00000000e+00, 0.00000000e+00, 0.00000000e+00, 0.00000000e+00, 0.00000000e+00, 0.00000000e+00, 0.00000000e+00, 0.00000000e+00, 0.00000000e+00, 0.00000000e+00, 0.00000000e+00, -4.40293700e+00, -1.89502314e+00, -2.45380193e+00, 1.05123590e+00, 0.00000000e+00, 5.0000000000, 6.0000000000, 0.0695041833
          36, 0.00000000e+00, 0.00000000e+00, 0.00000000e+00, 0.00000000e+00, 0.00000000e+00, 0.00000000e+00, 0.00000000e+00, 0.00000000e+00, 0.00000000e+00, 0.00000000e+00, 0.00000000e+00, 0.00000000e+00, -4.40697523e+00, -1.89645753e+00, -2.45376708e+00, 1.04715015e+00, 0.00000000e+00, 5.0000000000, 6.0000000000, 0.0714708167
          37, 0.00000000e+00, 0.00000000e+00, 0.00000000e+00, 0.00000000e+00, 0.00000000e+00, 0.00000000e+00, 0.00000000e+00, 0.00000000e+00, 0.00000000e+00, 0.00000000e+00, 0.00000000e+00, 0.00000000e+00, -4.41234376e+00, -1.89627887e+00, -2.45388627e+00, 1.04167271e+00, 0.00000000e+00, 5.0000000000, 6.0000000000, 0.0734327500
          38, 0.00000000e+00, 0.00000000e+00, 0.00000000e+00, 0.00000000e+00, 0.00000000e+00, 0.00000000e+00, 0.00000000e+00, 0.00000000e+00, 0.00000000e+00, 0.00000000e+00, 0.00000000e+00, 0.00000000e+00, -4.41976152e+00, -1.89389049e+00, -2.45414050e+00, 1.03405461e+00, 0.00000000e+00, 5.0000000000, 6.0000000000, 0.0753309833
          39, 0.00000000e+00, 0.00000000e+00, 0.00000000e+00, 0.00000000e+00, 0.00000000e+00, 0.00000000e+00, 0.00000000e+00, 0.00000000e+00, 0.00000000e+00, 0.00000000e+00, 0.00000000e+00, 0.00000000e+00, -4.43007653e+00, -1.88879240e+00, -2.45451143e+00, 1.02340687e+00, 0.00000000e+00, 5.0000000000, 6.0000000000, 0.0772229333
          40, 0.00000000e+00, 0.00000000e+00, 0.00000000e+00, 0.00000000e+00, 0.00000000e+00, 0.00000000e+00, 0.00000000e+00, 0.00000000e+00, 0.00000000e+00, 0.00000000e+00, 0.00000000e+00, 0.00000000e+00, -4.44424376e+00, -1.88074352e+00, -2.45498157e+00, 1.00871787e+00, 0.00000000e+00, 5.0000000000, 6.0000000000, 0.0790287500
          41, 0.00000000e+00, 0.00000000e+00, 0.00000000e+00, 0.00000000e+00, 0.00000000e+00, 0.00000000e+00, 0.00000000e+00, 0.00000000e+00, 0.00000000e+00, 0.00000000e+00, 0.00000000e+00, 0.00000000e+00, -4.46330488e+00, -1.86988924e+00, -2.45553455e+00, 9.88864605e-01, 0.00000000e+00, 5.0000000000, 6.0000000000, 0.0808238833
          42, 0.00000000e+00, 0.00000000e+00, 0.00000000e+00, 0.00000000e+00, 0.00000000e+00, 0.00000000e+00, 0.00000000e+00, 0.00000000e+00, 0.00000000e+00, 0.00000000e+00, 0.00000000e+00, 0.00000000e+00, -4.48837326e+00, -1.85679472e+00, -2.45615546e+00, 9.62611182e-01, 0.00000000e+00, 5.0000000000, 6.0000000000, 0.0827048000
          43, 0.00000000e+00, 0.00000000e+00, 0.00000000e+00, 0.00000000e+00, 0.00000000e+00, 0.00000000e+00, 0.00000000e+00, 0.00000000e+00, 0.00000000e+00, 0.00000000e+00, 0.00000000e+00, 0.00000000e+00, -4.52061687e+00, -1.84236585e+00, -2.45683114e+00, 9.28595902e-01, 0.00000000e+00, 5.0000000000, 6.0000000000, 0.0844724667
          44, 0.00000000e+00, 0.00000000e+00, 0.00000000e+00, 0.00000000e+00, 0.00000000e+00, 0.00000000e+00, 0.00000000e+00, 0.00000000e+00, 0.00000000e+00, 0.00000000e+00, 0.00000000e+00, 0.00000000e+00, -4.56120853e+00, -1.82769488e+00, -2.45755026e+00, 8.85326637e-01, 0.00000000e+00, 5.0000000000, 6.0000000000, 0.0863689000
          45, 0.00000000e+00, 0.00000000e+00, 0.00000000e+00, 0.00000000e+00, 0.00000000e+00, 0.00000000e+00, 0.00000000e+00, 0.00000000e+00, 0.00000000e+00, 0.00000000e+00, 0.00000000e+00, 0.00000000e+00, -4.61115394e+00, -1.81389459e+00, -2.45830324e+00, 8.31257902e-01, 0.00000000e+00, 5.0000000000, 6.0000000000, 0.0881772667
          46, 0.00000000e+00, 0.00000000e+00, 0.00000000e+00, 0.00000000e+00, 0.00000000e+00, 0.00000000e+00, 0.00000000e+00, 0.00000000e+00, 0.00000000e+00, 0.00000000e+00, 0.00000000e+00, 0.00000000e+00, -4.67075125e+00, -1.80197089e+00, -2.45908196e+00, 7.65193416e-01, 0.00000000e+00, 5.0000000000, 6.0000000000, 0.0900972000
          47, 0.00000000e+00, 0.00000000e+00, 0.00000000e+00, 0.00000000e+00, 0.00000000e+00, 0.00000000e+00, 0.00000000e+00, 0.00000000e+00, 0.00000000e+00, 0.00000000e+00, 0.00000000e+00, 0.00000000e+00, -4.73805773e+00, -1.79275118e+00, -2.45987926e+00, 6.87793230e-01, 0.00000000e+00, 5.0000000000, 6.0000000000, 0.0920578667
          48, 0.00000000e+00, 0.00000000e+00, 0.00000000e+00, 0.00000000e+00, 0.00000000e+00, 0.00000000e+00, 0.00000000e+00, 0.00000000e+00, 0.00000000e+00, 0.00000000e+00, 0.00000000e+00, 0.00000000e+00, -4.80524143e+00, -1.78685989e+00, -2.46068853e+00, 6.06269684e-01, 0.00000000e+00, 5.0000000000, 6.0000000000, 0.0940182833
          49, 0.00000000e+00, 0.00000000e+00, 0.00000000e+00, 0.00000000e+00, 0.00000000e+00, 0.00000000e+00, 0.00000000e+00, 0.00000000e+00, 0.00000000e+00, 0.00000000e+00, 0.00000000e+00, 0.00000000e+00, -4.85365642e+00, -1.78472255e+00, -2.46150330e+00, 5.43897946e-01, 0.00000000e+00, 5.0000000000, 6.0000000000, 0.0959759667
          50, 0.00000000e+00, 0.00000000e+00, 0.00000000e+00, 0.00000000e+00, 0.00000000e+00, 0.00000000e+00, 0.00000000e+00, 0.00000000e+00, 0.00000000e+00, 0.00000000e+00, 0.00000000e+00, 0.00000000e+00, -4.85963610e+00, -1.78658138e+00, -2.46231712e+00, 5.36756208e-01, 0.00000000e+00, 5.0000000000, 6.0000000000, 0.0979199833
          51, 0.00000000e+00, 0.00000000e+00, 0.00000000e+00, 0.00000000e+00, 0.00000000e+00, 0.00000000e+00, 0.00000000e+00, 0.00000000e+00, 0.00000000e+00, 0.00000000e+00, 0.00000000e+00, 0.00000000e+00, -4.82021325e+00, -1.79251004e+00, -2.46312364e+00, 5.89420831e-01, 0.00000000e+00, 5.0000000000, 6.0000000000, 0.0998864333
          52, 0.00000000e+00, 0.00000000e+00, 0.00000000e+00, 0.00000000e+00, 0.00000000e+00, 0.00000000e+00, 0.00000000e+00, 0.00000000e+00, 0.00000000e+00, 0.00000000e+00, 0.00000000e+00, 0.00000000e+00, -4.75724577e+00, -1.80242357e+00, -2.46391617e+00, 6.67507406e-01, 0.00000000e+00, 5.0000000000, 6.0000000000, 0.1018504500
          53, 0.00000000e+00, 0.00000000e+00, 0.00000000e+00, 0.00000000e+00, 0.00000000e+00, 0.00000000e+00, 0.00000000e+00, 0.00000000e+00, 0.00000000e+00, 0.00000000e+00, 0.00000000e+00, 0.00000000e+00, -4.69138415e+00, -1.81608106e+00, -2.46468672e+00, 7.44284715e-01, 0.00000000e+00, 5.0000000000, 6.0000000000, 0.1037645833
          54, 0.00000000e+00, 0.00000000e+00, 0.00000000e+00, 0.00000000e+00, 0.00000000e+00, 0.00000000e+00, 0.00000000e+00, 0.00000000e+00, 0.00000000e+00, 0.00000000e+00, 0.00000000e+00, 0.00000000e+00, -4.63211802e+00, -1.83308123e+00, -2.46542586e+00, 8.10552064e-01, 0.00000000e+00, 5.0000000000, 6.0000000000, 0.1057134167
          55, 0.00000000e+00, 0.00000000e+00, 0.00000000e+00, 0.00000000e+00, 0.00000000e+00, 0.00000000e+00, 0.00000000e+00, 0.00000000e+00, 0.00000000e+00, 0.00000000e+00, 0.00000000e+00, 0.00000000e+00, -4.58209027e+00, -1.85285613e+00, -2.46612310e+00, 8.65028375e-01, 0.00000000e+00, 5.0000000000, 6.0000000000, 0.1076166000
          56, 0.00000000e+00, 0.00000000e+00, 0.00000000e+00, 0.00000000e+00, 0.00000000e+00, 0.00000000e+00, 0.00000000e+00, 0.00000000e+00, 0.00000000e+00, 0.00000000e+00, 0.00000000e+00, 0.00000000e+00, -4.54123273e+00, -1.87467041e+00, -2.46676735e+00, 9.08775558e-01, 0.00000000e+00, 5.0000000000, 6.0000000000, 0.1097080667
          57, 0.00000000e+00, 0.00000000e+00, 0.00000000e+00, 0.00000000e+00, 0.00000000e+00, 0.00000000e+00, 0.00000000e+00, 0.00000000e+00, 0.00000000e+00, 0.00000000e+00, 0.00000000e+00, 0.00000000e+00, -4.50861263e+00, -1.89763701e+00, -2.46734752e+00, 9.43324019e-01, 0.00000000e+00, 5.0000000000, 6.0000000000, 0.1115474333
          58, 0.00000000e+00, 0.00000000e+00, 0.00000000e+00, 0.00000000e+00, 0.00000000e+00, 0.00000000e+00, 0.00000000e+00, 0.00000000e+00, 0.00000000e+00, 0.00000000e+00, 0.00000000e+00, 0.00000000e+00, -4.48310253e+00, -1.92076166e+00, -2.46785307e+00, 9.70151099e-01, 0.00000000e+00, 5.0000000000, 6.0000000000, 0.1134021667
          59, 0.00000000e+00, 0.00000000e+00, 0.00000000e+00, 0.00000000e+00, 0.00000000e+00, 0.00000000e+00, 0.00000000e+00, 0.00000000e+00, 0.00000000e+00, 0.00000000e+00, 0.00000000e+00, 0.00000000e+00, -4.46359974e+00, -1.94302462e+00, -2.46827463e+00, 9.90568339e-01, 0.00000000e+00, 5.0000000000, 6.0000000000, 0.1152501833
          60, 0.00000000e+00, 0.00000000e+00, 0.00000000e+00, 0.00000000e+00, 0.00000000e+00, 0.00000000e+00, 0.00000000e+00, 0.00000000e+00, 0.00000000e+00, 0.00000000e+00, 0.00000000e+00, 0.00000000e+00, -4.44908948e+00, -1.96349547e+00, -2.46860472e+00, 1.00571954e+00, 0.00000000e+00, 5.0000000000, 6.0000000000, 0.1171485667
          61, 0.00000000e+00, 0.00000000e+00, 0.00000000e+00, 0.00000000e+00, 0.00000000e+00, 0.00000000e+00, 0.00000000e+00, 0.00000000e+00, 0.00000000e+00, 0.00000000e+00, 0.00000000e+00, 0.00000000e+00, -4.43865845e+00, -1.98145717e+00, -2.46883831e+00, 1.01660094e+00, 0.00000000e+00, 5.0000000000, 6.0000000000, 0.1190951333
          62, 0.00000000e+00, 0.00000000e+00, 0.00000000e+00, 0.00000000e+00, 0.00000000e+00, 0.00000000e+00, 0.00000000e+00, 0.00000000e+00, 0.00000000e+00, 0.00000000e+00, 0.00000000e+00, 0.00000000e+00, -4.43149559e+00, -1.99650044e+00, -2.46897317e+00, 1.02407901e+00, 0.00000000e+00, 5.0000000000, 6.0000000000, 0.1210227500
          63, 0.00000000e+00, 0.00000000e+00, 0.00000000e+00, 0.00000000e+00, 0.00000000e+00, 0.00000000e+00, 0.00000000e+00, 0.00000000e+00, 0.00000000e+00, 0.00000000e+00, 0.00000000e+00, 0.00000000e+00, -4.42689188e+00, -2.00855219e+00, -2.46900993e+00, 1.02890122e+00, 0.00000000e+00, 5.0000000000, 6.0000000000, 0.1228719167
          64, 0.00000000e+00, 0.00000000e+00, 0.00000000e+00, 0.00000000e+00, 0.00000000e+00, 0.00000000e+00, 0.00000000e+00, 0.00000000e+00, 0.00000000e+00, 0.00000000e+00, 0.00000000e+00, 0.00000000e+00, -4.42424087e+00, -2.01782774e+00, -2.46895179e+00, 1.03170149e+00, 0.00000000e+00, 5.0000000000, 6.0000000000, 0.1247301833
          65, 0.00000000e+00, 0.00000000e+00, 0.00000000e+00, 0.00000000e+00, 0.00000000e+00, 0.00000000e+00, 0.00000000e+00, 0.00000000e+00, 0.00000000e+00, 0.00000000e+00, 0.00000000e+00, 0.00000000e+00, -4.42303922e+00, -2.02472940e+00, -2.46880387e+00, 1.03300308e+00, 0.00000000e+00, 5.0000000000, 6.0000000000, 0.1266454000
          66, 0.00000000e+00, 0.00000000e+00, 0.00000000e+00, 0.00000000e+00, 0.00000000e+00, 0.00000000e+00, 0.00000000e+00, 0.00000000e+00, 0.00000000e+00, 0.00000000e+00, 0.00000000e+00, 0.00000000e+00, -4.42288521e+00, -2.02973153e+00, -2.46857245e+00, 1.03322218e+00, 0.00000000e+00, 5.0000000000, 6.0000000000, 0.1285460667
          67, 0.00000000e+00, 0.00000000e+00, 0.00000000e+00, 0.00000000e+00, 0.00000000e+00, 0.00000000e+00, 0.00000000e+00, 0.00000000e+00, 0.00000000e+00, 0.00000000e+00, 0.00000000e+00, 0.00000000e+00, -4.42347404e+00, -2.03328651e+00, -2.46826413e+00, 1.03267379e+00, 0.00000000e+00, 5.0000000000, 6.0000000000, 0.1304715333
          68, 0.00000000e+00, 0.00000000e+00, 0.00000000e+00, 0.00000000e+00, 0.00000000e+00, 0.00000000e+00, 0.00000000e+00, 0.00000000e+00, 0.00000000e+00, 0.00000000e+00, 0.00000000e+00, 0.00000000e+00, -4.42458981e+00, -2.03576728e+00, -2.46788513e+00, 1.03158062e+00, 0.00000000e+00, 5.0000000000, 6.0000000000, 0.1322883667
          69, 0.00000000e+00, 0.00000000e+00, 0.00000000e+00, 0.00000000e+00, 0.00000000e+00, 0.00000000e+00, 0.00000000e+00, 0.00000000e+00, 0.00000000e+00, 0.00000000e+00, 0.00000000e+00, 0.00000000e+00, -4.42609482e+00, -2.03744492e+00, -2.46744090e+00, 1.03008433e+00, 0.00000000e+00, 5.0000000000, 6.0000000000, 0.1341024333
          70, 0.00000000e+00, 0.00000000e+00, 0.00000000e+00, 0.00000000e+00, 0.00000000e+00, 0.00000000e+00, 0.00000000e+00, 0.00000000e+00, 0.00000000e+00, 0.00000000e+00, 0.00000000e+00, 0.00000000e+00, -4.42791770e+00, -2.03849114e+00, -2.46693590e+00, 1.02825783e+00, 0.00000000e+00, 5.0000000000, 6.0000000000, 0.1362605333
          71, 0.00000000e+00, 0.00000000e+00, 0.00000000e+00, 0.00000000e+00, 0.00000000e+00, 0.00000000e+00, 0.00000000e+00, 0.00000000e+00, 0.00000000e+00, 0.00000000e+00, 0.00000000e+00, 0.00000000e+00, -4.43004167e+00, -2.03899468e+00, -2.46637385e+00, 1.02611746e+00, 0.00000000e+00, 5.0000000000, 6.0000000000, 0.1384778000
          72, 0.00000000e+00, 0.00000000e+00, 0.00000000e+00, 0.00000000e+00, 0.00000000e+00, 0.00000000e+00, 0.00000000e+00, 0.00000000e+00, 0.00000000e+00, 0.00000000e+00, 0.00000000e+00, 0.00000000e+00, -4.43249388e+00, -2.03898383e+00, -2.46575806e+00, 1.02363395e+00, 0.00000000e+00, 5.0000000000, 6.0000000000, 0.1404316500
          73, 0.00000000e+00, 0.00000000e+00, 0.00000000e+00, 0.00000000e+00, 0.00000000e+00, 0.00000000e+00, 0.00000000e+00, 0.00000000e+00, 0.00000000e+00, 0.00000000e+00, 0.00000000e+00, 0.00000000e+00, -4.43533629e+00, -2.03845043e+00, -2.46509187e+00, 1.02074178e+00, 0.00000000e+00, 5.0000000000, 6.0000000000, 0.1423956000
          74, 0.00000000e+00, 0.00000000e+00, 0.00000000e+00, 0.00000000e+00, 0.00000000e+00, 0.00000000e+00, 0.00000000e+00, 0.00000000e+00, 0.00000000e+00, 0.00000000e+00, 0.00000000e+00, 0.00000000e+00, -4.43865795e+00, -2.03737339e+00, -2.46437904e+00, 1.01734722e+00, 0.00000000e+00, 5.0000000000, 6.0000000000, 0.1443368000
          75, 0.00000000e+00, 0.00000000e+00, 0.00000000e+00, 0.00000000e+00, 0.00000000e+00, 0.00000000e+00, 0.00000000e+00, 0.00000000e+00, 0.00000000e+00, 0.00000000e+00, 0.00000000e+00, 0.00000000e+00, -4.44256816e+00, -2.03574069e+00, -2.46362400e+00, 1.01333541e+00, 0.00000000e+00, 5.0000000000, 6.0000000000, 0.1463098667
          76, 0.00000000e+00, 0.00000000e+00, 0.00000000e+00, 0.00000000e+00, 0.00000000e+00, 0.00000000e+00, 0.00000000e+00, 0.00000000e+00, 0.00000000e+00, 0.00000000e+00, 0.00000000e+00, 0.00000000e+00, -4.44719000e+00, -2.03356902e+00, -2.46283187e+00, 1.00857707e+00, 0.00000000e+00, 5.0000000000, 6.0000000000, 0.1482579500
          77, 0.00000000e+00, 0.00000000e+00, 0.00000000e+00, 0.00000000e+00, 0.00000000e+00, 0.00000000e+00, 0.00000000e+00, 0.00000000e+00, 0.00000000e+00, 0.00000000e+00, 0.00000000e+00, 0.00000000e+00, -4.45265384e+00, -2.03091969e+00, -2.46200829e+00, 1.00293535e+00, 0.00000000e+00, 5.0000000000, 6.0000000000, 0.1502075667
          78, 0.00000000e+00, 0.00000000e+00, 0.00000000e+00, 0.00000000e+00, 0.00000000e+00, 0.00000000e+00, 0.00000000e+00, 0.00000000e+00, 0.00000000e+00, 0.00000000e+00, 0.00000000e+00, 0.00000000e+00, -4.45909025e+00, -2.02790922e+00, -2.46115900e+00, 9.96273115e-01, 0.00000000e+00, 5.0000000000, 6.0000000000, 0.1520948833
          79, 0.00000000e+00, 0.00000000e+00, 0.00000000e+00, 0.00000000e+00, 0.00000000e+00, 0.00000000e+00, 0.00000000e+00, 0.00000000e+00, 0.00000000e+00, 0.00000000e+00, 0.00000000e+00, 0.00000000e+00, -4.46662250e+00, -2.02471354e+00, -2.46028946e+00, 9.88460938e-01, 0.00000000e+00, 5.0000000000, 6.0000000000, 0.1539794667
          80, 0.00000000e+00, 0.00000000e+00, 0.00000000e+00, 0.00000000e+00, 0.00000000e+00, 0.00000000e+00, 0.00000000e+00, 0.00000000e+00, 0.00000000e+00, 0.00000000e+00, 0.00000000e+00, 0.00000000e+00, -4.47535827e+00, -2.02156506e+00, -2.45940435e+00, 9.79385734e-01, 0.00000000e+00, 5.0000000000, 6.0000000000, 0.1558591167
          81, 0.00000000e+00, 0.00000000e+00, 0.00000000e+00, 0.00000000e+00, 0.00000000e+00, 0.00000000e+00, 0.00000000e+00, 0.00000000e+00, 0.00000000e+00, 0.00000000e+00, 0.00000000e+00, 0.00000000e+00, -4.48538081e+00, -2.01874374e+00, -2.45850727e+00, 9.68960166e-01, 0.00000000e+00, 5.0000000000, 6.0000000000, 0.1577621167
          82, 0.00000000e+00, 0.00000000e+00, 0.00000000e+00, 0.00000000e+00, 0.00000000e+00, 0.00000000e+00, 0.00000000e+00, 0.00000000e+00, 0.00000000e+00, 0.00000000e+00, 0.00000000e+00, 0.00000000e+00, -4.49673941e+00, -2.01656370e+00, -2.45760049e+00, 9.57132787e-01, 0.00000000e+00, 5.0000000000, 6.0000000000, 0.1596740500
          83, 0.00000000e+00, 0.00000000e+00, 0.00000000e+00, 0.00000000e+00, 0.00000000e+00, 0.00000000e+00, 0.00000000e+00, 0.00000000e+00, 0.00000000e+00, 0.00000000e+00, 0.00000000e+00, 0.00000000e+00, -4.50943951e+00, -2.01535791e+00, -2.45668489e+00, 9.43898912e-01, 0.00000000e+00, 5.0000000000, 6.0000000000, 0.1615459833
          84, 0.00000000e+00, 0.00000000e+00, 0.00000000e+00, 0.00000000e+00, 0.00000000e+00, 0.00000000e+00, 0.00000000e+00, 0.00000000e+00, 0.00000000e+00, 0.00000000e+00, 0.00000000e+00, 0.00000000e+00, -4.52343230e+00, -2.01546316e+00, -2.45576014e+00, 9.29312041e-01, 0.00000000e+00, 5.0000000000, 6.0000000000, 0.1634587833
          85, 0.00000000e+00, 0.00000000e+00, 0.00000000e+00, 0.00000000e+00, 0.00000000e+00, 0.00000000e+00, 0.00000000e+00, 0.00000000e+00, 0.00000000e+00, 0.00000000e+00, 0.00000000e+00, 0.00000000e+00, -4.53860471e+00, -2.01720713e+00, -2.45482493e+00, 9.13495365e-01, 0.00000000e+00, 5.0000000000, 6.0000000000, 0.1653747333
          86, 0.00000000e+00, 0.00000000e+00, 0.00000000e+00, 0.00000000e+00, 0.00000000e+00, 0.00000000e+00, 0.00000000e+00, 0.00000000e+00, 0.00000000e+00, 0.00000000e+00, 0.00000000e+00, 0.00000000e+00, -4.55477040e+00, -2.02089840e+00, -2.45387741e+00, 8.96652233e-01, 0.00000000e+00, 5.0000000000, 6.0000000000, 0.1672522333
          87, 0.00000000e+00, 0.00000000e+00, 0.00000000e+00, 0.00000000e+00, 0.00000000e+00, 0.00000000e+00, 0.00000000e+00, 0.00000000e+00, 0.00000000e+00, 0.00000000e+00, 0.00000000e+00, 0.00000000e+00, -4.57166386e+00, -2.02681964e+00, -2.45291540e+00, 8.79073607e-01, 0.00000000e+00, 5.0000000000, 6.0000000000, 0.1691966833
          88, 0.00000000e+00, 0.00000000e+00, 0.00000000e+00, 0.00000000e+00, 0.00000000e+00, 0.00000000e+00, 0.00000000e+00, 0.00000000e+00, 0.00000000e+00, 0.00000000e+00, 0.00000000e+00, 0.00000000e+00, -4.58893994e+00, -2.03522358e+00, -2.45193681e+00, 8.61139311e-01, 0.00000000e+00, 5.0000000000, 6.0000000000, 0.1710458333
          89, 0.00000000e+00, 0.00000000e+00, 0.00000000e+00, 0.00000000e+00, 0.00000000e+00, 0.00000000e+00, 0.00000000e+00, 0.00000000e+00, 0.00000000e+00, 0.00000000e+00, 0.00000000e+00, 0.00000000e+00, -4.60618243e+00, -2.04633101e+00, -2.45093991e+00, 8.43308909e-01, 0.00000000e+00, 5.0000000000, 6.0000000000, 0.1728830333