TITLE = "SU2 Simulation"
VARIABLES = "Iteration","CL","CD","CSF","CMx","CMy","CMz","CFx","CFy","CFz","CL/CD","AoA","Custom_ObjFunc","Res_Flow[0]","Res_Flow[1]","Res_Flow[2]","Res_Flow[3]","Res_Flow[4]","Linear_Solver_Iterations","CFL_Number","Time(min)"
ZONE T= "Convergence history"
           0, 0.00000000e+00, 0.00000000e+00, 0.00000000e+00, 0.00000000e+00, 0.00000000e+00, 0.00000000e+00, 0.00000000e+00, 0.00000000e+00, 0.00000000e+00, 0.00000000e+00, 0.00000000e+00, 0.00000000e+00, -5.58069515e+00, -2.94593890e+00, -1.41986793e+01, -3.98915703e-02, 0.00000000e+00, 5.0000000000, 6.0000000000, 0.0041099000
           1, 0.00000000e+00, 0.00000000e+00, 0.00000000e+00, 0.00000000e+00, 0.00000000e+00, 0.00000000e+00, 0.00000000e+00, 0.00000000e+00, 0.00000000e+00, 0.00000000e+00, 0.00000000e+00, 0.00000000e+00, -6.02154846e+00, -3.36956573e+00, -5.38914827e+00, -4.56263631e-01, 0.00000000e+00, 5.0000000000, 6.0000000000, 0.0081150833
           2, 0.00000000e+00, 0.00000000e+00, 0.00000000e+00, 0.00000000e+00, 0.00000000e+00, 0.00000000e+00, 0.00000000e+00, 0.00000000e+00, 0.00000000e+00, 0.00000000e+00, 0.00000000e+00, 0.00000000e+00, -5.96537409e+00, -3.41825325e+00, -5.31856128e+00, -5.15930788e-01, 0.00000000e+00, 5.0000000000, 6.0000000000, 0.0119254667
           3, 0.00000000e+00, 0.00000000e+00, 0.00000000e+00, 0.00000000e+00, 0.00000000e+00, 0.00000000e+00, 0.00000000e+00, 0.00000000e+00, 0.00000000e+00, 0.00000000e+00, 0.00000000e+00, 0.00000000e+00, -5.88110251e+00, -3.36899662e+00, -5.21295366e+00, -4.55016765e-01, 0.00000000e+00, 5.0000000000, 6.0000000000, 0.0158865333
           4, 0.00000000e+00, 0.00000000e+00, 0.00000000e+00, 0.00000000e+00, 0.00000000e+00, 0.00000000e+00, 0.00000000e+00, 0.00000000e+00, 0.00000000e+00, 0.00000000e+00, 0.00000000e+00, 0.00000000e+00, -5.84808238e+00, -3.35206160e+00, -5.00799775e+00, -4.25581386e-01, 0.00000000e+00, 5.0000000000, 6.0000000000, 0.0197431500
           5, 0.00000000e+00, 0.00000000e+00, 0.00000000e+00, 0.00000000e+00, 0.00000000e+00, 0.00000000e+00, 0.00000000e+00, 0.00000000e+00, 0.00000000e+00, 0.00000000e+00, 0.00000000e+00, 0.00000000e+00, -5.88067709e+00, -3.38870836e+00, -4.91183618e+00, -4.61347258e-01, 0.00000000e+00, 5.0000000000, 6.0000000000, 0.0236487167
           6, 0.00000000e+00, 0.00000000e+00, 0.00000000e+00, 0.00000000e+00, 0.00000000e+00, 0.00000000e+00, 0.00000000e+00, 0.00000000e+00, 0.00000000e+00, 0.00000000e+00, 0.00000000e+00, 0.00000000e+00, -5.96095567e+00, -3.46602495e+00, -4.90968941e+00, -5.47433664e-01, 0.00000000e+00, 5.0000000000, 6.0000000000, 0.0274931833
           7, 0.00000000e+00, 0.00000000e+00, 0.00000000e+00, 0.00000000e+00, 0.00000000e+00, 0.00000000e+00, 0.00000000e+00, 0.00000000e+00, 0.00000000e+00, 0.00000000e+00, 0.00000000e+00, 0.00000000e+00, -5.97111839e+00, -3.47982662e+00, -4.94934933e+00, -5.53210127e-01, 0.00000000e+00, 5.0000000000, 6.0000000000, 0.0317281000
           8, 0.00000000e+00, 0.00000000e+00, 0.00000000e+00, 0.00000000e+00, 0.00000000e+00, 0.00000000e+00, 0.00000000e+00, 0.00000000e+00, 0.00000000e+00, 0.00000000e+00, 0.00000000e+00, 0.00000000e+00, -5.83096644e+00, -3.35136590e+00, -4.96684564e+00, -3.99422717e-01, 0.00000000e+00, 5.0000000000, 6.0000000000, 0.0356757667
           9, 0.00000000e+00, 0.00000000e+00, 0.00000000e+00, 0.00000000e+00, 0.00000000e+00, 0.00000000e+00, 0.00000000e+00, 0.00000000e+00, 0.00000000e+00, 0.00000000e+00, 0.00000000e+00, 0.00000000e+00, -5.66875669e+00, -3.19410188e+00, -4.92862594e+00, -2.31629267e-01, 0.00000000e+00, 5.0000000000, 6.0000000000, 0.0394620667
          10, 0.00000000e+00, 0.00000000e+00, 0.00000000e+00, 0.00000000e+00, 0.00000000e+00, 0.00000000e+00, 0.00000000e+00, 0.00000000e+00, 0.00000000e+00, 0.00000000e+00, 0.00000000e+00, 0.00000000e+00, -5.53565379e+00, -3.06241025e+00, -4.86056856e+00, -9.68715002e-02, 0.00000000e+00, 5.0000000000, 6.0000000000, 0.0434311167
          11, 0.00000000e+00, 0.00000000e+00, 0.00000000e+00, 0.00000000e+00, 0.00000000e+00, 0.00000000e+00, 0.00000000e+00, 0.00000000e+00, 0.00000000e+00, 0.00000000e+00, 0.00000000e+00, 0.00000000e+00, -5.42894679e+00, -2.95618322e+00, -4.79204948e+00, 1.02863562e-02, 0.00000000e+00, 5.0000000000, 6.0000000000, 0.0473042500
          12, 0.00000000e+00, 0.00000000e+00, 0.00000000e+00, 0.00000000e+00, 0.00000000e+00, 0.00000000e+00, 0.00000000e+00, 0.00000000e+00, 0.00000000e+00, 0.00000000e+00, 0.00000000e+00, 0.00000000e+00, -5.34104981e+00, -2.86857854e+00, -4.73385896e+00, 9.82437843e-02, 0.00000000e+00, 5.0000000000, 6.0000000000, 0.0511252667
          13, 0.00000000e+00, 0.00000000e+00, 0.00000000e+00, 0.00000000e+00, 0.00000000e+00, 0.00000000e+00, 0.00000000e+00, 0.00000000e+00, 0.00000000e+00, 0.00000000e+00, 0.00000000e+00, 0.00000000e+00, -5.26648954e+00, -2.79429448e+00, -4.68725246e+00, 1.72736884e-01, 0.00000000e+00, 5.0000000000, 6.0000000000, 0.0552115500
          14, 0.00000000e+00, 0.00000000e+00, 0.00000000e+00, 0.00000000e+00, 0.00000000e+00, 0.00000000e+00, 0.00000000e+00, 0.00000000e+00, 0.00000000e+00, 0.00000000e+00, 0.00000000e+00, 0.00000000e+00, -5.20174824e+00, -2.72983109e+00, -4.64957556e+00, 2.37378174e-01, 0.00000000e+00, 5.0000000000, 6.0000000000, 0.0590537500
          15, 0.00000000e+00, 0.00000000e+00, 0.00000000e+00, 0.00000000e+00, 0.00000000e+00, 0.00000000e+00, 0.00000000e+00, 0.00000000e+00, 0.00000000e+00, 0.00000000e+00, 0.00000000e+00, 0.00000000e+00, -5.14455658e+00, -2.67290533e+00, -4.61671517e+00, 2.94472099e-01, 0.00000000e+00, 5.0000000000, 6.0000000000, 0.0628119167
          16, 0.00000000e+00, 0.00000000e+00, 0.00000000e+00, 0.00000000e+00, 0.00000000e+00, 0.00000000e+00, 0.00000000e+00, 0.00000000e+00, 0.00000000e+00, 0.00000000e+00, 0.00000000e+00, 0.00000000e+00, -5.09339213e+00, -2.62198287e+00, -4.58492558e+00, 3.45552717e-01, 0.00000000e+00, 5.0000000000, 6.0000000000, 0.0666243000
          17, 0.00000000e+00, 0.00000000e+00, 0.00000000e+00, 0.00000000e+00, 0.00000000e+00, 0.00000000e+00, 0.00000000e+00, 0.00000000e+00, 0.00000000e+00, 0.00000000e+00, 0.00000000e+00, 0.00000000e+00, -5.04718118e+00, -2.57598558e+00, -4.55211687e+00, 3.91695907e-01, 0.00000000e+00, 5.0000000000, 6.0000000000, 0.0705240333
          18, 0.00000000e+00, 0.00000000e+00, 0.00000000e+00, 0.00000000e+00, 0.00000000e+00, 0.00000000e+00, 0.00000000e+00, 0.00000000e+00, 0.00000000e+00, 0.00000000e+00, 0.00000000e+00, 0.00000000e+00, -5.00513073e+00, -2.53412159e+00, -4.51807387e+00, 4.33693231e-01, 0.00000000e+00, 5.0000000000, 6.0000000000, 0.0748992000
          19, 0.00000000e+00, 0.00000000e+00, 0.00000000e+00, 0.00000000e+00, 0.00000000e+00, 0.00000000e+00, 0.00000000e+00, 0.00000000e+00, 0.00000000e+00, 0.00000000e+00, 0.00000000e+00, 0.00000000e+00, -4.96663484e+00, -2.49578882e+00, -4.48374767e+00, 4.72148087e-01, 0.00000000e+00, 5.0000000000, 6.0000000000, 0.0788473667
          20, 0.00000000e+00, 0.00000000e+00, 0.00000000e+00, 0.00000000e+00, 0.00000000e+00, 0.00000000e+00, 0.00000000e+00, 0.00000000e+00, 0.00000000e+00, 0.00000000e+00, 0.00000000e+00, 0.00000000e+00, -4.93122106e+00, -2.46051931e+00, -4.45038959e+00, 5.07530350e-01, 0.00000000e+00, 5.0000000000, 6.0000000000, 0.0824776000
          21, 0.00000000e+00, 0.00000000e+00, 0.00000000e+00, 0.00000000e+00, 0.00000000e+00, 0.00000000e+00, 0.00000000e+00, 0.00000000e+00, 0.00000000e+00, 0.00000000e+00, 0.00000000e+00, 0.00000000e+00, -4.89851784e+00, -2.42794564e+00, -4.41905859e+00, 5.40209329e-01, 0.00000000e+00, 5.0000000000, 6.0000000000, 0.0862213667
          22, 0.00000000e+00, 0.00000000e+00, 0.00000000e+00, 0.00000000e+00, 0.00000000e+00, 0.00000000e+00, 0.00000000e+00, 0.00000000e+00, 0.00000000e+00, 0.00000000e+00, 0.00000000e+00, 0.00000000e+00, -4.86823321e+00, -2.39777922e+00, -4.39050117e+00, 5.70475208e-01, 0.00000000e+00, 5.0000000000, 6.0000000000, 0.0900265167
          23, 0.00000000e+00, 0.00000000e+00, 0.00000000e+00, 0.00000000e+00, 0.00000000e+00, 0.00000000e+00, 0.00000000e+00, 0.00000000e+00, 0.00000000e+00, 0.00000000e+00, 0.00000000e+00, 0.00000000e+00, -4.84013987e+00, -2.36979537e+00, -4.36519837e+00, 5.98553915e-01, 0.00000000e+00, 5.0000000000, 6.0000000000, 0.0939079667
          24, 0.00000000e+00, 0.00000000e+00, 0.00000000e+00, 0.00000000e+00, 0.00000000e+00, 0.00000000e+00, 0.00000000e+00, 0.00000000e+00, 0.00000000e+00, 0.00000000e+00, 0.00000000e+00, 0.00000000e+00, -4.81406441e+00, -2.34382263e+00, -4.34343984e+00, 6.24617903e-01, 0.00000000e+00, 5.0000000000, 6.0000000000, 0.0977626500
          25, 0.00000000e+00, 0.00000000e+00, 0.00000000e+00, 0.00000000e+00, 0.00000000e+00, 0.00000000e+00, 0.00000000e+00, 0.00000000e+00, 0.00000000e+00, 0.00000000e+00, 0.00000000e+00, 0.00000000e+00, -4.78987914e+00, -2.31973471e+00, -4.32538249e+00, 6.48794256e-01, 0.00000000e+00, 5.0000000000, 6.0000000000, 0.1016380333
          26, 0.00000000e+00, 0.00000000e+00, 0.00000000e+00, 0.00000000e+00, 0.00000000e+00, 0.00000000e+00, 0.00000000e+00, 0.00000000e+00, 0.00000000e+00, 0.00000000e+00, 0.00000000e+00, 0.00000000e+00, -4.76749558e+00, -2.29744408e+00, -4.31109312e+00, 6.71171153e-01, 0.00000000e+00, 5.0000000000, 6.0000000000, 0.1055745500
          27, 0.00000000e+00, 0.00000000e+00, 0.00000000e+00, 0.00000000e+00, 0.00000000e+00, 0.00000000e+00, 0.00000000e+00, 0.00000000e+00, 0.00000000e+00, 0.00000000e+00, 0.00000000e+00, 0.00000000e+00, -4.74685882e+00, -2.27689640e+00, -4.30057931e+00, 6.91803521e-01, 0.00000000e+00, 5.0000000000, 6.0000000000, 0.1095054000
          28, 0.00000000e+00, 0.00000000e+00, 0.00000000e+00, 0.00000000e+00, 0.00000000e+00, 0.00000000e+00, 0.00000000e+00, 0.00000000e+00, 0.00000000e+00, 0.00000000e+00, 0.00000000e+00, 0.00000000e+00, -4.72794184e+00, -2.25806496e+00, -4.29380840e+00, 7.10718613e-01, 0.00000000e+00, 5.0000000000, 6.0000000000, 0.1132923500
          29, 0.00000000e+00, 0.00000000e+00, 0.00000000e+00, 0.00000000e+00, 0.00000000e+00, 0.00000000e+00, 0.00000000e+00, 0.00000000e+00, 0.00000000e+00, 0.00000000e+00, 0.00000000e+00, 0.00000000e+00, -4.71073952e+00, -2.24094461e+00, -4.29071348e+00, 7.27922031e-01, 0.00000000e+00, 5.0000000000, 6.0000000000, 0.1171322833
          30, 0.00000000e+00, 0.00000000e+00, 0.00000000e+00, 0.00000000e+00, 0.00000000e+00, 0.00000000e+00, 0.00000000e+00, 0.00000000e+00, 0.00000000e+00, 0.00000000e+00, 0.00000000e+00, 0.00000000e+00, -4.69526171e+00, -2.22554497e+00, -4.29118623e+00, 7.43404555e-01, 0.00000000e+00, 5.0000000000, 6.0000000000, 0.1208625333
          31, 0.00000000e+00, 0.00000000e+00, 0.00000000e+00, 0.00000000e+00, 0.00000000e+00, 0.00000000e+00, 0.00000000e+00, 0.00000000e+00, 0.00000000e+00, 0.00000000e+00, 0.00000000e+00, 0.00000000e+00, -4.68152552e+00, -2.21188269e+00, -4.29505756e+00, 7.57149846e-01, 0.00000000e+00, 5.0000000000, 6.0000000000, 0.1255687833
          32, 0.00000000e+00, 0.00000000e+00, 0.00000000e+00, 0.00000000e+00, 0.00000000e+00, 0.00000000e+00, 0.00000000e+00, 0.00000000e+00, 0.00000000e+00, 0.00000000e+00, 0.00000000e+00, 0.00000000e+00, -4.66954675e+00, -2.19997294e+00, -4.30206617e+00, 7.69142904e-01, 0.00000000e+00, 5.0000000000, 6.0000000000, 0.1295744833
          33, 0.00000000e+00, 0.00000000e+00, 0.00000000e+00, 0.00000000e+00, 0.00000000e+00, 0.00000000e+00, 0.00000000e+00, 0.00000000e+00, 0.00000000e+00, 0.00000000e+00, 0.00000000e+00, 0.00000000e+00, -4.65933101e+00, -2.18982058e+00, -4.31181355e+00, 7.79378898e-01, 0.00000000e+00, 5.0000000000, 6.0000000000, 0.1330816000
          34, 0.00000000e+00, 0.00000000e+00, 0.00000000e+00, 0.00000000e+00, 0.00000000e+00, 0.00000000e+00, 0.00000000e+00, 0.00000000e+00, 0.00000000e+00, 0.00000000e+00, 0.00000000e+00, 0.00000000e+00, -4.65086496e+00, -2.18141145e+00, -4.32370569e+00, 7.87871833e-01, 0.00000000e+00, 5.0000000000, 6.0000000000, 0.1366329500
          35, 0.00000000e+00, 0.00000000e+00, 0.00000000e+00, 0.00000000e+00, 0.00000000e+00, 0.00000000e+00, 0.00000000e+00, 0.00000000e+00, 0.00000000e+00, 0.00000000e+00, 0.00000000e+00, 0.00000000e+00, -4.64410834e+00, -2.17470449e+00, -4.33688871e+00, 7.94662355e-01, 0.00000000e+00, 5.0000000000, 6.0000000000, 0.1401807000
          36, 0.00000000e+00, 0.00000000e+00, 0.00000000e+00, 0.00000000e+00, 0.00000000e+00, 0.00000000e+00, 0.00000000e+00, 0.00000000e+00, 0.00000000e+00, 0.00000000e+00, 0.00000000e+00, 0.00000000e+00, -4.63898773e+00, -2.16962557e+00, -4.35020031e+00, 7.99823911e-01, 0.00000000e+00, 5.0000000000, 6.0000000000, 0.1437691333
          37, 0.00000000e+00, 0.00000000e+00, 0.00000000e+00, 0.00000000e+00, 0.00000000e+00, 0.00000000e+00, 0.00000000e+00, 0.00000000e+00, 0.00000000e+00, 0.00000000e+00, 0.00000000e+00, 0.00000000e+00, -4.63539275e+00, -2.16606380e+00, -4.36218126e+00, 8.03466433e-01, 0.00000000e+00, 5.0000000000, 6.0000000000, 0.1472646500
          38, 0.00000000e+00, 0.00000000e+00, 0.00000000e+00, 0.00000000e+00, 0.00000000e+00, 0.00000000e+00, 0.00000000e+00, 0.00000000e+00, 0.00000000e+00, 0.00000000e+00, 0.00000000e+00, 0.00000000e+00, -4.63317551e+00, -2.16387106e+00, -4.37120525e+00, 8.05736760e-01, 0.00000000e+00, 5.0000000000, 6.0000000000, 0.1509831667
          39, 0.00000000e+00, 0.00000000e+00, 0.00000000e+00, 0.00000000e+00, 0.00000000e+00, 0.00000000e+00, 0.00000000e+00, 0.00000000e+00, 0.00000000e+00, 0.00000000e+00, 0.00000000e+00, 0.00000000e+00, -4.63215402e+00, -2.16286557e+00, -4.37576222e+00, 8.06815215e-01, 0.00000000e+00, 5.0000000000, 6.0000000000, 0.1556930500
          40, 0.00000000e+00, 0.00000000e+00, 0.00000000e+00, 0.00000000e+00, 0.00000000e+00, 0.00000000e+00, 0.00000000e+00, 0.00000000e+00, 0.00000000e+00, 0.00000000e+00, 0.00000000e+00, 0.00000000e+00, -4.63211977e+00, -2.16283951e+00, -4.37484053e+00, 8.06908076e-01, 0.00000000e+00, 5.0000000000, 6.0000000000, 0.1604153833
          41, 0.00000000e+00, 0.00000000e+00, 0.00000000e+00, 0.00000000e+00, 0.00000000e+00, 0.00000000e+00, 0.00000000e+00, 0.00000000e+00, 0.00000000e+00, 0.00000000e+00, 0.00000000e+00, 0.00000000e+00, -4.63284912e+00, -2.16357051e+00, -4.36823809e+00, 8.06236312e-01, 0.00000000e+00, 5.0000000000, 6.0000000000, 0.1642300000
          42, 0.00000000e+00, 0.00000000e+00, 0.00000000e+00, 0.00000000e+00, 0.00000000e+00, 0.00000000e+00, 0.00000000e+00, 0.00000000e+00, 0.00000000e+00, 0.00000000e+00, 0.00000000e+00, 0.00000000e+00, -4.63411750e+00, -2.16483590e+00, -4.35661746e+00, 8.05021674e-01, 0.00000000e+00, 5.0000000000, 6.0000000000, 0.1682917833
          43, 0.00000000e+00, 0.00000000e+00, 0.00000000e+00, 0.00000000e+00, 0.00000000e+00, 0.00000000e+00, 0.00000000e+00, 0.00000000e+00, 0.00000000e+00, 0.00000000e+00, 0.00000000e+00, 0.00000000e+00, -4.63571445e+00, -2.16642778e+00, -4.34126871e+00, 8.03471987e-01, 0.00000000e+00, 5.0000000000, 6.0000000000, 0.1719800167
          44, 0.00000000e+00, 0.00000000e+00, 0.00000000e+00, 0.00000000e+00, 0.00000000e+00, 0.00000000e+00, 0.00000000e+00, 0.00000000e+00, 0.00000000e+00, 0.00000000e+00, 0.00000000e+00, 0.00000000e+00, -4.63745724e+00, -2.16816661e+00, -4.32372902e+00, 8.01767899e-01, 0.00000000e+00, 5.0000000000, 6.0000000000, 0.1760931333
          45, 0.00000000e+00, 0.00000000e+00, 0.00000000e+00, 0.00000000e+00, 0.00000000e+00, 0.00000000e+00, 0.00000000e+00, 0.00000000e+00, 0.00000000e+00, 0.00000000e+00, 0.00000000e+00, 0.00000000e+00, -4.63920085e+00, -2.16991124e+00, -4.30545221e+00, 8.00053195e-01, 0.00000000e+00, 5.0000000000, 6.0000000000, 0.1796798333
          46, 0.00000000e+00, 0.00000000e+00, 0.00000000e+00, 0.00000000e+00, 0.00000000e+00, 0.00000000e+00, 0.00000000e+00, 0.00000000e+00, 0.00000000e+00, 0.00000000e+00, 0.00000000e+00, 0.00000000e+00, -4.64084285e+00, -2.17156382e+00, -4.28762566e+00, 7.98430103e-01, 0.00000000e+00, 5.0000000000, 6.0000000000, 0.1833040167
          47, 0.00000000e+00, 0.00000000e+00, 0.00000000e+00, 0.00000000e+00, 0.00000000e+00, 0.00000000e+00, 0.00000000e+00, 0.00000000e+00, 0.00000000e+00, 0.00000000e+00, 0.00000000e+00, 0.00000000e+00, -4.64232267e+00, -2.17306904e+00, -4.27112332e+00, 7.96960017e-01, 0.00000000e+00, 5.0000000000, 6.0000000000, 0.1870413167
          48, 0.00000000e+00, 0.00000000e+00, 0.00000000e+00, 0.00000000e+00, 0.00000000e+00, 0.00000000e+00, 0.00000000e+00, 0.00000000e+00, 0.00000000e+00, 0.00000000e+00, 0.00000000e+00, 0.00000000e+00, -4.64361606e+00, -2.17440861e+00, -4.25653743e+00, 7.95668902e-01, 0.00000000e+00, 5.0000000000, 6.0000000000, 0.1907791000
          49, 0.00000000e+00, 0.00000000e+00, 0.00000000e+00, 0.00000000e+00, 0.00000000e+00, 0.00000000e+00, 0.00000000e+00, 0.00000000e+00, 0.00000000e+00, 0.00000000e+00, 0.00000000e+00, 0.00000000e+00, -4.64472632e+00, -2.17559232e+00, -4.24423910e+00, 7.94555737e-01, 0.00000000e+00, 5.0000000000, 6.0000000000, 0.1944673667
          50, 0.00000000e+00, 0.00000000e+00, 0.00000000e+00, 0.00000000e+00, 0.00000000e+00, 0.00000000e+00, 0.00000000e+00, 0.00000000e+00, 0.00000000e+00, 0.00000000e+00, 0.00000000e+00, 0.00000000e+00, -4.64567456e+00, -2.17664795e+00, -4.23443737e+00, 7.93601934e-01, 0.00000000e+00, 5.0000000000, 6.0000000000, 0.1982542333
          51, 0.00000000e+00, 0.00000000e+00, 0.00000000e+00, 0.00000000e+00, 0.00000000e+00, 0.00000000e+00, 0.00000000e+00, 0.00000000e+00, 0.00000000e+00, 0.00000000e+00, 0.00000000e+00, 0.00000000e+00, -4.64649074e+00, -2.17761172e+00, -4.22722457e+00, 7.92779919e-01, 0.00000000e+00, 5.0000000000, 6.0000000000, 0.2022489667
          52, 0.00000000e+00, 0.00000000e+00, 0.00000000e+00, 0.00000000e+00, 0.00000000e+00, 0.00000000e+00, 0.00000000e+00, 0.00000000e+00, 0.00000000e+00, 0.00000000e+00, 0.00000000e+00, 0.00000000e+00, -4.64720691e+00, -2.17852050e+00, -4.22260615e+00, 7.92059675e-01, 0.00000000e+00, 5.0000000000, 6.0000000000, 0.2070227167
          53, 0.00000000e+00, 0.00000000e+00, 0.00000000e+00, 0.00000000e+00, 0.00000000e+00, 0.00000000e+00, 0.00000000e+00, 0.00000000e+00, 0.00000000e+00, 0.00000000e+00, 0.00000000e+00, 0.00000000e+00, -4.64785288e+00, -2.17940634e+00, -4.22051680e+00, 7.91412834e-01, 0.00000000e+00, 5.0000000000, 6.0000000000, 0.2108451667
          54, 0.00000000e+00, 0.00000000e+00, 0.00000000e+00, 0.00000000e+00, 0.00000000e+00, 0.00000000e+00, 0.00000000e+00, 0.00000000e+00, 0.00000000e+00, 0.00000000e+00, 0.00000000e+00, 0.00000000e+00, -4.64845433e+00, -2.18029317e+00, -4.22082688e+00, 7.90814492e-01, 0.00000000e+00, 5.0000000000, 6.0000000000, 0.2146872167
          55, 0.00000000e+00, 0.00000000e+00, 0.00000000e+00, 0.00000000e+00, 0.00000000e+00, 0.00000000e+00, 0.00000000e+00, 0.00000000e+00, 0.00000000e+00, 0.00000000e+00, 0.00000000e+00, 0.00000000e+00, -4.64903263e+00, -2.18119539e+00, -4.22334269e+00, 7.90243344e-01, 0.00000000e+00, 5.0000000000, 6.0000000000, 0.2185254667
          56, 0.00000000e+00, 0.00000000e+00, 0.00000000e+00, 0.00000000e+00, 0.00000000e+00, 0.00000000e+00, 0.00000000e+00, 0.00000000e+00, 0.00000000e+00, 0.00000000e+00, 0.00000000e+00, 0.00000000e+00, -4.64960573e+00, -2.18211775e+00, -4.22780464e+00, 7.89680861e-01, 0.00000000e+00, 5.0000000000, 6.0000000000, 0.2227259833
          57, 0.00000000e+00, 0.00000000e+00, 0.00000000e+00, 0.00000000e+00, 0.00000000e+00, 0.00000000e+00, 0.00000000e+00, 0.00000000e+00, 0.00000000e+00, 0.00000000e+00, 0.00000000e+00, 0.00000000e+00, -4.65018936e+00, -2.18305628e+00, -4.23388656e+00, 7.89110175e-01, 0.00000000e+00, 5.0000000000, 6.0000000000, 0.2266421667
          58, 0.00000000e+00, 0.00000000e+00, 0.00000000e+00, 0.00000000e+00, 0.00000000e+00, 0.00000000e+00, 0.00000000e+00, 0.00000000e+00, 0.00000000e+00, 0.00000000e+00, 0.00000000e+00, 0.00000000e+00, -4.65079806e+00, -2.18399974e+00, -4.24119945e+00, 7.88515170e-01, 0.00000000e+00, 5.0000000000, 6.0000000000, 0.2305939000
          59, 0.00000000e+00, 0.00000000e+00, 0.00000000e+00, 0.00000000e+00, 0.00000000e+00, 0.00000000e+00, 0.00000000e+00, 0.00000000e+00, 0.00000000e+00, 0.00000000e+00, 0.00000000e+00, 0.00000000e+00, -4.65144579e+00, -2.18493165e+00, -4.24930230e+00, 7.87880063e-01, 0.00000000e+00, 5.0000000000, 6.0000000000, 0.2345623667
          60, 0.00000000e+00, 0.00000000e+00, 0.00000000e+00, 0.00000000e+00, 0.00000000e+00, 0.00000000e+00, 0.00000000e+00, 0.00000000e+00, 0.00000000e+00, 0.00000000e+00, 0.00000000e+00, 0.00000000e+00, -4.65214587e+00, -2.18583249e+00, -4.25772252e+00, 7.87189583e-01, 0.00000000e+00, 5.0000000000, 6.0000000000, 0.2389505833
          61, 0.00000000e+00, 0.00000000e+00, 0.00000000e+00, 0.00000000e+00, 0.00000000e+00, 0.00000000e+00, 0.00000000e+00, 0.00000000e+00, 0.00000000e+00, 0.00000000e+00, 0.00000000e+00, 0.00000000e+00, -4.65291051e+00, -2.18668216e+00, -4.26598651e+00, 7.86429662e-01, 0.00000000e+00, 5.0000000000, 6.0000000000, 0.2432026667
          62, 0.00000000e+00, 0.00000000e+00, 0.00000000e+00, 0.00000000e+00, 0.00000000e+00, 0.00000000e+00, 0.00000000e+00, 0.00000000e+00, 0.00000000e+00, 0.00000000e+00, 0.00000000e+00, 0.00000000e+00, -4.65374993e+00, -2.18746240e+00, -4.27365796e+00, 7.85588498e-01, 0.00000000e+00, 5.0000000000, 6.0000000000, 0.2474312833
          63, 0.00000000e+00, 0.00000000e+00, 0.00000000e+00, 0.00000000e+00, 0.00000000e+00, 0.00000000e+00, 0.00000000e+00, 0.00000000e+00, 0.00000000e+00, 0.00000000e+00, 0.00000000e+00, 0.00000000e+00, -4.65467123e+00, -2.18815904e+00, -4.28037982e+00, 7.84657773e-01, 0.00000000e+00, 5.0000000000, 6.0000000000, 0.2516671333
          64, 0.00000000e+00, 0.00000000e+00, 0.00000000e+00, 0.00000000e+00, 0.00000000e+00, 0.00000000e+00, 0.00000000e+00, 0.00000000e+00, 0.00000000e+00, 0.00000000e+00, 0.00000000e+00, 0.00000000e+00, -4.65567744e+00, -2.18876393e+00, -4.28591146e+00, 7.83633812e-01, 0.00000000e+00, 5.0000000000, 6.0000000000, 0.2559884333
          65, 0.00000000e+00, 0.00000000e+00, 0.00000000e+00, 0.00000000e+00, 0.00000000e+00, 0.00000000e+00, 0.00000000e+00, 0.00000000e+00, 0.00000000e+00, 0.00000000e+00, 0.00000000e+00, 0.00000000e+00, -4.65676662e+00, -2.18927624e+00, -4.29015308e+00, 7.82518511e-01, 0.00000000e+00, 5.0000000000, 6.0000000000, 0.2598551833
          66, 0.00000000e+00, 0.00000000e+00, 0.00000000e+00, 0.00000000e+00, 0.00000000e+00, 0.00000000e+00, 0.00000000e+00, 0.00000000e+00, 0.00000000e+00, 0.00000000e+00, 0.00000000e+00, 0.00000000e+00, -4.65793141e+00, -2.18970319e+00, -4.29315083e+00, 7.81319870e-01, 0.00000000e+00, 5.0000000000, 6.0000000000, 0.2636727333
          67, 0.00000000e+00, 0.00000000e+00, 0.00000000e+00, 0.00000000e+00, 0.00000000e+00, 0.00000000e+00, 0.00000000e+00, 0.00000000e+00, 0.00000000e+00, 0.00000000e+00, 0.00000000e+00, 0.00000000e+00, -4.65915894e+00, -2.19005990e+00, -4.29508104e+00, 7.80052052e-01, 0.00000000e+00, 5.0000000000, 6.0000000000, 0.2675818000
          68, 0.00000000e+00, 0.00000000e+00, 0.00000000e+00, 0.00000000e+00, 0.00000000e+00, 0.00000000e+00, 0.00000000e+00, 0.00000000e+00, 0.00000000e+00, 0.00000000e+00, 0.00000000e+00, 0.00000000e+00, -4.66043128e+00, -2.19036857e+00, -4.29621763e+00, 7.78734900e-01, 0.00000000e+00, 5.0000000000, 6.0000000000, 0.2712383500
          69, 0.00000000e+00, 0.00000000e+00, 0.00000000e+00, 0.00000000e+00, 0.00000000e+00, 0.00000000e+00, 0.00000000e+00, 0.00000000e+00, 0.00000000e+00, 0.00000000e+00, 0.00000000e+00, 0.00000000e+00, -4.66172633e+00, -2.19065698e+00, -4.29689002e+00, 7.77392904e-01, 0.00000000e+00, 5.0000000000, 6.0000000000, 0.2748709833
          70, 0.00000000e+00, 0.00000000e+00, 0.00000000e+00, 0.00000000e+00, 0.00000000e+00, 0.00000000e+00, 0.00000000e+00, 0.00000000e+00, 0.00000000e+00, 0.00000000e+00, 0.00000000e+00, 0.00000000e+00, -4.66301923e+00, -2.19095637e+00, -4.29744007e+00, 7.76053665e-01, 0.00000000e+00, 5.0000000000, 6.0000000000, 0.2785282333
          71, 0.00000000e+00, 0.00000000e+00, 0.00000000e+00, 0.00000000e+00, 0.00000000e+00, 0.00000000e+00, 0.00000000e+00, 0.00000000e+00, 0.00000000e+00, 0.00000000e+00, 0.00000000e+00, 0.00000000e+00, -4.66428408e+00, -2.19129901e+00, -4.29818437e+00, 7.74745948e-01, 0.00000000e+00, 5.0000000000, 6.0000000000, 0.2821715167
          72, 0.00000000e+00, 0.00000000e+00, 0.00000000e+00, 0.00000000e+00, 0.00000000e+00, 0.00000000e+00, 0.00000000e+00, 0.00000000e+00, 0.00000000e+00, 0.00000000e+00, 0.00000000e+00, 0.00000000e+00, -4.66549594e+00, -2.19171565e+00, -4.29938515e+00, 7.73497459e-01, 0.00000000e+00, 5.0000000000, 6.0000000000, 0.2858625667
          73, 0.00000000e+00, 0.00000000e+00, 0.00000000e+00, 0.00000000e+00, 0.00000000e+00, 0.00000000e+00, 0.00000000e+00, 0.00000000e+00, 0.00000000e+00, 0.00000000e+00, 0.00000000e+00, 0.00000000e+00, -4.66663287e+00, -2.19223298e+00, -4.30123045e+00, 7.72332574e-01, 0.00000000e+00, 5.0000000000, 6.0000000000, 0.2894013500
          74, 0.00000000e+00, 0.00000000e+00, 0.00000000e+00, 0.00000000e+00, 0.00000000e+00, 0.00000000e+00, 0.00000000e+00, 0.00000000e+00, 0.00000000e+00, 0.00000000e+00, 0.00000000e+00, 0.00000000e+00, -4.66767778e+00, -2.19287150e+00, -4.30382259e+00, 7.71270237e-01, 0.00000000e+00, 5.0000000000, 6.0000000000, 0.2930868000
          75, 0.00000000e+00, 0.00000000e+00, 0.00000000e+00, 0.00000000e+00, 0.00000000e+00, 0.00000000e+00, 0.00000000e+00, 0.00000000e+00, 0.00000000e+00, 0.00000000e+00, 0.00000000e+00, 0.00000000e+00, -4.66861998e+00, -2.19364380e+00, -4.30717372e+00, 7.70322293e-01, 0.00000000e+00, 5.0000000000, 6.0000000000, 0.2966401833
          76, 0.00000000e+00, 0.00000000e+00, 0.00000000e+00, 0.00000000e+00, 0.00000000e+00, 0.00000000e+00, 0.00000000e+00, 0.00000000e+00, 0.00000000e+00, 0.00000000e+00, 0.00000000e+00, 0.00000000e+00, -4.66945605e+00, -2.19455364e+00, -4.31120717e+00, 7.69492460e-01, 0.00000000e+00, 5.0000000000, 6.0000000000, 0.3004670000
          77, 0.00000000e+00, 0.00000000e+00, 0.00000000e+00, 0.00000000e+00, 0.00000000e+00, 0.00000000e+00, 0.00000000e+00, 0.00000000e+00, 0.00000000e+00, 0.00000000e+00, 0.00000000e+00, 0.00000000e+00, -4.67019009e+00, -2.19559569e+00, -4.31576458e+00, 7.68776088e-01, 0.00000000e+00, 5.0000000000, 6.0000000000, 0.3041373500
          78, 0.00000000e+00, 0.00000000e+00, 0.00000000e+00, 0.00000000e+00, 0.00000000e+00, 0.00000000e+00, 0.00000000e+00, 0.00000000e+00, 0.00000000e+00, 0.00000000e+00, 0.00000000e+00, 0.00000000e+00, -4.67083318e+00, -2.19675615e+00, -4.32061953e+00, 7.68160751e-01, 0.00000000e+00, 5.0000000000, 6.0000000000, 0.3076402167
          79, 0.00000000e+00, 0.00000000e+00, 0.00000000e+00, 0.00000000e+00, 0.00000000e+00, 0.00000000e+00, 0.00000000e+00, 0.00000000e+00, 0.00000000e+00, 0.00000000e+00, 0.00000000e+00, 0.00000000e+00, -4.67140221e+00, -2.19801404e+00, -4.32549829e+00, 7.67627583e-01, 0.00000000e+00, 5.0000000000, 6.0000000000, 0.3114127000
          80, 0.00000000e+00, 0.00000000e+00, 0.00000000e+00, 0.00000000e+00, 0.00000000e+00, 0.00000000e+00, 0.00000000e+00, 0.00000000e+00, 0.00000000e+00, 0.00000000e+00, 0.00000000e+00, 0.00000000e+00, -4.67191816e+00, -2.19934312e+00, -4.33010811e+00, 7.67153187e-01, 0.00000000e+00, 5.0000000000, 6.0000000000, 0.3151305000
          81, 0.00000000e+00, 0.00000000e+00, 0.00000000e+00, 0.00000000e+00, 0.00000000e+00, 0.00000000e+00, 0.00000000e+00, 0.00000000e+00, 0.00000000e+00, 0.00000000e+00, 0.00000000e+00, 0.00000000e+00, -4.67240410e+00, -2.20071420e+00, -4.33417127e+00, 7.66711869e-01, 0.00000000e+00, 5.0000000000, 6.0000000000, 0.3186104000
          82, 0.00000000e+00, 0.00000000e+00, 0.00000000e+00, 0.00000000e+00, 0.00000000e+00, 0.00000000e+00, 0.00000000e+00, 0.00000000e+00, 0.00000000e+00, 0.00000000e+00, 0.00000000e+00, 0.00000000e+00, -4.67288318e+00, -2.20209757e+00, -4.33746112e+00, 7.66277897e-01, 0.00000000e+00, 5.0000000000, 6.0000000000, 0.3221022167
          83, 0.00000000e+00, 0.00000000e+00, 0.00000000e+00, 0.00000000e+00, 0.00000000e+00, 0.00000000e+00, 0.00000000e+00, 0.00000000e+00, 0.00000000e+00, 0.00000000e+00, 0.00000000e+00, 0.00000000e+00, -4.67337673e+00, -2.20346529e+00, -4.33983396e+00, 7.65827564e-01, 0.00000000e+00, 5.0000000000, 6.0000000000, 0.3257197833
          84, 0.00000000e+00, 0.00000000e+00, 0.00000000e+00, 0.00000000e+00, 0.00000000e+00, 0.00000000e+00, 0.00000000e+00, 0.00000000e+00, 0.00000000e+00, 0.00000000e+00, 0.00000000e+00, 0.00000000e+00, -4.67390285e+00, -2.20479322e+00, -4.34124988e+00, 7.65340816e-01, 0.00000000e+00, 5.0000000000, 6.0000000000, 0.3293227000
          85, 0.00000000e+00, 0.00000000e+00, 0.00000000e+00, 0.00000000e+00, 0.00000000e+00, 0.00000000e+00, 0.00000000e+00, 0.00000000e+00, 0.00000000e+00, 0.00000000e+00, 0.00000000e+00, 0.00000000e+00, -4.67447534e+00, -2.20606239e+00, -4.34177758e+00, 7.64802354e-01, 0.00000000e+00, 5.0000000000, 6.0000000000, 0.3327959167
          86, 0.00000000e+00, 0.00000000e+00, 0.00000000e+00, 0.00000000e+00, 0.00000000e+00, 0.00000000e+00, 0.00000000e+00, 0.00000000e+00, 0.00000000e+00, 0.00000000e+00, 0.00000000e+00, 0.00000000e+00, -4.67510327e+00, -2.20725981e+00, -4.34158196e+00, 7.64202153e-01, 0.00000000e+00, 5.0000000000, 6.0000000000, 0.3361373833
          87, 0.00000000e+00, 0.00000000e+00, 0.00000000e+00, 0.00000000e+00, 0.00000000e+00, 0.00000000e+00, 0.00000000e+00, 0.00000000e+00, 0.00000000e+00, 0.00000000e+00, 0.00000000e+00, 0.00000000e+00, -4.67579097e+00, -2.20837866e+00, -4.34089762e+00, 7.63535446e-01, 0.00000000e+00, 5.0000000000, 6.0000000000, 0.3396922833
          88, 0.00000000e+00, 0.00000000e+00, 0.00000000e+00, 0.00000000e+00, 0.00000000e+00, 0.00000000e+00, 0.00000000e+00, 0.00000000e+00, 0.00000000e+00, 0.00000000e+00, 0.00000000e+00, 0.00000000e+00, -4.67653844e+00, -2.20941787e+00, -4.33999479e+00, 7.62802261e-01, 0.00000000e+00, 5.0000000000, 6.0000000000, 0.3432754667
          89, 0.00000000e+00, 0.00000000e+00, 0.00000000e+00, 0.00000000e+00, 0.00000000e+00, 0.00000000e+00, 0.00000000e+00, 0.00000000e+00, 0.00000000e+00, 0.00000000e+00, 0.00000000e+00, 0.00000000e+00, -4.67734207e+00, -2.21038124e+00, -4.33914457e+00, 7.62006639e-01, 0.00000000e+00, 5.0000000000, 6.0000000000, 0.3466639167