TITLE = "SU2 Simulation"
VARIABLES = "Iteration","CL","CD","CSF","CMx","CMy","CMz","CFx","CFy","CFz","CL/CD","AoA","Custom_ObjFunc","Res_Flow[0]","Res_Flow[1]","Res_Flow[2]","Res_Flow[3]","Res_Flow[4]","Linear_Solver_Iterations","CFL_Number","Time(min)"
ZONE T= "Convergence history"
           0, 0.00000000e+00, 0.00000000e+00, 0.00000000e+00, 0.00000000e+00, 0.00000000e+00, 0.00000000e+00, 0.00000000e+00, 0.00000000e+00, 0.00000000e+00, 0.00000000e+00, 0.00000000e+00, 0.00000000e+00, -4.13098240e+00, -1.65884192e+00, -1.42084842e+01, 1.30945738e+00, 0.00000000e+00, 5.0000000000, 6.0000000000, 0.0041099000
           1, 0.00000000e+00, 0.00000000e+00, 0.00000000e+00, 0.00000000e+00, 0.00000000e+00, 0.00000000e+00, 0.00000000e+00, 0.00000000e+00, 0.00000000e+00, 0.00000000e+00, 0.00000000e+00, 0.00000000e+00, -4.37683398e+00, -1.90885760e+00, -3.78088360e+00, 1.06448439e+00, 0.00000000e+00, 5.0000000000, 6.0000000000, 0.0081150833
           2, 0.00000000e+00, 0.00000000e+00, 0.00000000e+00, 0.00000000e+00, 0.00000000e+00, 0.00000000e+00, 0.00000000e+00, 0.00000000e+00, 0.00000000e+00, 0.00000000e+00, 0.00000000e+00, 0.00000000e+00, -4.47116340e+00, -1.97416828e+00, -3.03432842e+00, 9.79139767e-01, 0.00000000e+00, 5.0000000000, 6.0000000000, 0.0119254667
           3, 0.00000000e+00, 0.00000000e+00, 0.00000000e+00, 0.00000000e+00, 0.00000000e+00, 0.00000000e+00, 0.00000000e+00, 0.00000000e+00, 0.00000000e+00, 0.00000000e+00, 0.00000000e+00, 0.00000000e+00, -4.46693286e+00, -1.94710961e+00, -2.76446528e+00, 9.91522527e-01, 0.00000000e+00, 5.0000000000, 6.0000000000, 0.0158865333
           4, 0.00000000e+00, 0.00000000e+00, 0.00000000e+00, 0.00000000e+00, 0.00000000e+00, 0.00000000e+00, 0.00000000e+00, 0.00000000e+00, 0.00000000e+00, 0.00000000e+00, 0.00000000e+00, 0.00000000e+00, -4.46381164e+00, -1.93266960e+00, -2.61208211e+00, 9.99133987e-01, 0.00000000e+00, 5.0000000000, 6.0000000000, 0.0197431500
           5, 0.00000000e+00, 0.00000000e+00, 0.00000000e+00, 0.00000000e+00, 0.00000000e+00, 0.00000000e+00, 0.00000000e+00, 0.00000000e+00, 0.00000000e+00, 0.00000000e+00, 0.00000000e+00, 0.00000000e+00, -4.46680788e+00, -1.92782195e+00, -2.50849487e+00, 9.98982179e-01, 0.00000000e+00, 5.0000000000, 6.0000000000, 0.0236487167
           6, 0.00000000e+00, 0.00000000e+00, 0.00000000e+00, 0.00000000e+00, 0.00000000e+00, 0.00000000e+00, 0.00000000e+00, 0.00000000e+00, 0.00000000e+00, 0.00000000e+00, 0.00000000e+00, 0.00000000e+00, -4.46999504e+00, -1.92553765e+00, -2.43147140e+00, 9.97738452e-01, 0.00000000e+00, 5.0000000000, 6.0000000000, 0.0274931833
           7, 0.00000000e+00, 0.00000000e+00, 0.00000000e+00, 0.00000000e+00, 0.00000000e+00, 0.00000000e+00, 0.00000000e+00, 0.00000000e+00, 0.00000000e+00, 0.00000000e+00, 0.00000000e+00, 0.00000000e+00, -4.47170904e+00, -1.92345770e+00, -2.37105934e+00, 9.97480284e-01, 0.00000000e+00, 5.0000000000, 6.0000000000, 0.0317281000
           8, 0.00000000e+00, 0.00000000e+00, 0.00000000e+00, 0.00000000e+00, 0.00000000e+00, 0.00000000e+00, 0.00000000e+00, 0.00000000e+00, 0.00000000e+00, 0.00000000e+00, 0.00000000e+00, 0.00000000e+00, -4.47239012e+00, -1.92129945e+00, -2.32197715e+00, 9.97982640e-01, 0.00000000e+00, 5.0000000000, 6.0000000000, 0.0356757667
           9, 0.00000000e+00, 0.00000000e+00, 0.00000000e+00, 0.00000000e+00, 0.00000000e+00, 0.00000000e+00, 0.00000000e+00, 0.00000000e+00, 0.00000000e+00, 0.00000000e+00, 0.00000000e+00, 0.00000000e+00, -4.47271052e+00, -1.91936036e+00, -2.28109522e+00, 9.98650828e-01, 0.00000000e+00, 5.0000000000, 6.0000000000, 0.0394620667
          10, 0.00000000e+00, 0.00000000e+00, 0.00000000e+00, 0.00000000e+00, 0.00000000e+00, 0.00000000e+00, 0.00000000e+00, 0.00000000e+00, 0.00000000e+00, 0.00000000e+00, 0.00000000e+00, 0.00000000e+00, -4.47312979e+00, -1.91795214e+00, -2.24640473e+00, 9.99053295e-01, 0.00000000e+00, 5.0000000000, 6.0000000000, 0.0434311167
          11, 0.00000000e+00, 0.00000000e+00, 0.00000000e+00, 0.00000000e+00, 0.00000000e+00, 0.00000000e+00, 0.00000000e+00, 0.00000000e+00, 0.00000000e+00, 0.00000000e+00, 0.00000000e+00, 0.00000000e+00, -4.47390338e+00, -1.91724717e+00, -2.21653930e+00, 9.98956995e-01, 0.00000000e+00, 5.0000000000, 6.0000000000, 0.0473042500
          12, 0.00000000e+00, 0.00000000e+00, 0.00000000e+00, 0.00000000e+00, 0.00000000e+00, 0.00000000e+00, 0.00000000e+00, 0.00000000e+00, 0.00000000e+00, 0.00000000e+00, 0.00000000e+00, 0.00000000e+00, -4.47514346e+00, -1.91729118e+00, -2.19052844e+00, 9.98273646e-01, 0.00000000e+00, 5.0000000000, 6.0000000000, 0.0511252667
          13, 0.00000000e+00, 0.00000000e+00, 0.00000000e+00, 0.00000000e+00, 0.00000000e+00, 0.00000000e+00, 0.00000000e+00, 0.00000000e+00, 0.00000000e+00, 0.00000000e+00, 0.00000000e+00, 0.00000000e+00, -4.47687481e+00, -1.91805588e+00, -2.16765981e+00, 9.97000493e-01, 0.00000000e+00, 5.0000000000, 6.0000000000, 0.0552115500
          14, 0.00000000e+00, 0.00000000e+00, 0.00000000e+00, 0.00000000e+00, 0.00000000e+00, 0.00000000e+00, 0.00000000e+00, 0.00000000e+00, 0.00000000e+00, 0.00000000e+00, 0.00000000e+00, 0.00000000e+00, -4.47907662e+00, -1.91947837e+00, -2.14739464e+00, 9.95176545e-01, 0.00000000e+00, 5.0000000000, 6.0000000000, 0.0590537500
          15, 0.00000000e+00, 0.00000000e+00, 0.00000000e+00, 0.00000000e+00, 0.00000000e+00, 0.00000000e+00, 0.00000000e+00, 0.00000000e+00, 0.00000000e+00, 0.00000000e+00, 0.00000000e+00, 0.00000000e+00, -4.48170701e+00, -1.92148183e+00, -2.12931444e+00, 9.92858029e-01, 0.00000000e+00, 5.0000000000, 6.0000000000, 0.0628119167
          16, 0.00000000e+00, 0.00000000e+00, 0.00000000e+00, 0.00000000e+00, 0.00000000e+00, 0.00000000e+00, 0.00000000e+00, 0.00000000e+00, 0.00000000e+00, 0.00000000e+00, 0.00000000e+00, 0.00000000e+00, -4.48471357e+00, -1.92398374e+00, -2.11308749e+00, 9.90108863e-01, 0.00000000e+00, 5.0000000000, 6.0000000000, 0.0666243000
          17, 0.00000000e+00, 0.00000000e+00, 0.00000000e+00, 0.00000000e+00, 0.00000000e+00, 0.00000000e+00, 0.00000000e+00, 0.00000000e+00, 0.00000000e+00, 0.00000000e+00, 0.00000000e+00, 0.00000000e+00, -4.48803576e+00, -1.92689771e+00, -2.09844686e+00, 9.86999074e-01, 0.00000000e+00, 5.0000000000, 6.0000000000, 0.0705240333
          18, 0.00000000e+00, 0.00000000e+00, 0.00000000e+00, 0.00000000e+00, 0.00000000e+00, 0.00000000e+00, 0.00000000e+00, 0.00000000e+00, 0.00000000e+00, 0.00000000e+00, 0.00000000e+00, 0.00000000e+00, -4.49160442e+00, -1.93013257e+00, -2.08517560e+00, 9.83605924e-01, 0.00000000e+00, 5.0000000000, 6.0000000000, 0.0748992000
          19, 0.00000000e+00, 0.00000000e+00, 0.00000000e+00, 0.00000000e+00, 0.00000000e+00, 0.00000000e+00, 0.00000000e+00, 0.00000000e+00, 0.00000000e+00, 0.00000000e+00, 0.00000000e+00, 0.00000000e+00, -4.49534142e+00, -1.93359133e+00, -2.07309527e+00, 9.80014608e-01, 0.00000000e+00, 5.0000000000, 6.0000000000, 0.0788473667
          20, 0.00000000e+00, 0.00000000e+00, 0.00000000e+00, 0.00000000e+00, 0.00000000e+00, 0.00000000e+00, 0.00000000e+00, 0.00000000e+00, 0.00000000e+00, 0.00000000e+00, 0.00000000e+00, 0.00000000e+00, -4.49916123e+00, -1.93717227e+00, -2.06205826e+00, 9.76316770e-01, 0.00000000e+00, 5.0000000000, 6.0000000000, 0.0824776000
          21, 0.00000000e+00, 0.00000000e+00, 0.00000000e+00, 0.00000000e+00, 0.00000000e+00, 0.00000000e+00, 0.00000000e+00, 0.00000000e+00, 0.00000000e+00, 0.00000000e+00, 0.00000000e+00, 0.00000000e+00, -4.50297520e+00, -1.94077268e+00, -2.05194098e+00, 9.72606353e-01, 0.00000000e+00, 5.0000000000, 6.0000000000, 0.0862213667
          22, 0.00000000e+00, 0.00000000e+00, 0.00000000e+00, 0.00000000e+00, 0.00000000e+00, 0.00000000e+00, 0.00000000e+00, 0.00000000e+00, 0.00000000e+00, 0.00000000e+00, 0.00000000e+00, 0.00000000e+00, -4.50669775e+00, -1.94429516e+00, -2.04263889e+00, 9.68973375e-01, 0.00000000e+00, 5.0000000000, 6.0000000000, 0.0900265167
          23, 0.00000000e+00, 0.00000000e+00, 0.00000000e+00, 0.00000000e+00, 0.00000000e+00, 0.00000000e+00, 0.00000000e+00, 0.00000000e+00, 0.00000000e+00, 0.00000000e+00, 0.00000000e+00, 0.00000000e+00, -4.51025353e+00, -1.94765501e+00, -2.03406267e+00, 9.65496800e-01, 0.00000000e+00, 5.0000000000, 6.0000000000, 0.0939079667
          24, 0.00000000e+00, 0.00000000e+00, 0.00000000e+00, 0.00000000e+00, 0.00000000e+00, 0.00000000e+00, 0.00000000e+00, 0.00000000e+00, 0.00000000e+00, 0.00000000e+00, 0.00000000e+00, 0.00000000e+00, -4.51358396e+00, -1.95078715e+00, -2.02613530e+00, 9.62237953e-01, 0.00000000e+00, 5.0000000000, 6.0000000000, 0.0977626500
          25, 0.00000000e+00, 0.00000000e+00, 0.00000000e+00, 0.00000000e+00, 0.00000000e+00, 0.00000000e+00, 0.00000000e+00, 0.00000000e+00, 0.00000000e+00, 0.00000000e+00, 0.00000000e+00, 0.00000000e+00, -4.51665208e+00, -1.95365111e+00, -2.01878972e+00, 9.59235727e-01, 0.00000000e+00, 5.0000000000, 6.0000000000, 0.1016380333
          26, 0.00000000e+00, 0.00000000e+00, 0.00000000e+00, 0.00000000e+00, 0.00000000e+00, 0.00000000e+00, 0.00000000e+00, 0.00000000e+00, 0.00000000e+00, 0.00000000e+00, 0.00000000e+00, 0.00000000e+00, -4.51944464e+00, -1.95623305e+00, -2.01196737e+00, 9.56504555e-01, 0.00000000e+00, 5.0000000000, 6.0000000000, 0.1055745500
          27, 0.00000000e+00, 0.00000000e+00, 0.00000000e+00, 0.00000000e+00, 0.00000000e+00, 0.00000000e+00, 0.00000000e+00, 0.00000000e+00, 0.00000000e+00, 0.00000000e+00, 0.00000000e+00, 0.00000000e+00, -4.52197108e+00, -1.95854417e+00, -2.00561673e+00, 9.54035633e-01, 0.00000000e+00, 5.0000000000, 6.0000000000, 0.1095054000
          28, 0.00000000e+00, 0.00000000e+00, 0.00000000e+00, 0.00000000e+00, 0.00000000e+00, 0.00000000e+00, 0.00000000e+00, 0.00000000e+00, 0.00000000e+00, 0.00000000e+00, 0.00000000e+00, 0.00000000e+00, -4.52425950e+00, -1.96061588e+00, -1.99969244e+00, 9.51801192e-01, 0.00000000e+00, 5.0000000000, 6.0000000000, 0.1132923500
          29, 0.00000000e+00, 0.00000000e+00, 0.00000000e+00, 0.00000000e+00, 0.00000000e+00, 0.00000000e+00, 0.00000000e+00, 0.00000000e+00, 0.00000000e+00, 0.00000000e+00, 0.00000000e+00, 0.00000000e+00, -4.52635040e+00, -1.96249269e+00, -1.99415427e+00, 9.49760932e-01, 0.00000000e+00, 5.0000000000, 6.0000000000, 0.1171322833
          30, 0.00000000e+00, 0.00000000e+00, 0.00000000e+00, 0.00000000e+00, 0.00000000e+00, 0.00000000e+00, 0.00000000e+00, 0.00000000e+00, 0.00000000e+00, 0.00000000e+00, 0.00000000e+00, 0.00000000e+00, -4.52828965e+00, -1.96422432e+00, -1.98896649e+00, 9.47869242e-01, 0.00000000e+00, 5.0000000000, 6.0000000000, 0.1208625333
          31, 0.00000000e+00, 0.00000000e+00, 0.00000000e+00, 0.00000000e+00, 0.00000000e+00, 0.00000000e+00, 0.00000000e+00, 0.00000000e+00, 0.00000000e+00, 0.00000000e+00, 0.00000000e+00, 0.00000000e+00, -4.53012192e+00, -1.96585869e+00, -1.98409739e+00, 9.46081807e-01, 0.00000000e+00, 5.0000000000, 6.0000000000, 0.1255687833
          32, 0.00000000e+00, 0.00000000e+00, 0.00000000e+00, 0.00000000e+00, 0.00000000e+00, 0.00000000e+00, 0.00000000e+00, 0.00000000e+00, 0.00000000e+00, 0.00000000e+00, 0.00000000e+00, 0.00000000e+00, -4.53188578e+00, -1.96743674e+00, -1.97951878e+00, 9.44360489e-01, 0.00000000e+00, 5.0000000000, 6.0000000000, 0.1295744833
          33, 0.00000000e+00, 0.00000000e+00, 0.00000000e+00, 0.00000000e+00, 0.00000000e+00, 0.00000000e+00, 0.00000000e+00, 0.00000000e+00, 0.00000000e+00, 0.00000000e+00, 0.00000000e+00, 0.00000000e+00, -4.53361094e+00, -1.96898979e+00, -1.97520562e+00, 9.42676092e-01, 0.00000000e+00, 5.0000000000, 6.0000000000, 0.1330816000
          34, 0.00000000e+00, 0.00000000e+00, 0.00000000e+00, 0.00000000e+00, 0.00000000e+00, 0.00000000e+00, 0.00000000e+00, 0.00000000e+00, 0.00000000e+00, 0.00000000e+00, 0.00000000e+00, 0.00000000e+00, -4.53531736e+00, -1.97053921e+00, -1.97113580e+00, 9.41009092e-01, 0.00000000e+00, 5.0000000000, 6.0000000000, 0.1366329500
          35, 0.00000000e+00, 0.00000000e+00, 0.00000000e+00, 0.00000000e+00, 0.00000000e+00, 0.00000000e+00, 0.00000000e+00, 0.00000000e+00, 0.00000000e+00, 0.00000000e+00, 0.00000000e+00, 0.00000000e+00, -4.53701588e+00, -1.97209795e+00, -1.96728974e+00, 9.39348960e-01, 0.00000000e+00, 5.0000000000, 6.0000000000, 0.1401807000
          36, 0.00000000e+00, 0.00000000e+00, 0.00000000e+00, 0.00000000e+00, 0.00000000e+00, 0.00000000e+00, 0.00000000e+00, 0.00000000e+00, 0.00000000e+00, 0.00000000e+00, 0.00000000e+00, 0.00000000e+00, -4.53870930e+00, -1.97367327e+00, -1.96365009e+00, 9.37692989e-01, 0.00000000e+00, 5.0000000000, 6.0000000000, 0.1437691333
          37, 0.00000000e+00, 0.00000000e+00, 0.00000000e+00, 0.00000000e+00, 0.00000000e+00, 0.00000000e+00, 0.00000000e+00, 0.00000000e+00, 0.00000000e+00, 0.00000000e+00, 0.00000000e+00, 0.00000000e+00, -4.54039316e+00, -1.97527014e+00, -1.96020153e+00, 9.36045395e-01, 0.00000000e+00, 5.0000000000, 6.0000000000, 0.1472646500
          38, 0.00000000e+00, 0.00000000e+00, 0.00000000e+00, 0.00000000e+00, 0.00000000e+00, 0.00000000e+00, 0.00000000e+00, 0.00000000e+00, 0.00000000e+00, 0.00000000e+00, 0.00000000e+00, 0.00000000e+00, -4.54205552e+00, -1.97689518e+00, -1.95693036e+00, 9.34417455e-01, 0.00000000e+00, 5.0000000000, 6.0000000000, 0.1509831667
          39, 0.00000000e+00, 0.00000000e+00, 0.00000000e+00, 0.00000000e+00, 0.00000000e+00, 0.00000000e+00, 0.00000000e+00, 0.00000000e+00, 0.00000000e+00, 0.00000000e+00, 0.00000000e+00, 0.00000000e+00, -4.54367506e+00, -1.97856105e+00, -1.95382436e+00, 9.32829224e-01, 0.00000000e+00, 5.0000000000, 6.0000000000, 0.1556930500
          40, 0.00000000e+00, 0.00000000e+00, 0.00000000e+00, 0.00000000e+00, 0.00000000e+00, 0.00000000e+00, 0.00000000e+00, 0.00000000e+00, 0.00000000e+00, 0.00000000e+00, 0.00000000e+00, 0.00000000e+00, -4.54521721e+00, -1.98029158e+00, -1.95087264e+00, 9.31313138e-01, 0.00000000e+00, 5.0000000000, 6.0000000000, 0.1604153833
          41, 0.00000000e+00, 0.00000000e+00, 0.00000000e+00, 0.00000000e+00, 0.00000000e+00, 0.00000000e+00, 0.00000000e+00, 0.00000000e+00, 0.00000000e+00, 0.00000000e+00, 0.00000000e+00, 0.00000000e+00, -4.54662828e+00, -1.98212783e+00, -1.94806529e+00, 9.29919515e-01, 0.00000000e+00, 5.0000000000, 6.0000000000, 0.1642300000
          42, 0.00000000e+00, 0.00000000e+00, 0.00000000e+00, 0.00000000e+00, 0.00000000e+00, 0.00000000e+00, 0.00000000e+00, 0.00000000e+00, 0.00000000e+00, 0.00000000e+00, 0.00000000e+00, 0.00000000e+00, -4.54782824e+00, -1.98413504e+00, -1.94539336e+00, 9.28723436e-01, 0.00000000e+00, 5.0000000000, 6.0000000000, 0.1682917833
          43, 0.00000000e+00, 0.00000000e+00, 0.00000000e+00, 0.00000000e+00, 0.00000000e+00, 0.00000000e+00, 0.00000000e+00, 0.00000000e+00, 0.00000000e+00, 0.00000000e+00, 0.00000000e+00, 0.00000000e+00, -4.54870316e+00, -1.98641018e+00, -1.94284866e+00, 9.27831819e-01, 0.00000000e+00, 5.0000000000, 6.0000000000, 0.1719800167
          44, 0.00000000e+00, 0.00000000e+00, 0.00000000e+00, 0.00000000e+00, 0.00000000e+00, 0.00000000e+00, 0.00000000e+00, 0.00000000e+00, 0.00000000e+00, 0.00000000e+00, 0.00000000e+00, 0.00000000e+00, -4.54909990e+00, -1.98908931e+00, -1.94042372e+00, 9.27388584e-01, 0.00000000e+00, 5.0000000000, 6.0000000000, 0.1760931333
          45, 0.00000000e+00, 0.00000000e+00, 0.00000000e+00, 0.00000000e+00, 0.00000000e+00, 0.00000000e+00, 0.00000000e+00, 0.00000000e+00, 0.00000000e+00, 0.00000000e+00, 0.00000000e+00, 0.00000000e+00, -4.54882606e+00, -1.99235334e+00, -1.93811169e+00, 9.27574898e-01, 0.00000000e+00, 5.0000000000, 6.0000000000, 0.1796798333
          46, 0.00000000e+00, 0.00000000e+00, 0.00000000e+00, 0.00000000e+00, 0.00000000e+00, 0.00000000e+00, 0.00000000e+00, 0.00000000e+00, 0.00000000e+00, 0.00000000e+00, 0.00000000e+00, 0.00000000e+00, -4.54765908e+00, -1.99643079e+00, -1.93590639e+00, 9.28600983e-01, 0.00000000e+00, 5.0000000000, 6.0000000000, 0.1833040167
          47, 0.00000000e+00, 0.00000000e+00, 0.00000000e+00, 0.00000000e+00, 0.00000000e+00, 0.00000000e+00, 0.00000000e+00, 0.00000000e+00, 0.00000000e+00, 0.00000000e+00, 0.00000000e+00, 0.00000000e+00, -4.54536764e+00, -2.00159611e+00, -1.93380213e+00, 9.30686500e-01, 0.00000000e+00, 5.0000000000, 6.0000000000, 0.1870413167
          48, 0.00000000e+00, 0.00000000e+00, 0.00000000e+00, 0.00000000e+00, 0.00000000e+00, 0.00000000e+00, 0.00000000e+00, 0.00000000e+00, 0.00000000e+00, 0.00000000e+00, 0.00000000e+00, 0.00000000e+00, -4.54174596e+00, -2.00816242e+00, -1.93179363e+00, 9.34028801e-01, 0.00000000e+00, 5.0000000000, 6.0000000000, 0.1907791000
          49, 0.00000000e+00, 0.00000000e+00, 0.00000000e+00, 0.00000000e+00, 0.00000000e+00, 0.00000000e+00, 0.00000000e+00, 0.00000000e+00, 0.00000000e+00, 0.00000000e+00, 0.00000000e+00, 0.00000000e+00, -4.53665723e+00, -2.01646785e+00, -1.92987603e+00, 9.38762350e-01, 0.00000000e+00, 5.0000000000, 6.0000000000, 0.1944673667
          50, 0.00000000e+00, 0.00000000e+00, 0.00000000e+00, 0.00000000e+00, 0.00000000e+00, 0.00000000e+00, 0.00000000e+00, 0.00000000e+00, 0.00000000e+00, 0.00000000e+00, 0.00000000e+00, 0.00000000e+00, -4.53007707e+00, -2.02685502e+00, -1.92804475e+00, 9.44917444e-01, 0.00000000e+00, 5.0000000000, 6.0000000000, 0.1982542333
          51, 0.00000000e+00, 0.00000000e+00, 0.00000000e+00, 0.00000000e+00, 0.00000000e+00, 0.00000000e+00, 0.00000000e+00, 0.00000000e+00, 0.00000000e+00, 0.00000000e+00, 0.00000000e+00, 0.00000000e+00, -4.52212488e+00, -2.03964242e+00, -1.92629550e+00, 9.52389421e-01, 0.00000000e+00, 5.0000000000, 6.0000000000, 0.2022489667
          52, 0.00000000e+00, 0.00000000e+00, 0.00000000e+00, 0.00000000e+00, 0.00000000e+00, 0.00000000e+00, 0.00000000e+00, 0.00000000e+00, 0.00000000e+00, 0.00000000e+00, 0.00000000e+00, 0.00000000e+00, -4.51307243e+00, -2.05508552e+00, -1.92462422e+00, 9.60928550e-01, 0.00000000e+00, 5.0000000000, 6.0000000000, 0.2070227167
          53, 0.00000000e+00, 0.00000000e+00, 0.00000000e+00, 0.00000000e+00, 0.00000000e+00, 0.00000000e+00, 0.00000000e+00, 0.00000000e+00, 0.00000000e+00, 0.00000000e+00, 0.00000000e+00, 0.00000000e+00, -4.50332564e+00, -2.07332311e+00, -1.92302707e+00, 9.70155025e-01, 0.00000000e+00, 5.0000000000, 6.0000000000, 0.2108451667
          54, 0.00000000e+00, 0.00000000e+00, 0.00000000e+00, 0.00000000e+00, 0.00000000e+00, 0.00000000e+00, 0.00000000e+00, 0.00000000e+00, 0.00000000e+00, 0.00000000e+00, 0.00000000e+00, 0.00000000e+00, -4.49338412e+00, -2.09430218e+00, -1.92150043e+00, 9.79595564e-01, 0.00000000e+00, 5.0000000000, 6.0000000000, 0.2146872167
          55, 0.00000000e+00, 0.00000000e+00, 0.00000000e+00, 0.00000000e+00, 0.00000000e+00, 0.00000000e+00, 0.00000000e+00, 0.00000000e+00, 0.00000000e+00, 0.00000000e+00, 0.00000000e+00, 0.00000000e+00, -4.48378939e+00, -2.11767334e+00, -1.92004088e+00, 9.88731883e-01, 0.00000000e+00, 5.0000000000, 6.0000000000, 0.2185254667
          56, 0.00000000e+00, 0.00000000e+00, 0.00000000e+00, 0.00000000e+00, 0.00000000e+00, 0.00000000e+00, 0.00000000e+00, 0.00000000e+00, 0.00000000e+00, 0.00000000e+00, 0.00000000e+00, 0.00000000e+00, -4.47507407e+00, -2.14265409e+00, -1.91864523e+00, 9.97049606e-01, 0.00000000e+00, 5.0000000000, 6.0000000000, 0.2227259833
          57, 0.00000000e+00, 0.00000000e+00, 0.00000000e+00, 0.00000000e+00, 0.00000000e+00, 0.00000000e+00, 0.00000000e+00, 0.00000000e+00, 0.00000000e+00, 0.00000000e+00, 0.00000000e+00, 0.00000000e+00, -4.46772087e+00, -2.16787824e+00, -1.91731043e+00, 1.00407884e+00, 0.00000000e+00, 5.0000000000, 6.0000000000, 0.2266421667
          58, 0.00000000e+00, 0.00000000e+00, 0.00000000e+00, 0.00000000e+00, 0.00000000e+00, 0.00000000e+00, 0.00000000e+00, 0.00000000e+00, 0.00000000e+00, 0.00000000e+00, 0.00000000e+00, 0.00000000e+00, -4.46213514e+00, -2.19130120e+00, -1.91603366e+00, 1.00942218e+00, 0.00000000e+00, 5.0000000000, 6.0000000000, 0.2305939000
          59, 0.00000000e+00, 0.00000000e+00, 0.00000000e+00, 0.00000000e+00, 0.00000000e+00, 0.00000000e+00, 0.00000000e+00, 0.00000000e+00, 0.00000000e+00, 0.00000000e+00, 0.00000000e+00, 0.00000000e+00, -4.45863062e+00, -2.21030875e+00, -1.91481223e+00, 1.01277023e+00, 0.00000000e+00, 5.0000000000, 6.0000000000, 0.2345623667
          60, 0.00000000e+00, 0.00000000e+00, 0.00000000e+00, 0.00000000e+00, 0.00000000e+00, 0.00000000e+00, 0.00000000e+00, 0.00000000e+00, 0.00000000e+00, 0.00000000e+00, 0.00000000e+00, 0.00000000e+00, -4.45742527e+00, -2.22220466e+00, -1.91364365e+00, 1.01390697e+00, 0.00000000e+00, 5.0000000000, 6.0000000000, 0.2389505833
          61, 0.00000000e+00, 0.00000000e+00, 0.00000000e+00, 0.00000000e+00, 0.00000000e+00, 0.00000000e+00, 0.00000000e+00, 0.00000000e+00, 0.00000000e+00, 0.00000000e+00, 0.00000000e+00, 0.00000000e+00, -4.45864373e+00, -2.22506669e+00, -1.91252560e+00, 1.01270847e+00, 0.00000000e+00, 5.0000000000, 6.0000000000, 0.2432026667
          62, 0.00000000e+00, 0.00000000e+00, 0.00000000e+00, 0.00000000e+00, 0.00000000e+00, 0.00000000e+00, 0.00000000e+00, 0.00000000e+00, 0.00000000e+00, 0.00000000e+00, 0.00000000e+00, 0.00000000e+00, -4.46232318e+00, -2.21854725e+00, -1.91145591e+00, 1.00913776e+00, 0.00000000e+00, 5.0000000000, 6.0000000000, 0.2474312833
          63, 0.00000000e+00, 0.00000000e+00, 0.00000000e+00, 0.00000000e+00, 0.00000000e+00, 0.00000000e+00, 0.00000000e+00, 0.00000000e+00, 0.00000000e+00, 0.00000000e+00, 0.00000000e+00, 0.00000000e+00, -4.46842034e+00, -2.20401472e+00, -1.91043255e+00, 1.00323837e+00, 0.00000000e+00, 5.0000000000, 6.0000000000, 0.2516671333
          64, 0.00000000e+00, 0.00000000e+00, 0.00000000e+00, 0.00000000e+00, 0.00000000e+00, 0.00000000e+00, 0.00000000e+00, 0.00000000e+00, 0.00000000e+00, 0.00000000e+00, 0.00000000e+00, 0.00000000e+00, -4.47681817e+00, -2.18391749e+00, -1.90945365e+00, 9.95127664e-01, 0.00000000e+00, 5.0000000000, 6.0000000000, 0.2559884333
          65, 0.00000000e+00, 0.00000000e+00, 0.00000000e+00, 0.00000000e+00, 0.00000000e+00, 0.00000000e+00, 0.00000000e+00, 0.00000000e+00, 0.00000000e+00, 0.00000000e+00, 0.00000000e+00, 0.00000000e+00, -4.48733159e+00, -2.16088704e+00, -1.90851743e+00, 9.84990975e-01, 0.00000000e+00, 5.0000000000, 6.0000000000, 0.2598551833
          66, 0.00000000e+00, 0.00000000e+00, 0.00000000e+00, 0.00000000e+00, 0.00000000e+00, 0.00000000e+00, 0.00000000e+00, 0.00000000e+00, 0.00000000e+00, 0.00000000e+00, 0.00000000e+00, 0.00000000e+00, -4.49971218e+00, -2.13711979e+00, -1.90762223e+00, 9.73076371e-01, 0.00000000e+00, 5.0000000000, 6.0000000000, 0.2636727333
          67, 0.00000000e+00, 0.00000000e+00, 0.00000000e+00, 0.00000000e+00, 0.00000000e+00, 0.00000000e+00, 0.00000000e+00, 0.00000000e+00, 0.00000000e+00, 0.00000000e+00, 0.00000000e+00, 0.00000000e+00, -4.51365223e+00, -2.11416779e+00, -1.90676647e+00, 9.59689692e-01, 0.00000000e+00, 5.0000000000, 6.0000000000, 0.2675818000
          68, 0.00000000e+00, 0.00000000e+00, 0.00000000e+00, 0.00000000e+00, 0.00000000e+00, 0.00000000e+00, 0.00000000e+00, 0.00000000e+00, 0.00000000e+00, 0.00000000e+00, 0.00000000e+00, 0.00000000e+00, -4.52878939e+00, -2.09299131e+00, -1.90594864e+00, 9.45188837e-01, 0.00000000e+00, 5.0000000000, 6.0000000000, 0.2712383500
          69, 0.00000000e+00, 0.00000000e+00, 0.00000000e+00, 0.00000000e+00, 0.00000000e+00, 0.00000000e+00, 0.00000000e+00, 0.00000000e+00, 0.00000000e+00, 0.00000000e+00, 0.00000000e+00, 0.00000000e+00, -4.54471318e+00, -2.07410368e+00, -1.90516731e+00, 9.29975892e-01, 0.00000000e+00, 5.0000000000, 6.0000000000, 0.2748709833
          70, 0.00000000e+00, 0.00000000e+00, 0.00000000e+00, 0.00000000e+00, 0.00000000e+00, 0.00000000e+00, 0.00000000e+00, 0.00000000e+00, 0.00000000e+00, 0.00000000e+00, 0.00000000e+00, 0.00000000e+00, -4.56097542e+00, -2.05771486e+00, -1.90442108e+00, 9.14485419e-01, 0.00000000e+00, 5.0000000000, 6.0000000000, 0.2785282333
          71, 0.00000000e+00, 0.00000000e+00, 0.00000000e+00, 0.00000000e+00, 0.00000000e+00, 0.00000000e+00, 0.00000000e+00, 0.00000000e+00, 0.00000000e+00, 0.00000000e+00, 0.00000000e+00, 0.00000000e+00, -4.57710637e+00, -2.04384199e+00, -1.90370864e+00, 8.99167443e-01, 0.00000000e+00, 5.0000000000, 6.0000000000, 0.2821715167
          72, 0.00000000e+00, 0.00000000e+00, 0.00000000e+00, 0.00000000e+00, 0.00000000e+00, 0.00000000e+00, 0.00000000e+00, 0.00000000e+00, 0.00000000e+00, 0.00000000e+00, 0.00000000e+00, 0.00000000e+00, -4.59263771e+00, -2.03238564e+00, -1.90302872e+00, 8.84464461e-01, 0.00000000e+00, 5.0000000000, 6.0000000000, 0.2858625667
          73, 0.00000000e+00, 0.00000000e+00, 0.00000000e+00, 0.00000000e+00, 0.00000000e+00, 0.00000000e+00, 0.00000000e+00, 0.00000000e+00, 0.00000000e+00, 0.00000000e+00, 0.00000000e+00, 0.00000000e+00, -4.60713175e+00, -2.02317929e+00, -1.90238010e+00, 8.70783465e-01, 0.00000000e+00, 5.0000000000, 6.0000000000, 0.2894013500
          74, 0.00000000e+00, 0.00000000e+00, 0.00000000e+00, 0.00000000e+00, 0.00000000e+00, 0.00000000e+00, 0.00000000e+00, 0.00000000e+00, 0.00000000e+00, 0.00000000e+00, 0.00000000e+00, 0.00000000e+00, -4.62021408e+00, -2.01602049e+00, -1.90176163e+00, 8.58466075e-01, 0.00000000e+00, 5.0000000000, 6.0000000000, 0.2930868000
          75, 0.00000000e+00, 0.00000000e+00, 0.00000000e+00, 0.00000000e+00, 0.00000000e+00, 0.00000000e+00, 0.00000000e+00, 0.00000000e+00, 0.00000000e+00, 0.00000000e+00, 0.00000000e+00, 0.00000000e+00, -4.63160412e+00, -2.01069018e+00, -1.90117218e+00, 8.47761846e-01, 0.00000000e+00, 5.0000000000, 6.0000000000, 0.2966401833
          76, 0.00000000e+00, 0.00000000e+00, 0.00000000e+00, 0.00000000e+00, 0.00000000e+00, 0.00000000e+00, 0.00000000e+00, 0.00000000e+00, 0.00000000e+00, 0.00000000e+00, 0.00000000e+00, 0.00000000e+00, -4.64113714e+00, -2.00696480e+00, -1.90061068e+00, 8.38810400e-01, 0.00000000e+00, 5.0000000000, 6.0000000000, 0.3004670000
          77, 0.00000000e+00, 0.00000000e+00, 0.00000000e+00, 0.00000000e+00, 0.00000000e+00, 0.00000000e+00, 0.00000000e+00, 0.00000000e+00, 0.00000000e+00, 0.00000000e+00, 0.00000000e+00, 0.00000000e+00, -4.64877227e+00, -2.00462400e+00, -1.90007609e+00, 8.31636697e-01, 0.00000000e+00, 5.0000000000, 6.0000000000, 0.3041373500
          78, 0.00000000e+00, 0.00000000e+00, 0.00000000e+00, 0.00000000e+00, 0.00000000e+00, 0.00000000e+00, 0.00000000e+00, 0.00000000e+00, 0.00000000e+00, 0.00000000e+00, 0.00000000e+00, 0.00000000e+00, -4.65458456e+00, -2.00345574e+00, -1.89956741e+00, 8.26160559e-01, 0.00000000e+00, 5.0000000000, 6.0000000000, 0.3076402167
          79, 0.00000000e+00, 0.00000000e+00, 0.00000000e+00, 0.00000000e+00, 0.00000000e+00, 0.00000000e+00, 0.00000000e+00, 0.00000000e+00, 0.00000000e+00, 0.00000000e+00, 0.00000000e+00, 0.00000000e+00, -4.65874320e+00, -2.00325971e+00, -1.89908367e+00, 8.22217809e-01, 0.00000000e+00, 5.0000000000, 6.0000000000, 0.3114127000
          80, 0.00000000e+00, 0.00000000e+00, 0.00000000e+00, 0.00000000e+00, 0.00000000e+00, 0.00000000e+00, 0.00000000e+00, 0.00000000e+00, 0.00000000e+00, 0.00000000e+00, 0.00000000e+00, 0.00000000e+00, -4.66148194e+00, -2.00384964e+00, -1.89862394e+00, 8.19587651e-01, 0.00000000e+00, 5.0000000000, 6.0000000000, 0.3151305000
          81, 0.00000000e+00, 0.00000000e+00, 0.00000000e+00, 0.00000000e+00, 0.00000000e+00, 0.00000000e+00, 0.00000000e+00, 0.00000000e+00, 0.00000000e+00, 0.00000000e+00, 0.00000000e+00, 0.00000000e+00, -4.66306838e+00, -2.00505447e+00, -1.89818732e+00, 8.18020301e-01, 0.00000000e+00, 5.0000000000, 6.0000000000, 0.3186104000
          82, 0.00000000e+00, 0.00000000e+00, 0.00000000e+00, 0.00000000e+00, 0.00000000e+00, 0.00000000e+00, 0.00000000e+00, 0.00000000e+00, 0.00000000e+00, 0.00000000e+00, 0.00000000e+00, 0.00000000e+00, -4.66377792e+00, -2.00671857e+00, -1.89777296e+00, 8.17260022e-01, 0.00000000e+00, 5.0000000000, 6.0000000000, 0.3221022167
          83, 0.00000000e+00, 0.00000000e+00, 0.00000000e+00, 0.00000000e+00, 0.00000000e+00, 0.00000000e+00, 0.00000000e+00, 0.00000000e+00, 0.00000000e+00, 0.00000000e+00, 0.00000000e+00, 0.00000000e+00, -4.66387552e+00, -2.00870092e+00, -1.89738003e+00, 8.17061017e-01, 0.00000000e+00, 5.0000000000, 6.0000000000, 0.3257197833
          84, 0.00000000e+00, 0.00000000e+00, 0.00000000e+00, 0.00000000e+00, 0.00000000e+00, 0.00000000e+00, 0.00000000e+00, 0.00000000e+00, 0.00000000e+00, 0.00000000e+00, 0.00000000e+00, 0.00000000e+00, -4.66360583e+00, -2.01087340e+00, -1.89700774e+00, 8.17195781e-01, 0.00000000e+00, 5.0000000000, 6.0000000000, 0.3293227000
          85, 0.00000000e+00, 0.00000000e+00, 0.00000000e+00, 0.00000000e+00, 0.00000000e+00, 0.00000000e+00, 0.00000000e+00, 0.00000000e+00, 0.00000000e+00, 0.00000000e+00, 0.00000000e+00, 0.00000000e+00, -4.66319055e+00, -2.01311840e+00, -1.89665534e+00, 8.17457081e-01, 0.00000000e+00, 5.0000000000, 6.0000000000, 0.3327959167
          86, 0.00000000e+00, 0.00000000e+00, 0.00000000e+00, 0.00000000e+00, 0.00000000e+00, 0.00000000e+00, 0.00000000e+00, 0.00000000e+00, 0.00000000e+00, 0.00000000e+00, 0.00000000e+00, 0.00000000e+00, -4.66283079e+00, -2.01532622e+00, -1.89632208e+00, 8.17655451e-01, 0.00000000e+00, 5.0000000000, 6.0000000000, 0.3361373833
          87, 0.00000000e+00, 0.00000000e+00, 0.00000000e+00, 0.00000000e+00, 0.00000000e+00, 0.00000000e+00, 0.00000000e+00, 0.00000000e+00, 0.00000000e+00, 0.00000000e+00, 0.00000000e+00, 0.00000000e+00, -4.66271229e+00, -2.01739266e+00, -1.89600728e+00, 8.17614158e-01, 0.00000000e+00, 5.0000000000, 6.0000000000, 0.3396922833
          88, 0.00000000e+00, 0.00000000e+00, 0.00000000e+00, 0.00000000e+00, 0.00000000e+00, 0.00000000e+00, 0.00000000e+00, 0.00000000e+00, 0.00000000e+00, 0.00000000e+00, 0.00000000e+00, 0.00000000e+00, -4.66301164e+00, -2.01921754e+00, -1.89571025e+00, 8.17163343e-01, 0.00000000e+00, 5.0000000000, 6.0000000000, 0.3432754667
          89, 0.00000000e+00, 0.00000000e+00, 0.00000000e+00, 0.00000000e+00, 0.00000000e+00, 0.00000000e+00, 0.00000000e+00, 0.00000000e+00, 0.00000000e+00, 0.00000000e+00, 0.00000000e+00, 0.00000000e+00, -4.66390207e+00, -2.02070463e+00, -1.89543037e+00, 8.16134533e-01, 0.00000000e+00, 5.0000000000, 6.0000000000, 0.3466639167