/*--------------------------------*- C++ -*----------------------------------*\
  =========                 |
  \\      /  F ield         | OpenFOAM: The Open Source CFD Toolbox
   \\    /   O peration     | Website:  https://openfoam.org
    \\  /    A nd           | Version:  6
     \\/     M anipulation  |
\*---------------------------------------------------------------------------*/
FoamFile
{
    version     2.0;
    format      ascii;
    class       volVectorField;
    location    "30";
    object      U;
}
// * * * * * * * * * * * * * * * * * * * * * * * * * * * * * * * * * * * * * //

dimensions      [0 1 -1 0 0 0 0];

internalField   nonuniform List<vector> 
4000
(
(400 5.29303e-14 0)
(400 6.66093e-14 0)
(400 6.9154e-14 0)
(400 7.3602e-14 0)
(400 7.80217e-14 0)
(400 8.05324e-14 0)
(400 8.00504e-14 0)
(400 9.7888e-14 0)
(400 9.15155e-14 0)
(400 6.2188e-14 0)
(400 4.91846e-14 0)
(400 3.75318e-14 0)
(400 1.56068e-14 0)
(400 2.16761e-14 0)
(400 3.55103e-14 0)
(400 3.57318e-14 0)
(400 2.14974e-14 0)
(400 7.76134e-16 0)
(400 -9.90397e-16 0)
(400 7.14072e-15 0)
(400 -3.28618e-15 0)
(400 -4.47165e-15 0)
(400 8.74229e-15 0)
(400 4.94503e-15 0)
(400 -4.1754e-16 0)
(400 -1.21294e-14 0)
(400 -1.01044e-14 0)
(400 -6.35083e-15 0)
(400 -5.10918e-15 0)
(400 5.30926e-15 0)
(400 1.01707e-14 0)
(400 1.1685e-14 0)
(400 5.35344e-15 0)
(400 2.04361e-15 0)
(400 7.75742e-15 0)
(400 9.54266e-15 0)
(400 6.56502e-15 0)
(400 -1.20696e-15 0)
(400 -1.2431e-14 0)
(400 -5.88731e-15 0)
(400 -5.34589e-15 0)
(400 4.71725e-15 0)
(400 9.66306e-15 0)
(400 3.11657e-14 0)
(400 3.43883e-14 0)
(400 3.91143e-14 0)
(400 4.66947e-14 0)
(400 4.78531e-14 0)
(400 4.0263e-14 0)
(400 4.19985e-14 0)
(400 5.07997e-14 0)
(400 4.61455e-14 0)
(400 3.29409e-14 0)
(400 1.6563e-14 0)
(400 6.74494e-15 0)
(400 2.51621e-14 0)
(400 2.63439e-14 0)
(400 1.39796e-14 0)
(400 7.49569e-15 0)
(400 9.46055e-15 0)
(400 1.21123e-14 0)
(400 9.0473e-15 0)
(400 5.9542e-15 0)
(400 7.33022e-17 0)
(400 -4.0399e-15 0)
(400 -7.91922e-16 0)
(400 -5.18032e-15 0)
(400 -1.19639e-14 0)
(400 -2.40074e-14 0)
(400 -2.13458e-14 0)
(400 -1.87107e-14 0)
(400 -2.30143e-14 0)
(400 -3.77363e-14 0)
(400 -3.81383e-14 0)
(400 -3.07322e-14 0)
(400 -1.02151e-14 0)
(400 8.34473e-15 0)
(400 1.62085e-14 0)
(400 1.50033e-14 0)
(400 -3.98994e-15 0)
(400 1.54864e-15 0)
(400 2.91498e-14 0)
(400 2.74834e-14 0)
(400 4.0111e-16 0)
(400 -7.22621e-15 0)
(400 1.70552e-14 0)
(400 3.04187e-14 0)
(400 8.83206e-15 0)
(400 -5.09668e-15 0)
(400 -2.36767e-14 0)
(400 -1.22022e-14 0)
(400 1.97793e-14 0)
(400 2.32733e-14 0)
(400 1.10278e-14 0)
(400 1.36825e-14 0)
(400 2.90991e-14 0)
(400 3.30928e-14 0)
(400 3.82864e-14 0)
(400 3.00777e-14 0)
(400 3.81334e-14 0)
(400 2.98257e-14 0)
(400 2.42571e-14 0)
(400 1.24392e-14 0)
(400 1.35256e-15 0)
(400 -2.63542e-14 0)
(400 -3.94858e-14 0)
(400 -3.75552e-14 0)
(400 -1.5029e-14 0)
(400 -7.93736e-15 0)
(400 -1.33377e-14 0)
(400 -1.58707e-15 0)
(400 1.79298e-14 0)
(400 -4.92742e-15 0)
(400 -1.636e-14 0)
(400 -2.36129e-14 0)
(400 -3.13992e-14 0)
(400 -4.91969e-14 0)
(400 -6.90954e-14 0)
(400 -6.73872e-14 0)
(400 -4.19821e-14 0)
(400 -4.25198e-14 0)
(400 -4.92445e-14 0)
(400 -3.55921e-14 0)
(400 -3.54309e-14 0)
(400 -2.51852e-14 0)
(400 3.02902e-15 0)
(400 6.09682e-16 0)
(400 1.27388e-15 0)
(400 2.13328e-15 0)
(400 7.93841e-15 0)
(400 2.294e-14 0)
(400 1.71205e-14 0)
(400 8.96667e-15 0)
(400 2.72378e-14 0)
(400 3.67363e-14 0)
(400 4.09014e-14 0)
(400 3.13221e-14 0)
(400 3.40841e-14 0)
(400 9.92443e-15 0)
(400 7.67129e-15 0)
(400 -4.10992e-15 0)
(400 -5.50329e-15 0)
(400 5.83492e-16 0)
(400 -2.09518e-14 0)
(400 -3.5787e-14 0)
(400 -3.30483e-14 0)
(400 -1.98972e-14 0)
(400 -6.23512e-15 0)
(400 4.98143e-15 0)
(400 1.8306e-15 0)
(400 1.91325e-15 0)
(400 2.48766e-15 0)
(400 1.25177e-14 0)
(400 2.01438e-14 0)
(400 1.17259e-14 0)
(400 3.69689e-15 0)
(400 -4.28121e-15 0)
(400 -2.59616e-15 0)
(400 -3.13899e-15 0)
(400 -5.83609e-16 0)
(400 2.67522e-15 0)
(400 1.68541e-14 0)
(400 2.10085e-14 0)
(400 2.42098e-14 0)
(400 2.43399e-14 0)
(400 3.80421e-14 0)
(400 5.05536e-14 0)
(400 4.32901e-14 0)
(400 2.39341e-14 0)
(400 1.67768e-15 0)
(400 -7.04468e-15 0)
(400 -1.49854e-14 0)
(400 -3.29105e-14 0)
(400 -4.25259e-14 0)
(400 -5.96135e-14 0)
(400 -5.93212e-14 0)
(400 -3.76158e-14 0)
(400 -1.92161e-14 0)
(400 -1.1291e-14 0)
(400 -5.56527e-15 0)
(400 -2.87397e-15 0)
(400 -2.15209e-15 0)
(400 -9.21197e-15 0)
(400 -1.1118e-14 0)
(400 5.11543e-15 0)
(400 2.38442e-14 0)
(400 4.16135e-14 0)
(400 4.49324e-14 0)
(400 2.62964e-14 0)
(400 1.96339e-14 0)
(400 3.8903e-14 0)
(400 4.97123e-14 0)
(400 4.87366e-14 0)
(400 4.95446e-14 0)
(400 6.37603e-14 0)
(400 7.06961e-14 0)
(400 7.8009e-14 0)
(400 7.03139e-14 0)
(400 6.17417e-14 0)
(400 5.53441e-14 0)
(400 3.66623e-15 0)
(400 2.26528e-14 0)
(400 3.48486e-14 0)
(400 4.70687e-14 0)
(400 6.17212e-14 0)
(400 8.29372e-14 0)
(400 8.33571e-14 0)
(400 8.87564e-14 0)
(400 8.95952e-14 0)
(400 8.71268e-14 0)
(400 7.86091e-14 0)
(400 6.71249e-14 0)
(400 6.24179e-14 0)
(400 5.44284e-14 0)
(400 4.60514e-14 0)
(400 3.58944e-14 0)
(400 3.39084e-14 0)
(400 3.7598e-14 0)
(400 2.68873e-14 0)
(400 3.7443e-14 0)
(400 3.33918e-14 0)
(400 1.20534e-14 0)
(400 -1.27522e-14 0)
(400 -4.71564e-16 0)
(400 1.00754e-14 0)
(400 3.96061e-15 0)
(400 -3.5791e-15 0)
(400 6.24512e-15 0)
(400 3.3706e-14 0)
(400 6.24332e-14 0)
(400 7.82613e-14 0)
(400 8.53995e-14 0)
(400 7.50637e-14 0)
(400 4.95027e-14 0)
(400 3.59906e-14 0)
(400 4.46854e-14 0)
(400 5.22493e-14 0)
(400 4.45854e-14 0)
(400 3.11677e-14 0)
(400 9.4694e-15 0)
(400 -7.64651e-15 0)
(400 -2.9186e-15 0)
(400 -1.47414e-14 0)
(400 -1.62593e-14 0)
(400 -1.61922e-14 0)
(400 -8.55756e-15 0)
(400 -3.26531e-15 0)
(400 -1.33781e-14 0)
(400 -1.18207e-14 0)
(400 -1.35137e-14 0)
(400 -5.69271e-15 0)
(400 1.5481e-14 0)
(400 2.85089e-14 0)
(400 1.99346e-14 0)
(400 1.21228e-14 0)
(400 1.89095e-14 0)
(400 1.81713e-14 0)
(400 1.55552e-14 0)
(400 8.63425e-15 0)
(400 1.50493e-14 0)
(400 3.09165e-14 0)
(400 2.47536e-14 0)
(400 1.31567e-14 0)
(400 1.32659e-14 0)
(400 2.6411e-14 0)
(400 3.48377e-14 0)
(400 3.60934e-14 0)
(400 1.72018e-14 0)
(400 1.94685e-14 0)
(400 3.19954e-14 0)
(400 3.76416e-14 0)
(400 3.33561e-14 0)
(400 2.96805e-14 0)
(400 2.03893e-14 0)
(400 3.33626e-14 0)
(400 2.75334e-14 0)
(400 3.22021e-14 0)
(400 3.81346e-14 0)
(400 3.4479e-14 0)
(400 2.3946e-14 0)
(400 1.86797e-14 0)
(400 2.63851e-14 0)
(400 1.5031e-14 0)
(400 -3.06065e-15 0)
(400 -1.45899e-14 0)
(400 -2.78978e-14 0)
(400 -4.39062e-14 0)
(400 -6.05971e-14 0)
(400 -6.05574e-14 0)
(400 -5.03627e-14 0)
(400 -4.18613e-14 0)
(400 -3.37759e-14 0)
(400 -4.33378e-14 0)
(400 -3.46849e-14 0)
(400 -2.69397e-14 0)
(400 -2.45104e-14 0)
(400 -2.56138e-14 0)
(400 -2.19519e-14 0)
(400 -1.20161e-14 0)
(400 3.96204e-15 0)
(400 9.99272e-15 0)
(400 7.77761e-15 0)
(400 6.25998e-15 0)
(400 3.29341e-15 0)
(400 -1.23943e-14 0)
(400 -2.94089e-14 0)
(400 -3.45852e-14 0)
(400 -2.15643e-14 0)
(400 -1.12584e-14 0)
(400 -2.00395e-15 0)
(400 1.20043e-14 0)
(400 3.92653e-14 0)
(400 2.95816e-14 0)
(400 2.70222e-14 0)
(400 9.47877e-15 0)
(400 -6.11599e-15 0)
(400 -1.21308e-14 0)
(400 -2.9365e-14 0)
(400 -2.90786e-14 0)
(400 -7.21161e-15 0)
(400 5.97685e-15 0)
(400 4.97888e-15 0)
(400 6.39257e-16 0)
(400 -2.15203e-14 0)
(400 -3.12768e-14 0)
(400 -1.82683e-14 0)
(400 -8.74982e-15 0)
(400 -2.53697e-14 0)
(400 -2.13211e-14 0)
(400 -2.16355e-14 0)
(400 -2.83842e-14 0)
(400 -1.53736e-14 0)
(400 -2.26758e-14 0)
(400 -1.41603e-14 0)
(400 7.14997e-15 0)
(400 1.41301e-14 0)
(400 1.63249e-14 0)
(400 -4.15592e-17 0)
(400 -7.4373e-15 0)
(400 -1.44153e-14 0)
(400 -1.49915e-14 0)
(400 -1.94387e-14 0)
(400 -2.33982e-14 0)
(400 -2.2194e-14 0)
(400 -1.99747e-14 0)
(400 -3.64224e-14 0)
(400 -5.108e-14 0)
(400 -4.20038e-14 0)
(400 -2.39542e-14 0)
(400 -4.18348e-14 0)
(400 -6.47751e-14 0)
(400 -6.32967e-14 0)
(400 -4.5988e-14 0)
(400 -4.14544e-14 0)
(400 -4.19998e-14 0)
(400 -4.35708e-14 0)
(400 -4.6474e-14 0)
(400 -2.46156e-14 0)
(400 -9.99004e-15 0)
(400 -1.37455e-14 0)
(400 -6.11009e-15 0)
(400 1.80935e-14 0)
(400 1.93415e-14 0)
(400 4.89801e-15 0)
(400 -4.68358e-17 0)
(400 3.61284e-14 0)
(400 5.89387e-14 0)
(400 5.91345e-14 0)
(400 4.8255e-14 0)
(400 2.89263e-14 0)
(400 1.76548e-14 0)
(400 2.23014e-14 0)
(400 1.53017e-14 0)
(400 1.32124e-14 0)
(400 -3.20897e-15 0)
(400 -1.25137e-14 0)
(400 -7.52585e-15 0)
(400 -1.35479e-15 0)
(400 4.59971e-15 0)
(400 3.07308e-14 0)
(400 4.60969e-14 0)
(400 5.5443e-14 0)
(400 4.86507e-14 0)
(400 2.45158e-14 0)
(400 1.54979e-14 0)
(400 2.33622e-14 0)
(400 3.2111e-14 0)
(400 3.60071e-14 0)
(400 1.83672e-14 0)
(400 8.60941e-15 0)
(400 1.47652e-14 0)
(400 3.07521e-14 0)
(400 2.44639e-14 0)
(400 1.55916e-14 0)
(400 -2.59499e-15 0)
(400 -7.38427e-15 0)
(400 -5.51083e-15 0)
(400 1.67701e-14 0)
(400 3.38059e-14 0)
(400 3.81772e-14 0)
(400 -2.31142e-14 0)
(400 -1.69019e-14 0)
(400 5.20467e-15 0)
(400 2.50734e-14 0)
(400 3.76831e-14 0)
(400 5.92466e-14 0)
(400 6.3249e-14 0)
(400 6.00158e-14 0)
(400 6.68869e-14 0)
(400 7.48684e-14 0)
(400 6.09214e-14 0)
(400 6.38744e-14 0)
(400 6.22681e-14 0)
(400 4.66906e-14 0)
(400 2.91897e-14 0)
(400 2.21608e-14 0)
(400 1.81975e-14 0)
(400 2.41968e-14 0)
(400 1.49771e-14 0)
(400 4.30249e-15 0)
(400 -3.62467e-15 0)
(400 -1.8061e-14 0)
(400 -2.56161e-14 0)
(400 -4.35922e-15 0)
(400 -3.924e-15 0)
(400 -1.26203e-14 0)
(400 -2.79915e-14 0)
(400 -2.55811e-14 0)
(400 -2.65817e-15 0)
(400 6.32668e-15 0)
(400 9.78491e-15 0)
(400 -1.19657e-15 0)
(400 -1.1225e-14 0)
(400 5.39955e-15 0)
(400 5.17529e-15 0)
(400 1.25656e-14 0)
(400 8.11517e-15 0)
(400 8.59805e-15 0)
(400 7.85629e-15 0)
(400 -1.8511e-14 0)
(400 -3.05139e-14 0)
(400 -2.8561e-14 0)
(400 -2.90665e-14 0)
(400 -2.17626e-14 0)
(400 -1.3091e-14 0)
(400 3.4312e-15 0)
(400 -1.81115e-15 0)
(400 -1.6486e-14 0)
(400 -1.85448e-14 0)
(400 -2.8561e-14 0)
(400 -1.82957e-14 0)
(400 2.38877e-14 0)
(400 5.41978e-14 0)
(400 4.90162e-14 0)
(400 4.73587e-14 0)
(400 5.95958e-14 0)
(400 5.77255e-14 0)
(400 5.59916e-14 0)
(400 4.40112e-14 0)
(400 4.26136e-14 0)
(400 6.05838e-14 0)
(400 5.67283e-14 0)
(400 5.31669e-14 0)
(400 5.10448e-14 0)
(400 5.71169e-14 0)
(400 5.87536e-14 0)
(400 4.50346e-14 0)
(400 3.47424e-14 0)
(400 3.80984e-14 0)
(400 3.06709e-14 0)
(400 2.82709e-14 0)
(400 1.92646e-14 0)
(400 1.18872e-14 0)
(400 1.34475e-15 0)
(400 4.31962e-15 0)
(400 6.60756e-15 0)
(400 1.32413e-14 0)
(400 2.12494e-14 0)
(400 2.2205e-14 0)
(400 3.46526e-14 0)
(400 2.87825e-14 0)
(400 1.04935e-14 0)
(400 2.72497e-15 0)
(400 2.81669e-15 0)
(400 -1.11933e-14 0)
(400 -3.34895e-14 0)
(400 -5.77814e-14 0)
(400 -5.73761e-14 0)
(400 -6.19414e-14 0)
(400 -5.35334e-14 0)
(400 -5.04239e-14 0)
(400 -6.0148e-14 0)
(400 -5.5259e-14 0)
(400 -4.46462e-14 0)
(400 -3.79795e-14 0)
(400 -3.3634e-14 0)
(400 -3.55166e-14 0)
(400 -2.95632e-14 0)
(400 -1.28556e-14 0)
(400 -8.33345e-15 0)
(400 -1.00959e-14 0)
(400 -1.49211e-14 0)
(400 -2.14497e-14 0)
(400 -4.17417e-14 0)
(400 -4.78869e-14 0)
(400 -4.97063e-14 0)
(400 -4.4197e-14 0)
(400 -3.44077e-14 0)
(400 -2.30166e-14 0)
(400 -6.12346e-15 0)
(400 4.25331e-16 0)
(400 2.57633e-15 0)
(400 2.63551e-14 0)
(400 2.5095e-14 0)
(400 9.1787e-15 0)
(400 -1.56146e-14 0)
(400 -1.2718e-14 0)
(400 1.4471e-14 0)
(400 9.23347e-15 0)
(400 -6.97619e-15 0)
(400 -4.45948e-16 0)
(400 6.65528e-15 0)
(400 -9.23244e-15 0)
(400 -1.15368e-14 0)
(400 -2.39598e-14 0)
(400 -4.58395e-14 0)
(400 -4.20213e-14 0)
(400 -3.87086e-14 0)
(400 -3.21805e-14 0)
(400 -3.39994e-14 0)
(400 -3.13507e-14 0)
(400 -7.85648e-15 0)
(400 8.2863e-15 0)
(400 -7.86294e-15 0)
(400 -2.20515e-14 0)
(400 -2.38425e-14 0)
(400 -1.1925e-14 0)
(400 -2.30079e-14 0)
(400 -1.73881e-14 0)
(400 -2.95388e-14 0)
(400 -4.28645e-14 0)
(400 -5.01693e-14 0)
(400 -4.79908e-14 0)
(400 -3.63965e-14 0)
(400 -3.81394e-14 0)
(400 -6.3706e-14 0)
(400 -7.90582e-14 0)
(400 -7.64396e-14 0)
(400 -7.71545e-14 0)
(400 -8.73788e-14 0)
(400 -8.64515e-14 0)
(400 -5.57563e-14 0)
(400 -4.19609e-14 0)
(400 -2.77231e-14 0)
(400 -1.24335e-14 0)
(400 5.12687e-15 0)
(400 3.51015e-15 0)
(400 1.82952e-14 0)
(400 3.77312e-14 0)
(400 3.18174e-14 0)
(400 4.10894e-14 0)
(400 4.68481e-14 0)
(400 4.95897e-14 0)
(400 3.98978e-14 0)
(400 4.77652e-14 0)
(400 5.7949e-14 0)
(400 6.68588e-14 0)
(400 7.39068e-14 0)
(400 7.46035e-14 0)
(400 6.25829e-14 0)
(400 5.84199e-14 0)
(400 4.89e-14 0)
(400 5.18533e-14 0)
(400 5.94275e-14 0)
(400 6.40758e-14 0)
(400 5.94995e-14 0)
(400 3.69018e-14 0)
(400 3.24504e-14 0)
(400 4.30211e-14 0)
(400 4.65472e-14 0)
(400 6.58773e-14 0)
(400 7.37579e-14 0)
(400 5.48835e-14 0)
(400 3.82165e-14 0)
(400 3.26147e-14 0)
(400 2.52443e-14 0)
(400 1.59483e-14 0)
(400 1.10862e-14 0)
(400 1.25812e-14 0)
(400 1.11362e-14 0)
(400 4.25881e-15 0)
(400 3.53426e-16 0)
(400 -3.4979e-15 0)
(400 1.59732e-14 0)
(400 1.60027e-15 0)
(400 -2.61507e-14 0)
(400 -5.06008e-14 0)
(400 -3.63466e-14 0)
(400 -2.49511e-14 0)
(400 -2.63487e-14 0)
(400 -1.24565e-14 0)
(400 -1.63311e-14 0)
(400 5.42178e-15 0)
(400 2.87353e-14 0)
(400 3.15452e-14 0)
(400 1.72007e-14 0)
(400 1.68037e-14 0)
(400 1.71248e-14 0)
(400 1.54845e-14 0)
(400 1.36111e-14 0)
(400 1.9931e-14 0)
(400 2.8454e-14 0)
(400 3.5627e-14 0)
(400 3.35235e-14 0)
(400 2.94902e-14 0)
(400 1.2481e-14 0)
(400 8.3552e-15 0)
(400 6.68491e-15 0)
(400 -1.24481e-15 0)
(400 -3.27255e-16 0)
(400 3.03116e-15 0)
(400 1.59855e-14 0)
(400 4.59139e-14 0)
(400 4.47001e-14 0)
(400 3.39653e-14 0)
(400 1.89894e-14 0)
(400 3.93775e-15 0)
(400 2.89304e-15 0)
(400 1.43654e-14 0)
(400 1.85968e-14 0)
(400 2.90124e-14 0)
(400 2.76789e-14 0)
(400 2.45264e-14 0)
(400 4.4069e-14 0)
(400 5.42807e-14 0)
(400 6.23395e-14 0)
(400 5.51686e-14 0)
(400 4.14388e-14 0)
(400 4.54195e-14 0)
(400 2.97331e-14 0)
(400 2.42559e-14 0)
(400 1.0628e-14 0)
(400 1.12482e-14 0)
(400 2.23084e-14 0)
(400 1.91601e-14 0)
(400 2.22757e-14 0)
(400 2.31437e-14 0)
(400 2.29307e-14 0)
(400 1.6701e-14 0)
(400 1.42576e-14 0)
(400 2.44214e-14 0)
(400 3.17748e-14 0)
(400 4.31046e-14 0)
(400 5.00118e-14 0)
(400 2.52013e-14 0)
(400 8.38211e-15 0)
(400 -7.61544e-15 0)
(400 -1.48455e-14 0)
(400 -8.62808e-15 0)
(400 9.38955e-15 0)
(400 2.1092e-14 0)
(400 1.34984e-14 0)
(400 1.69141e-14 0)
(400 2.19388e-14 0)
(400 2.3732e-14 0)
(400 2.63887e-14 0)
(400 1.82682e-14 0)
(400 2.52293e-14 0)
(400 3.60503e-14 0)
(400 3.91561e-14 0)
(400 3.72383e-14 0)
(400 3.85899e-14 0)
(400 3.25661e-14 0)
(400 2.86752e-14 0)
(400 2.05604e-14 0)
(400 2.52536e-14 0)
(400 3.1575e-14 0)
(400 2.88232e-14 0)
(400 3.4967e-14 0)
(400 4.57361e-14 0)
(400 2.80666e-14 0)
(400 8.33942e-15 0)
(400 3.02816e-15 0)
(400 8.29021e-15 0)
(400 5.86891e-16 0)
(400 -2.32908e-14 0)
(400 -3.86854e-14 0)
(400 -3.53225e-14 0)
(400 -4.52935e-14 0)
(400 -5.89174e-14 0)
(400 -5.68296e-14 0)
(400 -5.84108e-14 0)
(400 -4.33819e-14 0)
(400 -4.10836e-14 0)
(400 -3.08179e-14 0)
(400 -2.01456e-14 0)
(400 -2.51961e-14 0)
(400 -2.14026e-14 0)
(400 -1.015e-14 0)
(400 -1.50117e-15 0)
(400 -6.87793e-15 0)
(400 -2.02398e-14 0)
(400 -2.90871e-14 0)
(400 -3.96525e-14 0)
(400 -4.09701e-14 0)
(400 -3.44034e-14 0)
(400 -3.79413e-14 0)
(400 -2.1604e-14 0)
(400 4.7553e-15 0)
(400 1.71604e-14 0)
(400 2.96318e-14 0)
(400 3.31889e-14 0)
(400 6.3236e-14 0)
(400 3.92564e-14 0)
(400 1.58254e-14 0)
(400 -5.26918e-15 0)
(400 6.77988e-15 0)
(400 3.17614e-14 0)
(400 3.07349e-14 0)
(400 1.54691e-14 0)
(400 1.3559e-14 0)
(400 4.84772e-15 0)
(400 -6.0224e-15 0)
(400 -1.09113e-15 0)
(400 -1.26736e-15 0)
(400 -1.72496e-14 0)
(400 -3.00612e-14 0)
(400 -2.57327e-14 0)
(400 -3.37286e-14 0)
(400 -3.93151e-14 0)
(400 -2.97683e-14 0)
(400 -2.27039e-14 0)
(400 -4.41932e-16 0)
(400 -6.6484e-15 0)
(400 -3.14946e-14 0)
(400 -4.96309e-14 0)
(400 -4.21274e-14 0)
(400 -3.4024e-14 0)
(400 -1.73545e-14 0)
(400 -2.14363e-14 0)
(400 -4.0936e-14 0)
(400 -5.54576e-14 0)
(400 -4.98194e-14 0)
(400 -4.99533e-14 0)
(400 -4.82316e-14 0)
(400 -6.1977e-14 0)
(400 -8.80021e-14 0)
(400 -1.11089e-13 0)
(400 -1.16135e-13 0)
(400 -1.0767e-13 0)
(400 -8.00198e-14 0)
(400 -5.8973e-14 0)
(400 -4.37433e-14 0)
(400 -2.7854e-14 0)
(400 -2.27093e-15 0)
(400 1.37587e-14 0)
(400 3.02016e-14 0)
(400 3.62559e-14 0)
(400 4.76941e-14 0)
(400 4.94971e-14 0)
(400 5.25919e-14 0)
(400 4.62908e-14 0)
(400 4.22431e-14 0)
(400 5.07776e-14 0)
(400 7.02618e-14 0)
(400 5.81491e-14 0)
(400 5.36092e-14 0)
(400 4.41576e-14 0)
(400 4.00095e-14 0)
(400 2.28885e-14 0)
(400 3.1595e-14 0)
(400 4.39532e-14 0)
(400 6.0089e-14 0)
(400 5.71429e-14 0)
(400 4.97884e-14 0)
(400 5.64364e-14 0)
(400 5.11209e-14 0)
(400 4.03195e-14 0)
(400 6.59109e-14 0)
(400 5.80327e-14 0)
(400 4.69868e-14 0)
(400 3.95643e-14 0)
(400 3.75818e-14 0)
(400 3.82956e-14 0)
(400 3.85379e-14 0)
(400 3.14589e-14 0)
(400 2.55469e-14 0)
(400 1.11868e-14 0)
(400 7.01442e-15 0)
(400 7.27917e-15 0)
(400 1.03229e-14 0)
(400 -9.98442e-15 0)
(400 -1.76162e-14 0)
(400 -6.21909e-15 0)
(400 -1.63932e-14 0)
(400 -9.09701e-15 0)
(400 -1.81383e-14 0)
(400 -3.96057e-14 0)
(400 -5.00832e-14 0)
(400 -4.94721e-14 0)
(400 -2.0188e-15 0)
(400 5.79757e-15 0)
(400 1.21137e-14 0)
(400 2.62688e-14 0)
(400 4.17167e-14 0)
(400 3.24499e-14 0)
(400 1.70981e-14 0)
(400 1.0658e-14 0)
(400 1.19825e-15 0)
(400 -5.30596e-15 0)
(400 -1.00803e-14 0)
(400 -2.5858e-14 0)
(400 -1.65503e-14 0)
(400 -9.24621e-15 0)
(400 -1.26879e-14 0)
(400 -3.6675e-14 0)
(400 -2.48652e-14 0)
(400 -1.68206e-14 0)
(400 -1.60606e-14 0)
(400 9.65216e-16 0)
(400 1.81718e-14 0)
(400 3.93564e-14 0)
(400 4.89907e-14 0)
(400 3.10567e-14 0)
(400 2.70719e-14 0)
(400 1.92344e-14 0)
(400 8.48756e-15 0)
(400 4.89016e-15 0)
(400 1.66205e-15 0)
(400 -5.1609e-15 0)
(400 3.30613e-15 0)
(400 1.7188e-14 0)
(400 3.35636e-14 0)
(400 2.01773e-14 0)
(400 3.1081e-14 0)
(400 2.85797e-14 0)
(400 3.09501e-14 0)
(400 2.10678e-14 0)
(400 2.72091e-14 0)
(400 4.24338e-14 0)
(400 5.22619e-14 0)
(400 5.00998e-14 0)
(400 5.02968e-14 0)
(400 5.50204e-14 0)
(400 6.10421e-14 0)
(400 5.53566e-14 0)
(400 6.04467e-14 0)
(400 5.69485e-14 0)
(400 3.38744e-14 0)
(400 2.75438e-14 0)
(400 2.48625e-14 0)
(400 -2.35283e-15 0)
(400 -1.8985e-14 0)
(400 -1.30895e-14 0)
(400 -1.92864e-14 0)
(400 -4.0629e-14 0)
(400 -4.27443e-14 0)
(400 -4.52274e-14 0)
(400 -3.98154e-14 0)
(400 -2.20643e-14 0)
(400 -2.21234e-14 0)
(400 -1.04652e-14 0)
(400 -5.64735e-15 0)
(400 2.74615e-15 0)
(400 1.20074e-14 0)
(400 1.53325e-14 0)
(400 2.32212e-14 0)
(400 2.65949e-14 0)
(400 2.92109e-14 0)
(400 4.23161e-14 0)
(400 6.44101e-14 0)
(400 7.21825e-14 0)
(400 7.25099e-14 0)
(400 7.94442e-14 0)
(400 8.01763e-14 0)
(400 9.10373e-14 0)
(400 9.82497e-14 0)
(400 1.01953e-13 0)
(400 1.02615e-13 0)
(400 9.29532e-14 0)
(400 7.00622e-14 0)
(400 6.33322e-14 0)
(400 6.39781e-14 0)
(400 5.73674e-14 0)
(400 6.19504e-14 0)
(400 4.27988e-14 0)
(400 2.52992e-14 0)
(400 4.02079e-15 0)
(400 -1.51333e-14 0)
(400 -4.40229e-14 0)
(400 -4.91198e-14 0)
(400 -4.4599e-14 0)
(400 -4.47918e-14 0)
(400 -4.02424e-14 0)
(400 -3.29998e-14 0)
(400 -4.7714e-14 0)
(400 -4.54351e-14 0)
(400 -3.46553e-14 0)
(400 -3.16908e-14 0)
(400 -2.4268e-14 0)
(400 -1.99476e-14 0)
(400 -1.75386e-14 0)
(400 -1.65341e-14 0)
(400 -1.28767e-14 0)
(400 -1.68148e-14 0)
(400 -1.33872e-14 0)
(400 -1.6321e-14 0)
(400 -1.79575e-14 0)
(400 -1.93442e-15 0)
(400 2.52588e-14 0)
(400 4.18745e-14 0)
(400 4.81209e-14 0)
(400 5.31284e-14 0)
(400 3.89564e-14 0)
(400 2.01197e-14 0)
(400 5.2797e-15 0)
(400 1.85396e-14 0)
(400 1.6687e-14 0)
(400 2.15653e-14 0)
(400 1.1943e-14 0)
(400 1.15504e-14 0)
(400 5.30994e-15 0)
(400 1.65462e-14 0)
(400 2.09306e-14 0)
(400 3.63566e-14 0)
(400 3.86704e-14 0)
(400 1.40688e-14 0)
(400 7.51761e-15 0)
(400 7.00991e-15 0)
(400 3.4205e-15 0)
(400 -2.55192e-15 0)
(400 -3.15115e-15 0)
(400 2.33761e-15 0)
(400 -5.49808e-15 0)
(400 -1.99374e-14 0)
(400 -3.43778e-14 0)
(400 -5.32023e-14 0)
(400 -4.97262e-14 0)
(400 -5.09595e-14 0)
(400 -4.89327e-14 0)
(400 -4.34648e-14 0)
(400 -5.62399e-14 0)
(400 -7.72031e-14 0)
(400 -9.84167e-14 0)
(400 -9.21306e-14 0)
(400 -8.57955e-14 0)
(400 -1.04065e-13 0)
(400 -1.20485e-13 0)
(400 -1.1656e-13 0)
(400 -1.06625e-13 0)
(400 -8.77505e-14 0)
(400 -8.31955e-14 0)
(400 -5.57944e-14 0)
(400 -3.16495e-14 0)
(400 -1.28382e-14 0)
(400 -6.91845e-15 0)
(400 9.45645e-15 0)
(400 3.92336e-15 0)
(400 2.34344e-15 0)
(400 1.29036e-14 0)
(400 2.24228e-14 0)
(400 1.62755e-14 0)
(400 7.56449e-15 0)
(400 3.30073e-14 0)
(400 5.0517e-14 0)
(400 4.06916e-14 0)
(400 4.09023e-14 0)
(400 5.71747e-14 0)
(400 5.85515e-14 0)
(400 7.06977e-14 0)
(400 8.52223e-14 0)
(400 1.05615e-13 0)
(400 1.1524e-13 0)
(400 9.49218e-14 0)
(400 8.12036e-14 0)
(400 6.23376e-14 0)
(400 4.12175e-14 0)
(400 3.32696e-14 0)
(400 2.85988e-14 0)
(400 3.15441e-14 0)
(400 2.33437e-14 0)
(400 2.10587e-14 0)
(400 3.35386e-14 0)
(400 4.5435e-14 0)
(400 2.56316e-14 0)
(400 2.13187e-14 0)
(400 1.37297e-14 0)
(400 -1.02463e-14 0)
(400 -1.5393e-14 0)
(400 -1.43954e-14 0)
(400 -1.46175e-14 0)
(400 -1.65804e-14 0)
(400 -1.49535e-14 0)
(400 -3.12558e-14 0)
(400 -4.04165e-14 0)
(400 -2.5453e-14 0)
(400 -8.13937e-15 0)
(400 -5.8605e-15 0)
(400 -8.61783e-15 0)
(400 2.7694e-15 0)
(400 6.02824e-15 0)
(400 1.53225e-14 0)
(400 1.45823e-14 0)
(400 3.00678e-14 0)
(400 4.12709e-14 0)
(400 3.61348e-14 0)
(400 2.19612e-14 0)
(400 6.17331e-16 0)
(400 -1.57216e-14 0)
(400 -2.8051e-14 0)
(400 -3.74214e-14 0)
(400 -4.8771e-14 0)
(400 -5.275e-14 0)
(400 -5.77401e-14 0)
(400 -7.45476e-14 0)
(400 -6.81599e-14 0)
(400 -6.23967e-14 0)
(400 -5.37829e-14 0)
(400 -3.31328e-14 0)
(400 -2.41477e-14 0)
(400 9.0779e-16 0)
(400 1.24283e-14 0)
(400 1.61093e-14 0)
(400 2.15685e-14 0)
(400 2.92653e-14 0)
(400 4.06461e-14 0)
(400 2.41688e-14 0)
(400 2.23506e-14 0)
(400 2.73073e-14 0)
(400 1.7468e-14 0)
(400 2.76083e-14 0)
(400 3.87218e-14 0)
(400 5.63332e-14 0)
(400 6.22537e-14 0)
(400 6.02577e-14 0)
(400 4.3181e-14 0)
(400 3.34445e-14 0)
(400 3.23853e-14 0)
(400 2.97117e-14 0)
(400 4.07718e-14 0)
(400 4.71566e-14 0)
(400 5.47029e-14 0)
(400 6.23624e-14 0)
(400 5.37007e-14 0)
(400 6.18483e-14 0)
(400 6.46477e-14 0)
(400 5.88484e-14 0)
(400 4.64677e-14 0)
(400 2.33005e-14 0)
(400 9.1535e-15 0)
(400 1.139e-15 0)
(400 -2.48858e-14 0)
(400 -3.11631e-14 0)
(400 -2.56567e-14 0)
(400 -8.02036e-15 0)
(400 -8.51211e-15 0)
(400 1.03047e-14 0)
(400 2.18735e-14 0)
(400 2.62947e-14 0)
(400 2.36678e-14 0)
(400 2.07245e-14 0)
(400 3.1436e-14 0)
(400 3.83851e-14 0)
(400 4.75032e-14 0)
(400 5.24786e-14 0)
(400 4.52688e-14 0)
(400 5.01311e-14 0)
(400 4.78173e-14 0)
(400 3.75795e-14 0)
(400 3.33339e-14 0)
(400 3.45098e-14 0)
(400 2.91025e-14 0)
(400 2.60103e-14 0)
(400 3.72668e-14 0)
(400 4.43487e-14 0)
(400 4.82172e-14 0)
(400 4.67723e-14 0)
(400 5.1794e-14 0)
(400 5.31437e-14 0)
(400 4.85941e-14 0)
(400 5.58459e-14 0)
(400 4.64161e-14 0)
(400 3.80682e-14 0)
(400 2.539e-14 0)
(400 2.05929e-14 0)
(400 4.46675e-14 0)
(400 3.06736e-14 0)
(400 -3.64337e-15 0)
(400 -3.16882e-14 0)
(400 -4.82738e-14 0)
(400 -5.1882e-14 0)
(400 -5.49437e-14 0)
(400 -6.85841e-14 0)
(400 -6.85685e-14 0)
(400 -6.09995e-14 0)
(400 -7.22265e-14 0)
(400 -5.77587e-14 0)
(400 -4.60676e-14 0)
(400 -5.45962e-14 0)
(400 -6.28519e-14 0)
(400 -6.13754e-14 0)
(400 -4.46873e-14 0)
(400 -3.04053e-14 0)
(400 -1.33062e-14 0)
(400 1.28012e-14 0)
(400 2.80257e-14 0)
(400 4.84136e-14 0)
(400 4.21582e-14 0)
(400 4.2456e-14 0)
(400 6.43252e-14 0)
(400 7.22508e-14 0)
(400 6.5162e-14 0)
(400 5.05011e-14 0)
(400 5.75825e-14 0)
(400 5.50455e-14 0)
(400 5.84756e-14 0)
(400 6.06705e-14 0)
(400 5.10108e-14 0)
(400 5.94412e-14 0)
(400 4.71725e-14 0)
(400 3.01199e-14 0)
(400 3.27724e-14 0)
(400 4.66761e-14 0)
(400 5.47339e-14 0)
(400 4.95876e-14 0)
(400 5.56868e-14 0)
(400 5.65115e-14 0)
(400 5.27935e-14 0)
(400 3.80292e-14 0)
(400 3.57639e-14 0)
(400 3.79872e-14 0)
(400 3.324e-14 0)
(400 1.21377e-14 0)
(400 1.04048e-15 0)
(400 -7.14862e-15 0)
(400 -1.42426e-14 0)
(400 -3.19954e-14 0)
(400 -3.07767e-14 0)
(400 -4.08773e-14 0)
(400 -3.66702e-14 0)
(400 -2.05435e-14 0)
(400 -2.20418e-14 0)
(400 -4.94163e-14 0)
(400 -8.08498e-14 0)
(400 -9.5857e-14 0)
(400 -8.242e-14 0)
(400 -6.51998e-14 0)
(400 -6.4092e-14 0)
(400 -6.93167e-14 0)
(400 -7.60864e-14 0)
(400 -9.1781e-14 0)
(400 -7.30711e-14 0)
(400 -5.74688e-14 0)
(400 -4.3438e-14 0)
(400 -3.54177e-14 0)
(400 -1.76347e-14 0)
(400 -2.80798e-15 0)
(400 -6.69821e-15 0)
(400 -1.89418e-14 0)
(400 -6.01216e-15 0)
(400 7.76967e-15 0)
(400 -5.86948e-16 0)
(400 1.01341e-14 0)
(400 2.69599e-14 0)
(400 3.2109e-14 0)
(400 2.82282e-14 0)
(400 3.67188e-14 0)
(400 6.01871e-14 0)
(400 8.28238e-14 0)
(400 1.23914e-13 0)
(400 1.25473e-13 0)
(400 1.18783e-13 0)
(400 1.09956e-13 0)
(400 1.02295e-13 0)
(400 9.71068e-14 0)
(400 6.52557e-14 0)
(400 2.93994e-14 0)
(400 1.07081e-14 0)
(400 -1.64548e-14 0)
(400 -4.12465e-14 0)
(400 -5.18099e-14 0)
(400 -4.26946e-14 0)
(400 -2.59558e-14 0)
(400 -7.42135e-15 0)
(400 -1.31114e-14 0)
(400 -2.71698e-14 0)
(400 -4.30492e-14 0)
(400 -3.44393e-14 0)
(400 -3.31855e-14 0)
(400 -4.05363e-14 0)
(400 -5.31168e-14 0)
(400 -5.2775e-14 0)
(400 -5.33748e-14 0)
(400 -6.74607e-14 0)
(400 -4.74124e-14 0)
(400 -6.33164e-14 0)
(400 -5.0323e-14 0)
(400 -1.86809e-14 0)
(400 5.28534e-15 0)
(400 1.88567e-14 0)
(400 -1.26576e-14 0)
(400 -3.17252e-14 0)
(400 -3.13987e-14 0)
(400 -2.89387e-14 0)
(400 -3.83004e-14 0)
(400 -5.09334e-14 0)
(400 -4.00437e-14 0)
(400 -4.41591e-14 0)
(400 -4.61601e-14 0)
(400 -3.17977e-14 0)
(400 -3.13851e-14 0)
(400 -2.63805e-14 0)
(400 -2.34186e-14 0)
(400 -2.89215e-14 0)
(400 -3.75006e-14 0)
(400 -2.92329e-14 0)
(400 -2.3233e-14 0)
(400 -2.7799e-14 0)
(400 -2.43382e-14 0)
(400 -1.98557e-14 0)
(400 -1.13111e-14 0)
(400 -3.65742e-15 0)
(400 1.11373e-15 0)
(400 8.66614e-15 0)
(400 1.50812e-14 0)
(400 3.21604e-14 0)
(400 3.54747e-14 0)
(400 3.45491e-14 0)
(400 1.85148e-14 0)
(400 1.81e-14 0)
(400 2.89836e-14 0)
(400 4.07444e-14 0)
(400 5.59675e-14 0)
(400 6.12369e-14 0)
(400 6.62367e-14 0)
(400 5.51799e-14 0)
(400 4.01179e-14 0)
(400 3.15924e-14 0)
(400 1.30867e-14 0)
(400 1.19039e-14 0)
(400 2.27213e-14 0)
(400 3.3624e-14 0)
(400 4.25791e-14 0)
(400 2.42781e-14 0)
(400 2.62325e-14 0)
(400 3.15103e-14 0)
(400 1.63766e-14 0)
(400 -1.6984e-15 0)
(400 -1.80595e-14 0)
(400 -2.32652e-14 0)
(400 -2.65438e-14 0)
(400 -2.96221e-14 0)
(400 -2.39849e-14 0)
(400 -1.61942e-14 0)
(400 -1.22616e-15 0)
(400 4.49182e-15 0)
(400 1.67207e-16 0)
(400 5.49206e-16 0)
(400 1.1485e-14 0)
(400 1.14377e-14 0)
(400 1.03199e-14 0)
(400 9.94209e-15 0)
(400 5.74937e-15 0)
(400 1.16177e-14 0)
(400 2.75763e-14 0)
(400 2.94805e-14 0)
(400 3.96414e-14 0)
(400 4.46513e-14 0)
(400 5.92115e-14 0)
(400 7.49822e-14 0)
(400 4.98177e-14 0)
(400 5.38035e-14 0)
(400 6.13194e-14 0)
(400 6.51135e-14 0)
(400 6.92068e-14 0)
(400 5.11563e-14 0)
(400 5.76938e-14 0)
(400 6.15032e-14 0)
(400 5.99887e-14 0)
(400 5.88722e-14 0)
(400 6.1082e-14 0)
(400 5.52126e-14 0)
(400 5.06167e-14 0)
(400 6.34378e-14 0)
(400 5.37883e-14 0)
(400 5.26517e-14 0)
(400 3.19632e-14 0)
(400 5.30118e-15 0)
(400 -1.62115e-14 0)
(400 -2.80631e-14 0)
(400 -4.5829e-14 0)
(400 -6.58005e-14 0)
(400 -7.39115e-14 0)
(400 -6.92686e-14 0)
(400 -7.45626e-14 0)
(400 -5.7369e-14 0)
(400 -3.4492e-14 0)
(400 -2.72764e-14 0)
(400 -1.91497e-14 0)
(400 -3.72305e-14 0)
(400 -4.93285e-14 0)
(400 -3.92545e-14 0)
(400 -2.16395e-14 0)
(400 1.65096e-14 0)
(400 4.15477e-14 0)
(400 3.75249e-14 0)
(400 5.65124e-14 0)
(400 5.19483e-14 0)
(400 4.97225e-14 0)
(400 4.71558e-14 0)
(400 4.37481e-14 0)
(400 4.27075e-14 0)
(400 3.6217e-14 0)
(400 4.78873e-14 0)
(400 4.51157e-14 0)
(400 6.34076e-14 0)
(400 6.81686e-14 0)
(400 5.49984e-14 0)
(400 6.78285e-14 0)
(400 6.95209e-14 0)
(400 5.39523e-14 0)
(400 4.92619e-14 0)
(400 5.03328e-14 0)
(400 6.68175e-14 0)
(400 5.64974e-14 0)
(400 5.49448e-14 0)
(400 6.57979e-14 0)
(400 6.59706e-14 0)
(400 6.32958e-14 0)
(400 6.29701e-14 0)
(400 5.50379e-14 0)
(400 4.8583e-14 0)
(400 3.37781e-14 0)
(400 2.65065e-14 0)
(400 2.4504e-14 0)
(400 2.12339e-14 0)
(400 8.28171e-15 0)
(400 -7.14726e-15 0)
(400 -4.83132e-15 0)
(400 4.73955e-15 0)
(400 2.40877e-15 0)
(400 -1.18301e-14 0)
(400 -3.75375e-14 0)
(400 -6.56457e-14 0)
(400 -7.64009e-14 0)
(400 -7.5581e-14 0)
(400 -6.10949e-14 0)
(400 -5.66615e-14 0)
(400 -6.25442e-14 0)
(400 -4.41578e-14 0)
(400 -5.45074e-14 0)
(400 -6.57772e-14 0)
(400 -6.73004e-14 0)
(400 -6.30781e-14 0)
(400 -3.51871e-14 0)
(400 -8.65618e-15 0)
(400 3.96453e-15 0)
(400 -1.97068e-15 0)
(400 -1.16747e-14 0)
(400 -2.18988e-15 0)
(400 -1.20596e-14 0)
(400 -2.32621e-14 0)
(400 -5.42192e-15 0)
(400 -1.3494e-15 0)
(400 5.07374e-15 0)
(400 2.10248e-14 0)
(400 3.00794e-14 0)
(400 3.45006e-14 0)
(400 6.22378e-14 0)
(400 9.19463e-14 0)
(400 8.12889e-14 0)
(400 6.85343e-14 0)
(400 6.85393e-14 0)
(400 7.29485e-14 0)
(400 6.3249e-14 0)
(400 5.21191e-14 0)
(400 4.45505e-14 0)
(400 1.25804e-14 0)
(400 -1.12333e-15 0)
(400 -2.73557e-14 0)
(400 -6.47873e-14 0)
(400 -8.60821e-14 0)
(400 -8.03637e-14 0)
(400 -6.59973e-14 0)
(400 -4.0573e-14 0)
(400 -3.90928e-14 0)
(400 -3.19038e-14 0)
(400 2.66964e-15 0)
(400 1.26761e-14 0)
(400 4.71107e-15 0)
(400 -1.08265e-14 0)
(400 -2.3768e-14 0)
(400 -3.22538e-14 0)
(400 -3.14438e-14 0)
(400 -1.13982e-14 0)
(400 -1.45625e-14 0)
(400 -9.87948e-15 0)
(400 3.89869e-16 0)
(400 1.08567e-14 0)
(400 1.91012e-14 0)
(400 -2.06688e-14 0)
(400 -2.69265e-14 0)
(400 -3.75222e-14 0)
(400 -6.45286e-14 0)
(400 -7.43176e-14 0)
(400 -8.24689e-14 0)
(400 -7.88896e-14 0)
(400 -6.46194e-14 0)
(400 -5.60011e-14 0)
(400 -3.80264e-14 0)
(400 -3.37198e-14 0)
(400 -2.99512e-14 0)
(400 -2.47869e-14 0)
(400 -2.69328e-14 0)
(400 -3.36143e-14 0)
(400 -2.64401e-14 0)
(400 -3.43858e-14 0)
(400 -5.47099e-14 0)
(400 -6.40498e-14 0)
(400 -5.16829e-14 0)
(400 -4.07952e-14 0)
(400 -2.06702e-14 0)
(400 -2.16523e-14 0)
(400 -2.16373e-14 0)
(400 -1.40317e-14 0)
(400 5.53877e-15 0)
(400 3.26792e-14 0)
(400 2.96093e-14 0)
(400 3.24602e-15 0)
(400 8.36763e-15 0)
(400 -8.45809e-16 0)
(400 -2.5299e-15 0)
(400 1.82525e-15 0)
(400 -1.73825e-15 0)
(400 4.98847e-15 0)
(400 1.41483e-14 0)
(400 1.84905e-14 0)
(400 1.52832e-14 0)
(400 1.73757e-14 0)
(400 2.15969e-14 0)
(400 2.50779e-14 0)
(400 3.29363e-14 0)
(400 4.5387e-14 0)
(400 4.15938e-14 0)