TITLE = "Visualization of the volumetric solution"
VARIABLES = "x","y","Density","Momentum_x","Momentum_y","Energy","Pressure","Temperature","Mach","C<sub>p</sub>","Roe_Dissipation"
ZONE NODES= 1720, ELEMENTS= 3288, DATAPACKING=POINT, ZONETYPE=FEQUADRILATERAL
1.040621e+00	-1.209117e+00	1.275460e+00	5.260128e+01	-1.031099e+02	2.734418e+05	1.072757e+05	2.929982e+02	2.644726e-01	8.389893e+00	0.000000e+00	
1.000000e+00	-1.190476e+00	1.275449e+00	5.260242e+01	-1.031281e+02	2.734413e+05	1.072749e+05	2.929986e+02	2.645129e-01	8.388750e+00	0.000000e+00	
1.049910e+00	-1.157894e+00	1.275450e+00	5.260783e+01	-1.031096e+02	2.734393e+05	1.072746e+05	2.929975e+02	2.644811e-01	8.388340e+00	0.000000e+00	
1.093743e+00	-1.191849e+00	1.275449e+00	5.260622e+01	-1.030927e+02	2.734406e+05	1.072757e+05	2.930007e+02	2.644439e-01	8.389838e+00	0.000000e+00	
1.000000e+00	-1.130952e+00	1.275442e+00	5.261042e+01	-1.031287e+02	2.734378e+05	1.072734e+05	2.929958e+02	2.645252e-01	8.386524e+00	0.000000e+00	
1.095476e+00	-1.132804e+00	1.275427e+00	5.261458e+01	-1.030971e+02	2.734383e+05	1.072745e+05	2.930024e+02	2.644653e-01	8.388141e+00	0.000000e+00	
1.048314e+00	-1.101041e+00	1.275436e+00	5.261675e+01	-1.031126e+02	2.734371e+05	1.072735e+05	2.929977e+02	2.644993e-01	8.386717e+00	0.000000e+00	
1.144982e+00	-1.160302e+00	1.275408e+00	5.261576e+01	-1.030855e+02	2.734402e+05	1.072756e+05	2.930098e+02	2.644436e-01	8.389666e+00	0.000000e+00	
1.000000e+00	-1.071429e+00	1.275436e+00	5.262107e+01	-1.031299e+02	2.734353e+05	1.072721e+05	2.929940e+02	2.645407e-01	8.384808e+00	0.000000e+00	
1.148009e+00	-1.206784e+00	1.275435e+00	5.260995e+01	-1.030793e+02	2.734416e+05	1.072765e+05	2.930059e+02	2.644209e-01	8.390930e+00	0.000000e+00	
1.095648e+00	-1.071244e+00	1.275399e+00	5.262500e+01	-1.031028e+02	2.734371e+05	1.072736e+05	2.930064e+02	2.644916e-01	8.386869e+00	0.000000e+00	
1.145729e+00	-1.102380e+00	1.275372e+00	5.262471e+01	-1.030930e+02	2.734388e+05	1.072746e+05	2.930152e+02	2.644730e-01	8.388225e+00	0.000000e+00	
1.049733e+00	-1.041321e+00	1.275414e+00	5.262794e+01	-1.031152e+02	2.734351e+05	1.072724e+05	2.929997e+02	2.645201e-01	8.385146e+00	0.000000e+00	
1.192761e+00	-1.192577e+00	1.275385e+00	5.261837e+01	-1.030771e+02	2.734410e+05	1.072761e+05	2.930165e+02	2.644309e-01	8.390377e+00	0.000000e+00	
1.195107e+00	-1.133762e+00	1.275341e+00	5.262717e+01	-1.030874e+02	2.734410e+05	1.072755e+05	2.930250e+02	2.644664e-01	8.389590e+00	0.000000e+00	
1.000000e+00	-1.011905e+00	1.275422e+00	5.263351e+01	-1.031300e+02	2.734329e+05	1.072709e+05	2.929939e+02	2.645568e-01	8.383130e+00	0.000000e+00	
1.094413e+00	-1.012480e+00	1.275362e+00	5.263720e+01	-1.031082e+02	2.734357e+05	1.072726e+05	2.930121e+02	2.645205e-01	8.385463e+00	0.000000e+00	
1.144800e+00	-1.042146e+00	1.275331e+00	5.263659e+01	-1.031014e+02	2.734381e+05	1.072737e+05	2.930224e+02	2.645078e-01	8.387078e+00	0.000000e+00	
1.194807e+00	-1.073419e+00	1.275294e+00	5.263800e+01	-1.030975e+02	2.734401e+05	1.072746e+05	2.930334e+02	2.645041e-01	8.388268e+00	0.000000e+00	
1.046483e+00	-9.824203e-01	1.275388e+00	5.264094e+01	-1.031184e+02	2.734337e+05	1.072714e+05	2.930031e+02	2.645439e-01	8.383829e+00	0.000000e+00	
1.243114e+00	-1.166395e+00	1.275309e+00	5.263029e+01	-1.030847e+02	2.734426e+05	1.072762e+05	2.930340e+02	2.644665e-01	8.390484e+00	0.000000e+00	
1.243982e+00	-1.104797e+00	1.275258e+00	5.264160e+01	-1.030969e+02	2.734425e+05	1.072754e+05	2.930439e+02	2.645093e-01	8.389459e+00	0.000000e+00	
1.000000e+00	-9.523810e-01	1.275404e+00	5.264790e+01	-1.031302e+02	2.734312e+05	1.072700e+05	2.929954e+02	2.645753e-01	8.381772e+00	0.000000e+00	
1.143063e+00	-9.807371e-01	1.275286e+00	5.264978e+01	-1.031099e+02	2.734374e+05	1.072729e+05	2.930305e+02	2.645445e-01	8.385901e+00	0.000000e+00	
1.092059e+00	-9.503938e-01	1.275325e+00	5.265105e+01	-1.031140e+02	2.734351e+05	1.072719e+05	2.930188e+02	2.645514e-01	8.384470e+00	0.000000e+00	
1.193442e+00	-1.011838e+00	1.275249e+00	5.265076e+01	-1.031085e+02	2.734401e+05	1.072739e+05	2.930417e+02	2.645452e-01	8.387334e+00	0.000000e+00	
1.243532e+00	-1.043138e+00	1.275215e+00	5.265355e+01	-1.031095e+02	2.734424e+05	1.072747e+05	2.930518e+02	2.645528e-01	8.388470e+00	0.000000e+00	
1.045466e+00	-9.241753e-01	1.275356e+00	5.265542e+01	-1.031210e+02	2.734324e+05	1.072706e+05	2.930080e+02	2.645685e-01	8.382603e+00	0.000000e+00	
1.292216e+00	-1.195962e+00	1.275267e+00	5.263550e+01	-1.030857e+02	2.734441e+05	1.072766e+05	2.930449e+02	2.644778e-01	8.391050e+00	0.000000e+00	
1.293053e+00	-1.132219e+00	1.275224e+00	5.264685e+01	-1.030997e+02	2.734446e+05	1.072761e+05	2.930534e+02	2.645232e-01	8.390332e+00	0.000000e+00	
1.293488e+00	-1.073063e+00	1.275187e+00	5.265846e+01	-1.031131e+02	2.734448e+05	1.072754e+05	2.930602e+02	2.645671e-01	8.389467e+00	0.000000e+00	
1.000000e+00	-8.928571e-01	1.275379e+00	5.266371e+01	-1.031295e+02	2.734300e+05	1.072692e+05	2.929992e+02	2.645937e-01	8.380733e+00	0.000000e+00	
1.139604e+00	-9.191736e-01	1.275243e+00	5.266444e+01	-1.031182e+02	2.734374e+05	1.072723e+05	2.930387e+02	2.645817e-01	8.385069e+00	0.000000e+00	
1.191101e+00	-9.499658e-01	1.275206e+00	5.266472e+01	-1.031189e+02	2.734400e+05	1.072733e+05	2.930497e+02	2.645861e-01	8.386381e+00	0.000000e+00	
1.086165e+00	-8.914965e-01	1.275284e+00	5.266622e+01	-1.031195e+02	2.734342e+05	1.072710e+05	2.930258e+02	2.645836e-01	8.383239e+00	0.000000e+00	
1.242086e+00	-9.812383e-01	1.275178e+00	5.266685e+01	-1.031218e+02	2.734426e+05	1.072741e+05	2.930586e+02	2.645960e-01	8.387647e+00	0.000000e+00	
1.292812e+00	-1.012013e+00	1.275159e+00	5.267063e+01	-1.031264e+02	2.734450e+05	1.072749e+05	2.930649e+02	2.646104e-01	8.388661e+00	0.000000e+00	
1.036811e+00	-8.675911e-01	1.275328e+00	5.266939e+01	-1.031233e+02	2.734317e+05	1.072699e+05	2.930127e+02	2.645913e-01	8.381721e+00	0.000000e+00	
1.341812e+00	-1.209973e+00	1.275228e+00	5.264454e+01	-1.030915e+02	2.734465e+05	1.072771e+05	2.930553e+02	2.645026e-01	8.391815e+00	0.000000e+00	
1.346003e+00	-1.158948e+00	1.275196e+00	5.265428e+01	-1.031054e+02	2.734471e+05	1.072767e+05	2.930614e+02	2.645446e-01	8.391226e+00	0.000000e+00	
1.344501e+00	-1.101571e+00	1.275166e+00	5.266495e+01	-1.031186e+02	2.734469e+05	1.072760e+05	2.930664e+02	2.645866e-01	8.390230e+00	0.000000e+00	
1.343694e+00	-1.041833e+00	1.275151e+00	5.267598e+01	-1.031327e+02	2.734475e+05	1.072755e+05	2.930686e+02	2.646287e-01	8.389596e+00	0.000000e+00	
1.000000e+00	-8.333333e-01	1.275349e+00	5.268042e+01	-1.031270e+02	2.734294e+05	1.072687e+05	2.930047e+02	2.646097e-01	8.380026e+00	0.000000e+00	
1.135849e+00	-8.580295e-01	1.275205e+00	5.268006e+01	-1.031256e+02	2.734376e+05	1.072718e+05	2.930463e+02	2.646176e-01	8.384398e+00	0.000000e+00	
1.188203e+00	-8.888722e-01	1.275171e+00	5.267947e+01	-1.031284e+02	2.734403e+05	1.072728e+05	2.930565e+02	2.646251e-01	8.385693e+00	0.000000e+00	
1.240135e+00	-9.198651e-01	1.275150e+00	5.268067e+01	-1.031330e+02	2.734430e+05	1.072737e+05	2.930637e+02	2.646368e-01	8.386951e+00	0.000000e+00	
1.060587e+00	-8.131532e-01	1.275255e+00	5.268576e+01	-1.031245e+02	2.734333e+05	1.072701e+05	2.930301e+02	2.646182e-01	8.382000e+00	0.000000e+00	
1.291525e+00	-9.506591e-01	1.275141e+00	5.268368e+01	-1.031389e+02	2.734455e+05	1.072744e+05	2.930678e+02	2.646518e-01	8.388015e+00	0.000000e+00	
1.342746e+00	-9.809885e-01	1.275144e+00	5.268783e+01	-1.031456e+02	2.734478e+05	1.072751e+05	2.930689e+02	2.646686e-01	8.388919e+00	0.000000e+00	
1.396074e+00	-1.192578e+00	1.275178e+00	5.266095e+01	-1.031100e+02	2.734481e+05	1.072768e+05	2.930658e+02	2.645627e-01	8.391384e+00	0.000000e+00	
1.395764e+00	-1.131440e+00	1.275160e+00	5.267249e+01	-1.031265e+02	2.734493e+05	1.072766e+05	2.930694e+02	2.646104e-01	8.391044e+00	0.000000e+00	
1.394808e+00	-1.071143e+00	1.275154e+00	5.268221e+01	-1.031398e+02	2.734495e+05	1.072760e+05	2.930693e+02	2.646490e-01	8.390266e+00	0.000000e+00	
1.393992e+00	-1.010751e+00	1.275159e+00	5.269299e+01	-1.031530e+02	2.734500e+05	1.072756e+05	2.930672e+02	2.646871e-01	8.389729e+00	0.000000e+00	
1.000000e+00	-7.738095e-01	1.275312e+00	5.269725e+01	-1.031247e+02	2.734291e+05	1.072684e+05	2.930120e+02	2.646269e-01	8.379488e+00	0.000000e+00	
1.136070e+00	-7.973420e-01	1.275164e+00	5.269587e+01	-1.031317e+02	2.734382e+05	1.072715e+05	2.930549e+02	2.646512e-01	8.383967e+00	0.000000e+00	
1.187499e+00	-8.298549e-01	1.275142e+00	5.269408e+01	-1.031367e+02	2.734408e+05	1.072724e+05	2.930622e+02	2.646607e-01	8.385228e+00	0.000000e+00	
1.238805e+00	-8.599060e-01	1.275132e+00	5.269461e+01	-1.031431e+02	2.734436e+05	1.072733e+05	2.930669e+02	2.646742e-01	8.386456e+00	0.000000e+00	
1.290245e+00	-8.900452e-01	1.275134e+00	5.269679e+01	-1.031501e+02	2.734460e+05	1.072740e+05	2.930686e+02	2.646896e-01	8.387474e+00	0.000000e+00	
1.341669e+00	-9.201922e-01	1.275147e+00	5.270004e+01	-1.031575e+02	2.734484e+05	1.072747e+05	2.930673e+02	2.647058e-01	8.388416e+00	0.000000e+00	
1.393077e+00	-9.501287e-01	1.275170e+00	5.270407e+01	-1.031650e+02	2.734505e+05	1.072753e+05	2.930635e+02	2.647222e-01	8.389208e+00	0.000000e+00	
1.043305e+00	-7.483473e-01	1.275228e+00	5.270394e+01	-1.031255e+02	2.734328e+05	1.072696e+05	2.930347e+02	2.646427e-01	8.381182e+00	0.000000e+00	
1.446081e+00	-1.157621e+00	1.275165e+00	5.268005e+01	-1.031352e+02	2.734511e+05	1.072768e+05	2.930691e+02	2.646351e-01	8.391448e+00	0.000000e+00	
1.450844e+00	-1.210365e+00	1.275167e+00	5.267272e+01	-1.031239e+02	2.734513e+05	1.072774e+05	2.930703e+02	2.646035e-01	8.392282e+00	0.000000e+00	
1.445809e+00	-1.099210e+00	1.275169e+00	5.268908e+01	-1.031483e+02	2.734515e+05	1.072765e+05	2.930671e+02	2.646712e-01	8.390922e+00	0.000000e+00	
1.091832e+00	-7.665481e-01	1.275180e+00	5.270079e+01	-1.031287e+02	2.734357e+05	1.072706e+05	2.930485e+02	2.646495e-01	8.382624e+00	0.000000e+00	
1.445317e+00	-1.039826e+00	1.275182e+00	5.269861e+01	-1.031609e+02	2.734519e+05	1.072761e+05	2.930630e+02	2.647058e-01	8.390383e+00	0.000000e+00	
1.444508e+00	-9.797257e-01	1.275202e+00	5.270867e+01	-1.031726e+02	2.734524e+05	1.072758e+05	2.930577e+02	2.647386e-01	8.389910e+00	0.000000e+00	
1.000000e+00	-7.142857e-01	1.275268e+00	5.271402e+01	-1.031229e+02	2.734300e+05	1.072684e+05	2.930223e+02	2.646451e-01	8.379599e+00	0.000000e+00	
1.188570e+00	-7.715395e-01	1.275124e+00	5.270867e+01	-1.031448e+02	2.734418e+05	1.072723e+05	2.930661e+02	2.646943e-01	8.385024e+00	0.000000e+00	
1.141157e+00	-7.415263e-01	1.275135e+00	5.271076e+01	-1.031381e+02	2.734394e+05	1.072715e+05	2.930614e+02	2.646825e-01	8.383971e+00	0.000000e+00	
1.238579e+00	-8.011049e-01	1.275124e+00	5.270841e+01	-1.031523e+02	2.734444e+05	1.072731e+05	2.930682e+02	2.647083e-01	8.386160e+00	0.000000e+00	
1.289445e+00	-8.304909e-01	1.275136e+00	5.270980e+01	-1.031602e+02	2.734468e+05	1.072738e+05	2.930673e+02	2.647237e-01	8.387121e+00	0.000000e+00	
1.340723e+00	-8.600896e-01	1.275159e+00	5.271207e+01	-1.031680e+02	2.734490e+05	1.072744e+05	2.930639e+02	2.647389e-01	8.388020e+00	0.000000e+00	
1.392142e+00	-8.897883e-01	1.275189e+00	5.271509e+01	-1.031757e+02	2.734510e+05	1.072750e+05	2.930583e+02	2.647537e-01	8.388813e+00	0.000000e+00	
1.443585e+00	-9.194397e-01	1.275226e+00	5.271859e+01	-1.031832e+02	2.734529e+05	1.072755e+05	2.930513e+02	2.647682e-01	8.389513e+00	0.000000e+00	
1.090456e+00	-7.145167e-01	1.275159e+00	5.271414e+01	-1.031316e+02	2.734367e+05	1.072706e+05	2.930534e+02	2.646715e-01	8.382680e+00	0.000000e+00	
1.039997e+00	-6.903901e-01	1.275191e+00	5.271995e+01	-1.031255e+02	2.734338e+05	1.072696e+05	2.930433e+02	2.646630e-01	8.381269e+00	0.000000e+00	
1.498196e+00	-1.126038e+00	1.275195e+00	5.269642e+01	-1.031573e+02	2.734534e+05	1.072768e+05	2.930621e+02	2.646941e-01	8.391433e+00	0.000000e+00	
1.510399e+00	-1.196264e+00	1.275186e+00	5.268986e+01	-1.031451e+02	2.734535e+05	1.072774e+05	2.930657e+02	2.646628e-01	8.392188e+00	0.000000e+00	
1.497132e+00	-1.068254e+00	1.275215e+00	5.270481e+01	-1.031692e+02	2.734538e+05	1.072765e+05	2.930567e+02	2.647252e-01	8.390980e+00	0.000000e+00	
1.496082e+00	-1.009007e+00	1.275238e+00	5.271361e+01	-1.031803e+02	2.734541e+05	1.072762e+05	2.930504e+02	2.647549e-01	8.390504e+00	0.000000e+00	
1.495030e+00	-9.489896e-01	1.275266e+00	5.272241e+01	-1.031904e+02	2.734545e+05	1.072759e+05	2.930433e+02	2.647822e-01	8.390122e+00	0.000000e+00	
1.000000e+00	-6.547619e-01	1.275221e+00	5.273042e+01	-1.031196e+02	2.734317e+05	1.072689e+05	2.930345e+02	2.646598e-01	8.380213e+00	0.000000e+00	
1.238355e+00	-7.426163e-01	1.275126e+00	5.272200e+01	-1.031604e+02	2.734454e+05	1.072730e+05	2.930674e+02	2.647387e-01	8.386024e+00	0.000000e+00	
1.188580e+00	-7.135674e-01	1.275116e+00	5.272292e+01	-1.031516e+02	2.734430e+05	1.072723e+05	2.930678e+02	2.647238e-01	8.385035e+00	0.000000e+00	
1.138284e+00	-6.855143e-01	1.275119e+00	5.272501e+01	-1.031425e+02	2.734405e+05	1.072715e+05	2.930651e+02	2.647080e-01	8.383983e+00	0.000000e+00	
1.288905e+00	-7.716261e-01	1.275147e+00	5.272243e+01	-1.031689e+02	2.734476e+05	1.072736e+05	2.930643e+02	2.647535e-01	8.386921e+00	0.000000e+00	
1.339977e+00	-8.007426e-01	1.275178e+00	5.272374e+01	-1.031771e+02	2.734497e+05	1.072742e+05	2.930590e+02	2.647677e-01	8.387771e+00	0.000000e+00	
1.391303e+00	-8.300433e-01	1.275214e+00	5.272575e+01	-1.031849e+02	2.734516e+05	1.072748e+05	2.930521e+02	2.647813e-01	8.388526e+00	0.000000e+00	
1.442698e+00	-8.594594e-01	1.275254e+00	5.272824e+01	-1.031923e+02	2.734533e+05	1.072753e+05	2.930443e+02	2.647942e-01	8.389209e+00	0.000000e+00	
1.494070e+00	-8.889202e-01	1.275295e+00	5.273106e+01	-1.031992e+02	2.734549e+05	1.072757e+05	2.930361e+02	2.648064e-01	8.389815e+00	0.000000e+00	
1.087729e+00	-6.605235e-01	1.275135e+00	5.272835e+01	-1.031329e+02	2.734377e+05	1.072707e+05	2.930592e+02	2.646913e-01	8.382833e+00	0.000000e+00	
1.036519e+00	-6.389016e-01	1.275160e+00	5.273311e+01	-1.031244e+02	2.734348e+05	1.072698e+05	2.930510e+02	2.646775e-01	8.381538e+00	0.000000e+00	
1.547027e+00	-1.151126e+00	1.275222e+00	5.270356e+01	-1.031657e+02	2.734548e+05	1.072771e+05	2.930565e+02	2.647155e-01	8.391754e+00	0.000000e+00	
1.549649e+00	-1.096695e+00	1.275251e+00	5.271084e+01	-1.031773e+02	2.734554e+05	1.072769e+05	2.930492e+02	2.647438e-01	8.391466e+00	0.000000e+00	
1.572311e+00	-1.200555e+00	1.275230e+00	5.270304e+01	-1.031638e+02	2.734554e+05	1.072774e+05	2.930556e+02	2.647098e-01	8.392216e+00	0.000000e+00	
1.547814e+00	-1.038373e+00	1.275278e+00	5.271866e+01	-1.031876e+02	2.734556e+05	1.072765e+05	2.930422e+02	2.647706e-01	8.390993e+00	0.000000e+00	
1.546431e+00	-9.785191e-01	1.275306e+00	5.272640e+01	-1.031972e+02	2.734560e+05	1.072763e+05	2.930351e+02	2.647956e-01	8.390665e+00	0.000000e+00	
1.545361e+00	-9.183948e-01	1.275334e+00	5.273400e+01	-1.032055e+02	2.734563e+05	1.072761e+05	2.930281e+02	2.648177e-01	8.390340e+00	0.000000e+00	
1.000000e+00	-5.952381e-01	1.275169e+00	5.274511e+01	-1.031160e+02	2.734338e+05	1.072695e+05	2.930480e+02	2.646723e-01	8.381080e+00	0.000000e+00	
1.236479e+00	-6.844404e-01	1.275137e+00	5.273465e+01	-1.031665e+02	2.734464e+05	1.072730e+05	2.930650e+02	2.647633e-01	8.386060e+00	0.000000e+00	
1.287827e+00	-7.131044e-01	1.275166e+00	5.273431e+01	-1.031759e+02	2.734485e+05	1.072736e+05	2.930599e+02	2.647783e-01	8.386880e+00	0.000000e+00	
1.184572e+00	-6.562751e-01	1.275118e+00	5.273594e+01	-1.031562e+02	2.734441e+05	1.072724e+05	2.930677e+02	2.647464e-01	8.385147e+00	0.000000e+00	
1.131451e+00	-6.297704e-01	1.275112e+00	5.273801e+01	-1.031447e+02	2.734416e+05	1.072717e+05	2.930671e+02	2.647266e-01	8.384223e+00	0.000000e+00	
1.339147e+00	-7.419103e-01	1.275202e+00	5.273475e+01	-1.031846e+02	2.734504e+05	1.072742e+05	2.930531e+02	2.647920e-01	8.387657e+00	0.000000e+00	
1.390516e+00	-7.708705e-01	1.275242e+00	5.273586e+01	-1.031927e+02	2.734522e+05	1.072747e+05	2.930453e+02	2.648047e-01	8.388362e+00	0.000000e+00	
1.441888e+00	-7.999823e-01	1.275284e+00	5.273744e+01	-1.032001e+02	2.734539e+05	1.072751e+05	2.930371e+02	2.648166e-01	8.389010e+00	0.000000e+00	
1.493214e+00	-8.292045e-01	1.275324e+00	5.273932e+01	-1.032067e+02	2.734553e+05	1.072755e+05	2.930290e+02	2.648274e-01	8.389589e+00	0.000000e+00	
1.544461e+00	-8.584941e-01	1.275361e+00	5.274130e+01	-1.032125e+02	2.734567e+05	1.072759e+05	2.930215e+02	2.648370e-01	8.390112e+00	0.000000e+00	
1.076336e+00	-6.075870e-01	1.275125e+00	5.274124e+01	-1.031320e+02	2.734385e+05	1.072708e+05	2.930619e+02	2.647038e-01	8.382977e+00	0.000000e+00	
1.600550e+00	-1.133089e+00	1.275284e+00	5.271548e+01	-1.031829e+02	2.734566e+05	1.072771e+05	2.930424e+02	2.647564e-01	8.391832e+00	0.000000e+00	
1.598755e+00	-1.069283e+00	1.275318e+00	5.272354e+01	-1.031946e+02	2.734571e+05	1.072769e+05	2.930341e+02	2.647853e-01	8.391507e+00	0.000000e+00	
1.634718e+00	-1.200848e+00	1.275290e+00	5.271496e+01	-1.031800e+02	2.734574e+05	1.072776e+05	2.930424e+02	2.647488e-01	8.392478e+00	0.000000e+00	
1.597484e+00	-1.008162e+00	1.275344e+00	5.273025e+01	-1.032033e+02	2.734573e+05	1.072766e+05	2.930273e+02	2.648077e-01	8.391093e+00	0.000000e+00	
1.596469e+00	-9.478281e-01	1.275370e+00	5.273687e+01	-1.032110e+02	2.734576e+05	1.072764e+05	2.930208e+02	2.648277e-01	8.390813e+00	0.000000e+00	
1.595591e+00	-8.877928e-01	1.275393e+00	5.274313e+01	-1.032172e+02	2.734578e+05	1.072762e+05	2.930150e+02	2.648446e-01	8.390570e+00	0.000000e+00	
1.069329e+00	-5.546983e-01	1.275114e+00	5.275312e+01	-1.031302e+02	2.734399e+05	1.072712e+05	2.930654e+02	2.647131e-01	8.383554e+00	0.000000e+00	
1.232605e+00	-6.269239e-01	1.275154e+00	5.274591e+01	-1.031707e+02	2.734474e+05	1.072731e+05	2.930615e+02	2.647815e-01	8.386230e+00	0.000000e+00	
1.285629e+00	-6.549535e-01	1.275190e+00	5.274509e+01	-1.031812e+02	2.734494e+05	1.072737e+05	2.930546e+02	2.647977e-01	8.386971e+00	0.000000e+00	
1.337846e+00	-6.834172e-01	1.275231e+00	5.274489e+01	-1.031906e+02	2.734513e+05	1.072742e+05	2.930467e+02	2.648117e-01	8.387672e+00	0.000000e+00	
1.178506e+00	-5.999571e-01	1.275125e+00	5.274749e+01	-1.031586e+02	2.734452e+05	1.072726e+05	2.930665e+02	2.647624e-01	8.385399e+00	0.000000e+00	
1.123578e+00	-5.753637e-01	1.275111e+00	5.274965e+01	-1.031452e+02	2.734428e+05	1.072720e+05	2.930682e+02	2.647394e-01	8.384574e+00	0.000000e+00	
1.389598e+00	-7.121037e-01	1.275272e+00	5.274526e+01	-1.031989e+02	2.734529e+05	1.072746e+05	2.930383e+02	2.648242e-01	8.388315e+00	0.000000e+00	
1.441092e+00	-7.409554e-01	1.275313e+00	5.274603e+01	-1.032064e+02	2.734544e+05	1.072750e+05	2.930300e+02	2.648354e-01	8.388912e+00	0.000000e+00	
1.492432e+00	-7.699347e-01	1.275351e+00	5.274705e+01	-1.032128e+02	2.734558e+05	1.072754e+05	2.930224e+02	2.648451e-01	8.389456e+00	0.000000e+00	
1.543664e+00	-7.990048e-01	1.275385e+00	5.274807e+01	-1.032180e+02	2.734570e+05	1.072758e+05	2.930156e+02	2.648529e-01	8.389950e+00	0.000000e+00	
1.594803e+00	-8.281254e-01	1.275413e+00	5.274884e+01	-1.032217e+02	2.734580e+05	1.072761e+05	2.930100e+02	2.648579e-01	8.390396e+00	0.000000e+00	
1.000000e+00	-5.357143e-01	1.275129e+00	5.275794e+01	-1.031129e+02	2.734364e+05	1.072704e+05	2.930597e+02	2.646824e-01	8.382322e+00	0.000000e+00	
1.648946e+00	-1.094829e+00	1.275355e+00	5.272830e+01	-1.032013e+02	2.734583e+05	1.072771e+05	2.930260e+02	2.647997e-01	8.391818e+00	0.000000e+00	
1.654747e+00	-1.149486e+00	1.275334e+00	5.272350e+01	-1.031941e+02	2.734580e+05	1.072773e+05	2.930313e+02	2.647821e-01	8.392029e+00	0.000000e+00	
1.648102e+00	-1.036534e+00	1.275379e+00	5.273402e+01	-1.032088e+02	2.734584e+05	1.072769e+05	2.930200e+02	2.648187e-01	8.391474e+00	0.000000e+00	
1.696459e+00	-1.196388e+00	1.275355e+00	5.272594e+01	-1.031961e+02	2.734588e+05	1.072775e+05	2.930273e+02	2.647862e-01	8.392424e+00	0.000000e+00	
1.647343e+00	-9.768803e-01	1.275401e+00	5.273941e+01	-1.032153e+02	2.734586e+05	1.072767e+05	2.930145e+02	2.648356e-01	8.391216e+00	0.000000e+00	
1.646583e+00	-9.169782e-01	1.275420e+00	5.274457e+01	-1.032203e+02	2.734587e+05	1.072765e+05	2.930096e+02	2.648493e-01	8.390975e+00	0.000000e+00	
1.645850e+00	-8.572406e-01	1.275435e+00	5.274906e+01	-1.032234e+02	2.734588e+05	1.072764e+05	2.930058e+02	2.648590e-01	8.390793e+00	0.000000e+00	
1.118466e+00	-5.207647e-01	1.275116e+00	5.276017e+01	-1.031451e+02	2.734443e+05	1.072724e+05	2.930683e+02	2.647492e-01	8.385218e+00	0.000000e+00	
1.067657e+00	-4.976080e-01	1.275108e+00	5.276404e+01	-1.031290e+02	2.734420e+05	1.072719e+05	2.930687e+02	2.647219e-01	8.384509e+00	0.000000e+00	
1.282527e+00	-5.972533e-01	1.275217e+00	5.275474e+01	-1.031849e+02	2.734504e+05	1.072738e+05	2.930489e+02	2.648123e-01	8.387201e+00	0.000000e+00	
1.227972e+00	-5.700864e-01	1.275175e+00	5.275591e+01	-1.031733e+02	2.734486e+05	1.072734e+05	2.930573e+02	2.647947e-01	8.386566e+00	0.000000e+00	
1.335955e+00	-6.252197e-01	1.275260e+00	5.275407e+01	-1.031951e+02	2.734521e+05	1.072743e+05	2.930401e+02	2.648272e-01	8.387815e+00	0.000000e+00	
1.388405e+00	-6.536085e-01	1.275303e+00	5.275385e+01	-1.032038e+02	2.734537e+05	1.072747e+05	2.930314e+02	2.648399e-01	8.388383e+00	0.000000e+00	
1.172776e+00	-5.443829e-01	1.275139e+00	5.275774e+01	-1.031599e+02	2.734465e+05	1.072729e+05	2.930642e+02	2.647738e-01	8.385860e+00	0.000000e+00	
1.440217e+00	-6.822398e-01	1.275342e+00	5.275393e+01	-1.032113e+02	2.734551e+05	1.072750e+05	2.930235e+02	2.648507e-01	8.388918e+00	0.000000e+00	
1.491668e+00	-7.110241e-01	1.275377e+00	5.275412e+01	-1.032175e+02	2.734563e+05	1.072754e+05	2.930164e+02	2.648593e-01	8.389412e+00	0.000000e+00	
1.542926e+00	-7.399089e-01	1.275406e+00	5.275418e+01	-1.032220e+02	2.734574e+05	1.072757e+05	2.930106e+02	2.648651e-01	8.389870e+00	0.000000e+00	
1.594075e+00	-7.688581e-01	1.275429e+00	5.275381e+01	-1.032245e+02	2.734582e+05	1.072760e+05	2.930061e+02	2.648670e-01	8.390288e+00	0.000000e+00	
1.645149e+00	-7.978403e-01	1.275447e+00	5.275274e+01	-1.032246e+02	2.734588e+05	1.072763e+05	2.930029e+02	2.648641e-01	8.390669e+00	0.000000e+00	
1.000000e+00	-4.761905e-01	1.275110e+00	5.276893e+01	-1.031098e+02	2.734392e+05	1.072714e+05	2.930668e+02	2.646883e-01	8.383716e+00	0.000000e+00	
1.699338e+00	-1.064432e+00	1.275409e+00	5.273731e+01	-1.032131e+02	2.734593e+05	1.072771e+05	2.930136e+02	2.648274e-01	8.391801e+00	0.000000e+00	
1.701258e+00	-1.122386e+00	1.275388e+00	5.273236e+01	-1.032067e+02	2.734594e+05	1.072774e+05	2.930191e+02	2.648112e-01	8.392171e+00	0.000000e+00	
1.698266e+00	-1.005530e+00	1.275426e+00	5.274148e+01	-1.032181e+02	2.734594e+05	1.072769e+05	2.930093e+02	2.648405e-01	8.391570e+00	0.000000e+00	
1.751835e+00	-1.208439e+00	1.275398e+00	5.273226e+01	-1.032048e+02	2.734599e+05	1.072776e+05	2.930176e+02	2.648059e-01	8.392565e+00	0.000000e+00	
1.697504e+00	-9.459863e-01	1.275440e+00	5.274531e+01	-1.032214e+02	2.734594e+05	1.072768e+05	2.930056e+02	2.648500e-01	8.391323e+00	0.000000e+00	
1.696824e+00	-8.863085e-01	1.275451e+00	5.274846e+01	-1.032229e+02	2.734593e+05	1.072766e+05	2.930028e+02	2.648552e-01	8.391150e+00	0.000000e+00	
1.696166e+00	-8.268316e-01	1.275458e+00	5.275070e+01	-1.032221e+02	2.734590e+05	1.072765e+05	2.930009e+02	2.648553e-01	8.391009e+00	0.000000e+00	
1.116174e+00	-4.640064e-01	1.275131e+00	5.276952e+01	-1.031451e+02	2.734463e+05	1.072731e+05	2.930667e+02	2.647566e-01	8.386142e+00	0.000000e+00	
1.168895e+00	-4.883350e-01	1.275160e+00	5.276685e+01	-1.031606e+02	2.734480e+05	1.072734e+05	2.930607e+02	2.647820e-01	8.386524e+00	0.000000e+00	
1.066592e+00	-4.393951e-01	1.275115e+00	5.277330e+01	-1.031281e+02	2.734445e+05	1.072728e+05	2.930696e+02	2.647278e-01	8.385770e+00	0.000000e+00	
1.751889e+00	-1.152379e+00	1.275414e+00	5.273560e+01	-1.032102e+02	2.734600e+05	1.072775e+05	2.930136e+02	2.648190e-01	8.392328e+00	0.000000e+00	
1.333726e+00	-5.672619e-01	1.275291e+00	5.276229e+01	-1.031983e+02	2.734531e+05	1.072745e+05	2.930336e+02	2.648389e-01	8.388079e+00	0.000000e+00	
1.279278e+00	-5.398617e-01	1.275246e+00	5.276332e+01	-1.031874e+02	2.734515e+05	1.072741e+05	2.930429e+02	2.648230e-01	8.387567e+00	0.000000e+00	
1.223918e+00	-5.134628e-01	1.275201e+00	5.276476e+01	-1.031748e+02	2.734498e+05	1.072737e+05	2.930523e+02	2.648040e-01	8.387057e+00	0.000000e+00	
1.386957e+00	-5.953011e-01	1.275332e+00	5.276159e+01	-1.032075e+02	2.734545e+05	1.072748e+05	2.930250e+02	2.648521e-01	8.388561e+00	0.000000e+00	
1.439218e+00	-6.237155e-01	1.275369e+00	5.276102e+01	-1.032150e+02	2.734557e+05	1.072751e+05	2.930176e+02	2.648626e-01	8.389022e+00	0.000000e+00	
1.490873e+00	-6.523436e-01	1.275399e+00	5.276040e+01	-1.032206e+02	2.734568e+05	1.072754e+05	2.930114e+02	2.648699e-01	8.389457e+00	0.000000e+00	
1.542206e+00	-6.810933e-01	1.275424e+00	5.275944e+01	-1.032242e+02	2.734577e+05	1.072757e+05	2.930065e+02	2.648732e-01	8.389867e+00	0.000000e+00	
1.593379e+00	-7.099137e-01	1.275442e+00	5.275788e+01	-1.032253e+02	2.734583e+05	1.072760e+05	2.930030e+02	2.648716e-01	8.390249e+00	0.000000e+00	
1.644471e+00	-7.387760e-01	1.275455e+00	5.275544e+01	-1.032236e+02	2.734586e+05	1.072762e+05	2.930009e+02	2.648641e-01	8.390601e+00	0.000000e+00	
1.695515e+00	-7.676637e-01	1.275462e+00	5.275192e+01	-1.032190e+02	2.734587e+05	1.072765e+05	2.929998e+02	2.648499e-01	8.390925e+00	0.000000e+00	
1.000000e+00	-4.166667e-01	1.275103e+00	5.277762e+01	-1.031070e+02	2.734423e+05	1.072725e+05	2.930714e+02	2.646910e-01	8.385384e+00	0.000000e+00	
1.750541e+00	-1.093258e+00	1.275433e+00	5.273980e+01	-1.032157e+02	2.734601e+05	1.072773e+05	2.930087e+02	2.648327e-01	8.392092e+00	0.000000e+00	
1.749304e+00	-1.034386e+00	1.275446e+00	5.274270e+01	-1.032190e+02	2.734600e+05	1.072771e+05	2.930053e+02	2.648412e-01	8.391846e+00	0.000000e+00	
1.748434e+00	-9.750108e-01	1.275455e+00	5.274512e+01	-1.032204e+02	2.734598e+05	1.072770e+05	2.930027e+02	2.648458e-01	8.391636e+00	0.000000e+00	
1.800221e+00	-1.182159e+00	1.275437e+00	5.273819e+01	-1.032128e+02	2.734607e+05	1.072777e+05	2.930089e+02	2.648241e-01	8.392639e+00	0.000000e+00	
1.747758e+00	-9.153829e-01	1.275461e+00	5.274679e+01	-1.032196e+02	2.734594e+05	1.072769e+05	2.930009e+02	2.648455e-01	8.391458e+00	0.000000e+00	
1.747140e+00	-8.558444e-01	1.275465e+00	5.274752e+01	-1.032166e+02	2.734590e+05	1.072768e+05	2.930000e+02	2.648399e-01	8.391316e+00	0.000000e+00	
1.746524e+00	-7.965773e-01	1.275465e+00	5.274718e+01	-1.032112e+02	2.734583e+05	1.072767e+05	2.929996e+02	2.648285e-01	8.391218e+00	0.000000e+00	
1.114880e+00	-4.060739e-01	1.275154e+00	5.277711e+01	-1.031448e+02	2.734484e+05	1.072739e+05	2.930634e+02	2.647604e-01	8.387238e+00	0.000000e+00	
1.166696e+00	-4.311516e-01	1.275188e+00	5.277455e+01	-1.031609e+02	2.734497e+05	1.072740e+05	2.930559e+02	2.647869e-01	8.387378e+00	0.000000e+00	
1.221074e+00	-4.564179e-01	1.275231e+00	5.277236e+01	-1.031758e+02	2.734513e+05	1.072742e+05	2.930466e+02	2.648101e-01	8.387716e+00	0.000000e+00	
1.065819e+00	-3.806343e-01	1.275130e+00	5.278032e+01	-1.031268e+02	2.734470e+05	1.072738e+05	2.930687e+02	2.647297e-01	8.387139e+00	0.000000e+00	
1.800616e+00	-1.123297e+00	1.275451e+00	5.274103e+01	-1.032162e+02	2.734605e+05	1.072775e+05	2.930051e+02	2.648329e-01	8.392312e+00	0.000000e+00	
1.849631e+00	-1.210478e+00	1.275454e+00	5.274019e+01	-1.032133e+02	2.734610e+05	1.072778e+05	2.930052e+02	2.648254e-01	8.392739e+00	0.000000e+00	
1.385424e+00	-5.370981e-01	1.275360e+00	5.276835e+01	-1.032099e+02	2.734553e+05	1.072750e+05	2.930192e+02	2.648610e-01	8.388843e+00	0.000000e+00	
1.331571e+00	-5.093972e-01	1.275321e+00	5.276947e+01	-1.032005e+02	2.734541e+05	1.072747e+05	2.930273e+02	2.648474e-01	8.388462e+00	0.000000e+00	
1.276546e+00	-4.824460e-01	1.275277e+00	5.277076e+01	-1.031891e+02	2.734527e+05	1.072744e+05	2.930367e+02	2.648304e-01	8.388071e+00	0.000000e+00	
1.438132e+00	-5.652974e-01	1.275393e+00	5.276718e+01	-1.032172e+02	2.734564e+05	1.072753e+05	2.930124e+02	2.648709e-01	8.389221e+00	0.000000e+00	
1.490036e+00	-5.937899e-01	1.275419e+00	5.276571e+01	-1.032221e+02	2.734573e+05	1.072755e+05	2.930072e+02	2.648764e-01	8.389587e+00	0.000000e+00	
1.541481e+00	-6.224415e-01	1.275438e+00	5.276370e+01	-1.032245e+02	2.734579e+05	1.072758e+05	2.930034e+02	2.648768e-01	8.389940e+00	0.000000e+00	
1.592697e+00	-6.511767e-01	1.275452e+00	5.276087e+01	-1.032240e+02	2.734583e+05	1.072760e+05	2.930009e+02	2.648711e-01	8.390276e+00	0.000000e+00	
1.643806e+00	-6.799565e-01	1.275460e+00	5.275702e+01	-1.032204e+02	2.734584e+05	1.072762e+05	2.929997e+02	2.648586e-01	8.390594e+00	0.000000e+00	
1.694866e+00	-7.087628e-01	1.275463e+00	5.275199e+01	-1.032135e+02	2.734581e+05	1.072764e+05	2.929994e+02	2.648387e-01	8.390890e+00	0.000000e+00	
1.745898e+00	-7.375912e-01	1.275464e+00	5.274575e+01	-1.032034e+02	2.734576e+05	1.072766e+05	2.929998e+02	2.648115e-01	8.391163e+00	0.000000e+00	
1.000000e+00	-3.571429e-01	1.275110e+00	5.278371e+01	-1.031047e+02	2.734455e+05	1.072738e+05	2.930733e+02	2.646904e-01	8.387155e+00	0.000000e+00	
1.799997e+00	-1.063912e+00	1.275460e+00	5.274283e+01	-1.032175e+02	2.734603e+05	1.072773e+05	2.930026e+02	2.648367e-01	8.392124e+00	0.000000e+00	
1.799274e+00	-1.004360e+00	1.275465e+00	5.274374e+01	-1.032166e+02	2.734598e+05	1.072772e+05	2.930011e+02	2.648355e-01	8.391898e+00	0.000000e+00	
1.798648e+00	-9.446210e-01	1.275467e+00	5.274390e+01	-1.032136e+02	2.734593e+05	1.072770e+05	2.930001e+02	2.648294e-01	8.391734e+00	0.000000e+00	
1.850071e+00	-1.152401e+00	1.275463e+00	5.274144e+01	-1.032146e+02	2.734607e+05	1.072776e+05	2.930026e+02	2.648286e-01	8.392532e+00	0.000000e+00	
1.798078e+00	-8.849494e-01	1.275467e+00	5.274307e+01	-1.032081e+02	2.734586e+05	1.072769e+05	2.929998e+02	2.648176e-01	8.391587e+00	0.000000e+00	
1.797506e+00	-8.255463e-01	1.275466e+00	5.274121e+01	-1.032004e+02	2.734577e+05	1.072769e+05	2.930000e+02	2.648001e-01	8.391482e+00	0.000000e+00	
1.796910e+00	-7.664523e-01	1.275463e+00	5.273835e+01	-1.031905e+02	2.734567e+05	1.072768e+05	2.930005e+02	2.647774e-01	8.391413e+00	0.000000e+00	
1.165428e+00	-3.731207e-01	1.275221e+00	5.278058e+01	-1.031609e+02	2.734516e+05	1.072747e+05	2.930501e+02	2.647888e-01	8.388377e+00	0.000000e+00	
1.114066e+00	-3.475137e-01	1.275184e+00	5.278267e+01	-1.031442e+02	2.734507e+05	1.072747e+05	2.930589e+02	2.647607e-01	8.388469e+00	0.000000e+00	