TITLE = "SU2 Simulation"
VARIABLES = "Iteration","CL","CD","CSF","CMx","CMy","CMz","CFx","CFy","CFz","CL/CD","AoA","Custom_ObjFunc","Res_Flow[0]","Res_Flow[1]","Res_Flow[2]","Res_Flow[3]","Res_Flow[4]","Linear_Solver_Iterations","CFL_Number","Time(min)"
ZONE T= "Convergence history"
           0, 0.00000000e+00, 0.00000000e+00, 0.00000000e+00, 0.00000000e+00, 0.00000000e+00, 0.00000000e+00, 0.00000000e+00, 0.00000000e+00, 0.00000000e+00, 0.00000000e+00, 0.00000000e+00, 0.00000000e+00, -8.21791872e-01, 1.67614599e+00, -1.23192350e+01, 4.63010932e+00, 0.00000000e+00, 5.0000000000, 5.0000000000, 0.0017637872
           1, 0.00000000e+00, 0.00000000e+00, 0.00000000e+00, 0.00000000e+00, 0.00000000e+00, 0.00000000e+00, 0.00000000e+00, 0.00000000e+00, 0.00000000e+00, 0.00000000e+00, 0.00000000e+00, 0.00000000e+00, -8.53998249e-01, 1.69461781e+00, 3.64075222e-01, 4.61764047e+00, 0.00000000e+00, 5.0000000000, 5.0000000000, 0.0035452486
           2, 0.00000000e+00, 0.00000000e+00, 0.00000000e+00, 0.00000000e+00, 0.00000000e+00, 0.00000000e+00, 0.00000000e+00, 0.00000000e+00, 0.00000000e+00, 0.00000000e+00, 0.00000000e+00, 0.00000000e+00, -7.87196349e-01, 1.78578650e+00, 7.54655231e-01, 4.69618170e+00, 0.00000000e+00, 5.0000000000, 5.0000000000, 0.0053029505
           3, 0.00000000e+00, 0.00000000e+00, 0.00000000e+00, 0.00000000e+00, 0.00000000e+00, 0.00000000e+00, 0.00000000e+00, 0.00000000e+00, 0.00000000e+00, 0.00000000e+00, 0.00000000e+00, 0.00000000e+00, -7.84233419e-01, 1.79671287e+00, 9.73577194e-01, 4.70485005e+00, 0.00000000e+00, 5.0000000000, 5.0000000000, 0.0070468563
           4, 0.00000000e+00, 0.00000000e+00, 0.00000000e+00, 0.00000000e+00, 0.00000000e+00, 0.00000000e+00, 0.00000000e+00, 0.00000000e+00, 0.00000000e+00, 0.00000000e+00, 0.00000000e+00, 0.00000000e+00, -8.13237095e-01, 1.77177115e+00, 1.10886335e+00, 4.67898095e+00, 0.00000000e+00, 5.0000000000, 5.0000000000, 0.0087917110
           5, 0.00000000e+00, 0.00000000e+00, 0.00000000e+00, 0.00000000e+00, 0.00000000e+00, 0.00000000e+00, 0.00000000e+00, 0.00000000e+00, 0.00000000e+00, 0.00000000e+00, 0.00000000e+00, 0.00000000e+00, -8.46961295e-01, 1.73963793e+00, 1.19544969e+00, 4.64656253e+00, 0.00000000e+00, 5.0000000000, 5.0000000000, 0.0105734189
           6, 0.00000000e+00, 0.00000000e+00, 0.00000000e+00, 0.00000000e+00, 0.00000000e+00, 0.00000000e+00, 0.00000000e+00, 0.00000000e+00, 0.00000000e+00, 0.00000000e+00, 0.00000000e+00, 0.00000000e+00, -8.74399454e-01, 1.71213033e+00, 1.25150866e+00, 4.61940434e+00, 0.00000000e+00, 5.0000000000, 5.0000000000, 0.0128324840
           7, 0.00000000e+00, 0.00000000e+00, 0.00000000e+00, 0.00000000e+00, 0.00000000e+00, 0.00000000e+00, 0.00000000e+00, 0.00000000e+00, 0.00000000e+00, 0.00000000e+00, 0.00000000e+00, 0.00000000e+00, -8.95070883e-01, 1.69073687e+00, 1.28745240e+00, 4.59861701e+00, 0.00000000e+00, 5.0000000000, 5.0000000000, 0.0147995786
           8, 0.00000000e+00, 0.00000000e+00, 0.00000000e+00, 0.00000000e+00, 0.00000000e+00, 0.00000000e+00, 0.00000000e+00, 0.00000000e+00, 0.00000000e+00, 0.00000000e+00, 0.00000000e+00, 0.00000000e+00, -9.11286986e-01, 1.67338180e+00, 1.30944859e+00, 4.58213483e+00, 0.00000000e+00, 5.0000000000, 5.0000000000, 0.0165084001
           9, 0.00000000e+00, 0.00000000e+00, 0.00000000e+00, 0.00000000e+00, 0.00000000e+00, 0.00000000e+00, 0.00000000e+00, 0.00000000e+00, 0.00000000e+00, 0.00000000e+00, 0.00000000e+00, 0.00000000e+00, -9.24200406e-01, 1.65799079e+00, 1.32124117e+00, 4.56880591e+00, 0.00000000e+00, 5.0000000000, 5.0000000000, 0.0184269161
          10, 0.00000000e+00, 0.00000000e+00, 0.00000000e+00, 0.00000000e+00, 0.00000000e+00, 0.00000000e+00, 0.00000000e+00, 0.00000000e+00, 0.00000000e+00, 0.00000000e+00, 0.00000000e+00, 0.00000000e+00, -9.33061157e-01, 1.64317140e+00, 1.32530140e+00, 4.55928763e+00, 0.00000000e+00, 5.0000000000, 5.0000000000, 0.0198678137
          11, 0.00000000e+00, 0.00000000e+00, 0.00000000e+00, 0.00000000e+00, 0.00000000e+00, 0.00000000e+00, 0.00000000e+00, 0.00000000e+00, 0.00000000e+00, 0.00000000e+00, 0.00000000e+00, 0.00000000e+00, -9.35769869e-01, 1.62782852e+00, 1.32342673e+00, 4.55558963e+00, 0.00000000e+00, 5.0000000000, 5.0000000000, 0.0211942852
          12, 0.00000000e+00, 0.00000000e+00, 0.00000000e+00, 0.00000000e+00, 0.00000000e+00, 0.00000000e+00, 0.00000000e+00, 0.00000000e+00, 0.00000000e+00, 0.00000000e+00, 0.00000000e+00, 0.00000000e+00, -9.30346375e-01, 1.61081111e+00, 1.31706430e+00, 4.55970827e+00, 0.00000000e+00, 5.0000000000, 5.0000000000, 0.0224715048
          13, 0.00000000e+00, 0.00000000e+00, 0.00000000e+00, 0.00000000e+00, 0.00000000e+00, 0.00000000e+00, 0.00000000e+00, 0.00000000e+00, 0.00000000e+00, 0.00000000e+00, 0.00000000e+00, 0.00000000e+00, -9.16873902e-01, 1.59110083e+00, 1.30742716e+00, 4.57175924e+00, 0.00000000e+00, 5.0000000000, 5.0000000000, 0.0237743538
          14, 0.00000000e+00, 0.00000000e+00, 0.00000000e+00, 0.00000000e+00, 0.00000000e+00, 0.00000000e+00, 0.00000000e+00, 0.00000000e+00, 0.00000000e+00, 0.00000000e+00, 0.00000000e+00, 0.00000000e+00, -8.98394646e-01, 1.56865930e+00, 1.29550516e+00, 4.58901552e+00, 0.00000000e+00, 5.0000000000, 5.0000000000, 0.0250750642
          15, 0.00000000e+00, 0.00000000e+00, 0.00000000e+00, 0.00000000e+00, 0.00000000e+00, 0.00000000e+00, 0.00000000e+00, 0.00000000e+00, 0.00000000e+00, 0.00000000e+00, 0.00000000e+00, 0.00000000e+00, -8.79795445e-01, 1.54567833e+00, 1.28206763e+00, 4.60684655e+00, 0.00000000e+00, 5.0000000000, 5.0000000000, 0.0263888614
          16, 0.00000000e+00, 0.00000000e+00, 0.00000000e+00, 0.00000000e+00, 0.00000000e+00, 0.00000000e+00, 0.00000000e+00, 0.00000000e+00, 0.00000000e+00, 0.00000000e+00, 0.00000000e+00, 0.00000000e+00, -8.65842964e-01, 1.52729274e+00, 1.26768911e+00, 4.62057887e+00, 0.00000000e+00, 5.0000000000, 5.0000000000, 0.0279709386
          17, 0.00000000e+00, 0.00000000e+00, 0.00000000e+00, 0.00000000e+00, 0.00000000e+00, 0.00000000e+00, 0.00000000e+00, 0.00000000e+00, 0.00000000e+00, 0.00000000e+00, 0.00000000e+00, 0.00000000e+00, -8.59912616e-01, 1.52007278e+00, 1.25279194e+00, 4.62679198e+00, 0.00000000e+00, 5.0000000000, 5.0000000000, 0.0297536859
          18, 0.00000000e+00, 0.00000000e+00, 0.00000000e+00, 0.00000000e+00, 0.00000000e+00, 0.00000000e+00, 0.00000000e+00, 0.00000000e+00, 0.00000000e+00, 0.00000000e+00, 0.00000000e+00, 0.00000000e+00, -8.63703110e-01, 1.52773592e+00, 1.23773182e+00, 4.62367909e+00, 0.00000000e+00, 5.0000000000, 5.0000000000, 0.0314329831
          19, 0.00000000e+00, 0.00000000e+00, 0.00000000e+00, 0.00000000e+00, 0.00000000e+00, 0.00000000e+00, 0.00000000e+00, 0.00000000e+00, 0.00000000e+00, 0.00000000e+00, 0.00000000e+00, 0.00000000e+00, -8.77487901e-01, 1.54791902e+00, 1.22284008e+00, 4.61085941e+00, 0.00000000e+00, 5.0000000000, 5.0000000000, 0.0331119819
          20, 0.00000000e+00, 0.00000000e+00, 0.00000000e+00, 0.00000000e+00, 0.00000000e+00, 0.00000000e+00, 0.00000000e+00, 0.00000000e+00, 0.00000000e+00, 0.00000000e+00, 0.00000000e+00, 0.00000000e+00, -9.00490622e-01, 1.57422674e+00, 1.20843011e+00, 4.58904417e+00, 0.00000000e+00, 5.0000000000, 5.0000000000, 0.0349579780
          21, 0.00000000e+00, 0.00000000e+00, 0.00000000e+00, 0.00000000e+00, 0.00000000e+00, 0.00000000e+00, 0.00000000e+00, 0.00000000e+00, 0.00000000e+00, 0.00000000e+00, 0.00000000e+00, 0.00000000e+00, -9.31239266e-01, 1.60063855e+00, 1.19477739e+00, 4.55970587e+00, 0.00000000e+00, 5.0000000000, 5.0000000000, 0.0366294719
          22, 0.00000000e+00, 0.00000000e+00, 0.00000000e+00, 0.00000000e+00, 0.00000000e+00, 0.00000000e+00, 0.00000000e+00, 0.00000000e+00, 0.00000000e+00, 0.00000000e+00, 0.00000000e+00, 0.00000000e+00, -9.67901156e-01, 1.62364857e+00, 1.18210118e+00, 4.52474790e+00, 0.00000000e+00, 5.0000000000, 5.0000000000, 0.0383292068
          23, 0.00000000e+00, 0.00000000e+00, 0.00000000e+00, 0.00000000e+00, 0.00000000e+00, 0.00000000e+00, 0.00000000e+00, 0.00000000e+00, 0.00000000e+00, 0.00000000e+00, 0.00000000e+00, 0.00000000e+00, -1.00861553e+00, 1.64203688e+00, 1.17054846e+00, 4.48614955e+00, 0.00000000e+00, 5.0000000000, 5.0000000000, 0.0400193577
          24, 0.00000000e+00, 0.00000000e+00, 0.00000000e+00, 0.00000000e+00, 0.00000000e+00, 0.00000000e+00, 0.00000000e+00, 0.00000000e+00, 0.00000000e+00, 0.00000000e+00, 0.00000000e+00, 0.00000000e+00, -1.05182008e+00, 1.65591481e+00, 1.16015764e+00, 4.44558245e+00, 0.00000000e+00, 5.0000000000, 5.0000000000, 0.0419747011
          25, 0.00000000e+00, 0.00000000e+00, 0.00000000e+00, 0.00000000e+00, 0.00000000e+00, 0.00000000e+00, 0.00000000e+00, 0.00000000e+00, 0.00000000e+00, 0.00000000e+00, 0.00000000e+00, 0.00000000e+00, -1.09648792e+00, 1.66589560e+00, 1.15085261e+00, 4.40408823e+00, 0.00000000e+00, 5.0000000000, 5.0000000000, 0.0438820659
          26, 0.00000000e+00, 0.00000000e+00, 0.00000000e+00, 0.00000000e+00, 0.00000000e+00, 0.00000000e+00, 0.00000000e+00, 0.00000000e+00, 0.00000000e+00, 0.00000000e+00, 0.00000000e+00, 0.00000000e+00, -1.14209144e+00, 1.67254279e+00, 1.14245043e+00, 4.36201454e+00, 0.00000000e+00, 5.0000000000, 5.0000000000, 0.0457031315
          27, 0.00000000e+00, 0.00000000e+00, 0.00000000e+00, 0.00000000e+00, 0.00000000e+00, 0.00000000e+00, 0.00000000e+00, 0.00000000e+00, 0.00000000e+00, 0.00000000e+00, 0.00000000e+00, 0.00000000e+00, -1.18803079e+00, 1.67605224e+00, 1.13468672e+00, 4.31946246e+00, 0.00000000e+00, 5.0000000000, 5.0000000000, 0.0473454790
          28, 0.00000000e+00, 0.00000000e+00, 0.00000000e+00, 0.00000000e+00, 0.00000000e+00, 0.00000000e+00, 0.00000000e+00, 0.00000000e+00, 0.00000000e+00, 0.00000000e+00, 0.00000000e+00, 0.00000000e+00, -1.23227805e+00, 1.67612406e+00, 1.12724071e+00, 4.27745136e+00, 0.00000000e+00, 5.0000000000, 5.0000000000, 0.0487163435
          29, 0.00000000e+00, 0.00000000e+00, 0.00000000e+00, 0.00000000e+00, 0.00000000e+00, 0.00000000e+00, 0.00000000e+00, 0.00000000e+00, 0.00000000e+00, 0.00000000e+00, 0.00000000e+00, 0.00000000e+00, -1.26937959e+00, 1.67199019e+00, 1.11977576e+00, 4.23975321e+00, 0.00000000e+00, 5.0000000000, 5.0000000000, 0.0501045778
          30, 0.00000000e+00, 0.00000000e+00, 0.00000000e+00, 0.00000000e+00, 0.00000000e+00, 0.00000000e+00, 0.00000000e+00, 0.00000000e+00, 0.00000000e+00, 0.00000000e+00, 0.00000000e+00, 0.00000000e+00, -1.28962494e+00, 1.66254254e+00, 1.11197667e+00, 4.21432033e+00, 0.00000000e+00, 5.0000000000, 5.0000000000, 0.0514044466
          31, 0.00000000e+00, 0.00000000e+00, 0.00000000e+00, 0.00000000e+00, 0.00000000e+00, 0.00000000e+00, 0.00000000e+00, 0.00000000e+00, 0.00000000e+00, 0.00000000e+00, 0.00000000e+00, 0.00000000e+00, -1.28358686e+00, 1.64648432e+00, 1.10357890e+00, 4.21097208e+00, 0.00000000e+00, 5.0000000000, 5.0000000000, 0.0530184986
          32, 0.00000000e+00, 0.00000000e+00, 0.00000000e+00, 0.00000000e+00, 0.00000000e+00, 0.00000000e+00, 0.00000000e+00, 0.00000000e+00, 0.00000000e+00, 0.00000000e+00, 0.00000000e+00, 0.00000000e+00, -1.25111040e+00, 1.62243257e+00, 1.09439954e+00, 4.23355016e+00, 0.00000000e+00, 5.0000000000, 5.0000000000, 0.0548845131
          33, 0.00000000e+00, 0.00000000e+00, 0.00000000e+00, 0.00000000e+00, 0.00000000e+00, 0.00000000e+00, 0.00000000e+00, 0.00000000e+00, 0.00000000e+00, 0.00000000e+00, 0.00000000e+00, 0.00000000e+00, -1.20248600e+00, 1.58892832e+00, 1.08436180e+00, 4.27520026e+00, 0.00000000e+00, 5.0000000000, 5.0000000000, 0.0562831440
          34, 0.00000000e+00, 0.00000000e+00, 0.00000000e+00, 0.00000000e+00, 0.00000000e+00, 0.00000000e+00, 0.00000000e+00, 0.00000000e+00, 0.00000000e+00, 0.00000000e+00, 0.00000000e+00, 0.00000000e+00, -1.14982174e+00, 1.54433558e+00, 1.07350904e+00, 4.32423092e+00, 0.00000000e+00, 5.0000000000, 5.0000000000, 0.0576207914
          35, 0.00000000e+00, 0.00000000e+00, 0.00000000e+00, 0.00000000e+00, 0.00000000e+00, 0.00000000e+00, 0.00000000e+00, 0.00000000e+00, 0.00000000e+00, 0.00000000e+00, 0.00000000e+00, 0.00000000e+00, -1.10111418e+00, 1.48661006e+00, 1.06201697e+00, 4.37146181e+00, 0.00000000e+00, 5.0000000000, 5.0000000000, 0.0589142883
          36, 0.00000000e+00, 0.00000000e+00, 0.00000000e+00, 0.00000000e+00, 0.00000000e+00, 0.00000000e+00, 0.00000000e+00, 0.00000000e+00, 0.00000000e+00, 0.00000000e+00, 0.00000000e+00, 0.00000000e+00, -1.06018130e+00, 1.41288351e+00, 1.05016540e+00, 4.41195161e+00, 0.00000000e+00, 5.0000000000, 5.0000000000, 0.0603292875
          37, 0.00000000e+00, 0.00000000e+00, 0.00000000e+00, 0.00000000e+00, 0.00000000e+00, 0.00000000e+00, 0.00000000e+00, 0.00000000e+00, 0.00000000e+00, 0.00000000e+00, 0.00000000e+00, 0.00000000e+00, -1.02836450e+00, 1.31871420e+00, 1.03830404e+00, 4.44369069e+00, 0.00000000e+00, 5.0000000000, 5.0000000000, 0.0622961486
          38, 0.00000000e+00, 0.00000000e+00, 0.00000000e+00, 0.00000000e+00, 0.00000000e+00, 0.00000000e+00, 0.00000000e+00, 0.00000000e+00, 0.00000000e+00, 0.00000000e+00, 0.00000000e+00, 0.00000000e+00, -1.00582051e+00, 1.19670313e+00, 1.02681475e+00, 4.46618964e+00, 0.00000000e+00, 5.0000000000, 5.0000000000, 0.0640655517
          39, 0.00000000e+00, 0.00000000e+00, 0.00000000e+00, 0.00000000e+00, 0.00000000e+00, 0.00000000e+00, 0.00000000e+00, 0.00000000e+00, 0.00000000e+00, 0.00000000e+00, 0.00000000e+00, 0.00000000e+00, -9.92208525e-01, 1.03440541e+00, 1.01606277e+00, 4.47963869e+00, 0.00000000e+00, 5.0000000000, 5.0000000000, 0.0663241693
          40, 0.00000000e+00, 0.00000000e+00, 0.00000000e+00, 0.00000000e+00, 0.00000000e+00, 0.00000000e+00, 0.00000000e+00, 0.00000000e+00, 0.00000000e+00, 0.00000000e+00, 0.00000000e+00, 0.00000000e+00, -9.87006840e-01, 8.20759971e-01, 1.00635082e+00, 4.48449603e+00, 0.00000000e+00, 5.0000000000, 5.0000000000, 0.0682843426
          41, 0.00000000e+00, 0.00000000e+00, 0.00000000e+00, 0.00000000e+00, 0.00000000e+00, 0.00000000e+00, 0.00000000e+00, 0.00000000e+00, 0.00000000e+00, 0.00000000e+00, 0.00000000e+00, 0.00000000e+00, -9.89641832e-01, 6.73209425e-01, 9.97888332e-01, 4.48130802e+00, 0.00000000e+00, 5.0000000000, 5.0000000000, 0.0701230452
          42, 0.00000000e+00, 0.00000000e+00, 0.00000000e+00, 0.00000000e+00, 0.00000000e+00, 0.00000000e+00, 0.00000000e+00, 0.00000000e+00, 0.00000000e+00, 0.00000000e+00, 0.00000000e+00, 0.00000000e+00, -9.99522541e-01, 8.17399761e-01, 9.90778128e-01, 4.47064776e+00, 0.00000000e+00, 5.0000000000, 5.0000000000, 0.0720271969
          43, 0.00000000e+00, 0.00000000e+00, 0.00000000e+00, 0.00000000e+00, 0.00000000e+00, 0.00000000e+00, 0.00000000e+00, 0.00000000e+00, 0.00000000e+00, 0.00000000e+00, 0.00000000e+00, 0.00000000e+00, -1.01602368e+00, 9.88834411e-01, 9.85024638e-01, 4.45311684e+00, 0.00000000e+00, 5.0000000000, 5.0000000000, 0.0741844305
          44, 0.00000000e+00, 0.00000000e+00, 0.00000000e+00, 0.00000000e+00, 0.00000000e+00, 0.00000000e+00, 0.00000000e+00, 0.00000000e+00, 0.00000000e+00, 0.00000000e+00, 0.00000000e+00, 0.00000000e+00, -1.03843079e+00, 1.10937558e+00, 9.80557692e-01, 4.42939176e+00, 0.00000000e+00, 5.0000000000, 5.0000000000, 0.0762297614
          45, 0.00000000e+00, 0.00000000e+00, 0.00000000e+00, 0.00000000e+00, 0.00000000e+00, 0.00000000e+00, 0.00000000e+00, 0.00000000e+00, 0.00000000e+00, 0.00000000e+00, 0.00000000e+00, 0.00000000e+00, -1.06586330e+00, 1.19286407e+00, 9.77266367e-01, 4.40029555e+00, 0.00000000e+00, 5.0000000000, 5.0000000000, 0.0781774608
          46, 0.00000000e+00, 0.00000000e+00, 0.00000000e+00, 0.00000000e+00, 0.00000000e+00, 0.00000000e+00, 0.00000000e+00, 0.00000000e+00, 0.00000000e+00, 0.00000000e+00, 0.00000000e+00, 0.00000000e+00, -1.09717685e+00, 1.25121339e+00, 9.75030243e-01, 4.36689723e+00, 0.00000000e+00, 5.0000000000, 5.0000000000, 0.0803162558
          47, 0.00000000e+00, 0.00000000e+00, 0.00000000e+00, 0.00000000e+00, 0.00000000e+00, 0.00000000e+00, 0.00000000e+00, 0.00000000e+00, 0.00000000e+00, 0.00000000e+00, 0.00000000e+00, 0.00000000e+00, -1.13086349e+00, 1.29158251e+00, 9.73744442e-01, 4.33062633e+00, 0.00000000e+00, 5.0000000000, 5.0000000000, 0.0816556257
          48, 0.00000000e+00, 0.00000000e+00, 0.00000000e+00, 0.00000000e+00, 0.00000000e+00, 0.00000000e+00, 0.00000000e+00, 0.00000000e+00, 0.00000000e+00, 0.00000000e+00, 0.00000000e+00, 0.00000000e+00, -1.16499840e+00, 1.31841974e+00, 9.73334864e-01, 4.29336255e+00, 0.00000000e+00, 5.0000000000, 5.0000000000, 0.0830246794
          49, 0.00000000e+00, 0.00000000e+00, 0.00000000e+00, 0.00000000e+00, 0.00000000e+00, 0.00000000e+00, 0.00000000e+00, 0.00000000e+00, 0.00000000e+00, 0.00000000e+00, 0.00000000e+00, 0.00000000e+00, -1.19731758e+00, 1.33469438e+00, 9.73764600e-01, 4.25741784e+00, 0.00000000e+00, 5.0000000000, 5.0000000000, 0.0850920876
          50, 0.00000000e+00, 0.00000000e+00, 0.00000000e+00, 0.00000000e+00, 0.00000000e+00, 0.00000000e+00, 0.00000000e+00, 0.00000000e+00, 0.00000000e+00, 0.00000000e+00, 0.00000000e+00, 0.00000000e+00, -1.22551808e+00, 1.34254446e+00, 9.75031692e-01, 4.22529648e+00, 0.00000000e+00, 5.0000000000, 5.0000000000, 0.0868389494
          51, 0.00000000e+00, 0.00000000e+00, 0.00000000e+00, 0.00000000e+00, 0.00000000e+00, 0.00000000e+00, 0.00000000e+00, 0.00000000e+00, 0.00000000e+00, 0.00000000e+00, 0.00000000e+00, 0.00000000e+00, -1.24777823e+00, 1.34362777e+00, 9.77160679e-01, 4.19917658e+00, 0.00000000e+00, 5.0000000000, 5.0000000000, 0.0895814692
          52, 0.00000000e+00, 0.00000000e+00, 0.00000000e+00, 0.00000000e+00, 0.00000000e+00, 0.00000000e+00, 0.00000000e+00, 0.00000000e+00, 0.00000000e+00, 0.00000000e+00, 0.00000000e+00, 0.00000000e+00, -1.26329033e+00, 1.33931728e+00, 9.80191250e-01, 4.18027196e+00, 0.00000000e+00, 5.0000000000, 5.0000000000, 0.0918425733
          53, 0.00000000e+00, 0.00000000e+00, 0.00000000e+00, 0.00000000e+00, 0.00000000e+00, 0.00000000e+00, 0.00000000e+00, 0.00000000e+00, 0.00000000e+00, 0.00000000e+00, 0.00000000e+00, 0.00000000e+00, -1.27247558e+00, 1.33080987e+00, 9.84164365e-01, 4.16844815e+00, 0.00000000e+00, 5.0000000000, 5.0000000000, 0.0932572046
          54, 0.00000000e+00, 0.00000000e+00, 0.00000000e+00, 0.00000000e+00, 0.00000000e+00, 0.00000000e+00, 0.00000000e+00, 0.00000000e+00, 0.00000000e+00, 0.00000000e+00, 0.00000000e+00, 0.00000000e+00, -1.27672594e+00, 1.31918084e+00, 9.89112721e-01, 4.16237561e+00, 0.00000000e+00, 5.0000000000, 5.0000000000, 0.0948727049
          55, 0.00000000e+00, 0.00000000e+00, 0.00000000e+00, 0.00000000e+00, 0.00000000e+00, 0.00000000e+00, 0.00000000e+00, 0.00000000e+00, 0.00000000e+00, 0.00000000e+00, 0.00000000e+00, 0.00000000e+00, -1.27786177e+00, 1.30540071e+00, 9.95047327e-01, 4.16010089e+00, 0.00000000e+00, 5.0000000000, 5.0000000000, 0.0968270857
          56, 0.00000000e+00, 0.00000000e+00, 0.00000000e+00, 0.00000000e+00, 0.00000000e+00, 0.00000000e+00, 0.00000000e+00, 0.00000000e+00, 0.00000000e+00, 0.00000000e+00, 0.00000000e+00, 0.00000000e+00, -1.27763321e+00, 1.29032644e+00, 1.00195176e+00, 4.15965150e+00, 0.00000000e+00, 5.0000000000, 5.0000000000, 0.0985152600
          57, 0.00000000e+00, 0.00000000e+00, 0.00000000e+00, 0.00000000e+00, 0.00000000e+00, 0.00000000e+00, 0.00000000e+00, 0.00000000e+00, 0.00000000e+00, 0.00000000e+00, 0.00000000e+00, 0.00000000e+00, -1.27744753e+00, 1.27467815e+00, 1.00977873e+00, 4.15940229e+00, 0.00000000e+00, 5.0000000000, 5.0000000000, 0.1004867258
          58, 0.00000000e+00, 0.00000000e+00, 0.00000000e+00, 0.00000000e+00, 0.00000000e+00, 0.00000000e+00, 0.00000000e+00, 0.00000000e+00, 0.00000000e+00, 0.00000000e+00, 0.00000000e+00, 0.00000000e+00, -1.27830821e+00, 1.25901400e+00, 1.01845101e+00, 4.15818106e+00, 0.00000000e+00, 5.0000000000, 5.0000000000, 0.1028240249
          59, 0.00000000e+00, 0.00000000e+00, 0.00000000e+00, 0.00000000e+00, 0.00000000e+00, 0.00000000e+00, 0.00000000e+00, 0.00000000e+00, 0.00000000e+00, 0.00000000e+00, 0.00000000e+00, 0.00000000e+00, -1.28087149e+00, 1.24371458e+00, 1.02786319e+00, 4.15521901e+00, 0.00000000e+00, 5.0000000000, 5.0000000000, 0.1051811795
          60, 0.00000000e+00, 0.00000000e+00, 0.00000000e+00, 0.00000000e+00, 0.00000000e+00, 0.00000000e+00, 0.00000000e+00, 0.00000000e+00, 0.00000000e+00, 0.00000000e+00, 0.00000000e+00, 0.00000000e+00, -1.28553926e+00, 1.22898582e+00, 1.03788790e+00, 4.15004825e+00, 0.00000000e+00, 5.0000000000, 5.0000000000, 0.1075831481
          61, 0.00000000e+00, 0.00000000e+00, 0.00000000e+00, 0.00000000e+00, 0.00000000e+00, 0.00000000e+00, 0.00000000e+00, 0.00000000e+00, 0.00000000e+00, 0.00000000e+00, 0.00000000e+00, 0.00000000e+00, -1.29254532e+00, 1.21488229e+00, 1.04838723e+00, 4.14240327e+00, 0.00000000e+00, 5.0000000000, 5.0000000000, 0.1101654316
          62, 0.00000000e+00, 0.00000000e+00, 0.00000000e+00, 0.00000000e+00, 0.00000000e+00, 0.00000000e+00, 0.00000000e+00, 0.00000000e+00, 0.00000000e+00, 0.00000000e+00, 0.00000000e+00, 0.00000000e+00, -1.30201984e+00, 1.20134613e+00, 1.05921628e+00, 4.13214722e+00, 0.00000000e+00, 5.0000000000, 5.0000000000, 0.1124356662
          63, 0.00000000e+00, 0.00000000e+00, 0.00000000e+00, 0.00000000e+00, 0.00000000e+00, 0.00000000e+00, 0.00000000e+00, 0.00000000e+00, 0.00000000e+00, 0.00000000e+00, 0.00000000e+00, 0.00000000e+00, -1.31402966e+00, 1.18825305e+00, 1.07022699e+00, 4.11922681e+00, 0.00000000e+00, 5.0000000000, 5.0000000000, 0.1152243591
          64, 0.00000000e+00, 0.00000000e+00, 0.00000000e+00, 0.00000000e+00, 0.00000000e+00, 0.00000000e+00, 0.00000000e+00, 0.00000000e+00, 0.00000000e+00, 0.00000000e+00, 0.00000000e+00, 0.00000000e+00, -1.32859723e+00, 1.17545491e+00, 1.08127566e+00, 4.10365330e+00, 0.00000000e+00, 5.0000000000, 5.0000000000, 0.1180865418
          65, 0.00000000e+00, 0.00000000e+00, 0.00000000e+00, 0.00000000e+00, 0.00000000e+00, 0.00000000e+00, 0.00000000e+00, 0.00000000e+00, 0.00000000e+00, 0.00000000e+00, 0.00000000e+00, 0.00000000e+00, -1.34569845e+00, 1.16281247e+00, 1.09222341e+00, 4.08550949e+00, 0.00000000e+00, 5.0000000000, 5.0000000000, 0.1203130581
          66, 0.00000000e+00, 0.00000000e+00, 0.00000000e+00, 0.00000000e+00, 0.00000000e+00, 0.00000000e+00, 0.00000000e+00, 0.00000000e+00, 0.00000000e+00, 0.00000000e+00, 0.00000000e+00, 0.00000000e+00, -1.36523716e+00, 1.15021438e+00, 1.10294091e+00, 4.06498602e+00, 0.00000000e+00, 5.0000000000, 5.0000000000, 0.1226747814
          67, 0.00000000e+00, 0.00000000e+00, 0.00000000e+00, 0.00000000e+00, 0.00000000e+00, 0.00000000e+00, 0.00000000e+00, 0.00000000e+00, 0.00000000e+00, 0.00000000e+00, 0.00000000e+00, 0.00000000e+00, -1.38699054e+00, 1.13758194e+00, 1.11330964e+00, 4.04245372e+00, 0.00000000e+00, 5.0000000000, 5.0000000000, 0.1245662108
          68, 0.00000000e+00, 0.00000000e+00, 0.00000000e+00, 0.00000000e+00, 0.00000000e+00, 0.00000000e+00, 0.00000000e+00, 0.00000000e+00, 0.00000000e+00, 0.00000000e+00, 0.00000000e+00, 0.00000000e+00, -1.41052097e+00, 1.12485812e+00, 1.12322127e+00, 4.01857585e+00, 0.00000000e+00, 5.0000000000, 5.0000000000, 0.1264151482
          69, 0.00000000e+00, 0.00000000e+00, 0.00000000e+00, 0.00000000e+00, 0.00000000e+00, 0.00000000e+00, 0.00000000e+00, 0.00000000e+00, 0.00000000e+00, 0.00000000e+00, 0.00000000e+00, 0.00000000e+00, -1.43504298e+00, 1.11198772e+00, 1.13257664e+00, 3.99446448e+00, 0.00000000e+00, 5.0000000000, 5.0000000000, 0.1282614088
          70, 0.00000000e+00, 0.00000000e+00, 0.00000000e+00, 0.00000000e+00, 0.00000000e+00, 0.00000000e+00, 0.00000000e+00, 0.00000000e+00, 0.00000000e+00, 0.00000000e+00, 0.00000000e+00, 0.00000000e+00, -1.45925944e+00, 1.09889058e+00, 1.14128596e+00, 3.97184385e+00, 0.00000000e+00, 5.0000000000, 5.0000000000, 0.1300546439
          71, 0.00000000e+00, 0.00000000e+00, 0.00000000e+00, 0.00000000e+00, 0.00000000e+00, 0.00000000e+00, 0.00000000e+00, 0.00000000e+00, 0.00000000e+00, 0.00000000e+00, 0.00000000e+00, 0.00000000e+00, -1.48122208e+00, 1.08543433e+00, 1.14926782e+00, 3.95311631e+00, 0.00000000e+00, 5.0000000000, 5.0000000000, 0.1319223211
          72, 0.00000000e+00, 0.00000000e+00, 0.00000000e+00, 0.00000000e+00, 0.00000000e+00, 0.00000000e+00, 0.00000000e+00, 0.00000000e+00, 0.00000000e+00, 0.00000000e+00, 0.00000000e+00, 0.00000000e+00, -1.49835914e+00, 1.07141113e+00, 1.15645003e+00, 3.94113147e+00, 0.00000000e+00, 5.0000000000, 5.0000000000, 0.1337460219
          73, 0.00000000e+00, 0.00000000e+00, 0.00000000e+00, 0.00000000e+00, 0.00000000e+00, 0.00000000e+00, 0.00000000e+00, 0.00000000e+00, 0.00000000e+00, 0.00000000e+00, 0.00000000e+00, 0.00000000e+00, -1.50787611e+00, 1.05652331e+00, 1.16277235e+00, 3.93848685e+00, 0.00000000e+00, 5.0000000000, 5.0000000000, 0.1363536317
          74, 0.00000000e+00, 0.00000000e+00, 0.00000000e+00, 0.00000000e+00, 0.00000000e+00, 0.00000000e+00, 0.00000000e+00, 0.00000000e+00, 0.00000000e+00, 0.00000000e+00, 0.00000000e+00, 0.00000000e+00, -1.50760254e+00, 1.04038129e+00, 1.16818779e+00, 3.94652308e+00, 0.00000000e+00, 5.0000000000, 5.0000000000, 0.1382998742
          75, 0.00000000e+00, 0.00000000e+00, 0.00000000e+00, 0.00000000e+00, 0.00000000e+00, 0.00000000e+00, 0.00000000e+00, 0.00000000e+00, 0.00000000e+00, 0.00000000e+00, 0.00000000e+00, 0.00000000e+00, -1.49693401e+00, 1.02252036e+00, 1.17266600e+00, 3.96465183e+00, 0.00000000e+00, 5.0000000000, 5.0000000000, 0.1409379472
          76, 0.00000000e+00, 0.00000000e+00, 0.00000000e+00, 0.00000000e+00, 0.00000000e+00, 0.00000000e+00, 0.00000000e+00, 0.00000000e+00, 0.00000000e+00, 0.00000000e+00, 0.00000000e+00, 0.00000000e+00, -1.47718154e+00, 1.00243730e+00, 1.17619647e+00, 3.99058390e+00, 0.00000000e+00, 5.0000000000, 5.0000000000, 0.1428853747
          77, 0.00000000e+00, 0.00000000e+00, 0.00000000e+00, 0.00000000e+00, 0.00000000e+00, 0.00000000e+00, 0.00000000e+00, 0.00000000e+00, 0.00000000e+00, 0.00000000e+00, 0.00000000e+00, 0.00000000e+00, -1.45101925e+00, 9.79645645e-01, 1.17879188e+00, 4.02125890e+00, 0.00000000e+00, 5.0000000000, 5.0000000000, 0.1448657594
          78, 0.00000000e+00, 0.00000000e+00, 0.00000000e+00, 0.00000000e+00, 0.00000000e+00, 0.00000000e+00, 0.00000000e+00, 0.00000000e+00, 0.00000000e+00, 0.00000000e+00, 0.00000000e+00, 0.00000000e+00, -1.42149855e+00, 9.53761235e-01, 1.18049150e+00, 4.05376742e+00, 0.00000000e+00, 5.0000000000, 5.0000000000, 0.1468472634
          79, 0.00000000e+00, 0.00000000e+00, 0.00000000e+00, 0.00000000e+00, 0.00000000e+00, 0.00000000e+00, 0.00000000e+00, 0.00000000e+00, 0.00000000e+00, 0.00000000e+00, 0.00000000e+00, 0.00000000e+00, -1.39128572e+00, 9.24643906e-01, 1.18136258e+00, 4.08583315e+00, 0.00000000e+00, 5.0000000000, 5.0000000000, 0.1486699922
          80, 0.00000000e+00, 0.00000000e+00, 0.00000000e+00, 0.00000000e+00, 0.00000000e+00, 0.00000000e+00, 0.00000000e+00, 0.00000000e+00, 0.00000000e+00, 0.00000000e+00, 0.00000000e+00, 0.00000000e+00, -1.36235905e+00, 8.92627049e-01, 1.18150075e+00, 4.11588762e+00, 0.00000000e+00, 5.0000000000, 5.0000000000, 0.1505718215
          81, 0.00000000e+00, 0.00000000e+00, 0.00000000e+00, 0.00000000e+00, 0.00000000e+00, 0.00000000e+00, 0.00000000e+00, 0.00000000e+00, 0.00000000e+00, 0.00000000e+00, 0.00000000e+00, 0.00000000e+00, -1.33602912e+00, 8.58886918e-01, 1.18102847e+00, 4.14294880e+00, 0.00000000e+00, 5.0000000000, 5.0000000000, 0.1523884854
          82, 0.00000000e+00, 0.00000000e+00, 0.00000000e+00, 0.00000000e+00, 0.00000000e+00, 0.00000000e+00, 0.00000000e+00, 0.00000000e+00, 0.00000000e+00, 0.00000000e+00, 0.00000000e+00, 0.00000000e+00, -1.31308337e+00, 8.25958493e-01, 1.18009218e+00, 4.16646005e+00, 0.00000000e+00, 5.0000000000, 5.0000000000, 0.1542189719
          83, 0.00000000e+00, 0.00000000e+00, 0.00000000e+00, 0.00000000e+00, 0.00000000e+00, 0.00000000e+00, 0.00000000e+00, 0.00000000e+00, 0.00000000e+00, 0.00000000e+00, 0.00000000e+00, 0.00000000e+00, -1.29393735e+00, 7.98170202e-01, 1.17885725e+00, 4.18615601e+00, 0.00000000e+00, 5.0000000000, 5.0000000000, 0.1560422128
          84, 0.00000000e+00, 0.00000000e+00, 0.00000000e+00, 0.00000000e+00, 0.00000000e+00, 0.00000000e+00, 0.00000000e+00, 0.00000000e+00, 0.00000000e+00, 0.00000000e+00, 0.00000000e+00, 0.00000000e+00, -1.27875301e+00, 7.81261381e-01, 1.17750323e+00, 4.20196722e+00, 0.00000000e+00, 5.0000000000, 5.0000000000, 0.1578739485
          85, 0.00000000e+00, 0.00000000e+00, 0.00000000e+00, 0.00000000e+00, 0.00000000e+00, 0.00000000e+00, 0.00000000e+00, 0.00000000e+00, 0.00000000e+00, 0.00000000e+00, 0.00000000e+00, 0.00000000e+00, -1.26751883e+00, 7.80320212e-01, 1.17621399e+00, 4.21395905e+00, 0.00000000e+00, 5.0000000000, 5.0000000000, 0.1597580687
          86, 0.00000000e+00, 0.00000000e+00, 0.00000000e+00, 0.00000000e+00, 0.00000000e+00, 0.00000000e+00, 0.00000000e+00, 0.00000000e+00, 0.00000000e+00, 0.00000000e+00, 0.00000000e+00, 0.00000000e+00, -1.26010202e+00, 7.96726624e-01, 1.17516962e+00, 4.22229266e+00, 0.00000000e+00, 5.0000000000, 5.0000000000, 0.1617656202
          87, 0.00000000e+00, 0.00000000e+00, 0.00000000e+00, 0.00000000e+00, 0.00000000e+00, 0.00000000e+00, 0.00000000e+00, 0.00000000e+00, 0.00000000e+00, 0.00000000e+00, 0.00000000e+00, 0.00000000e+00, -1.25628155e+00, 8.27126711e-01, 1.17453384e+00, 4.22720069e+00, 0.00000000e+00, 5.0000000000, 5.0000000000, 0.1643525916
          88, 0.00000000e+00, 0.00000000e+00, 0.00000000e+00, 0.00000000e+00, 0.00000000e+00, 0.00000000e+00, 0.00000000e+00, 0.00000000e+00, 0.00000000e+00, 0.00000000e+00, 0.00000000e+00, 0.00000000e+00, -1.25577177e+00, 8.65705743e-01, 1.17444281e+00, 4.22896868e+00, 0.00000000e+00, 5.0000000000, 5.0000000000, 0.1664951610
          89, 0.00000000e+00, 0.00000000e+00, 0.00000000e+00, 0.00000000e+00, 0.00000000e+00, 0.00000000e+00, 0.00000000e+00, 0.00000000e+00, 0.00000000e+00, 0.00000000e+00, 0.00000000e+00, 0.00000000e+00, -1.25823983e+00, 9.07063264e-01, 1.17499500e+00, 4.22792073e+00, 0.00000000e+00, 5.0000000000, 5.0000000000, 0.1683215972