VARIABLES = "x"
 "y"
 "Density"
 "Momentum_x"
 "Momentum_y"
 "Energy"
 "Pressure"
 "Temperature"
 "Mach"
 "C<sub>p</sub>"
 "Roe_Dissipation"
ZONE
DT=(DOUBLE,DOUBLE,DOUBLE,DOUBLE,DOUBLE,DOUBLE,DOUBLE,DOUBLE,DOUBLE,DOUBLE,DOUBLE)
                     -2                       0        1.22509002685547        41.6850891113281   -2.01848000119798E-12           254021.796875                  101325        288.123809814453      0.0999941006302834    4.78687506983988E-05                       0 
      -1.99749874937469                       0        1.22509002685547        41.6850891113281   -1.69109908242122E-12           254021.796875                  101325        288.123809814453      0.0999941006302834    4.78687184042828E-05                       0 
      -1.99499749874937                       0        1.22509002685547        41.6850891113281   -1.36371816364444E-12           254021.796875                  101325        288.123809814453      0.0999941006302834    4.78686861101669E-05                       0 
      -1.99249624812406                       0        1.22509002685547        41.6850891113281   -1.03633724486769E-12           254021.796875                  101325        288.123809814453      0.0999941006302834     4.7868653816051E-05                       0 
      -1.98999499749875                       0        1.22509002685547        41.6850891113281    -7.0895632609094E-13           254021.796875                  101325        288.123809814453      0.0999941006302834     4.7868621521935E-05                       0 
      -1.98749374687344                       0        1.22509002685547        41.6850891113281   -3.81575407314187E-13           254021.796875                  101325        288.123809814453      0.0999941006302834    4.78685892278191E-05                       0 
      -1.98499249624812                       0        1.22509002685547        41.6850891113281   -5.41944885374066E-14           254021.796875                  101325        288.123809814453      0.0999941006302834    4.78685569337031E-05                       0 
      -1.98249124562281                       0        1.22509002685547        41.6850891113281    2.73186430239345E-13           254021.796875                  101325        288.123809814453      0.0999941006302834    4.78685246395872E-05                       0 
       -1.9799899949975                       0        1.22509002685547        41.6850891113281    6.00567349016096E-13           254021.796875                  101325        288.123809814453      0.0999941006302834    4.78684923454712E-05                       0 
      -1.97748874437219                       0        1.22509002685547        41.6850891113281    9.27948267792877E-13           254021.796875                  101325        288.123809814453      0.0999941006302834    4.78684600513553E-05                       0 
      -1.97498749374687                       0        1.22509002685547        41.6850891113281    1.25532918656963E-12           254021.796875                  101325        288.123809814453      0.0999941006302834    4.78684277572393E-05                       0 
      -1.97248624312156                       0        1.22509002685547        41.6850891113281    1.58271010534638E-12           254021.796875                  101325        288.123809814453      0.0999941006302834    4.78683954631234E-05                       0 
      -1.96998499249625                       0        1.22509002685547        41.6850891113281    1.91009102412316E-12           254021.796875                  101325        288.123809814453      0.0999941006302834    4.78683631690074E-05                       0 
      -1.96748374187094                       0        1.22509002685547        41.6850891113281    2.23747194289991E-12           254021.796875                  101325        288.123809814453      0.0999941006302834    4.78683308748915E-05                       0 
      -1.96498249124562                       0        1.22509002685547        41.6850891113281    2.56485286167666E-12           254021.796875                  101325        288.123809814453      0.0999941006302834    4.78682985807755E-05                       0 
      -1.96248124062031                       0        1.22509002685547        41.6850891113281    2.89223378045342E-12           254021.796875                  101325        288.123809814453      0.0999941006302834    4.78682662866596E-05                       0 
        -1.959979989995                       0        1.22509002685547        41.6850891113281     3.2196146992302E-12           254021.796875                  101325        288.123809814453      0.0999941006302834    4.78682339925436E-05                       0 
      -1.95747873936968                       0        1.22509002685547        41.6850891113281    3.54699561800695E-12           254021.796875                  101325        288.123809814453      0.0999941006302834    4.78682016984277E-05                       0 
      -1.95497748874437                       0        1.22509002685547        41.6850891113281     3.8743765367837E-12           254021.796875                  101325        288.123809814453      0.0999941006302834    4.78681694043117E-05                       0 
      -1.95247623811906                       0        1.22509002685547        41.6850891113281    4.20175745556048E-12           254021.796875                  101325        288.123809814453      0.0999941006302834    4.78681371101958E-05                       0 
      -1.94997498749375                       0        1.22509002685547        41.6850891113281    4.52913837433723E-12           254021.796875                  101325        288.123809814453      0.0999941006302834    4.78681048160798E-05                       0 
      -1.94747373686843                       0        1.22509002685547        41.6850891113281    4.89654290696683E-12           254021.796875                  101325        288.123809814453      0.0999941006302834    4.78680762290795E-05                       0 
      -1.94497248624312                       0        1.22509002685547        41.6850891113281    5.30438347036033E-12           254021.796875                  101325        288.123809814453      0.0999941006302834    4.78680513873941E-05                       0 
      -1.94247123561781                       0        1.22509002685547        41.6850891113281     5.7122240337538E-12           254021.796875                  101325        288.123809814453      0.0999941006302834    4.78680265457087E-05                       0 
       -1.9399699849925                       0        1.22509002685547        41.6850891113281    6.12006459714727E-12           254021.796875                  101325        288.123809814453      0.0999941006302834    4.78680017040233E-05                       0 
      -1.93746873436718                       0        1.22509002685547        41.6850891113281    6.52790516054074E-12           254021.796875                  101325        288.123809814453      0.0999941006302834    4.78679768623379E-05                       0 
      -1.93496748374187                       0        1.22509002685547        41.6850891113281    6.93574572393425E-12           254021.796875                  101325        288.123809814453      0.0999941006302834    4.78679520206525E-05                       0 
      -1.93246623311656                       0        1.22509002685547        41.6850891113281    7.34358628732772E-12           254021.796875                  101325        288.123809814453      0.0999941006302834    4.78679271789671E-05                       0 
      -1.92996498249125                       0        1.22509002685547        41.6850891113281    7.75142685072119E-12           254021.796875                  101325        288.123809814453      0.0999941006302834    4.78679023372817E-05                       0 
      -1.92746373186593                       0        1.22509002685547        41.6850891113281    8.15926741411469E-12           254021.796875                  101325        288.123809814453      0.0999941006302834    4.78678774955963E-05                       0 
      -1.92496248124062                       0        1.22509002685547        41.6850891113281    8.56710797750817E-12           254021.796875                  101325        288.123809814453      0.0999941006302834    4.78678526539109E-05                       0 
      -1.92246123061531                       0        1.22509002685547        41.6850891113281    8.97494854090163E-12           254021.796875                  101325        288.123809814453      0.0999941006302834    4.78678278122255E-05                       0 
      -1.91995997998999                       0        1.22509002685547        41.6850891113281    9.38278910429514E-12           254021.796875                  101325        288.123809814453      0.0999941006302834    4.78678029705401E-05                       0 
      -1.91745872936468                       0        1.22509002685547        41.6850891113281    9.79062966768861E-12           254021.796875                  101325        288.123809814453      0.0999941006302834    4.78677781288547E-05                       0 
      -1.91495747873937                       0        1.22509002685547        41.6850891113281    1.01984702310821E-11           254021.796875                  101325        288.123809814453      0.0999941006302834    4.78677532871693E-05                       0 
      -1.91245622811406                       0        1.22509002685547        41.6850891113281    1.06063107944756E-11           254021.796875                  101325        288.123809814453      0.0999941006302834    4.78677284454839E-05                       0 
      -1.90995497748874                       0        1.22509002685547        41.6850891113281    1.10141513578691E-11           254021.796875                  101325        288.123809814453      0.0999941006302834    4.78677036037985E-05                       0 
      -1.90745372686343                       0        1.22509002685547        41.6850891113281    1.14219919212625E-11           254021.796875                  101325        288.123809814453      0.0999941006302834    4.78676787621131E-05                       0 
      -1.90495247623812                       0        1.22509002685547        41.6850891113281     1.1829832484656E-11           254021.796875                  101325        288.123809814453      0.0999941006302834    4.78676539204277E-05                       0 
      -1.90245122561281                       0        1.22509002685547        41.6850891113281    1.22376730480495E-11           254021.796875                  101325        288.123809814453      0.0999941006302834    4.78676290787423E-05                       0 
      -1.89994997498749                       0        1.22509002685547        41.6850891113281     1.2645513611443E-11           254021.796875                  101325        288.123809814453      0.0999941006302834    4.78676042370569E-05                       0 
      -1.89744872436218                       0        1.22509002685547        41.6850891113281    1.30533541748364E-11           254021.796875                  101325        288.123809814453      0.0999941006302834    4.78675793953715E-05                       0 
      -1.89494747373687                       0        1.22509002685547        41.6850891113281    1.34577955839673E-11           254021.796875                  101325        288.123809814453      0.0999941006302834    4.78675517291173E-05                       0 
      -1.89244622311156                       0        1.22509002685547        41.6850891113281    1.38622196437472E-11           254021.796875                  101325        288.123809814453      0.0999941006302834    4.78675240484465E-05                       0 
      -1.88994497248624                       0        1.22509002685547        41.6850891113281    1.42666437035271E-11           254021.796875                  101325        288.123809814453      0.0999941006302834    4.78674963677757E-05                       0 
      -1.88744372186093                       0        1.22509002685547        41.6850891113281     1.4671067763307E-11           254021.796875                  101325        288.123809814453      0.0999941006302834    4.78674686871049E-05                       0 
      -1.88494247123562                       0        1.22509002685547        41.6850891113281     1.5075491823087E-11           254021.796875                  101325        288.123809814453      0.0999941006302834    4.78674410064341E-05                       0 
      -1.88244122061031                       0        1.22509002685547        41.6850891113281    1.54799158828669E-11           254021.796875                  101325        288.123809814453      0.0999941006302834    4.78674133257633E-05                       0 
      -1.87993996998499                       0        1.22509002685547        41.6850891113281    1.58843399426468E-11           254021.796875                  101325        288.123809814453      0.0999941006302834    4.78673856450925E-05                       0 
      -1.87743871935968                       0        1.22509002685547        41.6850891113281    1.62887640024267E-11           254021.796875                  101325        288.123809814453      0.0999941006302834    4.78673579644217E-05                       0 
      -1.87493746873437                       0        1.22509002685547        41.6850891113281    1.66931880622066E-11           254021.796875                  101325        288.123809814453      0.0999941006302834    4.78673302837509E-05                       0 
      -1.87243621810905                       0        1.22509002685547        41.6850891113281    1.70976121219865E-11           254021.796875                  101325        288.123809814453      0.0999941006302834      4.786730260308E-05                       0 
      -1.86993496748374                       0        1.22509002685547        41.6850891113281    1.75020361817664E-11           254021.796875                  101325        288.123809814453      0.0999941006302834    4.78672749224092E-05                       0 
      -1.86743371685843                       0        1.22509002685547        41.6850891113281    1.79064602415463E-11           254021.796875                  101325        288.123809814453      0.0999941006302834    4.78672472417384E-05                       0 
      -1.86493246623312                       0        1.22509002685547        41.6850891113281    1.83108843013262E-11           254021.796875                  101325        288.123809814453      0.0999941006302834    4.78672195610676E-05                       0 
       -1.8624312156078                       0        1.22509002685547        41.6850891113281    1.87153083611061E-11           254021.796875                  101325        288.123809814453      0.0999941006302834    4.78671918803968E-05                       0 
      -1.85992996498249                       0        1.22509002685547        41.6850891113281    1.91197324208861E-11           254021.796875                  101325        288.123809814453      0.0999941006302834     4.7867164199726E-05                       0 
      -1.85742871435718                       0        1.22509002685547        41.6850891113281     1.9524156480666E-11           254021.796875                  101325        288.123809814453      0.0999941006302834    4.78671365190552E-05                       0 
      -1.85492746373187                       0        1.22509002685547        41.6850891113281    1.99285805404459E-11           254021.796875                  101325        288.123809814453      0.0999941006302834    4.78671088383843E-05                       0 
      -1.85242621310655                       0        1.22509002685547        41.6850891113281    2.03330046002258E-11           254021.796875                  101325        288.123809814453      0.0999941006302834    4.78670811577135E-05                       0 
      -1.84992496248124                       0        1.22509002685547        41.6850891113281    2.07374286600057E-11           254021.796875                  101325        288.123809814453      0.0999941006302834    4.78670534770427E-05                       0 
      -1.84742371185593                       0        1.22509002685547        41.6850891113281    2.11418527197856E-11           254021.796875                  101325        288.123809814453      0.0999941006302834    4.78670257963719E-05                       0 
      -1.84492246123062                       0        1.22509002685547        41.6850891113281    2.14843230552773E-11           254021.796875                  101325        288.123809814453      0.0999941006302834    4.78669989893143E-05                       0 
       -1.8424212106053                       0        1.22509002685547        41.6850891113281     2.1762916731166E-11           254021.796875                  101325        288.123809814453      0.0999941006302834    4.78669730829852E-05                       0 
      -1.83991995997999                       0        1.22509002685547        41.6850891113281    2.20415104070547E-11           254021.796875                  101325        288.123809814453      0.0999941006302834    4.78669471766562E-05                       0 
      -1.83741870935468                       0        1.22509002685547        41.6850891113281    2.23201040829434E-11           254021.796875                  101325        288.123809814453      0.0999941006302834    4.78669212703271E-05                       0 
      -1.83491745872936                       0        1.22509002685547        41.6850891113281    2.25986977588321E-11           254021.796875                  101325        288.123809814453      0.0999941006302834     4.7866895363998E-05                       0 
      -1.83241620810405                       0        1.22509002685547        41.6850891113281    2.28772914347208E-11           254021.796875                  101325        288.123809814453      0.0999941006302834     4.7866869457669E-05                       0 
      -1.82991495747874                       0        1.22509002685547        41.6850891113281    2.31558851106095E-11           254021.796875                  101325        288.123809814453      0.0999941006302834    4.78668435513399E-05                       0 
      -1.82741370685343                       0        1.22509002685547        41.6850891113281    2.34344787864983E-11           254021.796875                  101325        288.123809814453      0.0999941006302834    4.78668176450109E-05                       0 
      -1.82491245622811                       0        1.22509002685547        41.6850891113281    2.37130724623869E-11           254021.796875                  101325        288.123809814453      0.0999941006302834    4.78667917386818E-05                       0 
       -1.8224112056028                       0        1.22509002685547        41.6850891113281    2.39916661382757E-11           254021.796875                  101325        288.123809814453      0.0999941006302834    4.78667658323527E-05                       0 
      -1.81990995497749                       0        1.22509002685547        41.6850891113281    2.42702598141644E-11           254021.796875                  101325        288.123809814453      0.0999941006302834    4.78667399260237E-05                       0 
      -1.81740870435218                       0        1.22509002685547        41.6850891113281    2.45488534900531E-11           254021.796875                  101325        288.123809814453      0.0999941006302834    4.78667140196946E-05                       0 
      -1.81490745372686                       0        1.22509002685547        41.6850891113281    2.48274471659418E-11           254021.796875                  101325        288.123809814453      0.0999941006302834    4.78666881133656E-05                       0 
      -1.81240620310155                       0        1.22509002685547        41.6850891113281    2.51060408418305E-11           254021.796875                  101325        288.123809814453      0.0999941006302834    4.78666622070365E-05                       0 
      -1.80990495247624                       0        1.22509002685547        41.6850891113281    2.53846345177192E-11           254021.796875                  101325        288.123809814453      0.0999941006302834    4.78666363007074E-05                       0 
      -1.80740370185093                       0        1.22509002685547        41.6850891113281    2.56632281936079E-11           254021.796875                  101325        288.123809814453      0.0999941006302834    4.78666103943784E-05                       0 
      -1.80490245122561                       0        1.22509002685547        41.6850891113281    2.59418218694966E-11           254021.796875                  101325        288.123809814453      0.0999941006302834    4.78665844880493E-05                       0 
       -1.8024012006003                       0        1.22509002685547        41.6850891113281    2.62204155453853E-11           254021.796875                  101325        288.123809814453      0.0999941006302834    4.78665585817203E-05                       0 
      -1.79989994997499                       0        1.22509002685547        41.6850891113281     2.6499009221274E-11           254021.796875                  101325        288.123809814453      0.0999941006302834    4.78665326753912E-05                       0 
      -1.79739869934967                       0        1.22509002685547        41.6850891113281    2.67776028971627E-11           254021.796875                  101325        288.123809814453      0.0999941006302834    4.78665067690622E-05                       0 
      -1.79489744872436                       0        1.22509002685547        41.6850891113281    2.70561965730514E-11           254021.796875                  101325        288.123809814453      0.0999941006302834    4.78664808627331E-05                       0 
      -1.79239619809905                       0        1.22509002685547        41.6850891113281    2.70941605185195E-11           254021.796875                  101325        288.123809814453      0.0999941006302834    4.78664544295494E-05                       0 
      -1.78989494747374                       0        1.22509002685547        41.6850891113281    2.71296555045101E-11           254021.796875                  101325        288.123809814453      0.0999941006302834      4.786642799096E-05                       0 
      -1.78739369684842                       0        1.22509002685547        41.6850891113281    2.71651504905007E-11           254021.796875                  101325        288.123809814453      0.0999941006302834    4.78664015523705E-05                       0 
      -1.78489244622311                       0        1.22509002685547        41.6850891113281    2.72006454764913E-11           254021.796875                  101325        288.123809814453      0.0999941006302834    4.78663751137811E-05                       0 
       -1.7823911955978                       0        1.22509002685547        41.6850891113281    2.72361404624819E-11           254021.796875                  101325        288.123809814453      0.0999941006302834    4.78663486751917E-05                       0 
      -1.77988994497249                       0        1.22509002685547        41.6850891113281    2.72716354484726E-11           254021.796875                  101325        288.123809814453      0.0999941006302834    4.78663222366023E-05                       0 
      -1.77738869434717                       0        1.22509002685547        41.6850891113281    2.73071304344632E-11           254021.796875                  101325        288.123809814453      0.0999941006302834    4.78662957980128E-05                       0 
      -1.77488744372186                       0        1.22509002685547        41.6850891113281    2.73426254204538E-11           254021.796875                  101325        288.123809814453      0.0999941006302834    4.78662693594234E-05                       0 
      -1.77238619309655                       0        1.22509002685547        41.6850891113281    2.73781204064444E-11           254021.796875                  101325        288.123809814453      0.0999941006302834     4.7866242920834E-05                       0 
      -1.76988494247124                       0        1.22509002685547        41.6850891113281     2.7413615392435E-11           254021.796875                  101325        288.123809814453      0.0999941006302834    4.78662164822445E-05                       0 
      -1.76738369184592                       0        1.22509002685547        41.6850891113281    2.74491103784257E-11           254021.796875                  101325        288.123809814453      0.0999941006302834    4.78661900436551E-05                       0 
      -1.76488244122061                       0        1.22509002685547        41.6850891113281    2.74846053644163E-11           254021.796875                  101325        288.123809814453      0.0999941006302834    4.78661636050657E-05                       0 
       -1.7623811905953                       0        1.22509002685547        41.6850891113281    2.75201003504069E-11           254021.796875                  101325        288.123809814453      0.0999941006302834    4.78661371664762E-05                       0 
      -1.75987993996998                       0        1.22509002685547        41.6850891113281    2.75555953363975E-11           254021.796875                  101325        288.123809814453      0.0999941006302834    4.78661107278868E-05                       0 
      -1.75737868934467                       0        1.22509002685547        41.6850891113281    2.75910903223881E-11           254021.796875                  101325        288.123809814453      0.0999941006302834    4.78660842892974E-05                       0 
      -1.75487743871936                       0        1.22509002685547        41.6850891113281    2.76265853083788E-11           254021.796875                  101325        288.123809814453      0.0999941006302834     4.7866057850708E-05                       0 
      -1.75237618809405                       0        1.22509002685547        41.6850891113281    2.76620802943694E-11           254021.796875                  101325        288.123809814453      0.0999941006302834    4.78660314121185E-05                       0 
      -1.74987493746873                       0        1.22509002685547        41.6850891113281      2.769757528036E-11           254021.796875                  101325        288.123809814453      0.0999941006302834    4.78660049735291E-05                       0 
      -1.74737368684342                       0        1.22509002685547        41.6850891113281    2.77330702663506E-11           254021.796875                  101325        288.123809814453      0.0999941006302834    4.78659785349397E-05                       0 
      -1.74487243621811                       0        1.22509002685547        41.6850891113281    2.77685652523412E-11           254021.796875                  101325        288.123809814453      0.0999941006302834    4.78659520963502E-05                       0 
       -1.7423711855928                       0        1.22509002685547        41.6850891113281    2.76721551197922E-11           254021.796875                  101325        288.123809814453      0.0999941006302834    4.78659261765401E-05                       0 
      -1.73986993496748                       0        1.22509002685547        41.6850891113281    2.74369538525696E-11           254021.796875                  101325        288.123809814453      0.0999941006302834    4.78659008025919E-05                       0 
      -1.73736868434217                       0        1.22509002685547        41.6850891113281    2.72017525853469E-11           254021.796875                  101325        288.123809814453      0.0999941006302834    4.78658754286437E-05                       0 
      -1.73486743371686                       0        1.22509002685547        41.6850891113281    2.69665513181243E-11           254021.796875                  101325        288.123809814453      0.0999941006302834    4.78658500546954E-05                       0 
      -1.73236618309155                       0        1.22509002685547        41.6850891113281    2.67313500509017E-11           254021.796875                  101325        288.123809814453      0.0999941006302834    4.78658246807472E-05                       0 
      -1.72986493246623                       0        1.22509002685547        41.6850891113281     2.6496148783679E-11           254021.796875                  101325        288.123809814453      0.0999941006302834    4.78657993067989E-05                       0 
      -1.72736368184092                       0        1.22509002685547        41.6850891113281    2.62609475164564E-11           254021.796875                  101325        288.123809814453      0.0999941006302834    4.78657739328507E-05                       0 
      -1.72486243121561                       0        1.22509002685547        41.6850891113281    2.60257462492337E-11           254021.796875                  101325        288.123809814453      0.0999941006302834    4.78657485589024E-05                       0 
       -1.7223611805903                       0        1.22509002685547        41.6850891113281    2.57905449820111E-11           254021.796875                  101325        288.123809814453      0.0999941006302834    4.78657231849542E-05                       0 