VARIABLES = "x"
 "y"
 "Density"
 "Momentum_x"
 "Momentum_y"
 "Energy"
 "Pressure"
 "Temperature"
 "Mach"
 "C<sub>p</sub>"
 "Roe_Dissipation"
ZONE
DT=(DOUBLE,DOUBLE,DOUBLE,DOUBLE,DOUBLE,DOUBLE,DOUBLE,DOUBLE,DOUBLE,DOUBLE,DOUBLE)
                     -2                       0        1.22498500347137        42.0371704101562   -8.61293089800264E-12                254003.5          101312.8984375        288.113891601562       0.100849002599716       -0.01708740927279                       0 
      -1.99749874937469                       0        1.22498500347137        42.0371704101562    9.27977876813311E-12                254003.5          101312.8984375        288.113891601562       0.100849002599716     -0.0170874098178862                       0 
      -1.99499749874937                       0        1.22498500347137        42.0371704101562    2.71724884342704E-11                254003.5          101312.8984375        288.113891601562       0.100849002599716     -0.0170874103629825                       0 
      -1.99249624812406                       0        1.22498500347137        42.0371704101562    4.50651981004062E-11                254003.5          101312.8984375        288.113891601562       0.100849002599716     -0.0170874109080788                       0 
      -1.98999499749875                       0        1.22498500347137        42.0371704101562    6.29579077665419E-11                254003.5          101312.8984375        288.113891601562       0.100849002599716     -0.0170874114531751                       0 
      -1.98749374687344                       0        1.22498500347137        42.0371704101562    8.08506174326777E-11                254003.5          101312.8984375        288.113891601562       0.100849002599716     -0.0170874119982714                       0 
      -1.98499249624812                       0        1.22498500347137        42.0371704101562     9.8743327098815E-11                254003.5          101312.8984375        288.113891601562       0.100849002599716     -0.0170874125433677                       0 
      -1.98249124562281                       0        1.22498500347137        42.0371704101562    1.16636036764951E-10                254003.5          101312.8984375        288.113891601562       0.100849002599716      -0.017087413088464                       0 
       -1.9799899949975                       0        1.22498500347137        42.0371704101562    1.34528746431086E-10                254003.5          101312.8984375        288.113891601562       0.100849002599716     -0.0170874136335602                       0 
      -1.97748874437219                       0        1.22498500347137        42.0371704101562    1.52421456097224E-10                254003.5          101312.8984375        288.113891601562       0.100849002599716     -0.0170874141786565                       0 
      -1.97498749374687                       0        1.22498500347137        42.0371704101562     1.7031416576336E-10                254003.5          101312.8984375        288.113891601562       0.100849002599716     -0.0170874147237528                       0 
      -1.97248624312156                       0        1.22498500347137        42.0371704101562    1.88206875429495E-10                254003.5          101312.8984375        288.113891601562       0.100849002599716     -0.0170874152688491                       0 
      -1.96998499249625                       0        1.22498500347137        42.0371704101562    2.06099585095633E-10                254003.5          101312.8984375        288.113891601562       0.100849002599716     -0.0170874158139454                       0 
      -1.96748374187094                       0        1.22498500347137        42.0371704101562    2.23992294761768E-10                254003.5          101312.8984375        288.113891601562       0.100849002599716     -0.0170874163590417                       0 
      -1.96498249124562                       0        1.22498500347137        42.0371704101562    2.41885004427904E-10                254003.5          101312.8984375        288.113891601562       0.100849002599716      -0.017087416904138                       0 
      -1.96248124062031                       0        1.22498500347137        42.0371704101562     2.5977771409404E-10                254003.5          101312.8984375        288.113891601562       0.100849002599716     -0.0170874174492343                       0 
        -1.959979989995                       0        1.22498500347137        42.0371704101562    2.77670423760177E-10                254003.5          101312.8984375        288.113891601562       0.100849002599716     -0.0170874179943305                       0 
      -1.95747873936968                       0        1.22498500347137        42.0371704101562    2.95563133426313E-10                254003.5          101312.8984375        288.113891601562       0.100849002599716     -0.0170874185394268                       0 
      -1.95497748874437                       0        1.22498500347137        42.0371704101562    3.13455843092449E-10                254003.5          101312.8984375        288.113891601562       0.100849002599716     -0.0170874190845231                       0 
      -1.95247623811906                       0        1.22498500347137        42.0371704101562    3.31348552758586E-10                254003.5          101312.8984375        288.113891601562       0.100849002599716     -0.0170874196296194                       0 
      -1.94997498749375                       0        1.22498500347137        42.0371704101562    3.49241262424722E-10                254003.5          101312.8984375        288.113891601562       0.100849002599716     -0.0170874201747157                       0 
      -1.94747373686843                       0        1.22498500347137        42.0371704101562    3.67206780120591E-10                254003.5          101312.8984375        288.113891601562       0.100849002599716     -0.0170874204486609                       0 
      -1.94497248624312                       0        1.22498500347137        42.0371704101562    3.85245856084861E-10                254003.5          101312.8984375        288.113891601562       0.100849002599716     -0.0170874204486609                       0 
      -1.94247123561781                       0        1.22498500347137        42.0371704101562     4.0328493204913E-10                254003.5          101312.8984375        288.113891601562       0.100849002599716     -0.0170874204486609                       0 
       -1.9399699849925                       0        1.22498500347137        42.0371704101562      4.213240080134E-10                254003.5          101312.8984375        288.113891601562       0.100849002599716     -0.0170874204486609                       0 
      -1.93746873436718                       0        1.22498500347137        42.0371704101562    4.39363083977669E-10                254003.5          101312.8984375        288.113891601562       0.100849002599716     -0.0170874204486609                       0 
      -1.93496748374187                       0        1.22498500347137        42.0371704101562    4.57402159941939E-10                254003.5          101312.8984375        288.113891601562       0.100849002599716     -0.0170874204486609                       0 
      -1.93246623311656                       0        1.22498500347137        42.0371704101562    4.75441235906209E-10                254003.5          101312.8984375        288.113891601562       0.100849002599716     -0.0170874204486609                       0 
      -1.92996498249125                       0        1.22498500347137        42.0371704101562    4.93480311870478E-10                254003.5          101312.8984375        288.113891601562       0.100849002599716     -0.0170874204486609                       0 
      -1.92746373186593                       0        1.22498500347137        42.0371704101562    5.11519387834749E-10                254003.5          101312.8984375        288.113891601562       0.100849002599716     -0.0170874204486609                       0 
      -1.92496248124062                       0        1.22498500347137        42.0371704101562    5.29558463799018E-10                254003.5          101312.8984375        288.113891601562       0.100849002599716     -0.0170874204486609                       0 
      -1.92246123061531                       0        1.22498500347137        42.0371704101562    5.47597539763287E-10                254003.5          101312.8984375        288.113891601562       0.100849002599716     -0.0170874204486609                       0 
      -1.91995997998999                       0        1.22498500347137        42.0371704101562    5.65636615727558E-10                254003.5          101312.8984375        288.113891601562       0.100849002599716     -0.0170874204486609                       0 
      -1.91745872936468                       0        1.22498500347137        42.0371704101562    5.83675691691827E-10                254003.5          101312.8984375        288.113891601562       0.100849002599716     -0.0170874204486609                       0 
      -1.91495747873937                       0        1.22498500347137        42.0371704101562    6.01714767656096E-10                254003.5          101312.8984375        288.113891601562       0.100849002599716     -0.0170874204486609                       0 
      -1.91245622811406                       0        1.22498500347137        42.0371704101562    6.19753843620365E-10                254003.5          101312.8984375        288.113891601562       0.100849002599716     -0.0170874204486609                       0 
      -1.90995497748874                       0        1.22498500347137        42.0371704101562    6.37792919584636E-10                254003.5          101312.8984375        288.113891601562       0.100849002599716     -0.0170874204486609                       0 
      -1.90745372686343                       0        1.22498500347137        42.0371704101562    6.55831995548905E-10                254003.5          101312.8984375        288.113891601562       0.100849002599716     -0.0170874204486609                       0 
      -1.90495247623812                       0        1.22498500347137        42.0371704101562    6.73871071513174E-10                254003.5          101312.8984375        288.113891601562       0.100849002599716     -0.0170874204486609                       0 
      -1.90245122561281                       0        1.22498500347137        42.0371704101562    6.91910147477445E-10                254003.5          101312.8984375        288.113891601562       0.100849002599716     -0.0170874204486609                       0 
      -1.89994997498749                       0        1.22498500347137        42.0371704101562    7.09949223441714E-10                254003.5          101312.8984375        288.113891601562       0.100849002599716     -0.0170874204486609                       0 
      -1.89744872436218                       0        1.22498500347137        42.0371704101562    7.27988299405983E-10                254003.5          101312.8984375        288.113891601562       0.100849002599716     -0.0170874204486609                       0 
      -1.89494747373687                       0        1.22498500347137        42.0371704101562     7.4573467443951E-10                254003.5          101312.8984375        288.113891601562       0.100849002599716      -0.017087420900601                       0 
      -1.89244622311156                       0        1.22498500347137        42.0371704101562    7.63479555521665E-10                254003.5          101312.8984375        288.113891601562       0.100849002599716      -0.017087421354848                       0 
      -1.88994497248624                       0        1.22498500347137        42.0371704101562    7.81224436603819E-10                254003.5          101312.8984375        288.113891601562       0.100849002599716     -0.0170874218090949                       0 
      -1.88744372186093                       0        1.22498500347137        42.0371704101562    7.98969317685973E-10                254003.5          101312.8984375        288.113891601562       0.100849002599716     -0.0170874222633418                       0 
      -1.88494247123562                       0        1.22498500347137        42.0371704101562    8.16714198768129E-10                254003.5          101312.8984375        288.113891601562       0.100849002599716     -0.0170874227175887                       0 
      -1.88244122061031                       0        1.22498500347137        42.0371704101562    8.34459079850283E-10                254003.5          101312.8984375        288.113891601562       0.100849002599716     -0.0170874231718356                       0 
      -1.87993996998499                       0        1.22498500347137        42.0371704101562    8.52203960932438E-10                254003.5          101312.8984375        288.113891601562       0.100849002599716     -0.0170874236260825                       0 
      -1.87743871935968                       0        1.22498500347137        42.0371704101562    8.69948842014593E-10                254003.5          101312.8984375        288.113891601562       0.100849002599716     -0.0170874240803294                       0 
      -1.87493746873437                       0        1.22498500347137        42.0371704101562    8.87693723096748E-10                254003.5          101312.8984375        288.113891601562       0.100849002599716     -0.0170874245345763                       0 
      -1.87243621810905                       0        1.22498500347137        42.0371704101562    9.05438604178902E-10                254003.5          101312.8984375        288.113891601562       0.100849002599716     -0.0170874249888232                       0 
      -1.86993496748374                       0        1.22498500347137        42.0371704101562    9.23183485261058E-10                254003.5          101312.8984375        288.113891601562       0.100849002599716     -0.0170874254430701                       0 
      -1.86743371685843                       0        1.22498500347137        42.0371704101562    9.40928366343212E-10                254003.5          101312.8984375        288.113891601562       0.100849002599716      -0.017087425897317                       0 
      -1.86493246623312                       0        1.22498500347137        42.0371704101562    9.58673247425366E-10                254003.5          101312.8984375        288.113891601562       0.100849002599716     -0.0170874263515639                       0 
       -1.8624312156078                       0        1.22498500347137        42.0371704101562     9.7641812850752E-10                254003.5          101312.8984375        288.113891601562       0.100849002599716     -0.0170874268058108                       0 
      -1.85992996498249                       0        1.22498500347137        42.0371704101562    9.94163009589676E-10                254003.5          101312.8984375        288.113891601562       0.100849002599716     -0.0170874272600577                       0 
      -1.85742871435718                       0        1.22498500347137        42.0371704101562    1.01190789067183E-09                254003.5          101312.8984375        288.113891601562       0.100849002599716     -0.0170874277143046                       0 
      -1.85492746373187                       0        1.22498500347137        42.0371704101562    1.02965277175398E-09                254003.5          101312.8984375        288.113891601562       0.100849002599716     -0.0170874281685515                       0 
      -1.85242621310655                       0        1.22498500347137        42.0371704101562    1.04739765283614E-09                254003.5          101312.8984375        288.113891601562       0.100849002599716     -0.0170874286227984                       0 
      -1.84992496248124                       0        1.22498500347137        42.0371704101562    1.06514253391829E-09                254003.5          101312.8984375        288.113891601562       0.100849002599716     -0.0170874290770453                       0 
      -1.84742371185593                       0        1.22498500347137        42.0371704101562    1.08288741500045E-09                254003.5          101312.8984375        288.113891601562       0.100849002599716     -0.0170874295312922                       0 
      -1.84492246123062                       0        1.22498500347137        42.0371704101562    1.10061237078048E-09                254003.5          101312.8984375        288.113891601562       0.100849002599716     -0.0170874297618866                       0 
       -1.8424212106053                       0        1.22498500347137        42.0371704101562    1.11831678281183E-09                254003.5          101312.8984375        288.113891601562       0.100849002599716     -0.0170874297618866                       0 
      -1.83991995997999                       0        1.22498500347137        42.0371704101562    1.13602119484318E-09                254003.5          101312.8984375        288.113891601562       0.100849002599716     -0.0170874297618866                       0 
      -1.83741870935468                       0        1.22498500347137        42.0371704101562    1.15372560687453E-09                254003.5          101312.8984375        288.113891601562       0.100849002599716     -0.0170874297618866                       0 
      -1.83491745872936                       0        1.22498500347137        42.0371704101562    1.17143001890588E-09                254003.5          101312.8984375        288.113891601562       0.100849002599716     -0.0170874297618866                       0 
      -1.83241620810405                       0        1.22498500347137        42.0371704101562    1.18913443093723E-09                254003.5          101312.8984375        288.113891601562       0.100849002599716     -0.0170874297618866                       0 
      -1.82991495747874                       0        1.22498500347137        42.0371704101562    1.20683884296857E-09                254003.5          101312.8984375        288.113891601562       0.100849002599716     -0.0170874297618866                       0 
      -1.82741370685343                       0        1.22498500347137        42.0371704101562    1.22454325499992E-09                254003.5          101312.8984375        288.113891601562       0.100849002599716     -0.0170874297618866                       0 
      -1.82491245622811                       0        1.22498500347137        42.0371704101562    1.24224766703127E-09                254003.5          101312.8984375        288.113891601562       0.100849002599716     -0.0170874297618866                       0 
       -1.8224112056028                       0        1.22498500347137        42.0371704101562    1.25995207906262E-09                254003.5          101312.8984375        288.113891601562       0.100849002599716     -0.0170874297618866                       0 
      -1.81990995497749                       0        1.22498500347137        42.0371704101562    1.27765649109397E-09                254003.5          101312.8984375        288.113891601562       0.100849002599716     -0.0170874297618866                       0 
      -1.81740870435218                       0        1.22498500347137        42.0371704101562    1.29536090312532E-09                254003.5          101312.8984375        288.113891601562       0.100849002599716     -0.0170874297618866                       0 
      -1.81490745372686                       0        1.22498500347137        42.0371704101562    1.31306531515667E-09                254003.5          101312.8984375        288.113891601562       0.100849002599716     -0.0170874297618866                       0 
      -1.81240620310155                       0        1.22498500347137        42.0371704101562    1.33076972718802E-09                254003.5          101312.8984375        288.113891601562       0.100849002599716     -0.0170874297618866                       0 
      -1.80990495247624                       0        1.22498500347137        42.0371704101562    1.34847413921937E-09                254003.5          101312.8984375        288.113891601562       0.100849002599716     -0.0170874297618866                       0 
      -1.80740370185093                       0        1.22498500347137        42.0371704101562    1.36617855125072E-09                254003.5          101312.8984375        288.113891601562       0.100849002599716     -0.0170874297618866                       0 
      -1.80490245122561                       0        1.22498500347137        42.0371704101562    1.38388296328207E-09                254003.5          101312.8984375        288.113891601562       0.100849002599716     -0.0170874297618866                       0 
       -1.8024012006003                       0        1.22498500347137        42.0371704101562    1.40158737531342E-09                254003.5          101312.8984375        288.113891601562       0.100849002599716     -0.0170874297618866                       0 
      -1.79989994997499                       0        1.22498500347137        42.0371704101562    1.41929178734477E-09                254003.5          101312.8984375        288.113891601562       0.100849002599716     -0.0170874297618866                       0 
      -1.79739869934967                       0        1.22498500347137        42.0371704101562    1.43699619937612E-09                254003.5          101312.8984375        288.113891601562       0.100849002599716     -0.0170874297618866                       0 
      -1.79489744872436                       0        1.22498500347137        42.0371704101562    1.45470061140747E-09                254003.5          101312.8984375        288.113891601562       0.100849002599716     -0.0170874297618866                       0 
      -1.79239619809905                       0        1.22498500347137        42.0371704101562    1.47265125466596E-09                254003.5          101312.8984375        288.113891601562       0.100849002599716     -0.0170874297618866                       0 
      -1.78989494747374                       0        1.22498500347137        42.0371704101562    1.49060442435758E-09                254003.5          101312.8984375        288.113891601562       0.100849002599716     -0.0170874297618866                       0 
      -1.78739369684842                       0        1.22498500347137        42.0371704101562     1.5085575940492E-09                254003.5          101312.8984375        288.113891601562       0.100849002599716     -0.0170874297618866                       0 
      -1.78489244622311                       0        1.22498500347137        42.0371704101562    1.52651076374082E-09                254003.5          101312.8984375        288.113891601562       0.100849002599716     -0.0170874297618866                       0 
       -1.7823911955978                       0        1.22498500347137        42.0371704101562    1.54446393343243E-09                254003.5          101312.8984375        288.113891601562       0.100849002599716     -0.0170874297618866                       0 
      -1.77988994497249                       0        1.22498500347137        42.0371704101562    1.56241710312405E-09                254003.5          101312.8984375        288.113891601562       0.100849002599716     -0.0170874297618866                       0 
      -1.77738869434717                       0        1.22498500347137        42.0371704101562    1.58037027281567E-09                254003.5          101312.8984375        288.113891601562       0.100849002599716     -0.0170874297618866                       0 
      -1.77488744372186                       0        1.22498500347137        42.0371704101562    1.59832344250729E-09                254003.5          101312.8984375        288.113891601562       0.100849002599716     -0.0170874297618866                       0 
      -1.77238619309655                       0        1.22498500347137        42.0371704101562    1.61627661219891E-09                254003.5          101312.8984375        288.113891601562       0.100849002599716     -0.0170874297618866                       0 
      -1.76988494247124                       0        1.22498500347137        42.0371704101562    1.63422978189052E-09                254003.5          101312.8984375        288.113891601562       0.100849002599716     -0.0170874297618866                       0 
      -1.76738369184592                       0        1.22498500347137        42.0371704101562    1.65218295158214E-09                254003.5          101312.8984375        288.113891601562       0.100849002599716     -0.0170874297618866                       0 
      -1.76488244122061                       0        1.22498500347137        42.0371704101562    1.67013612127376E-09                254003.5          101312.8984375        288.113891601562       0.100849002599716     -0.0170874297618866                       0 
       -1.7623811905953                       0        1.22498500347137        42.0371704101562    1.68808929096538E-09                254003.5          101312.8984375        288.113891601562       0.100849002599716     -0.0170874297618866                       0 
      -1.75987993996998                       0        1.22498500347137        42.0371704101562      1.706042460657E-09                254003.5          101312.8984375        288.113891601562       0.100849002599716     -0.0170874297618866                       0 
      -1.75737868934467                       0        1.22498500347137        42.0371704101562    1.72399563034861E-09                254003.5          101312.8984375        288.113891601562       0.100849002599716     -0.0170874297618866                       0 
      -1.75487743871936                       0        1.22498500347137        42.0371704101562    1.74194880004023E-09                254003.5          101312.8984375        288.113891601562       0.100849002599716     -0.0170874297618866                       0 
      -1.75237618809405                       0        1.22498500347137        42.0371704101562    1.75990196973185E-09                254003.5          101312.8984375        288.113891601562       0.100849002599716     -0.0170874297618866                       0 
      -1.74987493746873                       0        1.22498500347137        42.0371704101562    1.77785513942347E-09                254003.5          101312.8984375        288.113891601562       0.100849002599716     -0.0170874297618866                       0 
      -1.74737368684342                       0        1.22498500347137        42.0371704101562    1.79580830911508E-09                254003.5          101312.8984375        288.113891601562       0.100849002599716     -0.0170874297618866                       0 
      -1.74487243621811                       0        1.22498500347137        42.0371704101562     1.8137614788067E-09                254003.5          101312.8984375        288.113891601562       0.100849002599716     -0.0170874297618866                       0 
       -1.7423711855928                       0        1.22498500347137        42.0371704101562    1.83201946100834E-09                254003.5          101312.8984375        288.113891601562       0.100849002599716     -0.0170874299832324                       0 
      -1.73986993496748                       0        1.22498500347137        42.0371704101562    1.85059816824777E-09                254003.5          101312.8984375        288.113891601562       0.100849002599716     -0.0170874304374794                       0 
      -1.73736868434217                       0        1.22498500347137        42.0371704101562     1.8691768754872E-09                254003.5          101312.8984375        288.113891601562       0.100849002599716     -0.0170874308917263                       0 
      -1.73486743371686                       0        1.22498500347137        42.0371704101562    1.88775558272663E-09                254003.5          101312.8984375        288.113891601562       0.100849002599716     -0.0170874313459732                       0 
      -1.73236618309155                       0        1.22498500347137        42.0371704101562    1.90633428996606E-09                254003.5          101312.8984375        288.113891601562       0.100849002599716     -0.0170874318002201                       0 
      -1.72986493246623                       0        1.22498500347137        42.0371704101562    1.92491299720549E-09                254003.5          101312.8984375        288.113891601562       0.100849002599716      -0.017087432254467                       0 
      -1.72736368184092                       0        1.22498500347137        42.0371704101562    1.94349170444491E-09                254003.5          101312.8984375        288.113891601562       0.100849002599716     -0.0170874327087139                       0 
      -1.72486243121561                       0        1.22498500347137        42.0371704101562    1.96207041168434E-09                254003.5          101312.8984375        288.113891601562       0.100849002599716     -0.0170874331629608                       0 
       -1.7223611805903                       0        1.22498500347137        42.0371704101562    1.98064911892377E-09                254003.5          101312.8984375        288.113891601562       0.100849002599716     -0.0170874336172077                       0 