VARIABLES = "x"
 "y"
 "Density"
 "Momentum_x"
 "Momentum_y"
 "Energy"
 "Pressure"
 "Temperature"
 "Mach"
 "C<sub>p</sub>"
 "Roe_Dissipation"
ZONE
DT=(DOUBLE,DOUBLE,DOUBLE,DOUBLE,DOUBLE,DOUBLE,DOUBLE,DOUBLE,DOUBLE,DOUBLE,DOUBLE)
                     -2                       0        1.22498798370361        42.0257606506348   -2.84519302340414E-07            254004.09375           101313.296875        288.114288330078       0.100821301341057      -0.016529930755496                       0 
      -1.99499499499499                       0        1.22498798370361        42.0257606506348    6.76266739023146E-08            254004.09375           101313.296875        288.114288330078       0.100821301341057      -0.016529931882526                       0 
      -1.98998998998999                       0        1.22498798370361        42.0257606506348    4.19772650145028E-07            254004.09375           101313.296875        288.114288330078       0.100821301341057     -0.0165299330095561                       0 
      -1.98498498498498                       0        1.22498798370361        42.0257606506348    7.71918626387741E-07            254004.09375           101313.296875        288.114288330078       0.100821301341057     -0.0165299341365861                       0 
      -1.97997997997998                       0        1.22498798370361        42.0257606506348    1.12406460263045E-06            254004.09375           101313.296875        288.114288330078       0.100821301341057     -0.0165299352636161                       0 
      -1.97497497497497                       0        1.22498798370361        42.0257606506348    1.47621057887317E-06            254004.09375           101313.296875        288.114288330078       0.100821301341057     -0.0165299363906461                       0 
      -1.96996996996997                       0        1.22498798370361        42.0257606506348    1.82835655511588E-06            254004.09375           101313.296875        288.114288330078       0.100821301341057     -0.0165299375176761                       0 
      -1.96496496496496                       0        1.22498798370361        42.0257606506348    2.18050253135859E-06            254004.09375           101313.296875        288.114288330078       0.100821301341057     -0.0165299386447061                       0 
      -1.95995995995996                       0        1.22498798370361        42.0257606506348    2.53264850760131E-06            254004.09375           101313.296875        288.114288330078       0.100821301341057     -0.0165299397717362                       0 
      -1.95495495495495                       0        1.22498798370361        42.0257606506348    2.88479448384402E-06            254004.09375           101313.296875        288.114288330078       0.100821301341057     -0.0165299408987662                       0 
      -1.94994994994995                       0        1.22498798370361        42.0257606506348    3.21027685942621E-06            254004.09375           101313.296875        288.114288330078       0.100821301341057     -0.0165299425217603                       0 
      -1.94494494494494                       0        1.22498798370361        42.0257606506348    3.51876091460818E-06            254004.09375           101313.296875        288.114288330078       0.100821301341057     -0.0165299444609366                       0 
      -1.93993993993994                       0        1.22498798370361        42.0257606506348    3.82724496979014E-06            254004.09375           101313.296875        288.114288330078       0.100821301341057     -0.0165299464001128                       0 
      -1.93493493493493                       0        1.22498798370361        42.0257606506348    4.13572902497211E-06            254004.09375           101313.296875        288.114288330078       0.100821301341057     -0.0165299483392891                       0 
      -1.92992992992993                       0        1.22498798370361        42.0257606506348    4.44421308015408E-06            254004.09375           101313.296875        288.114288330078       0.100821301341057     -0.0165299502784654                       0 
      -1.92492492492492                       0        1.22498798370361        42.0257606506348    4.75269713533604E-06            254004.09375           101313.296875        288.114288330078       0.100821301341057     -0.0165299522176417                       0 
      -1.91991991991992                       0        1.22498798370361        42.0257606506348    5.06118119051801E-06            254004.09375           101313.296875        288.114288330078       0.100821301341057      -0.016529954156818                       0 
      -1.91491491491491                       0        1.22498798370361        42.0257606506348    5.36966524569997E-06            254004.09375           101313.296875        288.114288330078       0.100821301341057     -0.0165299560959943                       0 
      -1.90990990990991                       0        1.22498798370361        42.0257606506348    5.67814930088194E-06            254004.09375           101313.296875        288.114288330078       0.100821301341057     -0.0165299580351706                       0 
       -1.9049049049049                       0        1.22498798370361        42.0257606506348    5.98663335606391E-06            254004.09375           101313.296875        288.114288330078       0.100821301341057     -0.0165299599743469                       0 
       -1.8998998998999                       0        1.22498798370361        42.0257606506348    6.29511741124587E-06            254004.09375           101313.296875        288.114288330078       0.100821301341057     -0.0165299619135232                       0 
      -1.89489489489489                       0        1.22498798370361        42.0257607941509    6.59273438174811E-06            254004.09375           101313.296875        288.114288330078       0.100821301341057     -0.0165299637391043                       0 
      -1.88988988988989                       0        1.22498798370361        42.0257611408082    6.90631141591016E-06            254004.09375           101313.296875        288.114288330078       0.100821301341057     -0.0165299700947561                       0 
      -1.88488488488488                       0        1.22498798370361          42.02576148719    7.22813020233646E-06            254004.09375           101313.296875        288.114288330078       0.100821301341057     -0.0165299760718961                       0 
      -1.87987987987988                       0        1.22498798370361        42.0257618335718    7.54994898876275E-06            254004.09375           101313.296875        288.114288330078       0.100821301341057     -0.0165299820490362                       0 
      -1.87487487487487                       0        1.22498798370361        42.0257621799537    7.87176777518905E-06            254004.09375           101313.296875        288.114288330078       0.100821301341057     -0.0165299880261762                       0 
      -1.86986986986987                       0        1.22498798370361        42.0257625263355    8.19358656161534E-06            254004.09375           101313.296875        288.114288330078       0.100821301341057     -0.0165299940033163                       0 
      -1.86486486486486                       0        1.22498798370361        42.0257628727174    8.51540534804164E-06            254004.09375           101313.296875        288.114288330078       0.100821301341057     -0.0165299999804563                       0 
      -1.85985985985986                       0        1.22498798370361        42.0257632190992    8.83722413446793E-06            254004.09375           101313.296875        288.114288330078       0.100821301341057     -0.0165300059575964                       0 
      -1.85485485485485                       0        1.22498798370361        42.0257635654811    9.15904292089423E-06            254004.09375           101313.296875        288.114288330078       0.100821301341057     -0.0165300119347364                       0 
      -1.84984984984985                       0        1.22498798370361        42.0257639118629    9.48086170732052E-06            254004.09375           101313.296875        288.114288330078       0.100821301341057     -0.0165300179118765                       0 
      -1.84484484484484                       0        1.22498798370361        42.0257642582448    9.80268049374682E-06            254004.09375           101313.296875        288.114288330078       0.100821301341057     -0.0165300238890165                       0 
      -1.83983983983984                       0        1.22498798370361        42.0257646046266    1.01244992801731E-05            254004.09375           101313.296875        288.114288330078       0.100821301341057     -0.0165300298661566                       0 
      -1.83483483483483                       0        1.22498798370361        42.0257649599669    1.04648876957553E-05            254004.09375           101313.296875        288.114288330078       0.100821301341057     -0.0165300366433559                       0 
      -1.82982982982983                       0        1.22498798370361        42.0257653182029    1.08112786059546E-05            254004.09375           101313.296875        288.114288330078       0.100821301341057     -0.0165300436791685                       0 
      -1.82482482482482                       0        1.22498798370361         42.025765676439    1.11576695161538E-05            254004.09375           101313.296875        288.114288330078       0.100821301341057     -0.0165300507149811                       0 
      -1.81981981981982                       0        1.22498798370361         42.025766034675     1.1504060426353E-05            254004.09375           101313.296875        288.114288330078       0.100821301341057     -0.0165300577507937                       0 
      -1.81481481481481                       0        1.22498798370361         42.025766392911    1.18504513365522E-05            254004.09375           101313.296875        288.114288330078       0.100821301341057     -0.0165300647866063                       0 
      -1.80980980980981                       0        1.22498798370361         42.025766751147    1.21968422467515E-05            254004.09375           101313.296875        288.114288330078       0.100821301341057     -0.0165300718224189                       0 
       -1.8048048048048                       0        1.22498798370361        42.0257671093831    1.25432331569507E-05            254004.09375           101313.296875        288.114288330078       0.100821301341057     -0.0165300788582315                       0 
       -1.7997997997998                       0        1.22498798370361        42.0257674676191    1.28896240671499E-05            254004.09375           101313.296875        288.114288330078       0.100821301341057     -0.0165300858940441                       0 
      -1.79479479479479                       0        1.22498798370361        42.0257678258551    1.32360149773491E-05            254004.09375           101313.296875        288.114288330078       0.100821301341057     -0.0165300929298567                       0 
      -1.78978978978979                       0        1.22498798370361        42.0257681840912    1.35824058875484E-05            254004.09375           101313.296875        288.114288330078       0.100821301341057     -0.0165300999656693                       0 
      -1.78478478478478                       0        1.22498798370361        42.0257682800293    1.39055589418953E-05            254004.09375           101313.296875        288.114288330078       0.100821304675245      -0.016530107011602                       0 
      -1.77977977977978                       0        1.22498798370361        42.0257682800293    1.42469148827305E-05            254004.09375           101313.296875        288.114288330078       0.100821309344568     -0.0165301176345326                       0 
      -1.77477477477477                       0        1.22498798370361        42.0257682800293    1.46097535921203E-05            254004.09375           101313.296875        288.114288330078       0.100821314025792     -0.0165301272881479                       0 
      -1.76976976976977                       0        1.22498798370361        42.0257682800293    1.49725923015101E-05            254004.09375           101313.296875        288.114288330078       0.100821318707016     -0.0165301369417632                       0 
      -1.76476476476476                       0        1.22498798370361        42.0257682800293    1.53354310108999E-05            254004.09375           101313.296875        288.114288330078       0.100821323388241     -0.0165301465953785                       0 
      -1.75975975975976                       0        1.22498798370361        42.0257682800293    1.56982697202896E-05            254004.09375           101313.296875        288.114288330078       0.100821328069465     -0.0165301562489938                       0 
      -1.75475475475475                       0        1.22498798370361        42.0257682800293    1.60611084296794E-05            254004.09375           101313.296875        288.114288330078       0.100821332750689     -0.0165301659026091                       0 
      -1.74974974974975                       0        1.22498798370361        42.0257682800293    1.64239471390692E-05            254004.09375           101313.296875        288.114288330078       0.100821337431914     -0.0165301755562244                       0 
      -1.74474474474474                       0        1.22498798370361        42.0257682800293     1.6786785848459E-05            254004.09375           101313.296875        288.114288330078       0.100821342113138     -0.0165301852098397                       0 
      -1.73973973973974                       0        1.22498798370361        42.0257682800293    1.71496245578488E-05            254004.09375           101313.296875        288.114288330078       0.100821346794362      -0.016530194863455                       0 
      -1.73473473473473                       0        1.22498798370361        42.0257682800293    1.75124632672385E-05            254004.09375           101313.296875        288.114288330078       0.100821351475587     -0.0165302045170703                       0 
      -1.72972972972973                       0        1.22498798370361        42.0257682800293    1.78882497540524E-05            254004.09375           101313.296875        288.114288330078       0.100821356188027     -0.0165302148960666                       0 
      -1.72472472472472                       0        1.22498798370361        42.0257682800293    1.82898954143973E-05            254004.09375           101313.296875        288.114288330078       0.100821360962813     -0.0165302267237868                       0 
      -1.71971971971972                       0        1.22498798370361        42.0257682800293    1.86915410747422E-05            254004.09375           101313.296875        288.114288330078       0.100821365737599     -0.0165302385515069                       0 
      -1.71471471471471                       0        1.22498798370361        42.0257682800293    1.90931867350871E-05            254004.09375           101313.296875        288.114288330078       0.100821370512385     -0.0165302503792271                       0 
      -1.70970970970971                       0        1.22498798370361        42.0257682800293     1.9494832395432E-05            254004.09375           101313.296875        288.114288330078       0.100821375287171     -0.0165302622069473                       0 
       -1.7047047047047                       0        1.22498798370361        42.0257682800293    1.98964780557769E-05            254004.09375           101313.296875        288.114288330078       0.100821380061956     -0.0165302740346675                       0 
       -1.6996996996997                       0        1.22498798370361        42.0257682800293    2.02981237161217E-05            254004.09375           101313.296875        288.114288330078       0.100821384836742     -0.0165302858623876                       0 
      -1.69469469469469                       0        1.22498798370361        42.0257682800293    2.06997693764666E-05            254004.09375           101313.296875        288.114288330078       0.100821389611528     -0.0165302976901078                       0 
      -1.68968968968969                       0        1.22498798370361        42.0257682800293    2.11014150368115E-05            254004.09375           101313.296875        288.114288330078       0.100821394386314      -0.016530309517828                       0 
      -1.68468468468468                       0        1.22498798370361        42.0257682800293    2.14951370038128E-05            254004.09375           101313.296875        288.114288330078       0.100821398198605     -0.0165303213276989                       0 
      -1.67967967967968                       0        1.22498798370361        42.0257682800293    2.18574744661697E-05            254004.09375           101313.296875        288.114288330078       0.100821398198605     -0.0165303330668716                       0 
      -1.67467467467467                       0        1.22498798370361        42.0257693932607    2.22631861776491E-05            254004.09375           101313.296875        288.114288330078       0.100821398198605     -0.0165303489214854                       0 
      -1.66966966966967                       0        1.22498798370361        42.0257700991823     2.2683152846566E-05            254004.09375           101313.296875        288.114288330078       0.100821398198605     -0.0165303637215083                       0 
      -1.66466466466466                       0        1.22498798370361        42.0257706696795    2.31077076570978E-05            254004.09375           101313.296875        288.114288330078       0.100821398198605      -0.016530378168628                       0 
      -1.65965965965966                       0        1.22498798370361        42.0257712401767    2.35322624676296E-05            254004.09375           101313.296875        288.114288330078       0.100821398198605     -0.0165303926157477                       0 
      -1.65465465465465                       0        1.22498798370361        42.0257718106739    2.39568172781613E-05            254004.09375           101313.296875        288.114288330078       0.100821398198605     -0.0165304070628674                       0 
      -1.64964964964965                       0        1.22498798370361        42.0257723811711    2.43813720886931E-05            254004.09375           101313.296875        288.114288330078       0.100821398198605      -0.016530421509987                       0 
      -1.64464464464464                       0        1.22498798370361        42.0257729516683    2.48059268992249E-05            254004.09375           101313.296875        288.114288330078       0.100821398198605     -0.0165304359571067                       0 
      -1.63963963963964                       0        1.22498798370361        42.0257735221655    2.52304817097566E-05            254004.09375           101313.296875        288.114288330078       0.100821398198605     -0.0165304504042264                       0 
      -1.63463463463463                       0        1.22498798370361        42.0257740926627    2.56550365202884E-05            254004.09375           101313.296875        288.114288330078       0.100821398198605      -0.016530464851346                       0 
      -1.62962962962963                       0        1.22498798370361        42.0257746631599    2.60795913308201E-05            254004.09375           101313.296875        288.114288330078       0.100821398198605     -0.0165304792984657                       0 
      -1.62462462462462                       0        1.22498798370361        42.0257752359674    2.65467885631612E-05            254004.09375           101313.296875        288.114288330078       0.100821398198605     -0.0165304960713868                       0 
      -1.61961961961962                       0        1.22498798370361        42.0257758094521    2.70264841450098E-05            254004.09375           101313.296875        288.114288330078       0.100821398198605     -0.0165305135259924                       0 
      -1.61461461461461                       0        1.22498798370361        42.0257763829367    2.75061797268584E-05            254004.09375           101313.296875        288.114288330078       0.100821398198605      -0.016530530980598                       0 
      -1.60960960960961                       0        1.22498798370361        42.0257769564214     2.7985875308707E-05            254004.09375           101313.296875        288.114288330078       0.100821398198605     -0.0165305484352036                       0 
       -1.6046046046046                       0        1.22498798370361        42.0257775299061    2.84655708905555E-05            254004.09375           101313.296875        288.114288330078       0.100821398198605     -0.0165305658898092                       0 
       -1.5995995995996                       0        1.22498798370361        42.0257781033908    2.89452664724041E-05            254004.09375           101313.296875        288.114288330078       0.100821398198605     -0.0165305833444148                       0 
      -1.59459459459459                       0        1.22498798370361        42.0257786768755    2.94249620542527E-05            254004.09375           101313.296875        288.114288330078       0.100821398198605     -0.0165306007990204                       0 
      -1.58958958958959                       0        1.22498798370361        42.0257792503601    2.99046576361012E-05            254004.09375           101313.296875        288.114288330078       0.100821398198605      -0.016530618253626                       0 
      -1.58458458458458                       0        1.22498798370361        42.0257797241211    3.03758496681074E-05            254004.09375           101313.296875        288.114288330078       0.100821398198605     -0.0165306357894506                       0 
      -1.57957957957958                       0        1.22498798370361        42.0257797241211    3.08066435909792E-05            254004.09375           101313.296875        288.114288330078       0.100821398198605     -0.0165306537111255                       0 
      -1.57457457457457                       0        1.22498798370361        42.0257797241211    3.12740119637064E-05            254004.09375           101313.296875        288.114288330078       0.100821398198605     -0.0165306741080108                       0 
      -1.56956956956957                       0        1.22498798370361        42.0257797241211    3.17650478323631E-05            254004.09375           101313.296875        288.114288330078       0.100821398198605     -0.0165306961066164                       0 
      -1.56456456456456                       0        1.22498798370361        42.0257797241211    3.22756112844833E-05            254004.09375           101313.296875        288.114288330078       0.100821398198605     -0.0165307156247507                       0 
      -1.55955955955956                       0        1.22498798370361        42.0257797241211    3.27865033064669E-05            254004.09375           101313.296875        288.114288330078       0.100821398198605     -0.0165307351011487                       0 
      -1.55455455455455                       0        1.22498798370361        42.0257797241211    3.32973953284505E-05            254004.09375           101313.296875        288.114288330078       0.100821398198605     -0.0165307545775467                       0 
      -1.54954954954955                       0        1.22498798370361        42.0257797241211     3.3808287350434E-05            254004.09375           101313.296875        288.114288330078       0.100821398198605     -0.0165307740539447                       0 
      -1.54454454454454                       0        1.22498798370361        42.0257797241211    3.43191793724176E-05            254004.09375           101313.296875        288.114288330078       0.100821398198605     -0.0165307935303428                       0 
      -1.53953953953954                       0        1.22498798370361        42.0257797241211    3.48300713944011E-05            254004.09375           101313.296875        288.114288330078       0.100821398198605     -0.0165308130067408                       0 
      -1.53453453453453                       0        1.22498798370361        42.0257797241211    3.53409634163847E-05            254004.09375           101313.296875        288.114288330078       0.100821398198605     -0.0165308324831389                       0 
      -1.52952952952953                       0        1.22498798370361        42.0257797241211    3.58518554383682E-05            254004.09375           101313.296875        288.114288330078       0.100821398198605     -0.0165308519595369                       0 
      -1.52452452452452                       0        1.22498798370361        42.0257802465551    3.63972885222179E-05            254004.09375           101313.296875        288.114288330078       0.100821398198605     -0.0165308737380215                       0 
      -1.51951951951952                       0        1.22498798370361        42.0257813754808    3.69828201962687E-05            254004.09375           101313.296875        288.114288330078       0.100821398198605     -0.0165308981889899                       0 
      -1.51451451451451                       0        1.22498798370361        42.0257825044065    3.75683518703195E-05            254004.09375           101313.296875        288.114288330078       0.100821398198605     -0.0165309226399582                       0 
      -1.50950950950951                       0        1.22498798370361        42.0257836333322    3.81538835443703E-05            254004.09375           101313.296875        288.114288330078       0.100821398198605     -0.0165309470909266                       0 
       -1.5045045045045                       0        1.22498798370361        42.0257847622579    3.87394152184211E-05            254004.09375           101313.296875        288.114288330078       0.100821398198605      -0.016530971541895                       0 
       -1.4994994994995                       0        1.22498798370361        42.0257858911836     3.9324946892472E-05            254004.09375           101313.296875        288.114288330078       0.100821398198605     -0.0165309959928633                       0 
      -1.49449449449449                       0        1.22498798370361        42.0257870201092    3.99104785665228E-05            254004.09375           101313.296875        288.114288330078       0.100821398198605     -0.0165310204438317                       0 
      -1.48948948948949                       0        1.22498798370361         42.025788149035    4.04960102405736E-05            254004.09375           101313.296875        288.114288330078       0.100821398198605     -0.0165310448948001                       0 
      -1.48448448448448                       0        1.22498798370361        42.0257892779578    4.10655358455571E-05            254004.09375           101313.296875        288.114288330078       0.100821398198605     -0.0165310694686746                       0 
      -1.47947947947948                       0        1.22498798370361        42.0257904068726    4.15901308022149E-05            254004.09375           101313.296875        288.114288330078       0.100821398198605     -0.0165310943875589                       0 
      -1.47447447447447                       0        1.22498798370361        42.0257911682129    4.21408140864026E-05            254004.09375           101313.296875        288.114288330078       0.100821398198605     -0.0165311206246001                       0 
      -1.46946946946947                       0        1.22498798370361        42.0257911682129    4.27455329314202E-05            254004.09375           101313.296875        288.114288330078       0.100821398198605     -0.0165311495918792                       0 
      -1.46446446446446                       0        1.22498798370361        42.0257911682129    4.33572815305217E-05            254004.09375           101313.296875        288.114288330078       0.100821398198605     -0.0165311776511199                       0 
      -1.45945945945946                       0        1.22498798370361        42.0257911682129    4.39843390250675E-05            254004.09375           101313.296875        288.114288330078       0.100821398198605     -0.0165312037328993                       0 
      -1.45445445445445                       0        1.22498798370361        42.0257911682129    4.46113965196133E-05            254004.09375           101313.296875        288.114288330078       0.100821398198605     -0.0165312298146787                       0 
      -1.44944944944945                       0        1.22498798370361        42.0257911682129    4.52384540141591E-05            254004.09375           101313.296875        288.114288330078       0.100821398198605     -0.0165312558964581                       0 
      -1.44444444444444                       0        1.22498798370361        42.0257911682129    4.58655115087049E-05            254004.09375           101313.296875        288.114288330078       0.100821398198605     -0.0165312819782375                       0 