VARIABLES = "x"
 "y"
 "Density"
 "Momentum_x"
 "Momentum_y"
 "Energy"
 "Pressure"
 "Temperature"
 "Mach"
 "C<sub>p</sub>"
 "Roe_Dissipation"
ZONE
DT=(DOUBLE,DOUBLE,DOUBLE,DOUBLE,DOUBLE,DOUBLE,DOUBLE,DOUBLE,DOUBLE,DOUBLE,DOUBLE)
                     -2                       0        1.22481894493103        42.5881690979004   -4.19776019500162E-12                253974.5          101293.6015625        288.098297119141       0.102187499403954     -0.0442020297050476                       0 
      -1.99749874937469                       0        1.22481894493103        42.5881690979004    -1.7773852225765E-12                253974.5          101293.6015625        288.098297119141       0.102187499403954     -0.0442020297050476                       0 
      -1.99499749874937                       0        1.22481894493103        42.5881690979004    6.42989749848834E-13                253974.5          101293.6015625        288.098297119141       0.102187499403954     -0.0442020297050476                       0 
      -1.99249624812406                       0        1.22481894493103        42.5881690979004    3.06336472227395E-12                253974.5          101293.6015625        288.098297119141       0.102187499403954     -0.0442020297050476                       0 
      -1.98999499749875                       0        1.22481894493103        42.5881690979004    5.48373969469907E-12                253974.5          101293.6015625        288.098297119141       0.102187499403954     -0.0442020297050476                       0 
      -1.98749374687344                       0        1.22481894493103        42.5881690979004    7.90411466712419E-12                253974.5          101293.6015625        288.098297119141       0.102187499403954     -0.0442020297050476                       0 
      -1.98499249624812                       0        1.22481894493103        42.5881690979004    1.03244896395495E-11                253974.5          101293.6015625        288.098297119141       0.102187499403954     -0.0442020297050476                       0 
      -1.98249124562281                       0        1.22481894493103        42.5881690979004    1.27448646119746E-11                253974.5          101293.6015625        288.098297119141       0.102187499403954     -0.0442020297050476                       0 
       -1.9799899949975                       0        1.22481894493103        42.5881690979004    1.51652395843998E-11                253974.5          101293.6015625        288.098297119141       0.102187499403954     -0.0442020297050476                       0 
      -1.97748874437219                       0        1.22481894493103        42.5881690979004    1.75856145568251E-11                253974.5          101293.6015625        288.098297119141       0.102187499403954     -0.0442020297050476                       0 
      -1.97498749374687                       0        1.22481894493103        42.5881690979004    2.00059895292502E-11                253974.5          101293.6015625        288.098297119141       0.102187499403954     -0.0442020297050476                       0 
      -1.97248624312156                       0        1.22481894493103        42.5881690979004    2.24263645016753E-11                253974.5          101293.6015625        288.098297119141       0.102187499403954     -0.0442020297050476                       0 
      -1.96998499249625                       0        1.22481894493103        42.5881690979004    2.48467394741007E-11                253974.5          101293.6015625        288.098297119141       0.102187499403954     -0.0442020297050476                       0 
      -1.96748374187094                       0        1.22481894493103        42.5881690979004    2.72671144465258E-11                253974.5          101293.6015625        288.098297119141       0.102187499403954     -0.0442020297050476                       0 
      -1.96498249124562                       0        1.22481894493103        42.5881690979004    2.96874894189509E-11                253974.5          101293.6015625        288.098297119141       0.102187499403954     -0.0442020297050476                       0 
      -1.96248124062031                       0        1.22481894493103        42.5881690979004     3.2107864391376E-11                253974.5          101293.6015625        288.098297119141       0.102187499403954     -0.0442020297050476                       0 
        -1.959979989995                       0        1.22481894493103        42.5881690979004    3.45282393638014E-11                253974.5          101293.6015625        288.098297119141       0.102187499403954     -0.0442020297050476                       0 
      -1.95747873936968                       0        1.22481894493103        42.5881690979004    3.69486143362265E-11                253974.5          101293.6015625        288.098297119141       0.102187499403954     -0.0442020297050476                       0 
      -1.95497748874437                       0        1.22481894493103        42.5881690979004    3.93689893086516E-11                253974.5          101293.6015625        288.098297119141       0.102187499403954     -0.0442020297050476                       0 
      -1.95247623811906                       0        1.22481894493103        42.5881690979004    4.17893642810769E-11                253974.5          101293.6015625        288.098297119141       0.102187499403954     -0.0442020297050476                       0 
      -1.94997498749375                       0        1.22481894493103        42.5881690979004    4.42097392535021E-11                253974.5          101293.6015625        288.098297119141       0.102187499403954     -0.0442020297050476                       0 
      -1.94747373686843                       0        1.22481894493103        42.5881690979004    4.66790215998527E-11                253974.5          101293.6015625        288.098297119141       0.102187499403954     -0.0442020297050476                       0 
      -1.94497248624312                       0        1.22481894493103        42.5881690979004    4.91977152783212E-11                253974.5          101293.6015625        288.098297119141       0.102187499403954     -0.0442020297050476                       0 
      -1.94247123561781                       0        1.22481894493103        42.5881690979004    5.17164089567895E-11                253974.5          101293.6015625        288.098297119141       0.102187499403954     -0.0442020297050476                       0 
       -1.9399699849925                       0        1.22481894493103        42.5881690979004    5.42351026352578E-11                253974.5          101293.6015625        288.098297119141       0.102187499403954     -0.0442020297050476                       0 
      -1.93746873436718                       0        1.22481894493103        42.5881690979004    5.67537963137261E-11                253974.5          101293.6015625        288.098297119141       0.102187499403954     -0.0442020297050476                       0 
      -1.93496748374187                       0        1.22481894493103        42.5881690979004    5.92724899921947E-11                253974.5          101293.6015625        288.098297119141       0.102187499403954     -0.0442020297050476                       0 
      -1.93246623311656                       0        1.22481894493103        42.5881690979004     6.1791183670663E-11                253974.5          101293.6015625        288.098297119141       0.102187499403954     -0.0442020297050476                       0 
      -1.92996498249125                       0        1.22481894493103        42.5881690979004    6.43098773491313E-11                253974.5          101293.6015625        288.098297119141       0.102187499403954     -0.0442020297050476                       0 
      -1.92746373186593                       0        1.22481894493103        42.5881690979004    6.68285710275998E-11                253974.5          101293.6015625        288.098297119141       0.102187499403954     -0.0442020297050476                       0 
      -1.92496248124062                       0        1.22481894493103        42.5881690979004    6.93472647060681E-11                253974.5          101293.6015625        288.098297119141       0.102187499403954     -0.0442020297050476                       0 
      -1.92246123061531                       0        1.22481894493103        42.5881690979004    7.18659583845364E-11                253974.5          101293.6015625        288.098297119141       0.102187499403954     -0.0442020297050476                       0 
      -1.91995997998999                       0        1.22481894493103        42.5881690979004     7.4384652063005E-11                253974.5          101293.6015625        288.098297119141       0.102187499403954     -0.0442020297050476                       0 
      -1.91745872936468                       0        1.22481894493103        42.5881690979004    7.69033457414733E-11                253974.5          101293.6015625        288.098297119141       0.102187499403954     -0.0442020297050476                       0 
      -1.91495747873937                       0        1.22481894493103        42.5881690979004    7.94220394199416E-11                253974.5          101293.6015625        288.098297119141       0.102187499403954     -0.0442020297050476                       0 
      -1.91245622811406                       0        1.22481894493103        42.5881690979004    8.19407330984099E-11                253974.5          101293.6015625        288.098297119141       0.102187499403954     -0.0442020297050476                       0 
      -1.90995497748874                       0        1.22481894493103        42.5881690979004    8.44594267768784E-11                253974.5          101293.6015625        288.098297119141       0.102187499403954     -0.0442020297050476                       0 
      -1.90745372686343                       0        1.22481894493103        42.5881690979004    8.69781204553467E-11                253974.5          101293.6015625        288.098297119141       0.102187499403954     -0.0442020297050476                       0 
      -1.90495247623812                       0        1.22481894493103        42.5881690979004     8.9496814133815E-11                253974.5          101293.6015625        288.098297119141       0.102187499403954     -0.0442020297050476                       0 
      -1.90245122561281                       0        1.22481894493103        42.5881690979004    9.20155078122836E-11                253974.5          101293.6015625        288.098297119141       0.102187499403954     -0.0442020297050476                       0 
      -1.89994997498749                       0        1.22481894493103        42.5881690979004    9.45342014907519E-11                253974.5          101293.6015625        288.098297119141       0.102187499403954     -0.0442020297050476                       0 
      -1.89744872436218                       0        1.22481894493103        42.5881690979004    9.70528951692202E-11                253974.5          101293.6015625        288.098297119141       0.102187499403954     -0.0442020297050476                       0 
      -1.89494747373687                       0        1.22481894493103        42.5881690979004    9.95571710818973E-11                253974.5          101293.6015625        288.098297119141       0.102187499403954     -0.0442020297050476                       0 
      -1.89244622311156                       0        1.22481894493103        42.5881690979004    1.02061373406011E-10                253974.5          101293.6015625        288.098297119141       0.102187499403954     -0.0442020297050476                       0 
      -1.88994497248624                       0        1.22481894493103        42.5881690979004    1.04565575730125E-10                253974.5          101293.6015625        288.098297119141       0.102187499403954     -0.0442020297050476                       0 
      -1.88744372186093                       0        1.22481894493103        42.5881690979004    1.07069778054238E-10                253974.5          101293.6015625        288.098297119141       0.102187499403954     -0.0442020297050476                       0 
      -1.88494247123562                       0        1.22481894493103        42.5881690979004    1.09573980378352E-10                253974.5          101293.6015625        288.098297119141       0.102187499403954     -0.0442020297050476                       0 
      -1.88244122061031                       0        1.22481894493103        42.5881690979004    1.12078182702466E-10                253974.5          101293.6015625        288.098297119141       0.102187499403954     -0.0442020297050476                       0 
      -1.87993996998499                       0        1.22481894493103        42.5881690979004    1.14582385026579E-10                253974.5          101293.6015625        288.098297119141       0.102187499403954     -0.0442020297050476                       0 
      -1.87743871935968                       0        1.22481894493103        42.5881690979004    1.17086587350693E-10                253974.5          101293.6015625        288.098297119141       0.102187499403954     -0.0442020297050476                       0 
      -1.87493746873437                       0        1.22481894493103        42.5881690979004    1.19590789674807E-10                253974.5          101293.6015625        288.098297119141       0.102187499403954     -0.0442020297050476                       0 
      -1.87243621810905                       0        1.22481894493103        42.5881690979004     1.2209499199892E-10                253974.5          101293.6015625        288.098297119141       0.102187499403954     -0.0442020297050476                       0 
      -1.86993496748374                       0        1.22481894493103        42.5881690979004    1.24599194323034E-10                253974.5          101293.6015625        288.098297119141       0.102187499403954     -0.0442020297050476                       0 
      -1.86743371685843                       0        1.22481894493103        42.5881690979004    1.27103396647148E-10                253974.5          101293.6015625        288.098297119141       0.102187499403954     -0.0442020297050476                       0 
      -1.86493246623312                       0        1.22481894493103        42.5881690979004    1.29607598971261E-10                253974.5          101293.6015625        288.098297119141       0.102187499403954     -0.0442020297050476                       0 
       -1.8624312156078                       0        1.22481894493103        42.5881690979004    1.32111801295375E-10                253974.5          101293.6015625        288.098297119141       0.102187499403954     -0.0442020297050476                       0 
      -1.85992996498249                       0        1.22481894493103        42.5881690979004    1.34616003619489E-10                253974.5          101293.6015625        288.098297119141       0.102187499403954     -0.0442020297050476                       0 
      -1.85742871435718                       0        1.22481894493103        42.5881690979004    1.37120205943602E-10                253974.5          101293.6015625        288.098297119141       0.102187499403954     -0.0442020297050476                       0 
      -1.85492746373187                       0        1.22481894493103        42.5881690979004    1.39624408267716E-10                253974.5          101293.6015625        288.098297119141       0.102187499403954     -0.0442020297050476                       0 
      -1.85242621310655                       0        1.22481894493103        42.5881690979004     1.4212861059183E-10                253974.5          101293.6015625        288.098297119141       0.102187499403954     -0.0442020297050476                       0 
      -1.84992496248124                       0        1.22481894493103        42.5881690979004    1.44632812915944E-10                253974.5          101293.6015625        288.098297119141       0.102187499403954     -0.0442020297050476                       0 
      -1.84742371185593                       0        1.22481894493103        42.5881690979004    1.47137015240057E-10                253974.5          101293.6015625        288.098297119141       0.102187499403954     -0.0442020297050476                       0 
      -1.84492246123062                       0        1.22481894493103        42.5881690979004    1.49664924775444E-10                253974.5          101293.6015625        288.098297119141       0.102187499403954     -0.0442020297050476                       0 
       -1.8424212106053                       0        1.22481894493103        42.5881690979004    1.52217277352505E-10                253974.5          101293.6015625        288.098297119141       0.102187499403954     -0.0442020297050476                       0 
      -1.83991995997999                       0        1.22481894493103        42.5881690979004    1.54769629929566E-10                253974.5          101293.6015625        288.098297119141       0.102187499403954     -0.0442020297050476                       0 
      -1.83741870935468                       0        1.22481894493103        42.5881690979004    1.57321982506626E-10                253974.5          101293.6015625        288.098297119141       0.102187499403954     -0.0442020297050476                       0 
      -1.83491745872936                       0        1.22481894493103        42.5881690979004    1.59874335083687E-10                253974.5          101293.6015625        288.098297119141       0.102187499403954     -0.0442020297050476                       0 
      -1.83241620810405                       0        1.22481894493103        42.5881690979004    1.62426687660748E-10                253974.5          101293.6015625        288.098297119141       0.102187499403954     -0.0442020297050476                       0 
      -1.82991495747874                       0        1.22481894493103        42.5881690979004    1.64979040237809E-10                253974.5          101293.6015625        288.098297119141       0.102187499403954     -0.0442020297050476                       0 
      -1.82741370685343                       0        1.22481894493103        42.5881690979004     1.6753139281487E-10                253974.5          101293.6015625        288.098297119141       0.102187499403954     -0.0442020297050476                       0 
      -1.82491245622811                       0        1.22481894493103        42.5881690979004    1.70083745391931E-10                253974.5          101293.6015625        288.098297119141       0.102187499403954     -0.0442020297050476                       0 
       -1.8224112056028                       0        1.22481894493103        42.5881690979004    1.72636097968991E-10                253974.5          101293.6015625        288.098297119141       0.102187499403954     -0.0442020297050476                       0 
      -1.81990995497749                       0        1.22481894493103        42.5881690979004    1.75188450546052E-10                253974.5          101293.6015625        288.098297119141       0.102187499403954     -0.0442020297050476                       0 
      -1.81740870435218                       0        1.22481894493103        42.5881690979004    1.77740803123113E-10                253974.5          101293.6015625        288.098297119141       0.102187499403954     -0.0442020297050476                       0 
      -1.81490745372686                       0        1.22481894493103        42.5881690979004    1.80293155700174E-10                253974.5          101293.6015625        288.098297119141       0.102187499403954     -0.0442020297050476                       0 
      -1.81240620310155                       0        1.22481894493103        42.5881690979004    1.82845508277235E-10                253974.5          101293.6015625        288.098297119141       0.102187499403954     -0.0442020297050476                       0 
      -1.80990495247624                       0        1.22481894493103        42.5881690979004    1.85397860854296E-10                253974.5          101293.6015625        288.098297119141       0.102187499403954     -0.0442020297050476                       0 
      -1.80740370185093                       0        1.22481894493103        42.5881690979004    1.87950213431356E-10                253974.5          101293.6015625        288.098297119141       0.102187499403954     -0.0442020297050476                       0 
      -1.80490245122561                       0        1.22481894493103        42.5881690979004    1.90502566008417E-10                253974.5          101293.6015625        288.098297119141       0.102187499403954     -0.0442020297050476                       0 
       -1.8024012006003                       0        1.22481894493103        42.5881690979004    1.93054918585478E-10                253974.5          101293.6015625        288.098297119141       0.102187499403954     -0.0442020297050476                       0 
      -1.79989994997499                       0        1.22481894493103        42.5881690979004    1.95607271162539E-10                253974.5          101293.6015625        288.098297119141       0.102187499403954     -0.0442020297050476                       0 
      -1.79739869934967                       0        1.22481894493103        42.5881690979004      1.981596237396E-10                253974.5          101293.6015625        288.098297119141       0.102187499403954     -0.0442020297050476                       0 
      -1.79489744872436                       0        1.22481894493103        42.5881690979004     2.0071197631666E-10                253974.5          101293.6015625        288.098297119141       0.102187499403954     -0.0442020297050476                       0 
      -1.79239619809905                       0        1.22481894493103        42.5881690979004     2.0337646562675E-10                253974.5          101293.6015625        288.098297119141       0.102187499403954     -0.0442020297050476                       0 
      -1.78989494747374                       0        1.22481894493103        42.5881690979004    2.06042105505597E-10                253974.5          101293.6015625        288.098297119141       0.102187499403954     -0.0442020297050476                       0 
      -1.78739369684842                       0        1.22481894493103        42.5881690979004    2.08707745384443E-10                253974.5          101293.6015625        288.098297119141       0.102187499403954     -0.0442020297050476                       0 
      -1.78489244622311                       0        1.22481894493103        42.5881690979004     2.1137338526329E-10                253974.5          101293.6015625        288.098297119141       0.102187499403954     -0.0442020297050476                       0 
       -1.7823911955978                       0        1.22481894493103        42.5881690979004    2.14039025142136E-10                253974.5          101293.6015625        288.098297119141       0.102187499403954     -0.0442020297050476                       0 
      -1.77988994497249                       0        1.22481894493103        42.5881690979004    2.16704665020983E-10                253974.5          101293.6015625        288.098297119141       0.102187499403954     -0.0442020297050476                       0 
      -1.77738869434717                       0        1.22481894493103        42.5881690979004    2.19370304899829E-10                253974.5          101293.6015625        288.098297119141       0.102187499403954     -0.0442020297050476                       0 
      -1.77488744372186                       0        1.22481894493103        42.5881690979004    2.22035944778676E-10                253974.5          101293.6015625        288.098297119141       0.102187499403954     -0.0442020297050476                       0 
      -1.77238619309655                       0        1.22481894493103        42.5881690979004    2.24701584657522E-10                253974.5          101293.6015625        288.098297119141       0.102187499403954     -0.0442020297050476                       0 
      -1.76988494247124                       0        1.22481894493103        42.5881690979004    2.27367224536369E-10                253974.5          101293.6015625        288.098297119141       0.102187499403954     -0.0442020297050476                       0 
      -1.76738369184592                       0        1.22481894493103        42.5881690979004    2.30032864415215E-10                253974.5          101293.6015625        288.098297119141       0.102187499403954     -0.0442020297050476                       0 
      -1.76488244122061                       0        1.22481894493103        42.5881690979004    2.32698504294062E-10                253974.5          101293.6015625        288.098297119141       0.102187499403954     -0.0442020297050476                       0 
       -1.7623811905953                       0        1.22481894493103        42.5881690979004    2.35364144172908E-10                253974.5          101293.6015625        288.098297119141       0.102187499403954     -0.0442020297050476                       0 
      -1.75987993996998                       0        1.22481894493103        42.5881690979004    2.38029784051755E-10                253974.5          101293.6015625        288.098297119141       0.102187499403954     -0.0442020297050476                       0 
      -1.75737868934467                       0        1.22481894493103        42.5881690979004    2.40695423930601E-10                253974.5          101293.6015625        288.098297119141       0.102187499403954     -0.0442020297050476                       0 
      -1.75487743871936                       0        1.22481894493103        42.5881690979004    2.43361063809448E-10                253974.5          101293.6015625        288.098297119141       0.102187499403954     -0.0442020297050476                       0 
      -1.75237618809405                       0        1.22481894493103        42.5881690979004    2.46026703688294E-10                253974.5          101293.6015625        288.098297119141       0.102187499403954     -0.0442020297050476                       0 
      -1.74987493746873                       0        1.22481894493103        42.5881690979004    2.48692343567141E-10                253974.5          101293.6015625        288.098297119141       0.102187499403954     -0.0442020297050476                       0 
      -1.74737368684342                       0        1.22481894493103        42.5881690979004    2.51357983445987E-10                253974.5          101293.6015625        288.098297119141       0.102187499403954     -0.0442020297050476                       0 
      -1.74487243621811                       0        1.22481894493103        42.5881690979004    2.54023623324834E-10                253974.5          101293.6015625        288.098297119141       0.102187499403954     -0.0442020297050476                       0 
       -1.7423711855928                       0        1.22481894493103        42.5881690979004     2.5677051971343E-10                253974.5          101293.6015625        288.098297119141       0.102187499403954     -0.0442020297050476                       0 
      -1.73986993496748                       0        1.22481894493103        42.5881690979004    2.59602914552067E-10                253974.5          101293.6015625        288.098297119141       0.102187499403954     -0.0442020297050476                       0 
      -1.73736868434217                       0        1.22481894493103        42.5881690979004    2.62435309390705E-10                253974.5          101293.6015625        288.098297119141       0.102187499403954     -0.0442020297050476                       0 
      -1.73486743371686                       0        1.22481894493103        42.5881690979004    2.65267704229343E-10                253974.5          101293.6015625        288.098297119141       0.102187499403954     -0.0442020297050476                       0 
      -1.73236618309155                       0        1.22481894493103        42.5881690979004     2.6810009906798E-10                253974.5          101293.6015625        288.098297119141       0.102187499403954     -0.0442020297050476                       0 
      -1.72986493246623                       0        1.22481894493103        42.5881690979004    2.70932493906618E-10                253974.5          101293.6015625        288.098297119141       0.102187499403954     -0.0442020297050476                       0 
      -1.72736368184092                       0        1.22481894493103        42.5881690979004    2.73764888745256E-10                253974.5          101293.6015625        288.098297119141       0.102187499403954     -0.0442020297050476                       0 
      -1.72486243121561                       0        1.22481894493103        42.5881690979004    2.76597283583894E-10                253974.5          101293.6015625        288.098297119141       0.102187499403954     -0.0442020297050476                       0 
       -1.7223611805903                       0        1.22481894493103        42.5881690979004    2.79429678422531E-10                253974.5          101293.6015625        288.098297119141       0.102187499403954     -0.0442020297050476                       0 