VARIABLES = "x"
 "y"
 "Density"
 "Momentum_x"
 "Momentum_y"
 "Energy"
 "Pressure"
 "Temperature"
 "Mach"
 "C<sub>p</sub>"
 "Roe_Dissipation"
ZONE
DT=(DOUBLE,DOUBLE,DOUBLE,DOUBLE,DOUBLE,DOUBLE,DOUBLE,DOUBLE,DOUBLE,DOUBLE,DOUBLE)
                     -2                       0        1.22495305538177        42.1421089172363   -4.02932006336731E-12                  253998           101309.203125        288.110992431641       0.101103901863098      -0.022223399952054                       0 
      -1.99749874937469                       0        1.22495305538177        42.1421089172363    1.15594217911896E-11                  253998           101309.203125        288.110992431641       0.101103901863098     -0.0222234004063009                       0 
      -1.99499749874937                       0        1.22495305538177        42.1421089172363     2.7148163645748E-11                  253998           101309.203125        288.110992431641       0.101103901863098     -0.0222234008605478                       0 
      -1.99249624812406                       0        1.22495305538177        42.1421089172363    4.27369055003049E-11                  253998           101309.203125        288.110992431641       0.101103901863098     -0.0222234013147947                       0 
      -1.98999499749875                       0        1.22495305538177        42.1421089172363    5.83256473548618E-11                  253998           101309.203125        288.110992431641       0.101103901863098     -0.0222234017690416                       0 
      -1.98749374687344                       0        1.22495305538177        42.1421089172363    7.39143892094188E-11                  253998           101309.203125        288.110992431641       0.101103901863098     -0.0222234022232886                       0 
      -1.98499249624812                       0        1.22495305538177        42.1421089172363    8.95031310639771E-11                  253998           101309.203125        288.110992431641       0.101103901863098     -0.0222234026775355                       0 
      -1.98249124562281                       0        1.22495305538177        42.1421089172363    1.05091872918534E-10                  253998           101309.203125        288.110992431641       0.101103901863098     -0.0222234031317824                       0 
       -1.9799899949975                       0        1.22495305538177        42.1421089172363    1.20680614773091E-10                  253998           101309.203125        288.110992431641       0.101103901863098     -0.0222234035860293                       0 
      -1.97748874437219                       0        1.22495305538177        42.1421089172363    1.36269356627649E-10                  253998           101309.203125        288.110992431641       0.101103901863098     -0.0222234040402762                       0 
      -1.97498749374687                       0        1.22495305538177        42.1421089172363    1.51858098482206E-10                  253998           101309.203125        288.110992431641       0.101103901863098     -0.0222234044945231                       0 
      -1.97248624312156                       0        1.22495305538177        42.1421089172363    1.67446840336763E-10                  253998           101309.203125        288.110992431641       0.101103901863098       -0.02222340494877                       0 
      -1.96998499249625                       0        1.22495305538177        42.1421089172363    1.83035582191322E-10                  253998           101309.203125        288.110992431641       0.101103901863098     -0.0222234054030169                       0 
      -1.96748374187094                       0        1.22495305538177        42.1421089172363    1.98624324045879E-10                  253998           101309.203125        288.110992431641       0.101103901863098     -0.0222234058572638                       0 
      -1.96498249124562                       0        1.22495305538177        42.1421089172363    2.14213065900435E-10                  253998           101309.203125        288.110992431641       0.101103901863098     -0.0222234063115107                       0 
      -1.96248124062031                       0        1.22495305538177        42.1421089172363    2.29801807754992E-10                  253998           101309.203125        288.110992431641       0.101103901863098     -0.0222234067657576                       0 
        -1.959979989995                       0        1.22495305538177        42.1421089172363    2.45390549609551E-10                  253998           101309.203125        288.110992431641       0.101103901863098     -0.0222234072200045                       0 
      -1.95747873936968                       0        1.22495305538177        42.1421089172363    2.60979291464108E-10                  253998           101309.203125        288.110992431641       0.101103901863098     -0.0222234076742514                       0 
      -1.95497748874437                       0        1.22495305538177        42.1421089172363    2.76568033318665E-10                  253998           101309.203125        288.110992431641       0.101103901863098     -0.0222234081284983                       0 
      -1.95247623811906                       0        1.22495305538177        42.1421089172363    2.92156775173223E-10                  253998           101309.203125        288.110992431641       0.101103901863098     -0.0222234085827452                       0 
      -1.94997498749375                       0        1.22495305538177        42.1421089172363     3.0774551702778E-10                  253998           101309.203125        288.110992431641       0.101103901863098     -0.0222234090369921                       0 
      -1.94747373686843                       0        1.22495305538177        42.1421089172363    3.23506653343667E-10                  253998           101309.203125        288.110992431641       0.101103901863098     -0.0222234092652798                       0 
      -1.94497248624312                       0        1.22495305538177        42.1421089172363    3.39441960531968E-10                  253998           101309.203125        288.110992431641       0.101103901863098     -0.0222234092652798                       0 
      -1.94247123561781                       0        1.22495305538177        42.1421089172363    3.55377267720268E-10                  253998           101309.203125        288.110992431641       0.101103901863098     -0.0222234092652798                       0 
       -1.9399699849925                       0        1.22495305538177        42.1421089172363    3.71312574908568E-10                  253998           101309.203125        288.110992431641       0.101103901863098     -0.0222234092652798                       0 
      -1.93746873436718                       0        1.22495305538177        42.1421089172363    3.87247882096868E-10                  253998           101309.203125        288.110992431641       0.101103901863098     -0.0222234092652798                       0 
      -1.93496748374187                       0        1.22495305538177        42.1421089172363    4.03183189285169E-10                  253998           101309.203125        288.110992431641       0.101103901863098     -0.0222234092652798                       0 
      -1.93246623311656                       0        1.22495305538177        42.1421089172363    4.19118496473469E-10                  253998           101309.203125        288.110992431641       0.101103901863098     -0.0222234092652798                       0 
      -1.92996498249125                       0        1.22495305538177        42.1421089172363    4.35053803661769E-10                  253998           101309.203125        288.110992431641       0.101103901863098     -0.0222234092652798                       0 
      -1.92746373186593                       0        1.22495305538177        42.1421089172363     4.5098911085007E-10                  253998           101309.203125        288.110992431641       0.101103901863098     -0.0222234092652798                       0 
      -1.92496248124062                       0        1.22495305538177        42.1421089172363     4.6692441803837E-10                  253998           101309.203125        288.110992431641       0.101103901863098     -0.0222234092652798                       0 
      -1.92246123061531                       0        1.22495305538177        42.1421089172363     4.8285972522667E-10                  253998           101309.203125        288.110992431641       0.101103901863098     -0.0222234092652798                       0 
      -1.91995997998999                       0        1.22495305538177        42.1421089172363    4.98795032414971E-10                  253998           101309.203125        288.110992431641       0.101103901863098     -0.0222234092652798                       0 
      -1.91745872936468                       0        1.22495305538177        42.1421089172363    5.14730339603271E-10                  253998           101309.203125        288.110992431641       0.101103901863098     -0.0222234092652798                       0 
      -1.91495747873937                       0        1.22495305538177        42.1421089172363    5.30665646791571E-10                  253998           101309.203125        288.110992431641       0.101103901863098     -0.0222234092652798                       0 
      -1.91245622811406                       0        1.22495305538177        42.1421089172363    5.46600953979871E-10                  253998           101309.203125        288.110992431641       0.101103901863098     -0.0222234092652798                       0 
      -1.90995497748874                       0        1.22495305538177        42.1421089172363    5.62536261168172E-10                  253998           101309.203125        288.110992431641       0.101103901863098     -0.0222234092652798                       0 
      -1.90745372686343                       0        1.22495305538177        42.1421089172363    5.78471568356472E-10                  253998           101309.203125        288.110992431641       0.101103901863098     -0.0222234092652798                       0 
      -1.90495247623812                       0        1.22495305538177        42.1421089172363    5.94406875544772E-10                  253998           101309.203125        288.110992431641       0.101103901863098     -0.0222234092652798                       0 
      -1.90245122561281                       0        1.22495305538177        42.1421089172363    6.10342182733073E-10                  253998           101309.203125        288.110992431641       0.101103901863098     -0.0222234092652798                       0 
      -1.89994997498749                       0        1.22495305538177        42.1421089172363    6.26277489921373E-10                  253998           101309.203125        288.110992431641       0.101103901863098     -0.0222234092652798                       0 
      -1.89744872436218                       0        1.22495305538177        42.1421089172363    6.42212797109673E-10                  253998           101309.203125        288.110992431641       0.101103901863098     -0.0222234092652798                       0 
      -1.89494747373687                       0        1.22495305538177        42.1421089172363    6.58395533636919E-10                  253998           101309.203125        288.110992431641       0.101103901863098     -0.0222234092652798                       0 
      -1.89244622311156                       0        1.22495305538177        42.1421089172363     6.7457953304843E-10                  253998           101309.203125        288.110992431641       0.101103901863098     -0.0222234092652798                       0 
      -1.88994497248624                       0        1.22495305538177        42.1421089172363     6.9076353245994E-10                  253998           101309.203125        288.110992431641       0.101103901863098     -0.0222234092652798                       0 
      -1.88744372186093                       0        1.22495305538177        42.1421089172363    7.06947531871451E-10                  253998           101309.203125        288.110992431641       0.101103901863098     -0.0222234092652798                       0 
      -1.88494247123562                       0        1.22495305538177        42.1421089172363    7.23131531282964E-10                  253998           101309.203125        288.110992431641       0.101103901863098     -0.0222234092652798                       0 
      -1.88244122061031                       0        1.22495305538177        42.1421089172363    7.39315530694475E-10                  253998           101309.203125        288.110992431641       0.101103901863098     -0.0222234092652798                       0 
      -1.87993996998499                       0        1.22495305538177        42.1421089172363    7.55499530105985E-10                  253998           101309.203125        288.110992431641       0.101103901863098     -0.0222234092652798                       0 
      -1.87743871935968                       0        1.22495305538177        42.1421089172363    7.71683529517498E-10                  253998           101309.203125        288.110992431641       0.101103901863098     -0.0222234092652798                       0 
      -1.87493746873437                       0        1.22495305538177        42.1421089172363    7.87867528929009E-10                  253998           101309.203125        288.110992431641       0.101103901863098     -0.0222234092652798                       0 
      -1.87243621810905                       0        1.22495305538177        42.1421089172363    8.04051528340519E-10                  253998           101309.203125        288.110992431641       0.101103901863098     -0.0222234092652798                       0 
      -1.86993496748374                       0        1.22495305538177        42.1421089172363    8.20235527752032E-10                  253998           101309.203125        288.110992431641       0.101103901863098     -0.0222234092652798                       0 
      -1.86743371685843                       0        1.22495305538177        42.1421089172363    8.36419527163543E-10                  253998           101309.203125        288.110992431641       0.101103901863098     -0.0222234092652798                       0 
      -1.86493246623312                       0        1.22495305538177        42.1421089172363    8.52603526575054E-10                  253998           101309.203125        288.110992431641       0.101103901863098     -0.0222234092652798                       0 
       -1.8624312156078                       0        1.22495305538177        42.1421089172363    8.68787525986564E-10                  253998           101309.203125        288.110992431641       0.101103901863098     -0.0222234092652798                       0 
      -1.85992996498249                       0        1.22495305538177        42.1421089172363    8.84971525398077E-10                  253998           101309.203125        288.110992431641       0.101103901863098     -0.0222234092652798                       0 
      -1.85742871435718                       0        1.22495305538177        42.1421089172363    9.01155524809588E-10                  253998           101309.203125        288.110992431641       0.101103901863098     -0.0222234092652798                       0 
      -1.85492746373187                       0        1.22495305538177        42.1421089172363    9.17339524221098E-10                  253998           101309.203125        288.110992431641       0.101103901863098     -0.0222234092652798                       0 
      -1.85242621310655                       0        1.22495305538177        42.1421089172363    9.33523523632611E-10                  253998           101309.203125        288.110992431641       0.101103901863098     -0.0222234092652798                       0 
      -1.84992496248124                       0        1.22495305538177        42.1421089172363    9.49707523044121E-10                  253998           101309.203125        288.110992431641       0.101103901863098     -0.0222234092652798                       0 
      -1.84742371185593                       0        1.22495305538177        42.1421089172363    9.65891522455632E-10                  253998           101309.203125        288.110992431641       0.101103901863098     -0.0222234092652798                       0 
      -1.84492246123062                       0        1.22495305538177        42.1421089172363    9.82328206328696E-10                  253998           101309.203125        288.110992431641       0.101103901863098     -0.0222234092652798                       0 
       -1.8424212106053                       0        1.22495305538177        42.1421089172363     9.9902541754734E-10                  253998           101309.203125        288.110992431641       0.101103901863098     -0.0222234092652798                       0 
      -1.83991995997999                       0        1.22495305538177        42.1421089172363    1.01572262876598E-09                  253998           101309.203125        288.110992431641       0.101103901863098     -0.0222234092652798                       0 
      -1.83741870935468                       0        1.22495305538177        42.1421089172363    1.03241983998463E-09                  253998           101309.203125        288.110992431641       0.101103901863098     -0.0222234092652798                       0 
      -1.83491745872936                       0        1.22495305538177        42.1421089172363    1.04911705120327E-09                  253998           101309.203125        288.110992431641       0.101103901863098     -0.0222234092652798                       0 
      -1.83241620810405                       0        1.22495305538177        42.1421089172363    1.06581426242191E-09                  253998           101309.203125        288.110992431641       0.101103901863098     -0.0222234092652798                       0 
      -1.82991495747874                       0        1.22495305538177        42.1421089172363    1.08251147364056E-09                  253998           101309.203125        288.110992431641       0.101103901863098     -0.0222234092652798                       0 
      -1.82741370685343                       0        1.22495305538177        42.1421089172363     1.0992086848592E-09                  253998           101309.203125        288.110992431641       0.101103901863098     -0.0222234092652798                       0 
      -1.82491245622811                       0        1.22495305538177        42.1421089172363    1.11590589607784E-09                  253998           101309.203125        288.110992431641       0.101103901863098     -0.0222234092652798                       0 
       -1.8224112056028                       0        1.22495305538177        42.1421089172363    1.13260310729649E-09                  253998           101309.203125        288.110992431641       0.101103901863098     -0.0222234092652798                       0 
      -1.81990995497749                       0        1.22495305538177        42.1421089172363    1.14930031851513E-09                  253998           101309.203125        288.110992431641       0.101103901863098     -0.0222234092652798                       0 
      -1.81740870435218                       0        1.22495305538177        42.1421089172363    1.16599752973377E-09                  253998           101309.203125        288.110992431641       0.101103901863098     -0.0222234092652798                       0 
      -1.81490745372686                       0        1.22495305538177        42.1421089172363    1.18269474095242E-09                  253998           101309.203125        288.110992431641       0.101103901863098     -0.0222234092652798                       0 
      -1.81240620310155                       0        1.22495305538177        42.1421089172363    1.19939195217106E-09                  253998           101309.203125        288.110992431641       0.101103901863098     -0.0222234092652798                       0 
      -1.80990495247624                       0        1.22495305538177        42.1421089172363    1.21608916338971E-09                  253998           101309.203125        288.110992431641       0.101103901863098     -0.0222234092652798                       0 
      -1.80740370185093                       0        1.22495305538177        42.1421089172363    1.23278637460835E-09                  253998           101309.203125        288.110992431641       0.101103901863098     -0.0222234092652798                       0 
      -1.80490245122561                       0        1.22495305538177        42.1421089172363    1.24948358582699E-09                  253998           101309.203125        288.110992431641       0.101103901863098     -0.0222234092652798                       0 
       -1.8024012006003                       0        1.22495305538177        42.1421089172363    1.26618079704564E-09                  253998           101309.203125        288.110992431641       0.101103901863098     -0.0222234092652798                       0 
      -1.79989994997499                       0        1.22495305538177        42.1421089172363    1.28287800826428E-09                  253998           101309.203125        288.110992431641       0.101103901863098     -0.0222234092652798                       0 
      -1.79739869934967                       0        1.22495305538177        42.1421089172363    1.29957521948292E-09                  253998           101309.203125        288.110992431641       0.101103901863098     -0.0222234092652798                       0 
      -1.79489744872436                       0        1.22495305538177        42.1421089172363    1.31627243070156E-09                  253998           101309.203125        288.110992431641       0.101103901863098     -0.0222234092652798                       0 
      -1.79239619809905                       0        1.22495305538177        42.1421089172363    1.33364879940364E-09                  253998           101309.203125        288.110992431641       0.101103901863098     -0.0222234092652798                       0 
      -1.78989494747374                       0        1.22495305538177        42.1421089172363    1.35103213653934E-09                  253998           101309.203125        288.110992431641       0.101103901863098     -0.0222234092652798                       0 
      -1.78739369684842                       0        1.22495305538177        42.1421089172363    1.36841547367504E-09                  253998           101309.203125        288.110992431641       0.101103901863098     -0.0222234092652798                       0 
      -1.78489244622311                       0        1.22495305538177        42.1421089172363    1.38579881081074E-09                  253998           101309.203125        288.110992431641       0.101103901863098     -0.0222234092652798                       0 
       -1.7823911955978                       0        1.22495305538177        42.1421089172363    1.40318214794644E-09                  253998           101309.203125        288.110992431641       0.101103901863098     -0.0222234092652798                       0 
      -1.77988994497249                       0        1.22495305538177        42.1421089172363    1.42056548508214E-09                  253998           101309.203125        288.110992431641       0.101103901863098     -0.0222234092652798                       0 
      -1.77738869434717                       0        1.22495305538177        42.1421089172363    1.43794882221784E-09                  253998           101309.203125        288.110992431641       0.101103901863098     -0.0222234092652798                       0 
      -1.77488744372186                       0        1.22495305538177        42.1421089172363    1.45533215935354E-09                  253998           101309.203125        288.110992431641       0.101103901863098     -0.0222234092652798                       0 
      -1.77238619309655                       0        1.22495305538177        42.1421089172363    1.47271549648924E-09                  253998           101309.203125        288.110992431641       0.101103901863098     -0.0222234092652798                       0 
      -1.76988494247124                       0        1.22495305538177        42.1421089172363    1.49009883362494E-09                  253998           101309.203125        288.110992431641       0.101103901863098     -0.0222234092652798                       0 
      -1.76738369184592                       0        1.22495305538177        42.1421089172363    1.50748217076064E-09                  253998           101309.203125        288.110992431641       0.101103901863098     -0.0222234092652798                       0 
      -1.76488244122061                       0        1.22495305538177        42.1421089172363    1.52486550789634E-09                  253998           101309.203125        288.110992431641       0.101103901863098     -0.0222234092652798                       0 
       -1.7623811905953                       0        1.22495305538177        42.1421089172363    1.54224884503204E-09                  253998           101309.203125        288.110992431641       0.101103901863098     -0.0222234092652798                       0 
      -1.75987993996998                       0        1.22495305538177        42.1421089172363    1.55963218216774E-09                  253998           101309.203125        288.110992431641       0.101103901863098     -0.0222234092652798                       0 
      -1.75737868934467                       0        1.22495305538177        42.1421089172363    1.57701551930344E-09                  253998           101309.203125        288.110992431641       0.101103901863098     -0.0222234092652798                       0 
      -1.75487743871936                       0        1.22495305538177        42.1421089172363    1.59439885643914E-09                  253998           101309.203125        288.110992431641       0.101103901863098     -0.0222234092652798                       0 
      -1.75237618809405                       0        1.22495305538177        42.1421089172363    1.61178219357484E-09                  253998           101309.203125        288.110992431641       0.101103901863098     -0.0222234092652798                       0 
      -1.74987493746873                       0        1.22495305538177        42.1421089172363    1.62916553071054E-09                  253998           101309.203125        288.110992431641       0.101103901863098     -0.0222234092652798                       0 
      -1.74737368684342                       0        1.22495305538177        42.1421089172363    1.64654886784624E-09                  253998           101309.203125        288.110992431641       0.101103901863098     -0.0222234092652798                       0 
      -1.74487243621811                       0        1.22495305538177        42.1421089172363    1.66393220498194E-09                  253998           101309.203125        288.110992431641       0.101103901863098     -0.0222234092652798                       0 
       -1.7423711855928                       0        1.22495305538177        42.1421089172363    1.68176126651909E-09                  253998           101309.203125        288.110992431641       0.101103901863098     -0.0222234092652798                       0 
      -1.73986993496748                       0        1.22495305538177        42.1421089172363    1.70005932119399E-09                  253998           101309.203125        288.110992431641       0.101103901863098     -0.0222234092652798                       0 
      -1.73736868434217                       0        1.22495305538177        42.1421089172363     1.7183573758689E-09                  253998           101309.203125        288.110992431641       0.101103901863098     -0.0222234092652798                       0 
      -1.73486743371686                       0        1.22495305538177        42.1421089172363     1.7366554305438E-09                  253998           101309.203125        288.110992431641       0.101103901863098     -0.0222234092652798                       0 
      -1.73236618309155                       0        1.22495305538177        42.1421089172363     1.7549534852187E-09                  253998           101309.203125        288.110992431641       0.101103901863098     -0.0222234092652798                       0 
      -1.72986493246623                       0        1.22495305538177        42.1421089172363     1.7732515398936E-09                  253998           101309.203125        288.110992431641       0.101103901863098     -0.0222234092652798                       0 
      -1.72736368184092                       0        1.22495305538177        42.1421089172363    1.79154959456851E-09                  253998           101309.203125        288.110992431641       0.101103901863098     -0.0222234092652798                       0 
      -1.72486243121561                       0        1.22495305538177        42.1421089172363    1.80984764924341E-09                  253998           101309.203125        288.110992431641       0.101103901863098     -0.0222234092652798                       0 
       -1.7223611805903                       0        1.22495305538177        42.1421089172363    1.82814570391831E-09                  253998           101309.203125        288.110992431641       0.101103901863098     -0.0222234092652798                       0 