VARIABLES = "x"
 "y"
 "Density"
 "Momentum_x"
 "Momentum_y"
 "Energy"
 "Pressure"
 "Temperature"
 "Mach"
 "C<sub>p</sub>"
 "Roe_Dissipation"
ZONE
DT=(DOUBLE,DOUBLE,DOUBLE,DOUBLE,DOUBLE,DOUBLE,DOUBLE,DOUBLE,DOUBLE,DOUBLE,DOUBLE)
                      2                    1.25         1.2247738116599        42.3787871853667        5.51020899306442         253966.67493247         101288.47961997        288.094079518823       0.102545627710528       -7.10286693769836                       0 
                      2         1.2474974974975        1.22477400897853        42.3779281918184        5.50988276824559         253966.70469966        101288.498923152         288.09409945685       0.102543459229765       -7.10283548862372                       0 
                      2        1.24499499499499        1.22477420629717        42.3770691982702        5.50955654342677        253966.734466851        101288.518226335        288.094119394877       0.102541290749001       -7.10280403954907                       0 
                      2        1.24249249249249         1.2247744036158         42.376210204722        5.50923031860794        253966.764234041        101288.537529517        288.094139332904       0.102539122268238       -7.10277259047442                       0 
                      2        1.23998998998999        1.22477460093444        42.3753512111737        5.50890409378912        253966.794001231          101288.5568327        288.094159270931       0.102536953787474       -7.10274114139978                       0 
                      2        1.23748748748749        1.22477479825307        42.3744922176255        5.50857786897029        253966.823768422        101288.576135883        288.094179208958       0.102534785306711       -7.10270969232513                       0 
                      2        1.23498498498498        1.22477499557171        42.3736332240773        5.50825164415147        253966.853535612        101288.595439065        288.094199146985       0.102532616825948       -7.10267824325049                       0 
                      2        1.23248248248248        1.22477519289034         42.372774230529        5.50792541933264        253966.883302802        101288.614742248        288.094219085011       0.102530448345184       -7.10264679417584                       0 
                      2        1.22997997997998        1.22477539020898        42.3719152369808        5.50759919451382        253966.913069993         101288.63404543        288.094239023038       0.102528279864421       -7.10261534510119                       0 
                      2        1.22747747747748        1.22477558752761        42.3710562434325          5.507272969695        253966.942837183        101288.653348613        288.094258961065       0.102526111383657       -7.10258389602655                       0 
                      2        1.22497497497497        1.22477578484625        42.3701972498843        5.50694674487617        253966.972604373        101288.672651795        288.094278899092       0.102523942902894        -7.1025524469519                       0 
                      2        1.22247247247247        1.22477598216488        42.3693382563361        5.50662052005735        253967.002371564        101288.691954978        288.094298837119        0.10252177442213       -7.10252099787726                       0 
                      2        1.21996996996997        1.22477617948352        42.3684792627878        5.50629429523852        253967.032138754         101288.71125816        288.094318775146       0.102519605941367       -7.10248954880261                       0 
                      2        1.21746746746747        1.22477638704465        42.3676032959998        5.50594764427819        253967.061764741        101288.731829534        288.094339841083       0.102517390038604       -7.10245691663629                       0 
                      2        1.21496496496496        1.22477660862871        42.3667040912515        5.50557302801055        253967.091197408         101288.75413718        288.094362451236       0.102515109210668       -7.10242266470629                       0 
                      2        1.21246246246246        1.22477683021278        42.3658048865031        5.50519841174292        253967.120630076        101288.776444827        288.094385061389       0.102512828382733        -7.1023884127763                       0 
                      2        1.20995995995996        1.22477705179685        42.3649056817548        5.50482379547529        253967.150062743        101288.798752473        288.094407671541       0.102510547554797        -7.1023541608463                       0 
                      2        1.20745745745746        1.22477727338091        42.3640064770065        5.50444917920766         253967.17949541         101288.82106012        288.094430281694       0.102508266726861        -7.1023199089163                       0 
                      2        1.20495495495495        1.22477749496498        42.3631072722581        5.50407456294003        253967.208928077        101288.843367766        288.094452891847       0.102505985898925        -7.1022856569863                       0 
                      2        1.20245245245245        1.22477771654905        42.3622080675098         5.5036999466724        253967.238360744        101288.865675412           288.094475502       0.102503705070989        -7.1022514050563                       0 
                      2        1.19994994994995        1.22477793015746        42.3612793681872        5.50338190887499        253967.266676689        101288.889818979        288.094494122043       0.102501373288446       -7.10221794206846                       0 
                      2        1.19744744744745        1.22477813692498        42.3603253706839        5.50311239974446        253967.294034793        101288.915537256        288.094509319677       0.102498997800954       -7.10218515577461                       0 
                      2        1.19494494494494        1.22477834369249        42.3593713731806        5.50284289061393        253967.321392898        101288.941255533        288.094524517311       0.102496622313462       -7.10215236948077                       0 
                      2        1.19244244244244        1.22477855046001        42.3584173756773        5.50257338148341        253967.348751003         101288.96697381        288.094539714945        0.10249424682597       -7.10211958318692                       0 
                      2        1.18993993993994        1.22477875722752        42.3574633781739        5.50230387235288        253967.376109108        101288.992692087        288.094554912579       0.102491871338478       -7.10208679689307                       0 
                      2        1.18743743743744        1.22477896399503        42.3565093806706        5.50203436322235        253967.403467213        101289.018410364        288.094570110214       0.102489495850986       -7.10205401059922                       0 
                      2        1.18493493493493        1.22477917076255        42.3555553831673        5.50176485409183        253967.430825318        101289.044128641        288.094585307848       0.102487120363494       -7.10202122430537                       0 
                      2        1.18243243243243        1.22477937753006        42.3546013856639         5.5014953449613        253967.458183423        101289.069846918        288.094600505482       0.102484744876001       -7.10198843801153                       0 
                      2        1.17992992992993        1.22477958429758        42.3536473881606        5.50122583583078        253967.485541528        101289.095565195        288.094615703116       0.102482369388509       -7.10195565171768                       0 
                      2        1.17742742742743        1.22477979106509        42.3526933906573        5.50095632670025        253967.512899633        101289.121283472         288.09463090075       0.102479993901017       -7.10192286542383                       0 
                      2        1.17492492492492        1.22477999783261         42.351739393154        5.50068681756973        253967.540257738         101289.14700175        288.094646098384       0.102477618413525       -7.10189007912998                       0 
                      2        1.17242242242242        1.22478020460012        42.3507853956506         5.5004173084392        253967.567615843        101289.172720027        288.094661296018       0.102475242926033       -7.10185729283613                       0 
                      2        1.16991991991992        1.22478041136764        42.3498313981473        5.50014779930867        253967.594973947        101289.198438304        288.094676493652       0.102472867438541       -7.10182450654229                       0 
                      2        1.16741741741742        1.22478061813515         42.348877400644        5.49987829017815        253967.622332052        101289.224156581        288.094691691287       0.102470491951049       -7.10179172024844                       0 
                      2        1.16491491491491        1.22478082817285        42.3479517331628        5.49959595309829        253967.647462587        101289.249025087        288.094707272793       0.102468180988308       -7.10176017183038                       0 
                      2        1.16241241241241        1.22478103883247        42.3470314534575        5.49931117641152        253967.672169485        101289.273731985        288.094722927305       0.102465882296821       -7.10172885883033                       0 
                      2        1.15990990990991         1.2247812494921        42.3461111737523        5.49902639972475        253967.696876383        101289.298438883        288.094738581816       0.102463583605335       -7.10169754583029                       0 
                      2        1.15740740740741        1.22478146015172        42.3451908940471        5.49874162303798        253967.721583281        101289.323145781        288.094754236328       0.102461284913848       -7.10166623283024                       0 
                      2         1.1549049049049        1.22478167081134        42.3442706143419         5.4984568463512        253967.746290178        101289.347852678        288.094769890839       0.102458986222362       -7.10163491983019                       0 
                      2         1.1524024024024        1.22478188147096        42.3433503346366        5.49817206966443        253967.770997076        101289.372559576        288.094785545351       0.102456687530875       -7.10160360683015                       0 
                      2         1.1498998998999        1.22478209213059        42.3424300549314        5.49788729297766        253967.795703974        101289.397266474        288.094801199862       0.102454388839389        -7.1015722938301                       0 
                      2         1.1473973973974        1.22478226283581        42.3415299986261        5.49770369003952        253967.820396799        101289.421959299        288.094822514077        0.10245217403673       -7.10154136608017                       0 
                      2        1.14489489489489         1.2247824315531        42.3406309485349         5.4975251209957        253967.845088923        101289.446651423        288.094844109891       0.102449963407955       -7.10151045749834                       0 
                      2        1.14239239239239         1.2247826002704        42.3397318984437        5.49734655195187        253967.869781048        101289.471343548        288.094865705704        0.10244775277918        -7.1014795489165                       0 
                      2        1.13988988988989        1.22478279062752        42.3388078158708        5.49715511727414        253967.895532896        101289.495737517        288.094888555926       0.102445477096686       -7.10144752779383                       0 
                      2        1.13738738738739        1.22478301503916        42.3378443397689        5.49694343599339        253967.922952428        101289.519662281        288.094913380205       0.102443099039383       -7.10141375586953                       0 
                      2        1.13488488488488         1.2247832394508        42.3368808636671        5.49673175471263         253967.95037196        101289.543587045        288.094938204484       0.102440720982079       -7.10137998394524                       0 
                      2        1.13238238238238        1.22478346386244        42.3359173875653        5.49652007343187        253967.977791493        101289.567511809        288.094963028763       0.102438342924776       -7.10134621202095                       0 
                      2        1.12987987987988        1.22478368827408        42.3349539114634        5.49630839215111        253968.005211025        101289.591436573        288.094987853042       0.102435964867472       -7.10131244009665                       0 
                      2        1.12737737737738        1.22478391268572        42.3339904353616        5.49609671087035        253968.032630557        101289.615361337        288.095012677321       0.102433586810169       -7.10127866817236                       0 
                      2        1.12487487487487        1.22478413709736        42.3330269592597        5.49588502958959        253968.060050089        101289.639286101          288.0950375016       0.102431208752865       -7.10124489624806                       0 
                      2        1.12237237237237          1.224784361509        42.3320634831579        5.49567334830883        253968.087469622        101289.663210865        288.095062325879       0.102428830695562       -7.10121112432377                       0 
                      2        1.11986986986987        1.22478458592064         42.331100007056        5.49546166702807        253968.114889154        101289.687135628        288.095087150158       0.102426452638258       -7.10117735239947                       0 
                      2        1.11736736736737        1.22478481033228        42.3301365309542        5.49524998574732        253968.142308686        101289.711060392        288.095111974437       0.102424074580955       -7.10114358047518                       0 
                      2        1.11486486486486        1.22478503474392        42.3291730548523        5.49503830446656        253968.169728218        101289.734985156        288.095136798716       0.102421696523652       -7.10110980855088                       0 
                      2        1.11236236236236        1.22478525915556        42.3282095787505         5.4948266231858         253968.19714775         101289.75890992        288.095161622995       0.102419318466348       -7.10107603662659                       0 
                      2        1.10985985985986         1.2247854835672        42.3272461026487        5.49461494190504        253968.224567282        101289.782834684        288.095186447274       0.102416940409045       -7.10104226470229                       0 
                      2        1.10735735735736        1.22478570797884        42.3262826265468        5.49440326062428        253968.251986815        101289.806759448        288.095211271553       0.102414562351741         -7.101008492778                       0 
                      2        1.10485485485485        1.22478593239048         42.325319150445        5.49419157934352        253968.279406347        101289.830684212        288.095236095831       0.102412184294438        -7.1009747208537                       0 
                      2        1.10235235235235        1.22478615680212        42.3243556743431        5.49397989806276        253968.306825879        101289.854608976         288.09526092011       0.102409806237134       -7.10094094892941                       0 
                      2        1.09984984984985        1.22478638121377        42.3233921982413        5.49376821678201        253968.334245411         101289.87853374        288.095285744389       0.102407428179831       -7.10090717700512                       0 
                      2        1.09734734734735        1.22478659729291         42.322447733631        5.49357918090009        253968.361712111        101289.902500416        288.095310364176       0.102405102042357       -7.10087371843348                       0 
                      2        1.09484484484484         1.2247867721266        42.3215973749216        5.49350223857199        253968.389412286        101289.926674555        288.095333971734       0.102403032905354       -7.10084181094129                       0 
                      2        1.09234234234234        1.22478694696029        42.3207470162121        5.49342529624388        253968.417112461        101289.950848695        288.095357579292       0.102400963768351        -7.1008099034491                       0 
                      2        1.08983983983984        1.22478712179398        42.3198966575026        5.49334835391578        253968.444812636        101289.975022834         288.09538118685       0.102398894631348       -7.10077799595692                       0 
                      2        1.08733733733734        1.22478729662767        42.3190462987932        5.49327141158768        253968.472512811        101289.999196974        288.095404794408       0.102396825494345       -7.10074608846473                       0 
                      2        1.08483483483483        1.22478747146136        42.3181959400837        5.49319446925957        253968.500212986        101290.023371113        288.095428401966       0.102394756357342       -7.10071418097254                       0 
                      2        1.08233233233233        1.22478764629505        42.3173455813742        5.49311752693147        253968.527913162        101290.047545252        288.095452009524       0.102392687220339       -7.10068227348036                       0 
                      2        1.07982982982983        1.22478782112874        42.3164952226648        5.49304058460336        253968.555613337        101290.071719392        288.095475617082       0.102390618083336       -7.10065036598817                       0 
                      2        1.07732732732733        1.22478799596243        42.3156448639553        5.49296364227526        253968.583313512        101290.095893531         288.09549922464       0.102388548946333       -7.10061845849599                       0 
                      2        1.07482482482482        1.22478817079612        42.3147945052458        5.49288669994715        253968.611013687        101290.120067671        288.095522832198        0.10238647980933        -7.1005865510038                       0 
                      2        1.07232232232232        1.22478834562981        42.3139441465364        5.49280975761905        253968.638713862         101290.14424181        288.095546439756       0.102384410672327       -7.10055464351161                       0 
                      2        1.06981981981982        1.22478852046351        42.3130937878269        5.49273281529094        253968.666414037         101290.16841595        288.095570047314       0.102382341535324       -7.10052273601942                       0 
                      2        1.06731731731732         1.2247886952972        42.3122434291174        5.49265587296284        253968.694114212        101290.192590089        288.095593654872       0.102380272398321       -7.10049082852724                       0 
                      2        1.06481481481481        1.22478887013089         42.311393070408        5.49257893063474        253968.721814388        101290.216764228         288.09561726243       0.102378203261318       -7.10045892103505                       0 
                      2        1.06231231231231        1.22478905167223        42.3105248143753        5.49249613767417        253968.750697301        101290.241543768        288.095641408815        0.10237608974388       -7.10042627993997                       0 
                      2        1.05980980980981        1.22478925747563        42.3095918224009        5.49239218254327        253968.783858266        101290.268513083        288.095667504175       0.102373815699123       -7.10039098534895                       0 
                      2        1.05730730730731        1.22478946327903        42.3086588304265        5.49228822741237        253968.817019231        101290.295482398        288.095693599536       0.102371541654367       -7.10035569075794                       0 
                      2         1.0548048048048        1.22478966908243        42.3077258384521        5.49218427228146        253968.850180196        101290.322451713        288.095719694896        0.10236926760961       -7.10032039616693                       0 
                      2         1.0523023023023        1.22478987488584        42.3067928464777        5.49208031715056        253968.883341161        101290.349421028        288.095745790257       0.102366993564854       -7.10028510157591                       0 
                      2         1.0497997997998        1.22479008068924        42.3058598545033        5.49197636201966        253968.916502126        101290.376390343        288.095771885617       0.102364719520097       -7.10024980698489                       0 
                      2         1.0472972972973        1.22479028649264        42.3049268625289        5.49187240688875        253968.949663091        101290.403359658        288.095797980978       0.102362445475341       -7.10021451239388                       0 
                      2        1.04479479479479        1.22479049311547        42.3040793823333        5.49182820166656        253968.984602872        101290.430449636        288.095823123074       0.102360394691758       -7.10017995968996                       0 
                      2        1.04229229229229          1.224790701167        42.3033809965262        5.49188817362591        253969.022644115        101290.457749995        288.095846603103       0.102358733176046       -7.10014670050611                       0 
                      2        1.03978978978979        1.22479090921853        42.3026826107191        5.49194814558525        253969.060685357        101290.485050353        288.095870083132       0.102357071660335       -7.10011344132227                       0 
                      2        1.03728728728729        1.22479111727006         42.301984224912         5.4920081175446          253969.0987266        101290.512350712        288.095893563161       0.102355410144623       -7.10008018213843                       0 
                      2        1.03478478478478         1.2247913253216        42.3012858391049        5.49206808950394        253969.136767843        101290.539651071        288.095917043191       0.102353748628912       -7.10004692295458                       0 
                      2        1.03228228228228        1.22479153337313        42.3005874532978        5.49212806146329        253969.174809085         101290.56695143         288.09594052322         0.1023520871132       -7.10001366377074                       0 
                      2        1.02977977977978        1.22479174142466        42.2998890674906        5.49218803342263        253969.212850328        101290.594251789        288.095964003249       0.102350425597489       -7.09998040458689                       0 
                      2        1.02727727727728        1.22479194947619        42.2991906816835        5.49224800538198         253969.25089157        101290.621552147        288.095987483278       0.102348764081777       -7.09994714540305                       0 
                      2        1.02477477477477        1.22479215752772        42.2984922958764        5.49230797734132        253969.288932813        101290.648852506        288.096010963307       0.102347102566066        -7.0999138862192                       0 
                      2        1.02227227227227        1.22479236557926        42.2977939100693        5.49236794930067        253969.326974055        101290.676152865        288.096034443336       0.102345441050355       -7.09988062703536                       0 
                      2        1.01976976976977        1.22479257363079        42.2970955242622        5.49242792126002        253969.365015298        101290.703453224        288.096057923365       0.102343779534643       -7.09984736785152                       0 
                      2        1.01726726726727        1.22479278168232        42.2963971384551        5.49248789321936         253969.40305654        101290.730753582        288.096081403395       0.102342118018932       -7.09981410866767                       0 
                      2        1.01476476476476        1.22479298973385         42.295698752648        5.49254786517871        253969.441097783        101290.758053941        288.096104883424        0.10234045650322       -7.09978084948383                       0 
                      2        1.01226226226226        1.22479319778538        42.2950003668409        5.49260783713805        253969.479139025          101290.7853543        288.096128363453       0.102338794987509       -7.09974759029998                       0 
                      2        1.00975975975976        1.22479340695529        42.2943347387899        5.49264206643102        253969.517381325        101290.811177748        288.096150020994       0.102337204347116       -7.09971535720041                       0 
                      2        1.00725725725726        1.22479361614979        42.2936698312262        5.49267572952942        253969.555628047        101290.836968713        288.096171638451       0.102335615265583       -7.09968314666895                       0 
                      2        1.00475475475475        1.22479382534429        42.2930049236625        5.49270939262783        253969.593874769        101290.862759678        288.096193255908       0.102334026184051       -7.09965093613748                       0 
                      2        1.00225225225225         1.2247940345388        42.2923400160988        5.49274305572623         253969.63212149        101290.888550643        288.096214873364       0.102332437102518       -7.09961872560602                       0 
                      2        0.99974974974975         1.2247942437333        42.2916751085351        5.49277671882463        253969.670368212        101290.914341607        288.096236490821       0.102330848020985       -7.09958651507456                       0 
                      2       0.997247247247247         1.2247944529278        42.2910102009714        5.49281038192303        253969.708614934        101290.940132572        288.096258108278       0.102329258939453       -7.09955430454309                       0 
                      2       0.994744744744745         1.2247946621223        42.2903452934078        5.49284404502144        253969.746861656        101290.965923537        288.096279725734        0.10232766985792       -7.09952209401163                       0 
                      2       0.992242242242242        1.22479487107102          42.28986663399         5.4929745612294         253969.78835454        101290.988639412        288.096300401112       0.102326551088911       -7.09949120557669                       0 
                      2        0.98973973973974        1.22479507986975        42.2895016299729        5.49316418073164        253969.831828351        101291.009478756        288.096320501598        0.10232571932173       -7.09946112393318                       0 
                      2       0.987237237237237        1.22479528866847        42.2891366259559        5.49335380023388        253969.875302162          101291.0303181        288.096340602084        0.10232488755455       -7.09943104228967                       0 
                      2       0.984734734734735         1.2247954974672        42.2887716219388        5.49354341973612        253969.918775973        101291.051157444         288.09636070257       0.102324055787369       -7.09940096064617                       0 
                      2       0.982232232232232        1.22479570570644         42.288337956022        5.49372609510034        253969.967787869         101291.07476765        288.096380749025        0.10232305648547       -7.09936764153127                       0 
                      2        0.97972972972973        1.22479591386535        42.2878944310725        5.49390777336887        253970.017594967        101291.098775719        288.096400787722       0.102322033127577       -7.09933385755395                       0 
                      2       0.977227227227227        1.22479612202426         42.287450906123        5.49408945163741        253970.067402065        101291.122783788        288.096420826419       0.102321009769683       -7.09930007357663                       0 
                      2       0.974724724724725        1.22479633018317        42.2870073811734        5.49427112990595        253970.117209164        101291.146791857        288.096440865116        0.10231998641179       -7.09926628959931                       0 
                      2       0.972222222222222        1.22479653834207        42.2865638562239        5.49445280817448        253970.167016262        101291.170799927        288.096460903812       0.102318963053897       -7.09923250562199                       0 