VARIABLES = "x"
 "y"
 "Density"
 "Momentum_x"
 "Momentum_y"
 "Energy"
 "Pressure"
 "Temperature"
 "Mach"
 "C<sub>p</sub>"
 "Roe_Dissipation"
ZONE
DT=(DOUBLE,DOUBLE,DOUBLE,DOUBLE,DOUBLE,DOUBLE,DOUBLE,DOUBLE,DOUBLE,DOUBLE,DOUBLE)
                     -2                       0        1.22509098052979         41.680721282959    5.46597446124397E-12                  254022           101325.203125        288.123901367188      0.0999834910035133    0.000259599997662008                       0 
      -1.99749874937469                       0        1.22509098052979         41.680721282959    6.61499713058853E-12                  254022           101325.203125        288.123901367188      0.0999834910035133    0.000259600041667177                       0 
      -1.99499749874937                       0        1.22509098052979         41.680721282959    7.76401979993319E-12                  254022           101325.203125        288.123901367188      0.0999834910035133    0.000259600085672346                       0 
      -1.99249624812406                       0        1.22509098052979         41.680721282959    8.91304246927775E-12                  254022           101325.203125        288.123901367188      0.0999834910035133    0.000259600129677515                       0 
      -1.98999499749875                       0        1.22509098052979         41.680721282959    1.00620651386223E-11                  254022           101325.203125        288.123901367188      0.0999834910035133    0.000259600173682684                       0 
      -1.98749374687344                       0        1.22509098052979         41.680721282959    1.12110878079669E-11                  254022           101325.203125        288.123901367188      0.0999834910035133    0.000259600217687853                       0 
      -1.98499249624812                       0        1.22509098052979         41.680721282959    1.23601104773115E-11                  254022           101325.203125        288.123901367188      0.0999834910035133    0.000259600261693022                       0 
      -1.98249124562281                       0        1.22509098052979         41.680721282959    1.35091331466561E-11                  254022           101325.203125        288.123901367188      0.0999834910035133    0.000259600305698191                       0 
       -1.9799899949975                       0        1.22509098052979         41.680721282959    1.46581558160007E-11                  254022           101325.203125        288.123901367188      0.0999834910035133     0.00025960034970336                       0 
      -1.97748874437219                       0        1.22509098052979         41.680721282959    1.58071784853453E-11                  254022           101325.203125        288.123901367188      0.0999834910035133    0.000259600393708529                       0 
      -1.97498749374687                       0        1.22509098052979         41.680721282959    1.69562011546899E-11                  254022           101325.203125        288.123901367188      0.0999834910035133    0.000259600437713698                       0 
      -1.97248624312156                       0        1.22509098052979         41.680721282959    1.81052238240344E-11                  254022           101325.203125        288.123901367188      0.0999834910035133    0.000259600481718867                       0 
      -1.96998499249625                       0        1.22509098052979         41.680721282959    1.92542464933791E-11                  254022           101325.203125        288.123901367188      0.0999834910035133    0.000259600525724036                       0 
      -1.96748374187094                       0        1.22509098052979         41.680721282959    2.04032691627237E-11                  254022           101325.203125        288.123901367188      0.0999834910035133    0.000259600569729205                       0 
      -1.96498249124562                       0        1.22509098052979         41.680721282959    2.15522918320682E-11                  254022           101325.203125        288.123901367188      0.0999834910035133    0.000259600613734374                       0 
      -1.96248124062031                       0        1.22509098052979         41.680721282959    2.27013145014128E-11                  254022           101325.203125        288.123901367188      0.0999834910035133    0.000259600657739543                       0 
        -1.959979989995                       0        1.22509098052979         41.680721282959    2.38503371707574E-11                  254022           101325.203125        288.123901367188      0.0999834910035133    0.000259600701744712                       0 
      -1.95747873936968                       0        1.22509098052979         41.680721282959     2.4999359840102E-11                  254022           101325.203125        288.123901367188      0.0999834910035133     0.00025960074574988                       0 
      -1.95497748874437                       0        1.22509098052979         41.680721282959    2.61483825094466E-11                  254022           101325.203125        288.123901367188      0.0999834910035133    0.000259600789755049                       0 
      -1.95247623811906                       0        1.22509098052979         41.680721282959    2.72974051787912E-11                  254022           101325.203125        288.123901367188      0.0999834910035133    0.000259600833760218                       0 
      -1.94997498749375                       0        1.22509098052979         41.680721282959    2.84464278481358E-11                  254022           101325.203125        288.123901367188      0.0999834910035133    0.000259600877765388                       0 
      -1.94747373686843                       0        1.22509098052979         41.680721282959    2.95892129618142E-11                  254022           101325.203125        288.123901367188      0.0999834910035133    0.000259600916827737                       0 
      -1.94497248624312                       0        1.22509098052979         41.680721282959    3.07256962459345E-11                  254022           101325.203125        288.123901367188      0.0999834910035133    0.000259600950896334                       0 
      -1.94247123561781                       0        1.22509098052979         41.680721282959    3.18621795300548E-11                  254022           101325.203125        288.123901367188      0.0999834910035133    0.000259600984964931                       0 
       -1.9399699849925                       0        1.22509098052979         41.680721282959     3.2998662814175E-11                  254022           101325.203125        288.123901367188      0.0999834910035133    0.000259601019033528                       0 
      -1.93746873436718                       0        1.22509098052979         41.680721282959    3.41351460982952E-11                  254022           101325.203125        288.123901367188      0.0999834910035133    0.000259601053102125                       0 
      -1.93496748374187                       0        1.22509098052979         41.680721282959    3.52716293824155E-11                  254022           101325.203125        288.123901367188      0.0999834910035133    0.000259601087170722                       0 
      -1.93246623311656                       0        1.22509098052979         41.680721282959    3.64081126665357E-11                  254022           101325.203125        288.123901367188      0.0999834910035133     0.00025960112123932                       0 
      -1.92996498249125                       0        1.22509098052979         41.680721282959    3.75445959506559E-11                  254022           101325.203125        288.123901367188      0.0999834910035133    0.000259601155307917                       0 
      -1.92746373186593                       0        1.22509098052979         41.680721282959    3.86810792347762E-11                  254022           101325.203125        288.123901367188      0.0999834910035133    0.000259601189376514                       0 
      -1.92496248124062                       0        1.22509098052979         41.680721282959    3.98175625188964E-11                  254022           101325.203125        288.123901367188      0.0999834910035133    0.000259601223445111                       0 
      -1.92246123061531                       0        1.22509098052979         41.680721282959    4.09540458030166E-11                  254022           101325.203125        288.123901367188      0.0999834910035133    0.000259601257513708                       0 
      -1.91995997998999                       0        1.22509098052979         41.680721282959    4.20905290871369E-11                  254022           101325.203125        288.123901367188      0.0999834910035133    0.000259601291582305                       0 
      -1.91745872936468                       0        1.22509098052979         41.680721282959    4.32270123712572E-11                  254022           101325.203125        288.123901367188      0.0999834910035133    0.000259601325650902                       0 
      -1.91495747873937                       0        1.22509098052979         41.680721282959    4.43634956553774E-11                  254022           101325.203125        288.123901367188      0.0999834910035133    0.000259601359719499                       0 
      -1.91245622811406                       0        1.22509098052979         41.680721282959    4.54999789394976E-11                  254022           101325.203125        288.123901367188      0.0999834910035133    0.000259601393788096                       0 
      -1.90995497748874                       0        1.22509098052979         41.680721282959    4.66364622236179E-11                  254022           101325.203125        288.123901367188      0.0999834910035133    0.000259601427856694                       0 
      -1.90745372686343                       0        1.22509098052979         41.680721282959    4.77729455077381E-11                  254022           101325.203125        288.123901367188      0.0999834910035133    0.000259601461925291                       0 
      -1.90495247623812                       0        1.22509098052979         41.680721282959    4.89094287918583E-11                  254022           101325.203125        288.123901367188      0.0999834910035133    0.000259601495993888                       0 
      -1.90245122561281                       0        1.22509098052979         41.680721282959    5.00459120759786E-11                  254022           101325.203125        288.123901367188      0.0999834910035133    0.000259601530062485                       0 
      -1.89994997498749                       0        1.22509098052979         41.680721282959    5.11823953600988E-11                  254022           101325.203125        288.123901367188      0.0999834910035133    0.000259601564131082                       0 
      -1.89744872436218                       0        1.22509098052979         41.680721282959     5.2318878644219E-11                  254022           101325.203125        288.123901367188      0.0999834910035133    0.000259601598199679                       0 
      -1.89494747373687                       0        1.22509098052979         41.680721282959    5.34735633159465E-11                  254022           101325.203125        288.123901367188      0.0999834910035133     0.00025960163791745                       0 
      -1.89244622311156                       0        1.22509098052979         41.680721282959    5.46283408879183E-11                  254022           101325.203125        288.123901367188      0.0999834910035133    0.000259601677664054                       0 
      -1.88994497248624                       0        1.22509098052979         41.680721282959      5.578311845989E-11                  254022           101325.203125        288.123901367188      0.0999834910035133    0.000259601717410658                       0 
      -1.88744372186093                       0        1.22509098052979         41.680721282959    5.69378960318617E-11                  254022           101325.203125        288.123901367188      0.0999834910035133    0.000259601757157263                       0 
      -1.88494247123562                       0        1.22509098052979         41.680721282959    5.80926736038335E-11                  254022           101325.203125        288.123901367188      0.0999834910035133    0.000259601796903867                       0 
      -1.88244122061031                       0        1.22509098052979         41.680721282959    5.92474511758052E-11                  254022           101325.203125        288.123901367188      0.0999834910035133    0.000259601836650471                       0 
      -1.87993996998499                       0        1.22509098052979         41.680721282959     6.0402228747777E-11                  254022           101325.203125        288.123901367188      0.0999834910035133    0.000259601876397075                       0 
      -1.87743871935968                       0        1.22509098052979         41.680721282959    6.15570063197488E-11                  254022           101325.203125        288.123901367188      0.0999834910035133     0.00025960191614368                       0 
      -1.87493746873437                       0        1.22509098052979         41.680721282959    6.27117838917205E-11                  254022           101325.203125        288.123901367188      0.0999834910035133    0.000259601955890284                       0 
      -1.87243621810905                       0        1.22509098052979         41.680721282959    6.38665614636922E-11                  254022           101325.203125        288.123901367188      0.0999834910035133    0.000259601995636888                       0 
      -1.86993496748374                       0        1.22509098052979         41.680721282959     6.5021339035664E-11                  254022           101325.203125        288.123901367188      0.0999834910035133    0.000259602035383492                       0 
      -1.86743371685843                       0        1.22509098052979         41.680721282959    6.61761166076358E-11                  254022           101325.203125        288.123901367188      0.0999834910035133    0.000259602075130097                       0 
      -1.86493246623312                       0        1.22509098052979         41.680721282959    6.73308941796075E-11                  254022           101325.203125        288.123901367188      0.0999834910035133    0.000259602114876701                       0 
       -1.8624312156078                       0        1.22509098052979         41.680721282959    6.84856717515792E-11                  254022           101325.203125        288.123901367188      0.0999834910035133    0.000259602154623305                       0 
      -1.85992996498249                       0        1.22509098052979         41.680721282959     6.9640449323551E-11                  254022           101325.203125        288.123901367188      0.0999834910035133    0.000259602194369909                       0 
      -1.85742871435718                       0        1.22509098052979         41.680721282959    7.07952268955228E-11                  254022           101325.203125        288.123901367188      0.0999834910035133    0.000259602234116514                       0 
      -1.85492746373187                       0        1.22509098052979         41.680721282959    7.19500044674945E-11                  254022           101325.203125        288.123901367188      0.0999834910035133    0.000259602273863118                       0 
      -1.85242621310655                       0        1.22509098052979         41.680721282959    7.31047820394663E-11                  254022           101325.203125        288.123901367188      0.0999834910035133    0.000259602313609722                       0 
      -1.84992496248124                       0        1.22509098052979         41.680721282959     7.4259559611438E-11                  254022           101325.203125        288.123901367188      0.0999834910035133    0.000259602353356326                       0 
      -1.84742371185593                       0        1.22509098052979         41.680721282959    7.54143371834098E-11                  254022           101325.203125        288.123901367188      0.0999834910035133     0.00025960239310293                       0 
      -1.84492246123062                       0        1.22509098052979         41.680721282959     7.6567847530041E-11                  254022           101325.203125        288.123901367188      0.0999834910035133    0.000259602432150664                       0 
       -1.8424212106053                       0        1.22509098052979         41.680721282959    7.77200513188723E-11                  254022           101325.203125        288.123901367188      0.0999834910035133    0.000259602470477836                       0 
      -1.83991995997999                       0        1.22509098052979         41.680721282959    7.88722551077035E-11                  254022           101325.203125        288.123901367188      0.0999834910035133    0.000259602508805008                       0 
      -1.83741870935468                       0        1.22509098052979         41.680721282959    8.00244588965347E-11                  254022           101325.203125        288.123901367188      0.0999834910035133     0.00025960254713218                       0 
      -1.83491745872936                       0        1.22509098052979         41.680721282959     8.1176662685366E-11                  254022           101325.203125        288.123901367188      0.0999834910035133    0.000259602585459351                       0 
      -1.83241620810405                       0        1.22509098052979         41.680721282959    8.23288664741972E-11                  254022           101325.203125        288.123901367188      0.0999834910035133    0.000259602623786523                       0 
      -1.82991495747874                       0        1.22509098052979         41.680721282959    8.34810702630284E-11                  254022           101325.203125        288.123901367188      0.0999834910035133    0.000259602662113695                       0 
      -1.82741370685343                       0        1.22509098052979         41.680721282959    8.46332740518596E-11                  254022           101325.203125        288.123901367188      0.0999834910035133    0.000259602700440867                       0 
      -1.82491245622811                       0        1.22509098052979         41.680721282959    8.57854778406908E-11                  254022           101325.203125        288.123901367188      0.0999834910035133    0.000259602738768038                       0 
       -1.8224112056028                       0        1.22509098052979         41.680721282959     8.6937681629522E-11                  254022           101325.203125        288.123901367188      0.0999834910035133     0.00025960277709521                       0 
      -1.81990995497749                       0        1.22509098052979         41.680721282959    8.80898854183533E-11                  254022           101325.203125        288.123901367188      0.0999834910035133    0.000259602815422382                       0 
      -1.81740870435218                       0        1.22509098052979         41.680721282959    8.92420892071845E-11                  254022           101325.203125        288.123901367188      0.0999834910035133    0.000259602853749554                       0 
      -1.81490745372686                       0        1.22509098052979         41.680721282959    9.03942929960157E-11                  254022           101325.203125        288.123901367188      0.0999834910035133    0.000259602892076725                       0 
      -1.81240620310155                       0        1.22509098052979         41.680721282959    9.15464967848469E-11                  254022           101325.203125        288.123901367188      0.0999834910035133    0.000259602930403897                       0 
      -1.80990495247624                       0        1.22509098052979         41.680721282959    9.26987005736782E-11                  254022           101325.203125        288.123901367188      0.0999834910035133    0.000259602968731069                       0 
      -1.80740370185093                       0        1.22509098052979         41.680721282959    9.38509043625094E-11                  254022           101325.203125        288.123901367188      0.0999834910035133    0.000259603007058241                       0 
      -1.80490245122561                       0        1.22509098052979         41.680721282959    9.50031081513405E-11                  254022           101325.203125        288.123901367188      0.0999834910035133    0.000259603045385413                       0 
       -1.8024012006003                       0        1.22509098052979         41.680721282959    9.61553119401718E-11                  254022           101325.203125        288.123901367188      0.0999834910035133    0.000259603083712584                       0 
      -1.79989994997499                       0        1.22509098052979         41.680721282959     9.7307515729003E-11                  254022           101325.203125        288.123901367188      0.0999834910035133    0.000259603122039756                       0 
      -1.79739869934967                       0        1.22509098052979         41.680721282959    9.84597195178342E-11                  254022           101325.203125        288.123901367188      0.0999834910035133    0.000259603160366928                       0 
      -1.79489744872436                       0        1.22509098052979         41.680721282959    9.96119233066654E-11                  254022           101325.203125        288.123901367188      0.0999834910035133      0.0002596031986941                       0 
      -1.79239619809905                       0        1.22509098052979         41.680721282959    1.00769099742102E-10                  254022           101325.203125        288.123901367188      0.0999834910035133    0.000259603238426288                       0 
      -1.78989494747374                       0        1.22509098052979         41.680721282959    1.01926327198926E-10                  254022           101325.203125        288.123901367188      0.0999834910035133    0.000259603278172892                       0 
      -1.78739369684842                       0        1.22509098052979         41.680721282959    1.03083554655751E-10                  254022           101325.203125        288.123901367188      0.0999834910035133    0.000259603317919496                       0 
      -1.78489244622311                       0        1.22509098052979         41.680721282959    1.04240782112576E-10                  254022           101325.203125        288.123901367188      0.0999834910035133      0.0002596033576661                       0 
       -1.7823911955978                       0        1.22509098052979         41.680721282959      1.053980095694E-10                  254022           101325.203125        288.123901367188      0.0999834910035133    0.000259603397412705                       0 
      -1.77988994497249                       0        1.22509098052979         41.680721282959    1.06555237026225E-10                  254022           101325.203125        288.123901367188      0.0999834910035133    0.000259603437159309                       0 
      -1.77738869434717                       0        1.22509098052979         41.680721282959     1.0771246448305E-10                  254022           101325.203125        288.123901367188      0.0999834910035133    0.000259603476905913                       0 
      -1.77488744372186                       0        1.22509098052979         41.680721282959    1.08869691939874E-10                  254022           101325.203125        288.123901367188      0.0999834910035133    0.000259603516652517                       0 
      -1.77238619309655                       0        1.22509098052979         41.680721282959    1.10026919396699E-10                  254022           101325.203125        288.123901367188      0.0999834910035133    0.000259603556399122                       0 
      -1.76988494247124                       0        1.22509098052979         41.680721282959    1.11184146853524E-10                  254022           101325.203125        288.123901367188      0.0999834910035133    0.000259603596145726                       0 
      -1.76738369184592                       0        1.22509098052979         41.680721282959    1.12341374310348E-10                  254022           101325.203125        288.123901367188      0.0999834910035133     0.00025960363589233                       0 
      -1.76488244122061                       0        1.22509098052979         41.680721282959    1.13498601767173E-10                  254022           101325.203125        288.123901367188      0.0999834910035133    0.000259603675638934                       0 
       -1.7623811905953                       0        1.22509098052979         41.680721282959    1.14655829223998E-10                  254022           101325.203125        288.123901367188      0.0999834910035133    0.000259603715385539                       0 
      -1.75987993996998                       0        1.22509098052979         41.680721282959    1.15813056680822E-10                  254022           101325.203125        288.123901367188      0.0999834910035133    0.000259603755132143                       0 
      -1.75737868934467                       0        1.22509098052979         41.680721282959    1.16970284137647E-10                  254022           101325.203125        288.123901367188      0.0999834910035133    0.000259603794878747                       0 
      -1.75487743871936                       0        1.22509098052979         41.680721282959    1.18127511594472E-10                  254022           101325.203125        288.123901367188      0.0999834910035133    0.000259603834625351                       0 
      -1.75237618809405                       0        1.22509098052979         41.680721282959    1.19284739051296E-10                  254022           101325.203125        288.123901367188      0.0999834910035133    0.000259603874371956                       0 
      -1.74987493746873                       0        1.22509098052979         41.680721282959    1.20441966508121E-10                  254022           101325.203125        288.123901367188      0.0999834910035133     0.00025960391411856                       0 
      -1.74737368684342                       0        1.22509098052979         41.680721282959    1.21599193964946E-10                  254022           101325.203125        288.123901367188      0.0999834910035133    0.000259603953865164                       0 
      -1.74487243621811                       0        1.22509098052979         41.680721282959     1.2275642142177E-10                  254022           101325.203125        288.123901367188      0.0999834910035133    0.000259603993611768                       0 
       -1.7423711855928                       0        1.22509098052979         41.680721282959    1.23948598350388E-10                  254022           101325.203125        288.123901367188      0.0999834910035133    0.000259604032666667                       0 
      -1.73986993496748                       0        1.22509098052979         41.680721282959    1.25177549263973E-10                  254022           101325.203125        288.123901367188      0.0999834910035133     0.00025960407099375                       0 
      -1.73736868434217                       0        1.22509098052979         41.680721282959    1.26406500177559E-10                  254022           101325.203125        288.123901367188      0.0999834910035133    0.000259604109320832                       0 
      -1.73486743371686                       0        1.22509098052979         41.680721282959    1.27635451091144E-10                  254022           101325.203125        288.123901367188      0.0999834910035133    0.000259604147647915                       0 
      -1.73236618309155                       0        1.22509098052979         41.680721282959    1.28864402004729E-10                  254022           101325.203125        288.123901367188      0.0999834910035133    0.000259604185974998                       0 
      -1.72986493246623                       0        1.22509098052979         41.680721282959    1.30093352918315E-10                  254022           101325.203125        288.123901367188      0.0999834910035133     0.00025960422430208                       0 
      -1.72736368184092                       0        1.22509098052979         41.680721282959      1.313223038319E-10                  254022           101325.203125        288.123901367188      0.0999834910035133    0.000259604262629163                       0 
      -1.72486243121561                       0        1.22509098052979         41.680721282959    1.32551254745485E-10                  254022           101325.203125        288.123901367188      0.0999834910035133    0.000259604300956245                       0 
       -1.7223611805903                       0        1.22509098052979         41.680721282959    1.33780205659071E-10                  254022           101325.203125        288.123901367188      0.0999834910035133    0.000259604339283328                       0 