VARIABLES = "x"
 "y"
 "Density"
 "Momentum_x"
 "Momentum_y"
 "Energy"
 "Pressure"
 "Temperature"
 "Mach"
 "C<sub>p</sub>"
 "Roe_Dissipation"
ZONE
DT=(DOUBLE,DOUBLE,DOUBLE,DOUBLE,DOUBLE,DOUBLE,DOUBLE,DOUBLE,DOUBLE,DOUBLE,DOUBLE)
                     -2                       0        1.22509098052979        41.6797981262207    5.42705355481565E-12                  254022           101325.203125        288.123992919922      0.0999812707304955    0.000303887092741206                       0 
      -1.99749874937469                       0        1.22509098052979        41.6797981262207    6.73296720338795E-12                  254022           101325.203125        288.123992919922      0.0999812707304955    0.000303887136746375                       0 
      -1.99499749874937                       0        1.22509098052979        41.6797981262207    8.03888085196037E-12                  254022           101325.203125        288.123992919922      0.0999812707304955    0.000303887180751544                       0 
      -1.99249624812406                       0        1.22509098052979        41.6797981262207    9.34479450053266E-12                  254022           101325.203125        288.123992919922      0.0999812707304955    0.000303887224756713                       0 
      -1.98999499749875                       0        1.22509098052979        41.6797981262207     1.0650708149105E-11                  254022           101325.203125        288.123992919922      0.0999812707304955    0.000303887268761882                       0 
      -1.98749374687344                       0        1.22509098052979        41.6797981262207    1.19566217976773E-11                  254022           101325.203125        288.123992919922      0.0999812707304955    0.000303887312767051                       0 
      -1.98499249624812                       0        1.22509098052979        41.6797981262207    1.32625354462497E-11                  254022           101325.203125        288.123992919922      0.0999812707304955     0.00030388735677222                       0 
      -1.98249124562281                       0        1.22509098052979        41.6797981262207     1.4568449094822E-11                  254022           101325.203125        288.123992919922      0.0999812707304955    0.000303887400777389                       0 
       -1.9799899949975                       0        1.22509098052979        41.6797981262207    1.58743627433943E-11                  254022           101325.203125        288.123992919922      0.0999812707304955    0.000303887444782558                       0 
      -1.97748874437219                       0        1.22509098052979        41.6797981262207    1.71802763919667E-11                  254022           101325.203125        288.123992919922      0.0999812707304955    0.000303887488787727                       0 
      -1.97498749374687                       0        1.22509098052979        41.6797981262207     1.8486190040539E-11                  254022           101325.203125        288.123992919922      0.0999812707304955    0.000303887532792896                       0 
      -1.97248624312156                       0        1.22509098052979        41.6797981262207    1.97921036891113E-11                  254022           101325.203125        288.123992919922      0.0999812707304955    0.000303887576798065                       0 
      -1.96998499249625                       0        1.22509098052979        41.6797981262207    2.10980173376837E-11                  254022           101325.203125        288.123992919922      0.0999812707304955    0.000303887620803234                       0 
      -1.96748374187094                       0        1.22509098052979        41.6797981262207     2.2403930986256E-11                  254022           101325.203125        288.123992919922      0.0999812707304955    0.000303887664808403                       0 
      -1.96498249124562                       0        1.22509098052979        41.6797981262207    2.37098446348283E-11                  254022           101325.203125        288.123992919922      0.0999812707304955    0.000303887708813572                       0 
      -1.96248124062031                       0        1.22509098052979        41.6797981262207    2.50157582834006E-11                  254022           101325.203125        288.123992919922      0.0999812707304955    0.000303887752818741                       0 
        -1.959979989995                       0        1.22509098052979        41.6797981262207     2.6321671931973E-11                  254022           101325.203125        288.123992919922      0.0999812707304955     0.00030388779682391                       0 
      -1.95747873936968                       0        1.22509098052979        41.6797981262207    2.76275855805453E-11                  254022           101325.203125        288.123992919922      0.0999812707304955    0.000303887840829079                       0 
      -1.95497748874437                       0        1.22509098052979        41.6797981262207    2.89334992291176E-11                  254022           101325.203125        288.123992919922      0.0999812707304955    0.000303887884834248                       0 
      -1.95247623811906                       0        1.22509098052979        41.6797981262207      3.023941287769E-11                  254022           101325.203125        288.123992919922      0.0999812707304955    0.000303887928839417                       0 
      -1.94997498749375                       0        1.22509098052979        41.6797981262207    3.15453265262623E-11                  254022           101325.203125        288.123992919922      0.0999812707304955    0.000303887972844586                       0 
      -1.94747373686843                       0        1.22509098052979        41.6797981262207    3.28454640724852E-11                  254022           101325.203125        288.123992919922      0.0999812707304955    0.000303888011906935                       0 
      -1.94497248624312                       0        1.22509098052979        41.6797981262207    3.41397659974385E-11                  254022           101325.203125        288.123992919922      0.0999812707304955    0.000303888045975532                       0 
      -1.94247123561781                       0        1.22509098052979        41.6797981262207    3.54340679223916E-11                  254022           101325.203125        288.123992919922      0.0999812707304955    0.000303888080044129                       0 
       -1.9399699849925                       0        1.22509098052979        41.6797981262207    3.67283698473447E-11                  254022           101325.203125        288.123992919922      0.0999812707304955    0.000303888114112727                       0 
      -1.93746873436718                       0        1.22509098052979        41.6797981262207    3.80226717722978E-11                  254022           101325.203125        288.123992919922      0.0999812707304955    0.000303888148181324                       0 
      -1.93496748374187                       0        1.22509098052979        41.6797981262207    3.93169736972511E-11                  254022           101325.203125        288.123992919922      0.0999812707304955    0.000303888182249921                       0 
      -1.93246623311656                       0        1.22509098052979        41.6797981262207    4.06112756222042E-11                  254022           101325.203125        288.123992919922      0.0999812707304955    0.000303888216318518                       0 
      -1.92996498249125                       0        1.22509098052979        41.6797981262207    4.19055775471573E-11                  254022           101325.203125        288.123992919922      0.0999812707304955    0.000303888250387115                       0 
      -1.92746373186593                       0        1.22509098052979        41.6797981262207    4.31998794721106E-11                  254022           101325.203125        288.123992919922      0.0999812707304955    0.000303888284455712                       0 
      -1.92496248124062                       0        1.22509098052979        41.6797981262207    4.44941813970637E-11                  254022           101325.203125        288.123992919922      0.0999812707304955    0.000303888318524309                       0 
      -1.92246123061531                       0        1.22509098052979        41.6797981262207    4.57884833220168E-11                  254022           101325.203125        288.123992919922      0.0999812707304955    0.000303888352592906                       0 
      -1.91995997998999                       0        1.22509098052979        41.6797981262207    4.70827852469701E-11                  254022           101325.203125        288.123992919922      0.0999812707304955    0.000303888386661504                       0 
      -1.91745872936468                       0        1.22509098052979        41.6797981262207    4.83770871719232E-11                  254022           101325.203125        288.123992919922      0.0999812707304955    0.000303888420730101                       0 
      -1.91495747873937                       0        1.22509098052979        41.6797981262207    4.96713890968763E-11                  254022           101325.203125        288.123992919922      0.0999812707304955    0.000303888454798698                       0 
      -1.91245622811406                       0        1.22509098052979        41.6797981262207    5.09656910218294E-11                  254022           101325.203125        288.123992919922      0.0999812707304955    0.000303888488867295                       0 
      -1.90995497748874                       0        1.22509098052979        41.6797981262207    5.22599929467827E-11                  254022           101325.203125        288.123992919922      0.0999812707304955    0.000303888522935892                       0 
      -1.90745372686343                       0        1.22509098052979        41.6797981262207    5.35542948717358E-11                  254022           101325.203125        288.123992919922      0.0999812707304955    0.000303888557004489                       0 
      -1.90495247623812                       0        1.22509098052979        41.6797981262207    5.48485967966889E-11                  254022           101325.203125        288.123992919922      0.0999812707304955    0.000303888591073086                       0 
      -1.90245122561281                       0        1.22509098052979        41.6797981262207    5.61428987216421E-11                  254022           101325.203125        288.123992919922      0.0999812707304955    0.000303888625141683                       0 
      -1.89994997498749                       0        1.22509098052979        41.6797981262207    5.74372006465953E-11                  254022           101325.203125        288.123992919922      0.0999812707304955    0.000303888659210281                       0 
      -1.89744872436218                       0        1.22509098052979        41.6797981262207    5.87315025715484E-11                  254022           101325.203125        288.123992919922      0.0999812707304955    0.000303888693278878                       0 
      -1.89494747373687                       0        1.22509098052979        41.6797981262207     6.0058102035687E-11                  254022           101325.203125        288.123992919922      0.0999812707304955    0.000303888732996648                       0 
      -1.89244622311156                       0        1.22509098052979        41.6797981262207    6.13848663471079E-11                  254022           101325.203125        288.123992919922      0.0999812707304955    0.000303888772743253                       0 
      -1.88994497248624                       0        1.22509098052979        41.6797981262207    6.27116306585288E-11                  254022           101325.203125        288.123992919922      0.0999812707304955    0.000303888812489857                       0 
      -1.88744372186093                       0        1.22509098052979        41.6797981262207    6.40383949699496E-11                  254022           101325.203125        288.123992919922      0.0999812707304955    0.000303888852236461                       0 
      -1.88494247123562                       0        1.22509098052979        41.6797981262207    6.53651592813706E-11                  254022           101325.203125        288.123992919922      0.0999812707304955    0.000303888891983065                       0 
      -1.88244122061031                       0        1.22509098052979        41.6797981262207    6.66919235927915E-11                  254022           101325.203125        288.123992919922      0.0999812707304955     0.00030388893172967                       0 
      -1.87993996998499                       0        1.22509098052979        41.6797981262207    6.80186879042124E-11                  254022           101325.203125        288.123992919922      0.0999812707304955    0.000303888971476274                       0 
      -1.87743871935968                       0        1.22509098052979        41.6797981262207    6.93454522156334E-11                  254022           101325.203125        288.123992919922      0.0999812707304955    0.000303889011222878                       0 
      -1.87493746873437                       0        1.22509098052979        41.6797981262207    7.06722165270542E-11                  254022           101325.203125        288.123992919922      0.0999812707304955    0.000303889050969482                       0 
      -1.87243621810905                       0        1.22509098052979        41.6797981262207    7.19989808384751E-11                  254022           101325.203125        288.123992919922      0.0999812707304955    0.000303889090716087                       0 
      -1.86993496748374                       0        1.22509098052979        41.6797981262207    7.33257451498961E-11                  254022           101325.203125        288.123992919922      0.0999812707304955    0.000303889130462691                       0 
      -1.86743371685843                       0        1.22509098052979        41.6797981262207    7.46525094613169E-11                  254022           101325.203125        288.123992919922      0.0999812707304955    0.000303889170209295                       0 
      -1.86493246623312                       0        1.22509098052979        41.6797981262207    7.59792737727378E-11                  254022           101325.203125        288.123992919922      0.0999812707304955    0.000303889209955899                       0 
       -1.8624312156078                       0        1.22509098052979        41.6797981262207    7.73060380841587E-11                  254022           101325.203125        288.123992919922      0.0999812707304955    0.000303889249702504                       0 
      -1.85992996498249                       0        1.22509098052979        41.6797981262207    7.86328023955797E-11                  254022           101325.203125        288.123992919922      0.0999812707304955    0.000303889289449108                       0 
      -1.85742871435718                       0        1.22509098052979        41.6797981262207    7.99595667070005E-11                  254022           101325.203125        288.123992919922      0.0999812707304955    0.000303889329195712                       0 
      -1.85492746373187                       0        1.22509098052979        41.6797981262207    8.12863310184214E-11                  254022           101325.203125        288.123992919922      0.0999812707304955    0.000303889368942316                       0 
      -1.85242621310655                       0        1.22509098052979        41.6797981262207    8.26130953298424E-11                  254022           101325.203125        288.123992919922      0.0999812707304955     0.00030388940868892                       0 
      -1.84992496248124                       0        1.22509098052979        41.6797981262207    8.39398596412632E-11                  254022           101325.203125        288.123992919922      0.0999812707304955    0.000303889448435525                       0 
      -1.84742371185593                       0        1.22509098052979        41.6797981262207    8.52666239526841E-11                  254022           101325.203125        288.123992919922      0.0999812707304955    0.000303889488182129                       0 
      -1.84492246123062                       0        1.22509098052979        41.6797981262207    8.66047376357903E-11                  254022           101325.203125        288.123992919922      0.0999812707304955    0.000303889527229863                       0 
       -1.8424212106053                       0        1.22509098052979        41.6797981262207     8.7954552955242E-11                  254022           101325.203125        288.123992919922      0.0999812707304955    0.000303889565557035                       0 
      -1.83991995997999                       0        1.22509098052979        41.6797981262207    8.93043682746935E-11                  254022           101325.203125        288.123992919922      0.0999812707304955    0.000303889603884206                       0 
      -1.83741870935468                       0        1.22509098052979        41.6797981262207     9.0654183594145E-11                  254022           101325.203125        288.123992919922      0.0999812707304955    0.000303889642211378                       0 
      -1.83491745872936                       0        1.22509098052979        41.6797981262207    9.20039989135966E-11                  254022           101325.203125        288.123992919922      0.0999812707304955     0.00030388968053855                       0 
      -1.83241620810405                       0        1.22509098052979        41.6797981262207    9.33538142330481E-11                  254022           101325.203125        288.123992919922      0.0999812707304955    0.000303889718865722                       0 
      -1.82991495747874                       0        1.22509098052979        41.6797981262207    9.47036295524996E-11                  254022           101325.203125        288.123992919922      0.0999812707304955    0.000303889757192893                       0 
      -1.82741370685343                       0        1.22509098052979        41.6797981262207    9.60534448719513E-11                  254022           101325.203125        288.123992919922      0.0999812707304955    0.000303889795520065                       0 
      -1.82491245622811                       0        1.22509098052979        41.6797981262207    9.74032601914028E-11                  254022           101325.203125        288.123992919922      0.0999812707304955    0.000303889833847237                       0 
       -1.8224112056028                       0        1.22509098052979        41.6797981262207    9.87530755108543E-11                  254022           101325.203125        288.123992919922      0.0999812707304955    0.000303889872174409                       0 
      -1.81990995497749                       0        1.22509098052979        41.6797981262207    1.00102890830306E-10                  254022           101325.203125        288.123992919922      0.0999812707304955     0.00030388991050158                       0 
      -1.81740870435218                       0        1.22509098052979        41.6797981262207    1.01452706149757E-10                  254022           101325.203125        288.123992919922      0.0999812707304955    0.000303889948828752                       0 
      -1.81490745372686                       0        1.22509098052979        41.6797981262207    1.02802521469209E-10                  254022           101325.203125        288.123992919922      0.0999812707304955    0.000303889987155924                       0 
      -1.81240620310155                       0        1.22509098052979        41.6797981262207     1.0415233678866E-10                  254022           101325.203125        288.123992919922      0.0999812707304955    0.000303890025483096                       0 
      -1.80990495247624                       0        1.22509098052979        41.6797981262207    1.05502152108112E-10                  254022           101325.203125        288.123992919922      0.0999812707304955    0.000303890063810267                       0 
      -1.80740370185093                       0        1.22509098052979        41.6797981262207    1.06851967427564E-10                  254022           101325.203125        288.123992919922      0.0999812707304955    0.000303890102137439                       0 
      -1.80490245122561                       0        1.22509098052979        41.6797981262207    1.08201782747015E-10                  254022           101325.203125        288.123992919922      0.0999812707304955    0.000303890140464611                       0 
       -1.8024012006003                       0        1.22509098052979        41.6797981262207    1.09551598066467E-10                  254022           101325.203125        288.123992919922      0.0999812707304955    0.000303890178791783                       0 
      -1.79989994997499                       0        1.22509098052979        41.6797981262207    1.10901413385918E-10                  254022           101325.203125        288.123992919922      0.0999812707304955    0.000303890217118955                       0 
      -1.79739869934967                       0        1.22509098052979        41.6797981262207     1.1225122870537E-10                  254022           101325.203125        288.123992919922      0.0999812707304955    0.000303890255446126                       0 
      -1.79489744872436                       0        1.22509098052979        41.6797981262207    1.13601044024821E-10                  254022           101325.203125        288.123992919922      0.0999812707304955    0.000303890293773298                       0 
      -1.79239619809905                       0        1.22509098052979        41.6797981262207    1.14990442208767E-10                  254022           101325.203125        288.123992919922      0.0999812707304955    0.000303890327885068                       0 
      -1.78989494747374                       0        1.22509098052979        41.6797981262207    1.16380246529096E-10                  254022           101325.203125        288.123992919922      0.0999812707304955    0.000303890361953586                       0 
      -1.78739369684842                       0        1.22509098052979        41.6797981262207    1.17770050849425E-10                  254022           101325.203125        288.123992919922      0.0999812707304955    0.000303890396022103                       0 
      -1.78489244622311                       0        1.22509098052979        41.6797981262207    1.19159855169754E-10                  254022           101325.203125        288.123992919922      0.0999812707304955    0.000303890430090621                       0 
       -1.7823911955978                       0        1.22509098052979        41.6797981262207    1.20549659490083E-10                  254022           101325.203125        288.123992919922      0.0999812707304955    0.000303890464159139                       0 
      -1.77988994497249                       0        1.22509098052979        41.6797981262207    1.21939463810413E-10                  254022           101325.203125        288.123992919922      0.0999812707304955    0.000303890498227657                       0 
      -1.77738869434717                       0        1.22509098052979        41.6797981262207    1.23329268130742E-10                  254022           101325.203125        288.123992919922      0.0999812707304955    0.000303890532296175                       0 
      -1.77488744372186                       0        1.22509098052979        41.6797981262207    1.24719072451071E-10                  254022           101325.203125        288.123992919922      0.0999812707304955    0.000303890566364693                       0 
      -1.77238619309655                       0        1.22509098052979        41.6797981262207      1.261088767714E-10                  254022           101325.203125        288.123992919922      0.0999812707304955    0.000303890600433211                       0 
      -1.76988494247124                       0        1.22509098052979        41.6797981262207    1.27498681091729E-10                  254022           101325.203125        288.123992919922      0.0999812707304955    0.000303890634501729                       0 
      -1.76738369184592                       0        1.22509098052979        41.6797981262207    1.28888485412058E-10                  254022           101325.203125        288.123992919922      0.0999812707304955    0.000303890668570247                       0 
      -1.76488244122061                       0        1.22509098052979        41.6797981262207    1.30278289732387E-10                  254022           101325.203125        288.123992919922      0.0999812707304955    0.000303890702638765                       0 
       -1.7623811905953                       0        1.22509098052979        41.6797981262207    1.31668094052716E-10                  254022           101325.203125        288.123992919922      0.0999812707304955    0.000303890736707283                       0 
      -1.75987993996998                       0        1.22509098052979        41.6797981262207    1.33057898373045E-10                  254022           101325.203125        288.123992919922      0.0999812707304955    0.000303890770775801                       0 
      -1.75737868934467                       0        1.22509098052979        41.6797981262207    1.34447702693374E-10                  254022           101325.203125        288.123992919922      0.0999812707304955    0.000303890804844319                       0 
      -1.75487743871936                       0        1.22509098052979        41.6797981262207    1.35837507013704E-10                  254022           101325.203125        288.123992919922      0.0999812707304955    0.000303890838912837                       0 
      -1.75237618809405                       0        1.22509098052979        41.6797981262207    1.37227311334033E-10                  254022           101325.203125        288.123992919922      0.0999812707304955    0.000303890872981354                       0 
      -1.74987493746873                       0        1.22509098052979        41.6797981262207    1.38617115654362E-10                  254022           101325.203125        288.123992919922      0.0999812707304955    0.000303890907049872                       0 
      -1.74737368684342                       0        1.22509098052979        41.6797981262207    1.40006919974691E-10                  254022           101325.203125        288.123992919922      0.0999812707304955     0.00030389094111839                       0 
      -1.74487243621811                       0        1.22509098052979        41.6797981262207     1.4139672429502E-10                  254022           101325.203125        288.123992919922      0.0999812707304955    0.000303890975186908                       0 
       -1.7423711855928                       0        1.22509098052979        41.6797981262207    1.42840998476236E-10                  254022           101325.203125        288.123992919922      0.0999812707304955    0.000303891012022249                       0 
      -1.73986993496748                       0        1.22509098052979        41.6797981262207    1.44342586080023E-10                  254022           101325.203125        288.123992919922      0.0999812707304955    0.000303891051768854                       0 
      -1.73736868434217                       0        1.22509098052979        41.6797981262207    1.45844173683809E-10                  254022           101325.203125        288.123992919922      0.0999812707304955    0.000303891091515458                       0 
      -1.73486743371686                       0        1.22509098052979        41.6797981262207    1.47345761287596E-10                  254022           101325.203125        288.123992919922      0.0999812707304955    0.000303891131262062                       0 
      -1.73236618309155                       0        1.22509098052979        41.6797981262207    1.48847348891382E-10                  254022           101325.203125        288.123992919922      0.0999812707304955    0.000303891171008666                       0 
      -1.72986493246623                       0        1.22509098052979        41.6797981262207    1.50348936495168E-10                  254022           101325.203125        288.123992919922      0.0999812707304955     0.00030389121075527                       0 
      -1.72736368184092                       0        1.22509098052979        41.6797981262207    1.51850524098955E-10                  254022           101325.203125        288.123992919922      0.0999812707304955    0.000303891250501875                       0 
      -1.72486243121561                       0        1.22509098052979        41.6797981262207    1.53352111702741E-10                  254022           101325.203125        288.123992919922      0.0999812707304955    0.000303891290248479                       0 
       -1.7223611805903                       0        1.22509098052979        41.6797981262207    1.54853699306528E-10                  254022           101325.203125        288.123992919922      0.0999812707304955    0.000303891329995083                       0 