VARIABLES = "x"
 "y"
 "Density"
 "Momentum_x"
 "Momentum_y"
 "Energy"
 "Pressure"
 "Temperature"
 "Mach"
 "C<sub>p</sub>"
 "Roe_Dissipation"
ZONE
DT=(DOUBLE,DOUBLE,DOUBLE,DOUBLE,DOUBLE,DOUBLE,DOUBLE,DOUBLE,DOUBLE,DOUBLE,DOUBLE)
                     -2                       0        1.22509694099426        41.6616096496582   -1.78812886806462E-11                  254023           101325.796875         288.12451171875      0.0999371036887169      0.0011852290481329                       0 
      -1.99749874937469                       0        1.22509694099426        41.6616096496582    5.78473311424712E-11                  254023           101325.796875         288.12451171875      0.0999371036887169     0.00118522875287241                       0 
      -1.99499749874937                       0        1.22509694099426        41.6616096496582    1.33575950965595E-10                  254023           101325.796875         288.12451171875      0.0999371036887169     0.00118522845761192                       0 
      -1.99249624812406                       0        1.22509694099426        41.6616096496582    2.09304570788713E-10                  254023           101325.796875         288.12451171875      0.0999371036887169     0.00118522816235143                       0 
      -1.98999499749875                       0        1.22509694099426        41.6616096496582     2.8503319061183E-10                  254023           101325.796875         288.12451171875      0.0999371036887169     0.00118522786709094                       0 
      -1.98749374687344                       0        1.22509694099426        41.6616096496582    3.60761810434948E-10                  254023           101325.796875         288.12451171875      0.0999371036887169     0.00118522757183045                       0 
      -1.98499249624812                       0        1.22509694099426        41.6616096496582    4.36490430258072E-10                  254023           101325.796875         288.12451171875      0.0999371036887169     0.00118522727656996                       0 
      -1.98249124562281                       0        1.22509694099426        41.6616096496582    5.12219050081189E-10                  254023           101325.796875         288.12451171875      0.0999371036887169     0.00118522698130948                       0 
       -1.9799899949975                       0        1.22509694099426        41.6616096496582    5.87947669904306E-10                  254023           101325.796875         288.12451171875      0.0999371036887169     0.00118522668604899                       0 
      -1.97748874437219                       0        1.22509694099426        41.6616096496582    6.63676289727431E-10                  254023           101325.796875         288.12451171875      0.0999371036887169      0.0011852263907885                       0 
      -1.97498749374687                       0        1.22509694099426        41.6616096496582    7.39404909550548E-10                  254023           101325.796875         288.12451171875      0.0999371036887169     0.00118522609552801                       0 
      -1.97248624312156                       0        1.22509694099426        41.6616096496582    8.15133529373666E-10                  254023           101325.796875         288.12451171875      0.0999371036887169     0.00118522580026752                       0 
      -1.96998499249625                       0        1.22509694099426        41.6616096496582     8.9086214919679E-10                  254023           101325.796875         288.12451171875      0.0999371036887169     0.00118522550500703                       0 
      -1.96748374187094                       0        1.22509694099426        41.6616096496582    9.66590769019907E-10                  254023           101325.796875         288.12451171875      0.0999371036887169     0.00118522520974654                       0 
      -1.96498249124562                       0        1.22509694099426        41.6616096496582    1.04231938884302E-09                  254023           101325.796875         288.12451171875      0.0999371036887169     0.00118522491448606                       0 
      -1.96248124062031                       0        1.22509694099426        41.6616096496582    1.11804800866614E-09                  254023           101325.796875         288.12451171875      0.0999371036887169     0.00118522461922557                       0 
        -1.959979989995                       0        1.22509694099426        41.6616096496582    1.19377662848927E-09                  254023           101325.796875         288.12451171875      0.0999371036887169     0.00118522432396508                       0 
      -1.95747873936968                       0        1.22509694099426        41.6616096496582    1.26950524831238E-09                  254023           101325.796875         288.12451171875      0.0999371036887169     0.00118522402870459                       0 
      -1.95497748874437                       0        1.22509694099426        41.6616096496582     1.3452338681355E-09                  254023           101325.796875         288.12451171875      0.0999371036887169      0.0011852237334441                       0 
      -1.95247623811906                       0        1.22509694099426        41.6616096496582    1.42096248795863E-09                  254023           101325.796875         288.12451171875      0.0999371036887169     0.00118522343818361                       0 
      -1.94997498749375                       0        1.22509694099426        41.6616096496582    1.49669110778174E-09                  254023           101325.796875         288.12451171875      0.0999371036887169     0.00118522314292312                       0 
      -1.94747373686843                       0        1.22509694099426        41.6616096496582    1.57324875868447E-09                  254023           101325.796875         288.12451171875      0.0999371036887169     0.00118522285048679                       0 
      -1.94497248624312                       0        1.22509694099426        41.6616096496582    1.65064398328463E-09                  254023           101325.796875         288.12451171875      0.0999371036887169     0.00118522256090372                       0 
      -1.94247123561781                       0        1.22509694099426        41.6616096496582    1.72803920788479E-09                  254023           101325.796875         288.12451171875      0.0999371036887169     0.00118522227132064                       0 
       -1.9399699849925                       0        1.22509694099426        41.6616096496582    1.80543443248495E-09                  254023           101325.796875         288.12451171875      0.0999371036887169     0.00118522198173756                       0 
      -1.93746873436718                       0        1.22509694099426        41.6616096496582     1.8828296570851E-09                  254023           101325.796875         288.12451171875      0.0999371036887169     0.00118522169215449                       0 
      -1.93496748374187                       0        1.22509694099426        41.6616096496582    1.96022488168527E-09                  254023           101325.796875         288.12451171875      0.0999371036887169     0.00118522140257141                       0 
      -1.93246623311656                       0        1.22509694099426        41.6616096496582    2.03762010628542E-09                  254023           101325.796875         288.12451171875      0.0999371036887169     0.00118522111298834                       0 
      -1.92996498249125                       0        1.22509694099426        41.6616096496582    2.11501533088558E-09                  254023           101325.796875         288.12451171875      0.0999371036887169     0.00118522082340526                       0 
      -1.92746373186593                       0        1.22509694099426        41.6616096496582    2.19241055548574E-09                  254023           101325.796875         288.12451171875      0.0999371036887169     0.00118522053382219                       0 
      -1.92496248124062                       0        1.22509694099426        41.6616096496582     2.2698057800859E-09                  254023           101325.796875         288.12451171875      0.0999371036887169     0.00118522024423911                       0 
      -1.92246123061531                       0        1.22509694099426        41.6616096496582    2.34720100468606E-09                  254023           101325.796875         288.12451171875      0.0999371036887169     0.00118521995465604                       0 
      -1.91995997998999                       0        1.22509694099426        41.6616096496582    2.42459622928622E-09                  254023           101325.796875         288.12451171875      0.0999371036887169     0.00118521966507296                       0 
      -1.91745872936468                       0        1.22509694099426        41.6616096496582    2.50199145388638E-09                  254023           101325.796875         288.12451171875      0.0999371036887169     0.00118521937548988                       0 
      -1.91495747873937                       0        1.22509694099426        41.6616096496582    2.57938667848653E-09                  254023           101325.796875         288.12451171875      0.0999371036887169     0.00118521908590681                       0 
      -1.91245622811406                       0        1.22509694099426        41.6616096496582    2.65678190308669E-09                  254023           101325.796875         288.12451171875      0.0999371036887169     0.00118521879632373                       0 
      -1.90995497748874                       0        1.22509694099426        41.6616096496582    2.73417712768685E-09                  254023           101325.796875         288.12451171875      0.0999371036887169     0.00118521850674066                       0 
      -1.90745372686343                       0        1.22509694099426        41.6616096496582    2.81157235228701E-09                  254023           101325.796875         288.12451171875      0.0999371036887169     0.00118521821715758                       0 
      -1.90495247623812                       0        1.22509694099426        41.6616096496582    2.88896757688717E-09                  254023           101325.796875         288.12451171875      0.0999371036887169     0.00118521792757451                       0 
      -1.90245122561281                       0        1.22509694099426        41.6616096496582    2.96636280148733E-09                  254023           101325.796875         288.12451171875      0.0999371036887169     0.00118521763799143                       0 
      -1.89994997498749                       0        1.22509694099426        41.6616096496582    3.04375802608749E-09                  254023           101325.796875         288.12451171875      0.0999371036887169     0.00118521734840836                       0 
      -1.89744872436218                       0        1.22509694099426        41.6616096496582    3.12115325068765E-09                  254023           101325.796875         288.12451171875      0.0999371036887169     0.00118521705882528                       0 
      -1.89494747373687                       0        1.22509694099426        41.6616096496582    3.20127112379215E-09                  254023           101325.796875         288.12451171875      0.0999371036887169     0.00118521676359362                       0 
      -1.89244622311156                       0        1.22509694099426        41.6616096496582    3.28140289334877E-09                  254023           101325.796875         288.12451171875      0.0999371036887169     0.00118521646833313                       0 
      -1.88994497248624                       0        1.22509694099426        41.6616096496582    3.36153466290538E-09                  254023           101325.796875         288.12451171875      0.0999371036887169     0.00118521617307264                       0 
      -1.88744372186093                       0        1.22509694099426        41.6616096496582    3.44166643246199E-09                  254023           101325.796875         288.12451171875      0.0999371036887169     0.00118521587781216                       0 
      -1.88494247123562                       0        1.22509694099426        41.6616096496582    3.52179820201861E-09                  254023           101325.796875         288.12451171875      0.0999371036887169     0.00118521558255167                       0 
      -1.88244122061031                       0        1.22509694099426        41.6616096496582    3.60192997157523E-09                  254023           101325.796875         288.12451171875      0.0999371036887169     0.00118521528729118                       0 
      -1.87993996998499                       0        1.22509694099426        41.6616096496582    3.68206174113184E-09                  254023           101325.796875         288.12451171875      0.0999371036887169     0.00118521499203069                       0 
      -1.87743871935968                       0        1.22509694099426        41.6616096496582    3.76219351068846E-09                  254023           101325.796875         288.12451171875      0.0999371036887169      0.0011852146967702                       0 
      -1.87493746873437                       0        1.22509694099426        41.6616096496582    3.84232528024507E-09                  254023           101325.796875         288.12451171875      0.0999371036887169     0.00118521440150971                       0 
      -1.87243621810905                       0        1.22509694099426        41.6616096496582    3.92245704980168E-09                  254023           101325.796875         288.12451171875      0.0999371036887169     0.00118521410624922                       0 
      -1.86993496748374                       0        1.22509694099426        41.6616096496582    4.00258881935831E-09                  254023           101325.796875         288.12451171875      0.0999371036887169     0.00118521381098874                       0 
      -1.86743371685843                       0        1.22509694099426        41.6616096496582    4.08272058891492E-09                  254023           101325.796875         288.12451171875      0.0999371036887169     0.00118521351572825                       0 
      -1.86493246623312                       0        1.22509694099426        41.6616096496582    4.16285235847153E-09                  254023           101325.796875         288.12451171875      0.0999371036887169     0.00118521322046776                       0 
       -1.8624312156078                       0        1.22509694099426        41.6616096496582    4.24298412802814E-09                  254023           101325.796875         288.12451171875      0.0999371036887169     0.00118521292520727                       0 
      -1.85992996498249                       0        1.22509694099426        41.6616096496582    4.32311589758476E-09                  254023           101325.796875         288.12451171875      0.0999371036887169     0.00118521262994678                       0 
      -1.85742871435718                       0        1.22509694099426        41.6616096496582    4.40324766714138E-09                  254023           101325.796875         288.12451171875      0.0999371036887169     0.00118521233468629                       0 
      -1.85492746373187                       0        1.22509694099426        41.6616096496582    4.48337943669799E-09                  254023           101325.796875         288.12451171875      0.0999371036887169      0.0011852120394258                       0 
      -1.85242621310655                       0        1.22509694099426        41.6616096496582    4.56351120625461E-09                  254023           101325.796875         288.12451171875      0.0999371036887169     0.00118521174416531                       0 
      -1.84992496248124                       0        1.22509694099426        41.6616096496582    4.64364297581122E-09                  254023           101325.796875         288.12451171875      0.0999371036887169     0.00118521144890483                       0 
      -1.84742371185593                       0        1.22509694099426        41.6616096496582    4.72377474536784E-09                  254023           101325.796875         288.12451171875      0.0999371036887169     0.00118521115364434                       0 
      -1.84492246123062                       0        1.22509694099426        41.6616096496582    4.80683012748515E-09                  254023           101325.796875         288.12451171875      0.0999371036887169     0.00118521085838351                       0 
       -1.8424212106053                       0        1.22509694099426        41.6616096496582    4.89289986598695E-09                  254023           101325.796875         288.12451171875      0.0999371036887169     0.00118521056312234                       0 
      -1.83991995997999                       0        1.22509694099426        41.6616096496582    4.97896960448875E-09                  254023           101325.796875         288.12451171875      0.0999371036887169     0.00118521026786116                       0 
      -1.83741870935468                       0        1.22509694099426        41.6616096496582    5.06503934299054E-09                  254023           101325.796875         288.12451171875      0.0999371036887169     0.00118520997259999                       0 
      -1.83491745872936                       0        1.22509694099426        41.6616096496582    5.15110908149234E-09                  254023           101325.796875         288.12451171875      0.0999371036887169     0.00118520967733881                       0 
      -1.83241620810405                       0        1.22509694099426        41.6616096496582    5.23717881999414E-09                  254023           101325.796875         288.12451171875      0.0999371036887169     0.00118520938207764                       0 
      -1.82991495747874                       0        1.22509694099426        41.6616096496582    5.32324855849593E-09                  254023           101325.796875         288.12451171875      0.0999371036887169     0.00118520908681646                       0 
      -1.82741370685343                       0        1.22509694099426        41.6616096496582    5.40931829699773E-09                  254023           101325.796875         288.12451171875      0.0999371036887169     0.00118520879155529                       0 
      -1.82491245622811                       0        1.22509694099426        41.6616096496582    5.49538803549953E-09                  254023           101325.796875         288.12451171875      0.0999371036887169     0.00118520849629411                       0 
       -1.8224112056028                       0        1.22509694099426        41.6616096496582    5.58145777400132E-09                  254023           101325.796875         288.12451171875      0.0999371036887169     0.00118520820103294                       0 
      -1.81990995497749                       0        1.22509694099426        41.6616096496582    5.66752751250313E-09                  254023           101325.796875         288.12451171875      0.0999371036887169     0.00118520790577176                       0 
      -1.81740870435218                       0        1.22509694099426        41.6616096496582    5.75359725100492E-09                  254023           101325.796875         288.12451171875      0.0999371036887169     0.00118520761051059                       0 
      -1.81490745372686                       0        1.22509694099426        41.6616096496582    5.83966698950672E-09                  254023           101325.796875         288.12451171875      0.0999371036887169     0.00118520731524941                       0 
      -1.81240620310155                       0        1.22509694099426        41.6616096496582    5.92573672800851E-09                  254023           101325.796875         288.12451171875      0.0999371036887169     0.00118520701998824                       0 
      -1.80990495247624                       0        1.22509694099426        41.6616096496582    6.01180646651031E-09                  254023           101325.796875         288.12451171875      0.0999371036887169     0.00118520672472706                       0 
      -1.80740370185093                       0        1.22509694099426        41.6616096496582    6.09787620501211E-09                  254023           101325.796875         288.12451171875      0.0999371036887169     0.00118520642946589                       0 
      -1.80490245122561                       0        1.22509694099426        41.6616096496582     6.1839459435139E-09                  254023           101325.796875         288.12451171875      0.0999371036887169     0.00118520613420471                       0 
       -1.8024012006003                       0        1.22509694099426        41.6616096496582    6.27001568201571E-09                  254023           101325.796875         288.12451171875      0.0999371036887169     0.00118520583894354                       0 
      -1.79989994997499                       0        1.22509694099426        41.6616096496582     6.3560854205175E-09                  254023           101325.796875         288.12451171875      0.0999371036887169     0.00118520554368236                       0 
      -1.79739869934967                       0        1.22509694099426        41.6616096496582    6.44215515901929E-09                  254023           101325.796875         288.12451171875      0.0999371036887169     0.00118520524842119                       0 
      -1.79489744872436                       0        1.22509694099426        41.6616096496582    6.52822489752109E-09                  254023           101325.796875         288.12451171875      0.0999371036887169     0.00118520495316001                       0 
      -1.79239619809905                       0        1.22509694099426        41.6616096496582    6.62205740603116E-09                  254023           101325.796875         288.12451171875      0.0999371036887169     0.00118520461293617                       0 
      -1.78989494747374                       0        1.22509694099426        41.6616096496582     6.7159695637373E-09                  254023           101325.796875         288.12451171875      0.0999371036887169     0.00118520427225099                       0 
      -1.78739369684842                       0        1.22509694099426        41.6616096496582    6.80988172144346E-09                  254023           101325.796875         288.12451171875      0.0999371036887169     0.00118520393156581                       0 
      -1.78489244622311                       0        1.22509694099426        41.6616096496582     6.9037938791496E-09                  254023           101325.796875         288.12451171875      0.0999371036887169     0.00118520359088063                       0 
       -1.7823911955978                       0        1.22509694099426        41.6616096496582    6.99770603685575E-09                  254023           101325.796875         288.12451171875      0.0999371036887169     0.00118520325019545                       0 
      -1.77988994497249                       0        1.22509694099426        41.6616096496582     7.0916181945619E-09                  254023           101325.796875         288.12451171875      0.0999371036887169     0.00118520290951027                       0 
      -1.77738869434717                       0        1.22509694099426        41.6616096496582    7.18553035226805E-09                  254023           101325.796875         288.12451171875      0.0999371036887169     0.00118520256882509                       0 
      -1.77488744372186                       0        1.22509694099426        41.6616096496582     7.2794425099742E-09                  254023           101325.796875         288.12451171875      0.0999371036887169     0.00118520222813991                       0 
      -1.77238619309655                       0        1.22509694099426        41.6616096496582    7.37335466768035E-09                  254023           101325.796875         288.12451171875      0.0999371036887169     0.00118520188745473                       0 
      -1.76988494247124                       0        1.22509694099426        41.6616096496582     7.4672668253865E-09                  254023           101325.796875         288.12451171875      0.0999371036887169     0.00118520154676955                       0 
      -1.76738369184592                       0        1.22509694099426        41.6616096496582    7.56117898309265E-09                  254023           101325.796875         288.12451171875      0.0999371036887169     0.00118520120608437                       0 
      -1.76488244122061                       0        1.22509694099426        41.6616096496582     7.6550911407988E-09                  254023           101325.796875         288.12451171875      0.0999371036887169     0.00118520086539919                       0 
       -1.7623811905953                       0        1.22509694099426        41.6616096496582    7.74900329850494E-09                  254023           101325.796875         288.12451171875      0.0999371036887169     0.00118520052471402                       0 
      -1.75987993996998                       0        1.22509694099426        41.6616096496582     7.8429154562111E-09                  254023           101325.796875         288.12451171875      0.0999371036887169     0.00118520018402884                       0 
      -1.75737868934467                       0        1.22509694099426        41.6616096496582    7.93682761391725E-09                  254023           101325.796875         288.12451171875      0.0999371036887169     0.00118519984334366                       0 
      -1.75487743871936                       0        1.22509694099426        41.6616096496582    8.03073977162339E-09                  254023           101325.796875         288.12451171875      0.0999371036887169     0.00118519950265848                       0 
      -1.75237618809405                       0        1.22509694099426        41.6616096496582    8.12465192932955E-09                  254023           101325.796875         288.12451171875      0.0999371036887169      0.0011851991619733                       0 
      -1.74987493746873                       0        1.22509694099426        41.6616096496582    8.21856408703569E-09                  254023           101325.796875         288.12451171875      0.0999371036887169     0.00118519882128812                       0 
      -1.74737368684342                       0        1.22509694099426        41.6616096496582    8.31247624474184E-09                  254023           101325.796875         288.12451171875      0.0999371036887169     0.00118519848060294                       0 
      -1.74487243621811                       0        1.22509694099426        41.6616096496582    8.40638840244799E-09                  254023           101325.796875         288.12451171875      0.0999371036887169     0.00118519813991776                       0 
       -1.7423711855928                       0        1.22509694099426        41.6616096496582    8.50447249770009E-09                  254023           101325.796875         288.12451171875      0.0999371036887169     0.00118519779923258                       0 
      -1.73986993496748                       0        1.22509694099426        41.6616096496582    8.60694632363284E-09                  254023           101325.796875         288.12451171875      0.0999371036887169      0.0011851974585474                       0 
      -1.73736868434217                       0        1.22509694099426        41.6616096496582    8.70942014956561E-09                  254023           101325.796875         288.12451171875      0.0999371036887169     0.00118519711786222                       0 
      -1.73486743371686                       0        1.22509694099426        41.6616096496582    8.81189397549837E-09                  254023           101325.796875         288.12451171875      0.0999371036887169     0.00118519677717704                       0 
      -1.73236618309155                       0        1.22509694099426        41.6616096496582    8.91436780143112E-09                  254023           101325.796875         288.12451171875      0.0999371036887169     0.00118519643649187                       0 
      -1.72986493246623                       0        1.22509694099426        41.6616096496582    9.01684162736388E-09                  254023           101325.796875         288.12451171875      0.0999371036887169     0.00118519609580669                       0 
      -1.72736368184092                       0        1.22509694099426        41.6616096496582    9.11931545329663E-09                  254023           101325.796875         288.12451171875      0.0999371036887169     0.00118519575512151                       0 
      -1.72486243121561                       0        1.22509694099426        41.6616096496582    9.22178927922939E-09                  254023           101325.796875         288.12451171875      0.0999371036887169     0.00118519541443633                       0 
       -1.7223611805903                       0        1.22509694099426        41.6616096496582    9.32426310516215E-09                  254023           101325.796875         288.12451171875      0.0999371036887169     0.00118519507375115                       0 