VARIABLES = "x"
 "y"
 "Density"
 "Momentum_x"
 "Momentum_y"
 "Energy"
 "Pressure"
 "Temperature"
 "Mach"
 "C<sub>p</sub>"
 "Roe_Dissipation"
ZONE
DT=(DOUBLE,DOUBLE,DOUBLE,DOUBLE,DOUBLE,DOUBLE,DOUBLE,DOUBLE,DOUBLE,DOUBLE,DOUBLE)
                     -2                       0        1.22504794597626        41.8273086547852   -1.84452355733028E-12            254014.40625          101320.1015625        288.119812011719       0.100339397788048    -0.00685584498569369                       0 
      -1.99749874937469                       0        1.22504794597626        41.8273086547852   -1.23051919359606E-12            254014.40625          101320.1015625        288.119812011719       0.100339397788048    -0.00685584503111838                       0 
      -1.99499749874937                       0        1.22504794597626        41.8273086547852   -6.16514829861782E-13            254014.40625          101320.1015625        288.119812011719       0.100339397788048    -0.00685584507654307                       0 
      -1.99249624812406                       0        1.22504794597626        41.8273086547852   -2.51046612756031E-15            254014.40625          101320.1015625        288.119812011719       0.100339397788048    -0.00685584512196777                       0 
      -1.98999499749875                       0        1.22504794597626        41.8273086547852    6.11493897606661E-13            254014.40625          101320.1015625        288.119812011719       0.100339397788048    -0.00685584516739246                       0 
      -1.98749374687344                       0        1.22504794597626        41.8273086547852    1.22549826134088E-12            254014.40625          101320.1015625        288.119812011719       0.100339397788048    -0.00685584521281715                       0 
      -1.98499249624812                       0        1.22504794597626        41.8273086547852    1.83950262507516E-12            254014.40625          101320.1015625        288.119812011719       0.100339397788048    -0.00685584525824184                       0 
      -1.98249124562281                       0        1.22504794597626        41.8273086547852    2.45350698880938E-12            254014.40625          101320.1015625        288.119812011719       0.100339397788048    -0.00685584530366653                       0 
       -1.9799899949975                       0        1.22504794597626        41.8273086547852     3.0675113525436E-12            254014.40625          101320.1015625        288.119812011719       0.100339397788048    -0.00685584534909122                       0 
      -1.97748874437219                       0        1.22504794597626        41.8273086547852    3.68151571627788E-12            254014.40625          101320.1015625        288.119812011719       0.100339397788048    -0.00685584539451591                       0 
      -1.97498749374687                       0        1.22504794597626        41.8273086547852     4.2955200800121E-12            254014.40625          101320.1015625        288.119812011719       0.100339397788048     -0.0068558454399406                       0 
      -1.97248624312156                       0        1.22504794597626        41.8273086547852    4.90952444374632E-12            254014.40625          101320.1015625        288.119812011719       0.100339397788048    -0.00685584548536529                       0 
      -1.96998499249625                       0        1.22504794597626        41.8273086547852     5.5235288074806E-12            254014.40625          101320.1015625        288.119812011719       0.100339397788048    -0.00685584553078998                       0 
      -1.96748374187094                       0        1.22504794597626        41.8273086547852    6.13753317121482E-12            254014.40625          101320.1015625        288.119812011719       0.100339397788048    -0.00685584557621467                       0 
      -1.96498249124562                       0        1.22504794597626        41.8273086547852    6.75153753494904E-12            254014.40625          101320.1015625        288.119812011719       0.100339397788048    -0.00685584562163936                       0 
      -1.96248124062031                       0        1.22504794597626        41.8273086547852    7.36554189868326E-12            254014.40625          101320.1015625        288.119812011719       0.100339397788048    -0.00685584566706405                       0 
        -1.959979989995                       0        1.22504794597626        41.8273086547852    7.97954626241754E-12            254014.40625          101320.1015625        288.119812011719       0.100339397788048    -0.00685584571248874                       0 
      -1.95747873936968                       0        1.22504794597626        41.8273086547852    8.59355062615176E-12            254014.40625          101320.1015625        288.119812011719       0.100339397788048    -0.00685584575791343                       0 
      -1.95497748874437                       0        1.22504794597626        41.8273086547852    9.20755498988598E-12            254014.40625          101320.1015625        288.119812011719       0.100339397788048    -0.00685584580333812                       0 
      -1.95247623811906                       0        1.22504794597626        41.8273086547852    9.82155935362026E-12            254014.40625          101320.1015625        288.119812011719       0.100339397788048    -0.00685584584876281                       0 
      -1.94997498749375                       0        1.22504794597626        41.8273086547852    1.04355637173545E-11            254014.40625          101320.1015625        288.119812011719       0.100339397788048     -0.0068558458941875                       0 
      -1.94747373686843                       0        1.22504794597626        41.8273086547852    1.10431172688187E-11            254014.40625          101320.1015625        288.119812011719       0.100339397788048    -0.00685584591701627                       0 
      -1.94497248624312                       0        1.22504794597626        41.8273086547852    1.16441535366523E-11            254014.40625          101320.1015625        288.119812011719       0.100339397788048    -0.00685584591701627                       0 
      -1.94247123561781                       0        1.22504794597626        41.8273086547852    1.22451898044859E-11            254014.40625          101320.1015625        288.119812011719       0.100339397788048    -0.00685584591701627                       0 
       -1.9399699849925                       0        1.22504794597626        41.8273086547852    1.28462260723194E-11            254014.40625          101320.1015625        288.119812011719       0.100339397788048    -0.00685584591701627                       0 
      -1.93746873436718                       0        1.22504794597626        41.8273086547852     1.3447262340153E-11            254014.40625          101320.1015625        288.119812011719       0.100339397788048    -0.00685584591701627                       0 
      -1.93496748374187                       0        1.22504794597626        41.8273086547852    1.40482986079866E-11            254014.40625          101320.1015625        288.119812011719       0.100339397788048    -0.00685584591701627                       0 
      -1.93246623311656                       0        1.22504794597626        41.8273086547852    1.46493348758202E-11            254014.40625          101320.1015625        288.119812011719       0.100339397788048    -0.00685584591701627                       0 
      -1.92996498249125                       0        1.22504794597626        41.8273086547852    1.52503711436537E-11            254014.40625          101320.1015625        288.119812011719       0.100339397788048    -0.00685584591701627                       0 
      -1.92746373186593                       0        1.22504794597626        41.8273086547852    1.58514074114873E-11            254014.40625          101320.1015625        288.119812011719       0.100339397788048    -0.00685584591701627                       0 
      -1.92496248124062                       0        1.22504794597626        41.8273086547852    1.64524436793209E-11            254014.40625          101320.1015625        288.119812011719       0.100339397788048    -0.00685584591701627                       0 
      -1.92246123061531                       0        1.22504794597626        41.8273086547852    1.70534799471545E-11            254014.40625          101320.1015625        288.119812011719       0.100339397788048    -0.00685584591701627                       0 
      -1.91995997998999                       0        1.22504794597626        41.8273086547852    1.76545162149881E-11            254014.40625          101320.1015625        288.119812011719       0.100339397788048    -0.00685584591701627                       0 
      -1.91745872936468                       0        1.22504794597626        41.8273086547852    1.82555524828216E-11            254014.40625          101320.1015625        288.119812011719       0.100339397788048    -0.00685584591701627                       0 
      -1.91495747873937                       0        1.22504794597626        41.8273086547852    1.88565887506552E-11            254014.40625          101320.1015625        288.119812011719       0.100339397788048    -0.00685584591701627                       0 
      -1.91245622811406                       0        1.22504794597626        41.8273086547852    1.94576250184888E-11            254014.40625          101320.1015625        288.119812011719       0.100339397788048    -0.00685584591701627                       0 
      -1.90995497748874                       0        1.22504794597626        41.8273086547852    2.00586612863224E-11            254014.40625          101320.1015625        288.119812011719       0.100339397788048    -0.00685584591701627                       0 
      -1.90745372686343                       0        1.22504794597626        41.8273086547852    2.06596975541559E-11            254014.40625          101320.1015625        288.119812011719       0.100339397788048    -0.00685584591701627                       0 
      -1.90495247623812                       0        1.22504794597626        41.8273086547852    2.12607338219895E-11            254014.40625          101320.1015625        288.119812011719       0.100339397788048    -0.00685584591701627                       0 
      -1.90245122561281                       0        1.22504794597626        41.8273086547852    2.18617700898231E-11            254014.40625          101320.1015625        288.119812011719       0.100339397788048    -0.00685584591701627                       0 
      -1.89994997498749                       0        1.22504794597626        41.8273086547852    2.24628063576567E-11            254014.40625          101320.1015625        288.119812011719       0.100339397788048    -0.00685584591701627                       0 
      -1.89744872436218                       0        1.22504794597626        41.8273086547852    2.30638426254902E-11            254014.40625          101320.1015625        288.119812011719       0.100339397788048    -0.00685584591701627                       0 
      -1.89494747373687                       0        1.22504794597626        41.8273086547852    2.35920818739007E-11            254014.40625          101320.1015625        288.119812011719       0.100339397788048    -0.00685584596221029                       0 
      -1.89244622311156                       0        1.22504794597626        41.8273086547852    2.41199495648763E-11            254014.40625          101320.1015625        288.119812011719       0.100339397788048    -0.00685584600763498                       0 
      -1.88994497248624                       0        1.22504794597626        41.8273086547852    2.46478172558519E-11            254014.40625          101320.1015625        288.119812011719       0.100339397788048    -0.00685584605305967                       0 
      -1.88744372186093                       0        1.22504794597626        41.8273086547852    2.51756849468274E-11            254014.40625          101320.1015625        288.119812011719       0.100339397788048    -0.00685584609848436                       0 
      -1.88494247123562                       0        1.22504794597626        41.8273086547852    2.57035526378031E-11            254014.40625          101320.1015625        288.119812011719       0.100339397788048    -0.00685584614390905                       0 
      -1.88244122061031                       0        1.22504794597626        41.8273086547852    2.62314203287786E-11            254014.40625          101320.1015625        288.119812011719       0.100339397788048    -0.00685584618933374                       0 
      -1.87993996998499                       0        1.22504794597626        41.8273086547852    2.67592880197542E-11            254014.40625          101320.1015625        288.119812011719       0.100339397788048    -0.00685584623475843                       0 
      -1.87743871935968                       0        1.22504794597626        41.8273086547852    2.72871557107298E-11            254014.40625          101320.1015625        288.119812011719       0.100339397788048    -0.00685584628018312                       0 
      -1.87493746873437                       0        1.22504794597626        41.8273086547852    2.78150234017054E-11            254014.40625          101320.1015625        288.119812011719       0.100339397788048    -0.00685584632560781                       0 
      -1.87243621810905                       0        1.22504794597626        41.8273086547852    2.83428910926809E-11            254014.40625          101320.1015625        288.119812011719       0.100339397788048     -0.0068558463710325                       0 
      -1.86993496748374                       0        1.22504794597626        41.8273086547852    2.88707587836566E-11            254014.40625          101320.1015625        288.119812011719       0.100339397788048    -0.00685584641645719                       0 
      -1.86743371685843                       0        1.22504794597626        41.8273086547852    2.93986264746321E-11            254014.40625          101320.1015625        288.119812011719       0.100339397788048    -0.00685584646188188                       0 
      -1.86493246623312                       0        1.22504794597626        41.8273086547852    2.99264941656077E-11            254014.40625          101320.1015625        288.119812011719       0.100339397788048    -0.00685584650730657                       0 
       -1.8624312156078                       0        1.22504794597626        41.8273086547852    3.04543618565833E-11            254014.40625          101320.1015625        288.119812011719       0.100339397788048    -0.00685584655273127                       0 
      -1.85992996498249                       0        1.22504794597626        41.8273086547852    3.09822295475589E-11            254014.40625          101320.1015625        288.119812011719       0.100339397788048    -0.00685584659815596                       0 
      -1.85742871435718                       0        1.22504794597626        41.8273086547852    3.15100972385344E-11            254014.40625          101320.1015625        288.119812011719       0.100339397788048    -0.00685584664358065                       0 
      -1.85492746373187                       0        1.22504794597626        41.8273086547852      3.203796492951E-11            254014.40625          101320.1015625        288.119812011719       0.100339397788048    -0.00685584668900534                       0 
      -1.85242621310655                       0        1.22504794597626        41.8273086547852    3.25658326204856E-11            254014.40625          101320.1015625        288.119812011719       0.100339397788048    -0.00685584673443003                       0 
      -1.84992496248124                       0        1.22504794597626        41.8273086547852    3.30937003114612E-11            254014.40625          101320.1015625        288.119812011719       0.100339397788048    -0.00685584677985472                       0 
      -1.84742371185593                       0        1.22504794597626        41.8273086547852    3.36215680024368E-11            254014.40625          101320.1015625        288.119812011719       0.100339397788048    -0.00685584682527941                       0 
      -1.84492246123062                       0        1.22504794597626        41.8273086547852    3.41242284299017E-11            254014.40625          101320.1015625        288.119812011719       0.100339397788048    -0.00685584687070415                       0 
       -1.8424212106053                       0        1.22504794597626        41.8273086547852    3.46008992044556E-11            254014.40625          101320.1015625        288.119812011719       0.100339397788048    -0.00685584691612895                       0 
      -1.83991995997999                       0        1.22504794597626        41.8273086547852    3.50775699790095E-11            254014.40625          101320.1015625        288.119812011719       0.100339397788048    -0.00685584696155374                       0 
      -1.83741870935468                       0        1.22504794597626        41.8273086547852    3.55542407535634E-11            254014.40625          101320.1015625        288.119812011719       0.100339397788048    -0.00685584700697854                       0 
      -1.83491745872936                       0        1.22504794597626        41.8273086547852    3.60309115281174E-11            254014.40625          101320.1015625        288.119812011719       0.100339397788048    -0.00685584705240334                       0 
      -1.83241620810405                       0        1.22504794597626        41.8273086547852    3.65075823026713E-11            254014.40625          101320.1015625        288.119812011719       0.100339397788048    -0.00685584709782813                       0 
      -1.82991495747874                       0        1.22504794597626        41.8273086547852    3.69842530772252E-11            254014.40625          101320.1015625        288.119812011719       0.100339397788048    -0.00685584714325293                       0 
      -1.82741370685343                       0        1.22504794597626        41.8273086547852    3.74609238517791E-11            254014.40625          101320.1015625        288.119812011719       0.100339397788048    -0.00685584718867772                       0 
      -1.82491245622811                       0        1.22504794597626        41.8273086547852    3.79375946263331E-11            254014.40625          101320.1015625        288.119812011719       0.100339397788048    -0.00685584723410252                       0 
       -1.8224112056028                       0        1.22504794597626        41.8273086547852     3.8414265400887E-11            254014.40625          101320.1015625        288.119812011719       0.100339397788048    -0.00685584727952732                       0 
      -1.81990995497749                       0        1.22504794597626        41.8273086547852    3.88909361754409E-11            254014.40625          101320.1015625        288.119812011719       0.100339397788048    -0.00685584732495211                       0 
      -1.81740870435218                       0        1.22504794597626        41.8273086547852    3.93676069499948E-11            254014.40625          101320.1015625        288.119812011719       0.100339397788048    -0.00685584737037691                       0 
      -1.81490745372686                       0        1.22504794597626        41.8273086547852    3.98442777245487E-11            254014.40625          101320.1015625        288.119812011719       0.100339397788048     -0.0068558474158017                       0 
      -1.81240620310155                       0        1.22504794597626        41.8273086547852    4.03209484991026E-11            254014.40625          101320.1015625        288.119812011719       0.100339397788048     -0.0068558474612265                       0 
      -1.80990495247624                       0        1.22504794597626        41.8273086547852    4.07976192736566E-11            254014.40625          101320.1015625        288.119812011719       0.100339397788048     -0.0068558475066513                       0 
      -1.80740370185093                       0        1.22504794597626        41.8273086547852    4.12742900482105E-11            254014.40625          101320.1015625        288.119812011719       0.100339397788048    -0.00685584755207609                       0 
      -1.80490245122561                       0        1.22504794597626        41.8273086547852    4.17509608227644E-11            254014.40625          101320.1015625        288.119812011719       0.100339397788048    -0.00685584759750089                       0 
       -1.8024012006003                       0        1.22504794597626        41.8273086547852    4.22276315973184E-11            254014.40625          101320.1015625        288.119812011719       0.100339397788048    -0.00685584764292568                       0 
      -1.79989994997499                       0        1.22504794597626        41.8273086547852    4.27043023718723E-11            254014.40625          101320.1015625        288.119812011719       0.100339397788048    -0.00685584768835048                       0 
      -1.79739869934967                       0        1.22504794597626        41.8273086547852    4.31809731464262E-11            254014.40625          101320.1015625        288.119812011719       0.100339397788048    -0.00685584773377528                       0 
      -1.79489744872436                       0        1.22504794597626        41.8273086547852    4.36576439209801E-11            254014.40625          101320.1015625        288.119812011719       0.100339397788048    -0.00685584777920007                       0 
      -1.79239619809905                       0        1.22504794597626        41.8273086547852    4.41182757464727E-11            254014.40625          101320.1015625        288.119812011719       0.100339397788048    -0.00685584784710644                       0 
      -1.78989494747374                       0        1.22504794597626        41.8273086547852    4.45787430057862E-11            254014.40625          101320.1015625        288.119812011719       0.100339397788048    -0.00685584791524347                       0 
      -1.78739369684842                       0        1.22504794597626        41.8273086547852    4.50392102650998E-11            254014.40625          101320.1015625        288.119812011719       0.100339397788048    -0.00685584798338051                       0 
      -1.78489244622311                       0        1.22504794597626        41.8273086547852    4.54996775244133E-11            254014.40625          101320.1015625        288.119812011719       0.100339397788048    -0.00685584805151755                       0 
       -1.7823911955978                       0        1.22504794597626        41.8273086547852    4.59601447837268E-11            254014.40625          101320.1015625        288.119812011719       0.100339397788048    -0.00685584811965458                       0 
      -1.77988994497249                       0        1.22504794597626        41.8273086547852    4.64206120430404E-11            254014.40625          101320.1015625        288.119812011719       0.100339397788048    -0.00685584818779162                       0 
      -1.77738869434717                       0        1.22504794597626        41.8273086547852    4.68810793023539E-11            254014.40625          101320.1015625        288.119812011719       0.100339397788048    -0.00685584825592866                       0 
      -1.77488744372186                       0        1.22504794597626        41.8273086547852    4.73415465616675E-11            254014.40625          101320.1015625        288.119812011719       0.100339397788048    -0.00685584832406569                       0 
      -1.77238619309655                       0        1.22504794597626        41.8273086547852     4.7802013820981E-11            254014.40625          101320.1015625        288.119812011719       0.100339397788048    -0.00685584839220273                       0 
      -1.76988494247124                       0        1.22504794597626        41.8273086547852    4.82624810802946E-11            254014.40625          101320.1015625        288.119812011719       0.100339397788048    -0.00685584846033976                       0 
      -1.76738369184592                       0        1.22504794597626        41.8273086547852    4.87229483396081E-11            254014.40625          101320.1015625        288.119812011719       0.100339397788048     -0.0068558485284768                       0 
      -1.76488244122061                       0        1.22504794597626        41.8273086547852    4.91834155989216E-11            254014.40625          101320.1015625        288.119812011719       0.100339397788048    -0.00685584859661383                       0 
       -1.7623811905953                       0        1.22504794597626        41.8273086547852    4.96438828582352E-11            254014.40625          101320.1015625        288.119812011719       0.100339397788048    -0.00685584866475087                       0 
      -1.75987993996998                       0        1.22504794597626        41.8273086547852    5.01043501175487E-11            254014.40625          101320.1015625        288.119812011719       0.100339397788048     -0.0068558487328879                       0 
      -1.75737868934467                       0        1.22504794597626        41.8273086547852    5.05648173768623E-11            254014.40625          101320.1015625        288.119812011719       0.100339397788048    -0.00685584880102494                       0 
      -1.75487743871936                       0        1.22504794597626        41.8273086547852    5.10252846361758E-11            254014.40625          101320.1015625        288.119812011719       0.100339397788048    -0.00685584886916198                       0 
      -1.75237618809405                       0        1.22504794597626        41.8273086547852    5.14857518954894E-11            254014.40625          101320.1015625        288.119812011719       0.100339397788048    -0.00685584893729901                       0 
      -1.74987493746873                       0        1.22504794597626        41.8273086547852    5.19462191548029E-11            254014.40625          101320.1015625        288.119812011719       0.100339397788048    -0.00685584900543605                       0 
      -1.74737368684342                       0        1.22504794597626        41.8273086547852    5.24066864141164E-11            254014.40625          101320.1015625        288.119812011719       0.100339397788048    -0.00685584907357308                       0 
      -1.74487243621811                       0        1.22504794597626        41.8273086547852      5.286715367343E-11            254014.40625          101320.1015625        288.119812011719       0.100339397788048    -0.00685584914171012                       0 
       -1.7423711855928                       0        1.22504794597626        41.8273086547852    5.33341592554564E-11            254014.40625          101320.1015625        288.119812011719       0.100339397788048    -0.00685584917664528                       0 
      -1.73986993496748                       0        1.22504794597626        41.8273086547852    5.38080444888429E-11            254014.40625          101320.1015625        288.119812011719       0.100339397788048    -0.00685584917664528                       0 
      -1.73736868434217                       0        1.22504794597626        41.8273086547852    5.42819297222295E-11            254014.40625          101320.1015625        288.119812011719       0.100339397788048    -0.00685584917664528                       0 
      -1.73486743371686                       0        1.22504794597626        41.8273086547852    5.47558149556161E-11            254014.40625          101320.1015625        288.119812011719       0.100339397788048    -0.00685584917664528                       0 
      -1.73236618309155                       0        1.22504794597626        41.8273086547852    5.52297001890026E-11            254014.40625          101320.1015625        288.119812011719       0.100339397788048    -0.00685584917664528                       0 
      -1.72986493246623                       0        1.22504794597626        41.8273086547852    5.57035854223892E-11            254014.40625          101320.1015625        288.119812011719       0.100339397788048    -0.00685584917664528                       0 
      -1.72736368184092                       0        1.22504794597626        41.8273086547852    5.61774706557757E-11            254014.40625          101320.1015625        288.119812011719       0.100339397788048    -0.00685584917664528                       0 
      -1.72486243121561                       0        1.22504794597626        41.8273086547852    5.66513558891623E-11            254014.40625          101320.1015625        288.119812011719       0.100339397788048    -0.00685584917664528                       0 
       -1.7223611805903                       0        1.22504794597626        41.8273086547852    5.71252411225489E-11            254014.40625          101320.1015625        288.119812011719       0.100339397788048    -0.00685584917664528                       0 