VARIABLES = "x"
 "y"
 "Density"
 "Momentum_x"
 "Momentum_y"
 "Energy"
 "Pressure"
 "Temperature"
 "Mach"
 "C<sub>p</sub>"
 "Roe_Dissipation"
ZONE
DT=(DOUBLE,DOUBLE,DOUBLE,DOUBLE,DOUBLE,DOUBLE,DOUBLE,DOUBLE,DOUBLE,DOUBLE,DOUBLE)
                     -1                    1.25        1.22509969398162         41.653189879028       0.132174239399843        254023.615617679        101326.188842512        288.124752385103      0.0999171045015128       -7.05226092924131                       0 
                     -1         1.2474974974975        1.22509991982282        41.6523535063311       0.132827971642976        254023.653298818         101326.21409097        288.124777180534       0.099915080209966       -7.05222529192845                       0 
                     -1        1.24499499499499        1.22510014566402        41.6515171336342       0.133481703886108        254023.690979958        101326.239339429        288.124801975964      0.0999130559184191       -7.05218965461559                       0 
                     -1        1.24249249249249        1.22510037150523        41.6506807609373       0.134135436129241        254023.728661098        101326.264587887        288.124826771395      0.0999110316268723       -7.05215401730274                       0 
                     -1        1.23998998998999        1.22510059734643        41.6498443882404       0.134789168372374        254023.766342238        101326.289836345        288.124851566825      0.0999090073353255       -7.05211837998988                       0 
                     -1        1.23748748748749        1.22510082318763        41.6490080155435       0.135442900615507        254023.804023378        101326.315084804        288.124876362255      0.0999069830437787       -7.05208274267702                       0 
                     -1        1.23498498498498        1.22510104902883        41.6481716428466        0.13609663285864        254023.841704518        101326.340333262        288.124901157686      0.0999049587522319       -7.05204710536416                       0 
                     -1        1.23248248248248        1.22510127487004        41.6473352701497       0.136750365101773        254023.879385658         101326.36558172        288.124925953116      0.0999029344606851       -7.05201146805131                       0 
                     -1        1.22997997997998        1.22510151221159        41.6464848032839       0.137452122203438         254023.91664142        101326.392051961        288.124950437326      0.0999008769973187       -7.05197518012323                       0 
                     -1        1.22747747747748        1.22510175316853        41.6456299056155       0.138168976943775        254023.953763455        101326.418906295        288.124974823698      0.0998988091056833       -7.05193868766039                       0 
                     -1        1.22497497497497        1.22510199412546        41.6447750079471       0.138885831684111        254023.990885491        101326.445760629        288.124999210069      0.0998967412140478       -7.05190219519754                       0 
                     -1        1.22247247247247         1.2251022350824        41.6439201102788       0.139602686424448        254024.028007526        101326.472614963        288.125023596441      0.0998946733224124       -7.05186570273469                       0 
                     -1        1.21996996996997        1.22510247603934        41.6430652126104       0.140319541164784        254024.065129561        101326.499469297        288.125047982812       0.099892605430777       -7.05182921027184                       0 
                     -1        1.21746746746747        1.22510271699627         41.642210314942       0.141036395905121        254024.102251596        101326.526323631        288.125072369184      0.0998905375391416       -7.05179271780899                       0 
                     -1        1.21496496496496        1.22510295795321        41.6413554172736       0.141753250645457        254024.139373631        101326.553177965        288.125096755555      0.0998884696475061       -7.05175622534615                       0 
                     -1        1.21246246246246        1.22510319891015        41.6405005196052       0.142470105385794        254024.176495667        101326.580032298        288.125121141927      0.0998864017558707        -7.0517197328833                       0 
                     -1        1.20995995995996        1.22510343986708        41.6396456219369        0.14318696012613        254024.213617702        101326.606886632        288.125145528298      0.0998843338642353       -7.05168324042045                       0 
                     -1        1.20745745745746        1.22510368082402        41.6387907242685       0.143903814866467        254024.250739737        101326.633740966         288.12516991467      0.0998822659725998        -7.0516467479576                       0 
                     -1        1.20495495495495        1.22510392178096        41.6379358266001       0.144620669606803        254024.287861772          101326.6605953        288.125194301041      0.0998801980809644       -7.05161025549476                       0 
                     -1        1.20245245245245        1.22510416900136         41.637070384617       0.145324845325349        254024.326410983         101326.68812952        288.125218802735      0.0998781043825364        -7.0515729961785                       0 
                     -1        1.19994994994995        1.22510446735483        41.6361188619542       0.145925513244862        254024.376611236        101326.721214123        288.125244245885      0.0998758000050556       -7.05152947649692                       0 
                     -1        1.19744744744745         1.2251047657083        41.6351673392914       0.146526181164374        254024.426811489        101326.754298727        288.125269689035      0.0998734956275749       -7.05148595681533                       0 
                     -1        1.19494494494494        1.22510506406177        41.6342158166287       0.147126849083886        254024.477011742         101326.78738333        288.125295132185      0.0998711912500941       -7.05144243713375                       0 
                     -1        1.19244244244244        1.22510536241524        41.6332642939659       0.147727517003399        254024.527211995        101326.820467933        288.125320575334      0.0998688868726133       -7.05139891745216                       0 
                     -1        1.18993993993994        1.22510566076871        41.6323127713032       0.148328184922911        254024.577412247        101326.853552537        288.125346018484      0.0998665824951326       -7.05135539777057                       0 
                     -1        1.18743743743744        1.22510595912218        41.6313612486404       0.148928852842423          254024.6276125         101326.88663714        288.125371461634      0.0998642781176518       -7.05131187808899                       0 
                     -1        1.18493493493493        1.22510625747565        41.6304097259776       0.149529520761936        254024.677812753        101326.919721744        288.125396904784       0.099861973740171        -7.0512683584074                       0 
                     -1        1.18243243243243        1.22510655419002         41.629463315561       0.150129697151262        254024.727734195        101326.952659968        288.125422157568      0.0998596817337463        -7.0512250542838                       0 
                     -1        1.17992992992993        1.22510682585061        41.6285950465066       0.150722360436246        254024.773393982        101326.983360765        288.125444500568      0.0998575788205605       -7.05118504499254                       0 
                     -1        1.17742742742743        1.22510709751121        41.6277267774521       0.151315023721229        254024.819053769        101327.014061562        288.125466843568      0.0998554759073747       -7.05114503570129                       0 
                     -1        1.17492492492492         1.2251073691718        41.6268585083977       0.151907687006213        254024.864713556        101327.044762359        288.125489186568      0.0998533729941889       -7.05110502641003                       0 
                     -1        1.17242242242242        1.22510764083239        41.6259902393433       0.152500350291196        254024.910373343        101327.075463156        288.125511529569       0.099851270081003       -7.05106501711878                       0 
                     -1        1.16991991991992        1.22510791249298        41.6251219702889       0.153093013576179         254024.95603313        101327.106163953        288.125533872569      0.0998491671678172       -7.05102500782752                       0 
                     -1        1.16741741741742        1.22510818415357        41.6242537012345       0.153685676861163        254025.001692917         101327.13686475        288.125556215569      0.0998470642546314       -7.05098499853627                       0 
                     -1        1.16491491491491        1.22510845581416        41.6233854321801       0.154278340146146        254025.047352704        101327.167565547         288.12557855857      0.0998449613414456       -7.05094498924502                       0 
                     -1        1.16241241241241        1.22510872747476        41.6225171631256        0.15487100343113        254025.093012491        101327.198266344         288.12560090157      0.0998428584282598       -7.05090497995376                       0 
                     -1        1.15990990990991        1.22510899913535        41.6216488940712       0.155463666716113        254025.138672278         101327.22896714         288.12562324457      0.0998407555150739       -7.05086497066251                       0 
                     -1        1.15740740740741        1.22510927079594        41.6207806250168       0.156056330001096        254025.184332065        101327.259667937        288.125645587571      0.0998386526018881       -7.05082496137126                       0 
                     -1         1.1549049049049        1.22510954245653        41.6199123559624        0.15664899328608        254025.229991852        101327.290368734        288.125667930571      0.0998365496887023          -7.05078495208                       0 
                     -1         1.1524024024024        1.22510981411712         41.619044086908       0.157241656571063        254025.275651639        101327.321069531        288.125690273571      0.0998344467755165       -7.05074494278875                       0 
                     -1         1.1498998998999        1.22511008577772        41.6181758178535       0.157834319856047        254025.321311426        101327.351770328        288.125712616572      0.0998323438623307       -7.05070493349749                       0 
                     -1         1.1473973973974        1.22511037193737         41.617241620966        0.15832888851259        254025.368048519         101327.38291236        288.125740832584      0.0998300801859728       -7.05066152326464                       0 
                     -1        1.14489489489489        1.22511066109062        41.6162938120484       0.158803203704541        254025.415008042        101327.414145492        288.125770261189      0.0998277833170614         -7.050617410844                       0 
                     -1        1.14239239239239        1.22511095024388        41.6153460031308       0.159277518896491        254025.461967565        101327.445378625        288.125799689794      0.0998254864481499       -7.05057329842335                       0 
                     -1        1.13988988988989        1.22511123939713        41.6143981942133       0.159751834088442        254025.508927088        101327.476611757          288.1258291184      0.0998231895792385       -7.05052918600271                       0 
                     -1        1.13738738738739        1.22511152855039        41.6134503852957       0.160226149280392        254025.555886611         101327.50784489        288.125858547005       0.099820892710327       -7.05048507358206                       0 
                     -1        1.13488488488488        1.22511181770364        41.6125025763781       0.160700464472342        254025.602846134        101327.539078023         288.12588797561      0.0998185958414155       -7.05044096116142                       0 
                     -1        1.13238238238238        1.22511210685689        41.6115547674605       0.161174779664293        254025.649805657        101327.570311155        288.125917404215      0.0998162989725041       -7.05039684874078                       0 
                     -1        1.12987987987988        1.22511239601015        41.6106069585429       0.161649094856243         254025.69676518        101327.601544288         288.12594683282      0.0998140021035927       -7.05035273632013                       0 
                     -1        1.12737737737738         1.2251126851634        41.6096591496253       0.162123410048194        254025.743724703         101327.63277742        288.125976261426      0.0998117052346812       -7.05030862389949                       0 
                     -1        1.12487487487487        1.22511297431666        41.6087113407077       0.162597725240144        254025.790684226        101327.664010553        288.126005690031      0.0998094083657697       -7.05026451147885                       0 
                     -1        1.12237237237237        1.22511326346991        41.6077635317901       0.163072040432095        254025.837643748        101327.695243685        288.126035118636      0.0998071114968583        -7.0502203990582                       0 
                     -1        1.11986986986987        1.22511355262317        41.6068157228725       0.163546355624045        254025.884603271        101327.726476818        288.126064547241      0.0998048146279468       -7.05017628663756                       0 
                     -1        1.11736736736737        1.22511384177642        41.6058679139549       0.164020670815995        254025.931562794        101327.757709951        288.126093975846      0.0998025177590354       -7.05013217421691                       0 
                     -1        1.11486486486486        1.22511413092967        41.6049201050373       0.164494986007946        254025.978522317        101327.788943083        288.126123404452      0.0998002208901239       -7.05008806179627                       0 
                     -1        1.11236236236236        1.22511442008293        41.6039722961197       0.164969301199896         254026.02548184        101327.820176216        288.126152833057      0.0997979240212124       -7.05004394937563                       0 
                     -1        1.10985985985986        1.22511470892085        41.6030025081239       0.165470607469561        254026.074165723        101327.852410414        288.126181823749      0.0997955744907476        -7.0499991226285                       0 
                     -1        1.10735735735736        1.22511499739276        41.6020072088045       0.166003242537948        254026.124851086        101327.885806559        288.126210306152      0.0997931638355207       -7.04995346675587                       0 
                     -1        1.10485485485485        1.22511528586466        41.6010119094851       0.166535877606335         254026.17553645        101327.919202704        288.126238788555      0.0997907531802937       -7.04990781088325                       0 
                     -1        1.10235235235235        1.22511557433657        41.6000166101657       0.167068512674722        254026.226221813        101327.952598848        288.126267270958      0.0997883425250667       -7.04986215501062                       0 
                     -1        1.09984984984985        1.22511586838414        41.5990114023544       0.167564727975278        254026.277675712        101327.987192119        288.126294423917       0.099785906864152       -7.04981566291924                       0 
                     -1        1.09734734734735         1.2251161777285        41.5979790106468       0.167961025830081        254026.331238086          101328.0250697        288.126317929552      0.0997834026002615       -7.04976687666598                       0 
                     -1        1.09484484484484        1.22511648707286        41.5969466189391       0.168357323684885        254026.384800459         101328.06294728        288.126341435188      0.0997808983363709       -7.04971809041273                       0 
                     -1        1.09234234234234        1.22511679641722        41.5959142272314       0.168753621539688        254026.438362832         101328.10082486        288.126364940824      0.0997783940724804       -7.04966930415948                       0 
                     -1        1.08983983983984        1.22511710576158        41.5948818355238       0.169149919394491        254026.491925205         101328.13870244        288.126388446459      0.0997758898085899       -7.04962051790623                       0 
                     -1        1.08733733733734        1.22511739599389        41.5939008568636       0.169557179258194        254026.545078669        101328.174008307        288.126410806591      0.0997735122702754       -7.04957506695732                       0 
                     -1        1.08483483483483        1.22511768621963        41.5929198958569       0.169964442885883        254026.598231993        101328.209313291        288.126433166329      0.0997711347754742       -7.04952961715365                       0 
                     -1        1.08233233233233        1.22511797644537        41.5919389348502       0.170371706513573        254026.651385316        101328.244618274        288.126455526068       0.099768757280673       -7.04948416734998                       0 
                     -1        1.07982982982983        1.22511826667111        41.5909579738435       0.170778970141262         254026.70453864        101328.279923258        288.126477885806      0.0997663797858718        -7.0494387175463                       0 
                     -1        1.07732732732733        1.22511855689685        41.5899770128368       0.171186233768952        254026.757691964        101328.315228242        288.126500245545      0.0997640022910706       -7.04939326774263                       0 
                     -1        1.07482482482482        1.22511884712259        41.5889960518302       0.171593497396641        254026.810845288        101328.350533225        288.126522605283      0.0997616247962694       -7.04934781793896                       0 
                     -1        1.07232232232232        1.22511913734834        41.5880150908235        0.17200076102433        254026.863998611        101328.385838209        288.126544965021      0.0997592473014682       -7.04930236813529                       0 
                     -1        1.06981981981982        1.22511942757408        41.5870341298168        0.17240802465202        254026.917151935        101328.421143193         288.12656732476      0.0997568698066671       -7.04925691833161                       0 
                     -1        1.06731731731732        1.22511971779982        41.5860531688101       0.172815288279709        254026.970305259        101328.456448176        288.126589684498      0.0997544923118659       -7.04921146852794                       0 
                     -1        1.06481481481481        1.22512000802556        41.5850722078034       0.173222551907399        254027.023458582         101328.49175316        288.126612044237      0.0997521148170647       -7.04916601872427                       0 
                     -1        1.06231231231231         1.2251202982513        41.5840912467967       0.173629815535088        254027.076611906        101328.527058144        288.126634403975      0.0997497373222635        -7.0491205689206                       0 
                     -1        1.05980980980981        1.22512058847705        41.5831102857901       0.174037079162777         254027.12976523        101328.562363127        288.126656763714      0.0997473598274623       -7.04907511911692                       0 
                     -1        1.05730730730731        1.22512087404622        41.5820805978785       0.174376289167812        254027.185397326        101328.597204946        288.126684091168      0.0997448636525481       -7.04902783181688                       0 
                     -1         1.0548048048048         1.2251211577258        41.5810311370374       0.174687883639187        254027.242035284        101328.631858817        288.126713434477      0.0997423193183365       -7.04897979887772                       0 
                     -1         1.0523023023023        1.22512144140538        41.5799816761963       0.174999478110563        254027.298673243        101328.666512688        288.126742777785      0.0997397749841248       -7.04893176593857                       0 
                     -1         1.0497997997998        1.22512172508496        41.5789322153552       0.175311072581938        254027.355311202        101328.701166558        288.126772121093      0.0997372306499132       -7.04888373299941                       0 
                     -1         1.0472972972973        1.22512200876453        41.5778827545141       0.175622667053313        254027.411949161        101328.735820429        288.126801464401      0.0997346863157015       -7.04883570006026                       0 
                     -1        1.04479479479479        1.22512229244411        41.5768332936731       0.175934261524688         254027.46858712          101328.7704743         288.12683080771      0.0997321419814899        -7.0487876671211                       0 
                     -1        1.04229229229229        1.22512257612369         41.575783832832       0.176245855996064        254027.525225079        101328.805128171        288.126860151018      0.0997295976472782       -7.04873963418195                       0 
                     -1        1.03978978978979        1.22512285980327        41.5747343719909       0.176557450467439        254027.581863037        101328.839782042        288.126889494326      0.0997270533130666       -7.04869160124279                       0 
                     -1        1.03728728728729        1.22512314348285        41.5736849111498       0.176869044938814        254027.638500996        101328.874435913        288.126918837635       0.099724508978855       -7.04864356830364                       0 
                     -1        1.03478478478478        1.22512342716243        41.5726354503087       0.177180639410189        254027.695138955        101328.909089783        288.126948180943      0.0997219646446433       -7.04859553536448                       0 
                     -1        1.03228228228228        1.22512371084201        41.5715859894676       0.177492233881564        254027.751776914        101328.943743654        288.126977524251      0.0997194203104317       -7.04854750242532                       0 
                     -1        1.02977977977978        1.22512399452159        41.5705365286266        0.17780382835294        254027.808414873        101328.978397525        288.127006867559        0.09971687597622       -7.04849946948617                       0 
                     -1        1.02727727727728        1.22512427820117        41.5694870677855       0.178115422824315        254027.865052832        101329.013051396        288.127036210868      0.0997143316420084       -7.04845143654701                       0 
                     -1        1.02477477477477        1.22512454906922        41.5684696595546       0.178421754732942         254027.91912776        101329.047646655        288.127065551154      0.0997118645093456       -7.04840476072026                       0 
                     -1        1.02227227227227        1.22512479989599         41.567502391702       0.178719854335835        254027.969193301        101329.082150228        288.127094886713      0.0997095181442221       -7.04836020784477                       0 
                     -1        1.01976976976977        1.22512505072277        41.5665351238495       0.179017953938729        254028.019258842        101329.116653801        288.127124222272      0.0997071717790986       -7.04831565496929                       0 
                     -1        1.01726726726727        1.22512533112048         41.565532311837       0.179261141010728        254028.071599046        101329.150754519        288.127152217993      0.0997047392485947       -7.04826943719624                       0 
                     -1        1.01476476476476        1.22512563976441        41.5644955479557       0.179451875498515        254028.126112014        101329.184470428        288.127178933898      0.0997022244127082       -7.04822162910898                       0 
                     -1        1.01226226226226        1.22512594840835        41.5634587840745       0.179642609986301        254028.180624981        101329.218186337        288.127205649803      0.0996997095768217       -7.04817382102172                       0 
                     -1        1.00975975975976        1.22512625705228        41.5624220201933       0.179833344474088        254028.235137949        101329.251902246        288.127232365707      0.0996971947409351       -7.04812601293445                       0 
                     -1        1.00725725725726        1.22512656616508        41.5613832004177       0.180028521708636        254028.289767964        101329.285880351        288.127259377666      0.0996946749690403       -7.04807807825733                       0 
                     -1        1.00475475475475        1.22512688034061        41.5603221813891       0.180271671087425        254028.345661842        101329.322689612        288.127289586373      0.0996921018988337       -7.04802877668107                       0 
                     -1        1.00225225225225        1.22512719451615        41.5592611623605       0.180514820466213         254028.40155572        101329.359498873         288.12731979508       0.099689528828627        -7.0479794751048                       0 
                     -1        0.99974974974975        1.22512750869168        41.5582001433319       0.180757969845002        254028.457449599        101329.396308134        288.127350003787      0.0996869557584204       -7.04793017352853                       0 
                     -1       0.997247247247247        1.22512782286722        41.5571391243033        0.18100111922379        254028.513343477        101329.433117395        288.127380212494      0.0996843826882137       -7.04788087195227                       0 
                     -1       0.994744744744745        1.22512813704275        41.5560781052747       0.181244268602579        254028.569237355        101329.469926656        288.127410421201      0.0996818096180071         -7.047831570376                       0 
                     -1       0.992242242242242        1.22512845121829        41.5550170862461       0.181487417981367        254028.625131234        101329.506735918        288.127440629908      0.0996792365478004       -7.04778226879974                       0 
                     -1        0.98973973973974        1.22512876539382        41.5539560672174       0.181730567360155        254028.681025112        101329.543545179        288.127470838615      0.0996766634775938       -7.04773296722347                       0 
                     -1       0.987237237237237        1.22512907956936        41.5528950481888       0.181973716738944         254028.73691899         101329.58035444        288.127501047322      0.0996740904073871        -7.0476836656472                       0 
                     -1       0.984734734734735        1.22512939374489        41.5518340291602       0.182216866117732        254028.792812868        101329.617163701        288.127531256029      0.0996715173371805       -7.04763436407094                       0 
                     -1       0.982232232232232        1.22512970792042        41.5507730101316       0.182460015496521        254028.848706747        101329.653972962        288.127561464736      0.0996689442669738       -7.04758506249467                       0 
                     -1        0.97972972972973        1.22513002209596         41.549711991103       0.182703164875309        254028.904600625        101329.690782223        288.127591673443      0.0996663711967672        -7.0475357609184                       0 
                     -1       0.977227227227227        1.22513033627149        41.5486509720744       0.182946314254098        254028.960494503        101329.727591484         288.12762188215      0.0996637981265605       -7.04748645934214                       0 
                     -1       0.974724724724725        1.22513067585462        41.5475466940059       0.183100448789812        254029.018405568         101329.76707144        288.127655786411       0.099661118801586       -7.04743558605453                       0 
                     -1       0.972222222222222        1.22513102630958        41.5464239055151       0.183216494122715        254029.077179782        101329.807694178        288.127691271988      0.0996583940104932       -7.04738404023604                       0 