VARIABLES = "x"
 "y"
 "Density"
 "Momentum_x"
 "Momentum_y"
 "Energy"
 "Pressure"
 "Temperature"
 "Mach"
 "C<sub>p</sub>"
 "Roe_Dissipation"
ZONE
DT=(DOUBLE,DOUBLE,DOUBLE,DOUBLE,DOUBLE,DOUBLE,DOUBLE,DOUBLE,DOUBLE,DOUBLE,DOUBLE)
                     -2                       0        1.22508597373962        41.6967582702637   -4.10396499769816E-12           254021.203125          101324.6015625        288.123504638672        0.10002239793539   -0.000517918728291988                       0 
      -1.99749874937469                       0        1.22508597373962        41.6967582702637     3.6837889401409E-12           254021.203125          101324.6015625        288.123504638672        0.10002239793539   -0.000517918776555722                       0 
      -1.99499749874937                       0        1.22508597373962        41.6967582702637    1.14715428779807E-11           254021.203125          101324.6015625        288.123504638672        0.10002239793539   -0.000517918824819456                       0 
      -1.99249624812406                       0        1.22508597373962        41.6967582702637    1.92592968158197E-11           254021.203125          101324.6015625        288.123504638672        0.10002239793539    -0.00051791887308319                       0 
      -1.98999499749875                       0        1.22508597373962        41.6967582702637    2.70470507536588E-11           254021.203125          101324.6015625        288.123504638672        0.10002239793539   -0.000517918921346923                       0 
      -1.98749374687344                       0        1.22508597373962        41.6967582702637    3.48348046914979E-11           254021.203125          101324.6015625        288.123504638672        0.10002239793539   -0.000517918969610657                       0 
      -1.98499249624812                       0        1.22508597373962        41.6967582702637    4.26225586293376E-11           254021.203125          101324.6015625        288.123504638672        0.10002239793539   -0.000517919017874391                       0 
      -1.98249124562281                       0        1.22508597373962        41.6967582702637    5.04103125671767E-11           254021.203125          101324.6015625        288.123504638672        0.10002239793539   -0.000517919066138124                       0 
       -1.9799899949975                       0        1.22508597373962        41.6967582702637    5.81980665050157E-11           254021.203125          101324.6015625        288.123504638672        0.10002239793539   -0.000517919114401858                       0 
      -1.97748874437219                       0        1.22508597373962        41.6967582702637    6.59858204428555E-11           254021.203125          101324.6015625        288.123504638672        0.10002239793539   -0.000517919162665592                       0 
      -1.97498749374687                       0        1.22508597373962        41.6967582702637    7.37735743806946E-11           254021.203125          101324.6015625        288.123504638672        0.10002239793539   -0.000517919210929326                       0 
      -1.97248624312156                       0        1.22508597373962        41.6967582702637    8.15613283185336E-11           254021.203125          101324.6015625        288.123504638672        0.10002239793539   -0.000517919259193059                       0 
      -1.96998499249625                       0        1.22508597373962        41.6967582702637    8.93490822563734E-11           254021.203125          101324.6015625        288.123504638672        0.10002239793539   -0.000517919307456793                       0 
      -1.96748374187094                       0        1.22508597373962        41.6967582702637    9.71368361942125E-11           254021.203125          101324.6015625        288.123504638672        0.10002239793539   -0.000517919355720527                       0 
      -1.96498249124562                       0        1.22508597373962        41.6967582702637    1.04924590132052E-10           254021.203125          101324.6015625        288.123504638672        0.10002239793539    -0.00051791940398426                       0 
      -1.96248124062031                       0        1.22508597373962        41.6967582702637    1.12712344069891E-10           254021.203125          101324.6015625        288.123504638672        0.10002239793539   -0.000517919452247994                       0 
        -1.959979989995                       0        1.22508597373962        41.6967582702637     1.2050009800773E-10           254021.203125          101324.6015625        288.123504638672        0.10002239793539   -0.000517919500511728                       0 
      -1.95747873936968                       0        1.22508597373962        41.6967582702637    1.28287851945569E-10           254021.203125          101324.6015625        288.123504638672        0.10002239793539   -0.000517919548775462                       0 
      -1.95497748874437                       0        1.22508597373962        41.6967582702637    1.36075605883408E-10           254021.203125          101324.6015625        288.123504638672        0.10002239793539   -0.000517919597039195                       0 
      -1.95247623811906                       0        1.22508597373962        41.6967582702637    1.43863359821248E-10           254021.203125          101324.6015625        288.123504638672        0.10002239793539   -0.000517919645302929                       0 
      -1.94997498749375                       0        1.22508597373962        41.6967582702637    1.51651113759087E-10           254021.203125          101324.6015625        288.123504638672        0.10002239793539   -0.000517919693566663                       0 
      -1.94747373686843                       0        1.22508597373962        41.6967582702637    1.59538953285585E-10           254021.203125          101324.6015625        288.123504638672        0.10002239793539   -0.000517919734769209                       0 
      -1.94497248624312                       0        1.22508597373962        41.6967582702637     1.6752790971664E-10           254021.203125          101324.6015625        288.123504638672        0.10002239793539   -0.000517919768837806                       0 
      -1.94247123561781                       0        1.22508597373962        41.6967582702637    1.75516866147695E-10           254021.203125          101324.6015625        288.123504638672        0.10002239793539   -0.000517919802906403                       0 
       -1.9399699849925                       0        1.22508597373962        41.6967582702637     1.8350582257875E-10           254021.203125          101324.6015625        288.123504638672        0.10002239793539      -0.000517919836975                       0 
      -1.93746873436718                       0        1.22508597373962        41.6967582702637    1.91494779009805E-10           254021.203125          101324.6015625        288.123504638672        0.10002239793539   -0.000517919871043597                       0 
      -1.93496748374187                       0        1.22508597373962        41.6967582702637    1.99483735440861E-10           254021.203125          101324.6015625        288.123504638672        0.10002239793539   -0.000517919905112194                       0 
      -1.93246623311656                       0        1.22508597373962        41.6967582702637    2.07472691871916E-10           254021.203125          101324.6015625        288.123504638672        0.10002239793539   -0.000517919939180791                       0 
      -1.92996498249125                       0        1.22508597373962        41.6967582702637    2.15461648302971E-10           254021.203125          101324.6015625        288.123504638672        0.10002239793539   -0.000517919973249389                       0 
      -1.92746373186593                       0        1.22508597373962        41.6967582702637    2.23450604734026E-10           254021.203125          101324.6015625        288.123504638672        0.10002239793539   -0.000517920007317986                       0 
      -1.92496248124062                       0        1.22508597373962        41.6967582702637    2.31439561165081E-10           254021.203125          101324.6015625        288.123504638672        0.10002239793539   -0.000517920041386583                       0 
      -1.92246123061531                       0        1.22508597373962        41.6967582702637    2.39428517596136E-10           254021.203125          101324.6015625        288.123504638672        0.10002239793539    -0.00051792007545518                       0 
      -1.91995997998999                       0        1.22508597373962        41.6967582702637    2.47417474027192E-10           254021.203125          101324.6015625        288.123504638672        0.10002239793539   -0.000517920109523777                       0 
      -1.91745872936468                       0        1.22508597373962        41.6967582702637    2.55406430458247E-10           254021.203125          101324.6015625        288.123504638672        0.10002239793539   -0.000517920143592374                       0 
      -1.91495747873937                       0        1.22508597373962        41.6967582702637    2.63395386889302E-10           254021.203125          101324.6015625        288.123504638672        0.10002239793539   -0.000517920177660971                       0 
      -1.91245622811406                       0        1.22508597373962        41.6967582702637    2.71384343320357E-10           254021.203125          101324.6015625        288.123504638672        0.10002239793539   -0.000517920211729568                       0 
      -1.90995497748874                       0        1.22508597373962        41.6967582702637    2.79373299751412E-10           254021.203125          101324.6015625        288.123504638672        0.10002239793539   -0.000517920245798166                       0 
      -1.90745372686343                       0        1.22508597373962        41.6967582702637    2.87362256182467E-10           254021.203125          101324.6015625        288.123504638672        0.10002239793539   -0.000517920279866763                       0 
      -1.90495247623812                       0        1.22508597373962        41.6967582702637    2.95351212613522E-10           254021.203125          101324.6015625        288.123504638672        0.10002239793539    -0.00051792031393536                       0 
      -1.90245122561281                       0        1.22508597373962        41.6967582702637    3.03340169044578E-10           254021.203125          101324.6015625        288.123504638672        0.10002239793539   -0.000517920348003957                       0 
      -1.89994997498749                       0        1.22508597373962        41.6967582702637    3.11329125475633E-10           254021.203125          101324.6015625        288.123504638672        0.10002239793539   -0.000517920382072554                       0 
      -1.89744872436218                       0        1.22508597373962        41.6967582702637    3.19318081906688E-10           254021.203125          101324.6015625        288.123504638672        0.10002239793539   -0.000517920416141151                       0 
      -1.89494747373687                       0        1.22508597373962        41.6967582702637    3.27507832592067E-10           254021.203125          101324.6015625        288.123504638672        0.10002239793539   -0.000517920458683548                       0 
      -1.89244622311156                       0        1.22508597373962        41.6967582702637    3.35698608135312E-10           254021.203125          101324.6015625        288.123504638672        0.10002239793539   -0.000517920501269195                       0 
      -1.88994497248624                       0        1.22508597373962        41.6967582702637    3.43889383678558E-10           254021.203125          101324.6015625        288.123504638672        0.10002239793539   -0.000517920543854843                       0 
      -1.88744372186093                       0        1.22508597373962        41.6967582702637    3.52080159221804E-10           254021.203125          101324.6015625        288.123504638672        0.10002239793539    -0.00051792058644049                       0 
      -1.88494247123562                       0        1.22508597373962        41.6967582702637     3.6027093476505E-10           254021.203125          101324.6015625        288.123504638672        0.10002239793539   -0.000517920629026138                       0 
      -1.88244122061031                       0        1.22508597373962        41.6967582702637    3.68461710308296E-10           254021.203125          101324.6015625        288.123504638672        0.10002239793539   -0.000517920671611785                       0 
      -1.87993996998499                       0        1.22508597373962        41.6967582702637    3.76652485851541E-10           254021.203125          101324.6015625        288.123504638672        0.10002239793539   -0.000517920714197432                       0 
      -1.87743871935968                       0        1.22508597373962        41.6967582702637    3.84843261394788E-10           254021.203125          101324.6015625        288.123504638672        0.10002239793539    -0.00051792075678308                       0 
      -1.87493746873437                       0        1.22508597373962        41.6967582702637    3.93034036938033E-10           254021.203125          101324.6015625        288.123504638672        0.10002239793539   -0.000517920799368727                       0 
      -1.87243621810905                       0        1.22508597373962        41.6967582702637    4.01224812481279E-10           254021.203125          101324.6015625        288.123504638672        0.10002239793539   -0.000517920841954375                       0 
      -1.86993496748374                       0        1.22508597373962        41.6967582702637    4.09415588024525E-10           254021.203125          101324.6015625        288.123504638672        0.10002239793539   -0.000517920884540022                       0 
      -1.86743371685843                       0        1.22508597373962        41.6967582702637    4.17606363567771E-10           254021.203125          101324.6015625        288.123504638672        0.10002239793539   -0.000517920927125669                       0 
      -1.86493246623312                       0        1.22508597373962        41.6967582702637    4.25797139111017E-10           254021.203125          101324.6015625        288.123504638672        0.10002239793539   -0.000517920969711317                       0 
       -1.8624312156078                       0        1.22508597373962        41.6967582702637    4.33987914654262E-10           254021.203125          101324.6015625        288.123504638672        0.10002239793539   -0.000517921012296964                       0 
      -1.85992996498249                       0        1.22508597373962        41.6967582702637    4.42178690197509E-10           254021.203125          101324.6015625        288.123504638672        0.10002239793539   -0.000517921054882612                       0 
      -1.85742871435718                       0        1.22508597373962        41.6967582702637    4.50369465740754E-10           254021.203125          101324.6015625        288.123504638672        0.10002239793539   -0.000517921097468259                       0 
      -1.85492746373187                       0        1.22508597373962        41.6967582702637       4.58560241284E-10           254021.203125          101324.6015625        288.123504638672        0.10002239793539   -0.000517921140053906                       0 
      -1.85242621310655                       0        1.22508597373962        41.6967582702637    4.66751016827246E-10           254021.203125          101324.6015625        288.123504638672        0.10002239793539   -0.000517921182639554                       0 
      -1.84992496248124                       0        1.22508597373962        41.6967582702637    4.74941792370492E-10           254021.203125          101324.6015625        288.123504638672        0.10002239793539   -0.000517921225225201                       0 
      -1.84742371185593                       0        1.22508597373962        41.6967582702637    4.83132567913738E-10           254021.203125          101324.6015625        288.123504638672        0.10002239793539   -0.000517921267810849                       0 
      -1.84492246123062                       0        1.22508597373962        41.6967582702637    4.91508468464207E-10           254021.203125          101324.6015625        288.123504638672        0.10002239793539   -0.000517921308998713                       0 
       -1.8424212106053                       0        1.22508597373962        41.6967582702637    5.00075239978552E-10           254021.203125          101324.6015625        288.123504638672        0.10002239793539    -0.00051792134874541                       0 
      -1.83991995997999                       0        1.22508597373962        41.6967582702637    5.08642011492895E-10           254021.203125          101324.6015625        288.123504638672        0.10002239793539   -0.000517921388492106                       0 
      -1.83741870935468                       0        1.22508597373962        41.6967582702637    5.17208783007238E-10           254021.203125          101324.6015625        288.123504638672        0.10002239793539   -0.000517921428238803                       0 
      -1.83491745872936                       0        1.22508597373962        41.6967582702637    5.25775554521582E-10           254021.203125          101324.6015625        288.123504638672        0.10002239793539     -0.0005179214679855                       0 
      -1.83241620810405                       0        1.22508597373962        41.6967582702637    5.34342326035926E-10           254021.203125          101324.6015625        288.123504638672        0.10002239793539   -0.000517921507732196                       0 
      -1.82991495747874                       0        1.22508597373962        41.6967582702637    5.42909097550269E-10           254021.203125          101324.6015625        288.123504638672        0.10002239793539   -0.000517921547478893                       0 
      -1.82741370685343                       0        1.22508597373962        41.6967582702637    5.51475869064613E-10           254021.203125          101324.6015625        288.123504638672        0.10002239793539    -0.00051792158722559                       0 
      -1.82491245622811                       0        1.22508597373962        41.6967582702637    5.60042640578957E-10           254021.203125          101324.6015625        288.123504638672        0.10002239793539   -0.000517921626972286                       0 
       -1.8224112056028                       0        1.22508597373962        41.6967582702637      5.686094120933E-10           254021.203125          101324.6015625        288.123504638672        0.10002239793539   -0.000517921666718983                       0 
      -1.81990995497749                       0        1.22508597373962        41.6967582702637    5.77176183607644E-10           254021.203125          101324.6015625        288.123504638672        0.10002239793539    -0.00051792170646568                       0 
      -1.81740870435218                       0        1.22508597373962        41.6967582702637    5.85742955121988E-10           254021.203125          101324.6015625        288.123504638672        0.10002239793539   -0.000517921746212376                       0 
      -1.81490745372686                       0        1.22508597373962        41.6967582702637    5.94309726636331E-10           254021.203125          101324.6015625        288.123504638672        0.10002239793539   -0.000517921785959073                       0 
      -1.81240620310155                       0        1.22508597373962        41.6967582702637    6.02876498150674E-10           254021.203125          101324.6015625        288.123504638672        0.10002239793539   -0.000517921825705769                       0 
      -1.80990495247624                       0        1.22508597373962        41.6967582702637    6.11443269665019E-10           254021.203125          101324.6015625        288.123504638672        0.10002239793539   -0.000517921865452466                       0 
      -1.80740370185093                       0        1.22508597373962        41.6967582702637    6.20010041179362E-10           254021.203125          101324.6015625        288.123504638672        0.10002239793539   -0.000517921905199163                       0 
      -1.80490245122561                       0        1.22508597373962        41.6967582702637    6.28576812693705E-10           254021.203125          101324.6015625        288.123504638672        0.10002239793539   -0.000517921944945859                       0 
       -1.8024012006003                       0        1.22508597373962        41.6967582702637     6.3714358420805E-10           254021.203125          101324.6015625        288.123504638672        0.10002239793539   -0.000517921984692556                       0 
      -1.79989994997499                       0        1.22508597373962        41.6967582702637    6.45710355722393E-10           254021.203125          101324.6015625        288.123504638672        0.10002239793539   -0.000517922024439253                       0 
      -1.79739869934967                       0        1.22508597373962        41.6967582702637    6.54277127236736E-10           254021.203125          101324.6015625        288.123504638672        0.10002239793539   -0.000517922064185949                       0 
      -1.79489744872436                       0        1.22508597373962        41.6967582702637     6.6284389875108E-10           254021.203125          101324.6015625        288.123504638672        0.10002239793539   -0.000517922103932646                       0 
      -1.79239619809905                       0        1.22508597373962        41.6967582702637    6.71873422426493E-10           254021.203125          101324.6015625        288.123504638672        0.10002239793539   -0.000517922143679251                       0 
      -1.78989494747374                       0        1.22508597373962        41.6967582702637    6.80907694128393E-10           254021.203125          101324.6015625        288.123504638672        0.10002239793539   -0.000517922183425855                       0 
      -1.78739369684842                       0        1.22508597373962        41.6967582702637    6.89941965830293E-10           254021.203125          101324.6015625        288.123504638672        0.10002239793539    -0.00051792222317246                       0 
      -1.78489244622311                       0        1.22508597373962        41.6967582702637    6.98976237532193E-10           254021.203125          101324.6015625        288.123504638672        0.10002239793539   -0.000517922262919064                       0 
       -1.7823911955978                       0        1.22508597373962        41.6967582702637    7.08010509234093E-10           254021.203125          101324.6015625        288.123504638672        0.10002239793539   -0.000517922302665668                       0 
      -1.77988994497249                       0        1.22508597373962        41.6967582702637    7.17044780935993E-10           254021.203125          101324.6015625        288.123504638672        0.10002239793539   -0.000517922342412272                       0 
      -1.77738869434717                       0        1.22508597373962        41.6967582702637    7.26079052637894E-10           254021.203125          101324.6015625        288.123504638672        0.10002239793539   -0.000517922382158877                       0 
      -1.77488744372186                       0        1.22508597373962        41.6967582702637    7.35113324339794E-10           254021.203125          101324.6015625        288.123504638672        0.10002239793539   -0.000517922421905481                       0 
      -1.77238619309655                       0        1.22508597373962        41.6967582702637    7.44147596041694E-10           254021.203125          101324.6015625        288.123504638672        0.10002239793539   -0.000517922461652085                       0 
      -1.76988494247124                       0        1.22508597373962        41.6967582702637    7.53181867743595E-10           254021.203125          101324.6015625        288.123504638672        0.10002239793539   -0.000517922501398689                       0 
      -1.76738369184592                       0        1.22508597373962        41.6967582702637    7.62216139445494E-10           254021.203125          101324.6015625        288.123504638672        0.10002239793539   -0.000517922541145294                       0 
      -1.76488244122061                       0        1.22508597373962        41.6967582702637    7.71250411147394E-10           254021.203125          101324.6015625        288.123504638672        0.10002239793539   -0.000517922580891898                       0 
       -1.7623811905953                       0        1.22508597373962        41.6967582702637    7.80284682849294E-10           254021.203125          101324.6015625        288.123504638672        0.10002239793539   -0.000517922620638502                       0 
      -1.75987993996998                       0        1.22508597373962        41.6967582702637    7.89318954551195E-10           254021.203125          101324.6015625        288.123504638672        0.10002239793539   -0.000517922660385106                       0 
      -1.75737868934467                       0        1.22508597373962        41.6967582702637    7.98353226253095E-10           254021.203125          101324.6015625        288.123504638672        0.10002239793539   -0.000517922700131711                       0 
      -1.75487743871936                       0        1.22508597373962        41.6967582702637    8.07387497954995E-10           254021.203125          101324.6015625        288.123504638672        0.10002239793539   -0.000517922739878315                       0 
      -1.75237618809405                       0        1.22508597373962        41.6967582702637    8.16421769656896E-10           254021.203125          101324.6015625        288.123504638672        0.10002239793539   -0.000517922779624919                       0 
      -1.74987493746873                       0        1.22508597373962        41.6967582702637    8.25456041358795E-10           254021.203125          101324.6015625        288.123504638672        0.10002239793539   -0.000517922819371523                       0 
      -1.74737368684342                       0        1.22508597373962        41.6967582702637    8.34490313060695E-10           254021.203125          101324.6015625        288.123504638672        0.10002239793539   -0.000517922859118127                       0 
      -1.74487243621811                       0        1.22508597373962        41.6967582702637    8.43524584762595E-10           254021.203125          101324.6015625        288.123504638672        0.10002239793539   -0.000517922898864732                       0 
       -1.7423711855928                       0        1.22508597373962        41.6967582702637    8.52821530588329E-10           254021.203125          101324.6015625        288.123504638672        0.10002239793539   -0.000517922939994747                       0 
      -1.73986993496748                       0        1.22508597373962        41.6967582702637    8.62394863260151E-10           254021.203125          101324.6015625        288.123504638672        0.10002239793539   -0.000517922982580395                       0 
      -1.73736868434217                       0        1.22508597373962        41.6967582702637    8.71968195931975E-10           254021.203125          101324.6015625        288.123504638672        0.10002239793539   -0.000517923025166042                       0 
      -1.73486743371686                       0        1.22508597373962        41.6967582702637    8.81541528603797E-10           254021.203125          101324.6015625        288.123504638672        0.10002239793539    -0.00051792306775169                       0 
      -1.73236618309155                       0        1.22508597373962        41.6967582702637    8.91114861275619E-10           254021.203125          101324.6015625        288.123504638672        0.10002239793539   -0.000517923110337337                       0 
      -1.72986493246623                       0        1.22508597373962        41.6967582702637    9.00688193947441E-10           254021.203125          101324.6015625        288.123504638672        0.10002239793539   -0.000517923152922984                       0 
      -1.72736368184092                       0        1.22508597373962        41.6967582702637    9.10261526619264E-10           254021.203125          101324.6015625        288.123504638672        0.10002239793539   -0.000517923195508632                       0 
      -1.72486243121561                       0        1.22508597373962        41.6967582702637    9.19834859291087E-10           254021.203125          101324.6015625        288.123504638672        0.10002239793539   -0.000517923238094279                       0 
       -1.7223611805903                       0        1.22508597373962        41.6967582702637    9.29408191962909E-10           254021.203125          101324.6015625        288.123504638672        0.10002239793539   -0.000517923280679927                       0 