TITLE = "Visualization of the volumetric solution"
VARIABLES = "x","y","Density","Momentum_x","Momentum_y","Energy","Pressure","Temperature","Mach","C<sub>p</sub>","Roe_Dissipation"
ZONE NODES= 8496, ELEMENTS= 16606, DATAPACKING=POINT, ZONETYPE=FEQUADRILATERAL
-1.500000e-01	1.041837e-03	1.224513e+00	5.563808e+01	-2.335490e-06	2.544124e+05	1.012593e+05	2.880726e+02	1.335392e-01	-5.477158e-02	0.000000e+00	
-1.489386e-01	1.328469e-03	1.224513e+00	5.563807e+01	-3.865605e-06	2.544124e+05	1.012594e+05	2.880726e+02	1.335392e-01	-5.476815e-02	0.000000e+00	
-1.479445e-01	7.597157e-04	1.224513e+00	5.563808e+01	-5.494980e-06	2.544124e+05	1.012594e+05	2.880726e+02	1.335392e-01	-5.476565e-02	0.000000e+00	
-1.500000e-01	2.083673e-03	1.224513e+00	5.563807e+01	-5.606504e-07	2.544124e+05	1.012593e+05	2.880726e+02	1.335392e-01	-5.477156e-02	0.000000e+00	
-1.479888e-01	1.833839e-03	1.224513e+00	5.563806e+01	-4.701117e-06	2.544124e+05	1.012594e+05	2.880726e+02	1.335392e-01	-5.476582e-02	0.000000e+00	
-1.489333e-01	2.451382e-03	1.224513e+00	5.563806e+01	-1.984296e-06	2.544124e+05	1.012594e+05	2.880726e+02	1.335392e-01	-5.476815e-02	0.000000e+00	
-1.469886e-01	1.232195e-03	1.224514e+00	5.563807e+01	-6.486961e-06	2.544124e+05	1.012594e+05	2.880726e+02	1.335392e-01	-5.476304e-02	0.000000e+00	
-1.500000e-01	3.125510e-03	1.224513e+00	5.563807e+01	9.443143e-08	2.544124e+05	1.012593e+05	2.880726e+02	1.335392e-01	-5.477142e-02	0.000000e+00	
-1.470664e-01	2.322159e-03	1.224513e+00	5.563806e+01	-5.678125e-06	2.544124e+05	1.012594e+05	2.880726e+02	1.335391e-01	-5.476320e-02	0.000000e+00	
-1.480271e-01	2.918858e-03	1.224513e+00	5.563806e+01	-2.814163e-06	2.544124e+05	1.012594e+05	2.880726e+02	1.335392e-01	-5.476579e-02	0.000000e+00	
-1.489466e-01	3.534448e-03	1.224513e+00	5.563807e+01	-5.000300e-07	2.544124e+05	1.012594e+05	2.880726e+02	1.335392e-01	-5.476814e-02	0.000000e+00	
-1.460737e-01	1.765955e-03	1.224514e+00	5.563806e+01	-7.113517e-06	2.544124e+05	1.012594e+05	2.880726e+02	1.335391e-01	-5.476063e-02	0.000000e+00	
-1.459352e-01	7.144445e-04	1.224514e+00	5.563808e+01	-4.611972e-06	2.544124e+05	1.012594e+05	2.880726e+02	1.335392e-01	-5.476023e-02	0.000000e+00	
-1.500000e-01	4.167347e-03	1.224513e+00	5.563807e+01	4.702057e-07	2.544124e+05	1.012593e+05	2.880726e+02	1.335392e-01	-5.477143e-02	0.000000e+00	
-1.461461e-01	2.829961e-03	1.224514e+00	5.563806e+01	-6.118867e-06	2.544124e+05	1.012594e+05	2.880726e+02	1.335391e-01	-5.476072e-02	0.000000e+00	
-1.471161e-01	3.404989e-03	1.224513e+00	5.563806e+01	-3.232096e-06	2.544124e+05	1.012594e+05	2.880726e+02	1.335391e-01	-5.476329e-02	0.000000e+00	
-1.480570e-01	3.999282e-03	1.224513e+00	5.563806e+01	-8.841192e-07	2.544124e+05	1.012594e+05	2.880726e+02	1.335392e-01	-5.476584e-02	0.000000e+00	
-1.489613e-01	4.599886e-03	1.224513e+00	5.563807e+01	1.945782e-07	2.544124e+05	1.012594e+05	2.880726e+02	1.335392e-01	-5.476816e-02	0.000000e+00	
-1.451645e-01	2.275370e-03	1.224514e+00	5.563806e+01	-7.557511e-06	2.544124e+05	1.012594e+05	2.880726e+02	1.335391e-01	-5.475808e-02	0.000000e+00	
-1.450758e-01	1.220250e-03	1.224514e+00	5.563807e+01	-5.491527e-06	2.544124e+05	1.012594e+05	2.880726e+02	1.335392e-01	-5.475788e-02	0.000000e+00	
-1.500000e-01	5.209184e-03	1.224513e+00	5.563807e+01	3.505285e-07	2.544124e+05	1.012593e+05	2.880726e+02	1.335392e-01	-5.477145e-02	0.000000e+00	
-1.461929e-01	3.903282e-03	1.224514e+00	5.563806e+01	-3.490989e-06	2.544124e+05	1.012594e+05	2.880726e+02	1.335391e-01	-5.476080e-02	0.000000e+00	
-1.452229e-01	3.336972e-03	1.224514e+00	5.563805e+01	-5.917779e-06	2.544124e+05	1.012594e+05	2.880726e+02	1.335391e-01	-5.475821e-02	0.000000e+00	
-1.471500e-01	4.481902e-03	1.224513e+00	5.563806e+01	-1.261366e-06	2.544124e+05	1.012594e+05	2.880726e+02	1.335392e-01	-5.476333e-02	0.000000e+00	
-1.480784e-01	5.068341e-03	1.224513e+00	5.563807e+01	8.115470e-09	2.544124e+05	1.012594e+05	2.880726e+02	1.335392e-01	-5.476587e-02	0.000000e+00	
-1.489724e-01	5.655592e-03	1.224513e+00	5.563807e+01	3.388922e-07	2.544124e+05	1.012594e+05	2.880726e+02	1.335392e-01	-5.476819e-02	0.000000e+00	
-1.442562e-01	2.780089e-03	1.224514e+00	5.563805e+01	-7.225391e-06	2.544124e+05	1.012594e+05	2.880726e+02	1.335391e-01	-5.475557e-02	0.000000e+00	
-1.441903e-01	1.742371e-03	1.224514e+00	5.563806e+01	-6.477729e-06	2.544124e+05	1.012594e+05	2.880726e+02	1.335391e-01	-5.475544e-02	0.000000e+00	
-1.441899e-01	8.123666e-04	1.224514e+00	5.563808e+01	-3.255901e-06	2.544124e+05	1.012594e+05	2.880726e+02	1.335392e-01	-5.475535e-02	0.000000e+00	
-1.500000e-01	6.251020e-03	1.224513e+00	5.563807e+01	1.852705e-07	2.544124e+05	1.012593e+05	2.880726e+02	1.335392e-01	-5.477147e-02	0.000000e+00	
-1.462250e-01	4.974819e-03	1.224514e+00	5.563806e+01	-1.443449e-06	2.544124e+05	1.012594e+05	2.880726e+02	1.335391e-01	-5.476085e-02	0.000000e+00	
-1.452641e-01	4.407377e-03	1.224514e+00	5.563806e+01	-3.389461e-06	2.544124e+05	1.012594e+05	2.880726e+02	1.335391e-01	-5.475828e-02	0.000000e+00	
-1.443059e-01	3.847437e-03	1.224514e+00	5.563805e+01	-5.342180e-06	2.544124e+05	1.012594e+05	2.880726e+02	1.335391e-01	-5.475570e-02	0.000000e+00	
-1.471729e-01	5.549043e-03	1.224513e+00	5.563806e+01	-1.821525e-07	2.544124e+05	1.012594e+05	2.880726e+02	1.335392e-01	-5.476336e-02	0.000000e+00	
-1.480927e-01	6.126757e-03	1.224513e+00	5.563807e+01	3.347187e-07	2.544124e+05	1.012594e+05	2.880726e+02	1.335392e-01	-5.476590e-02	0.000000e+00	
-1.489800e-01	6.704894e-03	1.224513e+00	5.563807e+01	3.404102e-07	2.544124e+05	1.012594e+05	2.880726e+02	1.335392e-01	-5.476821e-02	0.000000e+00	
-1.433638e-01	3.293362e-03	1.224514e+00	5.563805e+01	-6.390418e-06	2.544124e+05	1.012594e+05	2.880726e+02	1.335391e-01	-5.475314e-02	0.000000e+00	
-1.433152e-01	2.210700e-03	1.224514e+00	5.563805e+01	-6.567280e-06	2.544124e+05	1.012594e+05	2.880726e+02	1.335391e-01	-5.475297e-02	0.000000e+00	
-1.432519e-01	1.073431e-03	1.224514e+00	5.563808e+01	-3.205550e-06	2.544124e+05	1.012594e+05	2.880726e+02	1.335392e-01	-5.475285e-02	0.000000e+00	
-1.500000e-01	7.292857e-03	1.224513e+00	5.563807e+01	1.117596e-07	2.544124e+05	1.012593e+05	2.880726e+02	1.335392e-01	-5.477149e-02	0.000000e+00	
-1.462467e-01	6.037385e-03	1.224514e+00	5.563806e+01	-3.250276e-07	2.544124e+05	1.012594e+05	2.880726e+02	1.335392e-01	-5.476088e-02	0.000000e+00	
-1.452928e-01	5.474205e-03	1.224514e+00	5.563806e+01	-1.463892e-06	2.544124e+05	1.012594e+05	2.880726e+02	1.335391e-01	-5.475833e-02	0.000000e+00	
-1.443411e-01	4.917043e-03	1.224514e+00	5.563806e+01	-3.031062e-06	2.544124e+05	1.012594e+05	2.880726e+02	1.335391e-01	-5.475577e-02	0.000000e+00	
-1.434011e-01	4.366263e-03	1.224514e+00	5.563805e+01	-4.613185e-06	2.544124e+05	1.012594e+05	2.880726e+02	1.335391e-01	-5.475322e-02	0.000000e+00	
-1.471881e-01	6.605564e-03	1.224513e+00	5.563807e+01	2.839474e-07	2.544124e+05	1.012594e+05	2.880726e+02	1.335392e-01	-5.476339e-02	0.000000e+00	
-1.481023e-01	7.176900e-03	1.224513e+00	5.563807e+01	4.726674e-07	2.544124e+05	1.012594e+05	2.880726e+02	1.335392e-01	-5.476592e-02	0.000000e+00	
-1.489855e-01	7.750008e-03	1.224513e+00	5.563807e+01	3.741242e-07	2.544124e+05	1.012594e+05	2.880726e+02	1.335392e-01	-5.476824e-02	0.000000e+00	
-1.424405e-01	2.763320e-03	1.224514e+00	5.563805e+01	-5.988888e-06	2.544124e+05	1.012594e+05	2.880726e+02	1.335391e-01	-5.475060e-02	0.000000e+00	
-1.424747e-01	3.825818e-03	1.224514e+00	5.563805e+01	-5.575196e-06	2.544124e+05	1.012594e+05	2.880726e+02	1.335391e-01	-5.475068e-02	0.000000e+00	
-1.424005e-01	1.731349e-03	1.224514e+00	5.563806e+01	-4.118969e-06	2.544124e+05	1.012594e+05	2.880726e+02	1.335391e-01	-5.475048e-02	0.000000e+00	
-1.422879e-01	8.065577e-04	1.224514e+00	5.563809e+01	-2.020698e-06	2.544124e+05	1.012594e+05	2.880726e+02	1.335392e-01	-5.474996e-02	0.000000e+00	
-1.500000e-01	8.334694e-03	1.224513e+00	5.563807e+01	9.747058e-08	2.544124e+05	1.012593e+05	2.880726e+02	1.335392e-01	-5.477151e-02	0.000000e+00	
-1.453128e-01	6.531295e-03	1.224514e+00	5.563806e+01	-4.075023e-07	2.544124e+05	1.012594e+05	2.880726e+02	1.335391e-01	-5.475836e-02	0.000000e+00	
-1.462617e-01	7.089754e-03	1.224514e+00	5.563806e+01	2.309150e-07	2.544124e+05	1.012594e+05	2.880726e+02	1.335392e-01	-5.476091e-02	0.000000e+00	
-1.443659e-01	5.978744e-03	1.224514e+00	5.563806e+01	-1.387043e-06	2.544124e+05	1.012594e+05	2.880726e+02	1.335391e-01	-5.475582e-02	0.000000e+00	
-1.434291e-01	5.432028e-03	1.224514e+00	5.563806e+01	-2.635413e-06	2.544124e+05	1.012594e+05	2.880726e+02	1.335391e-01	-5.475328e-02	0.000000e+00	
-1.425034e-01	4.891566e-03	1.224514e+00	5.563805e+01	-3.896144e-06	2.544124e+05	1.012594e+05	2.880726e+02	1.335391e-01	-5.475076e-02	0.000000e+00	
-1.471986e-01	7.653512e-03	1.224513e+00	5.563807e+01	5.508487e-07	2.544124e+05	1.012594e+05	2.880726e+02	1.335392e-01	-5.476341e-02	0.000000e+00	
-1.481093e-01	8.221380e-03	1.224513e+00	5.563807e+01	6.138173e-07	2.544124e+05	1.012594e+05	2.880726e+02	1.335392e-01	-5.476595e-02	0.000000e+00	
-1.489898e-01	8.792408e-03	1.224513e+00	5.563807e+01	4.509260e-07	2.544124e+05	1.012594e+05	2.880726e+02	1.335392e-01	-5.476826e-02	0.000000e+00	
-1.415209e-01	2.245399e-03	1.224514e+00	5.563805e+01	-4.672226e-06	2.544124e+05	1.012594e+05	2.880726e+02	1.335391e-01	-5.474804e-02	0.000000e+00	
-1.415568e-01	3.296128e-03	1.224514e+00	5.563804e+01	-5.472579e-06	2.544124e+05	1.012594e+05	2.880726e+02	1.335391e-01	-5.474815e-02	0.000000e+00	
-1.415859e-01	4.357677e-03	1.224514e+00	5.563805e+01	-4.733051e-06	2.544124e+05	1.012594e+05	2.880726e+02	1.335391e-01	-5.474824e-02	0.000000e+00	
-1.414809e-01	1.202528e-03	1.224514e+00	5.563808e+01	-2.827844e-06	2.544124e+05	1.012594e+05	2.880726e+02	1.335392e-01	-5.474792e-02	0.000000e+00	
-1.500000e-01	9.376531e-03	1.224513e+00	5.563807e+01	1.008161e-07	2.544124e+05	1.012593e+05	2.880726e+02	1.335392e-01	-5.477153e-02	0.000000e+00	
-1.443838e-01	7.030099e-03	1.224514e+00	5.563806e+01	-4.739661e-07	2.544124e+05	1.012594e+05	2.880726e+02	1.335391e-01	-5.475585e-02	0.000000e+00	
-1.453271e-01	7.578830e-03	1.224514e+00	5.563806e+01	1.547293e-07	2.544124e+05	1.012594e+05	2.880726e+02	1.335391e-01	-5.475838e-02	0.000000e+00	
-1.462726e-01	8.134103e-03	1.224514e+00	5.563806e+01	5.790865e-07	2.544124e+05	1.012594e+05	2.880726e+02	1.335392e-01	-5.476093e-02	0.000000e+00	
-1.434500e-01	6.487532e-03	1.224514e+00	5.563806e+01	-1.311905e-06	2.544124e+05	1.012594e+05	2.880726e+02	1.335391e-01	-5.475332e-02	0.000000e+00	
-1.425262e-01	5.950364e-03	1.224514e+00	5.563805e+01	-2.325655e-06	2.544124e+05	1.012594e+05	2.880726e+02	1.335391e-01	-5.475080e-02	0.000000e+00	
-1.416097e-01	5.417833e-03	1.224514e+00	5.563805e+01	-3.341240e-06	2.544124e+05	1.012594e+05	2.880726e+02	1.335391e-01	-5.474829e-02	0.000000e+00	
-1.405826e-01	6.938994e-04	1.224514e+00	5.563809e+01	-3.534669e-07	2.544125e+05	1.012594e+05	2.880726e+02	1.335392e-01	-5.474542e-02	0.000000e+00	
-1.472064e-01	8.695473e-03	1.224513e+00	5.563807e+01	7.929197e-07	2.544124e+05	1.012594e+05	2.880726e+02	1.335392e-01	-5.476343e-02	0.000000e+00	
-1.481147e-01	9.261948e-03	1.224513e+00	5.563807e+01	7.903381e-07	2.544124e+05	1.012594e+05	2.880726e+02	1.335392e-01	-5.476597e-02	0.000000e+00	
-1.489934e-01	9.832743e-03	1.224513e+00	5.563807e+01	5.601294e-07	2.544124e+05	1.012594e+05	2.880726e+02	1.335392e-01	-5.476829e-02	0.000000e+00	
-1.406485e-01	2.772195e-03	1.224514e+00	5.563805e+01	-4.588619e-06	2.544125e+05	1.012594e+05	2.880726e+02	1.335391e-01	-5.474564e-02	0.000000e+00	
-1.406168e-01	1.728044e-03	1.224514e+00	5.563807e+01	-3.249408e-06	2.544125e+05	1.012594e+05	2.880726e+02	1.335391e-01	-5.474551e-02	0.000000e+00	
-1.406755e-01	3.829824e-03	1.224514e+00	5.563804e+01	-4.821841e-06	2.544125e+05	1.012594e+05	2.880726e+02	1.335391e-01	-5.474572e-02	0.000000e+00	
-1.406988e-01	4.889437e-03	1.224514e+00	5.563805e+01	-4.060683e-06	2.544125e+05	1.012594e+05	2.880726e+02	1.335391e-01	-5.474579e-02	0.000000e+00	
-1.500000e-01	1.041837e-02	1.224513e+00	5.563807e+01	1.103023e-07	2.544124e+05	1.012593e+05	2.880726e+02	1.335392e-01	-5.477156e-02	0.000000e+00	
-1.434659e-01	7.533464e-03	1.224514e+00	5.563806e+01	-5.657351e-07	2.544124e+05	1.012594e+05	2.880726e+02	1.335391e-01	-5.475335e-02	0.000000e+00	
-1.443972e-01	8.073046e-03	1.224514e+00	5.563806e+01	4.493522e-08	2.544124e+05	1.012594e+05	2.880726e+02	1.335391e-01	-5.475587e-02	0.000000e+00	
-1.453378e-01	8.619337e-03	1.224514e+00	5.563806e+01	5.419958e-07	2.544124e+05	1.012594e+05	2.880726e+02	1.335391e-01	-5.475840e-02	0.000000e+00	
-1.462807e-01	9.172738e-03	1.224514e+00	5.563807e+01	8.978464e-07	2.544124e+05	1.012594e+05	2.880726e+02	1.335392e-01	-5.476095e-02	0.000000e+00	
-1.425440e-01	6.999596e-03	1.224514e+00	5.563806e+01	-1.289656e-06	2.544124e+05	1.012594e+05	2.880726e+02	1.335391e-01	-5.475084e-02	0.000000e+00	
-1.416288e-01	6.470202e-03	1.224514e+00	5.563805e+01	-2.118694e-06	2.544124e+05	1.012594e+05	2.880726e+02	1.335391e-01	-5.474833e-02	0.000000e+00	
-1.407182e-01	5.944205e-03	1.224514e+00	5.563805e+01	-2.940196e-06	2.544125e+05	1.012594e+05	2.880726e+02	1.335391e-01	-5.474583e-02	0.000000e+00	
-1.397241e-01	1.203993e-03	1.224514e+00	5.563808e+01	-5.355855e-07	2.544125e+05	1.012594e+05	2.880726e+02	1.335392e-01	-5.474310e-02	0.000000e+00	
-1.472124e-01	9.732896e-03	1.224513e+00	5.563807e+01	1.066623e-06	2.544124e+05	1.012594e+05	2.880726e+02	1.335392e-01	-5.476345e-02	0.000000e+00	
-1.481189e-01	1.029907e-02	1.224513e+00	5.563807e+01	1.014330e-06	2.544124e+05	1.012594e+05	2.880726e+02	1.335392e-01	-5.476600e-02	0.000000e+00	
-1.489962e-01	1.087087e-02	1.224513e+00	5.563807e+01	7.117063e-07	2.544124e+05	1.012594e+05	2.880726e+02	1.335392e-01	-5.476831e-02	0.000000e+00	
-1.397521e-01	2.250735e-03	1.224514e+00	5.563805e+01	-3.108019e-06	2.544125e+05	1.012594e+05	2.880726e+02	1.335391e-01	-5.474317e-02	0.000000e+00	
-1.397733e-01	3.308421e-03	1.224514e+00	5.563804e+01	-4.196359e-06	2.544125e+05	1.012594e+05	2.880726e+02	1.335391e-01	-5.474323e-02	0.000000e+00	
-1.397942e-01	4.365536e-03	1.224514e+00	5.563804e+01	-4.204383e-06	2.544125e+05	1.012594e+05	2.880726e+02	1.335391e-01	-5.474330e-02	0.000000e+00	
-1.398121e-01	5.421228e-03	1.224514e+00	5.563805e+01	-3.551578e-06	2.544125e+05	1.012594e+05	2.880726e+02	1.335391e-01	-5.474334e-02	0.000000e+00	
-1.500000e-01	1.146020e-02	1.224513e+00	5.563807e+01	1.360361e-07	2.544124e+05	1.012593e+05	2.880726e+02	1.335392e-01	-5.477159e-02	0.000000e+00	
-1.425580e-01	8.041046e-03	1.224514e+00	5.563806e+01	-7.001264e-07	2.544124e+05	1.012594e+05	2.880726e+02	1.335391e-01	-5.475086e-02	0.000000e+00	
-1.434781e-01	8.572594e-03	1.224514e+00	5.563806e+01	-1.111203e-07	2.544124e+05	1.012594e+05	2.880726e+02	1.335391e-01	-5.475337e-02	0.000000e+00	
-1.444075e-01	9.110159e-03	1.224514e+00	5.563806e+01	4.322503e-07	2.544124e+05	1.012594e+05	2.880726e+02	1.335391e-01	-5.475589e-02	0.000000e+00	
-1.453460e-01	9.654660e-03	1.224514e+00	5.563806e+01	9.009383e-07	2.544124e+05	1.012594e+05	2.880726e+02	1.335391e-01	-5.475842e-02	0.000000e+00	
-1.462868e-01	1.020653e-02	1.224514e+00	5.563807e+01	1.242441e-06	2.544124e+05	1.012594e+05	2.880726e+02	1.335392e-01	-5.476096e-02	0.000000e+00	
-1.416441e-01	7.514327e-03	1.224514e+00	5.563806e+01	-1.337245e-06	2.544124e+05	1.012594e+05	2.880726e+02	1.335391e-01	-5.474836e-02	0.000000e+00	
-1.407340e-01	6.991208e-03	1.224514e+00	5.563805e+01	-2.025198e-06	2.544125e+05	1.012594e+05	2.880726e+02	1.335391e-01	-5.474587e-02	0.000000e+00	
-1.398272e-01	6.470760e-03	1.224514e+00	5.563805e+01	-2.687975e-06	2.544125e+05	1.012594e+05	2.880726e+02	1.335391e-01	-5.474338e-02	0.000000e+00	
-1.388828e-01	7.734597e-04	1.224514e+00	5.563810e+01	1.806161e-06	2.544125e+05	1.012594e+05	2.880726e+02	1.335392e-01	-5.474055e-02	0.000000e+00	
-1.388722e-01	1.744844e-03	1.224514e+00	5.563807e+01	-4.269702e-07	2.544125e+05	1.012594e+05	2.880726e+02	1.335391e-01	-5.474068e-02	0.000000e+00	
-1.472167e-01	1.076566e-02	1.224513e+00	5.563807e+01	1.395626e-06	2.544124e+05	1.012594e+05	2.880726e+02	1.335392e-01	-5.476347e-02	0.000000e+00	
-1.481218e-01	1.133188e-02	1.224513e+00	5.563807e+01	1.311629e-06	2.544124e+05	1.012594e+05	2.880726e+02	1.335392e-01	-5.476603e-02	0.000000e+00	
-1.489980e-01	1.190578e-02	1.224513e+00	5.563807e+01	9.367142e-07	2.544124e+05	1.012594e+05	2.880726e+02	1.335392e-01	-5.476835e-02	0.000000e+00	
-1.388795e-01	2.798164e-03	1.224514e+00	5.563805e+01	-2.701763e-06	2.544125e+05	1.012594e+05	2.880726e+02	1.335391e-01	-5.474075e-02	0.000000e+00	
-1.388974e-01	3.847885e-03	1.224514e+00	5.563804e+01	-3.744362e-06	2.544125e+05	1.012594e+05	2.880726e+02	1.335391e-01	-5.474082e-02	0.000000e+00	
-1.389121e-01	4.902125e-03	1.224514e+00	5.563804e+01	-3.740895e-06	2.544125e+05	1.012594e+05	2.880726e+02	1.335391e-01	-5.474086e-02	0.000000e+00	
-1.389248e-01	5.952783e-03	1.224514e+00	5.563805e+01	-3.185499e-06	2.544125e+05	1.012594e+05	2.880726e+02	1.335391e-01	-5.474089e-02	0.000000e+00	
-1.500000e-01	1.250204e-02	1.224513e+00	5.563807e+01	2.024212e-07	2.544124e+05	1.012593e+05	2.880726e+02	1.335392e-01	-5.477164e-02	0.000000e+00	
-1.416565e-01	8.552516e-03	1.224514e+00	5.563806e+01	-8.723756e-07	2.544124e+05	1.012594e+05	2.880726e+02	1.335391e-01	-5.474838e-02	0.000000e+00	
-1.425692e-01	9.077346e-03	1.224514e+00	5.563806e+01	-3.111714e-07	2.544124e+05	1.012594e+05	2.880726e+02	1.335391e-01	-5.475088e-02	0.000000e+00	
-1.434878e-01	9.607078e-03	1.224514e+00	5.563806e+01	2.519712e-07	2.544124e+05	1.012594e+05	2.880726e+02	1.335391e-01	-5.475338e-02	0.000000e+00	
-1.444154e-01	1.014271e-02	1.224514e+00	5.563806e+01	7.952574e-07	2.544124e+05	1.012594e+05	2.880726e+02	1.335391e-01	-5.475590e-02	0.000000e+00	
-1.453519e-01	1.068509e-02	1.224514e+00	5.563806e+01	1.274120e-06	2.544124e+05	1.012594e+05	2.880726e+02	1.335391e-01	-5.475843e-02	0.000000e+00	
-1.462909e-01	1.123476e-02	1.224514e+00	5.563807e+01	1.629649e-06	2.544124e+05	1.012594e+05	2.880726e+02	1.335392e-01	-5.476098e-02	0.000000e+00	
-1.407471e-01	8.031543e-03	1.224514e+00	5.563806e+01	-1.435750e-06	2.544125e+05	1.012594e+05	2.880726e+02	1.335391e-01	-5.474589e-02	0.000000e+00	
-1.398402e-01	7.513437e-03	1.224514e+00	5.563805e+01	-2.006185e-06	2.544125e+05	1.012594e+05	2.880726e+02	1.335391e-01	-5.474340e-02	0.000000e+00	
-1.389363e-01	6.997450e-03	1.224514e+00	5.563805e+01	-2.531133e-06	2.544125e+05	1.012594e+05	2.880726e+02	1.335391e-01	-5.474091e-02	0.000000e+00	
-1.379132e-01	1.025382e-03	1.224514e+00	5.563809e+01	2.042737e-06	2.544125e+05	1.012594e+05	2.880726e+02	1.335392e-01	-5.473815e-02	0.000000e+00	
-1.379817e-01	2.289275e-03	1.224514e+00	5.563806e+01	-1.264541e-06	2.544125e+05	1.012594e+05	2.880726e+02	1.335391e-01	-5.473828e-02	0.000000e+00	
-1.472191e-01	1.179207e-02	1.224513e+00	5.563807e+01	1.802907e-06	2.544124e+05	1.012594e+05	2.880726e+02	1.335392e-01	-5.476349e-02	0.000000e+00	
-1.481231e-01	1.235796e-02	1.224513e+00	5.563807e+01	1.708765e-06	2.544124e+05	1.012594e+05	2.880726e+02	1.335392e-01	-5.476605e-02	0.000000e+00	
-1.489987e-01	1.293518e-02	1.224513e+00	5.563807e+01	1.268550e-06	2.544124e+05	1.012594e+05	2.880726e+02	1.335392e-01	-5.476838e-02	0.000000e+00	
-1.380077e-01	3.338047e-03	1.224514e+00	5.563804e+01	-3.075094e-06	2.544125e+05	1.012594e+05	2.880726e+02	1.335391e-01	-5.473838e-02	0.000000e+00	
-1.380193e-01	4.389112e-03	1.224514e+00	5.563804e+01	-3.677934e-06	2.544125e+05	1.012594e+05	2.880726e+02	1.335391e-01	-5.473839e-02	0.000000e+00	
-1.380280e-01	5.437972e-03	1.224514e+00	5.563804e+01	-3.442869e-06	2.544125e+05	1.012594e+05	2.880726e+02	1.335391e-01	-5.473842e-02	0.000000e+00	
-1.380368e-01	6.483219e-03	1.224514e+00	5.563805e+01	-2.924116e-06	2.544125e+05	1.012594e+05	2.880726e+02	1.335391e-01	-5.473844e-02	0.000000e+00	
-1.500000e-01	1.354388e-02	1.224513e+00	5.563808e+01	3.401792e-07	2.544124e+05	1.012593e+05	2.880726e+02	1.335392e-01	-5.477169e-02	0.000000e+00	
-1.407583e-01	9.067497e-03	1.224514e+00	5.563806e+01	-1.075875e-06	2.544125e+05	1.012594e+05	2.880726e+02	1.335391e-01	-5.474590e-02	0.000000e+00	
-1.416669e-01	9.586884e-03	1.224514e+00	5.563806e+01	-5.512726e-07	2.544124e+05	1.012594e+05	2.880726e+02	1.335391e-01	-5.474839e-02	0.000000e+00	
-1.425783e-01	1.010999e-02	1.224514e+00	5.563806e+01	5.449225e-09	2.544124e+05	1.012594e+05	2.880726e+02	1.335391e-01	-5.475089e-02	0.000000e+00	
-1.434954e-01	1.063762e-02	1.224514e+00	5.563806e+01	5.781129e-07	2.544124e+05	1.012594e+05	2.880726e+02	1.335391e-01	-5.475339e-02	0.000000e+00	
-1.444212e-01	1.117060e-02	1.224514e+00	5.563806e+01	1.134880e-06	2.544124e+05	1.012594e+05	2.880726e+02	1.335391e-01	-5.475590e-02	0.000000e+00	
-1.453557e-01	1.170968e-02	1.224514e+00	5.563807e+01	1.632105e-06	2.544124e+05	1.012594e+05	2.880726e+02	1.335392e-01	-5.475843e-02	0.000000e+00	
-1.462924e-01	1.225539e-02	1.224514e+00	5.563807e+01	2.025301e-06	2.544124e+05	1.012594e+05	2.880726e+02	1.335392e-01	-5.476098e-02	0.000000e+00	
-1.398515e-01	8.551045e-03	1.224514e+00	5.563805e+01	-1.570339e-06	2.544125e+05	1.012594e+05	2.880726e+02	1.335391e-01	-5.474342e-02	0.000000e+00	
-1.389471e-01	8.036767e-03	1.224514e+00	5.563805e+01	-2.033037e-06	2.544125e+05	1.012594e+05	2.880726e+02	1.335391e-01	-5.474094e-02	0.000000e+00	
-1.380459e-01	7.523957e-03	1.224514e+00	5.563805e+01	-2.427890e-06	2.544125e+05	1.012594e+05	2.880726e+02	1.335391e-01	-5.473846e-02	0.000000e+00	
-1.370849e-01	1.829965e-03	1.224514e+00	5.563807e+01	5.358278e-07	2.544125e+05	1.012594e+05	2.880726e+02	1.335391e-01	-5.473590e-02	0.000000e+00	
-1.368408e-01	8.578636e-04	1.224514e+00	5.563809e+01	3.573904e-06	2.544125e+05	1.012594e+05	2.880726e+02	1.335392e-01	-5.473508e-02	0.000000e+00	
-1.371321e-01	2.861299e-03	1.224514e+00	5.563805e+01	-2.369051e-06	2.544125e+05	1.012594e+05	2.880726e+02	1.335391e-01	-5.473597e-02	0.000000e+00	
-1.472187e-01	1.280864e-02	1.224513e+00	5.563807e+01	2.231903e-06	2.544124e+05	1.012594e+05	2.880726e+02	1.335392e-01	-5.476350e-02	0.000000e+00	
-1.481218e-01	1.337241e-02	1.224513e+00	5.563807e+01	2.169438e-06	2.544124e+05	1.012594e+05	2.880726e+02	1.335392e-01	-5.476607e-02	0.000000e+00	
-1.489977e-01	1.395414e-02	1.224513e+00	5.563807e+01	1.672755e-06	2.544124e+05	1.012594e+05	2.880726e+02	1.335392e-01	-5.476843e-02	0.000000e+00	
-1.371356e-01	3.887769e-03	1.224514e+00	5.563804e+01	-3.536933e-06	2.544125e+05	1.012594e+05	2.880726e+02	1.335391e-01	-5.473594e-02	0.000000e+00	
-1.371376e-01	4.927414e-03	1.224514e+00	5.563804e+01	-3.519728e-06	2.544125e+05	1.012594e+05	2.880726e+02	1.335391e-01	-5.473595e-02	0.000000e+00	
-1.371422e-01	5.970433e-03	1.224514e+00	5.563804e+01	-3.146438e-06	2.544125e+05	1.012594e+05	2.880726e+02	1.335391e-01	-5.473596e-02	0.000000e+00	
-1.371488e-01	7.011850e-03	1.224514e+00	5.563805e+01	-2.694944e-06	2.544125e+05	1.012594e+05	2.880726e+02	1.335391e-01	-5.473598e-02	0.000000e+00	
-1.500000e-01	1.458571e-02	1.224513e+00	5.563808e+01	5.503238e-07	2.544124e+05	1.012593e+05	2.880726e+02	1.335392e-01	-5.477176e-02	0.000000e+00	
-1.398618e-01	9.585468e-03	1.224514e+00	5.563806e+01	-1.305353e-06	2.544125e+05	1.012594e+05	2.880726e+02	1.335391e-01	-5.474343e-02	0.000000e+00	
-1.407681e-01	1.010057e-02	1.224514e+00	5.563806e+01	-8.292693e-07	2.544125e+05	1.012594e+05	2.880726e+02	1.335391e-01	-5.474592e-02	0.000000e+00	
-1.416757e-01	1.061831e-02	1.224514e+00	5.563806e+01	-3.048270e-07	2.544124e+05	1.012594e+05	2.880726e+02	1.335391e-01	-5.474840e-02	0.000000e+00	
-1.425858e-01	1.113924e-02	1.224514e+00	5.563806e+01	2.523366e-07	2.544124e+05	1.012594e+05	2.880726e+02	1.335391e-01	-5.475089e-02	0.000000e+00	
-1.435012e-01	1.166396e-02	1.224514e+00	5.563806e+01	8.182144e-07	2.544124e+05	1.012594e+05	2.880726e+02	1.335391e-01	-5.475339e-02	0.000000e+00	
-1.444249e-01	1.219302e-02	1.224514e+00	5.563806e+01	1.362988e-06	2.544124e+05	1.012594e+05	2.880726e+02	1.335391e-01	-5.475590e-02	0.000000e+00	
-1.453567e-01	1.272674e-02	1.224514e+00	5.563807e+01	1.858425e-06	2.544124e+05	1.012594e+05	2.880726e+02	1.335392e-01	-5.475842e-02	0.000000e+00	
-1.462903e-01	1.326526e-02	1.224514e+00	5.563807e+01	2.246854e-06	2.544124e+05	1.012594e+05	2.880726e+02	1.335392e-01	-5.476097e-02	0.000000e+00	
-1.389573e-01	9.072447e-03	1.224514e+00	5.563805e+01	-1.728194e-06	2.544125e+05	1.012594e+05	2.880726e+02	1.335391e-01	-5.474095e-02	0.000000e+00	
-1.380553e-01	8.560905e-03	1.224514e+00	5.563805e+01	-2.088265e-06	2.544125e+05	1.012594e+05	2.880726e+02	1.335391e-01	-5.473847e-02	0.000000e+00	
-1.371566e-01	8.050123e-03	1.224514e+00	5.563805e+01	-2.358260e-06	2.544125e+05	1.012594e+05	2.880726e+02	1.335391e-01	-5.473600e-02	0.000000e+00	
-1.362852e-01	1.549020e-03	1.224514e+00	5.563808e+01	2.407613e-06	2.544125e+05	1.012594e+05	2.880726e+02	1.335391e-01	-5.473358e-02	0.000000e+00	
-1.362712e-01	2.398991e-03	1.224514e+00	5.563806e+01	-2.940323e-07	2.544125e+05	1.012594e+05	2.880726e+02	1.335391e-01	-5.473351e-02	0.000000e+00	
-1.358021e-01	8.795353e-04	1.224514e+00	5.563809e+01	3.389190e-06	2.544125e+05	1.012594e+05	2.880726e+02	1.335392e-01	-5.473211e-02	0.000000e+00	
-1.362597e-01	3.391329e-03	1.224514e+00	5.563804e+01	-2.247975e-06	2.544125e+05	1.012594e+05	2.880726e+02	1.335391e-01	-5.473349e-02	0.000000e+00	
-1.472135e-01	1.380979e-02	1.224513e+00	5.563807e+01	2.490593e-06	2.544124e+05	1.012594e+05	2.880726e+02	1.335392e-01	-5.476349e-02	0.000000e+00	
-1.481155e-01	1.436629e-02	1.224513e+00	5.563807e+01	2.430900e-06	2.544124e+05	1.012594e+05	2.880726e+02	1.335392e-01	-5.476608e-02	0.000000e+00	
-1.489940e-01	1.495174e-02	1.224513e+00	5.563808e+01	1.896794e-06	2.544124e+05	1.012594e+05	2.880726e+02	1.335392e-01	-5.476847e-02	0.000000e+00	
-1.362527e-01	4.418038e-03	1.224514e+00	5.563804e+01	-3.075787e-06	2.544125e+05	1.012594e+05	2.880726e+02	1.335390e-01	-5.473348e-02	0.000000e+00	
-1.362520e-01	5.457307e-03	1.224514e+00	5.563804e+01	-3.072168e-06	2.544125e+05	1.012594e+05	2.880726e+02	1.335391e-01	-5.473350e-02	0.000000e+00	
-1.362556e-01	6.499133e-03	1.224514e+00	5.563804e+01	-2.788046e-06	2.544125e+05	1.012594e+05	2.880726e+02	1.335391e-01	-5.473351e-02	0.000000e+00	
-1.362616e-01	7.539120e-03	1.224514e+00	5.563805e+01	-2.502506e-06	2.544125e+05	1.012594e+05	2.880726e+02	1.335391e-01	-5.473353e-02	0.000000e+00	
-1.500000e-01	1.562755e-02	1.224513e+00	5.563808e+01	4.493968e-07	2.544124e+05	1.012593e+05	2.880726e+02	1.335392e-01	-5.477185e-02	0.000000e+00	
-1.389671e-01	1.010577e-02	1.224514e+00	5.563805e+01	-1.564396e-06	2.544125e+05	1.012594e+05	2.880726e+02	1.335391e-01	-5.474097e-02	0.000000e+00	
-1.398714e-01	1.061763e-02	1.224514e+00	5.563806e+01	-1.148651e-06	2.544125e+05	1.012594e+05	2.880726e+02	1.335391e-01	-5.474345e-02	0.000000e+00	
-1.407768e-01	1.113120e-02	1.224514e+00	5.563806e+01	-6.761796e-07	2.544125e+05	1.012594e+05	2.880726e+02	1.335391e-01	-5.474593e-02	0.000000e+00	
-1.416832e-01	1.164683e-02	1.224514e+00	5.563806e+01	-1.677843e-07	2.544124e+05	1.012594e+05	2.880726e+02	1.335391e-01	-5.474841e-02	0.000000e+00	
-1.425919e-01	1.216488e-02	1.224514e+00	5.563806e+01	3.529189e-07	2.544124e+05	1.012594e+05	2.880726e+02	1.335391e-01	-5.475089e-02	0.000000e+00	
-1.435055e-01	1.268563e-02	1.224514e+00	5.563806e+01	8.626891e-07	2.544124e+05	1.012594e+05	2.880726e+02	1.335391e-01	-5.475338e-02	0.000000e+00	
-1.444265e-01	1.320907e-02	1.224514e+00	5.563807e+01	1.339612e-06	2.544124e+05	1.012594e+05	2.880726e+02	1.335391e-01	-5.475589e-02	0.000000e+00	
-1.453545e-01	1.373459e-02	1.224514e+00	5.563807e+01	1.739829e-06	2.544124e+05	1.012594e+05	2.880726e+02	1.335392e-01	-5.475841e-02	0.000000e+00	
-1.462827e-01	1.426111e-02	1.224514e+00	5.563807e+01	2.042932e-06	2.544124e+05	1.012594e+05	2.880726e+02	1.335392e-01	-5.476094e-02	0.000000e+00	
-1.380649e-01	9.595257e-03	1.224514e+00	5.563805e+01	-1.910779e-06	2.544125e+05	1.012594e+05	2.880726e+02	1.335391e-01	-5.473849e-02	0.000000e+00	
-1.371653e-01	9.085602e-03	1.224514e+00	5.563805e+01	-2.173312e-06	2.544125e+05	1.012594e+05	2.880726e+02	1.335391e-01	-5.473602e-02	0.000000e+00	
-1.362690e-01	8.576184e-03	1.224514e+00	5.563805e+01	-2.334373e-06	2.544125e+05	1.012594e+05	2.880726e+02	1.335391e-01	-5.473355e-02	0.000000e+00	
-1.354768e-01	1.815631e-03	1.224514e+00	5.563807e+01	1.942879e-06	2.544125e+05	1.012594e+05	2.880726e+02	1.335391e-01	-5.473114e-02	0.000000e+00	
-1.353989e-01	2.852680e-03	1.224514e+00	5.563805e+01	6.001841e-07	2.544125e+05	1.012594e+05	2.880726e+02	1.335391e-01	-5.473100e-02	0.000000e+00	
-1.353736e-01	3.895131e-03	1.224514e+00	5.563804e+01	-1.161729e-06	2.544125e+05	1.012594e+05	2.880726e+02	1.335390e-01	-5.473102e-02	0.000000e+00	
-1.471995e-01	1.478888e-02	1.224513e+00	5.563807e+01	2.123335e-06	2.544124e+05	1.012594e+05	2.880726e+02	1.335392e-01	-5.476346e-02	0.000000e+00	
-1.480960e-01	1.532466e-02	1.224513e+00	5.563808e+01	2.136535e-06	2.544124e+05	1.012594e+05	2.880726e+02	1.335392e-01	-5.476602e-02	0.000000e+00	
-1.489777e-01	1.589996e-02	1.224513e+00	5.563808e+01	1.216052e-06	2.544124e+05	1.012594e+05	2.880726e+02	1.335392e-01	-5.476851e-02	0.000000e+00	
-1.353660e-01	4.938731e-03	1.224514e+00	5.563804e+01	-2.268036e-06	2.544125e+05	1.012594e+05	2.880726e+02	1.335390e-01	-5.473103e-02	0.000000e+00	
-1.353660e-01	5.983506e-03	1.224514e+00	5.563804e+01	-2.551874e-06	2.544125e+05	1.012594e+05	2.880726e+02	1.335391e-01	-5.473106e-02	0.000000e+00	
-1.353698e-01	7.026554e-03	1.224514e+00	5.563804e+01	-2.487689e-06	2.544125e+05	1.012594e+05	2.880726e+02	1.335391e-01	-5.473107e-02	0.000000e+00	
-1.353756e-01	8.066201e-03	1.224514e+00	5.563805e+01	-2.387567e-06	2.544125e+05	1.012594e+05	2.880726e+02	1.335391e-01	-5.473109e-02	0.000000e+00	
-1.347120e-01	1.051280e-03	1.224514e+00	5.563809e+01	1.721230e-06	2.544125e+05	1.012594e+05	2.880726e+02	1.335392e-01	-5.472909e-02	0.000000e+00	
-1.500000e-01	1.666939e-02	1.224513e+00	5.563808e+01	6.308240e-08	2.544124e+05	1.012593e+05	2.880726e+02	1.335392e-01	-5.477181e-02	0.000000e+00	
-1.380746e-01	1.062774e-02	1.224514e+00	5.563805e+01	-1.855545e-06	2.544125e+05	1.012594e+05	2.880726e+02	1.335391e-01	-5.473851e-02	0.000000e+00	