TITLE = "Visualization of the volumetric solution"
VARIABLES = "x","y","Density","Momentum_x","Momentum_y","Energy","Pressure","Temperature","Mach","C<sub>p</sub>","Roe_Dissipation"
ZONE NODES= 8492, ELEMENTS= 16598, DATAPACKING=POINT, ZONETYPE=FEQUADRILATERAL
4.569681e-02	1.041837e-03	1.227101e+00	5.560778e+01	-8.029552e+00	2.551864e+05	1.015601e+05	2.883189e+02	1.345089e-01	1.961181e-01	0.000000e+00	
4.684871e-02	1.319459e-03	1.227122e+00	5.562282e+01	-8.039346e+00	2.551907e+05	1.015615e+05	2.883180e+02	1.345458e-01	1.972930e-01	0.000000e+00	
4.782930e-02	7.232294e-04	1.227124e+00	5.562543e+01	-8.036267e+00	2.551914e+05	1.015618e+05	2.883182e+02	1.345506e-01	1.975103e-01	0.000000e+00	
4.569681e-02	2.083673e-03	1.227144e+00	5.563583e+01	-8.043995e+00	2.551951e+05	1.015630e+05	2.883171e+02	1.345760e-01	1.985579e-01	0.000000e+00	
4.776817e-02	1.818368e-03	1.227119e+00	5.562796e+01	-8.037023e+00	2.551901e+05	1.015612e+05	2.883177e+02	1.345575e-01	1.970358e-01	0.000000e+00	
4.686651e-02	2.423042e-03	1.227119e+00	5.563387e+01	-8.036557e+00	2.551900e+05	1.015610e+05	2.883173e+02	1.345715e-01	1.968979e-01	0.000000e+00	
4.909172e-02	1.024527e-03	1.227119e+00	5.562716e+01	-8.037010e+00	2.551903e+05	1.015612e+05	2.883180e+02	1.345556e-01	1.970875e-01	0.000000e+00	
4.569681e-02	3.125510e-03	1.227114e+00	5.563178e+01	-8.033323e+00	2.551888e+05	1.015606e+05	2.883174e+02	1.345660e-01	1.965469e-01	0.000000e+00	
4.868810e-02	2.368593e-03	1.227123e+00	5.563088e+01	-8.038270e+00	2.551908e+05	1.015614e+05	2.883175e+02	1.345645e-01	1.972208e-01	0.000000e+00	
4.772744e-02	2.912552e-03	1.227126e+00	5.563336e+01	-8.038013e+00	2.551915e+05	1.015616e+05	2.883174e+02	1.345700e-01	1.974053e-01	0.000000e+00	
4.684340e-02	3.511900e-03	1.227125e+00	5.563319e+01	-8.038172e+00	2.551915e+05	1.015616e+05	2.883175e+02	1.345697e-01	1.974096e-01	0.000000e+00	
4.962260e-02	1.870368e-03	1.227123e+00	5.562929e+01	-8.037950e+00	2.551908e+05	1.015614e+05	2.883176e+02	1.345606e-01	1.972422e-01	0.000000e+00	
4.569681e-02	4.167347e-03	1.227125e+00	5.563485e+01	-8.039623e+00	2.551918e+05	1.015617e+05	2.883177e+02	1.345740e-01	1.974734e-01	0.000000e+00	
5.033706e-02	1.003804e-03	1.227121e+00	5.562778e+01	-8.037515e+00	2.551907e+05	1.015614e+05	2.883179e+02	1.345570e-01	1.972314e-01	0.000000e+00	
4.956377e-02	2.899433e-03	1.227122e+00	5.563255e+01	-8.037763e+00	2.551907e+05	1.015613e+05	2.883175e+02	1.345684e-01	1.971577e-01	0.000000e+00	
4.861206e-02	3.424002e-03	1.227122e+00	5.563430e+01	-8.037261e+00	2.551908e+05	1.015613e+05	2.883175e+02	1.345724e-01	1.971468e-01	0.000000e+00	
4.769616e-02	3.989378e-03	1.227120e+00	5.563473e+01	-8.036923e+00	2.551905e+05	1.015612e+05	2.883176e+02	1.345734e-01	1.970615e-01	0.000000e+00	
4.682408e-02	4.579800e-03	1.227120e+00	5.563530e+01	-8.037181e+00	2.551906e+05	1.015612e+05	2.883177e+02	1.345748e-01	1.970899e-01	0.000000e+00	
5.050711e-02	2.305981e-03	1.227122e+00	5.563083e+01	-8.037687e+00	2.551907e+05	1.015614e+05	2.883176e+02	1.345643e-01	1.971859e-01	0.000000e+00	
4.569681e-02	5.209184e-03	1.227120e+00	5.563560e+01	-8.037273e+00	2.551907e+05	1.015613e+05	2.883176e+02	1.345756e-01	1.971003e-01	0.000000e+00	
5.142513e-02	7.206074e-04	1.227120e+00	5.562735e+01	-8.037604e+00	2.551905e+05	1.015613e+05	2.883179e+02	1.345561e-01	1.971633e-01	0.000000e+00	
4.952700e-02	3.923230e-03	1.227123e+00	5.563433e+01	-8.037627e+00	2.551910e+05	1.015614e+05	2.883176e+02	1.345725e-01	1.972304e-01	0.000000e+00	
5.049204e-02	3.355107e-03	1.227123e+00	5.563342e+01	-8.037824e+00	2.551909e+05	1.015614e+05	2.883175e+02	1.345704e-01	1.972089e-01	0.000000e+00	
5.144018e-02	1.697103e-03	1.227122e+00	5.562934e+01	-8.037743e+00	2.551907e+05	1.015614e+05	2.883177e+02	1.345607e-01	1.971974e-01	0.000000e+00	
4.858147e-02	4.480349e-03	1.227122e+00	5.563439e+01	-8.037481e+00	2.551910e+05	1.015614e+05	2.883176e+02	1.345726e-01	1.972321e-01	0.000000e+00	
4.767608e-02	5.053320e-03	1.227123e+00	5.563414e+01	-8.037407e+00	2.551911e+05	1.015615e+05	2.883177e+02	1.345719e-01	1.972763e-01	0.000000e+00	
4.681082e-02	5.635825e-03	1.227121e+00	5.563387e+01	-8.037045e+00	2.551908e+05	1.015614e+05	2.883177e+02	1.345713e-01	1.971787e-01	0.000000e+00	
5.144573e-02	2.783226e-03	1.227123e+00	5.563219e+01	-8.037839e+00	2.551909e+05	1.015614e+05	2.883175e+02	1.345675e-01	1.972088e-01	0.000000e+00	
4.569681e-02	6.251020e-03	1.227121e+00	5.563371e+01	-8.035839e+00	2.551907e+05	1.015613e+05	2.883177e+02	1.345706e-01	1.971362e-01	0.000000e+00	
5.245594e-02	9.549137e-04	1.227121e+00	5.562798e+01	-8.037742e+00	2.551907e+05	1.015614e+05	2.883179e+02	1.345575e-01	1.972195e-01	0.000000e+00	
5.046203e-02	4.403929e-03	1.227122e+00	5.563404e+01	-8.037383e+00	2.551909e+05	1.015614e+05	2.883176e+02	1.345718e-01	1.971942e-01	0.000000e+00	
4.950066e-02	4.968187e-03	1.227121e+00	5.563390e+01	-8.037155e+00	2.551908e+05	1.015614e+05	2.883177e+02	1.345714e-01	1.971809e-01	0.000000e+00	
5.142072e-02	3.840921e-03	1.227122e+00	5.563369e+01	-8.037609e+00	2.551909e+05	1.015614e+05	2.883176e+02	1.345710e-01	1.971989e-01	0.000000e+00	
5.239428e-02	2.231452e-03	1.227122e+00	5.563078e+01	-8.037815e+00	2.551908e+05	1.015614e+05	2.883176e+02	1.345642e-01	1.972013e-01	0.000000e+00	
4.856191e-02	5.535112e-03	1.227121e+00	5.563358e+01	-8.036968e+00	2.551908e+05	1.015614e+05	2.883177e+02	1.345706e-01	1.971776e-01	0.000000e+00	
4.766203e-02	6.108589e-03	1.227121e+00	5.563319e+01	-8.036810e+00	2.551908e+05	1.015613e+05	2.883178e+02	1.345696e-01	1.971750e-01	0.000000e+00	
4.680143e-02	6.685025e-03	1.227122e+00	5.563305e+01	-8.036519e+00	2.551910e+05	1.015614e+05	2.883178e+02	1.345691e-01	1.972422e-01	0.000000e+00	
5.236161e-02	3.288825e-03	1.227122e+00	5.563297e+01	-8.037733e+00	2.551909e+05	1.015614e+05	2.883175e+02	1.345693e-01	1.972079e-01	0.000000e+00	
4.569681e-02	7.292857e-03	1.227122e+00	5.563317e+01	-8.036263e+00	2.551911e+05	1.015615e+05	2.883179e+02	1.345693e-01	1.972668e-01	0.000000e+00	
5.349494e-02	6.929678e-04	1.227121e+00	5.562760e+01	-8.037560e+00	2.551907e+05	1.015614e+05	2.883179e+02	1.345566e-01	1.972153e-01	0.000000e+00	
5.336502e-02	1.686344e-03	1.227122e+00	5.562956e+01	-8.037785e+00	2.551907e+05	1.015614e+05	2.883177e+02	1.345613e-01	1.972126e-01	0.000000e+00	
5.139490e-02	4.898818e-03	1.227122e+00	5.563342e+01	-8.037310e+00	2.551909e+05	1.015614e+05	2.883177e+02	1.345702e-01	1.972117e-01	0.000000e+00	
5.043763e-02	5.456267e-03	1.227122e+00	5.563312e+01	-8.037159e+00	2.551909e+05	1.015614e+05	2.883178e+02	1.345695e-01	1.972119e-01	0.000000e+00	
4.948141e-02	6.019118e-03	1.227122e+00	5.563276e+01	-8.037019e+00	2.551909e+05	1.015614e+05	2.883178e+02	1.345686e-01	1.972195e-01	0.000000e+00	
5.233665e-02	4.351527e-03	1.227122e+00	5.563344e+01	-8.037462e+00	2.551909e+05	1.015614e+05	2.883176e+02	1.345703e-01	1.972089e-01	0.000000e+00	
5.328948e-02	2.772064e-03	1.227122e+00	5.563198e+01	-8.037781e+00	2.551908e+05	1.015614e+05	2.883176e+02	1.345670e-01	1.972104e-01	0.000000e+00	
4.854773e-02	6.586613e-03	1.227121e+00	5.563248e+01	-8.036846e+00	2.551909e+05	1.015614e+05	2.883178e+02	1.345679e-01	1.972127e-01	0.000000e+00	
4.765182e-02	7.157530e-03	1.227121e+00	5.563243e+01	-8.036501e+00	2.551909e+05	1.015614e+05	2.883178e+02	1.345677e-01	1.972116e-01	0.000000e+00	
4.679450e-02	7.729812e-03	1.227121e+00	5.563238e+01	-8.036053e+00	2.551908e+05	1.015614e+05	2.883178e+02	1.345674e-01	1.971767e-01	0.000000e+00	
5.325916e-02	3.825647e-03	1.227122e+00	5.563318e+01	-8.037574e+00	2.551909e+05	1.015614e+05	2.883176e+02	1.345698e-01	1.972107e-01	0.000000e+00	
4.569681e-02	8.334694e-03	1.227121e+00	5.563195e+01	-8.035227e+00	2.551906e+05	1.015613e+05	2.883177e+02	1.345662e-01	1.971435e-01	0.000000e+00	
5.452048e-02	9.463592e-04	1.227121e+00	5.562840e+01	-8.037644e+00	2.551906e+05	1.015614e+05	2.883178e+02	1.345585e-01	1.971900e-01	0.000000e+00	
5.421998e-02	2.289285e-03	1.227122e+00	5.563089e+01	-8.037852e+00	2.551908e+05	1.015614e+05	2.883176e+02	1.345644e-01	1.972186e-01	0.000000e+00	
5.231667e-02	5.410992e-03	1.227122e+00	5.563288e+01	-8.037213e+00	2.551909e+05	1.015614e+05	2.883178e+02	1.345690e-01	1.972079e-01	0.000000e+00	
5.137432e-02	5.954971e-03	1.227121e+00	5.563268e+01	-8.037115e+00	2.551909e+05	1.015614e+05	2.883178e+02	1.345685e-01	1.972045e-01	0.000000e+00	
5.041950e-02	6.508060e-03	1.227121e+00	5.563257e+01	-8.037044e+00	2.551909e+05	1.015614e+05	2.883178e+02	1.345682e-01	1.972033e-01	0.000000e+00	
4.946729e-02	7.067976e-03	1.227121e+00	5.563264e+01	-8.036998e+00	2.551909e+05	1.015614e+05	2.883178e+02	1.345683e-01	1.972027e-01	0.000000e+00	
5.324108e-02	4.880433e-03	1.227122e+00	5.563301e+01	-8.037323e+00	2.551909e+05	1.015614e+05	2.883177e+02	1.345693e-01	1.972102e-01	0.000000e+00	
5.416951e-02	3.325147e-03	1.227122e+00	5.563263e+01	-8.037662e+00	2.551909e+05	1.015614e+05	2.883176e+02	1.345685e-01	1.972113e-01	0.000000e+00	
4.853732e-02	7.633063e-03	1.227121e+00	5.563296e+01	-8.036970e+00	2.551909e+05	1.015614e+05	2.883178e+02	1.345691e-01	1.972140e-01	0.000000e+00	
4.764428e-02	8.201313e-03	1.227122e+00	5.563342e+01	-8.036996e+00	2.551910e+05	1.015614e+05	2.883178e+02	1.345701e-01	1.972267e-01	0.000000e+00	
4.678913e-02	8.771481e-03	1.227122e+00	5.563397e+01	-8.037159e+00	2.551911e+05	1.015615e+05	2.883179e+02	1.345714e-01	1.972796e-01	0.000000e+00	
5.415112e-02	4.365950e-03	1.227122e+00	5.563299e+01	-8.037426e+00	2.551909e+05	1.015614e+05	2.883177e+02	1.345693e-01	1.972132e-01	0.000000e+00	
4.569681e-02	9.376531e-03	1.227122e+00	5.563466e+01	-8.037310e+00	2.551912e+05	1.015615e+05	2.883180e+02	1.345731e-01	1.972981e-01	0.000000e+00	
5.568375e-02	9.404367e-04	1.227122e+00	5.562870e+01	-8.037584e+00	2.551908e+05	1.015614e+05	2.883178e+02	1.345591e-01	1.972362e-01	0.000000e+00	
5.508642e-02	1.837974e-03	1.227122e+00	5.563001e+01	-8.037806e+00	2.551908e+05	1.015614e+05	2.883176e+02	1.345623e-01	1.972201e-01	0.000000e+00	
5.506843e-02	2.853138e-03	1.227122e+00	5.563183e+01	-8.037725e+00	2.551908e+05	1.015614e+05	2.883176e+02	1.345666e-01	1.972128e-01	0.000000e+00	
5.230028e-02	6.465795e-03	1.227121e+00	5.563295e+01	-8.037315e+00	2.551909e+05	1.015614e+05	2.883178e+02	1.345692e-01	1.972116e-01	0.000000e+00	
5.322607e-02	5.934888e-03	1.227121e+00	5.563283e+01	-8.037300e+00	2.551909e+05	1.015614e+05	2.883178e+02	1.345689e-01	1.972124e-01	0.000000e+00	
5.135842e-02	7.006044e-03	1.227121e+00	5.563328e+01	-8.037375e+00	2.551909e+05	1.015614e+05	2.883178e+02	1.345700e-01	1.972124e-01	0.000000e+00	
5.040597e-02	7.554877e-03	1.227121e+00	5.563388e+01	-8.037481e+00	2.551909e+05	1.015614e+05	2.883178e+02	1.345714e-01	1.972131e-01	0.000000e+00	
4.945680e-02	8.111475e-03	1.227121e+00	5.563480e+01	-8.037638e+00	2.551910e+05	1.015614e+05	2.883178e+02	1.345737e-01	1.972135e-01	0.000000e+00	
5.413755e-02	5.413494e-03	1.227122e+00	5.563282e+01	-8.037319e+00	2.551909e+05	1.015614e+05	2.883178e+02	1.345688e-01	1.972134e-01	0.000000e+00	
5.505328e-02	3.862911e-03	1.227122e+00	5.563275e+01	-8.037528e+00	2.551909e+05	1.015614e+05	2.883176e+02	1.345687e-01	1.972159e-01	0.000000e+00	
4.852953e-02	8.674186e-03	1.227121e+00	5.563598e+01	-8.037881e+00	2.551911e+05	1.015614e+05	2.883178e+02	1.345765e-01	1.972180e-01	0.000000e+00	
4.763853e-02	9.240953e-03	1.227121e+00	5.563752e+01	-8.038270e+00	2.551911e+05	1.015614e+05	2.883178e+02	1.345803e-01	1.972069e-01	0.000000e+00	
4.678477e-02	9.810809e-03	1.227122e+00	5.563908e+01	-8.038853e+00	2.551913e+05	1.015614e+05	2.883179e+02	1.345842e-01	1.972428e-01	0.000000e+00	
5.503984e-02	4.898176e-03	1.227122e+00	5.563281e+01	-8.037360e+00	2.551909e+05	1.015614e+05	2.883177e+02	1.345688e-01	1.972148e-01	0.000000e+00	
4.569681e-02	1.041837e-02	1.227122e+00	5.564025e+01	-8.039812e+00	2.551914e+05	1.015615e+05	2.883178e+02	1.345872e-01	1.972687e-01	0.000000e+00	
5.671457e-02	6.719317e-04	1.227121e+00	5.562830e+01	-8.037510e+00	2.551907e+05	1.015614e+05	2.883178e+02	1.345582e-01	1.972135e-01	0.000000e+00	
5.592684e-02	2.303538e-03	1.227122e+00	5.563086e+01	-8.037661e+00	2.551908e+05	1.015614e+05	2.883176e+02	1.345643e-01	1.972185e-01	0.000000e+00	
5.594539e-02	3.337331e-03	1.227122e+00	5.563227e+01	-8.037588e+00	2.551909e+05	1.015614e+05	2.883176e+02	1.345676e-01	1.972184e-01	0.000000e+00	
5.321257e-02	6.985219e-03	1.227121e+00	5.563417e+01	-8.037660e+00	2.551910e+05	1.015614e+05	2.883178e+02	1.345722e-01	1.972118e-01	0.000000e+00	
5.228656e-02	7.513621e-03	1.227121e+00	5.563503e+01	-8.037825e+00	2.551910e+05	1.015614e+05	2.883178e+02	1.345743e-01	1.972107e-01	0.000000e+00	
5.412490e-02	6.463170e-03	1.227121e+00	5.563359e+01	-8.037542e+00	2.551909e+05	1.015614e+05	2.883178e+02	1.345708e-01	1.972134e-01	0.000000e+00	
5.134581e-02	8.049937e-03	1.227121e+00	5.563620e+01	-8.038045e+00	2.551910e+05	1.015614e+05	2.883178e+02	1.345771e-01	1.972098e-01	0.000000e+00	
5.039547e-02	8.595199e-03	1.227121e+00	5.563767e+01	-8.038336e+00	2.551911e+05	1.015614e+05	2.883178e+02	1.345807e-01	1.972119e-01	0.000000e+00	
4.944870e-02	9.149305e-03	1.227121e+00	5.563943e+01	-8.038726e+00	2.551912e+05	1.015614e+05	2.883178e+02	1.345850e-01	1.972133e-01	0.000000e+00	
5.502749e-02	5.944754e-03	1.227121e+00	5.563323e+01	-8.037467e+00	2.551909e+05	1.015614e+05	2.883178e+02	1.345699e-01	1.972152e-01	0.000000e+00	
5.593574e-02	4.377168e-03	1.227122e+00	5.563270e+01	-8.037418e+00	2.551909e+05	1.015614e+05	2.883177e+02	1.345686e-01	1.972172e-01	0.000000e+00	
4.852352e-02	9.710625e-03	1.227122e+00	5.564140e+01	-8.039269e+00	2.551913e+05	1.015614e+05	2.883178e+02	1.345898e-01	1.972276e-01	0.000000e+00	
4.763401e-02	1.027708e-02	1.227122e+00	5.564360e+01	-8.040024e+00	2.551914e+05	1.015614e+05	2.883178e+02	1.345953e-01	1.972229e-01	0.000000e+00	
4.678113e-02	1.084793e-02	1.227122e+00	5.564567e+01	-8.041110e+00	2.551916e+05	1.015614e+05	2.883178e+02	1.346005e-01	1.972528e-01	0.000000e+00	
5.679154e-02	1.704409e-03	1.227122e+00	5.562992e+01	-8.037592e+00	2.551908e+05	1.015614e+05	2.883177e+02	1.345620e-01	1.972197e-01	0.000000e+00	
5.592376e-02	5.424811e-03	1.227122e+00	5.563300e+01	-8.037426e+00	2.551909e+05	1.015614e+05	2.883178e+02	1.345693e-01	1.972167e-01	0.000000e+00	
4.569681e-02	1.146020e-02	1.227123e+00	5.564764e+01	-8.043149e+00	2.551920e+05	1.015616e+05	2.883179e+02	1.346057e-01	1.973586e-01	0.000000e+00	
5.771469e-02	9.376632e-04	1.227122e+00	5.562888e+01	-8.037514e+00	2.551908e+05	1.015614e+05	2.883178e+02	1.345596e-01	1.972285e-01	0.000000e+00	
5.682395e-02	2.795318e-03	1.227122e+00	5.563160e+01	-8.037592e+00	2.551909e+05	1.015614e+05	2.883176e+02	1.345660e-01	1.972199e-01	0.000000e+00	
5.682352e-02	3.844658e-03	1.227122e+00	5.563244e+01	-8.037469e+00	2.551909e+05	1.015614e+05	2.883176e+02	1.345680e-01	1.972184e-01	0.000000e+00	
5.411285e-02	7.509032e-03	1.227121e+00	5.563616e+01	-8.038084e+00	2.551911e+05	1.015614e+05	2.883178e+02	1.345770e-01	1.972143e-01	0.000000e+00	
5.320028e-02	8.028645e-03	1.227121e+00	5.563743e+01	-8.038300e+00	2.551911e+05	1.015614e+05	2.883178e+02	1.345801e-01	1.972134e-01	0.000000e+00	
5.227473e-02	8.553772e-03	1.227121e+00	5.563893e+01	-8.038543e+00	2.551912e+05	1.015614e+05	2.883178e+02	1.345838e-01	1.972130e-01	0.000000e+00	
5.501585e-02	6.992207e-03	1.227121e+00	5.563515e+01	-8.037898e+00	2.551910e+05	1.015614e+05	2.883178e+02	1.345746e-01	1.972153e-01	0.000000e+00	
5.133531e-02	9.086874e-03	1.227121e+00	5.564062e+01	-8.038811e+00	2.551913e+05	1.015614e+05	2.883178e+02	1.345878e-01	1.972121e-01	0.000000e+00	
5.038693e-02	9.629663e-03	1.227121e+00	5.564242e+01	-8.039101e+00	2.551913e+05	1.015614e+05	2.883178e+02	1.345922e-01	1.972132e-01	0.000000e+00	
4.944228e-02	1.018216e-02	1.227121e+00	5.564427e+01	-8.039424e+00	2.551914e+05	1.015614e+05	2.883178e+02	1.345967e-01	1.972097e-01	0.000000e+00	
5.591260e-02	6.475029e-03	1.227121e+00	5.563437e+01	-8.037746e+00	2.551910e+05	1.015614e+05	2.883178e+02	1.345727e-01	1.972167e-01	0.000000e+00	
5.681466e-02	4.898689e-03	1.227122e+00	5.563281e+01	-8.037418e+00	2.551909e+05	1.015614e+05	2.883177e+02	1.345688e-01	1.972187e-01	0.000000e+00	
4.851891e-02	1.074263e-02	1.227122e+00	5.564598e+01	-8.039758e+00	2.551915e+05	1.015614e+05	2.883178e+02	1.346009e-01	1.972160e-01	0.000000e+00	
4.763056e-02	1.130919e-02	1.227122e+00	5.564744e+01	-8.040179e+00	2.551916e+05	1.015614e+05	2.883178e+02	1.346045e-01	1.972138e-01	0.000000e+00	
4.677817e-02	1.188195e-02	1.227121e+00	5.564857e+01	-8.040684e+00	2.551916e+05	1.015614e+05	2.883178e+02	1.346073e-01	1.972064e-01	0.000000e+00	
5.770459e-02	2.271549e-03	1.227122e+00	5.563081e+01	-8.037538e+00	2.551908e+05	1.015614e+05	2.883176e+02	1.345641e-01	1.972214e-01	0.000000e+00	
5.680499e-02	5.954516e-03	1.227121e+00	5.563379e+01	-8.037627e+00	2.551910e+05	1.015614e+05	2.883178e+02	1.345713e-01	1.972178e-01	0.000000e+00	
4.569681e-02	1.250204e-02	1.227125e+00	5.564915e+01	-8.042193e+00	2.551923e+05	1.015616e+05	2.883177e+02	1.346089e-01	1.974162e-01	0.000000e+00	
5.867519e-02	7.698780e-04	1.227122e+00	5.562857e+01	-8.037451e+00	2.551907e+05	1.015614e+05	2.883178e+02	1.345588e-01	1.972204e-01	0.000000e+00	
5.865619e-02	1.754496e-03	1.227122e+00	5.563008e+01	-8.037498e+00	2.551908e+05	1.015614e+05	2.883177e+02	1.345624e-01	1.972286e-01	0.000000e+00	
5.770594e-02	3.309194e-03	1.227122e+00	5.563203e+01	-8.037497e+00	2.551909e+05	1.015614e+05	2.883176e+02	1.345670e-01	1.972225e-01	0.000000e+00	
5.770106e-02	4.367581e-03	1.227122e+00	5.563259e+01	-8.037421e+00	2.551909e+05	1.015614e+05	2.883177e+02	1.345683e-01	1.972198e-01	0.000000e+00	
5.500461e-02	8.034619e-03	1.227121e+00	5.563843e+01	-8.038440e+00	2.551912e+05	1.015614e+05	2.883178e+02	1.345825e-01	1.972155e-01	0.000000e+00	
5.410133e-02	8.548354e-03	1.227121e+00	5.563982e+01	-8.038621e+00	2.551912e+05	1.015614e+05	2.883178e+02	1.345859e-01	1.972142e-01	0.000000e+00	
5.318892e-02	9.065045e-03	1.227121e+00	5.564127e+01	-8.038786e+00	2.551913e+05	1.015614e+05	2.883178e+02	1.345894e-01	1.972131e-01	0.000000e+00	
5.226417e-02	9.587470e-03	1.227121e+00	5.564269e+01	-8.038920e+00	2.551913e+05	1.015614e+05	2.883178e+02	1.345928e-01	1.972120e-01	0.000000e+00	
5.590194e-02	7.521301e-03	1.227121e+00	5.563717e+01	-8.038254e+00	2.551911e+05	1.015614e+05	2.883178e+02	1.345795e-01	1.972167e-01	0.000000e+00	
5.132623e-02	1.011832e-02	1.227121e+00	5.564396e+01	-8.039002e+00	2.551914e+05	1.015614e+05	2.883178e+02	1.345958e-01	1.972112e-01	0.000000e+00	
5.037988e-02	1.065926e-02	1.227121e+00	5.564493e+01	-8.039013e+00	2.551914e+05	1.015614e+05	2.883178e+02	1.345981e-01	1.972094e-01	0.000000e+00	
4.943747e-02	1.121004e-02	1.227121e+00	5.564537e+01	-8.038896e+00	2.551915e+05	1.015614e+05	2.883178e+02	1.345991e-01	1.972098e-01	0.000000e+00	
5.679548e-02	7.006253e-03	1.227121e+00	5.563608e+01	-8.038075e+00	2.551911e+05	1.015614e+05	2.883178e+02	1.345768e-01	1.972181e-01	0.000000e+00	
5.769406e-02	5.429735e-03	1.227122e+00	5.563336e+01	-8.037544e+00	2.551909e+05	1.015614e+05	2.883178e+02	1.345702e-01	1.972197e-01	0.000000e+00	
4.851595e-02	1.176890e-02	1.227121e+00	5.564505e+01	-8.038631e+00	2.551914e+05	1.015614e+05	2.883178e+02	1.345983e-01	1.971917e-01	0.000000e+00	
4.762847e-02	1.233486e-02	1.227121e+00	5.564342e+01	-8.038026e+00	2.551914e+05	1.015614e+05	2.883178e+02	1.345942e-01	1.972074e-01	0.000000e+00	
4.677597e-02	1.291031e-02	1.227119e+00	5.564059e+01	-8.037147e+00	2.551907e+05	1.015612e+05	2.883179e+02	1.345875e-01	1.970391e-01	0.000000e+00	
5.860228e-02	2.791718e-03	1.227122e+00	5.563148e+01	-8.037481e+00	2.551909e+05	1.015614e+05	2.883176e+02	1.345657e-01	1.972195e-01	0.000000e+00	
5.768645e-02	6.488187e-03	1.227121e+00	5.563517e+01	-8.037912e+00	2.551910e+05	1.015614e+05	2.883178e+02	1.345746e-01	1.972192e-01	0.000000e+00	
4.569681e-02	1.354388e-02	1.227114e+00	5.563576e+01	-8.035357e+00	2.551897e+05	1.015609e+05	2.883179e+02	1.345759e-01	1.967611e-01	0.000000e+00	
5.951553e-02	1.245363e-03	1.227122e+00	5.562931e+01	-8.037430e+00	2.551908e+05	1.015614e+05	2.883177e+02	1.345605e-01	1.972254e-01	0.000000e+00	
5.949990e-02	2.266872e-03	1.227122e+00	5.563085e+01	-8.037453e+00	2.551908e+05	1.015614e+05	2.883176e+02	1.345642e-01	1.972232e-01	0.000000e+00	
5.858870e-02	3.839607e-03	1.227122e+00	5.563231e+01	-8.037437e+00	2.551909e+05	1.015614e+05	2.883177e+02	1.345676e-01	1.972229e-01	0.000000e+00	
5.858193e-02	4.902758e-03	1.227122e+00	5.563301e+01	-8.037487e+00	2.551909e+05	1.015614e+05	2.883177e+02	1.345693e-01	1.972207e-01	0.000000e+00	
5.499353e-02	9.070595e-03	1.227121e+00	5.564153e+01	-8.038720e+00	2.551913e+05	1.015614e+05	2.883178e+02	1.345900e-01	1.972158e-01	0.000000e+00	
5.589129e-02	8.560758e-03	1.227121e+00	5.564036e+01	-8.038633e+00	2.551913e+05	1.015614e+05	2.883178e+02	1.345872e-01	1.972170e-01	0.000000e+00	
5.409021e-02	9.581603e-03	1.227121e+00	5.564256e+01	-8.038753e+00	2.551913e+05	1.015614e+05	2.883178e+02	1.345924e-01	1.972147e-01	0.000000e+00	
5.317822e-02	1.009604e-02	1.227121e+00	5.564334e+01	-8.038716e+00	2.551914e+05	1.015614e+05	2.883178e+02	1.345943e-01	1.972133e-01	0.000000e+00	
5.225452e-02	1.061654e-02	1.227121e+00	5.564374e+01	-8.038593e+00	2.551914e+05	1.015614e+05	2.883178e+02	1.345952e-01	1.972119e-01	0.000000e+00	
5.678570e-02	8.050339e-03	1.227121e+00	5.563915e+01	-8.038507e+00	2.551912e+05	1.015614e+05	2.883178e+02	1.345843e-01	1.972181e-01	0.000000e+00	
5.131838e-02	1.114548e-02	1.227121e+00	5.564363e+01	-8.038372e+00	2.551914e+05	1.015614e+05	2.883178e+02	1.345948e-01	1.972091e-01	0.000000e+00	
5.037456e-02	1.168402e-02	1.227121e+00	5.564284e+01	-8.038032e+00	2.551913e+05	1.015614e+05	2.883178e+02	1.345929e-01	1.972064e-01	0.000000e+00	
4.943499e-02	1.223136e-02	1.227121e+00	5.564121e+01	-8.037612e+00	2.551912e+05	1.015614e+05	2.883179e+02	1.345889e-01	1.972005e-01	0.000000e+00	
5.767804e-02	7.538134e-03	1.227121e+00	5.563798e+01	-8.038358e+00	2.551912e+05	1.015614e+05	2.883178e+02	1.345814e-01	1.972193e-01	0.000000e+00	
5.857598e-02	5.967017e-03	1.227122e+00	5.563444e+01	-8.037773e+00	2.551910e+05	1.015614e+05	2.883178e+02	1.345729e-01	1.972206e-01	0.000000e+00	
4.851566e-02	1.278592e-02	1.227121e+00	5.563866e+01	-8.037100e+00	2.551911e+05	1.015614e+05	2.883179e+02	1.345827e-01	1.971919e-01	0.000000e+00	
4.762855e-02	1.334891e-02	1.227120e+00	5.563518e+01	-8.036824e+00	2.551909e+05	1.015614e+05	2.883179e+02	1.345744e-01	1.971785e-01	0.000000e+00	
4.677463e-02	1.392784e-02	1.227121e+00	5.563150e+01	-8.036508e+00	2.551909e+05	1.015614e+05	2.883179e+02	1.345654e-01	1.972423e-01	0.000000e+00	
6.038431e-02	7.387816e-04	1.227122e+00	5.562868e+01	-8.037333e+00	2.551908e+05	1.015614e+05	2.883178e+02	1.345590e-01	1.972317e-01	0.000000e+00	
5.948054e-02	3.313545e-03	1.227122e+00	5.563191e+01	-8.037438e+00	2.551909e+05	1.015614e+05	2.883176e+02	1.345667e-01	1.972245e-01	0.000000e+00	
5.856915e-02	7.023479e-03	1.227121e+00	5.563690e+01	-8.038199e+00	2.551911e+05	1.015614e+05	2.883178e+02	1.345788e-01	1.972203e-01	0.000000e+00	
4.569681e-02	1.458571e-02	1.227116e+00	5.563105e+01	-8.036019e+00	2.551897e+05	1.015609e+05	2.883177e+02	1.345648e-01	1.968418e-01	0.000000e+00	
6.037822e-02	1.761471e-03	1.227122e+00	5.563015e+01	-8.037403e+00	2.551908e+05	1.015614e+05	2.883177e+02	1.345625e-01	1.972259e-01	0.000000e+00	
6.037011e-02	2.790752e-03	1.227122e+00	5.563143e+01	-8.037415e+00	2.551909e+05	1.015614e+05	2.883176e+02	1.345655e-01	1.972252e-01	0.000000e+00	
5.947128e-02	4.374934e-03	1.227122e+00	5.563269e+01	-8.037451e+00	2.551909e+05	1.015614e+05	2.883177e+02	1.345685e-01	1.972221e-01	0.000000e+00	
5.946557e-02	5.442977e-03	1.227122e+00	5.563386e+01	-8.037660e+00	2.551910e+05	1.015614e+05	2.883178e+02	1.345714e-01	1.972219e-01	0.000000e+00	
5.588047e-02	9.593981e-03	1.227121e+00	5.564221e+01	-8.038609e+00	2.551913e+05	1.015614e+05	2.883178e+02	1.345915e-01	1.972170e-01	0.000000e+00	
5.498251e-02	1.010141e-02	1.227121e+00	5.564260e+01	-8.038515e+00	2.551914e+05	1.015614e+05	2.883178e+02	1.345924e-01	1.972158e-01	0.000000e+00	
5.677541e-02	9.086794e-03	1.227121e+00	5.564153e+01	-8.038637e+00	2.551913e+05	1.015614e+05	2.883178e+02	1.345899e-01	1.972182e-01	0.000000e+00	
5.407936e-02	1.061059e-02	1.227121e+00	5.564262e+01	-8.038348e+00	2.551913e+05	1.015614e+05	2.883178e+02	1.345924e-01	1.972143e-01	0.000000e+00	
5.316806e-02	1.112347e-02	1.227121e+00	5.564220e+01	-8.038109e+00	2.551913e+05	1.015614e+05	2.883178e+02	1.345914e-01	1.972127e-01	0.000000e+00	
5.224579e-02	1.164226e-02	1.227121e+00	5.564126e+01	-8.037810e+00	2.551913e+05	1.015614e+05	2.883179e+02	1.345891e-01	1.972099e-01	0.000000e+00	
5.766865e-02	8.578821e-03	1.227121e+00	5.564064e+01	-8.038605e+00	2.551913e+05	1.015614e+05	2.883178e+02	1.345878e-01	1.972193e-01	0.000000e+00	
5.131209e-02	1.216866e-02	1.227121e+00	5.563980e+01	-8.037471e+00	2.551912e+05	1.015614e+05	2.883179e+02	1.345855e-01	1.972077e-01	0.000000e+00	
5.037184e-02	1.270279e-02	1.227121e+00	5.563786e+01	-8.037158e+00	2.551911e+05	1.015614e+05	2.883179e+02	1.345808e-01	1.971994e-01	0.000000e+00	
4.943643e-02	1.324301e-02	1.227121e+00	5.563561e+01	-8.036925e+00	2.551910e+05	1.015614e+05	2.883179e+02	1.345754e-01	1.971977e-01	0.000000e+00	
5.856089e-02	8.069366e-03	1.227121e+00	5.563964e+01	-8.038527e+00	2.551912e+05	1.015614e+05	2.883178e+02	1.345854e-01	1.972203e-01	0.000000e+00	
5.945983e-02	6.505915e-03	1.227121e+00	5.563595e+01	-8.038042e+00	2.551911e+05	1.015614e+05	2.883178e+02	1.345765e-01	1.972213e-01	0.000000e+00	
4.852031e-02	1.378806e-02	1.227120e+00	5.563361e+01	-8.036981e+00	2.551908e+05	1.015613e+05	2.883179e+02	1.345707e-01	1.971660e-01	0.000000e+00	
4.763296e-02	1.434255e-02	1.227120e+00	5.563281e+01	-8.037157e+00	2.551907e+05	1.015613e+05	2.883179e+02	1.345689e-01	1.971640e-01	0.000000e+00	
4.677444e-02	1.492405e-02	1.227120e+00	5.563468e+01	-8.037923e+00	2.551907e+05	1.015613e+05	2.883178e+02	1.345736e-01	1.971117e-01	0.000000e+00	
6.124863e-02	1.263085e-03	1.227122e+00	5.562946e+01	-8.037352e+00	2.551908e+05	1.015614e+05	2.883177e+02	1.345609e-01	1.972251e-01	0.000000e+00	
6.036213e-02	3.846136e-03	1.227122e+00	5.563233e+01	-8.037426e+00	2.551909e+05	1.015614e+05	2.883177e+02	1.345677e-01	1.972233e-01	0.000000e+00	
5.945265e-02	7.557847e-03	1.227121e+00	5.563861e+01	-8.038415e+00	2.551912e+05	1.015614e+05	2.883178e+02	1.345830e-01	1.972212e-01	0.000000e+00	
4.569681e-02	1.562755e-02	1.227126e+00	5.563990e+01	-8.036816e+00	2.551921e+05	1.015618e+05	2.883177e+02	1.345849e-01	1.975246e-01	0.000000e+00	
6.125545e-02	2.276593e-03	1.227122e+00	5.563087e+01	-8.037388e+00	2.551908e+05	1.015614e+05	2.883176e+02	1.345642e-01	1.972271e-01	0.000000e+00	
6.125316e-02	3.317977e-03	1.227122e+00	5.563193e+01	-8.037396e+00	2.551909e+05	1.015614e+05	2.883177e+02	1.345667e-01	1.972241e-01	0.000000e+00	
6.035624e-02	4.915633e-03	1.227122e+00	5.563337e+01	-8.037572e+00	2.551909e+05	1.015614e+05	2.883178e+02	1.345702e-01	1.972230e-01	0.000000e+00	
6.035085e-02	5.984661e-03	1.227122e+00	5.563513e+01	-8.037897e+00	2.551910e+05	1.015614e+05	2.883178e+02	1.345745e-01	1.972222e-01	0.000000e+00	
5.586947e-02	1.062296e-02	1.227121e+00	5.564165e+01	-8.038207e+00	2.551913e+05	1.015614e+05	2.883178e+02	1.345901e-01	1.972172e-01	0.000000e+00	
5.676467e-02	1.011768e-02	1.227121e+00	5.564187e+01	-8.038379e+00	2.551913e+05	1.015614e+05	2.883178e+02	1.345907e-01	1.972184e-01	0.000000e+00	
5.497153e-02	1.112899e-02	1.227121e+00	5.564107e+01	-8.037988e+00	2.551913e+05	1.015614e+05	2.883179e+02	1.345886e-01	1.972159e-01	0.000000e+00	
5.765840e-02	9.612284e-03	1.227121e+00	5.564176e+01	-8.038496e+00	2.551913e+05	1.015614e+05	2.883178e+02	1.345904e-01	1.972194e-01	0.000000e+00	
5.406878e-02	1.163698e-02	1.227121e+00	5.564013e+01	-8.037740e+00	2.551912e+05	1.015614e+05	2.883179e+02	1.345863e-01	1.972142e-01	0.000000e+00	
5.315846e-02	1.214852e-02	1.227121e+00	5.563888e+01	-8.037491e+00	2.551912e+05	1.015614e+05	2.883179e+02	1.345833e-01	1.972119e-01	0.000000e+00	
5.223817e-02	1.266513e-02	1.227121e+00	5.563742e+01	-8.037279e+00	2.551911e+05	1.015614e+05	2.883179e+02	1.345798e-01	1.972092e-01	0.000000e+00	
5.855134e-02	9.106193e-03	1.227121e+00	5.564136e+01	-8.038556e+00	2.551913e+05	1.015614e+05	2.883178e+02	1.345895e-01	1.972203e-01	0.000000e+00	
5.130794e-02	1.318738e-02	1.227121e+00	5.563593e+01	-8.037166e+00	2.551910e+05	1.015614e+05	2.883179e+02	1.345762e-01	1.972047e-01	0.000000e+00	
5.037290e-02	1.371399e-02	1.227121e+00	5.563473e+01	-8.037199e+00	2.551909e+05	1.015614e+05	2.883179e+02	1.345734e-01	1.972007e-01	0.000000e+00	
4.944406e-02	1.424198e-02	1.227121e+00	5.563427e+01	-8.037461e+00	2.551909e+05	1.015614e+05	2.883179e+02	1.345724e-01	1.971898e-01	0.000000e+00	
5.944386e-02	8.598933e-03	1.227121e+00	5.564073e+01	-8.038562e+00	2.551913e+05	1.015614e+05	2.883178e+02	1.345880e-01	1.972211e-01	0.000000e+00	
6.034436e-02	7.043479e-03	1.227121e+00	5.563761e+01	-8.038282e+00	2.551911e+05	1.015614e+05	2.883178e+02	1.345805e-01	1.972220e-01	0.000000e+00	
4.853432e-02	1.476950e-02	1.227121e+00	5.563507e+01	-8.037784e+00	2.551910e+05	1.015614e+05	2.883179e+02	1.345744e-01	1.972013e-01	0.000000e+00	
4.764949e-02	1.530271e-02	1.227120e+00	5.563758e+01	-8.038119e+00	2.551909e+05	1.015613e+05	2.883178e+02	1.345805e-01	1.971516e-01	0.000000e+00	
4.678078e-02	1.587482e-02	1.227121e+00	5.564122e+01	-8.037263e+00	2.551913e+05	1.015614e+05	2.883179e+02	1.345887e-01	1.972289e-01	0.000000e+00	
6.215324e-02	1.781418e-03	1.227122e+00	5.563022e+01	-8.037316e+00	2.551908e+05	1.015614e+05	2.883176e+02	1.345627e-01	1.972249e-01	0.000000e+00	
6.208313e-02	8.616317e-04	1.227122e+00	5.562895e+01	-8.037311e+00	2.551908e+05	1.015614e+05	2.883177e+02	1.345596e-01	1.972390e-01	0.000000e+00	
6.124790e-02	4.384691e-03	1.227122e+00	5.563293e+01	-8.037503e+00	2.551909e+05	1.015614e+05	2.883177e+02	1.345691e-01	1.972241e-01	0.000000e+00	
6.033623e-02	8.089922e-03	1.227121e+00	5.563995e+01	-8.038520e+00	2.551913e+05	1.015614e+05	2.883178e+02	1.345862e-01	1.972218e-01	0.000000e+00	
4.569681e-02	1.666939e-02	1.227118e+00	5.564166e+01	-8.038492e+00	2.551910e+05	1.015613e+05	2.883181e+02	1.345905e-01	1.970955e-01	0.000000e+00	
6.214617e-02	2.791552e-03	1.227122e+00	5.563146e+01	-8.037364e+00	2.551909e+05	1.015614e+05	2.883176e+02	1.345656e-01	1.972260e-01	0.000000e+00	