TITLE = "Visualization of the volumetric solution"
VARIABLES = "x","y","Density","Momentum_x","Momentum_y","Energy","Pressure","Temperature","Mach","C<sub>p</sub>","Roe_Dissipation"
ZONE NODES= 2606, ELEMENTS= 5024, DATAPACKING=POINT, ZONETYPE=FEQUADRILATERAL
0.000000e+00	1.041837e-03	1.224531e+00	5.565477e+01	-1.511711e-01	2.544210e+05	1.012625e+05	2.880773e+02	1.335767e-01	-5.214842e-02	0.000000e+00	
1.300615e-03	9.732249e-04	1.224113e+00	5.561675e+01	1.044879e+00	2.542990e+05	1.012140e+05	2.880378e+02	1.335633e-01	-9.256463e-02	0.000000e+00	
6.930373e-04	2.025133e-03	1.224440e+00	5.566268e+01	4.057135e-01	2.543857e+05	1.012482e+05	2.880580e+02	1.336131e-01	-6.408435e-02	0.000000e+00	
1.853913e-03	1.893545e-03	1.224032e+00	5.563074e+01	1.540578e+00	2.542677e+05	1.012010e+05	2.880199e+02	1.336375e-01	-1.034369e-01	0.000000e+00	
0.000000e+00	2.083673e-03	1.224491e+00	5.562481e+01	-1.433097e-01	2.544121e+05	1.012595e+05	2.880782e+02	1.335089e-01	-5.466389e-02	0.000000e+00	
2.490339e-03	9.215108e-04	1.223740e+00	5.560790e+01	2.125977e+00	2.541908e+05	1.011702e+05	2.880009e+02	1.336653e-01	-1.291316e-01	0.000000e+00	
1.215862e-03	2.884459e-03	1.224218e+00	5.563473e+01	9.601255e-01	2.543238e+05	1.012237e+05	2.880406e+02	1.335907e-01	-8.451302e-02	0.000000e+00	
0.000000e+00	3.125510e-03	1.224478e+00	5.562791e+01	-1.973159e-01	2.544110e+05	1.012590e+05	2.880800e+02	1.335178e-01	-5.508622e-02	0.000000e+00	
2.418767e-03	2.754980e-03	1.223758e+00	5.564819e+01	2.075761e+00	2.541965e+05	1.011718e+05	2.880012e+02	1.337555e-01	-1.278102e-01	0.000000e+00	
2.992728e-03	1.818458e-03	1.223584e+00	5.563113e+01	2.564289e+00	2.541462e+05	1.011515e+05	2.879843e+02	1.337863e-01	-1.447188e-01	0.000000e+00	
3.573424e-03	8.976544e-04	1.223402e+00	5.561303e+01	3.026976e+00	2.540956e+05	1.011311e+05	2.879693e+02	1.338221e-01	-1.617305e-01	0.000000e+00	
8.417039e-04	3.795059e-03	1.224388e+00	5.563310e+01	5.371149e-01	2.543715e+05	1.012430e+05	2.880555e+02	1.335511e-01	-6.840842e-02	0.000000e+00	
1.902151e-03	3.678963e-03	1.224005e+00	5.564695e+01	1.593030e+00	2.542621e+05	1.011984e+05	2.880190e+02	1.336832e-01	-1.055844e-01	0.000000e+00	
0.000000e+00	4.167347e-03	1.224481e+00	5.562971e+01	-1.327087e-01	2.544097e+05	1.012584e+05	2.880776e+02	1.335219e-01	-5.555676e-02	0.000000e+00	
3.013620e-03	3.611645e-03	1.223581e+00	5.565703e+01	2.576385e+00	2.541466e+05	1.011512e+05	2.879843e+02	1.338502e-01	-1.449785e-01	0.000000e+00	
3.544336e-03	2.701250e-03	1.223428e+00	5.564311e+01	2.998217e+00	2.541022e+05	1.011333e+05	2.879691e+02	1.338877e-01	-1.599562e-01	0.000000e+00	
4.089451e-03	1.794668e-03	1.223286e+00	5.562771e+01	3.394032e+00	2.540611e+05	1.011166e+05	2.879553e+02	1.339241e-01	-1.738297e-01	0.000000e+00	
4.634015e-03	8.983716e-04	1.223125e+00	5.561648e+01	3.767572e+00	2.540179e+05	1.010990e+05	2.879430e+02	1.339753e-01	-1.885061e-01	0.000000e+00	
1.461244e-03	4.557392e-03	1.224149e+00	5.562926e+01	1.155835e+00	2.543054e+05	1.012164e+05	2.880359e+02	1.335951e-01	-9.063612e-02	0.000000e+00	
6.081985e-04	4.614786e-03	1.224375e+00	5.564308e+01	3.296485e-01	2.543754e+05	1.012444e+05	2.880626e+02	1.335709e-01	-6.723482e-02	0.000000e+00	
2.497843e-03	4.509481e-03	1.223732e+00	5.564857e+01	2.138807e+00	2.541910e+05	1.011695e+05	2.880009e+02	1.337650e-01	-1.297140e-01	0.000000e+00	
0.000000e+00	5.209184e-03	1.224508e+00	5.564047e+01	-1.437369e-01	2.544155e+05	1.012605e+05	2.880772e+02	1.335449e-01	-5.378096e-02	0.000000e+00	
3.550814e-03	4.455148e-03	1.223418e+00	5.564688e+01	3.009869e+00	2.541010e+05	1.011327e+05	2.879699e+02	1.338992e-01	-1.604400e-01	0.000000e+00	
4.073570e-03	3.558117e-03	1.223278e+00	5.565052e+01	3.393240e+00	2.540607e+05	1.011160e+05	2.879555e+02	1.339796e-01	-1.743288e-01	0.000000e+00	
4.600662e-03	2.661753e-03	1.223135e+00	5.564213e+01	3.745949e+00	2.540206e+05	1.010997e+05	2.879425e+02	1.340324e-01	-1.879742e-01	0.000000e+00	
5.128743e-03	1.779497e-03	1.223015e+00	5.562893e+01	4.069589e+00	2.539864e+05	1.010858e+05	2.879312e+02	1.340710e-01	-1.995503e-01	0.000000e+00	
5.680506e-03	8.803966e-04	1.222888e+00	5.562196e+01	4.374996e+00	2.539520e+05	1.010717e+05	2.879210e+02	1.341262e-01	-2.113175e-01	0.000000e+00	
1.945294e-03	5.396565e-03	1.223941e+00	5.562904e+01	1.620559e+00	2.542480e+05	1.011931e+05	2.880188e+02	1.336491e-01	-1.100527e-01	0.000000e+00	
8.465860e-04	5.441964e-03	1.224307e+00	5.565075e+01	5.538422e-01	2.543541e+05	1.012357e+05	2.880539e+02	1.336031e-01	-7.451921e-02	0.000000e+00	
3.018879e-03	5.346960e-03	1.223584e+00	5.563299e+01	2.584406e+00	2.541470e+05	1.011518e+05	2.879852e+02	1.337928e-01	-1.444715e-01	0.000000e+00	
0.000000e+00	6.251020e-03	1.224514e+00	5.563801e+01	-2.050628e-01	2.544180e+05	1.012616e+05	2.880789e+02	1.335384e-01	-5.288944e-02	0.000000e+00	
4.075567e-03	5.306910e-03	1.223273e+00	5.563780e+01	3.395402e+00	2.540599e+05	1.011160e+05	2.879563e+02	1.339496e-01	-1.743835e-01	0.000000e+00	
4.597935e-03	4.414596e-03	1.223140e+00	5.564536e+01	3.748095e+00	2.540226e+05	1.011004e+05	2.879434e+02	1.340396e-01	-1.873530e-01	0.000000e+00	
5.119218e-03	3.522898e-03	1.223021e+00	5.564679e+01	4.063871e+00	2.539886e+05	1.010864e+05	2.879314e+02	1.341121e-01	-1.990810e-01	0.000000e+00	
5.644918e-03	2.639160e-03	1.222908e+00	5.563865e+01	4.354530e+00	2.539566e+05	1.010733e+05	2.879207e+02	1.341602e-01	-2.100189e-01	0.000000e+00	
6.184201e-03	1.766163e-03	1.222809e+00	5.562789e+01	4.622024e+00	2.539286e+05	1.010618e+05	2.879113e+02	1.341991e-01	-2.195598e-01	0.000000e+00	
6.719520e-03	8.804634e-04	1.222699e+00	5.562263e+01	4.872090e+00	2.538993e+05	1.010497e+05	2.879029e+02	1.342517e-01	-2.296301e-01	0.000000e+00	
2.459938e-03	6.229953e-03	1.223739e+00	5.563614e+01	2.097068e+00	2.541921e+05	1.011702e+05	2.880012e+02	1.337305e-01	-1.291022e-01	0.000000e+00	
1.285040e-03	6.263751e-03	1.224223e+00	5.562702e+01	1.004734e+00	2.543227e+05	1.012234e+05	2.880385e+02	1.335740e-01	-8.477949e-02	0.000000e+00	
3.545302e-03	6.196102e-03	1.223426e+00	5.563182e+01	3.002769e+00	2.541022e+05	1.011335e+05	2.879701e+02	1.338612e-01	-1.597949e-01	0.000000e+00	
8.926045e-04	7.095737e-03	1.224371e+00	5.563566e+01	5.694760e-01	2.543670e+05	1.012411e+05	2.880542e+02	1.335601e-01	-6.996243e-02	0.000000e+00	
0.000000e+00	7.292857e-03	1.224470e+00	5.562958e+01	-1.124787e-01	2.544070e+05	1.012573e+05	2.880770e+02	1.335228e-01	-5.646458e-02	0.000000e+00	
5.121991e-03	5.274208e-03	1.223016e+00	5.563962e+01	4.067468e+00	2.539879e+05	1.010862e+05	2.879321e+02	1.340959e-01	-1.992132e-01	0.000000e+00	
4.602347e-03	6.164379e-03	1.223136e+00	5.563443e+01	3.748168e+00	2.540214e+05	1.011002e+05	2.879436e+02	1.340139e-01	-1.875818e-01	0.000000e+00	
5.640344e-03	4.383762e-03	1.222907e+00	5.564624e+01	4.355347e+00	2.539572e+05	1.010734e+05	2.879213e+02	1.341785e-01	-2.099252e-01	0.000000e+00	
6.160576e-03	3.496751e-03	1.222809e+00	5.564417e+01	4.618033e+00	2.539293e+05	1.010618e+05	2.879113e+02	1.342373e-01	-2.195768e-01	0.000000e+00	
6.685981e-03	2.617603e-03	1.222712e+00	5.563644e+01	4.856265e+00	2.539022e+05	1.010507e+05	2.879025e+02	1.342801e-01	-2.288256e-01	0.000000e+00	
7.209930e-03	1.756919e-03	1.222630e+00	5.562822e+01	5.069161e+00	2.538791e+05	1.010412e+05	2.878950e+02	1.343167e-01	-2.367202e-01	0.000000e+00	
7.762955e-03	8.590462e-04	1.222545e+00	5.562460e+01	5.263859e+00	2.538567e+05	1.010320e+05	2.878885e+02	1.343622e-01	-2.444740e-01	0.000000e+00	
1.912678e-03	7.101601e-03	1.223977e+00	5.564458e+01	1.606056e+00	2.542558e+05	1.011960e+05	2.880184e+02	1.336815e-01	-1.076531e-01	0.000000e+00	
3.009988e-03	7.081951e-03	1.223579e+00	5.563759e+01	2.575788e+00	2.541458e+05	1.011513e+05	2.879848e+02	1.338035e-01	-1.449404e-01	0.000000e+00	
6.562070e-04	7.896098e-03	1.224379e+00	5.564108e+01	3.512475e-01	2.543756e+05	1.012445e+05	2.880619e+02	1.335661e-01	-6.714173e-02	0.000000e+00	
4.079923e-03	7.053294e-03	1.223275e+00	5.563364e+01	3.396796e+00	2.540598e+05	1.011160e+05	2.879560e+02	1.339397e-01	-1.743500e-01	0.000000e+00	
1.443072e-03	7.948168e-03	1.224142e+00	5.563315e+01	1.136499e+00	2.543042e+05	1.012158e+05	2.880361e+02	1.336043e-01	-9.111650e-02	0.000000e+00	
0.000000e+00	8.334694e-03	1.224517e+00	5.564198e+01	-1.139623e-01	2.544168e+05	1.012610e+05	2.880765e+02	1.335475e-01	-5.335833e-02	0.000000e+00	
5.649547e-03	6.136076e-03	1.222905e+00	5.563662e+01	4.358764e+00	2.539567e+05	1.010733e+05	2.879215e+02	1.341562e-01	-2.099621e-01	0.000000e+00	
6.165653e-03	5.246729e-03	1.222807e+00	5.564086e+01	4.621809e+00	2.539291e+05	1.010618e+05	2.879119e+02	1.342303e-01	-2.195903e-01	0.000000e+00	
5.132945e-03	7.025121e-03	1.223013e+00	5.563343e+01	4.071512e+00	2.539869e+05	1.010859e+05	2.879319e+02	1.340821e-01	-1.994690e-01	0.000000e+00	
6.682259e-03	4.358505e-03	1.222714e+00	5.564396e+01	4.857307e+00	2.539033e+05	1.010510e+05	2.879029e+02	1.342980e-01	-2.285876e-01	0.000000e+00	
7.201621e-03	3.475135e-03	1.222633e+00	5.564251e+01	5.064673e+00	2.538803e+05	1.010415e+05	2.878949e+02	1.343497e-01	-2.365516e-01	0.000000e+00	
7.726474e-03	2.604248e-03	1.222557e+00	5.563529e+01	5.250791e+00	2.538591e+05	1.010328e+05	2.878880e+02	1.343836e-01	-2.437904e-01	0.000000e+00	
8.269955e-03	1.746278e-03	1.222495e+00	5.562856e+01	5.415929e+00	2.538418e+05	1.010256e+05	2.878823e+02	1.344135e-01	-2.497387e-01	0.000000e+00	
8.800961e-03	8.699527e-04	1.222430e+00	5.562627e+01	5.564881e+00	2.538247e+05	1.010186e+05	2.878773e+02	1.344515e-01	-2.556343e-01	0.000000e+00	
2.469716e-03	7.969031e-03	1.223748e+00	5.563586e+01	2.120856e+00	2.541942e+05	1.011711e+05	2.880015e+02	1.337310e-01	-1.284326e-01	0.000000e+00	
3.551945e-03	7.943751e-03	1.223425e+00	5.563193e+01	3.010031e+00	2.541018e+05	1.011333e+05	2.879700e+02	1.338626e-01	-1.599168e-01	0.000000e+00	
8.530434e-04	8.805935e-03	1.224307e+00	5.565098e+01	5.377027e-01	2.543549e+05	1.012360e+05	2.880547e+02	1.336031e-01	-7.426345e-02	0.000000e+00	
4.614579e-03	7.914589e-03	1.223133e+00	5.563308e+01	3.755892e+00	2.540205e+05	1.010998e+05	2.879432e+02	1.340122e-01	-1.878761e-01	0.000000e+00	
1.864423e-03	8.915371e-03	1.223973e+00	5.561906e+01	1.571378e+00	2.542556e+05	1.011964e+05	2.880204e+02	1.336178e-01	-1.073151e-01	0.000000e+00	
0.000000e+00	9.376531e-03	1.224498e+00	5.564350e+01	-1.868873e-01	2.544145e+05	1.012601e+05	2.880782e+02	1.335533e-01	-5.416588e-02	0.000000e+00	
6.694594e-03	6.110577e-03	1.222710e+00	5.563700e+01	4.861899e+00	2.539025e+05	1.010508e+05	2.879032e+02	1.342827e-01	-2.287644e-01	0.000000e+00	
6.179908e-03	6.999085e-03	1.222803e+00	5.563393e+01	4.627010e+00	2.539280e+05	1.010615e+05	2.879117e+02	1.342151e-01	-2.198619e-01	0.000000e+00	
7.208595e-03	5.222367e-03	1.222628e+00	5.564189e+01	5.069059e+00	2.538798e+05	1.010413e+05	2.878953e+02	1.343495e-01	-2.366999e-01	0.000000e+00	
5.664712e-03	7.887928e-03	1.222903e+00	5.563403e+01	4.365447e+00	2.539558e+05	1.010730e+05	2.879211e+02	1.341516e-01	-2.102207e-01	0.000000e+00	
7.722643e-03	4.335503e-03	1.222558e+00	5.564407e+01	5.251104e+00	2.538600e+05	1.010330e+05	2.878883e+02	1.344045e-01	-2.436297e-01	0.000000e+00	
8.239261e-03	3.453725e-03	1.222497e+00	5.564039e+01	5.411623e+00	2.538425e+05	1.010257e+05	2.878821e+02	1.344407e-01	-2.496727e-01	0.000000e+00	
8.762558e-03	2.583435e-03	1.222439e+00	5.563456e+01	5.552810e+00	2.538265e+05	1.010191e+05	2.878769e+02	1.344676e-01	-2.551576e-01	0.000000e+00	
9.284767e-03	1.741262e-03	1.222390e+00	5.562876e+01	5.676453e+00	2.538130e+05	1.010136e+05	2.878727e+02	1.344900e-01	-2.597828e-01	0.000000e+00	
9.849930e-03	8.536335e-04	1.222342e+00	5.562665e+01	5.782536e+00	2.538006e+05	1.010085e+05	2.878693e+02	1.345171e-01	-2.640619e-01	0.000000e+00	
3.008538e-03	8.848286e-03	1.223577e+00	5.562887e+01	2.574451e+00	2.541451e+05	1.011511e+05	2.879850e+02	1.337826e-01	-1.450439e-01	0.000000e+00	
4.091922e-03	8.807506e-03	1.223273e+00	5.563221e+01	3.405171e+00	2.540591e+05	1.011157e+05	2.879556e+02	1.339378e-01	-1.745823e-01	0.000000e+00	
1.151895e-03	9.939051e-03	1.224254e+00	5.562450e+01	8.740561e-01	2.543331e+05	1.012276e+05	2.880433e+02	1.335581e-01	-8.121945e-02	0.000000e+00	
5.148601e-03	8.777900e-03	1.223010e+00	5.563488e+01	4.079285e+00	2.539857e+05	1.010854e+05	2.879313e+02	1.340875e-01	-1.998795e-01	0.000000e+00	
2.457634e-03	9.750037e-03	1.223784e+00	5.563780e+01	2.106103e+00	2.542009e+05	1.011737e+05	2.880005e+02	1.337305e-01	-1.261974e-01	0.000000e+00	
0.000000e+00	1.041837e-02	1.224526e+00	5.562969e+01	-1.797432e-01	2.544198e+05	1.012625e+05	2.880786e+02	1.335171e-01	-5.216899e-02	0.000000e+00	
7.737892e-03	6.086906e-03	1.222555e+00	5.563864e+01	5.256130e+00	2.538594e+05	1.010328e+05	2.878886e+02	1.343930e-01	-2.437713e-01	0.000000e+00	
7.225266e-03	6.974862e-03	1.222625e+00	5.563530e+01	5.074062e+00	2.538789e+05	1.010410e+05	2.878953e+02	1.343351e-01	-2.369227e-01	0.000000e+00	
6.711116e-03	7.863565e-03	1.222708e+00	5.563375e+01	4.867490e+00	2.539015e+05	1.010505e+05	2.879028e+02	1.342764e-01	-2.290420e-01	0.000000e+00	
8.248364e-03	5.198945e-03	1.222494e+00	5.564165e+01	5.415753e+00	2.538425e+05	1.010257e+05	2.878825e+02	1.344448e-01	-2.497071e-01	0.000000e+00	
6.196581e-03	8.753254e-03	1.222801e+00	5.563532e+01	4.633953e+00	2.539273e+05	1.010611e+05	2.879112e+02	1.342202e-01	-2.201361e-01	0.000000e+00	
8.758237e-03	4.310664e-03	1.222440e+00	5.564267e+01	5.553601e+00	2.538272e+05	1.010193e+05	2.878770e+02	1.344870e-01	-2.550324e-01	0.000000e+00	
9.270992e-03	3.427498e-03	1.222395e+00	5.563966e+01	5.671687e+00	2.538142e+05	1.010139e+05	2.878724e+02	1.345144e-01	-2.595262e-01	0.000000e+00	
9.788695e-03	2.567407e-03	1.222352e+00	5.563344e+01	5.771918e+00	2.538026e+05	1.010092e+05	2.878689e+02	1.345297e-01	-2.634872e-01	0.000000e+00	
1.033760e-02	1.738365e-03	1.222318e+00	5.563028e+01	5.853329e+00	2.537935e+05	1.010054e+05	2.878662e+02	1.345468e-01	-2.666149e-01	0.000000e+00	
1.086906e-02	8.977251e-04	1.222293e+00	5.562966e+01	5.921991e+00	2.537866e+05	1.010025e+05	2.878640e+02	1.345661e-01	-2.690203e-01	0.000000e+00	
3.569683e-03	9.700853e-03	1.223409e+00	5.564455e+01	3.017596e+00	2.540979e+05	1.011315e+05	2.879685e+02	1.338959e-01	-1.614244e-01	0.000000e+00	
4.631722e-03	9.669204e-03	1.223135e+00	5.564014e+01	3.764783e+00	2.540205e+05	1.010997e+05	2.879423e+02	1.340306e-01	-1.879904e-01	0.000000e+00	
2.186633e-03	1.060017e-02	1.223874e+00	5.565143e+01	1.834531e+00	2.542278e+05	1.011845e+05	2.880099e+02	1.337282e-01	-1.172493e-01	0.000000e+00	
6.925590e-04	1.096611e-02	1.224399e+00	5.562937e+01	4.047700e-01	2.543775e+05	1.012455e+05	2.880600e+02	1.335372e-01	-6.632892e-02	0.000000e+00	
5.682034e-03	9.644111e-03	1.222900e+00	5.564146e+01	4.373135e+00	2.539549e+05	1.010725e+05	2.879204e+02	1.341713e-01	-2.106467e-01	0.000000e+00	
3.084503e-03	1.059278e-02	1.223569e+00	5.565715e+01	2.638931e+00	2.541424e+05	1.011495e+05	2.879820e+02	1.338593e-01	-1.464429e-01	0.000000e+00	
1.591235e-03	1.123548e-02	1.224129e+00	5.562848e+01	1.256137e+00	2.542973e+05	1.012131e+05	2.880315e+02	1.336017e-01	-9.337173e-02	0.000000e+00	
0.000000e+00	1.146020e-02	1.224467e+00	5.563491e+01	-1.140143e-01	2.544067e+05	1.012571e+05	2.880772e+02	1.335359e-01	-5.663732e-02	0.000000e+00	
8.776842e-03	6.063817e-03	1.222437e+00	5.563921e+01	5.558570e+00	2.538268e+05	1.010192e+05	2.878773e+02	1.344802e-01	-2.551435e-01	0.000000e+00	
8.267959e-03	6.951958e-03	1.222491e+00	5.563563e+01	5.420744e+00	2.538415e+05	1.010254e+05	2.878825e+02	1.344320e-01	-2.499484e-01	0.000000e+00	
7.755755e-03	7.840727e-03	1.222553e+00	5.563500e+01	5.260832e+00	2.538586e+05	1.010325e+05	2.878883e+02	1.343856e-01	-2.439824e-01	0.000000e+00	
7.241898e-03	8.730998e-03	1.222624e+00	5.563643e+01	5.079244e+00	2.538782e+05	1.010407e+05	2.878948e+02	1.343393e-01	-2.371853e-01	0.000000e+00	
9.282448e-03	5.173138e-03	1.222392e+00	5.564182e+01	5.675930e+00	2.538139e+05	1.010138e+05	2.878727e+02	1.345209e-01	-2.596588e-01	0.000000e+00	
6.727900e-03	9.622558e-03	1.222707e+00	5.563982e+01	4.873894e+00	2.539011e+05	1.010502e+05	2.879022e+02	1.342925e-01	-2.292797e-01	0.000000e+00	
9.787601e-03	4.276600e-03	1.222353e+00	5.564153e+01	5.773482e+00	2.538031e+05	1.010092e+05	2.878688e+02	1.345493e-01	-2.634396e-01	0.000000e+00	
1.029321e-02	3.386234e-03	1.222319e+00	5.563720e+01	5.851113e+00	2.537937e+05	1.010054e+05	2.878658e+02	1.345628e-01	-2.666556e-01	0.000000e+00	
1.078799e-02	2.536993e-03	1.222295e+00	5.563218e+01	5.909247e+00	2.537869e+05	1.010026e+05	2.878638e+02	1.345687e-01	-2.689451e-01	0.000000e+00	
1.131344e-02	1.776749e-03	1.222275e+00	5.563076e+01	5.959837e+00	2.537815e+05	1.010004e+05	2.878622e+02	1.345808e-01	-2.708086e-01	0.000000e+00	
1.194278e-02	9.712516e-04	1.222260e+00	5.562940e+01	5.999033e+00	2.537777e+05	1.009988e+05	2.878612e+02	1.345895e-01	-2.721073e-01	0.000000e+00	
4.116812e-03	1.056224e-02	1.223267e+00	5.564916e+01	3.423017e+00	2.540576e+05	1.011148e+05	2.879544e+02	1.339821e-01	-1.753705e-01	0.000000e+00	
5.166410e-03	1.053680e-02	1.223009e+00	5.564646e+01	4.090153e+00	2.539854e+05	1.010851e+05	2.879306e+02	1.341175e-01	-2.001690e-01	0.000000e+00	
2.555652e-03	1.147613e-02	1.223706e+00	5.566277e+01	2.179327e+00	2.541842e+05	1.011665e+05	2.879984e+02	1.338063e-01	-1.322039e-01	0.000000e+00	
8.499307e-04	1.192244e-02	1.224325e+00	5.563806e+01	5.648219e-01	2.543580e+05	1.012375e+05	2.880547e+02	1.335708e-01	-7.302936e-02	0.000000e+00	
6.213630e-03	1.051553e-02	1.222800e+00	5.564432e+01	4.642420e+00	2.539268e+05	1.010608e+05	2.879106e+02	1.342438e-01	-2.204391e-01	0.000000e+00	
3.580101e-03	1.145509e-02	1.223408e+00	5.564894e+01	3.037512e+00	2.540981e+05	1.011315e+05	2.879687e+02	1.339091e-01	-1.614412e-01	0.000000e+00	
1.954403e-03	1.236100e-02	1.223959e+00	5.563971e+01	1.571921e+00	2.542538e+05	1.011953e+05	2.880207e+02	1.336690e-01	-1.082438e-01	0.000000e+00	
0.000000e+00	1.250204e-02	1.224513e+00	5.564482e+01	-1.238648e-01	2.544160e+05	1.012607e+05	2.880765e+02	1.335549e-01	-5.366674e-02	0.000000e+00	
9.810305e-03	6.039252e-03	1.222350e+00	5.563914e+01	5.778151e+00	2.538025e+05	1.010090e+05	2.878691e+02	1.345451e-01	-2.636012e-01	0.000000e+00	
9.305768e-03	6.929731e-03	1.222389e+00	5.563683e+01	5.680363e+00	2.538133e+05	1.010136e+05	2.878729e+02	1.345103e-01	-2.598162e-01	0.000000e+00	
8.796922e-03	7.819035e-03	1.222435e+00	5.563542e+01	5.562545e+00	2.538260e+05	1.010189e+05	2.878772e+02	1.344723e-01	-2.553516e-01	0.000000e+00	
8.284826e-03	8.710059e-03	1.222490e+00	5.563609e+01	5.424775e+00	2.538410e+05	1.010252e+05	2.878821e+02	1.344342e-01	-2.501361e-01	0.000000e+00	
7.771403e-03	9.602779e-03	1.222552e+00	5.564012e+01	5.265617e+00	2.538582e+05	1.010323e+05	2.878878e+02	1.343991e-01	-2.441823e-01	0.000000e+00	
1.031221e-02	5.139589e-03	1.222320e+00	5.564165e+01	5.855567e+00	2.537941e+05	1.010055e+05	2.878659e+02	1.345745e-01	-2.665805e-01	0.000000e+00	
7.257744e-03	1.049664e-02	1.222623e+00	5.564404e+01	5.085596e+00	2.538779e+05	1.010404e+05	2.878943e+02	1.343591e-01	-2.373897e-01	0.000000e+00	
1.081841e-02	4.217602e-03	1.222295e+00	5.564040e+01	5.917179e+00	2.537870e+05	1.010025e+05	2.878634e+02	1.345904e-01	-2.690322e-01	0.000000e+00	
1.133083e-02	3.305182e-03	1.222283e+00	5.563559e+01	5.961862e+00	2.537831e+05	1.010010e+05	2.878618e+02	1.345920e-01	-2.703323e-01	0.000000e+00	
1.160811e-02	2.525406e-03	1.222281e+00	5.563222e+01	5.985655e+00	2.537818e+05	1.010004e+05	2.878608e+02	1.345906e-01	-2.707640e-01	0.000000e+00	
1.224398e-02	1.919039e-03	1.222254e+00	5.562847e+01	6.009147e+00	2.537759e+05	1.009981e+05	2.878603e+02	1.345907e-01	-2.727320e-01	0.000000e+00	
1.302129e-02	1.075149e-03	1.222258e+00	5.562901e+01	5.998991e+00	2.537772e+05	1.009986e+05	2.878611e+02	1.345888e-01	-2.722814e-01	0.000000e+00	
4.642418e-03	1.143191e-02	1.223132e+00	5.564614e+01	3.774592e+00	2.540201e+05	1.010994e+05	2.879423e+02	1.340469e-01	-1.882045e-01	0.000000e+00	
5.696145e-03	1.141072e-02	1.222897e+00	5.564701e+01	4.382774e+00	2.539544e+05	1.010722e+05	2.879202e+02	1.341869e-01	-2.109207e-01	0.000000e+00	
2.990282e-03	1.234662e-02	1.223580e+00	5.564041e+01	2.586029e+00	2.541462e+05	1.011514e+05	2.879850e+02	1.338113e-01	-1.448579e-01	0.000000e+00	
9.212897e-04	1.297994e-02	1.224317e+00	5.565232e+01	6.228124e-01	2.543544e+05	1.012358e+05	2.880516e+02	1.336080e-01	-7.445537e-02	0.000000e+00	
6.743066e-03	1.139183e-02	1.222705e+00	5.564497e+01	4.881536e+00	2.539008e+05	1.010499e+05	2.879020e+02	1.343067e-01	-2.294810e-01	0.000000e+00	
4.105356e-03	1.232899e-02	1.223272e+00	5.564061e+01	3.415720e+00	2.540590e+05	1.011155e+05	2.879554e+02	1.339597e-01	-1.747400e-01	0.000000e+00	
2.540602e-03	1.321592e-02	1.223717e+00	5.562856e+01	2.171036e+00	2.541859e+05	1.011678e+05	2.879996e+02	1.337219e-01	-1.311041e-01	0.000000e+00	
0.000000e+00	1.354388e-02	1.224495e+00	5.564043e+01	-1.285747e-01	2.544122e+05	1.012592e+05	2.880765e+02	1.335463e-01	-5.486268e-02	0.000000e+00	
1.711625e-03	1.337666e-02	1.224005e+00	5.564291e+01	1.371666e+00	2.542683e+05	1.012011e+05	2.880265e+02	1.336576e-01	-1.033663e-01	0.000000e+00	
1.033838e-02	6.907107e-03	1.222316e+00	5.563753e+01	5.858710e+00	2.537934e+05	1.010052e+05	2.878662e+02	1.345658e-01	-2.667549e-01	0.000000e+00	
1.084015e-02	6.010768e-03	1.222294e+00	5.564033e+01	5.919698e+00	2.537872e+05	1.010026e+05	2.878637e+02	1.345909e-01	-2.689879e-01	0.000000e+00	
9.832990e-03	7.798217e-03	1.222348e+00	5.563552e+01	5.780966e+00	2.538019e+05	1.010089e+05	2.878691e+02	1.345374e-01	-2.637447e-01	0.000000e+00	
9.323734e-03	8.690202e-03	1.222388e+00	5.563660e+01	5.683324e+00	2.538128e+05	1.010134e+05	2.878725e+02	1.345107e-01	-2.599839e-01	0.000000e+00	
8.811953e-03	9.584108e-03	1.222435e+00	5.563959e+01	5.566043e+00	2.538258e+05	1.010187e+05	2.878767e+02	1.344833e-01	-2.554934e-01	0.000000e+00	
8.299146e-03	1.047913e-02	1.222489e+00	5.564262e+01	5.429464e+00	2.538408e+05	1.010250e+05	2.878817e+02	1.344511e-01	-2.502831e-01	0.000000e+00	
1.134184e-02	5.093179e-03	1.222279e+00	5.564112e+01	5.964649e+00	2.537825e+05	1.010006e+05	2.878618e+02	1.346065e-01	-2.706328e-01	0.000000e+00	
7.785782e-03	1.137474e-02	1.222550e+00	5.564499e+01	5.271550e+00	2.538580e+05	1.010321e+05	2.878876e+02	1.344123e-01	-2.443375e-01	0.000000e+00	
1.186524e-02	4.097121e-03	1.222262e+00	5.563875e+01	5.995172e+00	2.537781e+05	1.009988e+05	2.878606e+02	1.346107e-01	-2.721317e-01	0.000000e+00	
1.236152e-02	3.102998e-03	1.222260e+00	5.563646e+01	6.006433e+00	2.537770e+05	1.009984e+05	2.878601e+02	1.346086e-01	-2.724616e-01	0.000000e+00	
1.344011e-02	2.350145e-03	1.222264e+00	5.563134e+01	5.986196e+00	2.537786e+05	1.009992e+05	2.878612e+02	1.345904e-01	-2.718355e-01	0.000000e+00	
1.407600e-02	7.129206e-04	1.222281e+00	5.563282e+01	5.952777e+00	2.537833e+05	1.010011e+05	2.878627e+02	1.345831e-01	-2.702164e-01	0.000000e+00	
5.172366e-03	1.230886e-02	1.223004e+00	5.564256e+01	4.095804e+00	2.539846e+05	1.010848e+05	2.879310e+02	1.341095e-01	-2.004013e-01	0.000000e+00	
6.225373e-03	1.228920e-02	1.222796e+00	5.564236e+01	4.648837e+00	2.539263e+05	1.010606e+05	2.879108e+02	1.342407e-01	-2.205969e-01	0.000000e+00	
3.574993e-03	1.322459e-02	1.223434e+00	5.563215e+01	3.029188e+00	2.541032e+05	1.011338e+05	2.879694e+02	1.338647e-01	-1.594773e-01	0.000000e+00	
1.020115e-03	1.411060e-02	1.224305e+00	5.564173e+01	6.876070e-01	2.543494e+05	1.012339e+05	2.880494e+02	1.335863e-01	-7.597273e-02	0.000000e+00	
7.271061e-03	1.227127e-02	1.222619e+00	5.564346e+01	5.091587e+00	2.538774e+05	1.010402e+05	2.878945e+02	1.343594e-01	-2.375645e-01	0.000000e+00	
1.401172e-02	1.492742e-03	1.222283e+00	5.562911e+01	5.956586e+00	2.537835e+05	1.010012e+05	2.878626e+02	1.345750e-01	-2.701208e-01	0.000000e+00	
4.644946e-03	1.321005e-02	1.223119e+00	5.563877e+01	3.776570e+00	2.540172e+05	1.010984e+05	2.879425e+02	1.340310e-01	-1.890732e-01	0.000000e+00	
2.026933e-03	1.416014e-02	1.223916e+00	5.563638e+01	1.707095e+00	2.542397e+05	1.011896e+05	2.880146e+02	1.336767e-01	-1.129869e-01	0.000000e+00	
3.066412e-03	1.413914e-02	1.223573e+00	5.562972e+01	2.620010e+00	2.541432e+05	1.011503e+05	2.879836e+02	1.337906e-01	-1.457435e-01	0.000000e+00	
0.000000e+00	1.458571e-02	1.224518e+00	5.563547e+01	-1.071577e-01	2.544163e+05	1.012610e+05	2.880762e+02	1.335319e-01	-5.341475e-02	0.000000e+00	
1.136743e-02	6.883039e-03	1.222276e+00	5.563817e+01	5.966482e+00	2.537822e+05	1.010005e+05	2.878621e+02	1.346001e-01	-2.707121e-01	0.000000e+00	
1.086408e-02	7.777700e-03	1.222293e+00	5.563675e+01	5.921082e+00	2.537868e+05	1.010025e+05	2.878638e+02	1.345828e-01	-2.690761e-01	0.000000e+00	
1.186927e-02	5.979276e-03	1.222264e+00	5.563962e+01	5.995811e+00	2.537787e+05	1.009990e+05	2.878609e+02	1.346128e-01	-2.719499e-01	0.000000e+00	
1.035766e-02	8.671378e-03	1.222316e+00	5.563676e+01	5.860399e+00	2.537931e+05	1.010051e+05	2.878659e+02	1.345645e-01	-2.668609e-01	0.000000e+00	
9.848357e-03	9.566535e-03	1.222348e+00	5.563869e+01	5.783290e+00	2.538018e+05	1.010087e+05	2.878686e+02	1.345456e-01	-2.638526e-01	0.000000e+00	
9.337251e-03	1.046274e-02	1.222388e+00	5.564224e+01	5.686705e+00	2.538127e+05	1.010132e+05	2.878721e+02	1.345251e-01	-2.600840e-01	0.000000e+00	
8.825235e-03	1.135907e-02	1.222434e+00	5.564427e+01	5.570404e+00	2.538257e+05	1.010186e+05	2.878765e+02	1.344957e-01	-2.555943e-01	0.000000e+00	
1.237235e-02	5.050467e-03	1.222259e+00	5.564078e+01	6.007138e+00	2.537773e+05	1.009984e+05	2.878602e+02	1.346191e-01	-2.724561e-01	0.000000e+00	
8.312366e-03	1.225530e-02	1.222487e+00	5.564293e+01	5.434172e+00	2.538405e+05	1.010249e+05	2.878818e+02	1.344532e-01	-2.503953e-01	0.000000e+00	
1.284672e-02	4.110094e-03	1.222261e+00	5.563887e+01	6.005159e+00	2.537775e+05	1.009986e+05	2.878601e+02	1.346138e-01	-2.723378e-01	0.000000e+00	
1.336876e-02	3.347239e-03	1.222260e+00	5.563743e+01	5.993372e+00	2.537775e+05	1.009986e+05	2.878604e+02	1.346074e-01	-2.723068e-01	0.000000e+00	
1.492896e-02	9.867398e-04	1.222317e+00	5.563163e+01	5.865646e+00	2.537932e+05	1.010052e+05	2.878660e+02	1.345534e-01	-2.667620e-01	0.000000e+00	
5.703754e-03	1.318958e-02	1.222897e+00	5.563865e+01	4.385856e+00	2.539544e+05	1.010723e+05	2.879206e+02	1.341673e-01	-2.107900e-01	0.000000e+00	
6.753741e-03	1.316952e-02	1.222700e+00	5.563924e+01	4.885938e+00	2.538997e+05	1.010496e+05	2.879023e+02	1.342944e-01	-2.297386e-01	0.000000e+00	
4.117986e-03	1.411900e-02	1.223257e+00	5.563565e+01	3.425940e+00	2.540554e+05	1.011142e+05	2.879550e+02	1.339510e-01	-1.758823e-01	0.000000e+00	
7.102342e-04	1.505752e-02	1.224366e+00	5.564718e+01	3.983166e-01	2.543711e+05	1.012426e+05	2.880596e+02	1.335835e-01	-6.874271e-02	0.000000e+00	
1.511651e-03	1.502655e-02	1.224131e+00	5.563271e+01	1.191241e+00	2.542995e+05	1.012139e+05	2.880333e+02	1.336077e-01	-9.266860e-02	0.000000e+00	
7.797960e-03	1.315193e-02	1.222548e+00	5.564030e+01	5.275496e+00	2.538575e+05	1.010320e+05	2.878879e+02	1.344022e-01	-2.444361e-01	0.000000e+00	
1.452747e-02	2.203483e-03	1.222300e+00	5.563064e+01	5.908706e+00	2.537883e+05	1.010032e+05	2.878643e+02	1.345642e-01	-2.684344e-01	0.000000e+00	
1.418073e-02	3.161302e-03	1.222283e+00	5.563348e+01	5.940689e+00	2.537838e+05	1.010013e+05	2.878627e+02	1.345813e-01	-2.700569e-01	0.000000e+00	
5.178431e-03	1.409430e-02	1.223006e+00	5.563451e+01	4.096631e+00	2.539847e+05	1.010850e+05	2.879310e+02	1.340902e-01	-2.002528e-01	0.000000e+00	
2.520599e-03	1.506255e-02	1.223742e+00	5.563791e+01	2.155107e+00	2.541915e+05	1.011699e+05	2.879996e+02	1.337401e-01	-1.293641e-01	0.000000e+00	
3.583424e-03	1.503592e-02	1.223411e+00	5.563528e+01	3.033675e+00	2.540982e+05	1.011318e+05	2.879689e+02	1.338755e-01	-1.612038e-01	0.000000e+00	
0.000000e+00	1.562755e-02	1.224499e+00	5.564147e+01	-1.132792e-01	2.544129e+05	1.012595e+05	2.880764e+02	1.335483e-01	-5.466136e-02	0.000000e+00	
1.239345e-02	6.855607e-03	1.222257e+00	5.563887e+01	6.008183e+00	2.537771e+05	1.009984e+05	2.878605e+02	1.346149e-01	-2.724949e-01	0.000000e+00	
1.189132e-02	7.756175e-03	1.222263e+00	5.563653e+01	5.996215e+00	2.537785e+05	1.009990e+05	2.878610e+02	1.346055e-01	-2.719542e-01	0.000000e+00	
1.138701e-02	8.653138e-03	1.222276e+00	5.563679e+01	5.967124e+00	2.537819e+05	1.010004e+05	2.878619e+02	1.345970e-01	-2.707829e-01	0.000000e+00	
1.289268e-02	5.944676e-03	1.222260e+00	5.564007e+01	6.006256e+00	2.537775e+05	1.009985e+05	2.878604e+02	1.346171e-01	-2.723474e-01	0.000000e+00	
1.088025e-02	9.550094e-03	1.222294e+00	5.563901e+01	5.922378e+00	2.537867e+05	1.010024e+05	2.878634e+02	1.345886e-01	-2.691320e-01	0.000000e+00	
1.037141e-02	1.044752e-02	1.222316e+00	5.564157e+01	5.862690e+00	2.537931e+05	1.010050e+05	2.878656e+02	1.345766e-01	-2.669285e-01	0.000000e+00	
9.861248e-03	1.134470e-02	1.222348e+00	5.564316e+01	5.786456e+00	2.538018e+05	1.010086e+05	2.878685e+02	1.345572e-01	-2.639202e-01	0.000000e+00	
9.350180e-03	1.224112e-02	1.222386e+00	5.564325e+01	5.690352e+00	2.538126e+05	1.010131e+05	2.878723e+02	1.345285e-01	-2.601644e-01	0.000000e+00	
1.337839e-02	5.023476e-03	1.222265e+00	5.563939e+01	5.992550e+00	2.537789e+05	1.009991e+05	2.878608e+02	1.346112e-01	-2.718533e-01	0.000000e+00	
8.838069e-03	1.313696e-02	1.222432e+00	5.564092e+01	5.573757e+00	2.538252e+05	1.010185e+05	2.878768e+02	1.344887e-01	-2.557074e-01	0.000000e+00	
1.383791e-02	4.102393e-03	1.222283e+00	5.563830e+01	5.966594e+00	2.537829e+05	1.010008e+05	2.878615e+02	1.345999e-01	-2.704599e-01	0.000000e+00	
6.233001e-03	1.407027e-02	1.222792e+00	5.563566e+01	4.651711e+00	2.539251e+05	1.010602e+05	2.879109e+02	1.342256e-01	-2.208745e-01	0.000000e+00	
7.281174e-03	1.404959e-02	1.222618e+00	5.563687e+01	5.094170e+00	2.538768e+05	1.010401e+05	2.878946e+02	1.343443e-01	-2.376643e-01	0.000000e+00	
4.648880e-03	1.500328e-02	1.223129e+00	5.563394e+01	3.777068e+00	2.540190e+05	1.010992e+05	2.879424e+02	1.340184e-01	-1.884105e-01	0.000000e+00	
8.755337e-04	1.595201e-02	1.224303e+00	5.565188e+01	5.689862e-01	2.543530e+05	1.012352e+05	2.880535e+02	1.336067e-01	-7.490014e-02	0.000000e+00	
1.913335e-03	1.601182e-02	1.223966e+00	5.562582e+01	1.598999e+00	2.542536e+05	1.011954e+05	2.880195e+02	1.336370e-01	-1.080953e-01	0.000000e+00	
8.324411e-03	1.403274e-02	1.222485e+00	5.563721e+01	5.436932e+00	2.538399e+05	1.010247e+05	2.878820e+02	1.344404e-01	-2.505396e-01	0.000000e+00	