TITLE = "Visualization of the volumetric solution"
VARIABLES = "x","y","Density","Momentum_x","Momentum_y","Energy","Pressure","Temperature","Mach","C<sub>p</sub>","Roe_Dissipation"
ZONE NODES= 2696, ELEMENTS= 5118, DATAPACKING=POINT, ZONETYPE=FEQUADRILATERAL
1.010571e+00	-1.414740e-01	1.225047e+00	4.167242e+01	3.645709e+00	2.540143e+05	1.013201e+05	2.881198e+02	1.003497e-01	-6.970958e-03	0.000000e+00	
1.000000e+00	-1.396258e-01	1.225047e+00	4.167241e+01	3.645706e+00	2.540144e+05	1.013201e+05	2.881198e+02	1.003497e-01	-6.966694e-03	0.000000e+00	
1.018970e+00	-1.268776e-01	1.225047e+00	4.167235e+01	3.645701e+00	2.540143e+05	1.013201e+05	2.881198e+02	1.003496e-01	-6.970411e-03	0.000000e+00	
1.000000e+00	-1.221726e-01	1.225047e+00	4.167231e+01	3.645701e+00	2.540144e+05	1.013201e+05	2.881198e+02	1.003495e-01	-6.968389e-03	0.000000e+00	
1.026476e+00	-1.421007e-01	1.225047e+00	4.167242e+01	3.645709e+00	2.540144e+05	1.013201e+05	2.881198e+02	1.003498e-01	-6.969572e-03	0.000000e+00	
1.012368e+00	-1.123136e-01	1.225047e+00	4.167223e+01	3.645694e+00	2.540143e+05	1.013201e+05	2.881198e+02	1.003493e-01	-6.969811e-03	0.000000e+00	
1.034701e+00	-1.276898e-01	1.225047e+00	4.167237e+01	3.645701e+00	2.540143e+05	1.013201e+05	2.881198e+02	1.003496e-01	-6.969864e-03	0.000000e+00	
1.000000e+00	-1.047193e-01	1.225047e+00	4.167212e+01	3.645683e+00	2.540143e+05	1.013201e+05	2.881198e+02	1.003490e-01	-6.970333e-03	0.000000e+00	
1.026854e+00	-1.130035e-01	1.225047e+00	4.167224e+01	3.645692e+00	2.540143e+05	1.013201e+05	2.881198e+02	1.003493e-01	-6.968999e-03	0.000000e+00	
1.042579e+00	-1.422605e-01	1.225047e+00	4.167242e+01	3.645702e+00	2.540144e+05	1.013201e+05	2.881198e+02	1.003497e-01	-6.969990e-03	0.000000e+00	
1.015439e+00	-9.661367e-02	1.225047e+00	4.167204e+01	3.645677e+00	2.540143e+05	1.013201e+05	2.881198e+02	1.003488e-01	-6.969804e-03	0.000000e+00	
1.051319e+00	-1.278898e-01	1.225047e+00	4.167237e+01	3.645701e+00	2.540144e+05	1.013201e+05	2.881198e+02	1.003496e-01	-6.969562e-03	0.000000e+00	
1.043335e+00	-1.133361e-01	1.225047e+00	4.167226e+01	3.645694e+00	2.540143e+05	1.013201e+05	2.881198e+02	1.003494e-01	-6.970199e-03	0.000000e+00	
1.000000e+00	-8.726611e-02	1.225047e+00	4.167188e+01	3.645661e+00	2.540143e+05	1.013201e+05	2.881198e+02	1.003485e-01	-6.969202e-03	0.000000e+00	
1.035303e+00	-9.881190e-02	1.225047e+00	4.167209e+01	3.645682e+00	2.540143e+05	1.013201e+05	2.881198e+02	1.003489e-01	-6.969786e-03	0.000000e+00	
1.059523e+00	-1.423651e-01	1.225047e+00	4.167242e+01	3.645701e+00	2.540144e+05	1.013201e+05	2.881198e+02	1.003497e-01	-6.969538e-03	0.000000e+00	
1.013933e+00	-7.882552e-02	1.225047e+00	4.167177e+01	3.645652e+00	2.540143e+05	1.013201e+05	2.881198e+02	1.003482e-01	-6.970239e-03	0.000000e+00	
1.028032e+00	-8.528299e-02	1.225047e+00	4.167189e+01	3.645664e+00	2.540143e+05	1.013201e+05	2.881198e+02	1.003485e-01	-6.970281e-03	0.000000e+00	
1.068100e+00	-1.280277e-01	1.225047e+00	4.167238e+01	3.645700e+00	2.540144e+05	1.013201e+05	2.881198e+02	1.003496e-01	-6.969740e-03	0.000000e+00	
1.059882e+00	-1.134842e-01	1.225047e+00	4.167227e+01	3.645694e+00	2.540143e+05	1.013201e+05	2.881198e+02	1.003494e-01	-6.969447e-03	0.000000e+00	
1.051672e+00	-9.885162e-02	1.225047e+00	4.167210e+01	3.645680e+00	2.540143e+05	1.013201e+05	2.881198e+02	1.003490e-01	-6.969817e-03	0.000000e+00	
1.000000e+00	-6.981289e-02	1.225047e+00	4.167162e+01	3.645641e+00	2.540143e+05	1.013201e+05	2.881198e+02	1.003478e-01	-6.970497e-03	0.000000e+00	
1.043368e+00	-8.411340e-02	1.225047e+00	4.167190e+01	3.645664e+00	2.540143e+05	1.013201e+05	2.881198e+02	1.003485e-01	-6.969372e-03	0.000000e+00	
1.076417e+00	-1.424759e-01	1.225047e+00	4.167242e+01	3.645702e+00	2.540144e+05	1.013201e+05	2.881198e+02	1.003497e-01	-6.969583e-03	0.000000e+00	
1.013673e+00	-6.088787e-02	1.225047e+00	4.167151e+01	3.645629e+00	2.540143e+05	1.013201e+05	2.881198e+02	1.003476e-01	-6.969328e-03	0.000000e+00	
1.032857e+00	-6.994055e-02	1.225047e+00	4.167167e+01	3.645641e+00	2.540143e+05	1.013201e+05	2.881198e+02	1.003479e-01	-6.969751e-03	0.000000e+00	
1.084951e+00	-1.281647e-01	1.225047e+00	4.167238e+01	3.645700e+00	2.540144e+05	1.013201e+05	2.881198e+02	1.003497e-01	-6.969510e-03	0.000000e+00	
1.076619e+00	-1.136571e-01	1.225047e+00	4.167228e+01	3.645694e+00	2.540143e+05	1.013201e+05	2.881198e+02	1.003494e-01	-6.969611e-03	0.000000e+00	
1.068278e+00	-9.906484e-02	1.225047e+00	4.167212e+01	3.645682e+00	2.540143e+05	1.013201e+05	2.881198e+02	1.003490e-01	-6.969644e-03	0.000000e+00	
1.059817e+00	-8.443580e-02	1.225047e+00	4.167192e+01	3.645666e+00	2.540143e+05	1.013201e+05	2.881198e+02	1.003485e-01	-6.969504e-03	0.000000e+00	
1.000000e+00	-5.235967e-02	1.225047e+00	4.167138e+01	3.645616e+00	2.540143e+05	1.013201e+05	2.881198e+02	1.003472e-01	-6.971953e-03	0.000000e+00	
1.050891e+00	-7.005595e-02	1.225047e+00	4.167169e+01	3.645647e+00	2.540143e+05	1.013201e+05	2.881198e+02	1.003480e-01	-6.969714e-03	0.000000e+00	
1.093322e+00	-1.425907e-01	1.225047e+00	4.167242e+01	3.645702e+00	2.540144e+05	1.013201e+05	2.881198e+02	1.003497e-01	-6.969546e-03	0.000000e+00	
1.014650e+00	-4.314474e-02	1.225047e+00	4.167129e+01	3.645609e+00	2.540143e+05	1.013201e+05	2.881198e+02	1.003470e-01	-6.969499e-03	0.000000e+00	
1.028004e+00	-5.448482e-02	1.225047e+00	4.167144e+01	3.645623e+00	2.540143e+05	1.013201e+05	2.881198e+02	1.003474e-01	-6.968953e-03	0.000000e+00	
1.043474e+00	-5.582250e-02	1.225047e+00	4.167147e+01	3.645625e+00	2.540143e+05	1.013201e+05	2.881198e+02	1.003475e-01	-6.970222e-03	0.000000e+00	
1.101838e+00	-1.282931e-01	1.225047e+00	4.167239e+01	3.645700e+00	2.540144e+05	1.013201e+05	2.881198e+02	1.003497e-01	-6.969529e-03	0.000000e+00	
1.093469e+00	-1.138290e-01	1.225047e+00	4.167229e+01	3.645694e+00	2.540143e+05	1.013201e+05	2.881198e+02	1.003494e-01	-6.969516e-03	0.000000e+00	
1.085088e+00	-9.930077e-02	1.225047e+00	4.167214e+01	3.645683e+00	2.540143e+05	1.013201e+05	2.881198e+02	1.003491e-01	-6.969554e-03	0.000000e+00	
1.076647e+00	-8.474365e-02	1.225047e+00	4.167194e+01	3.645667e+00	2.540143e+05	1.013201e+05	2.881198e+02	1.003486e-01	-6.969561e-03	0.000000e+00	
1.068126e+00	-7.026442e-02	1.225047e+00	4.167172e+01	3.645649e+00	2.540143e+05	1.013201e+05	2.881198e+02	1.003481e-01	-6.969577e-03	0.000000e+00	
1.000000e+00	-3.490644e-02	1.225047e+00	4.167120e+01	3.645597e+00	2.540143e+05	1.013201e+05	2.881198e+02	1.003468e-01	-6.970092e-03	0.000000e+00	
1.059952e+00	-5.588799e-02	1.225047e+00	4.167150e+01	3.645628e+00	2.540143e+05	1.013201e+05	2.881198e+02	1.003475e-01	-6.969686e-03	0.000000e+00	
1.110231e+00	-1.426976e-01	1.225047e+00	4.167242e+01	3.645702e+00	2.540144e+05	1.013201e+05	2.881198e+02	1.003497e-01	-6.969462e-03	0.000000e+00	
1.010445e+00	-2.642463e-02	1.225047e+00	4.167113e+01	3.645594e+00	2.540143e+05	1.013201e+05	2.881198e+02	1.003467e-01	-6.970177e-03	0.000000e+00	
1.035496e+00	-4.100544e-02	1.225047e+00	4.167129e+01	3.645609e+00	2.540143e+05	1.013201e+05	2.881198e+02	1.003470e-01	-6.970111e-03	0.000000e+00	
1.051950e+00	-4.133848e-02	1.225047e+00	4.167131e+01	3.645609e+00	2.540143e+05	1.013201e+05	2.881198e+02	1.003471e-01	-6.969449e-03	0.000000e+00	
1.118728e+00	-1.284011e-01	1.225047e+00	4.167239e+01	3.645700e+00	2.540144e+05	1.013201e+05	2.881198e+02	1.003497e-01	-6.969467e-03	0.000000e+00	
1.110352e+00	-1.139735e-01	1.225047e+00	4.167231e+01	3.645694e+00	2.540143e+05	1.013201e+05	2.881198e+02	1.003495e-01	-6.969494e-03	0.000000e+00	
1.101975e+00	-9.949970e-02	1.225047e+00	4.167216e+01	3.645684e+00	2.540143e+05	1.013201e+05	2.881198e+02	1.003491e-01	-6.969511e-03	0.000000e+00	
1.093570e+00	-8.499387e-02	1.225047e+00	4.167197e+01	3.645669e+00	2.540143e+05	1.013201e+05	2.881198e+02	1.003487e-01	-6.969518e-03	0.000000e+00	
1.085137e+00	-7.049748e-02	1.225047e+00	4.167175e+01	3.645651e+00	2.540143e+05	1.013201e+05	2.881198e+02	1.003481e-01	-6.969550e-03	0.000000e+00	
1.076790e+00	-5.603718e-02	1.225047e+00	4.167152e+01	3.645631e+00	2.540143e+05	1.013201e+05	2.881198e+02	1.003476e-01	-6.969602e-03	0.000000e+00	
1.000000e+00	-1.745322e-02	1.225047e+00	4.167109e+01	3.645587e+00	2.540143e+05	1.013201e+05	2.881198e+02	1.003465e-01	-6.971763e-03	0.000000e+00	
1.026338e+00	-2.647573e-02	1.225047e+00	4.167115e+01	3.645593e+00	2.540143e+05	1.013201e+05	2.881198e+02	1.003467e-01	-6.969935e-03	0.000000e+00	
1.068582e+00	-4.155191e-02	1.225047e+00	4.167133e+01	3.645611e+00	2.540143e+05	1.013201e+05	2.881198e+02	1.003471e-01	-6.969626e-03	0.000000e+00	
1.127134e+00	-1.427913e-01	1.225047e+00	4.167242e+01	3.645702e+00	2.540144e+05	1.013201e+05	2.881198e+02	1.003497e-01	-6.969482e-03	0.000000e+00	
1.014441e+00	-9.952365e-03	1.225047e+00	4.167108e+01	3.645585e+00	2.540143e+05	1.013201e+05	2.881198e+02	1.003465e-01	-6.969276e-03	0.000000e+00	
1.043784e+00	-2.681830e-02	1.225047e+00	4.167117e+01	3.645595e+00	2.540143e+05	1.013201e+05	2.881198e+02	1.003467e-01	-6.969496e-03	0.000000e+00	
1.060405e+00	-2.705190e-02	1.225047e+00	4.167118e+01	3.645597e+00	2.540143e+05	1.013201e+05	2.881198e+02	1.003468e-01	-6.969780e-03	0.000000e+00	
1.135605e+00	-1.284854e-01	1.225047e+00	4.167240e+01	3.645700e+00	2.540144e+05	1.013201e+05	2.881198e+02	1.003497e-01	-6.969459e-03	0.000000e+00	
1.127223e+00	-1.140841e-01	1.225047e+00	4.167232e+01	3.645695e+00	2.540143e+05	1.013201e+05	2.881198e+02	1.003495e-01	-6.969469e-03	0.000000e+00	
1.118861e+00	-9.965190e-02	1.225047e+00	4.167218e+01	3.645685e+00	2.540143e+05	1.013201e+05	2.881198e+02	1.003492e-01	-6.969482e-03	0.000000e+00	
1.110492e+00	-8.518955e-02	1.225047e+00	4.167199e+01	3.645670e+00	2.540143e+05	1.013201e+05	2.881198e+02	1.003487e-01	-6.969492e-03	0.000000e+00	
1.102107e+00	-7.071132e-02	1.225047e+00	4.167177e+01	3.645652e+00	2.540143e+05	1.013201e+05	2.881198e+02	1.003482e-01	-6.969503e-03	0.000000e+00	
1.093731e+00	-5.623345e-02	1.225047e+00	4.167155e+01	3.645633e+00	2.540143e+05	1.013201e+05	2.881198e+02	1.003476e-01	-6.969524e-03	0.000000e+00	
1.085406e+00	-4.175038e-02	1.225047e+00	4.167135e+01	3.645614e+00	2.540143e+05	1.013201e+05	2.881198e+02	1.003472e-01	-6.969522e-03	0.000000e+00	
1.000000e+00	0.000000e+00	1.225047e+00	4.167107e+01	3.645581e+00	2.540143e+05	1.013201e+05	2.881198e+02	1.003465e-01	-6.972193e-03	0.000000e+00	
1.035738e+00	-1.262645e-02	1.225047e+00	4.167109e+01	3.645587e+00	2.540143e+05	1.013201e+05	2.881198e+02	1.003465e-01	-6.969505e-03	0.000000e+00	
1.077131e+00	-2.726011e-02	1.225047e+00	4.167120e+01	3.645598e+00	2.540143e+05	1.013201e+05	2.881198e+02	1.003468e-01	-6.969540e-03	0.000000e+00	
1.144032e+00	-1.428739e-01	1.225047e+00	4.167242e+01	3.645701e+00	2.540144e+05	1.013201e+05	2.881198e+02	1.003497e-01	-6.969455e-03	0.000000e+00	
1.014074e+00	8.119628e-03	1.225047e+00	4.167108e+01	3.645585e+00	2.540143e+05	1.013201e+05	2.881198e+02	1.003465e-01	-6.968966e-03	0.000000e+00	
1.027706e+00	1.912620e-03	1.225047e+00	4.167107e+01	3.645585e+00	2.540143e+05	1.013201e+05	2.881198e+02	1.003465e-01	-6.969630e-03	0.000000e+00	
1.052160e+00	-1.269779e-02	1.225047e+00	4.167109e+01	3.645589e+00	2.540143e+05	1.013201e+05	2.881198e+02	1.003466e-01	-6.969841e-03	0.000000e+00	
1.068885e+00	-1.280662e-02	1.225047e+00	4.167110e+01	3.645589e+00	2.540143e+05	1.013201e+05	2.881198e+02	1.003466e-01	-6.969510e-03	0.000000e+00	
1.152467e+00	-1.285544e-01	1.225047e+00	4.167240e+01	3.645700e+00	2.540144e+05	1.013201e+05	2.881198e+02	1.003497e-01	-6.969448e-03	0.000000e+00	
1.144068e+00	-1.141707e-01	1.225047e+00	4.167232e+01	3.645695e+00	2.540143e+05	1.013201e+05	2.881198e+02	1.003495e-01	-6.969462e-03	0.000000e+00	
1.135708e+00	-9.976999e-02	1.225047e+00	4.167219e+01	3.645685e+00	2.540143e+05	1.013201e+05	2.881198e+02	1.003492e-01	-6.969461e-03	0.000000e+00	
1.127367e+00	-8.534437e-02	1.225047e+00	4.167201e+01	3.645671e+00	2.540143e+05	1.013201e+05	2.881198e+02	1.003488e-01	-6.969468e-03	0.000000e+00	
1.119025e+00	-7.089496e-02	1.225047e+00	4.167179e+01	3.645654e+00	2.540143e+05	1.013201e+05	2.881198e+02	1.003482e-01	-6.969477e-03	0.000000e+00	
1.110675e+00	-5.642977e-02	1.225047e+00	4.167157e+01	3.645635e+00	2.540143e+05	1.013201e+05	2.881198e+02	1.003477e-01	-6.969491e-03	0.000000e+00	
1.102326e+00	-4.195453e-02	1.225047e+00	4.167137e+01	3.645616e+00	2.540143e+05	1.013201e+05	2.881198e+02	1.003472e-01	-6.969507e-03	0.000000e+00	
1.093989e+00	-2.747444e-02	1.225047e+00	4.167121e+01	3.645600e+00	2.540143e+05	1.013201e+05	2.881198e+02	1.003468e-01	-6.969545e-03	0.000000e+00	
1.000000e+00	1.745322e-02	1.225047e+00	4.167113e+01	3.645586e+00	2.540143e+05	1.013201e+05	2.881198e+02	1.003466e-01	-6.971218e-03	0.000000e+00	
1.043709e+00	1.310728e-03	1.225047e+00	4.167107e+01	3.645585e+00	2.540143e+05	1.013201e+05	2.881198e+02	1.003465e-01	-6.970165e-03	0.000000e+00	
1.085672e+00	-1.300790e-02	1.225047e+00	4.167111e+01	3.645589e+00	2.540143e+05	1.013201e+05	2.881198e+02	1.003466e-01	-6.969564e-03	0.000000e+00	
1.160927e+00	-1.429478e-01	1.225047e+00	4.167242e+01	3.645700e+00	2.540144e+05	1.013201e+05	2.881198e+02	1.003497e-01	-6.969476e-03	0.000000e+00	
1.014315e+00	2.573809e-02	1.225047e+00	4.167117e+01	3.645592e+00	2.540143e+05	1.013201e+05	2.881198e+02	1.003467e-01	-6.969968e-03	0.000000e+00	
1.030507e+00	1.629142e-02	1.225047e+00	4.167112e+01	3.645587e+00	2.540143e+05	1.013201e+05	2.881198e+02	1.003466e-01	-6.970179e-03	0.000000e+00	
1.060707e+00	1.583138e-03	1.225047e+00	4.167107e+01	3.645584e+00	2.540143e+05	1.013201e+05	2.881198e+02	1.003465e-01	-6.969501e-03	0.000000e+00	
1.077388e+00	1.424886e-03	1.225047e+00	4.167107e+01	3.645585e+00	2.540143e+05	1.013201e+05	2.881198e+02	1.003465e-01	-6.969672e-03	0.000000e+00	
1.169324e+00	-1.286142e-01	1.225047e+00	4.167240e+01	3.645700e+00	2.540144e+05	1.013201e+05	2.881198e+02	1.003497e-01	-6.969463e-03	0.000000e+00	
1.160895e+00	-1.142422e-01	1.225047e+00	4.167233e+01	3.645696e+00	2.540143e+05	1.013201e+05	2.881198e+02	1.003495e-01	-6.969473e-03	0.000000e+00	
1.152521e+00	-9.986579e-02	1.225047e+00	4.167220e+01	3.645686e+00	2.540143e+05	1.013201e+05	2.881198e+02	1.003492e-01	-6.969465e-03	0.000000e+00	
1.144187e+00	-8.547067e-02	1.225047e+00	4.167203e+01	3.645672e+00	2.540143e+05	1.013201e+05	2.881198e+02	1.003488e-01	-6.969466e-03	0.000000e+00	
1.135875e+00	-7.104989e-02	1.225047e+00	4.167182e+01	3.645655e+00	2.540143e+05	1.013201e+05	2.881198e+02	1.003483e-01	-6.969466e-03	0.000000e+00	
1.127567e+00	-5.660605e-02	1.225047e+00	4.167160e+01	3.645636e+00	2.540143e+05	1.013201e+05	2.881198e+02	1.003478e-01	-6.969469e-03	0.000000e+00	
1.119248e+00	-4.214609e-02	1.225047e+00	4.167139e+01	3.645618e+00	2.540143e+05	1.013201e+05	2.881198e+02	1.003473e-01	-6.969474e-03	0.000000e+00	
1.110916e+00	-2.767848e-02	1.225047e+00	4.167123e+01	3.645602e+00	2.540143e+05	1.013201e+05	2.881198e+02	1.003469e-01	-6.969481e-03	0.000000e+00	
1.102575e+00	-1.321658e-02	1.225047e+00	4.167112e+01	3.645590e+00	2.540143e+05	1.013201e+05	2.881198e+02	1.003466e-01	-6.969489e-03	0.000000e+00	
1.000000e+00	3.490644e-02	1.225047e+00	4.167126e+01	3.645599e+00	2.540143e+05	1.013201e+05	2.881198e+02	1.003470e-01	-6.970958e-03	0.000000e+00	
1.052701e+00	1.605186e-02	1.225047e+00	4.167111e+01	3.645586e+00	2.540143e+05	1.013201e+05	2.881198e+02	1.003466e-01	-6.969222e-03	0.000000e+00	
1.094242e+00	1.222810e-03	1.225047e+00	4.167108e+01	3.645585e+00	2.540143e+05	1.013201e+05	2.881198e+02	1.003465e-01	-6.969493e-03	0.000000e+00	
1.177823e+00	-1.430150e-01	1.225047e+00	4.167241e+01	3.645700e+00	2.540144e+05	1.013201e+05	2.881198e+02	1.003497e-01	-6.969502e-03	0.000000e+00	
1.027608e+00	3.198390e-02	1.225047e+00	4.167122e+01	3.645593e+00	2.540143e+05	1.013201e+05	2.881198e+02	1.003468e-01	-6.969391e-03	0.000000e+00	
1.015285e+00	4.370488e-02	1.225047e+00	4.167133e+01	3.645606e+00	2.540143e+05	1.013201e+05	2.881198e+02	1.003471e-01	-6.969642e-03	0.000000e+00	
1.044228e+00	3.154133e-02	1.225047e+00	4.167120e+01	3.645594e+00	2.540143e+05	1.013201e+05	2.881198e+02	1.003468e-01	-6.969619e-03	0.000000e+00	
1.069135e+00	1.585173e-02	1.225047e+00	4.167110e+01	3.645586e+00	2.540143e+05	1.013201e+05	2.881198e+02	1.003466e-01	-6.969647e-03	0.000000e+00	
1.085937e+00	1.563891e-02	1.225047e+00	4.167109e+01	3.645585e+00	2.540143e+05	1.013201e+05	2.881198e+02	1.003466e-01	-6.969492e-03	0.000000e+00	
1.186183e+00	-1.286678e-01	1.225047e+00	4.167241e+01	3.645700e+00	2.540144e+05	1.013201e+05	2.881198e+02	1.003497e-01	-6.969484e-03	0.000000e+00	
1.177719e+00	-1.143044e-01	1.225047e+00	4.167234e+01	3.645696e+00	2.540143e+05	1.013201e+05	2.881198e+02	1.003496e-01	-6.969487e-03	0.000000e+00	
1.169317e+00	-9.994812e-02	1.225047e+00	4.167222e+01	3.645687e+00	2.540143e+05	1.013201e+05	2.881198e+02	1.003493e-01	-6.969468e-03	0.000000e+00	
1.160973e+00	-8.557884e-02	1.225047e+00	4.167205e+01	3.645674e+00	2.540143e+05	1.013201e+05	2.881198e+02	1.003488e-01	-6.969464e-03	0.000000e+00	
1.152672e+00	-7.118351e-02	1.225047e+00	4.167184e+01	3.645657e+00	2.540143e+05	1.013201e+05	2.881198e+02	1.003483e-01	-6.969458e-03	0.000000e+00	
1.144394e+00	-5.676071e-02	1.225047e+00	4.167162e+01	3.645638e+00	2.540143e+05	1.013201e+05	2.881198e+02	1.003478e-01	-6.969460e-03	0.000000e+00	
1.136118e+00	-4.231681e-02	1.225047e+00	4.167142e+01	3.645619e+00	2.540143e+05	1.013201e+05	2.881198e+02	1.003473e-01	-6.969463e-03	0.000000e+00	
1.127828e+00	-2.786122e-02	1.225047e+00	4.167125e+01	3.645603e+00	2.540143e+05	1.013201e+05	2.881198e+02	1.003469e-01	-6.969473e-03	0.000000e+00	
1.119517e+00	-1.340563e-02	1.225047e+00	4.167113e+01	3.645591e+00	2.540143e+05	1.013201e+05	2.881198e+02	1.003466e-01	-6.969483e-03	0.000000e+00	
1.111192e+00	1.035927e-03	1.225047e+00	4.167108e+01	3.645585e+00	2.540143e+05	1.013201e+05	2.881198e+02	1.003465e-01	-6.969509e-03	0.000000e+00	
1.000000e+00	5.235967e-02	1.225047e+00	4.167143e+01	3.645615e+00	2.540143e+05	1.013201e+05	2.881198e+02	1.003474e-01	-6.970804e-03	0.000000e+00	
1.061054e+00	3.046574e-02	1.225047e+00	4.167118e+01	3.645594e+00	2.540143e+05	1.013201e+05	2.881198e+02	1.003468e-01	-6.969897e-03	0.000000e+00	
1.102871e+00	1.545395e-02	1.225047e+00	4.167109e+01	3.645585e+00	2.540143e+05	1.013201e+05	2.881198e+02	1.003465e-01	-6.969523e-03	0.000000e+00	
1.194724e+00	-1.430770e-01	1.225047e+00	4.167241e+01	3.645699e+00	2.540144e+05	1.013201e+05	2.881198e+02	1.003497e-01	-6.969533e-03	0.000000e+00	
1.036195e+00	4.558736e-02	1.225047e+00	4.167133e+01	3.645607e+00	2.540143e+05	1.013201e+05	2.881198e+02	1.003471e-01	-6.969632e-03	0.000000e+00	
1.011927e+00	5.964494e-02	1.225047e+00	4.167150e+01	3.645622e+00	2.540143e+05	1.013201e+05	2.881198e+02	1.003475e-01	-6.969501e-03	0.000000e+00	
1.052713e+00	4.509363e-02	1.225047e+00	4.167131e+01	3.645605e+00	2.540143e+05	1.013201e+05	2.881198e+02	1.003471e-01	-6.969960e-03	0.000000e+00	
1.077712e+00	3.008236e-02	1.225047e+00	4.167117e+01	3.645592e+00	2.540143e+05	1.013201e+05	2.881198e+02	1.003467e-01	-6.969483e-03	0.000000e+00	
1.094578e+00	2.985866e-02	1.225047e+00	4.167116e+01	3.645591e+00	2.540143e+05	1.013201e+05	2.881198e+02	1.003467e-01	-6.969565e-03	0.000000e+00	
1.194551e+00	-1.143616e-01	1.225047e+00	4.167235e+01	3.645696e+00	2.540143e+05	1.013201e+05	2.881198e+02	1.003496e-01	-6.969536e-03	0.000000e+00	
1.203051e+00	-1.287179e-01	1.225047e+00	4.167241e+01	3.645700e+00	2.540144e+05	1.013201e+05	2.881198e+02	1.003497e-01	-6.969541e-03	0.000000e+00	
1.186115e+00	-1.000231e-01	1.225047e+00	4.167223e+01	3.645688e+00	2.540143e+05	1.013201e+05	2.881198e+02	1.003493e-01	-6.969513e-03	0.000000e+00	
1.177748e+00	-8.567686e-02	1.225047e+00	4.167206e+01	3.645675e+00	2.540143e+05	1.013201e+05	2.881198e+02	1.003489e-01	-6.969502e-03	0.000000e+00	
1.169440e+00	-7.130405e-02	1.225047e+00	4.167186e+01	3.645658e+00	2.540143e+05	1.013201e+05	2.881198e+02	1.003484e-01	-6.969487e-03	0.000000e+00	
1.161176e+00	-5.689984e-02	1.225047e+00	4.167164e+01	3.645640e+00	2.540143e+05	1.013201e+05	2.881198e+02	1.003479e-01	-6.969477e-03	0.000000e+00	
1.152931e+00	-4.246981e-02	1.225047e+00	4.167144e+01	3.645621e+00	2.540143e+05	1.013201e+05	2.881198e+02	1.003474e-01	-6.969468e-03	0.000000e+00	
1.144685e+00	-2.802386e-02	1.225047e+00	4.167126e+01	3.645605e+00	2.540143e+05	1.013201e+05	2.881198e+02	1.003470e-01	-6.969462e-03	0.000000e+00	
1.136424e+00	-1.357308e-02	1.225047e+00	4.167114e+01	3.645592e+00	2.540143e+05	1.013201e+05	2.881198e+02	1.003467e-01	-6.969458e-03	0.000000e+00	
1.128142e+00	8.704357e-04	1.225047e+00	4.167108e+01	3.645585e+00	2.540143e+05	1.013201e+05	2.881198e+02	1.003465e-01	-6.969457e-03	0.000000e+00	
1.119845e+00	1.529522e-02	1.225047e+00	4.167109e+01	3.645585e+00	2.540143e+05	1.013201e+05	2.881198e+02	1.003465e-01	-6.969457e-03	0.000000e+00	
1.027740e+00	5.989876e-02	1.225047e+00	4.167148e+01	3.645622e+00	2.540143e+05	1.013201e+05	2.881198e+02	1.003475e-01	-6.969697e-03	0.000000e+00	
1.000000e+00	6.981289e-02	1.225047e+00	4.167163e+01	3.645634e+00	2.540143e+05	1.013201e+05	2.881198e+02	1.003478e-01	-6.970249e-03	0.000000e+00	
1.069459e+00	4.458686e-02	1.225047e+00	4.167129e+01	3.645603e+00	2.540143e+05	1.013201e+05	2.881198e+02	1.003470e-01	-6.969402e-03	0.000000e+00	
1.111545e+00	2.969648e-02	1.225047e+00	4.167115e+01	3.645590e+00	2.540143e+05	1.013201e+05	2.881198e+02	1.003467e-01	-6.969461e-03	0.000000e+00	
1.211630e+00	-1.431348e-01	1.225047e+00	4.167241e+01	3.645698e+00	2.540144e+05	1.013201e+05	2.881198e+02	1.003497e-01	-6.969562e-03	0.000000e+00	
1.044436e+00	5.959851e-02	1.225047e+00	4.167147e+01	3.645619e+00	2.540143e+05	1.013201e+05	2.881198e+02	1.003474e-01	-6.969912e-03	0.000000e+00	
1.019352e+00	7.384280e-02	1.225047e+00	4.167165e+01	3.645637e+00	2.540143e+05	1.013201e+05	2.881198e+02	1.003479e-01	-6.969578e-03	0.000000e+00	
1.061100e+00	5.912945e-02	1.225047e+00	4.167144e+01	3.645616e+00	2.540143e+05	1.013201e+05	2.881198e+02	1.003474e-01	-6.969547e-03	0.000000e+00	
1.086291e+00	4.427760e-02	1.225047e+00	4.167127e+01	3.645601e+00	2.540143e+05	1.013201e+05	2.881198e+02	1.003470e-01	-6.969601e-03	0.000000e+00	
1.103236e+00	4.408114e-02	1.225047e+00	4.167126e+01	3.645599e+00	2.540143e+05	1.013201e+05	2.881198e+02	1.003469e-01	-6.969449e-03	0.000000e+00	
1.202924e+00	-1.000976e-01	1.225047e+00	4.167224e+01	3.645688e+00	2.540143e+05	1.013201e+05	2.881198e+02	1.003493e-01	-6.969528e-03	0.000000e+00	
1.211392e+00	-1.144193e-01	1.225047e+00	4.167236e+01	3.645696e+00	2.540143e+05	1.013201e+05	2.881198e+02	1.003496e-01	-6.969562e-03	0.000000e+00	
1.219924e+00	-1.287690e-01	1.225047e+00	4.167241e+01	3.645700e+00	2.540144e+05	1.013201e+05	2.881198e+02	1.003497e-01	-6.969587e-03	0.000000e+00	
1.194528e+00	-8.577281e-02	1.225047e+00	4.167208e+01	3.645676e+00	2.540143e+05	1.013201e+05	2.881198e+02	1.003489e-01	-6.969508e-03	0.000000e+00	
1.186203e+00	-7.142070e-02	1.225047e+00	4.167188e+01	3.645660e+00	2.540143e+05	1.013201e+05	2.881198e+02	1.003484e-01	-6.969488e-03	0.000000e+00	
1.177937e+00	-5.703307e-02	1.225047e+00	4.167167e+01	3.645641e+00	2.540143e+05	1.013201e+05	2.881198e+02	1.003479e-01	-6.969477e-03	0.000000e+00	
1.169706e+00	-4.261472e-02	1.225047e+00	4.167146e+01	3.645623e+00	2.540143e+05	1.013201e+05	2.881198e+02	1.003474e-01	-6.969470e-03	0.000000e+00	
1.161490e+00	-2.817607e-02	1.225047e+00	4.167128e+01	3.645606e+00	2.540143e+05	1.013201e+05	2.881198e+02	1.003470e-01	-6.969468e-03	0.000000e+00	
1.153271e+00	-1.372845e-02	1.225047e+00	4.167115e+01	3.645593e+00	2.540143e+05	1.013201e+05	2.881198e+02	1.003467e-01	-6.969469e-03	0.000000e+00	
1.145037e+00	7.169992e-04	1.225047e+00	4.167109e+01	3.645586e+00	2.540143e+05	1.013201e+05	2.881198e+02	1.003465e-01	-6.969474e-03	0.000000e+00	
1.136783e+00	1.514892e-02	1.225047e+00	4.167108e+01	3.645584e+00	2.540143e+05	1.013201e+05	2.881198e+02	1.003465e-01	-6.969481e-03	0.000000e+00	
1.128508e+00	2.955701e-02	1.225047e+00	4.167114e+01	3.645588e+00	2.540143e+05	1.013201e+05	2.881198e+02	1.003467e-01	-6.969491e-03	0.000000e+00	
1.035897e+00	7.404332e-02	1.225047e+00	4.167164e+01	3.645635e+00	2.540143e+05	1.013201e+05	2.881198e+02	1.003479e-01	-6.970166e-03	0.000000e+00	
1.011368e+00	8.808310e-02	1.225047e+00	4.167184e+01	3.645652e+00	2.540143e+05	1.013201e+05	2.881198e+02	1.003484e-01	-6.969839e-03	0.000000e+00	
1.077940e+00	5.873183e-02	1.225047e+00	4.167142e+01	3.645615e+00	2.540143e+05	1.013201e+05	2.881198e+02	1.003473e-01	-6.969634e-03	0.000000e+00	
1.120208e+00	4.393512e-02	1.225047e+00	4.167124e+01	3.645598e+00	2.540143e+05	1.013201e+05	2.881198e+02	1.003469e-01	-6.969503e-03	0.000000e+00	
1.228538e+00	-1.431918e-01	1.225047e+00	4.167240e+01	3.645698e+00	2.540144e+05	1.013201e+05	2.881198e+02	1.003497e-01	-6.969645e-03	0.000000e+00	
1.052629e+00	7.369490e-02	1.225047e+00	4.167162e+01	3.645632e+00	2.540143e+05	1.013201e+05	2.881198e+02	1.003478e-01	-6.969444e-03	0.000000e+00	
1.000000e+00	8.726611e-02	1.225047e+00	4.167185e+01	3.645654e+00	2.540143e+05	1.013201e+05	2.881198e+02	1.003484e-01	-6.969497e-03	0.000000e+00	
1.027680e+00	8.856478e-02	1.225047e+00	4.167183e+01	3.645649e+00	2.540143e+05	1.013201e+05	2.881198e+02	1.003483e-01	-6.969890e-03	0.000000e+00	
1.069484e+00	7.322812e-02	1.225047e+00	4.167160e+01	3.645630e+00	2.540143e+05	1.013201e+05	2.881198e+02	1.003478e-01	-6.969681e-03	0.000000e+00	
1.094886e+00	5.846360e-02	1.225047e+00	4.167140e+01	3.645612e+00	2.540143e+05	1.013201e+05	2.881198e+02	1.003473e-01	-6.969478e-03	0.000000e+00	
1.111864e+00	5.828335e-02	1.225047e+00	4.167139e+01	3.645610e+00	2.540143e+05	1.013201e+05	2.881198e+02	1.003473e-01	-6.969514e-03	0.000000e+00	
1.211309e+00	-8.587804e-02	1.225047e+00	4.167210e+01	3.645677e+00	2.540143e+05	1.013201e+05	2.881198e+02	1.003490e-01	-6.969610e-03	0.000000e+00	
1.219733e+00	-1.001821e-01	1.225047e+00	4.167226e+01	3.645689e+00	2.540143e+05	1.013201e+05	2.881198e+02	1.003493e-01	-6.969635e-03	0.000000e+00	
1.228230e+00	-1.144876e-01	1.225047e+00	4.167236e+01	3.645697e+00	2.540143e+05	1.013201e+05	2.881198e+02	1.003496e-01	-6.969664e-03	0.000000e+00	
1.236787e+00	-1.288303e-01	1.225047e+00	4.167241e+01	3.645699e+00	2.540144e+05	1.013201e+05	2.881198e+02	1.003497e-01	-6.969679e-03	0.000000e+00	
1.202964e+00	-7.154574e-02	1.225047e+00	4.167190e+01	3.645661e+00	2.540143e+05	1.013201e+05	2.881198e+02	1.003485e-01	-6.969582e-03	0.000000e+00	
1.194686e+00	-5.717370e-02	1.225047e+00	4.167169e+01	3.645643e+00	2.540143e+05	1.013201e+05	2.881198e+02	1.003480e-01	-6.969556e-03	0.000000e+00	
1.186457e+00	-4.276583e-02	1.225047e+00	4.167148e+01	3.645624e+00	2.540143e+05	1.013201e+05	2.881198e+02	1.003475e-01	-6.969530e-03	0.000000e+00	
1.178255e+00	-2.833321e-02	1.225047e+00	4.167130e+01	3.645607e+00	2.540143e+05	1.013201e+05	2.881198e+02	1.003471e-01	-6.969504e-03	0.000000e+00	
1.170062e+00	-1.388784e-02	1.225047e+00	4.167117e+01	3.645594e+00	2.540143e+05	1.013201e+05	2.881198e+02	1.003467e-01	-6.969480e-03	0.000000e+00	
1.161863e+00	5.591843e-04	1.225047e+00	4.167109e+01	3.645586e+00	2.540143e+05	1.013201e+05	2.881198e+02	1.003466e-01	-6.969458e-03	0.000000e+00	
1.153647e+00	1.499689e-02	1.225047e+00	4.167108e+01	3.645584e+00	2.540143e+05	1.013201e+05	2.881198e+02	1.003465e-01	-6.969439e-03	0.000000e+00	
1.145407e+00	2.941339e-02	1.225047e+00	4.167113e+01	3.645587e+00	2.540143e+05	1.013201e+05	2.881198e+02	1.003466e-01	-6.969425e-03	0.000000e+00	
1.137131e+00	4.379660e-02	1.225047e+00	4.167123e+01	3.645596e+00	2.540143e+05	1.013201e+05	2.881198e+02	1.003469e-01	-6.969413e-03	0.000000e+00	
1.044146e+00	8.834965e-02	1.225047e+00	4.167182e+01	3.645647e+00	2.540143e+05	1.013201e+05	2.881198e+02	1.003483e-01	-6.969711e-03	0.000000e+00	
1.000000e+00	1.047193e-01	1.225047e+00	4.167206e+01	3.645670e+00	2.540143e+05	1.013201e+05	2.881198e+02	1.003489e-01	-6.969806e-03	0.000000e+00	
1.019626e+00	1.032875e-01	1.225047e+00	4.167203e+01	3.645664e+00	2.540143e+05	1.013201e+05	2.881198e+02	1.003488e-01	-6.969782e-03	0.000000e+00	
1.086452e+00	7.285637e-02	1.225047e+00	4.167158e+01	3.645628e+00	2.540143e+05	1.013201e+05	2.881198e+02	1.003477e-01	-6.969461e-03	0.000000e+00	
1.128804e+00	5.813677e-02	1.225047e+00	4.167137e+01	3.645609e+00	2.540143e+05	1.013201e+05	2.881198e+02	1.003472e-01	-6.969414e-03	0.000000e+00	
1.245436e+00	-1.432545e-01	1.225047e+00	4.167240e+01	3.645697e+00	2.540144e+05	1.013201e+05	2.881198e+02	1.003497e-01	-6.969724e-03	0.000000e+00	
1.060946e+00	8.778664e-02	1.225047e+00	4.167179e+01	3.645646e+00	2.540143e+05	1.013201e+05	2.881198e+02	1.003482e-01	-6.969702e-03	0.000000e+00	
1.035844e+00	1.032972e-01	1.225047e+00	4.167201e+01	3.645664e+00	2.540143e+05	1.013201e+05	2.881198e+02	1.003488e-01	-6.969271e-03	0.000000e+00	
1.077930e+00	8.726685e-02	1.225047e+00	4.167177e+01	3.645644e+00	2.540143e+05	1.013201e+05	2.881198e+02	1.003482e-01	-6.969567e-03	0.000000e+00	
1.103448e+00	7.260747e-02	1.225047e+00	4.167156e+01	3.645625e+00	2.540143e+05	1.013201e+05	2.881198e+02	1.003477e-01	-6.969526e-03	0.000000e+00	
1.120403e+00	7.243068e-02	1.225047e+00	4.167154e+01	3.645623e+00	2.540143e+05	1.013201e+05	2.881198e+02	1.003476e-01	-6.969414e-03	0.000000e+00	
1.219705e+00	-7.169482e-02	1.225047e+00	4.167192e+01	3.645662e+00	2.540143e+05	1.013201e+05	2.881198e+02	1.003486e-01	-6.969547e-03	0.000000e+00	
1.228071e+00	-8.600785e-02	1.225047e+00	4.167212e+01	3.645678e+00	2.540143e+05	1.013201e+05	2.881198e+02	1.003490e-01	-6.969586e-03	0.000000e+00	
1.236517e+00	-1.002922e-01	1.225047e+00	4.167227e+01	3.645690e+00	2.540143e+05	1.013201e+05	2.881198e+02	1.003494e-01	-6.969628e-03	0.000000e+00	
1.245035e+00	-1.145823e-01	1.225047e+00	4.167237e+01	3.645697e+00	2.540143e+05	1.013201e+05	2.881198e+02	1.003496e-01	-6.969692e-03	0.000000e+00	
1.253614e+00	-1.289171e-01	1.225047e+00	4.167241e+01	3.645699e+00	2.540144e+05	1.013201e+05	2.881198e+02	1.003497e-01	-6.969730e-03	0.000000e+00	
1.211413e+00	-5.733806e-02	1.225047e+00	4.167171e+01	3.645645e+00	2.540143e+05	1.013201e+05	2.881198e+02	1.003480e-01	-6.969522e-03	0.000000e+00	
1.203178e+00	-4.294046e-02	1.225047e+00	4.167150e+01	3.645626e+00	2.540143e+05	1.013201e+05	2.881198e+02	1.003475e-01	-6.969505e-03	0.000000e+00	
1.194979e+00	-2.851364e-02	1.225047e+00	4.167132e+01	3.645609e+00	2.540143e+05	1.013201e+05	2.881198e+02	1.003471e-01	-6.969498e-03	0.000000e+00	