TITLE = "Visualization of the volumetric solution"
VARIABLES = "x","y","Density","Momentum_x","Momentum_y","Energy","Pressure","Temperature","Mach","C<sub>p</sub>","Roe_Dissipation"
ZONE NODES= 1355, ELEMENTS= 2554, DATAPACKING=POINT, ZONETYPE=FEQUADRILATERAL
9.231839e-03	-1.405464e-01	1.225084e+00	4.168064e+01	3.626970e-01	2.540206e+05	1.013246e+05	2.881239e+02	9.998764e-02	-5.598136e-04	0.000000e+00	
0.000000e+00	-1.396258e-01	1.225104e+00	4.167841e+01	2.715756e-02	2.540247e+05	1.013263e+05	2.881240e+02	9.997689e-02	1.816161e-03	0.000000e+00	
0.000000e+00	-1.221726e-01	1.225081e+00	4.167074e+01	3.291936e-02	2.540198e+05	1.013244e+05	2.881242e+02	9.996038e-02	-8.054720e-04	0.000000e+00	
1.708985e-02	-1.254510e-01	1.225101e+00	4.167382e+01	6.011567e-01	2.540241e+05	1.013260e+05	2.881241e+02	9.997651e-02	1.471610e-03	0.000000e+00	
2.541914e-02	-1.424227e-01	1.225067e+00	4.166722e+01	8.347744e-01	2.540170e+05	1.013233e+05	2.881241e+02	9.997309e-02	-2.457829e-03	0.000000e+00	
1.244447e-02	-1.119188e-01	1.225123e+00	4.166651e+01	4.505270e-01	2.540284e+05	1.013279e+05	2.881243e+02	9.995261e-02	4.112799e-03	0.000000e+00	
2.628894e-02	-1.101914e-01	1.225105e+00	4.168488e+01	8.674181e-01	2.540251e+05	1.013262e+05	2.881236e+02	1.000140e-01	1.735881e-03	0.000000e+00	
0.000000e+00	-1.047193e-01	1.225096e+00	4.166781e+01	8.327448e-02	2.540229e+05	1.013257e+05	2.881243e+02	9.995225e-02	1.038285e-03	0.000000e+00	
3.464106e-02	-1.266534e-01	1.225092e+00	4.167304e+01	1.075460e+00	2.540222e+05	1.013252e+05	2.881238e+02	9.999832e-02	2.561050e-04	0.000000e+00	
4.248102e-02	-1.429898e-01	1.225098e+00	4.166090e+01	1.273672e+00	2.540234e+05	1.013257e+05	2.881240e+02	9.998210e-02	1.048043e-03	0.000000e+00	
1.842371e-02	-9.599858e-02	1.225087e+00	4.167094e+01	5.804929e-01	2.540210e+05	1.013249e+05	2.881241e+02	9.997007e-02	-1.799660e-04	0.000000e+00	
3.407911e-02	-9.603102e-02	1.225087e+00	4.167805e+01	1.088815e+00	2.540213e+05	1.013247e+05	2.881237e+02	1.000116e-01	-3.635194e-04	0.000000e+00	
4.374635e-02	-1.115797e-01	1.225073e+00	4.167841e+01	1.305437e+00	2.540184e+05	1.013235e+05	2.881235e+02	1.000286e-01	-2.148713e-03	0.000000e+00	
0.000000e+00	-8.726611e-02	1.225076e+00	4.167436e+01	8.343706e-02	2.540188e+05	1.013240e+05	2.881242e+02	9.996965e-02	-1.416629e-03	0.000000e+00	
5.201730e-02	-1.273923e-01	1.225093e+00	4.166921e+01	1.488218e+00	2.540225e+05	1.013252e+05	2.881236e+02	1.000196e-01	2.398433e-04	0.000000e+00	
5.961074e-02	-1.432000e-01	1.225079e+00	4.166591e+01	1.646781e+00	2.540198e+05	1.013240e+05	2.881235e+02	1.000270e-01	-1.339504e-03	0.000000e+00	
2.636644e-02	-7.977368e-02	1.225092e+00	4.167190e+01	8.695201e-01	2.540222e+05	1.013253e+05	2.881240e+02	9.998401e-02	3.747301e-04	0.000000e+00	
1.313569e-02	-7.946495e-02	1.225092e+00	4.167627e+01	4.604185e-01	2.540222e+05	1.013253e+05	2.881240e+02	9.997883e-02	3.931678e-04	0.000000e+00	
4.437190e-02	-8.171089e-02	1.225083e+00	4.167354e+01	1.320893e+00	2.540205e+05	1.013244e+05	2.881236e+02	1.000172e-01	-8.470468e-04	0.000000e+00	
5.296757e-02	-9.699288e-02	1.225093e+00	4.167353e+01	1.510225e+00	2.540227e+05	1.013252e+05	2.881234e+02	1.000318e-01	2.507073e-04	0.000000e+00	
6.142032e-02	-1.123310e-01	1.225087e+00	4.167237e+01	1.682282e+00	2.540214e+05	1.013246e+05	2.881233e+02	1.000453e-01	-5.626250e-04	0.000000e+00	
0.000000e+00	-6.981289e-02	1.225125e+00	4.167427e+01	8.075828e-02	2.540290e+05	1.013281e+05	2.881241e+02	9.996538e-02	4.345346e-03	0.000000e+00	
6.927869e-02	-1.277776e-01	1.225084e+00	4.166960e+01	1.828590e+00	2.540209e+05	1.013243e+05	2.881232e+02	1.000537e-01	-9.234807e-04	0.000000e+00	
7.668046e-02	-1.432584e-01	1.225083e+00	4.166628e+01	1.961157e+00	2.540207e+05	1.013242e+05	2.881231e+02	1.000603e-01	-1.095539e-03	0.000000e+00	
1.936062e-02	-6.410467e-02	1.225088e+00	4.167411e+01	6.145460e-01	2.540214e+05	1.013250e+05	2.881240e+02	9.997872e-02	-4.153902e-05	0.000000e+00	
3.544337e-02	-6.674964e-02	1.225105e+00	4.166722e+01	1.125488e+00	2.540248e+05	1.013263e+05	2.881239e+02	9.998646e-02	1.831489e-03	0.000000e+00	
5.401399e-02	-6.803920e-02	1.225078e+00	4.167230e+01	1.532426e+00	2.540195e+05	1.013239e+05	2.881234e+02	1.000320e-01	-1.519545e-03	0.000000e+00	
6.239896e-02	-8.271554e-02	1.225084e+00	4.167247e+01	1.702842e+00	2.540209e+05	1.013244e+05	2.881232e+02	1.000478e-01	-8.946016e-04	0.000000e+00	
7.070079e-02	-9.766974e-02	1.225080e+00	4.167487e+01	1.856466e+00	2.540201e+05	1.013239e+05	2.881230e+02	1.000697e-01	-1.485598e-03	0.000000e+00	
7.871826e-02	-1.127621e-01	1.225077e+00	4.167273e+01	1.994269e+00	2.540196e+05	1.013237e+05	2.881229e+02	1.000800e-01	-1.876296e-03	0.000000e+00	
0.000000e+00	-5.235967e-02	1.225079e+00	4.167636e+01	5.871995e-02	2.540195e+05	1.013243e+05	2.881241e+02	9.997407e-02	-1.057244e-03	0.000000e+00	
8.634720e-02	-1.279693e-01	1.225080e+00	4.166987e+01	2.115263e+00	2.540201e+05	1.013238e+05	2.881228e+02	1.000873e-01	-1.642620e-03	0.000000e+00	
9.367561e-02	-1.432449e-01	1.225076e+00	4.166826e+01	2.224977e+00	2.540194e+05	1.013235e+05	2.881227e+02	1.000974e-01	-2.085639e-03	0.000000e+00	
3.070391e-02	-5.431896e-02	1.225074e+00	4.165692e+01	9.832651e-01	2.540184e+05	1.013239e+05	2.881243e+02	9.995556e-02	-1.561998e-03	0.000000e+00	
4.606243e-02	-5.414995e-02	1.225097e+00	4.166556e+01	1.359911e+00	2.540233e+05	1.013256e+05	2.881238e+02	9.999988e-02	8.748648e-04	0.000000e+00	
1.613526e-02	-4.444545e-02	1.225077e+00	4.167284e+01	5.941110e-01	2.540191e+05	1.013241e+05	2.881240e+02	9.997587e-02	-1.312974e-03	0.000000e+00	
6.333810e-02	-5.432555e-02	1.225080e+00	4.166979e+01	1.719629e+00	2.540199e+05	1.013240e+05	2.881233e+02	1.000434e-01	-1.390996e-03	0.000000e+00	
7.158015e-02	-6.864929e-02	1.225084e+00	4.167004e+01	1.872706e+00	2.540209e+05	1.013243e+05	2.881231e+02	1.000595e-01	-9.633588e-04	0.000000e+00	
7.980568e-02	-8.327895e-02	1.225079e+00	4.167278e+01	2.012528e+00	2.540199e+05	1.013238e+05	2.881228e+02	1.000822e-01	-1.737067e-03	0.000000e+00	
8.788790e-02	-9.807836e-02	1.225080e+00	4.167323e+01	2.139147e+00	2.540201e+05	1.013238e+05	2.881227e+02	1.000983e-01	-1.716833e-03	0.000000e+00	
9.571819e-02	-1.130090e-01	1.225076e+00	4.167201e+01	2.252944e+00	2.540193e+05	1.013234e+05	2.881225e+02	1.001101e-01	-2.265254e-03	0.000000e+00	
0.000000e+00	-3.490644e-02	1.225123e+00	4.167176e+01	1.718979e-02	2.540286e+05	1.013279e+05	2.881242e+02	9.995933e-02	4.149046e-03	0.000000e+00	
1.032697e-01	-1.280629e-01	1.225075e+00	4.167023e+01	2.354066e+00	2.540193e+05	1.013233e+05	2.881224e+02	1.001193e-01	-2.333723e-03	0.000000e+00	
1.106204e-01	-1.431997e-01	1.225074e+00	4.166906e+01	2.447024e+00	2.540190e+05	1.013232e+05	2.881223e+02	1.001294e-01	-2.589574e-03	0.000000e+00	
3.709916e-02	-4.123790e-02	1.225101e+00	4.166454e+01	1.140948e+00	2.540240e+05	1.013260e+05	2.881240e+02	9.998137e-02	1.383989e-03	0.000000e+00	
5.490230e-02	-4.040790e-02	1.225082e+00	4.167068e+01	1.550878e+00	2.540203e+05	1.013242e+05	2.881234e+02	1.000295e-01	-1.081715e-03	0.000000e+00	
1.219890e-02	-2.781010e-02	1.225106e+00	4.167814e+01	4.431595e-01	2.540251e+05	1.013264e+05	2.881240e+02	9.998173e-02	2.015219e-03	0.000000e+00	
2.783279e-02	-2.777629e-02	1.225100e+00	4.167309e+01	9.063910e-01	2.540238e+05	1.013259e+05	2.881239e+02	9.998813e-02	1.243810e-03	0.000000e+00	
7.220420e-02	-4.026686e-02	1.225082e+00	4.166994e+01	1.882305e+00	2.540205e+05	1.013241e+05	2.881231e+02	1.000604e-01	-1.213976e-03	0.000000e+00	
8.048621e-02	-5.455823e-02	1.225080e+00	4.166965e+01	2.023605e+00	2.540200e+05	1.013239e+05	2.881229e+02	1.000758e-01	-1.578792e-03	0.000000e+00	
8.868258e-02	-6.902175e-02	1.225076e+00	4.167122e+01	2.151537e+00	2.540194e+05	1.013235e+05	2.881227e+02	1.000953e-01	-2.090700e-03	0.000000e+00	
9.680074e-02	-8.362129e-02	1.225075e+00	4.167249e+01	2.268732e+00	2.540193e+05	1.013234e+05	2.881225e+02	1.001133e-01	-2.297365e-03	0.000000e+00	
1.047748e-01	-9.833268e-02	1.225074e+00	4.167311e+01	2.373979e+00	2.540190e+05	1.013232e+05	2.881223e+02	1.001290e-01	-2.563096e-03	0.000000e+00	
1.125468e-01	-1.131630e-01	1.225072e+00	4.167185e+01	2.469354e+00	2.540186e+05	1.013229e+05	2.881222e+02	1.001395e-01	-2.902261e-03	0.000000e+00	
0.000000e+00	-1.745322e-02	1.225082e+00	4.167244e+01	1.536882e-02	2.540200e+05	1.013245e+05	2.881242e+02	9.996436e-02	-7.002664e-04	0.000000e+00	
1.201126e-01	-1.281134e-01	1.225071e+00	4.167058e+01	2.555059e+00	2.540186e+05	1.013229e+05	2.881221e+02	1.001488e-01	-2.964655e-03	0.000000e+00	
1.275403e-01	-1.431425e-01	1.225070e+00	4.166982e+01	2.634163e+00	2.540183e+05	1.013227e+05	2.881220e+02	1.001590e-01	-3.225138e-03	0.000000e+00	
4.609133e-02	-2.662231e-02	1.225082e+00	4.167323e+01	1.357906e+00	2.540202e+05	1.013243e+05	2.881236e+02	1.000194e-01	-1.013425e-03	0.000000e+00	
6.375364e-02	-2.610164e-02	1.225086e+00	4.167140e+01	1.726994e+00	2.540213e+05	1.013245e+05	2.881232e+02	1.000475e-01	-6.577047e-04	0.000000e+00	
1.772287e-02	-1.421789e-02	1.225081e+00	4.167183e+01	6.402067e-01	2.540199e+05	1.013244e+05	2.881241e+02	9.997478e-02	-8.757829e-04	0.000000e+00	
3.691285e-02	-1.265980e-02	1.225091e+00	4.167251e+01	1.141216e+00	2.540221e+05	1.013251e+05	2.881238e+02	1.000013e-01	1.878758e-04	0.000000e+00	
8.091365e-02	-2.600270e-02	1.225078e+00	4.167200e+01	2.030237e+00	2.540197e+05	1.013237e+05	2.881228e+02	1.000824e-01	-1.799677e-03	0.000000e+00	
8.917960e-02	-4.036079e-02	1.225077e+00	4.167042e+01	2.158827e+00	2.540195e+05	1.013236e+05	2.881227e+02	1.000942e-01	-2.004763e-03	0.000000e+00	
9.737218e-02	-5.478546e-02	1.225075e+00	4.167011e+01	2.276220e+00	2.540192e+05	1.013233e+05	2.881225e+02	1.001086e-01	-2.334627e-03	0.000000e+00	
1.055107e-01	-6.928462e-02	1.225074e+00	4.167101e+01	2.383805e+00	2.540191e+05	1.013232e+05	2.881223e+02	1.001253e-01	-2.515645e-03	0.000000e+00	
1.135734e-01	-8.385650e-02	1.225072e+00	4.167229e+01	2.481823e+00	2.540187e+05	1.013230e+05	2.881221e+02	1.001423e-01	-2.886344e-03	0.000000e+00	
1.215141e-01	-9.851409e-02	1.225071e+00	4.167250e+01	2.570552e+00	2.540186e+05	1.013228e+05	2.881220e+02	1.001558e-01	-3.055123e-03	0.000000e+00	
1.292959e-01	-1.132780e-01	1.225069e+00	4.167169e+01	2.651298e+00	2.540181e+05	1.013226e+05	2.881219e+02	1.001661e-01	-3.401394e-03	0.000000e+00	
9.348140e-03	-1.038921e-04	1.225104e+00	4.167260e+01	3.620929e-01	2.540245e+05	1.013263e+05	2.881242e+02	9.996673e-02	1.824305e-03	0.000000e+00	
1.369213e-01	-1.281480e-01	1.225068e+00	4.167082e+01	2.724425e+00	2.540180e+05	1.013225e+05	2.881218e+02	1.001754e-01	-3.507983e-03	0.000000e+00	
1.444507e-01	-1.430826e-01	1.225067e+00	4.167035e+01	2.791952e+00	2.540178e+05	1.013224e+05	2.881217e+02	1.001851e-01	-3.704771e-03	0.000000e+00	
5.507096e-02	-1.191809e-02	1.225086e+00	4.167299e+01	1.553105e+00	2.540212e+05	1.013246e+05	2.881234e+02	1.000348e-01	-5.867337e-04	0.000000e+00	
7.253229e-02	-1.166546e-02	1.225081e+00	4.167329e+01	1.888864e+00	2.540203e+05	1.013240e+05	2.881230e+02	1.000693e-01	-1.404106e-03	0.000000e+00	
2.757276e-02	1.733662e-03	1.225096e+00	4.167327e+01	8.972530e-01	2.540230e+05	1.013256e+05	2.881239e+02	9.998841e-02	8.027675e-04	0.000000e+00	
0.000000e+00	0.000000e+00	1.225098e+00	4.167084e+01	-2.460077e-03	2.540234e+05	1.013259e+05	2.881243e+02	9.995918e-02	1.222164e-03	0.000000e+00	
4.615168e-02	2.469224e-03	1.225088e+00	4.167394e+01	1.359006e+00	2.540214e+05	1.013248e+05	2.881235e+02	1.000207e-01	-3.508585e-04	0.000000e+00	
8.953351e-02	-1.167694e-02	1.225078e+00	4.167280e+01	2.164153e+00	2.540197e+05	1.013236e+05	2.881226e+02	1.001005e-01	-1.949704e-03	0.000000e+00	
9.776269e-02	-2.609438e-02	1.225076e+00	4.167151e+01	2.281463e+00	2.540194e+05	1.013234e+05	2.881225e+02	1.001126e-01	-2.251402e-03	0.000000e+00	
1.059431e-01	-4.052888e-02	1.225074e+00	4.167043e+01	2.388902e+00	2.540189e+05	1.013232e+05	2.881223e+02	1.001246e-01	-2.587050e-03	0.000000e+00	
1.140900e-01	-5.499369e-02	1.225072e+00	4.167031e+01	2.487806e+00	2.540186e+05	1.013230e+05	2.881222e+02	1.001384e-01	-2.876360e-03	0.000000e+00	
1.221991e-01	-6.949505e-02	1.225070e+00	4.167122e+01	2.578319e+00	2.540184e+05	1.013228e+05	2.881220e+02	1.001539e-01	-3.151181e-03	0.000000e+00	
1.302452e-01	-8.404542e-02	1.225069e+00	4.167207e+01	2.661097e+00	2.540181e+05	1.013226e+05	2.881218e+02	1.001686e-01	-3.407897e-03	0.000000e+00	
1.381926e-01	-9.866705e-02	1.225067e+00	4.167226e+01	2.736217e+00	2.540179e+05	1.013224e+05	2.881217e+02	1.001808e-01	-3.610628e-03	0.000000e+00	
1.460147e-01	-1.133793e-01	1.225066e+00	4.167162e+01	2.804905e+00	2.540176e+05	1.013222e+05	2.881216e+02	1.001903e-01	-3.883381e-03	0.000000e+00	
1.738334e-02	1.732772e-02	1.225092e+00	4.167218e+01	6.270519e-01	2.540222e+05	1.013253e+05	2.881241e+02	9.997423e-02	4.284123e-04	0.000000e+00	
0.000000e+00	1.745322e-02	1.225093e+00	4.167208e+01	5.085694e-03	2.540224e+05	1.013254e+05	2.881242e+02	9.996256e-02	6.235509e-04	0.000000e+00	
1.537181e-01	-1.281786e-01	1.225065e+00	4.167100e+01	2.867107e+00	2.540175e+05	1.013222e+05	2.881215e+02	1.001990e-01	-3.990239e-03	0.000000e+00	
1.613584e-01	-1.430238e-01	1.225063e+00	4.167001e+01	2.923874e+00	2.540171e+05	1.013220e+05	2.881214e+02	1.002063e-01	-4.249987e-03	0.000000e+00	
6.399882e-02	2.735350e-03	1.225084e+00	4.167350e+01	1.732025e+00	2.540208e+05	1.013243e+05	2.881232e+02	1.000532e-01	-9.950157e-04	0.000000e+00	
8.123039e-02	2.753356e-03	1.225080e+00	4.167333e+01	2.035679e+00	2.540201e+05	1.013238e+05	2.881228e+02	1.000861e-01	-1.651577e-03	0.000000e+00	
3.695027e-02	1.731935e-02	1.225089e+00	4.167228e+01	1.142062e+00	2.540217e+05	1.013250e+05	2.881238e+02	1.000010e-01	-5.876129e-05	0.000000e+00	
5.528690e-02	1.730740e-02	1.225085e+00	4.167260e+01	1.557958e+00	2.540210e+05	1.013245e+05	2.881234e+02	1.000344e-01	-7.002365e-04	0.000000e+00	
9.809332e-02	2.646081e-03	1.225075e+00	4.167318e+01	2.286444e+00	2.540193e+05	1.013234e+05	2.881224e+02	1.001173e-01	-2.317278e-03	0.000000e+00	
1.062877e-01	-1.180505e-02	1.225074e+00	4.167264e+01	2.393564e+00	2.540190e+05	1.013231e+05	2.881223e+02	1.001306e-01	-2.615617e-03	0.000000e+00	
1.144529e-01	-2.625511e-02	1.225072e+00	4.167145e+01	2.491879e+00	2.540186e+05	1.013229e+05	2.881221e+02	1.001417e-01	-2.899770e-03	0.000000e+00	
1.225994e-01	-4.071395e-02	1.225070e+00	4.167050e+01	2.582413e+00	2.540184e+05	1.013228e+05	2.881220e+02	1.001528e-01	-3.144712e-03	0.000000e+00	
1.307283e-01	-5.518725e-02	1.225068e+00	4.167048e+01	2.665791e+00	2.540181e+05	1.013226e+05	2.881219e+02	1.001655e-01	-3.411811e-03	0.000000e+00	
1.388291e-01	-6.968323e-02	1.225067e+00	4.167120e+01	2.742312e+00	2.540179e+05	1.013224e+05	2.881217e+02	1.001792e-01	-3.626981e-03	0.000000e+00	
1.468790e-01	-8.421759e-02	1.225066e+00	4.167189e+01	2.812357e+00	2.540176e+05	1.013222e+05	2.881216e+02	1.001922e-01	-3.882060e-03	0.000000e+00	
1.548501e-01	-9.881076e-02	1.225065e+00	4.167204e+01	2.876202e+00	2.540175e+05	1.013221e+05	2.881214e+02	1.002031e-01	-4.052936e-03	0.000000e+00	
1.627240e-01	-1.134774e-01	1.225063e+00	4.167144e+01	2.934577e+00	2.540171e+05	1.013220e+05	2.881214e+02	1.002115e-01	-4.293204e-03	0.000000e+00	
9.377932e-03	3.459276e-02	1.225088e+00	4.167238e+01	3.634728e-01	2.540214e+05	1.013250e+05	2.881242e+02	9.996748e-02	2.730294e-05	0.000000e+00	
2.775147e-02	3.279400e-02	1.225089e+00	4.167215e+01	9.022682e-01	2.540216e+05	1.013250e+05	2.881239e+02	9.998652e-02	1.673708e-05	0.000000e+00	
1.705117e-01	-1.282096e-01	1.225062e+00	4.167042e+01	2.987373e+00	2.540170e+05	1.013219e+05	2.881213e+02	1.002181e-01	-4.416343e-03	0.000000e+00	
1.782655e-01	-1.429673e-01	1.225063e+00	4.166870e+01	3.035646e+00	2.540171e+05	1.013219e+05	2.881212e+02	1.002224e-01	-4.414111e-03	0.000000e+00	
7.282699e-02	1.724105e-02	1.225081e+00	4.167265e+01	1.894151e+00	2.540204e+05	1.013241e+05	2.881230e+02	1.000683e-01	-1.333663e-03	0.000000e+00	
8.985423e-02	1.711652e-02	1.225077e+00	4.167280e+01	2.169286e+00	2.540196e+05	1.013236e+05	2.881226e+02	1.001012e-01	-2.023185e-03	0.000000e+00	
0.000000e+00	3.490644e-02	1.225092e+00	4.167279e+01	-2.625018e-03	2.540221e+05	1.013253e+05	2.881242e+02	9.996435e-02	4.758817e-04	0.000000e+00	
4.642016e-02	3.210883e-02	1.225089e+00	4.167136e+01	1.364903e+00	2.540216e+05	1.013249e+05	2.881236e+02	1.000149e-01	-1.904268e-04	0.000000e+00	
6.430574e-02	3.182022e-02	1.225083e+00	4.167199e+01	1.737714e+00	2.540206e+05	1.013242e+05	2.881232e+02	1.000502e-01	-1.086898e-03	0.000000e+00	
1.066130e-01	1.695532e-02	1.225074e+00	4.167272e+01	2.397946e+00	2.540190e+05	1.013232e+05	2.881223e+02	1.001314e-01	-2.599536e-03	0.000000e+00	
1.147812e-01	2.485611e-03	1.225072e+00	4.167294e+01	2.496041e+00	2.540187e+05	1.013230e+05	2.881221e+02	1.001459e-01	-2.880743e-03	0.000000e+00	
1.229338e-01	-1.197500e-02	1.225070e+00	4.167232e+01	2.586123e+00	2.540184e+05	1.013228e+05	2.881220e+02	1.001577e-01	-3.147031e-03	0.000000e+00	
1.310768e-01	-2.643552e-02	1.225069e+00	4.167129e+01	2.669102e+00	2.540181e+05	1.013226e+05	2.881218e+02	1.001679e-01	-3.406924e-03	0.000000e+00	
1.392122e-01	-4.090024e-02	1.225067e+00	4.167058e+01	2.745609e+00	2.540178e+05	1.013224e+05	2.881217e+02	1.001783e-01	-3.652308e-03	0.000000e+00	
1.473366e-01	-5.537348e-02	1.225066e+00	4.167062e+01	2.816155e+00	2.540176e+05	1.013222e+05	2.881216e+02	1.001898e-01	-3.884306e-03	0.000000e+00	
1.554390e-01	-6.986371e-02	1.225064e+00	4.167124e+01	2.880927e+00	2.540174e+05	1.013221e+05	2.881215e+02	1.002020e-01	-4.093801e-03	0.000000e+00	
1.635010e-01	-8.438464e-02	1.225063e+00	4.167180e+01	2.940325e+00	2.540172e+05	1.013220e+05	2.881213e+02	1.002134e-01	-4.297721e-03	0.000000e+00	
1.715018e-01	-9.895242e-02	1.225062e+00	4.167186e+01	2.994593e+00	2.540170e+05	1.013218e+05	2.881212e+02	1.002229e-01	-4.486621e-03	0.000000e+00	
1.794309e-01	-1.135755e-01	1.225061e+00	4.167116e+01	3.043963e+00	2.540168e+05	1.013217e+05	2.881211e+02	1.002298e-01	-4.614585e-03	0.000000e+00	
1.795505e-02	4.843787e-02	1.225099e+00	4.167509e+01	6.455916e-01	2.540237e+05	1.013259e+05	2.881240e+02	9.998129e-02	1.233324e-03	0.000000e+00	
0.000000e+00	5.235967e-02	1.225101e+00	4.167230e+01	7.239296e-03	2.540240e+05	1.013261e+05	2.881242e+02	9.996244e-02	1.550136e-03	0.000000e+00	
3.740551e-02	4.694307e-02	1.225086e+00	4.167347e+01	1.153101e+00	2.540210e+05	1.013247e+05	2.881237e+02	1.000048e-01	-4.528928e-04	0.000000e+00	
1.873045e-01	-1.282421e-01	1.225059e+00	4.166981e+01	3.089792e+00	2.540163e+05	1.013215e+05	2.881211e+02	1.002349e-01	-4.962336e-03	0.000000e+00	
1.951730e-01	-1.429135e-01	1.225063e+00	4.166979e+01	3.132084e+00	2.540171e+05	1.013218e+05	2.881210e+02	1.002421e-01	-4.541161e-03	0.000000e+00	
8.155320e-02	3.163081e-02	1.225079e+00	4.167190e+01	2.040929e+00	2.540200e+05	1.013238e+05	2.881228e+02	1.000833e-01	-1.661548e-03	0.000000e+00	
9.842091e-02	3.145406e-02	1.225075e+00	4.167205e+01	2.290952e+00	2.540193e+05	1.013234e+05	2.881225e+02	1.001152e-01	-2.325889e-03	0.000000e+00	
5.565753e-02	4.645333e-02	1.225086e+00	4.167160e+01	1.565683e+00	2.540212e+05	1.013246e+05	2.881234e+02	1.000326e-01	-5.776612e-04	0.000000e+00	
7.317353e-02	4.621104e-02	1.225081e+00	4.167160e+01	1.900069e+00	2.540202e+05	1.013240e+05	2.881230e+02	1.000665e-01	-1.432629e-03	0.000000e+00	
1.232584e-01	1.677753e-02	1.225070e+00	4.167269e+01	2.589903e+00	2.540184e+05	1.013228e+05	2.881220e+02	1.001592e-01	-3.172155e-03	0.000000e+00	
1.151096e-01	3.127356e-02	1.225072e+00	4.167207e+01	2.499976e+00	2.540187e+05	1.013229e+05	2.881221e+02	1.001444e-01	-2.895148e-03	0.000000e+00	
1.314018e-01	2.306751e-03	1.225069e+00	4.167275e+01	2.672607e+00	2.540181e+05	1.013226e+05	2.881218e+02	1.001719e-01	-3.420330e-03	0.000000e+00	
1.395414e-01	-1.215697e-02	1.225067e+00	4.167212e+01	2.748703e+00	2.540179e+05	1.013224e+05	2.881217e+02	1.001824e-01	-3.661231e-03	0.000000e+00	
1.476780e-01	-2.662007e-02	1.225066e+00	4.167121e+01	2.818877e+00	2.540176e+05	1.013222e+05	2.881216e+02	1.001916e-01	-3.889697e-03	0.000000e+00	
1.558109e-01	-4.108550e-02	1.225064e+00	4.167064e+01	2.883635e+00	2.540173e+05	1.013221e+05	2.881215e+02	1.002010e-01	-4.100399e-03	0.000000e+00	
1.639357e-01	-5.555713e-02	1.225063e+00	4.167073e+01	2.943343e+00	2.540171e+05	1.013219e+05	2.881213e+02	1.002113e-01	-4.305384e-03	0.000000e+00	
1.720433e-01	-7.004191e-02	1.225062e+00	4.167126e+01	2.998250e+00	2.540169e+05	1.013218e+05	2.881212e+02	1.002221e-01	-4.491853e-03	0.000000e+00	
1.801199e-01	-8.455064e-02	1.225061e+00	4.167171e+01	3.048577e+00	2.540168e+05	1.013217e+05	2.881211e+02	1.002320e-01	-4.661120e-03	0.000000e+00	
1.881520e-01	-9.909409e-02	1.225060e+00	4.167161e+01	3.094685e+00	2.540166e+05	1.013216e+05	2.881210e+02	1.002400e-01	-4.854414e-03	0.000000e+00	
1.961373e-01	-1.136746e-01	1.225059e+00	4.167080e+01	3.136589e+00	2.540165e+05	1.013215e+05	2.881210e+02	1.002456e-01	-4.915657e-03	0.000000e+00	
2.861719e-02	6.103215e-02	1.225091e+00	4.167311e+01	9.302418e-01	2.540220e+05	1.013251e+05	2.881239e+02	9.999017e-02	1.813943e-04	0.000000e+00	
1.256344e-02	6.106110e-02	1.225095e+00	4.167458e+01	4.590967e-01	2.540227e+05	1.013255e+05	2.881241e+02	9.997451e-02	7.294084e-04	0.000000e+00	
4.689045e-02	6.097692e-02	1.225088e+00	4.167196e+01	1.376086e+00	2.540214e+05	1.013248e+05	2.881236e+02	1.000173e-01	-3.316019e-04	0.000000e+00	
2.040974e-01	-1.282764e-01	1.225057e+00	4.167025e+01	3.176462e+00	2.540160e+05	1.013213e+05	2.881209e+02	1.002517e-01	-5.263344e-03	0.000000e+00	
2.120809e-01	-1.428625e-01	1.225058e+00	4.167131e+01	3.212703e+00	2.540163e+05	1.013214e+05	2.881208e+02	1.002608e-01	-5.140851e-03	0.000000e+00	
9.019602e-02	4.602253e-02	1.225077e+00	4.167140e+01	2.174283e+00	2.540196e+05	1.013236e+05	2.881226e+02	1.000985e-01	-2.002073e-03	0.000000e+00	
1.069550e-01	4.584094e-02	1.225073e+00	4.167148e+01	2.402163e+00	2.540189e+05	1.013231e+05	2.881223e+02	1.001290e-01	-2.638933e-03	0.000000e+00	
0.000000e+00	6.981289e-02	1.225089e+00	4.167607e+01	5.049483e-03	2.540216e+05	1.013251e+05	2.881241e+02	9.997246e-02	1.285943e-04	0.000000e+00	
6.469811e-02	6.087860e-02	1.225083e+00	4.167148e+01	1.745878e+00	2.540207e+05	1.013243e+05	2.881232e+02	1.000498e-01	-1.006813e-03	0.000000e+00	
8.192958e-02	6.074165e-02	1.225079e+00	4.167133e+01	2.046983e+00	2.540199e+05	1.013238e+05	2.881228e+02	1.000827e-01	-1.710768e-03	0.000000e+00	
1.317302e-01	3.108917e-02	1.225069e+00	4.167211e+01	2.675955e+00	2.540181e+05	1.013226e+05	2.881218e+02	1.001709e-01	-3.427081e-03	0.000000e+00	
1.398650e-01	1.659376e-02	1.225067e+00	4.167259e+01	2.751896e+00	2.540179e+05	1.013224e+05	2.881217e+02	1.001841e-01	-3.665229e-03	0.000000e+00	
1.236019e-01	4.565685e-02	1.225070e+00	4.167152e+01	2.593508e+00	2.540183e+05	1.013227e+05	2.881220e+02	1.001569e-01	-3.178999e-03	0.000000e+00	
1.480014e-01	2.122704e-03	1.225066e+00	4.167255e+01	2.821806e+00	2.540176e+05	1.013222e+05	2.881215e+02	1.001953e-01	-3.891697e-03	0.000000e+00	
1.561376e-01	-1.234169e-02	1.225064e+00	4.167194e+01	2.886196e+00	2.540174e+05	1.013221e+05	2.881214e+02	1.002045e-01	-4.106954e-03	0.000000e+00	
1.642729e-01	-2.680515e-02	1.225063e+00	4.167116e+01	2.945610e+00	2.540171e+05	1.013219e+05	2.881213e+02	1.002127e-01	-4.310387e-03	0.000000e+00	
1.724058e-01	-4.127024e-02	1.225062e+00	4.167072e+01	3.000451e+00	2.540169e+05	1.013218e+05	2.881212e+02	1.002211e-01	-4.501305e-03	0.000000e+00	
1.805325e-01	-5.573996e-02	1.225061e+00	4.167083e+01	3.051023e+00	2.540167e+05	1.013217e+05	2.881211e+02	1.002303e-01	-4.676199e-03	0.000000e+00	
1.886463e-01	-7.021967e-02	1.225060e+00	4.167130e+01	3.097564e+00	2.540166e+05	1.013216e+05	2.881210e+02	1.002397e-01	-4.849486e-03	0.000000e+00	
1.967383e-01	-8.471661e-02	1.225059e+00	4.167161e+01	3.140178e+00	2.540164e+05	1.013215e+05	2.881209e+02	1.002482e-01	-4.981527e-03	0.000000e+00	
2.048021e-01	-9.923619e-02	1.225058e+00	4.167134e+01	3.179362e+00	2.540162e+05	1.013213e+05	2.881209e+02	1.002548e-01	-5.172806e-03	0.000000e+00	
2.128438e-01	-1.137748e-01	1.225058e+00	4.167078e+01	3.215257e+00	2.540162e+05	1.013213e+05	2.881208e+02	1.002601e-01	-5.222328e-03	0.000000e+00	
3.777908e-02	7.530309e-02	1.225093e+00	4.167002e+01	1.163424e+00	2.540225e+05	1.013253e+05	2.881238e+02	9.999662e-02	4.440560e-04	0.000000e+00	
1.811386e-02	7.376972e-02	1.225086e+00	4.167108e+01	6.534780e-01	2.540209e+05	1.013248e+05	2.881241e+02	9.997305e-02	-2.698149e-04	0.000000e+00	
5.609112e-02	7.572082e-02	1.225083e+00	4.167168e+01	1.575136e+00	2.540206e+05	1.013243e+05	2.881234e+02	1.000339e-01	-9.399884e-04	0.000000e+00	
2.208907e-01	-1.283128e-01	1.225056e+00	4.167076e+01	3.249101e+00	2.540159e+05	1.013211e+05	2.881207e+02	1.002664e-01	-5.433503e-03	0.000000e+00	
2.289899e-01	-1.428147e-01	1.225056e+00	4.167156e+01	3.280099e+00	2.540159e+05	1.013211e+05	2.881206e+02	1.002742e-01	-5.491984e-03	0.000000e+00	
9.879743e-02	6.058007e-02	1.225075e+00	4.167126e+01	2.296085e+00	2.540193e+05	1.013234e+05	2.881225e+02	1.001140e-01	-2.317103e-03	0.000000e+00	
1.154912e-01	6.040437e-02	1.225072e+00	4.167133e+01	2.504247e+00	2.540186e+05	1.013229e+05	2.881221e+02	1.001432e-01	-2.911600e-03	0.000000e+00	
9.602799e-03	8.778432e-02	1.225096e+00	4.167168e+01	3.752746e-01	2.540230e+05	1.013257e+05	2.881242e+02	9.996542e-02	9.470419e-04	0.000000e+00	
7.361566e-02	7.576802e-02	1.225082e+00	4.167130e+01	1.908059e+00	2.540204e+05	1.013241e+05	2.881230e+02	1.000666e-01	-1.313269e-03	0.000000e+00	
9.064425e-02	7.567565e-02	1.225077e+00	4.167163e+01	2.180842e+00	2.540195e+05	1.013235e+05	2.881226e+02	1.000999e-01	-2.083061e-03	0.000000e+00	
1.483294e-01	3.090176e-02	1.225066e+00	4.167212e+01	2.824678e+00	2.540176e+05	1.013222e+05	2.881215e+02	1.001948e-01	-3.900885e-03	0.000000e+00	
1.402092e-01	4.546742e-02	1.225067e+00	4.167161e+01	2.754962e+00	2.540178e+05	1.013224e+05	2.881217e+02	1.001822e-01	-3.686516e-03	0.000000e+00	
1.564607e-01	1.640788e-02	1.225064e+00	4.167250e+01	2.888909e+00	2.540174e+05	1.013221e+05	2.881214e+02	1.002063e-01	-4.117887e-03	0.000000e+00	
1.321164e-01	6.021626e-02	1.225068e+00	4.167142e+01	2.679608e+00	2.540181e+05	1.013226e+05	2.881218e+02	1.001699e-01	-3.434915e-03	0.000000e+00	
1.645956e-01	1.937386e-03	1.225063e+00	4.167239e+01	2.948074e+00	2.540172e+05	1.013219e+05	2.881213e+02	1.002161e-01	-4.316075e-03	0.000000e+00	
1.727312e-01	-1.252690e-02	1.225062e+00	4.167180e+01	3.002590e+00	2.540169e+05	1.013218e+05	2.881212e+02	1.002241e-01	-4.506303e-03	0.000000e+00	
1.808664e-01	-2.699028e-02	1.225061e+00	4.167113e+01	3.052901e+00	2.540167e+05	1.013217e+05	2.881211e+02	1.002314e-01	-4.683231e-03	0.000000e+00	
1.889998e-01	-4.145475e-02	1.225060e+00	4.167079e+01	3.099359e+00	2.540165e+05	1.013216e+05	2.881210e+02	1.002388e-01	-4.850961e-03	0.000000e+00	
1.971288e-01	-5.592263e-02	1.225059e+00	4.167093e+01	3.142189e+00	2.540164e+05	1.013215e+05	2.881209e+02	1.002469e-01	-5.001010e-03	0.000000e+00	
2.052491e-01	-7.039737e-02	1.225058e+00	4.167130e+01	3.181620e+00	2.540162e+05	1.013213e+05	2.881208e+02	1.002551e-01	-5.155157e-03	0.000000e+00	
2.133566e-01	-8.488270e-02	1.225057e+00	4.167146e+01	3.217716e+00	2.540161e+05	1.013213e+05	2.881208e+02	1.002622e-01	-5.269009e-03	0.000000e+00	
2.214522e-01	-9.937877e-02	1.225056e+00	4.167118e+01	3.251035e+00	2.540159e+05	1.013212e+05	2.881207e+02	1.002678e-01	-5.426252e-03	0.000000e+00	
2.295506e-01	-1.138762e-01	1.225056e+00	4.167093e+01	3.281763e+00	2.540158e+05	1.013211e+05	2.881206e+02	1.002730e-01	-5.514431e-03	0.000000e+00	
2.856795e-02	9.001711e-02	1.225092e+00	4.167028e+01	9.261938e-01	2.540222e+05	1.013253e+05	2.881240e+02	9.998305e-02	3.929389e-04	0.000000e+00	
4.740090e-02	9.102985e-02	1.225088e+00	4.167149e+01	1.388045e+00	2.540216e+05	1.013248e+05	2.881236e+02	1.000171e-01	-2.577656e-04	0.000000e+00	
0.000000e+00	8.726611e-02	1.225094e+00	4.167382e+01	-7.545871e-03	2.540226e+05	1.013255e+05	2.881242e+02	9.996667e-02	7.020838e-04	0.000000e+00	
6.527836e-02	9.136758e-02	1.225083e+00	4.167215e+01	1.756369e+00	2.540206e+05	1.013243e+05	2.881232e+02	1.000525e-01	-1.051476e-03	0.000000e+00	
2.376848e-01	-1.283516e-01	1.225055e+00	4.167107e+01	3.310472e+00	2.540157e+05	1.013210e+05	2.881206e+02	1.002788e-01	-5.645120e-03	0.000000e+00	
2.459007e-01	-1.427710e-01	1.225054e+00	4.167158e+01	3.337045e+00	2.540156e+05	1.013209e+05	2.881205e+02	1.002852e-01	-5.727798e-03	0.000000e+00	
1.074164e-01	7.552899e-02	1.225073e+00	4.167166e+01	2.407776e+00	2.540189e+05	1.013231e+05	2.881223e+02	1.001302e-01	-2.647961e-03	0.000000e+00	
1.240785e-01	7.535412e-02	1.225070e+00	4.167181e+01	2.598335e+00	2.540183e+05	1.013227e+05	2.881220e+02	1.001583e-01	-3.213333e-03	0.000000e+00	
1.891690e-02	1.058482e-01	1.225095e+00	4.166876e+01	6.766299e-01	2.540228e+05	1.013256e+05	2.881242e+02	9.996762e-02	8.354121e-04	0.000000e+00	
0.000000e+00	1.047193e-01	1.225093e+00	4.166867e+01	1.582770e-02	2.540223e+05	1.013255e+05	2.881243e+02	9.995438e-02	6.434803e-04	0.000000e+00	
8.251394e-02	9.140308e-02	1.225079e+00	4.167247e+01	2.056346e+00	2.540200e+05	1.013238e+05	2.881228e+02	1.000865e-01	-1.686142e-03	0.000000e+00	
9.940096e-02	9.131645e-02	1.225075e+00	4.167261e+01	2.304043e+00	2.540193e+05	1.013234e+05	2.881224e+02	1.001183e-01	-2.323920e-03	0.000000e+00	
1.568034e-01	4.526966e-02	1.225064e+00	4.167168e+01	2.891513e+00	2.540173e+05	1.013221e+05	2.881214e+02	1.002048e-01	-4.129690e-03	0.000000e+00	
1.649226e-01	3.071129e-02	1.225063e+00	4.167213e+01	2.950512e+00	2.540172e+05	1.013219e+05	2.881213e+02	1.002159e-01	-4.322247e-03	0.000000e+00	
1.487157e-01	6.000904e-02	1.225066e+00	4.167150e+01	2.827773e+00	2.540176e+05	1.013222e+05	2.881216e+02	1.001938e-01	-3.908907e-03	0.000000e+00	
1.730537e-01	1.622096e-02	1.225062e+00	4.167241e+01	3.004883e+00	2.540170e+05	1.013218e+05	2.881212e+02	1.002260e-01	-4.512138e-03	0.000000e+00	
1.406947e-01	7.514466e-02	1.225067e+00	4.167185e+01	2.759144e+00	2.540178e+05	1.013224e+05	2.881217e+02	1.001835e-01	-3.711374e-03	0.000000e+00	
1.811885e-01	1.751727e-03	1.225061e+00	4.167224e+01	3.054970e+00	2.540168e+05	1.013217e+05	2.881211e+02	1.002344e-01	-4.687737e-03	0.000000e+00	
1.893242e-01	-1.271219e-02	1.225060e+00	4.167169e+01	3.101136e+00	2.540166e+05	1.013216e+05	2.881210e+02	1.002413e-01	-4.854913e-03	0.000000e+00	