TITLE = "SU2 Simulation"
VARIABLES = "Iteration","Sens_Geo","Sens_Mach","Sens_AoA","Sens_Press","Sens_Temp","Sens_AoS","Res_AdjFlow[0]","Res_AdjFlow[1]","Res_AdjFlow[2]","Res_AdjFlow[3]","Res_AdjFlow[4]","Linear_Solver_Iterations","CFL_Number","Time(min)"
ZONE T= "Convergence history"
           0, 0.00000000e+00, 0.00000000e+00, 0.00000000e+00, 0.00000000e+00, 0.00000000e+00, 0.0, -1.29878816e+01, -1.57036092e+01, -1.63306665e+01, -1.68010313e+01, 0.0, 5.0000000000, 10.0000000000, 60.0000000000
           1, 0.00000000e+00, 0.00000000e+00, 0.00000000e+00, 0.00000000e+00, 0.00000000e+00, 0.0, -1.09979962e+01, -1.37182165e+01, -1.43720076e+01, -1.62213617e+01, 0.0, 5.0000000000, 10.0000000000, 60.0000000000
           2, 0.00000000e+00, 0.00000000e+00, 0.00000000e+00, 0.00000000e+00, 0.00000000e+00, 0.0, -1.10606830e+01, -1.39651339e+01, -1.48307280e+01, -1.63850478e+01, 0.0, 5.0000000000, 10.0000000000, 60.0000000000
           3, 0.00000000e+00, 0.00000000e+00, 0.00000000e+00, 0.00000000e+00, 0.00000000e+00, 0.0, -1.11334866e+01, -1.40359178e+01, -1.47326999e+01, -1.65299752e+01, 0.0, 5.0000000000, 10.0000000000, 60.0000000000
           4, 0.00000000e+00, 0.00000000e+00, 0.00000000e+00, 0.00000000e+00, 0.00000000e+00, 0.0, -1.11979707e+01, -1.40822629e+01, -1.49007446e+01, -1.66220731e+01, 0.0, 5.0000000000, 10.0000000000, 60.0000000000
           5, 0.00000000e+00, 0.00000000e+00, 0.00000000e+00, 0.00000000e+00, 0.00000000e+00, 0.0, -1.12531499e+01, -1.41233657e+01, -1.50698799e+01, -1.66699655e+01, 0.0, 5.0000000000, 10.0000000000, 60.0000000000
           6, 0.00000000e+00, 0.00000000e+00, 0.00000000e+00, 0.00000000e+00, 0.00000000e+00, 0.0, -1.13028232e+01, -1.41539676e+01, -1.51713023e+01, -1.67002948e+01, 0.0, 5.0000000000, 10.0000000000, 60.0000000000
           7, 0.00000000e+00, 0.00000000e+00, 0.00000000e+00, 0.00000000e+00, 0.00000000e+00, 0.0, -1.13504377e+01, -1.41845635e+01, -1.52504932e+01, -1.67295042e+01, 0.0, 5.0000000000, 10.0000000000, 60.0000000000
           8, 0.00000000e+00, 0.00000000e+00, 0.00000000e+00, 0.00000000e+00, 0.00000000e+00, 0.0, -1.13976681e+01, -1.42260523e+01, -1.53217623e+01, -1.67610702e+01, 0.0, 5.0000000000, 10.0000000000, 60.0000000000
           9, 0.00000000e+00, 0.00000000e+00, 0.00000000e+00, 0.00000000e+00, 0.00000000e+00, 0.0, -1.14450956e+01, -1.42869118e+01, -1.53892685e+01, -1.67926802e+01, 0.0, 5.0000000000, 10.0000000000, 60.0000000000
          10, 0.00000000e+00, 0.00000000e+00, 0.00000000e+00, 0.00000000e+00, 0.00000000e+00, 0.0, -1.14931715e+01, -1.43734793e+01, -1.54488339e+01, -1.68222280e+01, 0.0, 5.0000000000, 10.0000000000, 60.0000000000
          11, 0.00000000e+00, 0.00000000e+00, 0.00000000e+00, 0.00000000e+00, 0.00000000e+00, 0.0, -1.15427236e+01, -1.44819452e+01, -1.54826945e+01, -1.68506914e+01, 0.0, 5.0000000000, 10.0000000000, 60.0000000000
          12, 0.00000000e+00, 0.00000000e+00, 0.00000000e+00, 0.00000000e+00, 0.00000000e+00, 0.0, -1.15949106e+01, -1.45687967e+01, -1.54819793e+01, -1.68815595e+01, 0.0, 5.0000000000, 10.0000000000, 60.0000000000
          13, 0.00000000e+00, 0.00000000e+00, 0.00000000e+00, 0.00000000e+00, 0.00000000e+00, 0.0, -1.16505397e+01, -1.45553181e+01, -1.54676463e+01, -1.69182669e+01, 0.0, 5.0000000000, 10.0000000000, 60.0000000000
          14, 0.00000000e+00, 0.00000000e+00, 0.00000000e+00, 0.00000000e+00, 0.00000000e+00, 0.0, -1.17081809e+01, -1.44708953e+01, -1.54683761e+01, -1.69615210e+01, 0.0, 5.0000000000, 10.0000000000, 60.0000000000
          15, 0.00000000e+00, 0.00000000e+00, 0.00000000e+00, 0.00000000e+00, 0.00000000e+00, 0.0, -1.17600042e+01, -1.43892935e+01, -1.55015458e+01, -1.70067361e+01, 0.0, 5.0000000000, 10.0000000000, 60.0000000000
          16, 0.00000000e+00, 0.00000000e+00, 0.00000000e+00, 0.00000000e+00, 0.00000000e+00, 0.0, -1.17871859e+01, -1.43310451e+01, -1.55755737e+01, -1.70417418e+01, 0.0, 5.0000000000, 10.0000000000, 60.0000000000
          17, 0.00000000e+00, 0.00000000e+00, 0.00000000e+00, 0.00000000e+00, 0.00000000e+00, 0.0, -1.17688677e+01, -1.42938296e+01, -1.56926363e+01, -1.70497542e+01, 0.0, 5.0000000000, 10.0000000000, 60.0000000000
          18, 0.00000000e+00, 0.00000000e+00, 0.00000000e+00, 0.00000000e+00, 0.00000000e+00, 0.0, -1.17081198e+01, -1.42717009e+01, -1.58344367e+01, -1.70233437e+01, 0.0, 5.0000000000, 10.0000000000, 60.0000000000
          19, 0.00000000e+00, 0.00000000e+00, 0.00000000e+00, 0.00000000e+00, 0.00000000e+00, 0.0, -1.16293991e+01, -1.42597402e+01, -1.59197829e+01, -1.69731256e+01, 0.0, 5.0000000000, 10.0000000000, 60.0000000000
          20, 0.00000000e+00, 0.00000000e+00, 0.00000000e+00, 0.00000000e+00, 0.00000000e+00, 0.0, -1.15526473e+01, -1.42550592e+01, -1.58920915e+01, -1.69158884e+01, 0.0, 5.0000000000, 10.0000000000, 60.0000000000
          21, 0.00000000e+00, 0.00000000e+00, 0.00000000e+00, 0.00000000e+00, 0.00000000e+00, 0.0, -1.14867057e+01, -1.42566573e+01, -1.58378114e+01, -1.68629663e+01, 0.0, 5.0000000000, 10.0000000000, 60.0000000000
          22, 0.00000000e+00, 0.00000000e+00, 0.00000000e+00, 0.00000000e+00, 0.00000000e+00, 0.0, -1.14341609e+01, -1.42647224e+01, -1.58091164e+01, -1.68195333e+01, 0.0, 5.0000000000, 10.0000000000, 60.0000000000
          23, 0.00000000e+00, 0.00000000e+00, 0.00000000e+00, 0.00000000e+00, 0.00000000e+00, 0.0, -1.13951153e+01, -1.42798457e+01, -1.58082209e+01, -1.67873005e+01, 0.0, 5.0000000000, 10.0000000000, 60.0000000000
          24, 0.00000000e+00, 0.00000000e+00, 0.00000000e+00, 0.00000000e+00, 0.00000000e+00, 0.0, -1.13688063e+01, -1.43024706e+01, -1.58258366e+01, -1.67663970e+01, 0.0, 5.0000000000, 10.0000000000, 60.0000000000
          25, 0.00000000e+00, 0.00000000e+00, 0.00000000e+00, 0.00000000e+00, 0.00000000e+00, 0.0, -1.13541928e+01, -1.43326221e+01, -1.58526627e+01, -1.67562568e+01, 0.0, 5.0000000000, 10.0000000000, 60.0000000000
          26, 0.00000000e+00, 0.00000000e+00, 0.00000000e+00, 0.00000000e+00, 0.00000000e+00, 0.0, -1.13501494e+01, -1.43698078e+01, -1.58838612e+01, -1.67559888e+01, 0.0, 5.0000000000, 10.0000000000, 60.0000000000
          27, 0.00000000e+00, 0.00000000e+00, 0.00000000e+00, 0.00000000e+00, 0.00000000e+00, 0.0, -1.13555253e+01, -1.44129696e+01, -1.59210910e+01, -1.67645324e+01, 0.0, 5.0000000000, 10.0000000000, 60.0000000000
          28, 0.00000000e+00, 0.00000000e+00, 0.00000000e+00, 0.00000000e+00, 0.00000000e+00, 0.0, -1.13691587e+01, -1.44604259e+01, -1.59712591e+01, -1.67807292e+01, 0.0, 5.0000000000, 10.0000000000, 60.0000000000
          29, 0.00000000e+00, 0.00000000e+00, 0.00000000e+00, 0.00000000e+00, 0.00000000e+00, 0.0, -1.13898777e+01, -1.45098180e+01, -1.60434680e+01, -1.68033616e+01, 0.0, 5.0000000000, 10.0000000000, 60.0000000000
          30, 0.00000000e+00, 0.00000000e+00, 0.00000000e+00, 0.00000000e+00, 0.00000000e+00, 0.0, -1.14164957e+01, -1.45581587e+01, -1.61455204e+01, -1.68311785e+01, 0.0, 5.0000000000, 10.0000000000, 60.0000000000
          31, 0.00000000e+00, 0.00000000e+00, 0.00000000e+00, 0.00000000e+00, 0.00000000e+00, 0.0, -1.14478133e+01, -1.46021572e+01, -1.62726349e+01, -1.68629257e+01, 0.0, 5.0000000000, 10.0000000000, 60.0000000000
          32, 0.00000000e+00, 0.00000000e+00, 0.00000000e+00, 0.00000000e+00, 0.00000000e+00, 0.0, -1.14826322e+01, -1.46389292e+01, -1.63629079e+01, -1.68973891e+01, 0.0, 5.0000000000, 10.0000000000, 60.0000000000
          33, 0.00000000e+00, 0.00000000e+00, 0.00000000e+00, 0.00000000e+00, 0.00000000e+00, 0.0, -1.15197838e+01, -1.46668806e+01, -1.63214811e+01, -1.69334471e+01, 0.0, 5.0000000000, 10.0000000000, 60.0000000000
          34, 0.00000000e+00, 0.00000000e+00, 0.00000000e+00, 0.00000000e+00, 0.00000000e+00, 0.0, -1.15581671e+01, -1.46861996e+01, -1.62194219e+01, -1.69701198e+01, 0.0, 5.0000000000, 10.0000000000, 60.0000000000
          35, 0.00000000e+00, 0.00000000e+00, 0.00000000e+00, 0.00000000e+00, 0.00000000e+00, 0.0, -1.15967950e+01, -1.46985617e+01, -1.61369854e+01, -1.70066076e+01, 0.0, 5.0000000000, 10.0000000000, 60.0000000000
          36, 0.00000000e+00, 0.00000000e+00, 0.00000000e+00, 0.00000000e+00, 0.00000000e+00, 0.0, -1.16348384e+01, -1.47063053e+01, -1.60873191e+01, -1.70423099e+01, 0.0, 5.0000000000, 10.0000000000, 60.0000000000
          37, 0.00000000e+00, 0.00000000e+00, 0.00000000e+00, 0.00000000e+00, 0.00000000e+00, 0.0, -1.16716614e+01, -1.47116707e+01, -1.60668513e+01, -1.70768254e+01, 0.0, 5.0000000000, 10.0000000000, 60.0000000000
          38, 0.00000000e+00, 0.00000000e+00, 0.00000000e+00, 0.00000000e+00, 0.00000000e+00, 0.0, -1.17068398e+01, -1.47164266e+01, -1.60709818e+01, -1.71099367e+01, 0.0, 5.0000000000, 10.0000000000, 60.0000000000
          39, 0.00000000e+00, 0.00000000e+00, 0.00000000e+00, 0.00000000e+00, 0.00000000e+00, 0.0, -1.17401580e+01, -1.47218310e+01, -1.60963104e+01, -1.71415846e+01, 0.0, 5.0000000000, 10.0000000000, 60.0000000000
          40, 0.00000000e+00, 0.00000000e+00, 0.00000000e+00, 0.00000000e+00, 0.00000000e+00, 0.0, -1.17715852e+01, -1.47287491e+01, -1.61406066e+01, -1.71718405e+01, 0.0, 5.0000000000, 10.0000000000, 60.0000000000
          41, 0.00000000e+00, 0.00000000e+00, 0.00000000e+00, 0.00000000e+00, 0.00000000e+00, 0.0, -1.18012383e+01, -1.47377982e+01, -1.62022299e+01, -1.72008760e+01, 0.0, 5.0000000000, 10.0000000000, 60.0000000000
          42, 0.00000000e+00, 0.00000000e+00, 0.00000000e+00, 0.00000000e+00, 0.00000000e+00, 0.0, -1.18293390e+01, -1.47494610e+01, -1.62785368e+01, -1.72289353e+01, 0.0, 5.0000000000, 10.0000000000, 60.0000000000
          43, 0.00000000e+00, 0.00000000e+00, 0.00000000e+00, 0.00000000e+00, 0.00000000e+00, 0.0, -1.18561722e+01, -1.47641586e+01, -1.63615658e+01, -1.72563075e+01, 0.0, 5.0000000000, 10.0000000000, 60.0000000000
          44, 0.00000000e+00, 0.00000000e+00, 0.00000000e+00, 0.00000000e+00, 0.00000000e+00, 0.0, -1.18820506e+01, -1.47822882e+01, -1.64301959e+01, -1.72833006e+01, 0.0, 5.0000000000, 10.0000000000, 60.0000000000
          45, 0.00000000e+00, 0.00000000e+00, 0.00000000e+00, 0.00000000e+00, 0.00000000e+00, 0.0, -1.19072886e+01, -1.48042376e+01, -1.64533358e+01, -1.73102176e+01, 0.0, 5.0000000000, 10.0000000000, 60.0000000000
          46, 0.00000000e+00, 0.00000000e+00, 0.00000000e+00, 0.00000000e+00, 0.00000000e+00, 0.0, -1.19321840e+01, -1.48303862e+01, -1.64256646e+01, -1.73373352e+01, 0.0, 5.0000000000, 10.0000000000, 60.0000000000
          47, 0.00000000e+00, 0.00000000e+00, 0.00000000e+00, 0.00000000e+00, 0.00000000e+00, 0.0, -1.19570068e+01, -1.48610993e+01, -1.63765700e+01, -1.73648871e+01, 0.0, 5.0000000000, 10.0000000000, 60.0000000000
          48, 0.00000000e+00, 0.00000000e+00, 0.00000000e+00, 0.00000000e+00, 0.00000000e+00, 0.0, -1.19819934e+01, -1.48967207e+01, -1.63321395e+01, -1.73930525e+01, 0.0, 5.0000000000, 10.0000000000, 60.0000000000
          49, 0.00000000e+00, 0.00000000e+00, 0.00000000e+00, 0.00000000e+00, 0.00000000e+00, 0.0, -1.20073435e+01, -1.49375661e+01, -1.63032458e+01, -1.74219475e+01, 0.0, 5.0000000000, 10.0000000000, 60.0000000000
          50, 0.00000000e+00, 0.00000000e+00, 0.00000000e+00, 0.00000000e+00, 0.00000000e+00, 0.0, -1.20332174e+01, -1.49839198e+01, -1.62929000e+01, -1.74516197e+01, 0.0, 5.0000000000, 10.0000000000, 60.0000000000
          51, 0.00000000e+00, 0.00000000e+00, 0.00000000e+00, 0.00000000e+00, 0.00000000e+00, 0.0, -1.20597353e+01, -1.50360319e+01, -1.63016529e+01, -1.74820485e+01, 0.0, 5.0000000000, 10.0000000000, 60.0000000000
          52, 0.00000000e+00, 0.00000000e+00, 0.00000000e+00, 0.00000000e+00, 0.00000000e+00, 0.0, -1.20869809e+01, -1.50941157e+01, -1.63297127e+01, -1.75131612e+01, 0.0, 5.0000000000, 10.0000000000, 60.0000000000
          53, 0.00000000e+00, 0.00000000e+00, 0.00000000e+00, 0.00000000e+00, 0.00000000e+00, 0.0, -1.21150065e+01, -1.51583416e+01, -1.63775893e+01, -1.75448544e+01, 0.0, 5.0000000000, 10.0000000000, 60.0000000000
          54, 0.00000000e+00, 0.00000000e+00, 0.00000000e+00, 0.00000000e+00, 0.00000000e+00, 0.0, -1.21438332e+01, -1.52288276e+01, -1.64459425e+01, -1.75770059e+01, 0.0, 5.0000000000, 10.0000000000, 60.0000000000
          55, 0.00000000e+00, 0.00000000e+00, 0.00000000e+00, 0.00000000e+00, 0.00000000e+00, 0.0, -1.21734481e+01, -1.53056235e+01, -1.65340434e+01, -1.76094779e+01, 0.0, 5.0000000000, 10.0000000000, 60.0000000000
          56, 0.00000000e+00, 0.00000000e+00, 0.00000000e+00, 0.00000000e+00, 0.00000000e+00, 0.0, -1.22038012e+01, -1.53886848e+01, -1.66340102e+01, -1.76421219e+01, 0.0, 5.0000000000, 10.0000000000, 60.0000000000
          57, 0.00000000e+00, 0.00000000e+00, 0.00000000e+00, 0.00000000e+00, 0.00000000e+00, 0.0, -1.22348070e+01, -1.54778292e+01, -1.67170736e+01, -1.76747868e+01, 0.0, 5.0000000000, 10.0000000000, 60.0000000000
          58, 0.00000000e+00, 0.00000000e+00, 0.00000000e+00, 0.00000000e+00, 0.00000000e+00, 0.0, -1.22663437e+01, -1.55726686e+01, -1.67368207e+01, -1.77073254e+01, 0.0, 5.0000000000, 10.0000000000, 60.0000000000
          59, 0.00000000e+00, 0.00000000e+00, 0.00000000e+00, 0.00000000e+00, 0.00000000e+00, 0.0, -1.22982516e+01, -1.56725142e+01, -1.66935091e+01, -1.77395903e+01, 0.0, 5.0000000000, 10.0000000000, 60.0000000000
          60, 0.00000000e+00, 0.00000000e+00, 0.00000000e+00, 0.00000000e+00, 0.00000000e+00, 0.0, -1.23303315e+01, -1.57762565e+01, -1.66334822e+01, -1.77714260e+01, 0.0, 5.0000000000, 10.0000000000, 60.0000000000
          61, 0.00000000e+00, 0.00000000e+00, 0.00000000e+00, 0.00000000e+00, 0.00000000e+00, 0.0, -1.23623484e+01, -1.58822441e+01, -1.65852202e+01, -1.78026667e+01, 0.0, 5.0000000000, 10.0000000000, 60.0000000000
          62, 0.00000000e+00, 0.00000000e+00, 0.00000000e+00, 0.00000000e+00, 0.00000000e+00, 0.0, -1.23940395e+01, -1.59882133e+01, -1.65566035e+01, -1.78331416e+01, 0.0, 5.0000000000, 10.0000000000, 60.0000000000
          63, 0.00000000e+00, 0.00000000e+00, 0.00000000e+00, 0.00000000e+00, 0.00000000e+00, 0.0, -1.24251230e+01, -1.60913567e+01, -1.65485628e+01, -1.78626808e+01, 0.0, 5.0000000000, 10.0000000000, 60.0000000000
          64, 0.00000000e+00, 0.00000000e+00, 0.00000000e+00, 0.00000000e+00, 0.00000000e+00, 0.0, -1.24553096e+01, -1.61886009e+01, -1.65607887e+01, -1.78911223e+01, 0.0, 5.0000000000, 10.0000000000, 60.0000000000
          65, 0.00000000e+00, 0.00000000e+00, 0.00000000e+00, 0.00000000e+00, 0.00000000e+00, 0.0, -1.24843194e+01, -1.62770417e+01, -1.65933582e+01, -1.79183222e+01, 0.0, 5.0000000000, 10.0000000000, 60.0000000000
          66, 0.00000000e+00, 0.00000000e+00, 0.00000000e+00, 0.00000000e+00, 0.00000000e+00, 0.0, -1.25119025e+01, -1.63543239e+01, -1.66471495e+01, -1.79441694e+01, 0.0, 5.0000000000, 10.0000000000, 60.0000000000
          67, 0.00000000e+00, 0.00000000e+00, 0.00000000e+00, 0.00000000e+00, 0.00000000e+00, 0.0, -1.25378642e+01, -1.64187922e+01, -1.67237526e+01, -1.79686000e+01, 0.0, 5.0000000000, 10.0000000000, 60.0000000000
          68, 0.00000000e+00, 0.00000000e+00, 0.00000000e+00, 0.00000000e+00, 0.00000000e+00, 0.0, -1.25620850e+01, -1.64695722e+01, -1.68241708e+01, -1.79916069e+01, 0.0, 5.0000000000, 10.0000000000, 60.0000000000
          69, 0.00000000e+00, 0.00000000e+00, 0.00000000e+00, 0.00000000e+00, 0.00000000e+00, 0.0, -1.25845348e+01, -1.65068835e+01, -1.69422798e+01, -1.80132425e+01, 0.0, 5.0000000000, 10.0000000000, 60.0000000000
          70, 0.00000000e+00, 0.00000000e+00, 0.00000000e+00, 0.00000000e+00, 0.00000000e+00, 0.0, -1.26052769e+01, -1.65324447e+01, -1.70429890e+01, -1.80336146e+01, 0.0, 5.0000000000, 10.0000000000, 60.0000000000
          71, 0.00000000e+00, 0.00000000e+00, 0.00000000e+00, 0.00000000e+00, 0.00000000e+00, 0.0, -1.26244619e+01, -1.65494030e+01, -1.70580817e+01, -1.80528785e+01, 0.0, 5.0000000000, 10.0000000000, 60.0000000000
          72, 0.00000000e+00, 0.00000000e+00, 0.00000000e+00, 0.00000000e+00, 0.00000000e+00, 0.0, -1.26423134e+01, -1.65615870e+01, -1.69946677e+01, -1.80712265e+01, 0.0, 5.0000000000, 10.0000000000, 60.0000000000
          73, 0.00000000e+00, 0.00000000e+00, 0.00000000e+00, 0.00000000e+00, 0.00000000e+00, 0.0, -1.26591065e+01, -1.65725685e+01, -1.69207945e+01, -1.80888763e+01, 0.0, 5.0000000000, 10.0000000000, 60.0000000000
          74, 0.00000000e+00, 0.00000000e+00, 0.00000000e+00, 0.00000000e+00, 0.00000000e+00, 0.0, -1.26751455e+01, -1.65850569e+01, -1.68662835e+01, -1.81060584e+01, 0.0, 5.0000000000, 10.0000000000, 60.0000000000
          75, 0.00000000e+00, 0.00000000e+00, 0.00000000e+00, 0.00000000e+00, 0.00000000e+00, 0.0, -1.26907415e+01, -1.66007187e+01, -1.68355665e+01, -1.81230050e+01, 0.0, 5.0000000000, 10.0000000000, 60.0000000000
          76, 0.00000000e+00, 0.00000000e+00, 0.00000000e+00, 0.00000000e+00, 0.00000000e+00, 0.0, -1.27061938e+01, -1.66202331e+01, -1.68272934e+01, -1.81399403e+01, 0.0, 5.0000000000, 10.0000000000, 60.0000000000
          77, 0.00000000e+00, 0.00000000e+00, 0.00000000e+00, 0.00000000e+00, 0.00000000e+00, 0.0, -1.27217772e+01, -1.66434060e+01, -1.68396797e+01, -1.81570733e+01, 0.0, 5.0000000000, 10.0000000000, 60.0000000000
          78, 0.00000000e+00, 0.00000000e+00, 0.00000000e+00, 0.00000000e+00, 0.00000000e+00, 0.0, -1.27377328e+01, -1.66692766e+01, -1.68713235e+01, -1.81745912e+01, 0.0, 5.0000000000, 10.0000000000, 60.0000000000
          79, 0.00000000e+00, 0.00000000e+00, 0.00000000e+00, 0.00000000e+00, 0.00000000e+00, 0.0, -1.27542647e+01, -1.66962560e+01, -1.69207018e+01, -1.81926566e+01, 0.0, 5.0000000000, 10.0000000000, 60.0000000000
          80, 0.00000000e+00, 0.00000000e+00, 0.00000000e+00, 0.00000000e+00, 0.00000000e+00, 0.0, -1.27715389e+01, -1.67223960e+01, -1.69844974e+01, -1.82114043e+01, 0.0, 5.0000000000, 10.0000000000, 60.0000000000
          81, 0.00000000e+00, 0.00000000e+00, 0.00000000e+00, 0.00000000e+00, 0.00000000e+00, 0.0, -1.27896853e+01, -1.67458634e+01, -1.70538006e+01, -1.82309407e+01, 0.0, 5.0000000000, 10.0000000000, 60.0000000000
          82, 0.00000000e+00, 0.00000000e+00, 0.00000000e+00, 0.00000000e+00, 0.00000000e+00, 0.0, -1.28088000e+01, -1.67655348e+01, -1.71091833e+01, -1.82513421e+01, 0.0, 5.0000000000, 10.0000000000, 60.0000000000
          83, 0.00000000e+00, 0.00000000e+00, 0.00000000e+00, 0.00000000e+00, 0.00000000e+00, 0.0, -1.28289480e+01, -1.67814241e+01, -1.71268693e+01, -1.82726541e+01, 0.0, 5.0000000000, 10.0000000000, 60.0000000000
          84, 0.00000000e+00, 0.00000000e+00, 0.00000000e+00, 0.00000000e+00, 0.00000000e+00, 0.0, -1.28501665e+01, -1.67946603e+01, -1.71043985e+01, -1.82948925e+01, 0.0, 5.0000000000, 10.0000000000, 60.0000000000
          85, 0.00000000e+00, 0.00000000e+00, 0.00000000e+00, 0.00000000e+00, 0.00000000e+00, 0.0, -1.28724683e+01, -1.68070370e+01, -1.70638239e+01, -1.83180476e+01, 0.0, 5.0000000000, 10.0000000000, 60.0000000000
          86, 0.00000000e+00, 0.00000000e+00, 0.00000000e+00, 0.00000000e+00, 0.00000000e+00, 0.0, -1.28958453e+01, -1.68204242e+01, -1.70257585e+01, -1.83420890e+01, 0.0, 5.0000000000, 10.0000000000, 60.0000000000
          87, 0.00000000e+00, 0.00000000e+00, 0.00000000e+00, 0.00000000e+00, 0.00000000e+00, 0.0, -1.29202696e+01, -1.68363121e+01, -1.69998946e+01, -1.83669686e+01, 0.0, 5.0000000000, 10.0000000000, 60.0000000000
          88, 0.00000000e+00, 0.00000000e+00, 0.00000000e+00, 0.00000000e+00, 0.00000000e+00, 0.0, -1.29456925e+01, -1.68555594e+01, -1.69893617e+01, -1.83926198e+01, 0.0, 5.0000000000, 10.0000000000, 60.0000000000
          89, 0.00000000e+00, 0.00000000e+00, 0.00000000e+00, 0.00000000e+00, 0.00000000e+00, 0.0, -1.29720418e+01, -1.68782909e+01, -1.69947753e+01, -1.84189555e+01, 0.0, 5.0000000000, 10.0000000000, 60.0000000000
          90, 0.00000000e+00, 0.00000000e+00, 0.00000000e+00, 0.00000000e+00, 0.00000000e+00, 0.0, -1.29992177e+01, -1.69038719e+01, -1.70159779e+01, -1.84458640e+01, 0.0, 5.0000000000, 10.0000000000, 60.0000000000
          91, 0.00000000e+00, 0.00000000e+00, 0.00000000e+00, 0.00000000e+00, 0.00000000e+00, 0.0, -1.30270878e+01, -1.69309501e+01, -1.70524961e+01, -1.84732069e+01, 0.0, 5.0000000000, 10.0000000000, 60.0000000000
          92, 0.00000000e+00, 0.00000000e+00, 0.00000000e+00, 0.00000000e+00, 0.00000000e+00, 0.0, -1.30554828e+01, -1.69576287e+01, -1.71032325e+01, -1.85008165e+01, 0.0, 5.0000000000, 10.0000000000, 60.0000000000
          93, 0.00000000e+00, 0.00000000e+00, 0.00000000e+00, 0.00000000e+00, 0.00000000e+00, 0.0, -1.30841937e+01, -1.69818687e+01, -1.71652531e+01, -1.85284953e+01, 0.0, 5.0000000000, 10.0000000000, 60.0000000000
          94, 0.00000000e+00, 0.00000000e+00, 0.00000000e+00, 0.00000000e+00, 0.00000000e+00, 0.0, -1.31129723e+01, -1.70021131e+01, -1.72312122e+01, -1.85560191e+01, 0.0, 5.0000000000, 10.0000000000, 60.0000000000
          95, 0.00000000e+00, 0.00000000e+00, 0.00000000e+00, 0.00000000e+00, 0.00000000e+00, 0.0, -1.31415352e+01, -1.70178901e+01, -1.72864614e+01, -1.85831432e+01, 0.0, 5.0000000000, 10.0000000000, 60.0000000000
          96, 0.00000000e+00, 0.00000000e+00, 0.00000000e+00, 0.00000000e+00, 0.00000000e+00, 0.0, -1.31695746e+01, -1.70300205e+01, -1.73130067e+01, -1.86096132e+01, 0.0, 5.0000000000, 10.0000000000, 60.0000000000
          97, 0.00000000e+00, 0.00000000e+00, 0.00000000e+00, 0.00000000e+00, 0.00000000e+00, 0.0, -1.31967744e+01, -1.70402803e+01, -1.73056499e+01, -1.86351809e+01, 0.0, 5.0000000000, 10.0000000000, 60.0000000000
          98, 0.00000000e+00, 0.00000000e+00, 0.00000000e+00, 0.00000000e+00, 0.00000000e+00, 0.0, -1.32228328e+01, -1.70507652e+01, -1.72780942e+01, -1.86596223e+01, 0.0, 5.0000000000, 10.0000000000, 60.0000000000
          99, 0.00000000e+00, 0.00000000e+00, 0.00000000e+00, 0.00000000e+00, 0.00000000e+00, 0.0, -1.32474874e+01, -1.70633265e+01, -1.72474734e+01, -1.86827579e+01, 0.0, 5.0000000000, 10.0000000000, 60.0000000000
         100, 0.00000000e+00, 0.00000000e+00, 0.00000000e+00, 0.00000000e+00, 0.00000000e+00, 0.0, -1.32705408e+01, -1.70792491e+01, -1.72238008e+01, -1.87044712e+01, 0.0, 5.0000000000, 10.0000000000, 60.0000000000
         101, 0.00000000e+00, 0.00000000e+00, 0.00000000e+00, 0.00000000e+00, 0.00000000e+00, 0.0, -1.32918813e+01, -1.70991287e+01, -1.72108203e+01, -1.87247211e+01, 0.0, 5.0000000000, 10.0000000000, 60.0000000000
         102, 0.00000000e+00, 0.00000000e+00, 0.00000000e+00, 0.00000000e+00, 0.00000000e+00, 0.0, -1.33114940e+01, -1.71228363e+01, -1.72089726e+01, -1.87435471e+01, 0.0, 5.0000000000, 10.0000000000, 60.0000000000
         103, 0.00000000e+00, 0.00000000e+00, 0.00000000e+00, 0.00000000e+00, 0.00000000e+00, 0.0, -1.33294605e+01, -1.71495028e+01, -1.72170205e+01, -1.87610646e+01, 0.0, 5.0000000000, 10.0000000000, 60.0000000000
         104, 0.00000000e+00, 0.00000000e+00, 0.00000000e+00, 0.00000000e+00, 0.00000000e+00, 0.0, -1.33459479e+01, -1.71775351e+01, -1.72325729e+01, -1.87774519e+01, 0.0, 5.0000000000, 10.0000000000, 60.0000000000
         105, 0.00000000e+00, 0.00000000e+00, 0.00000000e+00, 0.00000000e+00, 0.00000000e+00, 0.0, -1.33611894e+01, -1.72047551e+01, -1.72521435e+01, -1.87929316e+01, 0.0, 5.0000000000, 10.0000000000, 60.0000000000
         106, 0.00000000e+00, 0.00000000e+00, 0.00000000e+00, 0.00000000e+00, 0.00000000e+00, 0.0, -1.33754607e+01, -1.72287913e+01, -1.72713240e+01, -1.88077506e+01, 0.0, 5.0000000000, 10.0000000000, 60.0000000000
         107, 0.00000000e+00, 0.00000000e+00, 0.00000000e+00, 0.00000000e+00, 0.00000000e+00, 0.0, -1.33890575e+01, -1.72477418e+01, -1.72856228e+01, -1.88221620e+01, 0.0, 5.0000000000, 10.0000000000, 60.0000000000
         108, 0.00000000e+00, 0.00000000e+00, 0.00000000e+00, 0.00000000e+00, 0.00000000e+00, 0.0, -1.34022762e+01, -1.72608505e+01, -1.72920689e+01, -1.88364104e+01, 0.0, 5.0000000000, 10.0000000000, 60.0000000000
         109, 0.00000000e+00, 0.00000000e+00, 0.00000000e+00, 0.00000000e+00, 0.00000000e+00, 0.0, -1.34153998e+01, -1.72687562e+01, -1.72905925e+01, -1.88507219e+01, 0.0, 5.0000000000, 10.0000000000, 60.0000000000
         110, 0.00000000e+00, 0.00000000e+00, 0.00000000e+00, 0.00000000e+00, 0.00000000e+00, 0.0, -1.34286878e+01, -1.72731169e+01, -1.72838566e+01, -1.88652993e+01, 0.0, 5.0000000000, 10.0000000000, 60.0000000000
         111, 0.00000000e+00, 0.00000000e+00, 0.00000000e+00, 0.00000000e+00, 0.00000000e+00, 0.0, -1.34423714e+01, -1.72758924e+01, -1.72756915e+01, -1.88803191e+01, 0.0, 5.0000000000, 10.0000000000, 60.0000000000
         112, 0.00000000e+00, 0.00000000e+00, 0.00000000e+00, 0.00000000e+00, 0.00000000e+00, 0.0, -1.34566503e+01, -1.72787238e+01, -1.72695404e+01, -1.88959320e+01, 0.0, 5.0000000000, 10.0000000000, 60.0000000000
         113, 0.00000000e+00, 0.00000000e+00, 0.00000000e+00, 0.00000000e+00, 0.00000000e+00, 0.0, -1.34716923e+01, -1.72826232e+01, -1.72677375e+01, -1.89122633e+01, 0.0, 5.0000000000, 10.0000000000, 60.0000000000
         114, 0.00000000e+00, 0.00000000e+00, 0.00000000e+00, 0.00000000e+00, 0.00000000e+00, 0.0, -1.34876334e+01, -1.72879324e+01, -1.72714452e+01, -1.89294142e+01, 0.0, 5.0000000000, 10.0000000000, 60.0000000000
         115, 0.00000000e+00, 0.00000000e+00, 0.00000000e+00, 0.00000000e+00, 0.00000000e+00, 0.0, -1.35045781e+01, -1.72944396e+01, -1.72808148e+01, -1.89474621e+01, 0.0, 5.0000000000, 10.0000000000, 60.0000000000
         116, 0.00000000e+00, 0.00000000e+00, 0.00000000e+00, 0.00000000e+00, 0.00000000e+00, 0.0, -1.35226007e+01, -1.73015755e+01, -1.72951262e+01, -1.89664612e+01, 0.0, 5.0000000000, 10.0000000000, 60.0000000000
         117, 0.00000000e+00, 0.00000000e+00, 0.00000000e+00, 0.00000000e+00, 0.00000000e+00, 0.0, -1.35417460e+01, -1.73086496e+01, -1.73128588e+01, -1.89864415e+01, 0.0, 5.0000000000, 10.0000000000, 60.0000000000
         118, 0.00000000e+00, 0.00000000e+00, 0.00000000e+00, 0.00000000e+00, 0.00000000e+00, 0.0, -1.35620300e+01, -1.73150910e+01, -1.73317799e+01, -1.90074087e+01, 0.0, 5.0000000000, 10.0000000000, 60.0000000000
         119, 0.00000000e+00, 0.00000000e+00, 0.00000000e+00, 0.00000000e+00, 0.00000000e+00, 0.0, -1.35834410e+01, -1.73206385e+01, -1.73492118e+01, -1.90293429e+01, 0.0, 5.0000000000, 10.0000000000, 60.0000000000
         120, 0.00000000e+00, 0.00000000e+00, 0.00000000e+00, 0.00000000e+00, 0.00000000e+00, 0.0, -1.36059407e+01, -1.73254248e+01, -1.73626103e+01, -1.90521981e+01, 0.0, 5.0000000000, 10.0000000000, 60.0000000000
         121, 0.00000000e+00, 0.00000000e+00, 0.00000000e+00, 0.00000000e+00, 0.00000000e+00, 0.0, -1.36294641e+01, -1.73299280e+01, -1.73703569e+01, -1.90759013e+01, 0.0, 5.0000000000, 10.0000000000, 60.0000000000
         122, 0.00000000e+00, 0.00000000e+00, 0.00000000e+00, 0.00000000e+00, 0.00000000e+00, 0.0, -1.36539207e+01, -1.73348251e+01, -1.73723312e+01, -1.91003524e+01, 0.0, 5.0000000000, 10.0000000000, 60.0000000000
         123, 0.00000000e+00, 0.00000000e+00, 0.00000000e+00, 0.00000000e+00, 0.00000000e+00, 0.0, -1.36791935e+01, -1.73408090e+01, -1.73698320e+01, -1.91254237e+01, 0.0, 5.0000000000, 10.0000000000, 60.0000000000
         124, 0.00000000e+00, 0.00000000e+00, 0.00000000e+00, 0.00000000e+00, 0.00000000e+00, 0.0, -1.37051391e+01, -1.73484295e+01, -1.73649067e+01, -1.91509612e+01, 0.0, 5.0000000000, 10.0000000000, 60.0000000000
         125, 0.00000000e+00, 0.00000000e+00, 0.00000000e+00, 0.00000000e+00, 0.00000000e+00, 0.0, -1.37315859e+01, -1.73579840e+01, -1.73595746e+01, -1.91767849e+01, 0.0, 5.0000000000, 10.0000000000, 60.0000000000
         126, 0.00000000e+00, 0.00000000e+00, 0.00000000e+00, 0.00000000e+00, 0.00000000e+00, 0.0, -1.37583343e+01, -1.73694591e+01, -1.73553339e+01, -1.92026926e+01, 0.0, 5.0000000000, 10.0000000000, 60.0000000000
         127, 0.00000000e+00, 0.00000000e+00, 0.00000000e+00, 0.00000000e+00, 0.00000000e+00, 0.0, -1.37851559e+01, -1.73825147e+01, -1.73530043e+01, -1.92284636e+01, 0.0, 5.0000000000, 10.0000000000, 60.0000000000
         128, 0.00000000e+00, 0.00000000e+00, 0.00000000e+00, 0.00000000e+00, 0.00000000e+00, 0.0, -1.38117967e+01, -1.73965084e+01, -1.73527819e+01, -1.92538662e+01, 0.0, 5.0000000000, 10.0000000000, 60.0000000000
         129, 0.00000000e+00, 0.00000000e+00, 0.00000000e+00, 0.00000000e+00, 0.00000000e+00, 0.0, -1.38379824e+01, -1.74105664e+01, -1.73543845e+01, -1.92786661e+01, 0.0, 5.0000000000, 10.0000000000, 60.0000000000
         130, 0.00000000e+00, 0.00000000e+00, 0.00000000e+00, 0.00000000e+00, 0.00000000e+00, 0.0, -1.38634291e+01, -1.74237112e+01, -1.73572266e+01, -1.93026387e+01, 0.0, 5.0000000000, 10.0000000000, 60.0000000000
         131, 0.00000000e+00, 0.00000000e+00, 0.00000000e+00, 0.00000000e+00, 0.00000000e+00, 0.0, -1.38878588e+01, -1.74350388e+01, -1.73606049e+01, -1.93255818e+01, 0.0, 5.0000000000, 10.0000000000, 60.0000000000
         132, 0.00000000e+00, 0.00000000e+00, 0.00000000e+00, 0.00000000e+00, 0.00000000e+00, 0.0, -1.39110198e+01, -1.74439070e+01, -1.73638774e+01, -1.93473296e+01, 0.0, 5.0000000000, 10.0000000000, 60.0000000000
         133, 0.00000000e+00, 0.00000000e+00, 0.00000000e+00, 0.00000000e+00, 0.00000000e+00, 0.0, -1.39327097e+01, -1.74500711e+01, -1.73666108e+01, -1.93677664e+01, 0.0, 5.0000000000, 10.0000000000, 60.0000000000
         134, 0.00000000e+00, 0.00000000e+00, 0.00000000e+00, 0.00000000e+00, 0.00000000e+00, 0.0, -1.39527967e+01, -1.74537072e+01, -1.73686594e+01, -1.93868365e+01, 0.0, 5.0000000000, 10.0000000000, 60.0000000000
         135, 0.00000000e+00, 0.00000000e+00, 0.00000000e+00, 0.00000000e+00, 0.00000000e+00, 0.0, -1.39712359e+01, -1.74553166e+01, -1.73701575e+01, -1.94045509e+01, 0.0, 5.0000000000, 10.0000000000, 60.0000000000
         136, 0.00000000e+00, 0.00000000e+00, 0.00000000e+00, 0.00000000e+00, 0.00000000e+00, 0.0, -1.39880757e+01, -1.74555595e+01, -1.73714320e+01, -1.94209869e+01, 0.0, 5.0000000000, 10.0000000000, 60.0000000000
         137, 0.00000000e+00, 0.00000000e+00, 0.00000000e+00, 0.00000000e+00, 0.00000000e+00, 0.0, -1.40034533e+01, -1.74550889e+01, -1.73728774e+01, -1.94362824e+01, 0.0, 5.0000000000, 10.0000000000, 60.0000000000