 VARIABLES = "X",  "Y"
 ZONE N=        6885 , E=       13377 , F=FEPOINT, ET=QUADRILATERAL
        0.9680203897       -0.2600796433
       -0.0020791968        0.0005472117
        3.0000000000       -1.2500000000
       -2.0000000000       -1.2500000000
        3.0000000000        1.2500000000
       -2.0000000000        1.2500000000
        0.9132721010       -0.2330926941
        0.8586552036       -0.2107966283
        0.8038898997       -0.1889626651
        0.7489564550       -0.1675565796
        0.6938585631       -0.1465765700
        0.6385919982       -0.1260417849
        0.5831448361       -0.1059937958
        0.5274971483       -0.0865000993
        0.4716210867       -0.0676577250
        0.4154805677       -0.0495999479
        0.3590315759       -0.0325068147
        0.3022340913       -0.0166261374
        0.2452107490       -0.0023435503
        0.1899546483        0.0094558238
        0.1430847836        0.0173722460
        0.1111044394        0.0212788723
        0.0873092760        0.0231133260
        0.0684480572        0.0236868721
        0.0531515882        0.0233695477
        0.0395263796        0.0222542249
        0.0272189926        0.0202349780
        0.0157537106        0.0168932493
        0.0051698368        0.0110735102
       -0.0009165819       -0.0125336159
        0.0057517021       -0.0231841462
        0.0146166035       -0.0321739561
        0.0250834088       -0.0404933591
        0.0377400089       -0.0489651937
        0.0534137284       -0.0580726612
        0.0743375664       -0.0687438606
        0.1024178293       -0.0813278689
        0.1424944048       -0.0970106936
        0.1945136318       -0.1146818209
        0.2517157577       -0.1316838142
        0.3101807025       -0.1471548295
        0.3690587151       -0.1612616578
        0.4281866525       -0.1742657176
        0.4874982462       -0.1863732742
        0.5469516486       -0.1977387353
        0.6065183196       -0.2084754240
        0.6661790787       -0.2186626623
        0.7259217102       -0.2283500646
        0.7857392749       -0.2375608205
        0.8456289371       -0.2462935405
        0.9056010688       -0.2545251719
        2.9398194532       -1.2500000000
        2.8796389064       -1.2500000000
        2.8194583596       -1.2500000000
        2.7592778127       -1.2500000000
        2.6990972659       -1.2500000000
        2.6389167191       -1.2500000000
        2.5787361723       -1.2500000000
        2.5185556255       -1.2500000000
        2.4583750787       -1.2500000000
        2.3981945319       -1.2500000000
        2.3380139850       -1.2500000000
        2.2778334382       -1.2500000000
        2.2176528914       -1.2500000000
        2.1574723446       -1.2500000000
        2.0972917978       -1.2500000000
        2.0371112510       -1.2500000000
        1.9769307041       -1.2500000000
        1.9167501573       -1.2500000000
        1.8565696105       -1.2500000000
        1.7963890637       -1.2500000000
        1.7362085169       -1.2500000000
        1.6760279701       -1.2500000000
        1.6158474233       -1.2500000000
        1.5556668764       -1.2500000000
        1.4954863296       -1.2500000000
        1.4353057828       -1.2500000000
        1.3751252360       -1.2500000000
        1.3149446892       -1.2500000000
        1.2547641424       -1.2500000000
        1.1945835956       -1.2500000000
        1.1344030487       -1.2500000000
        1.0742225019       -1.2500000000
        1.0140419551       -1.2500000000
        0.9538614083       -1.2500000000
        0.8936808615       -1.2500000000
        0.8335003147       -1.2500000000
        0.7733197678       -1.2500000000
        0.7131392210       -1.2500000000
        0.6529586742       -1.2500000000
        0.5927781274       -1.2500000000
        0.5325975806       -1.2500000000
        0.4724170338       -1.2500000000
        0.4122365292       -1.2500000000
        0.3520570337       -1.2500000000
        0.2918843096       -1.2500000000
        0.2317426242       -1.2500000000
        0.1717110376       -1.2500000000
        0.1119447110       -1.2500000000
        0.0526371224       -1.2500000000
       -0.0060801888       -1.2500000000
       -0.0642161669       -1.2500000000
       -0.1218807201       -1.2500000000
       -0.1792019050       -1.2500000000
       -0.2362866529       -1.2500000000
       -0.2933083056       -1.2500000000
       -0.3505374414       -1.2500000000
       -0.4078293830       -1.2500000000
       -0.4646660104       -1.2500000000
       -0.5209927459       -1.2500000000
       -0.5776071521       -1.2500000000
       -0.6343023802       -1.2500000000
       -0.6912596048       -1.2500000000
       -0.7482179495       -1.2500000000
       -0.8052894772       -1.2500000000
       -0.8622731897       -1.2500000000
       -0.9197321324       -1.2500000000
       -0.9781697805       -1.2500000000
       -1.0374734597       -1.2500000000
       -1.0973533888       -1.2500000000
       -1.1574779846       -1.2500000000
       -1.2176530949       -1.2500000000
       -1.2778334382       -1.2500000000
       -1.3380139850       -1.2500000000
       -1.3981945319       -1.2500000000
       -1.4583750787       -1.2500000000
       -1.5185556255       -1.2500000000
       -1.5787361723       -1.2500000000
       -1.6389167191       -1.2500000000
       -1.6990972659       -1.2500000000
       -1.7592778127       -1.2500000000
       -1.8194583596       -1.2500000000
       -1.8796389064       -1.2500000000
       -1.9398194532       -1.2500000000
        3.0000000000        1.1904761905
        3.0000000000        1.1309523810
        3.0000000000        1.0714285714
        3.0000000000        1.0119047619
        3.0000000000        0.9523809524
        3.0000000000        0.8928571429
        3.0000000000        0.8333333333
        3.0000000000        0.7738095238
        3.0000000000        0.7142857143
        3.0000000000        0.6547619048
        3.0000000000        0.5952380952
        3.0000000000        0.5357142857
        3.0000000000        0.4761904762
        3.0000000000        0.4166666667
        3.0000000000        0.3571428571
        3.0000000000        0.2976190476
        3.0000000000        0.2380952381
        3.0000000000        0.1785714286
        3.0000000000        0.1190476190
        3.0000000000        0.0595238095
        3.0000000000       -0.0000000000
        3.0000000000       -0.0595238095
        3.0000000000       -0.1190476190
        3.0000000000       -0.1785714286
        3.0000000000       -0.2380952381
        3.0000000000       -0.2976190476
        3.0000000000       -0.3571428571
        3.0000000000       -0.4166666667
        3.0000000000       -0.4761904762
        3.0000000000       -0.5357142857
        3.0000000000       -0.5952380952
        3.0000000000       -0.6547619048
        3.0000000000       -0.7142857143
        3.0000000000       -0.7738095238
        3.0000000000       -0.8333333333
        3.0000000000       -0.8928571429
        3.0000000000       -0.9523809524
        3.0000000000       -1.0119047619
        3.0000000000       -1.0714285714
        3.0000000000       -1.1309523810
        3.0000000000       -1.1904761905
       -1.9398194532        1.2500000000
       -1.8796389064        1.2500000000
       -1.8194583596        1.2500000000
       -1.7592778127        1.2500000000
       -1.6990972659        1.2500000000
       -1.6389167191        1.2500000000
       -1.5787361723        1.2500000000
       -1.5185556255        1.2500000000
       -1.4583750787        1.2500000000
       -1.3981945319        1.2500000000
       -1.3380139850        1.2500000000
       -1.2778334382        1.2500000000
       -1.2176530949        1.2500000000
       -1.1574779846        1.2500000000
       -1.0973533888        1.2500000000
       -1.0374734597        1.2500000000
       -0.9781697805        1.2500000000
       -0.9197321324        1.2500000000
       -0.8622731897        1.2500000000
       -0.8052894772        1.2500000000
       -0.7482179495        1.2500000000
       -0.6912596048        1.2500000000
       -0.6343023802        1.2500000000
       -0.5776071521        1.2500000000
       -0.5209927459        1.2500000000
       -0.4646660104        1.2500000000
       -0.4078293830        1.2500000000
       -0.3505374414        1.2500000000
       -0.2933083056        1.2500000000
       -0.2362866529        1.2500000000
       -0.1792019050        1.2500000000
       -0.1218807201        1.2500000000
       -0.0642161669        1.2500000000
       -0.0060801888        1.2500000000
        0.0526371224        1.2500000000
        0.1119447110        1.2500000000
        0.1717110376        1.2500000000
        0.2317426242        1.2500000000
        0.2918843096        1.2500000000
        0.3520570337        1.2500000000
        0.4122365292        1.2500000000
        0.4724170338        1.2500000000
        0.5325975806        1.2500000000
        0.5927781274        1.2500000000
        0.6529586742        1.2500000000
        0.7131392210        1.2500000000
        0.7733197678        1.2500000000
        0.8335003147        1.2500000000
        0.8936808615        1.2500000000
        0.9538614083        1.2500000000
        1.0140419551        1.2500000000
        1.0742225019        1.2500000000
        1.1344030487        1.2500000000
        1.1945835956        1.2500000000
        1.2547641424        1.2500000000
        1.3149446892        1.2500000000
        1.3751252360        1.2500000000
        1.4353057828        1.2500000000
        1.4954863296        1.2500000000
        1.5556668764        1.2500000000
        1.6158474233        1.2500000000
        1.6760279701        1.2500000000
        1.7362085169        1.2500000000
        1.7963890637        1.2500000000
        1.8565696105        1.2500000000
        1.9167501573        1.2500000000
        1.9769307041        1.2500000000
        2.0371112510        1.2500000000
        2.0972917978        1.2500000000
        2.1574723446        1.2500000000
        2.2176528914        1.2500000000
        2.2778334382        1.2500000000
        2.3380139850        1.2500000000
        2.3981945319        1.2500000000
        2.4583750787        1.2500000000
        2.5185556255        1.2500000000
        2.5787361723        1.2500000000
        2.6389167191        1.2500000000
        2.6990972659        1.2500000000
        2.7592778127        1.2500000000
        2.8194583596        1.2500000000
        2.8796389064        1.2500000000
        2.9398194532        1.2500000000
       -2.0000000000       -1.1899489552
       -2.0000000000       -1.1298979103
       -2.0000000000       -1.0698468655
       -2.0000000000       -1.0097958271
       -2.0000000000       -0.9497449324
       -2.0000000000       -0.8896965888
       -2.0000000000       -0.8296650923
       -2.0000000000       -0.7697145117
       -2.0000000000       -0.7100371919
       -2.0000000000       -0.6507795964
       -2.0000000000       -0.5919431312
       -2.0000000000       -0.5336052460
       -2.0000000000       -0.4757517394
       -2.0000000000       -0.4181377540
       -2.0000000000       -0.3605207928
       -2.0000000000       -0.3026991727
       -2.0000000000       -0.2445203627
       -2.0000000000       -0.1860646950
       -2.0000000000       -0.1275093801
       -2.0000000000       -0.0688582356
       -2.0000000000       -0.0099533113
       -2.0000000000        0.0493781558
       -2.0000000000        0.1091227028
       -2.0000000000        0.1690935436
       -2.0000000000        0.2291330093
       -2.0000000000        0.2891832958
       -2.0000000000        0.3492343274
       -2.0000000000        0.4092853722
       -2.0000000000        0.4693364171
       -2.0000000000        0.5293874619
       -2.0000000000        0.5894385068
       -2.0000000000        0.6494895516
       -2.0000000000        0.7095405964
       -2.0000000000        0.7695916413
       -2.0000000000        0.8296426861
       -2.0000000000        0.8896937310
       -2.0000000000        0.9497447758
       -2.0000000000        1.0097958206
       -2.0000000000        1.0698468655
       -2.0000000000        1.1298979103
       -2.0000000000        1.1899489552
        0.3266401753       -0.2723898600
       -1.6926530418       -1.2132348422
       -0.3121744184       -1.0053127313
        2.9035316945       -1.2028159089
        2.3847673053        1.2114404424
       -1.9601011099        0.1434787296
       -1.0565015882       -1.2116582859
        2.9559126085       -0.0790624177
       -1.1915422289        0.2800657338
       -1.6766166276        0.4201765467
       -1.2153778997        1.1504270640
       -1.1615586417        1.1368445191
       -1.1041509253        1.1510127290
       -1.6549283388       -1.1850689196
        2.0364374918       -1.1542513009
        2.4345065734        1.2062498237
       -1.0804833139        0.8861568008
       -1.1219461795        0.4596688049
       -1.1547684354        0.5104945955
       -1.9558410905        0.1947378932
       -1.9537457778        0.2543996014
       -1.9529067506        0.3145259027
       -1.9524272954        0.3746215395
       -1.9513657738        0.4345705877
       -1.9460830586        0.4930478288
       -1.9137054727        0.1529986409
       -1.9036575977        0.2164728759
       -1.8988130670        0.2777095057
       -1.8957054389        0.3382741851
       -1.8931328823        0.3988658177
       -1.8915851563        0.4589291419
       -1.8891328135        0.5119990668
       -1.0542168209        0.7192933000
       -1.2679072720        1.1417701014
       -1.9399549711       -1.2113469166
       -1.1877101024        0.5570430498
        0.5756940926        0.2698730097
        0.5155320527        0.2459129392
        0.5246582104       -0.0335665122
        0.3324901674       -0.7962579297
        0.3021609118       -0.8588252853
        0.2617427884       -0.8030625000
       -1.3675058269        0.4816970584
       -1.2427709442        0.5560109330
       -1.1708796807        0.4603735879
       -1.2136876365        0.5029460260
       -1.2691470510        0.5155201291
       -1.3039390060        0.5521724711
       -1.8575107255        1.1961461667
       -1.9329042556        1.1834864585
       -1.9537599321        1.1154762320
       -1.8940263556        1.1301108935
       -1.9611264113        1.0129487592
       -1.9308839603        1.0704468453
       -1.7934114139        1.1993161681
       -1.8274507275        1.1374402203
       -1.7318481029        1.2001469182
       -1.7642034957        1.1410061542
       -1.7959790340        1.0829018354
       -1.9623640136        0.8588071558
       -1.8613241366        1.0776173564
       -1.8270312253        1.0261369158
       -1.8944029036        1.0199449770
       -1.9291969887        0.9622201944
       -1.9502671254        0.9090114246
       -1.5978209804        0.4215130745
       -1.6712135554        1.2004296510
       -1.7028275900        1.1432666789
       -1.7335810821        1.0866669171
       -1.7633934193        1.0309799527
       -1.3706869851        0.5382909465
       -1.3999413821        0.5963712905
       -1.8573545311        0.9702014819
       -1.8853514081        0.9152699329
       -1.9104310436        0.8614585561
       -1.9461995870        0.8051554042
       -1.9576435866        0.7491373172
       -1.4904657460        1.2002012927
       -1.5813096953        1.0428783429
       -1.5510228993        1.2007115075
       -1.5229166445        1.1490840974
       -1.5527299472        1.0963477304
       -1.6109906421        1.2006203911
       -1.5823420854        1.1470877807
       -1.6423370112        1.1451865792
       -1.6124364958        1.0929545666
       -1.6726806676        1.0898430760
       -1.7019591380        1.0350383118
       -1.7302555833        0.9806515137
       -1.7923063191        0.9759356805
       -1.7576826066        0.9264166290
       -1.8201622422        0.9213005064
       -1.8471115755        0.8670367821
       -1.9238371464        0.5483574953
       -1.8751636416        0.8126037135
       -1.9636336340        0.5939964294
       -1.9499893956        0.6567086883
       -1.9305684835        0.7072981841
       -1.9016300476        0.7584608691
       -1.7844947695        0.8722454418
       -1.9009209133        0.6025275751
       -1.8536354508        0.6162804457
       -1.8112821436        0.8181396155
       -1.8876669375        0.6596525858
       -1.8644930275        0.7115193690
       -1.8378757372        0.7643229728
       -1.8301688939        0.6636151491
       -1.6414381270        1.0388659197
       -1.6694912659        0.9849350451
       -1.6967410097        0.9309884059
       -1.6090975222        0.9892346757
       -1.6362534860        0.9354425982
       -1.6628981054        0.8814280127
       -1.7233936839        0.8769315799
       -1.6892190865        0.8272810644
       -1.7497894887        0.8228669260
       -1.7155488454        0.7732392283
       -1.7762344873        0.7690390650
       -1.8031390526        0.7158096280
       -1.7424955433        0.7195301511
       -1.7710578392        0.6661471586
       -1.8040963098        0.6119079504
       -1.4161220278        1.1509543939
       -1.4661832467        1.1516441485
       -1.3273351099        1.1358126234
       -1.3824534437        1.1218486227
       -1.4377759250        1.1067668793
       -1.4050518361        1.0624724788
       -1.8478160383        0.5596964284
       -1.7914218737        0.5155290284
       -1.7735841453        0.5631762387
       -1.4942759390        1.1005777709
       -1.5217293175        1.0475290389
       -1.5488953880        0.9939461746
       -1.5757812036        0.9401578280
       -1.6023835045        0.8861171874
       -1.6287226876        0.8318478950
       -1.6549472105        0.7775240944
       -1.6815145317        0.7233654680
       -1.4630259463        1.0535408046
       -1.4890784248        0.9995174239
       -1.5153946933        0.9454577942
       -1.5417690302        0.8912892236
       -1.5680649340        0.8369057459
       -1.5941990532        0.7823498350
       -1.6203243007        0.7276962425
       -1.6471297591        0.6730883268
       -1.7092688856        0.6694659270
       -1.7395319692        0.6156741619
       -1.7063742244        0.5644627621
       -1.6756082066        0.6186457893
       -1.7380280870        0.5093690131
       -1.3705997483        1.0150038246
       -1.4297416914        1.0065282165
       -1.4552956442        0.9516183147
       -1.4812591332        0.8971004460
       -1.5073844402        0.8425834061
       -1.5334219089        0.7879172717
       -1.5591603485        0.7330280922
       -1.5847684503        0.6775614839
       -1.6116630692        0.6218941186
       -1.7075769529        0.4613518317
       -1.6731963872        0.5118041136
       -1.6411443823        0.5667106668
       -1.6385020541        0.4551980203
       -1.5735090850        0.4632472190
       -1.6065683648        0.5134179768
       -1.5389631953        0.5138277129
       -1.5740882512        0.5685517730
       -1.5467922096        0.6261919883
       -1.3954972693        0.9587096154
       -1.4210250879        0.9035528297
       -1.4469099688        0.8488149599
       -1.4728508968        0.7941125062
       -1.4984455777        0.7392764795
       -1.5231386642        0.6839462986
       -1.5002640567        0.5692540124
       -1.4506871530        0.5986143502
       -1.4854834165        0.6358759458
       -1.4293327088        0.6451826852
       -1.3609573803        0.9104918899
       -1.3867141350        0.8554029831
       -1.4126176669        0.8006643946
       -1.4632375415        0.6912583385
       -1.4383395410        0.7459882585
       -1.3469118773        1.0735405891
       -1.3356603137        0.9664764336
       -1.2852845465        1.0833803910
       -1.3107930782        1.0241267946
       -1.2755089679        0.9744932566
       -1.2513351067        1.0333001833
       -1.2218695351        1.0916976899
       -1.2003939606        1.0330685163
       -1.1548920938        0.9963330739
       -1.2148329550        0.9822802321
       -1.2385895964        0.9248201042
       -1.1696955478        0.9334004333
       -1.1330924016        0.8708038867
       -1.1779180503        0.8245580647
       -1.2028116128        0.8737721007
       -1.2323361448        0.8202052715
       -1.3005618204        0.9176646223
       -1.2656322302        0.8685826301
       -1.3265272463        0.8621023985
       -1.2925363539        0.8138248283
       -1.3526200364        0.8072746860
       -1.3187181558        0.7591679727
       -1.3785689677        0.7526736667
       -1.4043282762        0.6983575828
       -1.3393020412        0.5998183449
       -1.3715769708        0.6500537447
       -1.3449712990        0.7044454318
       -1.3116873946        0.6553996918
        0.2730992323       -0.9146604486
        0.2083948560       -0.9152850830
        0.2444058686       -0.9694701521
        0.5710270944       -0.2501835552
        0.5121125996       -0.2407591843
        0.2165859496       -1.2156392738
        0.2656353760       -1.2183639057
        0.2461709087       -1.1764586625
        2.1708506425       -1.2091277107
        2.1284942393       -1.0132268547
        2.0980734557       -1.0603700387
        2.0663219662       -1.1072214237
        2.1226457379       -1.1101191689
        2.1529111323       -1.0640712651
        2.1598439598       -0.9614945860
        2.1851424107       -1.0162114053
        2.1903400929       -0.9126492101
        2.2170364583       -0.9658670901
        2.0923508669       -1.1573543065
        2.1483994032       -1.1633904887
        2.2021180884       -1.1808367833
        2.1784786721       -1.1191999614
        2.2102944931       -1.0704497267
        2.2427718222       -1.0203697761
        2.2341414816       -1.1292924347
        2.2675242733       -1.0764082623
        2.2213724407       -0.8629835846
        2.2484679720       -0.9162229340
        2.2749387704       -0.9698873245
        2.3005589684       -1.0244524896
        2.2524417690       -0.8128476528
        2.2798021057       -0.8661413900
        2.3067299003       -0.9196227841
        2.3330274783       -0.9733390355
        2.2552698321       -1.1961939742
        2.3133992117       -1.1999925396
        2.2910052464       -1.1364114937
        2.3252852446       -1.0807959736
        2.3586260400       -1.0277285712
        2.3492144578       -1.1398270640
        2.3835964022       -1.0835885038
        2.3454268734       -0.6622863876
        2.3144570326       -0.7121551134
        2.3734384856       -0.7145534985
        2.2834769258       -0.7624657352
        2.3422488147       -0.7650444850
        2.4011448449       -0.7674571039
        2.3110540562       -0.8156701437
        2.3697516562       -0.8183359755
        2.4285079450       -0.8207105973
        2.3383027601       -0.8691227024
        2.3968490953       -0.8717604798
        2.4554845995       -0.8740042751
        2.3650627135       -0.9226037898
        2.4234964071       -0.9250889266
        2.4821097927       -0.9271318485
        2.3912768275       -0.9761391167
        2.4497398093       -0.9783597339
        2.4169937481       -1.0301641475
        2.3727109709       -1.2010980517
        2.4080905345       -1.1415701231
        2.4423078147       -1.0854403222
        2.4756636011       -1.0320127433
        2.4323815435       -1.2013847377
        2.6121563283       -1.2011742952
        2.5521507621       -1.2013058430
        2.4922173754       -1.2013956283
        2.4673283010       -1.1425732319
        2.5013345627       -1.0867796060
        2.5268038539       -1.1432454625
        2.5864540723       -1.1437569646
        2.5084657548       -0.9801487347
        2.5346243424       -1.0334842780
        2.5606174583       -1.0878336022
        2.9486177580       -0.5810483194
        2.9608386089       -0.6285659679
        2.9049970353       -0.0708543046
        2.8716396785       -0.9867631885
        0.6021766794        0.6579099680
        2.8801361320       -0.0197204224
        2.2899962582       -0.5571843375
        2.3195788311       -0.6123860617
        2.2590963222       -0.6080521253
        2.2317624141       -0.5560647294
        2.2893768194       -0.6618202514
        2.2284269951       -0.6579401504
        2.2008975886       -0.6061252727
        2.1734040926       -0.5545395696
        2.2584787431       -0.7117551217
        2.1976276520       -0.7079403330
        2.1392498431       -0.7059286047
        2.1700885983       -0.6560145646
        2.1117343081       -0.6542093159
        2.1425657629       -0.6043793621
        2.1149604015       -0.5528763945
        2.0564368200       -0.5511575124
        2.2627906157       -0.5064447601
        2.6722420848       -1.2010116087
        2.6462717207       -1.1441702874
        2.6201253151       -1.0887104713
        2.5938484428       -1.0347070145
        2.5674619113       -0.9816324983
        2.5409571738       -0.9288334321
        2.5142819049       -0.8759008961
        2.4873561836       -0.8227717724
        2.4601170340       -0.7696189797
        2.4325694482       -0.7166982672
        2.4048259559       -0.6642581447
        2.3772516567       -0.6127872233
        2.3504973283       -0.5596278313
        2.3216885399       -0.5080222666
        2.2938456024       -0.4568370601
        2.2351660096       -0.4551370799
        2.2660586185       -0.4054209012
        2.2074220642       -0.4036600209
        2.2042771749       -0.5048096012
        2.1766015343       -0.4534042643
        2.1457823132       -0.5031272652
        2.2382555796       -0.3538822785
        2.1796319325       -0.3521063064
        2.1488329443       -0.4018886982
        2.0286660144       -0.4996589749
        2.0872429313       -0.5014006105
        2.1180402373       -0.4516499912
        2.2104477209       -0.3023117681
        2.1518400768       -0.3005464197
        2.1210406755       -0.3503372841
        2.0902501491       -0.4001206539
        0.5455748493        0.7499620183
        0.3675816368        1.0878770069
        0.4043889758        1.1420433080
        0.4271471691        1.0797070218
        0.4641557087        1.1381093263
        0.4896482499        1.0715383576
        0.5247940328        1.1353965358
        0.5499787052        1.0692891956
        2.0594607807       -0.4498930030
        2.2274101812       -0.7618388466
        2.1667533954       -0.7579731263
        2.1962858545       -0.8118493557
        2.1651345284       -0.8615040520
        2.1339078011       -0.9104711968
        2.0736061322       -0.9065999307
        2.1048466974       -0.8573946988
        2.1358366045       -0.8078549134
        2.1083839078       -0.7558139301
        0.2764973918       -1.1310412531
        2.8916945254       -1.0376629089
        2.9070436051       -1.0866514696
        2.8595200406       -1.0888645623
        2.8116194207       -0.8830042527
        2.7561418555       -0.7780719293
        2.8353625933       -1.0378374971
        2.6744075115       -0.6212764172
        2.8406786277       -0.9354581270
        2.7017765523       -0.6733809521
        2.8933929943       -1.1443015232
        2.7835780503       -0.8305180162
        2.7289654626       -0.7256736780
        2.5025905641        0.5510836228
        2.4742149421        0.6027027836
        2.4459221041        0.6543966012
        2.4177510893        0.7062514241
        2.3897487120        0.7583909530
        2.3619809501        0.8108682093
        2.3345410741        0.8636463134
        2.3075581445        0.9166893938
        2.2811940094        0.9701098541
        2.2555918397        1.0244598535
        2.2068016572        1.1398406327
        2.2308325162        1.0807948385
        2.1831237950        1.2011235169
        2.1234676989        1.2014500382
        2.1479518265        1.1416331913
        2.1725885904        1.0836255657
        2.1976381949        1.0277501830
        2.2232369261        0.9734270168
        2.2494297889        0.9198734269
        2.2761742425        0.8666138047
        2.3033709734        0.8135695636
        2.3309046121        0.7608291509
        2.3586772133        0.7084534444
        2.3866178157        0.6564109923
        2.4146830442        0.6046014437
        2.3834940624        0.5547701648
        2.3555085757        0.6065123885
        2.3276191707        0.6584385134
        2.2998532592        0.7106515939
        2.2722610729        0.7632326831
        2.2449163453        0.8161806101
        2.2179050853        0.8693861887
        2.1913002123        0.9227092123
        2.1651308101        0.9761853086
        2.1393697186        1.0302221334
        2.1139512086        1.0855347265
        2.0887754099        1.1426881086
        2.9416759249       -0.0238373275
        2.9590547888        0.0302149917
        2.9099470212        0.0293247262
        2.9076328064        1.1045346115
        2.8981633623        1.2019968936
        2.8788649647        1.1538735443
        2.8469464441        1.2011642640
        2.6293869546        0.7493125856
        2.6886083291        0.7479888313
        2.6574219103        0.6982695051
        2.6860807155        0.6468796103
        2.7463643105        0.6452781447
        2.7174049651        0.6966782988
        2.7486475768        0.7466300641
        2.5737983004        0.9531242438
        2.6334731742        0.9514205809
        2.6596420527        0.8002582893
        2.7195460149        0.7981576715
        2.6019403568        0.9018613649
        2.6302346619        0.8510870949
        2.6905119828        0.8493673257