TITLE = "Visualization of the volumetric solution"
VARIABLES = "x","y","Density","Momentum_x","Momentum_y","Energy","Pressure","Temperature","Mach","C<sub>p</sub>","Roe_Dissipation"
ZONE NODES= 606, ELEMENTS= 1108, DATAPACKING=POINT, ZONETYPE=FEQUADRILATERAL
4.569681e-02	3.926923e-03	1.227022e+00	5.552983e+01	-8.062910e+00	2.551760e+05	1.015572e+05	2.883292e+02	1.343418e-01	1.937204e-01	0.000000e+00	
4.943755e-02	4.611047e-03	1.227136e+00	5.562350e+01	-8.118059e+00	2.551972e+05	1.015639e+05	2.883215e+02	1.345721e-01	1.993027e-01	0.000000e+00	
5.353233e-02	2.238708e-03	1.227135e+00	5.565512e+01	-8.099088e+00	2.551990e+05	1.015641e+05	2.883223e+02	1.346404e-01	1.994351e-01	0.000000e+00	
4.569681e-02	7.853846e-03	1.227252e+00	5.567130e+01	-8.171991e+00	2.552180e+05	1.015713e+05	2.883151e+02	1.346928e-01	2.054400e-01	0.000000e+00	
5.292910e-02	6.828595e-03	1.227111e+00	5.565050e+01	-8.108931e+00	2.551908e+05	1.015609e+05	2.883186e+02	1.346363e-01	1.967615e-01	0.000000e+00	
4.922562e-02	9.338053e-03	1.227117e+00	5.566447e+01	-8.116786e+00	2.551906e+05	1.015605e+05	2.883163e+02	1.346720e-01	1.964661e-01	0.000000e+00	
5.660068e-02	4.232139e-03	1.227114e+00	5.565985e+01	-8.103568e+00	2.551928e+05	1.015615e+05	2.883199e+02	1.346560e-01	1.972862e-01	0.000000e+00	
4.569681e-02	1.178077e-02	1.227056e+00	5.564809e+01	-8.110464e+00	2.551777e+05	1.015556e+05	2.883168e+02	1.346376e-01	1.923858e-01	0.000000e+00	
5.265335e-02	1.132931e-02	1.227150e+00	5.565868e+01	-8.118995e+00	2.551975e+05	1.015634e+05	2.883168e+02	1.346553e-01	1.988693e-01	0.000000e+00	
5.614994e-02	9.032500e-03	1.227131e+00	5.565849e+01	-8.114272e+00	2.551941e+05	1.015620e+05	2.883175e+02	1.346552e-01	1.977397e-01	0.000000e+00	
4.912354e-02	1.356359e-02	1.227136e+00	5.565506e+01	-8.126286e+00	2.551948e+05	1.015623e+05	2.883172e+02	1.346508e-01	1.980022e-01	0.000000e+00	
5.948475e-02	2.871751e-03	1.227111e+00	5.566352e+01	-8.106991e+00	2.551931e+05	1.015615e+05	2.883206e+02	1.346660e-01	1.973197e-01	0.000000e+00	
5.941320e-02	6.815507e-03	1.227127e+00	5.566101e+01	-8.110263e+00	2.551943e+05	1.015620e+05	2.883184e+02	1.346600e-01	1.977555e-01	0.000000e+00	
4.569681e-02	1.570769e-02	1.227174e+00	5.567163e+01	-8.126724e+00	2.552038e+05	1.015656e+05	2.883175e+02	1.346859e-01	2.007383e-01	0.000000e+00	
5.598061e-02	1.343432e-02	1.227125e+00	5.565603e+01	-8.110516e+00	2.551926e+05	1.015614e+05	2.883171e+02	1.346488e-01	1.972591e-01	0.000000e+00	
5.253740e-02	1.555732e-02	1.227114e+00	5.565188e+01	-8.112408e+00	2.551905e+05	1.015607e+05	2.883175e+02	1.346407e-01	1.966261e-01	0.000000e+00	
5.934929e-02	1.126381e-02	1.227126e+00	5.565775e+01	-8.110424e+00	2.551928e+05	1.015615e+05	2.883171e+02	1.346528e-01	1.973075e-01	0.000000e+00	
4.908271e-02	1.761655e-02	1.227121e+00	5.565111e+01	-8.111311e+00	2.551924e+05	1.015615e+05	2.883180e+02	1.346376e-01	1.972621e-01	0.000000e+00	
6.230890e-02	4.200634e-03	1.227117e+00	5.566426e+01	-8.109505e+00	2.551932e+05	1.015616e+05	2.883193e+02	1.346683e-01	1.973453e-01	0.000000e+00	
6.260265e-02	8.990953e-03	1.227125e+00	5.566039e+01	-8.110026e+00	2.551932e+05	1.015616e+05	2.883176e+02	1.346588e-01	1.973997e-01	0.000000e+00	
4.569681e-02	1.963462e-02	1.227092e+00	5.563280e+01	-8.115732e+00	2.551861e+05	1.015593e+05	2.883187e+02	1.345988e-01	1.954437e-01	0.000000e+00	
6.548730e-02	2.143248e-03	1.227115e+00	5.566887e+01	-8.109282e+00	2.551936e+05	1.015616e+05	2.883202e+02	1.346792e-01	1.974261e-01	0.000000e+00	
5.930505e-02	1.554408e-02	1.227128e+00	5.564691e+01	-8.109185e+00	2.551931e+05	1.015618e+05	2.883176e+02	1.346263e-01	1.975731e-01	0.000000e+00	
5.590994e-02	1.760369e-02	1.227125e+00	5.564036e+01	-8.110550e+00	2.551926e+05	1.015618e+05	2.883181e+02	1.346115e-01	1.975245e-01	0.000000e+00	
5.249093e-02	1.961818e-02	1.227126e+00	5.563477e+01	-8.110637e+00	2.551931e+05	1.015620e+05	2.883185e+02	1.345980e-01	1.977508e-01	0.000000e+00	
6.266129e-02	1.342355e-02	1.227126e+00	5.565180e+01	-8.109056e+00	2.551928e+05	1.015616e+05	2.883173e+02	1.346380e-01	1.974114e-01	0.000000e+00	
4.906973e-02	2.159426e-02	1.227116e+00	5.562544e+01	-8.113027e+00	2.551909e+05	1.015613e+05	2.883188e+02	1.345777e-01	1.971521e-01	0.000000e+00	
6.587940e-02	6.655124e-03	1.227122e+00	5.566253e+01	-8.110049e+00	2.551932e+05	1.015616e+05	2.883183e+02	1.346641e-01	1.973600e-01	0.000000e+00	
6.601295e-02	1.123098e-02	1.227126e+00	5.565568e+01	-8.109127e+00	2.551930e+05	1.015616e+05	2.883173e+02	1.346473e-01	1.974082e-01	0.000000e+00	
4.569681e-02	2.356154e-02	1.227119e+00	5.563079e+01	-8.114439e+00	2.551913e+05	1.015614e+05	2.883183e+02	1.345907e-01	1.971993e-01	0.000000e+00	
6.942042e-02	4.089954e-03	1.227118e+00	5.566593e+01	-8.110130e+00	2.551931e+05	1.015615e+05	2.883190e+02	1.346725e-01	1.973021e-01	0.000000e+00	
5.927700e-02	1.964525e-02	1.227118e+00	5.563102e+01	-8.106415e+00	2.551913e+05	1.015614e+05	2.883185e+02	1.345885e-01	1.972071e-01	0.000000e+00	
6.266209e-02	1.762225e-02	1.227122e+00	5.563724e+01	-8.106233e+00	2.551919e+05	1.015615e+05	2.883181e+02	1.346029e-01	1.973165e-01	0.000000e+00	
5.587837e-02	2.163353e-02	1.227117e+00	5.562604e+01	-8.106697e+00	2.551910e+05	1.015614e+05	2.883188e+02	1.345769e-01	1.972021e-01	0.000000e+00	
5.247238e-02	2.359726e-02	1.227114e+00	5.562203e+01	-8.108262e+00	2.551902e+05	1.015611e+05	2.883189e+02	1.345683e-01	1.969875e-01	0.000000e+00	
6.604221e-02	1.555353e-02	1.227123e+00	5.564298e+01	-8.106697e+00	2.551921e+05	1.015615e+05	2.883177e+02	1.346166e-01	1.973214e-01	0.000000e+00	
4.906752e-02	2.554314e-02	1.227116e+00	5.562559e+01	-8.108889e+00	2.551907e+05	1.015612e+05	2.883186e+02	1.345767e-01	1.970922e-01	0.000000e+00	
6.945076e-02	8.962325e-03	1.227124e+00	5.565873e+01	-8.109601e+00	2.551929e+05	1.015615e+05	2.883177e+02	1.346549e-01	1.973391e-01	0.000000e+00	
6.944812e-02	1.343556e-02	1.227124e+00	5.564805e+01	-8.107372e+00	2.551924e+05	1.015615e+05	2.883175e+02	1.346288e-01	1.973291e-01	0.000000e+00	
4.569681e-02	2.748846e-02	1.227114e+00	5.563086e+01	-8.104710e+00	2.551901e+05	1.015610e+05	2.883184e+02	1.345881e-01	1.968439e-01	0.000000e+00	
7.331155e-02	2.175910e-03	1.227116e+00	5.566938e+01	-8.110579e+00	2.551934e+05	1.015615e+05	2.883196e+02	1.346809e-01	1.973270e-01	0.000000e+00	
7.304569e-02	6.723914e-03	1.227122e+00	5.566157e+01	-8.109972e+00	2.551930e+05	1.015615e+05	2.883181e+02	1.346618e-01	1.973308e-01	0.000000e+00	
5.925802e-02	2.364155e-02	1.227119e+00	5.562103e+01	-8.105871e+00	2.551913e+05	1.015616e+05	2.883189e+02	1.345645e-01	1.973744e-01	0.000000e+00	
6.264995e-02	2.166713e-02	1.227119e+00	5.562394e+01	-8.105294e+00	2.551913e+05	1.015615e+05	2.883188e+02	1.345712e-01	1.973354e-01	0.000000e+00	
6.603869e-02	1.967113e-02	1.227121e+00	5.562864e+01	-8.104948e+00	2.551915e+05	1.015616e+05	2.883185e+02	1.345822e-01	1.973465e-01	0.000000e+00	
5.586125e-02	2.560231e-02	1.227118e+00	5.562052e+01	-8.106888e+00	2.551910e+05	1.015615e+05	2.883189e+02	1.345638e-01	1.972750e-01	0.000000e+00	
5.246294e-02	2.755390e-02	1.227119e+00	5.562403e+01	-8.106776e+00	2.551913e+05	1.015615e+05	2.883187e+02	1.345719e-01	1.973395e-01	0.000000e+00	
6.943392e-02	1.764726e-02	1.227122e+00	5.563393e+01	-8.105202e+00	2.551917e+05	1.015615e+05	2.883181e+02	1.345947e-01	1.973193e-01	0.000000e+00	
4.906794e-02	2.949331e-02	1.227117e+00	5.562883e+01	-8.104670e+00	2.551909e+05	1.015613e+05	2.883186e+02	1.345829e-01	1.971404e-01	0.000000e+00	
7.291293e-02	1.129152e-02	1.227124e+00	5.565207e+01	-8.108122e+00	2.551925e+05	1.015615e+05	2.883175e+02	1.346386e-01	1.973051e-01	0.000000e+00	
7.284877e-02	1.559808e-02	1.227123e+00	5.563915e+01	-8.105812e+00	2.551919e+05	1.015615e+05	2.883178e+02	1.346072e-01	1.973181e-01	0.000000e+00	
4.569681e-02	3.141538e-02	1.227118e+00	5.563171e+01	-8.100433e+00	2.551915e+05	1.015615e+05	2.883189e+02	1.345880e-01	1.973092e-01	0.000000e+00	
7.677568e-02	4.381116e-03	1.227119e+00	5.566451e+01	-8.110492e+00	2.551930e+05	1.015615e+05	2.883186e+02	1.346692e-01	1.972641e-01	0.000000e+00	
7.642851e-02	9.154420e-03	1.227123e+00	5.565555e+01	-8.108942e+00	2.551927e+05	1.015615e+05	2.883177e+02	1.346471e-01	1.973155e-01	0.000000e+00	
6.263502e-02	2.564062e-02	1.227118e+00	5.562131e+01	-8.105133e+00	2.551910e+05	1.015615e+05	2.883187e+02	1.345650e-01	1.972641e-01	0.000000e+00	
5.924151e-02	2.760633e-02	1.227118e+00	5.562368e+01	-8.106060e+00	2.551909e+05	1.015614e+05	2.883185e+02	1.345710e-01	1.971868e-01	0.000000e+00	
6.602633e-02	2.367255e-02	1.227118e+00	5.562131e+01	-8.104520e+00	2.551910e+05	1.015615e+05	2.883187e+02	1.345648e-01	1.972712e-01	0.000000e+00	
6.941810e-02	2.169545e-02	1.227119e+00	5.562343e+01	-8.104151e+00	2.551912e+05	1.015615e+05	2.883186e+02	1.345696e-01	1.972957e-01	0.000000e+00	
5.584647e-02	2.957404e-02	1.227119e+00	5.562840e+01	-8.106478e+00	2.551912e+05	1.015614e+05	2.883183e+02	1.345823e-01	1.972223e-01	0.000000e+00	
5.245304e-02	3.153820e-02	1.227118e+00	5.563376e+01	-8.106836e+00	2.551909e+05	1.015612e+05	2.883181e+02	1.345953e-01	1.970455e-01	0.000000e+00	
7.281519e-02	1.970518e-02	1.227120e+00	5.562691e+01	-8.104204e+00	2.551913e+05	1.015615e+05	2.883184e+02	1.345779e-01	1.972912e-01	0.000000e+00	
4.906630e-02	3.347511e-02	1.227121e+00	5.563701e+01	-8.106289e+00	2.551917e+05	1.015615e+05	2.883181e+02	1.346024e-01	1.972831e-01	0.000000e+00	
7.628340e-02	1.353892e-02	1.227123e+00	5.564380e+01	-8.106571e+00	2.551921e+05	1.015615e+05	2.883177e+02	1.346185e-01	1.972887e-01	0.000000e+00	
7.621926e-02	1.770279e-02	1.227121e+00	5.563114e+01	-8.104611e+00	2.551915e+05	1.015615e+05	2.883181e+02	1.345880e-01	1.972925e-01	0.000000e+00	
4.569681e-02	3.534231e-02	1.227114e+00	5.563645e+01	-8.106896e+00	2.551903e+05	1.015609e+05	2.883180e+02	1.346021e-01	1.968062e-01	0.000000e+00	
8.029121e-02	3.514123e-03	1.227117e+00	5.566611e+01	-8.110628e+00	2.551930e+05	1.015615e+05	2.883189e+02	1.346731e-01	1.972640e-01	0.000000e+00	
7.988904e-02	7.176732e-03	1.227122e+00	5.565812e+01	-8.109667e+00	2.551927e+05	1.015615e+05	2.883179e+02	1.346536e-01	1.972803e-01	0.000000e+00	
7.970363e-02	1.150324e-02	1.227123e+00	5.564788e+01	-8.107482e+00	2.551922e+05	1.015615e+05	2.883176e+02	1.346285e-01	1.972848e-01	0.000000e+00	
6.601131e-02	2.763710e-02	1.227121e+00	5.562704e+01	-8.106117e+00	2.551913e+05	1.015615e+05	2.883182e+02	1.345788e-01	1.972955e-01	0.000000e+00	
6.261712e-02	2.961400e-02	1.227121e+00	5.563231e+01	-8.107341e+00	2.551915e+05	1.015615e+05	2.883180e+02	1.345917e-01	1.972612e-01	0.000000e+00	
5.922089e-02	3.160698e-02	1.227123e+00	5.563943e+01	-8.108297e+00	2.551919e+05	1.015615e+05	2.883176e+02	1.346087e-01	1.973012e-01	0.000000e+00	
6.940315e-02	2.566883e-02	1.227120e+00	5.562394e+01	-8.105184e+00	2.551912e+05	1.015615e+05	2.883184e+02	1.345712e-01	1.972873e-01	0.000000e+00	
7.279469e-02	2.370183e-02	1.227120e+00	5.562299e+01	-8.104480e+00	2.551911e+05	1.015615e+05	2.883185e+02	1.345687e-01	1.972922e-01	0.000000e+00	
5.582535e-02	3.361571e-02	1.227123e+00	5.564769e+01	-8.110054e+00	2.551919e+05	1.015614e+05	2.883173e+02	1.346290e-01	1.971779e-01	0.000000e+00	
5.243507e-02	3.561209e-02	1.227129e+00	5.565541e+01	-8.110955e+00	2.551932e+05	1.015617e+05	2.883170e+02	1.346470e-01	1.974906e-01	0.000000e+00	
7.618778e-02	2.173122e-02	1.227120e+00	5.562384e+01	-8.104145e+00	2.551911e+05	1.015615e+05	2.883184e+02	1.345706e-01	1.972832e-01	0.000000e+00	
4.905812e-02	3.753272e-02	1.227126e+00	5.566256e+01	-8.117505e+00	2.551925e+05	1.015613e+05	2.883164e+02	1.346667e-01	1.971202e-01	0.000000e+00	
7.962081e-02	1.569288e-02	1.227122e+00	5.563551e+01	-8.105264e+00	2.551917e+05	1.015615e+05	2.883179e+02	1.345985e-01	1.972805e-01	0.000000e+00	
7.958072e-02	1.975376e-02	1.227120e+00	5.562605e+01	-8.104159e+00	2.551912e+05	1.015615e+05	2.883183e+02	1.345758e-01	1.972781e-01	0.000000e+00	
4.569681e-02	3.926923e-02	1.227158e+00	5.566198e+01	-8.117627e+00	2.551980e+05	1.015635e+05	2.883153e+02	1.346621e-01	1.989946e-01	0.000000e+00	
8.305008e-02	5.513181e-03	1.227120e+00	5.566053e+01	-8.109962e+00	2.551928e+05	1.015615e+05	2.883183e+02	1.346595e-01	1.972625e-01	0.000000e+00	
8.319489e-02	2.691188e-03	1.227117e+00	5.566746e+01	-8.110908e+00	2.551932e+05	1.015615e+05	2.883191e+02	1.346764e-01	1.972952e-01	0.000000e+00	
8.304111e-02	9.492697e-03	1.227123e+00	5.565132e+01	-8.108351e+00	2.551923e+05	1.015615e+05	2.883177e+02	1.346370e-01	1.972634e-01	0.000000e+00	
8.299822e-02	1.366481e-02	1.227123e+00	5.563980e+01	-8.106110e+00	2.551918e+05	1.015615e+05	2.883178e+02	1.346089e-01	1.972733e-01	0.000000e+00	
6.938975e-02	2.963995e-02	1.227122e+00	5.563783e+01	-8.107861e+00	2.551918e+05	1.015615e+05	2.883178e+02	1.346049e-01	1.972707e-01	0.000000e+00	
6.599337e-02	3.163402e-02	1.227123e+00	5.564556e+01	-8.109264e+00	2.551920e+05	1.015614e+05	2.883175e+02	1.346237e-01	1.972370e-01	0.000000e+00	
6.259082e-02	3.365780e-02	1.227124e+00	5.565465e+01	-8.110653e+00	2.551925e+05	1.015614e+05	2.883173e+02	1.346456e-01	1.972544e-01	0.000000e+00	
5.918722e-02	3.572102e-02	1.227123e+00	5.566497e+01	-8.112636e+00	2.551925e+05	1.015613e+05	2.883170e+02	1.346709e-01	1.970950e-01	0.000000e+00	
7.278081e-02	2.766437e-02	1.227121e+00	5.563187e+01	-8.106666e+00	2.551915e+05	1.015615e+05	2.883180e+02	1.345904e-01	1.972705e-01	0.000000e+00	
7.616986e-02	2.569822e-02	1.227121e+00	5.562784e+01	-8.105664e+00	2.551913e+05	1.015615e+05	2.883182e+02	1.345805e-01	1.972756e-01	0.000000e+00	
5.578817e-02	3.781924e-02	1.227126e+00	5.567541e+01	-8.114683e+00	2.551935e+05	1.015615e+05	2.883169e+02	1.346960e-01	1.972793e-01	0.000000e+00	
5.239929e-02	3.986041e-02	1.227112e+00	5.568872e+01	-8.121114e+00	2.551911e+05	1.015602e+05	2.883166e+02	1.347314e-01	1.962438e-01	0.000000e+00	
7.955866e-02	2.373475e-02	1.227120e+00	5.562569e+01	-8.104952e+00	2.551912e+05	1.015615e+05	2.883182e+02	1.345752e-01	1.972709e-01	0.000000e+00	
4.903922e-02	4.174395e-02	1.227137e+00	5.569599e+01	-8.128639e+00	2.551966e+05	1.015623e+05	2.883167e+02	1.347485e-01	1.979498e-01	0.000000e+00	
8.296709e-02	1.776117e-02	1.227121e+00	5.562912e+01	-8.104494e+00	2.551913e+05	1.015615e+05	2.883181e+02	1.345832e-01	1.972670e-01	0.000000e+00	
8.294618e-02	2.176718e-02	1.227120e+00	5.562523e+01	-8.104553e+00	2.551911e+05	1.015615e+05	2.883182e+02	1.345740e-01	1.972654e-01	0.000000e+00	
4.569681e-02	4.319615e-02	1.227050e+00	5.571885e+01	-8.176086e+00	2.551797e+05	1.015549e+05	2.883164e+02	1.348288e-01	1.918317e-01	0.000000e+00	
8.629806e-02	7.255030e-03	1.227122e+00	5.565541e+01	-8.108999e+00	2.551926e+05	1.015615e+05	2.883179e+02	1.346470e-01	1.972679e-01	0.000000e+00	
8.617884e-02	3.108175e-03	1.227118e+00	5.566524e+01	-8.110723e+00	2.551931e+05	1.015615e+05	2.883188e+02	1.346710e-01	1.972903e-01	0.000000e+00	
8.634070e-02	1.154587e-02	1.227123e+00	5.564407e+01	-8.106967e+00	2.551920e+05	1.015615e+05	2.883177e+02	1.346194e-01	1.972610e-01	0.000000e+00	
8.634117e-02	1.572762e-02	1.227122e+00	5.563274e+01	-8.105068e+00	2.551915e+05	1.015614e+05	2.883179e+02	1.345919e-01	1.972567e-01	0.000000e+00	
6.937906e-02	3.367827e-02	1.227124e+00	5.566068e+01	-8.111392e+00	2.551928e+05	1.015615e+05	2.883175e+02	1.346602e-01	1.972661e-01	0.000000e+00	
7.277434e-02	3.165978e-02	1.227123e+00	5.565166e+01	-8.110004e+00	2.551924e+05	1.015615e+05	2.883176e+02	1.346383e-01	1.972739e-01	0.000000e+00	
6.596750e-02	3.573690e-02	1.227124e+00	5.567051e+01	-8.112626e+00	2.551933e+05	1.015615e+05	2.883175e+02	1.346839e-01	1.972662e-01	0.000000e+00	
6.254336e-02	3.785087e-02	1.227123e+00	5.568076e+01	-8.114055e+00	2.551936e+05	1.015614e+05	2.883175e+02	1.347087e-01	1.972387e-01	0.000000e+00	
5.912983e-02	4.003450e-02	1.227122e+00	5.569193e+01	-8.114421e+00	2.551942e+05	1.015615e+05	2.883178e+02	1.347353e-01	1.972660e-01	0.000000e+00	
7.616098e-02	2.966858e-02	1.227123e+00	5.564373e+01	-8.108698e+00	2.551920e+05	1.015615e+05	2.883177e+02	1.346191e-01	1.972716e-01	0.000000e+00	
7.954588e-02	2.769377e-02	1.227122e+00	5.563724e+01	-8.107491e+00	2.551917e+05	1.015615e+05	2.883179e+02	1.346034e-01	1.972692e-01	0.000000e+00	
5.572385e-02	4.233459e-02	1.227119e+00	5.570416e+01	-8.116068e+00	2.551946e+05	1.015614e+05	2.883182e+02	1.347651e-01	1.971983e-01	0.000000e+00	
5.230552e-02	4.434267e-02	1.227121e+00	5.572086e+01	-8.111596e+00	2.551961e+05	1.015617e+05	2.883187e+02	1.348028e-01	1.974477e-01	0.000000e+00	
8.293144e-02	2.572749e-02	1.227121e+00	5.563236e+01	-8.106480e+00	2.551915e+05	1.015615e+05	2.883180e+02	1.345915e-01	1.972628e-01	0.000000e+00	
4.910611e-02	4.635418e-02	1.227099e+00	5.575559e+01	-8.112567e+00	2.551931e+05	1.015598e+05	2.883185e+02	1.348878e-01	1.959128e-01	0.000000e+00	
8.633023e-02	1.978404e-02	1.227121e+00	5.562612e+01	-8.104482e+00	2.551912e+05	1.015614e+05	2.883181e+02	1.345761e-01	1.972573e-01	0.000000e+00	
8.631731e-02	2.376235e-02	1.227121e+00	5.562911e+01	-8.105709e+00	2.551913e+05	1.015614e+05	2.883181e+02	1.345836e-01	1.972548e-01	0.000000e+00	
4.569681e-02	4.712308e-02	1.227180e+00	5.583179e+01	-8.050426e+00	2.552121e+05	1.015662e+05	2.883179e+02	1.350384e-01	2.012611e-01	0.000000e+00	
8.952343e-02	4.372405e-03	1.227120e+00	5.566068e+01	-8.109977e+00	2.551928e+05	1.015615e+05	2.883184e+02	1.346599e-01	1.972641e-01	0.000000e+00	
8.967168e-02	9.228781e-03	1.227122e+00	5.564880e+01	-8.107779e+00	2.551922e+05	1.015614e+05	2.883178e+02	1.346309e-01	1.972452e-01	0.000000e+00	
8.970784e-02	1.361561e-02	1.227122e+00	5.563682e+01	-8.105800e+00	2.551916e+05	1.015614e+05	2.883178e+02	1.346018e-01	1.972510e-01	0.000000e+00	
8.971087e-02	1.776925e-02	1.227121e+00	5.562808e+01	-8.104672e+00	2.551912e+05	1.015614e+05	2.883180e+02	1.345808e-01	1.972453e-01	0.000000e+00	
6.937317e-02	3.786093e-02	1.227121e+00	5.568274e+01	-8.113589e+00	2.551938e+05	1.015615e+05	2.883182e+02	1.347134e-01	1.972675e-01	0.000000e+00	
7.278322e-02	3.576011e-02	1.227122e+00	5.567437e+01	-8.112881e+00	2.551934e+05	1.015614e+05	2.883179e+02	1.346932e-01	1.972564e-01	0.000000e+00	
7.616670e-02	3.370933e-02	1.227122e+00	5.566569e+01	-8.111863e+00	2.551930e+05	1.015615e+05	2.883178e+02	1.346723e-01	1.972649e-01	0.000000e+00	
6.591863e-02	4.001963e-02	1.227118e+00	5.569054e+01	-8.113898e+00	2.551940e+05	1.015614e+05	2.883186e+02	1.347321e-01	1.972018e-01	0.000000e+00	
6.244490e-02	4.225745e-02	1.227117e+00	5.569664e+01	-8.113106e+00	2.551946e+05	1.015615e+05	2.883193e+02	1.347463e-01	1.973091e-01	0.000000e+00	
5.906124e-02	4.455072e-02	1.227106e+00	5.570197e+01	-8.111090e+00	2.551934e+05	1.015609e+05	2.883201e+02	1.347592e-01	1.968407e-01	0.000000e+00	
7.954391e-02	3.169199e-02	1.227122e+00	5.565723e+01	-8.110715e+00	2.551926e+05	1.015615e+05	2.883178e+02	1.346518e-01	1.972614e-01	0.000000e+00	
8.292329e-02	2.969750e-02	1.227122e+00	5.564942e+01	-8.109511e+00	2.551923e+05	1.015614e+05	2.883178e+02	1.346329e-01	1.972592e-01	0.000000e+00	
5.560770e-02	4.768378e-02	1.227110e+00	5.570001e+01	-8.102424e+00	2.551953e+05	1.015618e+05	2.883216e+02	1.347508e-01	1.975105e-01	0.000000e+00	
5.195957e-02	4.824880e-02	1.227083e+00	5.570883e+01	-8.091866e+00	2.551905e+05	1.015597e+05	2.883221e+02	1.347709e-01	1.958071e-01	0.000000e+00	
8.630603e-02	2.771973e-02	1.227122e+00	5.564262e+01	-8.108372e+00	2.551919e+05	1.015614e+05	2.883179e+02	1.346164e-01	1.972536e-01	0.000000e+00	
4.964418e-02	5.105000e-02	1.227096e+00	5.566931e+01	-8.059048e+00	2.551932e+05	1.015616e+05	2.883243e+02	1.346640e-01	1.973658e-01	0.000000e+00	
8.970272e-02	2.178949e-02	1.227121e+00	5.562739e+01	-8.105228e+00	2.551912e+05	1.015614e+05	2.883181e+02	1.345794e-01	1.972474e-01	0.000000e+00	
9.304847e-02	2.219784e-03	1.227118e+00	5.566477e+01	-8.110817e+00	2.551929e+05	1.015614e+05	2.883187e+02	1.346700e-01	1.972200e-01	0.000000e+00	
8.969120e-02	2.575198e-02	1.227121e+00	5.563708e+01	-8.107370e+00	2.551916e+05	1.015614e+05	2.883179e+02	1.346030e-01	1.972456e-01	0.000000e+00	
4.569681e-02	5.105000e-02	1.227055e+00	5.565782e+01	-7.970665e+00	2.551870e+05	1.015595e+05	2.883281e+02	1.346102e-01	1.956650e-01	0.000000e+00	
9.307173e-02	6.856481e-03	1.227121e+00	5.565342e+01	-8.108788e+00	2.551924e+05	1.015614e+05	2.883180e+02	1.346422e-01	1.972452e-01	0.000000e+00	
9.308700e-02	1.143525e-02	1.227122e+00	5.564116e+01	-8.106552e+00	2.551918e+05	1.015614e+05	2.883178e+02	1.346124e-01	1.972317e-01	0.000000e+00	
9.309200e-02	1.571646e-02	1.227121e+00	5.563091e+01	-8.105096e+00	2.551913e+05	1.015614e+05	2.883179e+02	1.345876e-01	1.972408e-01	0.000000e+00	
9.308765e-02	1.980158e-02	1.227121e+00	5.562705e+01	-8.105000e+00	2.551911e+05	1.015614e+05	2.883180e+02	1.345785e-01	1.972357e-01	0.000000e+00	
6.937409e-02	4.226174e-02	1.227114e+00	5.569376e+01	-8.113308e+00	2.551944e+05	1.015615e+05	2.883198e+02	1.347397e-01	1.972879e-01	0.000000e+00	
7.282690e-02	4.003773e-02	1.227116e+00	5.568992e+01	-8.113739e+00	2.551942e+05	1.015615e+05	2.883192e+02	1.347307e-01	1.972703e-01	0.000000e+00	
7.620306e-02	3.789616e-02	1.227118e+00	5.568429e+01	-8.113650e+00	2.551939e+05	1.015615e+05	2.883187e+02	1.347172e-01	1.972703e-01	0.000000e+00	
7.956262e-02	3.580343e-02	1.227120e+00	5.567750e+01	-8.113137e+00	2.551936e+05	1.015615e+05	2.883184e+02	1.347008e-01	1.972660e-01	0.000000e+00	
6.580075e-02	4.450426e-02	1.227111e+00	5.569573e+01	-8.111947e+00	2.551944e+05	1.015615e+05	2.883205e+02	1.347441e-01	1.972608e-01	0.000000e+00	
6.219303e-02	4.692706e-02	1.227110e+00	5.569414e+01	-8.109760e+00	2.551948e+05	1.015616e+05	2.883213e+02	1.347395e-01	1.974117e-01	0.000000e+00	
5.921755e-02	4.836926e-02	1.227106e+00	5.569201e+01	-8.105426e+00	2.551946e+05	1.015616e+05	2.883221e+02	1.347332e-01	1.974074e-01	0.000000e+00	
8.292797e-02	3.374384e-02	1.227121e+00	5.566993e+01	-8.112318e+00	2.551932e+05	1.015614e+05	2.883181e+02	1.346826e-01	1.972594e-01	0.000000e+00	
8.630092e-02	3.171599e-02	1.227121e+00	5.566212e+01	-8.111316e+00	2.551928e+05	1.015614e+05	2.883180e+02	1.346637e-01	1.972520e-01	0.000000e+00	
5.359155e-02	5.105000e-02	1.227096e+00	5.567488e+01	-8.096353e+00	2.551932e+05	1.015614e+05	2.883239e+02	1.346902e-01	1.972206e-01	0.000000e+00	
8.968078e-02	2.971926e-02	1.227121e+00	5.565460e+01	-8.110259e+00	2.551925e+05	1.015614e+05	2.883179e+02	1.346455e-01	1.972448e-01	0.000000e+00	
9.307753e-02	2.378645e-02	1.227121e+00	5.563292e+01	-8.106573e+00	2.551914e+05	1.015614e+05	2.883180e+02	1.345929e-01	1.972382e-01	0.000000e+00	
9.659783e-02	4.370717e-03	1.227120e+00	5.565751e+01	-8.109664e+00	2.551926e+05	1.015614e+05	2.883182e+02	1.346523e-01	1.972382e-01	0.000000e+00	
5.753892e-02	5.105000e-02	1.227101e+00	5.567469e+01	-8.103205e+00	2.551929e+05	1.015613e+05	2.883223e+02	1.346919e-01	1.970963e-01	0.000000e+00	
9.306521e-02	2.774348e-02	1.227121e+00	5.564773e+01	-8.109214e+00	2.551921e+05	1.015614e+05	2.883179e+02	1.346289e-01	1.972360e-01	0.000000e+00	
9.648804e-02	9.249502e-03	1.227122e+00	5.564551e+01	-8.107448e+00	2.551920e+05	1.015614e+05	2.883178e+02	1.346230e-01	1.972407e-01	0.000000e+00	
9.647388e-02	1.364418e-02	1.227122e+00	5.563430e+01	-8.105603e+00	2.551914e+05	1.015614e+05	2.883178e+02	1.345958e-01	1.972243e-01	0.000000e+00	
9.647083e-02	1.779845e-02	1.227121e+00	5.562793e+01	-8.105021e+00	2.551912e+05	1.015614e+05	2.883179e+02	1.345806e-01	1.972309e-01	0.000000e+00	
9.646347e-02	2.181733e-02	1.227121e+00	5.563015e+01	-8.105977e+00	2.551913e+05	1.015614e+05	2.883180e+02	1.345861e-01	1.972272e-01	0.000000e+00	
6.938143e-02	4.698276e-02	1.227109e+00	5.568965e+01	-8.111067e+00	2.551943e+05	1.015615e+05	2.883211e+02	1.347294e-01	1.973160e-01	0.000000e+00	
7.295475e-02	4.451378e-02	1.227110e+00	5.569205e+01	-8.112574e+00	2.551942e+05	1.015615e+05	2.883206e+02	1.347356e-01	1.972626e-01	0.000000e+00	
7.630338e-02	4.228925e-02	1.227113e+00	5.569174e+01	-8.113391e+00	2.551942e+05	1.015615e+05	2.883201e+02	1.347350e-01	1.972687e-01	0.000000e+00	
7.961612e-02	4.010727e-02	1.227115e+00	5.568950e+01	-8.113816e+00	2.551941e+05	1.015614e+05	2.883196e+02	1.347298e-01	1.972572e-01	0.000000e+00	
8.295740e-02	3.795482e-02	1.227116e+00	5.568540e+01	-8.113747e+00	2.551939e+05	1.015614e+05	2.883191e+02	1.347200e-01	1.972527e-01	0.000000e+00	
6.548522e-02	4.888301e-02	1.227106e+00	5.568558e+01	-8.109276e+00	2.551938e+05	1.015614e+05	2.883215e+02	1.347194e-01	1.972378e-01	0.000000e+00	
6.148628e-02	5.105000e-02	1.227108e+00	5.567591e+01	-8.106809e+00	2.551938e+05	1.015616e+05	2.883215e+02	1.346954e-01	1.973869e-01	0.000000e+00	
8.630996e-02	3.582331e-02	1.227118e+00	5.567981e+01	-8.113317e+00	2.551936e+05	1.015614e+05	2.883187e+02	1.347065e-01	1.972482e-01	0.000000e+00	
8.967618e-02	3.375487e-02	1.227119e+00	5.567328e+01	-8.112668e+00	2.551933e+05	1.015614e+05	2.883184e+02	1.346907e-01	1.972440e-01	0.000000e+00	
9.305373e-02	3.173434e-02	1.227120e+00	5.566630e+01	-8.111858e+00	2.551930e+05	1.015614e+05	2.883182e+02	1.346739e-01	1.972361e-01	0.000000e+00	
9.645171e-02	2.577844e-02	1.227121e+00	5.564179e+01	-8.108261e+00	2.551918e+05	1.015614e+05	2.883179e+02	1.346145e-01	1.972280e-01	0.000000e+00	
9.985929e-02	3.047304e-03	1.227119e+00	5.565986e+01	-8.110042e+00	2.551926e+05	1.015614e+05	2.883184e+02	1.346581e-01	1.972090e-01	0.000000e+00	
9.983391e-02	7.284448e-03	1.227121e+00	5.564900e+01	-8.108301e+00	2.551920e+05	1.015614e+05	2.883179e+02	1.346317e-01	1.971940e-01	0.000000e+00	
9.643762e-02	2.974423e-02	1.227120e+00	5.565926e+01	-8.110951e+00	2.551926e+05	1.015614e+05	2.883181e+02	1.346569e-01	1.972277e-01	0.000000e+00	
9.983428e-02	1.159925e-02	1.227122e+00	5.563797e+01	-8.106375e+00	2.551916e+05	1.015614e+05	2.883178e+02	1.346048e-01	1.972285e-01	0.000000e+00	
9.984418e-02	1.578567e-02	1.227121e+00	5.562976e+01	-8.105223e+00	2.551912e+05	1.015614e+05	2.883179e+02	1.345850e-01	1.972147e-01	0.000000e+00	
9.984558e-02	1.984056e-02	1.227121e+00	5.562875e+01	-8.105618e+00	2.551912e+05	1.015614e+05	2.883179e+02	1.345827e-01	1.972204e-01	0.000000e+00	
9.983790e-02	2.381627e-02	1.227121e+00	5.563697e+01	-8.107430e+00	2.551916e+05	1.015614e+05	2.883179e+02	1.346028e-01	1.972175e-01	0.000000e+00	
6.938102e-02	5.105000e-02	1.227110e+00	5.567608e+01	-8.110180e+00	2.551936e+05	1.015615e+05	2.883208e+02	1.346970e-01	1.972907e-01	0.000000e+00	
7.330027e-02	4.888290e-02	1.227109e+00	5.568323e+01	-8.111106e+00	2.551939e+05	1.015615e+05	2.883210e+02	1.347143e-01	1.973005e-01	0.000000e+00	
7.656888e-02	4.693527e-02	1.227110e+00	5.568726e+01	-8.111955e+00	2.551941e+05	1.015615e+05	2.883208e+02	1.347241e-01	1.972844e-01	0.000000e+00	
7.969399e-02	4.459538e-02	1.227111e+00	5.568978e+01	-8.112728e+00	2.551942e+05	1.015615e+05	2.883206e+02	1.347302e-01	1.972932e-01	0.000000e+00	
8.302587e-02	4.245929e-02	1.227112e+00	5.569029e+01	-8.113395e+00	2.551942e+05	1.015615e+05	2.883202e+02	1.347316e-01	1.972725e-01	0.000000e+00	
8.634589e-02	4.011911e-02	1.227114e+00	5.568906e+01	-8.113751e+00	2.551941e+05	1.015614e+05	2.883198e+02	1.347288e-01	1.972516e-01	0.000000e+00	
6.543365e-02	5.105000e-02	1.227107e+00	5.567535e+01	-8.109229e+00	2.551936e+05	1.015615e+05	2.883215e+02	1.346950e-01	1.973208e-01	0.000000e+00	
8.968285e-02	3.793000e-02	1.227115e+00	5.568603e+01	-8.113805e+00	2.551939e+05	1.015614e+05	2.883194e+02	1.347215e-01	1.972423e-01	0.000000e+00	
9.304615e-02	3.582511e-02	1.227117e+00	5.568161e+01	-8.113543e+00	2.551937e+05	1.015614e+05	2.883190e+02	1.347109e-01	1.972345e-01	0.000000e+00	
9.642241e-02	3.377726e-02	1.227118e+00	5.567615e+01	-8.113071e+00	2.551934e+05	1.015614e+05	2.883187e+02	1.346978e-01	1.972251e-01	0.000000e+00	
9.982451e-02	2.777111e-02	1.227121e+00	5.565253e+01	-8.110020e+00	2.551923e+05	1.015614e+05	2.883180e+02	1.346406e-01	1.972188e-01	0.000000e+00	
1.030842e-01	2.142885e-03	1.227118e+00	5.566090e+01	-8.110420e+00	2.551926e+05	1.015614e+05	2.883185e+02	1.346607e-01	1.972025e-01	0.000000e+00	
1.030509e-01	5.574535e-03	1.227120e+00	5.565203e+01	-8.108983e+00	2.551922e+05	1.015614e+05	2.883181e+02	1.346391e-01	1.972082e-01	0.000000e+00	
1.031322e-01	9.568126e-03	1.227121e+00	5.564148e+01	-8.107114e+00	2.551917e+05	1.015614e+05	2.883178e+02	1.346134e-01	1.972067e-01	0.000000e+00	
9.980685e-02	3.176359e-02	1.227119e+00	5.566999e+01	-8.112412e+00	2.551931e+05	1.015614e+05	2.883185e+02	1.346829e-01	1.972165e-01	0.000000e+00	
1.031911e-01	1.374780e-02	1.227121e+00	5.563234e+01	-8.105681e+00	2.551913e+05	1.015614e+05	2.883178e+02	1.345912e-01	1.972105e-01	0.000000e+00	
1.032174e-01	1.784509e-02	1.227121e+00	5.562854e+01	-8.105479e+00	2.551911e+05	1.015614e+05	2.883179e+02	1.345822e-01	1.972075e-01	0.000000e+00	
1.032208e-01	2.184869e-02	1.227121e+00	5.563337e+01	-8.106776e+00	2.551914e+05	1.015614e+05	2.883179e+02	1.345941e-01	1.972089e-01	0.000000e+00	
1.032118e-01	2.580589e-02	1.227121e+00	5.564641e+01	-8.109113e+00	2.551920e+05	1.015614e+05	2.883180e+02	1.346258e-01	1.972087e-01	0.000000e+00	
7.332839e-02	5.105000e-02	1.227110e+00	5.567532e+01	-8.110796e+00	2.551936e+05	1.015615e+05	2.883207e+02	1.346953e-01	1.973093e-01	0.000000e+00	
7.727576e-02	5.105000e-02	1.227112e+00	5.567512e+01	-8.110961e+00	2.551934e+05	1.015615e+05	2.883202e+02	1.346949e-01	1.972608e-01	0.000000e+00	
7.954495e-02	4.836428e-02	1.227110e+00	5.568278e+01	-8.111479e+00	2.551938e+05	1.015615e+05	2.883207e+02	1.347133e-01	1.972708e-01	0.000000e+00	
8.314797e-02	4.772232e-02	1.227110e+00	5.568370e+01	-8.112117e+00	2.551938e+05	1.015614e+05	2.883205e+02	1.347157e-01	1.972545e-01	0.000000e+00	
8.643994e-02	4.459678e-02	1.227110e+00	5.568791e+01	-8.113097e+00	2.551939e+05	1.015614e+05	2.883204e+02	1.347260e-01	1.972287e-01	0.000000e+00	
8.969895e-02	4.229998e-02	1.227112e+00	5.568909e+01	-8.113599e+00	2.551941e+05	1.015614e+05	2.883202e+02	1.347289e-01	1.972517e-01	0.000000e+00	
9.304564e-02	4.007924e-02	1.227113e+00	5.568866e+01	-8.113921e+00	2.551940e+05	1.015614e+05	2.883199e+02	1.347279e-01	1.972344e-01	0.000000e+00	
9.640691e-02	3.794730e-02	1.227114e+00	5.568661e+01	-8.113981e+00	2.551939e+05	1.015614e+05	2.883196e+02	1.347230e-01	1.972297e-01	0.000000e+00	
9.978299e-02	3.586339e-02	1.227115e+00	5.568321e+01	-8.113833e+00	2.551937e+05	1.015614e+05	2.883192e+02	1.347149e-01	1.972199e-01	0.000000e+00	
1.031956e-01	2.977158e-02	1.227119e+00	5.566348e+01	-8.111625e+00	2.551928e+05	1.015614e+05	2.883183e+02	1.346672e-01	1.972081e-01	0.000000e+00	