TITLE = "Visualization of the volumetric solution"
VARIABLES = "x","y","Density","Momentum_x","Momentum_y","Energy","Pressure","Temperature","Mach","C<sub>p</sub>","Roe_Dissipation"
ZONE NODES= 41, ELEMENTS= 50, DATAPACKING=POINT, ZONETYPE=FEQUADRILATERAL
1.000000e+00	0.000000e+00	1.225043e+00	4.164110e+01	3.643768e+00	2.540131e+05	1.013200e+05	2.881206e+02	1.002747e-01	-7.050692e-03	0.000000e+00	
1.201896e+00	1.929807e-02	1.225043e+00	4.164110e+01	3.643768e+00	2.540131e+05	1.013200e+05	2.881206e+02	1.002747e-01	-7.050575e-03	0.000000e+00	
1.153846e+00	1.570790e-01	1.225043e+00	4.164110e+01	3.643766e+00	2.540131e+05	1.013200e+05	2.881206e+02	1.002747e-01	-7.050650e-03	0.000000e+00	
1.384868e+00	1.525164e-02	1.225043e+00	4.164110e+01	3.643768e+00	2.540131e+05	1.013200e+05	2.881206e+02	1.002747e-01	-7.050492e-03	0.000000e+00	
1.307692e+00	1.570790e-01	1.225043e+00	4.164110e+01	3.643767e+00	2.540131e+05	1.013200e+05	2.881206e+02	1.002747e-01	-7.050554e-03	0.000000e+00	
1.000000e+00	1.570790e-01	1.225043e+00	4.164110e+01	3.643761e+00	2.540131e+05	1.013200e+05	2.881206e+02	1.002747e-01	-7.050796e-03	0.000000e+00	
1.535210e+00	-1.787578e-02	1.225043e+00	4.164110e+01	3.643768e+00	2.540131e+05	1.013200e+05	2.881206e+02	1.002747e-01	-7.050399e-03	0.000000e+00	
1.461538e+00	1.570790e-01	1.225043e+00	4.164110e+01	3.643768e+00	2.540131e+05	1.013200e+05	2.881206e+02	1.002747e-01	-7.050450e-03	0.000000e+00	
1.696769e+00	-1.532189e-02	1.225043e+00	4.164110e+01	3.643768e+00	2.540131e+05	1.013200e+05	2.881206e+02	1.002747e-01	-7.050306e-03	0.000000e+00	
1.615385e+00	1.570790e-01	1.225043e+00	4.164110e+01	3.643768e+00	2.540131e+05	1.013200e+05	2.881206e+02	1.002747e-01	-7.050356e-03	0.000000e+00	
1.841566e+00	1.530411e-02	1.225043e+00	4.164110e+01	3.643768e+00	2.540131e+05	1.013200e+05	2.881206e+02	1.002747e-01	-7.050214e-03	0.000000e+00	
1.769231e+00	1.570790e-01	1.225043e+00	4.164110e+01	3.643768e+00	2.540131e+05	1.013200e+05	2.881206e+02	1.002747e-01	-7.050261e-03	0.000000e+00	
2.002517e+00	1.777051e-02	1.225043e+00	4.164110e+01	3.643768e+00	2.540131e+05	1.013200e+05	2.881206e+02	1.002747e-01	-7.050120e-03	0.000000e+00	
1.923077e+00	1.570790e-01	1.225043e+00	4.164110e+01	3.643768e+00	2.540131e+05	1.013200e+05	2.881206e+02	1.002747e-01	-7.050168e-03	0.000000e+00	
2.076923e+00	1.570790e-01	1.225043e+00	4.164110e+01	3.643768e+00	2.540131e+05	1.013200e+05	2.881206e+02	1.002747e-01	-7.050074e-03	0.000000e+00	
2.149352e+00	-1.586255e-02	1.225043e+00	4.164110e+01	3.643769e+00	2.540131e+05	1.013200e+05	2.881206e+02	1.002747e-01	-7.050027e-03	0.000000e+00	
2.230769e+00	1.570790e-01	1.225043e+00	4.164110e+01	3.643769e+00	2.540131e+05	1.013200e+05	2.881206e+02	1.002747e-01	-7.049981e-03	0.000000e+00	
2.307860e+00	-2.343796e-02	1.225043e+00	4.164110e+01	3.643769e+00	2.540131e+05	1.013200e+05	2.881206e+02	1.002747e-01	-7.049934e-03	0.000000e+00	
2.384615e+00	1.570790e-01	1.225043e+00	4.164110e+01	3.643769e+00	2.540131e+05	1.013200e+05	2.881206e+02	1.002747e-01	-7.049886e-03	0.000000e+00	
2.467173e+00	-1.609989e-02	1.225043e+00	4.164110e+01	3.643769e+00	2.540131e+05	1.013200e+05	2.881206e+02	1.002747e-01	-7.049839e-03	0.000000e+00	
2.538462e+00	1.570790e-01	1.225043e+00	4.164110e+01	3.643769e+00	2.540131e+05	1.013200e+05	2.881206e+02	1.002747e-01	-7.049795e-03	0.000000e+00	
2.614753e+00	1.539003e-02	1.225043e+00	4.164110e+01	3.643769e+00	2.540131e+05	1.013200e+05	2.881206e+02	1.002747e-01	-7.049746e-03	0.000000e+00	
2.692308e+00	1.570790e-01	1.225043e+00	4.164110e+01	3.643769e+00	2.540131e+05	1.013200e+05	2.881206e+02	1.002747e-01	-7.049697e-03	0.000000e+00	
2.798052e+00	1.931708e-02	1.225043e+00	4.164110e+01	3.643769e+00	2.540131e+05	1.013200e+05	2.881206e+02	1.002747e-01	-7.049652e-03	0.000000e+00	
2.846154e+00	1.570790e-01	1.225043e+00	4.164110e+01	3.643770e+00	2.540131e+05	1.013200e+05	2.881206e+02	1.002747e-01	-7.049614e-03	0.000000e+00	
3.000000e+00	0.000000e+00	1.225043e+00	4.164110e+01	3.643770e+00	2.540131e+05	1.013200e+05	2.881206e+02	1.002747e-01	-7.049515e-03	0.000000e+00	
3.000000e+00	1.570790e-01	1.225043e+00	4.164110e+01	3.643770e+00	2.540131e+05	1.013200e+05	2.881206e+02	1.002747e-01	-7.049523e-03	0.000000e+00	
1.000000e+00	-1.570790e-01	1.225043e+00	4.164110e+01	3.643761e+00	2.540131e+05	1.013200e+05	2.881206e+02	1.002747e-01	-7.050796e-03	0.000000e+00	
1.153846e+00	-1.570790e-01	1.225043e+00	4.164110e+01	3.643766e+00	2.540131e+05	1.013200e+05	2.881206e+02	1.002747e-01	-7.050650e-03	0.000000e+00	
1.307692e+00	-1.570790e-01	1.225043e+00	4.164110e+01	3.643767e+00	2.540131e+05	1.013200e+05	2.881206e+02	1.002747e-01	-7.050554e-03	0.000000e+00	
1.461538e+00	-1.570790e-01	1.225043e+00	4.164110e+01	3.643768e+00	2.540131e+05	1.013200e+05	2.881206e+02	1.002747e-01	-7.050450e-03	0.000000e+00	
1.615385e+00	-1.570790e-01	1.225043e+00	4.164110e+01	3.643768e+00	2.540131e+05	1.013200e+05	2.881206e+02	1.002747e-01	-7.050356e-03	0.000000e+00	
1.769231e+00	-1.570790e-01	1.225043e+00	4.164110e+01	3.643768e+00	2.540131e+05	1.013200e+05	2.881206e+02	1.002747e-01	-7.050261e-03	0.000000e+00	
1.923077e+00	-1.570790e-01	1.225043e+00	4.164110e+01	3.643768e+00	2.540131e+05	1.013200e+05	2.881206e+02	1.002747e-01	-7.050168e-03	0.000000e+00	
2.076923e+00	-1.570790e-01	1.225043e+00	4.164110e+01	3.643768e+00	2.540131e+05	1.013200e+05	2.881206e+02	1.002747e-01	-7.050074e-03	0.000000e+00	
2.230769e+00	-1.570790e-01	1.225043e+00	4.164110e+01	3.643769e+00	2.540131e+05	1.013200e+05	2.881206e+02	1.002747e-01	-7.049981e-03	0.000000e+00	
2.384615e+00	-1.570790e-01	1.225043e+00	4.164110e+01	3.643769e+00	2.540131e+05	1.013200e+05	2.881206e+02	1.002747e-01	-7.049886e-03	0.000000e+00	
2.538462e+00	-1.570790e-01	1.225043e+00	4.164110e+01	3.643769e+00	2.540131e+05	1.013200e+05	2.881206e+02	1.002747e-01	-7.049795e-03	0.000000e+00	
2.692308e+00	-1.570790e-01	1.225043e+00	4.164110e+01	3.643769e+00	2.540131e+05	1.013200e+05	2.881206e+02	1.002747e-01	-7.049697e-03	0.000000e+00	
3.000000e+00	-1.570790e-01	1.225043e+00	4.164110e+01	3.643770e+00	2.540131e+05	1.013200e+05	2.881206e+02	1.002747e-01	-7.049523e-03	0.000000e+00	
2.846154e+00	-1.570790e-01	1.225043e+00	4.164110e+01	3.643770e+00	2.540131e+05	1.013200e+05	2.881206e+02	1.002747e-01	-7.049614e-03	0.000000e+00	
28	29	1	1
1	29	2	2
30	2	29	29
1	2	3	3
4	2	30	30
2	5	3	3
1	3	6	6
31	4	30	30
4	5	2	2
7	4	31	31
8	5	4	4
32	7	31	31
4	7	8	8
9	7	32	32
7	10	8	8
33	9	32	32
7	9	10	10
11	9	33	33
9	12	10	10
34	11	33	33
9	11	12	12
34	13	11	11
11	14	12	12
13	14	11	11
35	13	34	34
13	15	14	14
35	16	13	13
16	15	13	13
36	16	35	35
16	17	15	15
36	18	16	16
18	17	16	16
37	18	36	36
18	19	17	17
20	18	37	37
18	20	19	19
38	20	37	37
20	21	19	19
38	22	20	20
22	21	20	20
39	22	38	38
22	23	21	21
39	24	22	22
24	23	22	22
41	24	39	39
24	25	23	23
26	24	41	41
26	25	24	24
26	41	40	40
26	27	25	25
