TITLE = "Visualization of the volumetric solution"
VARIABLES = "x","y","Density","Momentum_x","Momentum_y","Energy","Pressure","Temperature","Mach","C<sub>p</sub>","Roe_Dissipation"
ZONE NODES= 3200, ELEMENTS= 3081, DATAPACKING=POINT, ZONETYPE=FEQUADRILATERAL
-2.000000e+00	1.250000e+00	1.223926e+00	4.542798e+01	7.039000e-07	2.538189e+05	1.011903e+05	2.880143e+02	1.090969e-01	-1.898772e-01	0.000000e+00	
-2.000000e+00	1.218354e+00	1.223926e+00	4.542834e+01	-1.881691e-04	2.538188e+05	1.011903e+05	2.880143e+02	1.090977e-01	-1.899060e-01	0.000000e+00	
-1.948718e+00	1.218354e+00	1.223923e+00	4.542837e+01	-2.111512e-04	2.538181e+05	1.011900e+05	2.880141e+02	1.090981e-01	-1.903174e-01	0.000000e+00	
-1.948718e+00	1.250000e+00	1.223924e+00	4.542781e+01	1.035564e-06	2.538181e+05	1.011900e+05	2.880141e+02	1.090967e-01	-1.902993e-01	0.000000e+00	
-2.000000e+00	1.186709e+00	1.223926e+00	4.542857e+01	-1.699410e-04	2.538188e+05	1.011903e+05	2.880143e+02	1.090983e-01	-1.899170e-01	0.000000e+00	
-1.948718e+00	1.186709e+00	1.223924e+00	4.542879e+01	-2.121437e-04	2.538181e+05	1.011900e+05	2.880141e+02	1.090991e-01	-1.903129e-01	0.000000e+00	
-2.000000e+00	1.155063e+00	1.223926e+00	4.542866e+01	-1.036347e-04	2.538188e+05	1.011903e+05	2.880143e+02	1.090985e-01	-1.899261e-01	0.000000e+00	
-1.948718e+00	1.155063e+00	1.223924e+00	4.542893e+01	-1.669366e-04	2.538181e+05	1.011900e+05	2.880141e+02	1.090994e-01	-1.903192e-01	0.000000e+00	
-2.000000e+00	1.123418e+00	1.223926e+00	4.542870e+01	-4.585953e-05	2.538188e+05	1.011903e+05	2.880143e+02	1.090986e-01	-1.899302e-01	0.000000e+00	
-1.948718e+00	1.123418e+00	1.223924e+00	4.542895e+01	-1.005263e-04	2.538181e+05	1.011900e+05	2.880141e+02	1.090995e-01	-1.903200e-01	0.000000e+00	
-2.000000e+00	1.091772e+00	1.223926e+00	4.542873e+01	-1.540131e-05	2.538188e+05	1.011903e+05	2.880143e+02	1.090987e-01	-1.899326e-01	0.000000e+00	
-1.948718e+00	1.091772e+00	1.223923e+00	4.542894e+01	-5.847244e-05	2.538181e+05	1.011900e+05	2.880141e+02	1.090995e-01	-1.903226e-01	0.000000e+00	
-2.000000e+00	1.060127e+00	1.223926e+00	4.542874e+01	-2.141393e-06	2.538188e+05	1.011903e+05	2.880143e+02	1.090987e-01	-1.899334e-01	0.000000e+00	
-1.948718e+00	1.060127e+00	1.223923e+00	4.542894e+01	-3.062263e-05	2.538181e+05	1.011900e+05	2.880141e+02	1.090995e-01	-1.903236e-01	0.000000e+00	
-2.000000e+00	1.028481e+00	1.223926e+00	4.542876e+01	2.072613e-06	2.538188e+05	1.011903e+05	2.880143e+02	1.090988e-01	-1.899338e-01	0.000000e+00	
-1.948718e+00	1.028481e+00	1.223923e+00	4.542894e+01	-1.554697e-05	2.538181e+05	1.011900e+05	2.880141e+02	1.090995e-01	-1.903248e-01	0.000000e+00	
-2.000000e+00	9.968354e-01	1.223926e+00	4.542876e+01	3.042039e-06	2.538188e+05	1.011903e+05	2.880143e+02	1.090988e-01	-1.899337e-01	0.000000e+00	
-1.948718e+00	9.968354e-01	1.223923e+00	4.542894e+01	-5.767318e-06	2.538181e+05	1.011900e+05	2.880141e+02	1.090995e-01	-1.903253e-01	0.000000e+00	
-2.000000e+00	9.651899e-01	1.223926e+00	4.542876e+01	2.611051e-06	2.538188e+05	1.011903e+05	2.880143e+02	1.090988e-01	-1.899335e-01	0.000000e+00	
-1.948718e+00	9.651899e-01	1.223923e+00	4.542893e+01	-2.989572e-07	2.538181e+05	1.011900e+05	2.880141e+02	1.090995e-01	-1.903258e-01	0.000000e+00	
-2.000000e+00	9.335443e-01	1.223926e+00	4.542876e+01	1.929580e-06	2.538188e+05	1.011903e+05	2.880143e+02	1.090988e-01	-1.899332e-01	0.000000e+00	
-1.948718e+00	9.335443e-01	1.223923e+00	4.542893e+01	3.199446e-06	2.538181e+05	1.011900e+05	2.880141e+02	1.090994e-01	-1.903260e-01	0.000000e+00	
-2.000000e+00	9.018987e-01	1.223926e+00	4.542875e+01	1.299886e-06	2.538188e+05	1.011903e+05	2.880143e+02	1.090988e-01	-1.899329e-01	0.000000e+00	
-1.948718e+00	9.018987e-01	1.223923e+00	4.542893e+01	5.182675e-06	2.538181e+05	1.011900e+05	2.880141e+02	1.090994e-01	-1.903261e-01	0.000000e+00	
-2.000000e+00	8.702532e-01	1.223926e+00	4.542875e+01	9.071873e-07	2.538188e+05	1.011903e+05	2.880143e+02	1.090987e-01	-1.899326e-01	0.000000e+00	
-1.948718e+00	8.702532e-01	1.223923e+00	4.542892e+01	6.535109e-06	2.538181e+05	1.011900e+05	2.880141e+02	1.090994e-01	-1.903261e-01	0.000000e+00	
-2.000000e+00	8.386076e-01	1.223926e+00	4.542874e+01	6.648919e-07	2.538188e+05	1.011903e+05	2.880143e+02	1.090987e-01	-1.899322e-01	0.000000e+00	
-1.948718e+00	8.386076e-01	1.223923e+00	4.542891e+01	7.352291e-06	2.538181e+05	1.011900e+05	2.880141e+02	1.090994e-01	-1.903261e-01	0.000000e+00	
-2.000000e+00	8.069620e-01	1.223926e+00	4.542874e+01	5.165415e-07	2.538188e+05	1.011903e+05	2.880143e+02	1.090987e-01	-1.899319e-01	0.000000e+00	
-1.948718e+00	8.069620e-01	1.223923e+00	4.542891e+01	7.854563e-06	2.538181e+05	1.011900e+05	2.880141e+02	1.090994e-01	-1.903259e-01	0.000000e+00	
-2.000000e+00	7.753165e-01	1.223926e+00	4.542873e+01	3.959535e-07	2.538188e+05	1.011903e+05	2.880143e+02	1.090987e-01	-1.899316e-01	0.000000e+00	
-1.948718e+00	7.753165e-01	1.223923e+00	4.542890e+01	8.036890e-06	2.538181e+05	1.011900e+05	2.880141e+02	1.090994e-01	-1.903258e-01	0.000000e+00	
-2.000000e+00	7.436709e-01	1.223926e+00	4.542872e+01	2.980275e-07	2.538188e+05	1.011903e+05	2.880143e+02	1.090987e-01	-1.899313e-01	0.000000e+00	
-1.948718e+00	7.436709e-01	1.223923e+00	4.542890e+01	8.005406e-06	2.538181e+05	1.011900e+05	2.880141e+02	1.090994e-01	-1.903256e-01	0.000000e+00	
-2.000000e+00	7.120253e-01	1.223926e+00	4.542872e+01	2.192105e-07	2.538188e+05	1.011903e+05	2.880143e+02	1.090987e-01	-1.899310e-01	0.000000e+00	
-1.948718e+00	7.120253e-01	1.223923e+00	4.542889e+01	7.802459e-06	2.538181e+05	1.011900e+05	2.880141e+02	1.090994e-01	-1.903254e-01	0.000000e+00	
-2.000000e+00	6.803797e-01	1.223926e+00	4.542871e+01	1.656929e-07	2.538188e+05	1.011903e+05	2.880143e+02	1.090987e-01	-1.899307e-01	0.000000e+00	
-1.948718e+00	6.803797e-01	1.223923e+00	4.542889e+01	7.502592e-06	2.538181e+05	1.011900e+05	2.880141e+02	1.090993e-01	-1.903253e-01	0.000000e+00	
-2.000000e+00	6.487342e-01	1.223926e+00	4.542871e+01	1.329174e-07	2.538188e+05	1.011903e+05	2.880143e+02	1.090986e-01	-1.899305e-01	0.000000e+00	
-1.948718e+00	6.487342e-01	1.223923e+00	4.542888e+01	7.137741e-06	2.538181e+05	1.011900e+05	2.880141e+02	1.090993e-01	-1.903251e-01	0.000000e+00	
-2.000000e+00	6.170886e-01	1.223926e+00	4.542870e+01	1.169877e-07	2.538188e+05	1.011903e+05	2.880143e+02	1.090986e-01	-1.899302e-01	0.000000e+00	
-1.948718e+00	6.170886e-01	1.223923e+00	4.542888e+01	6.741375e-06	2.538181e+05	1.011900e+05	2.880141e+02	1.090993e-01	-1.903249e-01	0.000000e+00	
-2.000000e+00	5.854430e-01	1.223926e+00	4.542870e+01	1.115241e-07	2.538188e+05	1.011903e+05	2.880143e+02	1.090986e-01	-1.899300e-01	0.000000e+00	
-1.948718e+00	5.854430e-01	1.223923e+00	4.542887e+01	6.326505e-06	2.538181e+05	1.011900e+05	2.880141e+02	1.090993e-01	-1.903247e-01	0.000000e+00	
-2.000000e+00	5.537975e-01	1.223926e+00	4.542870e+01	1.129847e-07	2.538188e+05	1.011903e+05	2.880143e+02	1.090986e-01	-1.899298e-01	0.000000e+00	
-1.948718e+00	5.537975e-01	1.223923e+00	4.542887e+01	5.906877e-06	2.538181e+05	1.011900e+05	2.880141e+02	1.090993e-01	-1.903246e-01	0.000000e+00	
-2.000000e+00	5.221519e-01	1.223926e+00	4.542869e+01	1.183524e-07	2.538188e+05	1.011903e+05	2.880143e+02	1.090986e-01	-1.899297e-01	0.000000e+00	
-1.948718e+00	5.221519e-01	1.223923e+00	4.542887e+01	5.488624e-06	2.538181e+05	1.011900e+05	2.880141e+02	1.090993e-01	-1.903244e-01	0.000000e+00	
-2.000000e+00	4.905063e-01	1.223926e+00	4.542869e+01	1.262409e-07	2.538188e+05	1.011903e+05	2.880143e+02	1.090986e-01	-1.899295e-01	0.000000e+00	
-1.948718e+00	4.905063e-01	1.223923e+00	4.542886e+01	5.078243e-06	2.538181e+05	1.011900e+05	2.880141e+02	1.090993e-01	-1.903243e-01	0.000000e+00	
-2.000000e+00	4.588608e-01	1.223926e+00	4.542869e+01	1.354764e-07	2.538188e+05	1.011903e+05	2.880143e+02	1.090986e-01	-1.899293e-01	0.000000e+00	
-1.948718e+00	4.588608e-01	1.223923e+00	4.542886e+01	4.678763e-06	2.538181e+05	1.011900e+05	2.880141e+02	1.090993e-01	-1.903241e-01	0.000000e+00	
-2.000000e+00	4.272152e-01	1.223926e+00	4.542868e+01	1.454672e-07	2.538188e+05	1.011903e+05	2.880143e+02	1.090986e-01	-1.899292e-01	0.000000e+00	
-1.948718e+00	4.272152e-01	1.223923e+00	4.542886e+01	4.292912e-06	2.538181e+05	1.011900e+05	2.880141e+02	1.090993e-01	-1.903240e-01	0.000000e+00	
-2.000000e+00	3.955696e-01	1.223926e+00	4.542868e+01	1.556728e-07	2.538188e+05	1.011903e+05	2.880143e+02	1.090986e-01	-1.899291e-01	0.000000e+00	
-1.948718e+00	3.955696e-01	1.223923e+00	4.542885e+01	3.921640e-06	2.538181e+05	1.011900e+05	2.880141e+02	1.090993e-01	-1.903239e-01	0.000000e+00	
-2.000000e+00	3.639241e-01	1.223926e+00	4.542868e+01	1.658028e-07	2.538188e+05	1.011903e+05	2.880143e+02	1.090986e-01	-1.899290e-01	0.000000e+00	
-1.948718e+00	3.639241e-01	1.223923e+00	4.542885e+01	3.565542e-06	2.538181e+05	1.011900e+05	2.880141e+02	1.090993e-01	-1.903238e-01	0.000000e+00	
-2.000000e+00	3.322785e-01	1.223926e+00	4.542868e+01	1.756150e-07	2.538188e+05	1.011903e+05	2.880143e+02	1.090986e-01	-1.899289e-01	0.000000e+00	
-1.948718e+00	3.322785e-01	1.223923e+00	4.542885e+01	3.224339e-06	2.538181e+05	1.011900e+05	2.880141e+02	1.090993e-01	-1.903237e-01	0.000000e+00	
-2.000000e+00	3.006329e-01	1.223926e+00	4.542868e+01	1.849950e-07	2.538188e+05	1.011903e+05	2.880143e+02	1.090986e-01	-1.899288e-01	0.000000e+00	
-1.948718e+00	3.006329e-01	1.223923e+00	4.542885e+01	2.897522e-06	2.538181e+05	1.011900e+05	2.880141e+02	1.090992e-01	-1.903236e-01	0.000000e+00	
-2.000000e+00	2.689873e-01	1.223926e+00	4.542867e+01	1.938674e-07	2.538188e+05	1.011903e+05	2.880143e+02	1.090986e-01	-1.899287e-01	0.000000e+00	
-1.948718e+00	2.689873e-01	1.223923e+00	4.542885e+01	2.584167e-06	2.538181e+05	1.011900e+05	2.880141e+02	1.090992e-01	-1.903235e-01	0.000000e+00	
-2.000000e+00	2.373418e-01	1.223926e+00	4.542867e+01	2.022215e-07	2.538188e+05	1.011903e+05	2.880143e+02	1.090986e-01	-1.899287e-01	0.000000e+00	
-1.948718e+00	2.373418e-01	1.223923e+00	4.542885e+01	2.283226e-06	2.538181e+05	1.011900e+05	2.880141e+02	1.090992e-01	-1.903235e-01	0.000000e+00	
-2.000000e+00	2.056962e-01	1.223926e+00	4.542867e+01	2.100700e-07	2.538188e+05	1.011903e+05	2.880143e+02	1.090986e-01	-1.899286e-01	0.000000e+00	
-1.948718e+00	2.056962e-01	1.223923e+00	4.542884e+01	1.993459e-06	2.538181e+05	1.011900e+05	2.880141e+02	1.090992e-01	-1.903234e-01	0.000000e+00	
-2.000000e+00	1.740506e-01	1.223926e+00	4.542867e+01	2.174560e-07	2.538188e+05	1.011903e+05	2.880143e+02	1.090986e-01	-1.899286e-01	0.000000e+00	
-1.948718e+00	1.740506e-01	1.223923e+00	4.542884e+01	1.713568e-06	2.538181e+05	1.011900e+05	2.880141e+02	1.090992e-01	-1.903234e-01	0.000000e+00	
-2.000000e+00	1.424051e-01	1.223926e+00	4.542867e+01	2.244336e-07	2.538188e+05	1.011903e+05	2.880143e+02	1.090986e-01	-1.899285e-01	0.000000e+00	
-1.948718e+00	1.424051e-01	1.223923e+00	4.542884e+01	1.442169e-06	2.538181e+05	1.011900e+05	2.880141e+02	1.090992e-01	-1.903233e-01	0.000000e+00	
-2.000000e+00	1.107595e-01	1.223926e+00	4.542867e+01	2.310702e-07	2.538188e+05	1.011903e+05	2.880143e+02	1.090986e-01	-1.899285e-01	0.000000e+00	
-1.948718e+00	1.107595e-01	1.223923e+00	4.542884e+01	1.177852e-06	2.538181e+05	1.011900e+05	2.880141e+02	1.090992e-01	-1.903233e-01	0.000000e+00	
-2.000000e+00	7.911392e-02	1.223926e+00	4.542867e+01	2.374379e-07	2.538188e+05	1.011903e+05	2.880143e+02	1.090986e-01	-1.899285e-01	0.000000e+00	
-1.948718e+00	7.911392e-02	1.223923e+00	4.542884e+01	9.191696e-07	2.538181e+05	1.011900e+05	2.880141e+02	1.090992e-01	-1.903233e-01	0.000000e+00	
-2.000000e+00	4.746835e-02	1.223926e+00	4.542867e+01	2.436144e-07	2.538188e+05	1.011903e+05	2.880143e+02	1.090986e-01	-1.899285e-01	0.000000e+00	
-1.948718e+00	4.746835e-02	1.223923e+00	4.542884e+01	6.646644e-07	2.538181e+05	1.011900e+05	2.880141e+02	1.090992e-01	-1.903233e-01	0.000000e+00	
-2.000000e+00	1.582278e-02	1.223926e+00	4.542867e+01	2.496792e-07	2.538188e+05	1.011903e+05	2.880143e+02	1.090986e-01	-1.899285e-01	0.000000e+00	
-1.948718e+00	1.582278e-02	1.223923e+00	4.542884e+01	4.128627e-07	2.538181e+05	1.011900e+05	2.880141e+02	1.090992e-01	-1.903233e-01	0.000000e+00	
-2.000000e+00	-1.582278e-02	1.223926e+00	4.542867e+01	2.557138e-07	2.538188e+05	1.011903e+05	2.880143e+02	1.090986e-01	-1.899285e-01	0.000000e+00	
-1.948718e+00	-1.582278e-02	1.223923e+00	4.542884e+01	1.622867e-07	2.538181e+05	1.011900e+05	2.880141e+02	1.090992e-01	-1.903233e-01	0.000000e+00	
-2.000000e+00	-4.746835e-02	1.223926e+00	4.542867e+01	2.618012e-07	2.538188e+05	1.011903e+05	2.880143e+02	1.090986e-01	-1.899285e-01	0.000000e+00	
-1.948718e+00	-4.746835e-02	1.223923e+00	4.542884e+01	-8.854992e-08	2.538181e+05	1.011900e+05	2.880141e+02	1.090992e-01	-1.903233e-01	0.000000e+00	
-2.000000e+00	-7.911392e-02	1.223926e+00	4.542867e+01	2.680245e-07	2.538188e+05	1.011903e+05	2.880143e+02	1.090986e-01	-1.899285e-01	0.000000e+00	
-1.948718e+00	-7.911392e-02	1.223923e+00	4.542884e+01	-3.411354e-07	2.538181e+05	1.011900e+05	2.880141e+02	1.090992e-01	-1.903233e-01	0.000000e+00	
-2.000000e+00	-1.107595e-01	1.223926e+00	4.542867e+01	2.744652e-07	2.538188e+05	1.011903e+05	2.880143e+02	1.090986e-01	-1.899285e-01	0.000000e+00	
-1.948718e+00	-1.107595e-01	1.223923e+00	4.542884e+01	-5.969644e-07	2.538181e+05	1.011900e+05	2.880141e+02	1.090992e-01	-1.903233e-01	0.000000e+00	
-2.000000e+00	-1.424051e-01	1.223926e+00	4.542867e+01	2.812042e-07	2.538188e+05	1.011903e+05	2.880143e+02	1.090986e-01	-1.899286e-01	0.000000e+00	
-1.948718e+00	-1.424051e-01	1.223923e+00	4.542884e+01	-8.575271e-07	2.538181e+05	1.011900e+05	2.880141e+02	1.090992e-01	-1.903234e-01	0.000000e+00	
-2.000000e+00	-1.740506e-01	1.223926e+00	4.542867e+01	2.883179e-07	2.538188e+05	1.011903e+05	2.880143e+02	1.090986e-01	-1.899286e-01	0.000000e+00	
-1.948718e+00	-1.740506e-01	1.223923e+00	4.542884e+01	-1.124314e-06	2.538181e+05	1.011900e+05	2.880141e+02	1.090992e-01	-1.903234e-01	0.000000e+00	
-2.000000e+00	-2.056962e-01	1.223926e+00	4.542867e+01	2.958789e-07	2.538188e+05	1.011903e+05	2.880143e+02	1.090986e-01	-1.899287e-01	0.000000e+00	
-1.948718e+00	-2.056962e-01	1.223923e+00	4.542885e+01	-1.398794e-06	2.538181e+05	1.011900e+05	2.880141e+02	1.090992e-01	-1.903235e-01	0.000000e+00	
-2.000000e+00	-2.373418e-01	1.223926e+00	4.542867e+01	3.039469e-07	2.538188e+05	1.011903e+05	2.880143e+02	1.090986e-01	-1.899287e-01	0.000000e+00	
-1.948718e+00	-2.373418e-01	1.223923e+00	4.542885e+01	-1.682420e-06	2.538181e+05	1.011900e+05	2.880141e+02	1.090992e-01	-1.903235e-01	0.000000e+00	
-2.000000e+00	-2.689873e-01	1.223926e+00	4.542868e+01	3.125726e-07	2.538188e+05	1.011903e+05	2.880143e+02	1.090986e-01	-1.899288e-01	0.000000e+00	
-1.948718e+00	-2.689873e-01	1.223923e+00	4.542885e+01	-1.976575e-06	2.538181e+05	1.011900e+05	2.880141e+02	1.090992e-01	-1.903236e-01	0.000000e+00	
-2.000000e+00	-3.006329e-01	1.223926e+00	4.542868e+01	3.217763e-07	2.538188e+05	1.011903e+05	2.880143e+02	1.090986e-01	-1.899289e-01	0.000000e+00	
-1.948718e+00	-3.006329e-01	1.223923e+00	4.542885e+01	-2.282601e-06	2.538181e+05	1.011900e+05	2.880141e+02	1.090993e-01	-1.903237e-01	0.000000e+00	
-2.000000e+00	-3.322785e-01	1.223926e+00	4.542868e+01	3.315578e-07	2.538188e+05	1.011903e+05	2.880143e+02	1.090986e-01	-1.899290e-01	0.000000e+00	
-1.948718e+00	-3.322785e-01	1.223923e+00	4.542885e+01	-2.601660e-06	2.538181e+05	1.011900e+05	2.880141e+02	1.090993e-01	-1.903238e-01	0.000000e+00	
-2.000000e+00	-3.639241e-01	1.223926e+00	4.542868e+01	3.418508e-07	2.538188e+05	1.011903e+05	2.880143e+02	1.090986e-01	-1.899291e-01	0.000000e+00	
-1.948718e+00	-3.639241e-01	1.223923e+00	4.542885e+01	-2.934816e-06	2.538181e+05	1.011900e+05	2.880141e+02	1.090993e-01	-1.903239e-01	0.000000e+00	
-2.000000e+00	-3.955696e-01	1.223926e+00	4.542868e+01	3.525554e-07	2.538188e+05	1.011903e+05	2.880143e+02	1.090986e-01	-1.899292e-01	0.000000e+00	
-1.948718e+00	-3.955696e-01	1.223923e+00	4.542886e+01	-3.282727e-06	2.538181e+05	1.011900e+05	2.880141e+02	1.090993e-01	-1.903240e-01	0.000000e+00	
-2.000000e+00	-4.272152e-01	1.223926e+00	4.542869e+01	3.634398e-07	2.538188e+05	1.011903e+05	2.880143e+02	1.090986e-01	-1.899293e-01	0.000000e+00	
-1.948718e+00	-4.272152e-01	1.223923e+00	4.542886e+01	-3.645862e-06	2.538181e+05	1.011900e+05	2.880141e+02	1.090993e-01	-1.903241e-01	0.000000e+00	
-2.000000e+00	-4.588608e-01	1.223926e+00	4.542869e+01	3.742327e-07	2.538188e+05	1.011903e+05	2.880143e+02	1.090986e-01	-1.899294e-01	0.000000e+00	
-1.948718e+00	-4.588608e-01	1.223923e+00	4.542886e+01	-4.023811e-06	2.538181e+05	1.011900e+05	2.880141e+02	1.090993e-01	-1.903242e-01	0.000000e+00	
-2.000000e+00	-4.905063e-01	1.223926e+00	4.542869e+01	3.844037e-07	2.538188e+05	1.011903e+05	2.880143e+02	1.090986e-01	-1.899296e-01	0.000000e+00	
-1.948718e+00	-4.905063e-01	1.223923e+00	4.542886e+01	-4.415883e-06	2.538181e+05	1.011900e+05	2.880141e+02	1.090993e-01	-1.903244e-01	0.000000e+00	
-2.000000e+00	-5.221519e-01	1.223926e+00	4.542869e+01	3.933889e-07	2.538188e+05	1.011903e+05	2.880143e+02	1.090986e-01	-1.899298e-01	0.000000e+00	
-1.948718e+00	-5.221519e-01	1.223923e+00	4.542887e+01	-4.819569e-06	2.538181e+05	1.011900e+05	2.880141e+02	1.090993e-01	-1.903245e-01	0.000000e+00	
-2.000000e+00	-5.537975e-01	1.223926e+00	4.542870e+01	4.000187e-07	2.538188e+05	1.011903e+05	2.880143e+02	1.090986e-01	-1.899299e-01	0.000000e+00	
-1.948718e+00	-5.537975e-01	1.223923e+00	4.542887e+01	-5.232205e-06	2.538181e+05	1.011900e+05	2.880141e+02	1.090993e-01	-1.903247e-01	0.000000e+00	
-2.000000e+00	-5.854430e-01	1.223926e+00	4.542870e+01	4.029542e-07	2.538188e+05	1.011903e+05	2.880143e+02	1.090986e-01	-1.899301e-01	0.000000e+00	
-1.948718e+00	-5.854430e-01	1.223923e+00	4.542887e+01	-5.647517e-06	2.538181e+05	1.011900e+05	2.880141e+02	1.090993e-01	-1.903249e-01	0.000000e+00	
-2.000000e+00	-6.170886e-01	1.223926e+00	4.542871e+01	3.991681e-07	2.538188e+05	1.011903e+05	2.880143e+02	1.090986e-01	-1.899303e-01	0.000000e+00	
-1.948718e+00	-6.170886e-01	1.223923e+00	4.542888e+01	-6.059915e-06	2.538181e+05	1.011900e+05	2.880141e+02	1.090993e-01	-1.903250e-01	0.000000e+00	
-2.000000e+00	-6.487342e-01	1.223926e+00	4.542871e+01	3.852123e-07	2.538188e+05	1.011903e+05	2.880143e+02	1.090987e-01	-1.899306e-01	0.000000e+00	
-1.948718e+00	-6.487342e-01	1.223923e+00	4.542888e+01	-6.455807e-06	2.538181e+05	1.011900e+05	2.880141e+02	1.090993e-01	-1.903252e-01	0.000000e+00	
-2.000000e+00	-6.803797e-01	1.223926e+00	4.542872e+01	3.546555e-07	2.538188e+05	1.011903e+05	2.880143e+02	1.090987e-01	-1.899308e-01	0.000000e+00	
-1.948718e+00	-6.803797e-01	1.223923e+00	4.542889e+01	-6.823057e-06	2.538181e+05	1.011900e+05	2.880141e+02	1.090993e-01	-1.903254e-01	0.000000e+00	
-2.000000e+00	-7.120253e-01	1.223926e+00	4.542872e+01	3.037834e-07	2.538188e+05	1.011903e+05	2.880143e+02	1.090987e-01	-1.899311e-01	0.000000e+00	
-1.948718e+00	-7.120253e-01	1.223923e+00	4.542889e+01	-7.128094e-06	2.538181e+05	1.011900e+05	2.880141e+02	1.090994e-01	-1.903256e-01	0.000000e+00	
-2.000000e+00	-7.436709e-01	1.223926e+00	4.542873e+01	2.278389e-07	2.538188e+05	1.011903e+05	2.880143e+02	1.090987e-01	-1.899314e-01	0.000000e+00	
-1.948718e+00	-7.436709e-01	1.223923e+00	4.542890e+01	-7.340579e-06	2.538181e+05	1.011900e+05	2.880141e+02	1.090994e-01	-1.903258e-01	0.000000e+00	
-2.000000e+00	-7.753165e-01	1.223926e+00	4.542873e+01	1.333565e-07	2.538188e+05	1.011903e+05	2.880143e+02	1.090987e-01	-1.899317e-01	0.000000e+00	
-1.948718e+00	-7.753165e-01	1.223923e+00	4.542890e+01	-7.385103e-06	2.538181e+05	1.011900e+05	2.880141e+02	1.090994e-01	-1.903259e-01	0.000000e+00	
-2.000000e+00	-8.069620e-01	1.223926e+00	4.542874e+01	1.625346e-08	2.538188e+05	1.011903e+05	2.880143e+02	1.090987e-01	-1.899320e-01	0.000000e+00	
-1.948718e+00	-8.069620e-01	1.223923e+00	4.542891e+01	-7.222358e-06	2.538181e+05	1.011900e+05	2.880141e+02	1.090994e-01	-1.903261e-01	0.000000e+00	
-2.000000e+00	-8.386076e-01	1.223926e+00	4.542874e+01	-1.276095e-07	2.538188e+05	1.011903e+05	2.880143e+02	1.090987e-01	-1.899324e-01	0.000000e+00	
-1.948718e+00	-8.386076e-01	1.223923e+00	4.542892e+01	-6.742994e-06	2.538181e+05	1.011900e+05	2.880141e+02	1.090994e-01	-1.903262e-01	0.000000e+00	
-2.000000e+00	-8.702532e-01	1.223926e+00	4.542875e+01	-3.652617e-07	2.538188e+05	1.011903e+05	2.880143e+02	1.090988e-01	-1.899327e-01	0.000000e+00	
-1.948718e+00	-8.702532e-01	1.223923e+00	4.542892e+01	-5.957776e-06	2.538181e+05	1.011900e+05	2.880141e+02	1.090994e-01	-1.903263e-01	0.000000e+00	
-2.000000e+00	-9.018987e-01	1.223926e+00	4.542876e+01	-7.503936e-07	2.538188e+05	1.011903e+05	2.880143e+02	1.090988e-01	-1.899331e-01	0.000000e+00	
-1.948718e+00	-9.018987e-01	1.223923e+00	4.542893e+01	-4.637249e-06	2.538181e+05	1.011900e+05	2.880141e+02	1.090994e-01	-1.903263e-01	0.000000e+00	
-2.000000e+00	-9.335443e-01	1.223926e+00	4.542876e+01	-1.371655e-06	2.538188e+05	1.011903e+05	2.880143e+02	1.090988e-01	-1.899334e-01	0.000000e+00	
-1.948718e+00	-9.335443e-01	1.223923e+00	4.542893e+01	-2.698425e-06	2.538181e+05	1.011900e+05	2.880141e+02	1.090995e-01	-1.903262e-01	0.000000e+00	
-2.000000e+00	-9.651899e-01	1.223926e+00	4.542876e+01	-2.038956e-06	2.538188e+05	1.011903e+05	2.880143e+02	1.090988e-01	-1.899337e-01	0.000000e+00	
-1.948718e+00	-9.651899e-01	1.223923e+00	4.542894e+01	7.636220e-07	2.538181e+05	1.011900e+05	2.880141e+02	1.090995e-01	-1.903260e-01	0.000000e+00	
-2.000000e+00	-9.968354e-01	1.223926e+00	4.542876e+01	-2.457057e-06	2.538188e+05	1.011903e+05	2.880143e+02	1.090988e-01	-1.899339e-01	0.000000e+00	
-1.948718e+00	-9.968354e-01	1.223923e+00	4.542894e+01	6.175258e-06	2.538181e+05	1.011900e+05	2.880141e+02	1.090995e-01	-1.903255e-01	0.000000e+00	
-2.000000e+00	-1.028481e+00	1.223926e+00	4.542876e+01	-1.466595e-06	2.538188e+05	1.011903e+05	2.880143e+02	1.090988e-01	-1.899340e-01	0.000000e+00	
-1.948718e+00	-1.028481e+00	1.223923e+00	4.542894e+01	1.592586e-05	2.538181e+05	1.011900e+05	2.880141e+02	1.090995e-01	-1.903250e-01	0.000000e+00	
-2.000000e+00	-1.060127e+00	1.223926e+00	4.542875e+01	2.767971e-06	2.538188e+05	1.011903e+05	2.880143e+02	1.090987e-01	-1.899337e-01	0.000000e+00	
-1.948718e+00	-1.060127e+00	1.223923e+00	4.542894e+01	3.095253e-05	2.538181e+05	1.011900e+05	2.880141e+02	1.090995e-01	-1.903238e-01	0.000000e+00	
-2.000000e+00	-1.091772e+00	1.223926e+00	4.542873e+01	1.608000e-05	2.538188e+05	1.011903e+05	2.880143e+02	1.090987e-01	-1.899328e-01	0.000000e+00	
-1.948718e+00	-1.091772e+00	1.223923e+00	4.542895e+01	5.884988e-05	2.538181e+05	1.011900e+05	2.880141e+02	1.090995e-01	-1.903229e-01	0.000000e+00	
-2.000000e+00	-1.123418e+00	1.223926e+00	4.542870e+01	4.663283e-05	2.538188e+05	1.011903e+05	2.880143e+02	1.090986e-01	-1.899305e-01	0.000000e+00	
-1.948718e+00	-1.123418e+00	1.223924e+00	4.542895e+01	1.009781e-04	2.538181e+05	1.011900e+05	2.880141e+02	1.090995e-01	-1.903202e-01	0.000000e+00	
-2.000000e+00	-1.155063e+00	1.223926e+00	4.542867e+01	1.046005e-04	2.538188e+05	1.011903e+05	2.880143e+02	1.090986e-01	-1.899264e-01	0.000000e+00	
-1.948718e+00	-1.155063e+00	1.223923e+00	4.542894e+01	1.676881e-04	2.538181e+05	1.011900e+05	2.880141e+02	1.090995e-01	-1.903195e-01	0.000000e+00	
-2.000000e+00	-1.186709e+00	1.223926e+00	4.542857e+01	1.711235e-04	2.538188e+05	1.011903e+05	2.880143e+02	1.090983e-01	-1.899172e-01	0.000000e+00	
-1.948718e+00	-1.186709e+00	1.223924e+00	4.542879e+01	2.132385e-04	2.538181e+05	1.011900e+05	2.880141e+02	1.090991e-01	-1.903132e-01	0.000000e+00	
-2.000000e+00	-1.218354e+00	1.223926e+00	4.542834e+01	1.898300e-04	2.538188e+05	1.011903e+05	2.880143e+02	1.090977e-01	-1.899064e-01	0.000000e+00	
-1.948718e+00	-1.218354e+00	1.223923e+00	4.542838e+01	2.126374e-04	2.538181e+05	1.011900e+05	2.880141e+02	1.090981e-01	-1.903175e-01	0.000000e+00	
-1.897436e+00	1.218354e+00	1.223922e+00	4.542820e+01	-1.794922e-04	2.538176e+05	1.011898e+05	2.880139e+02	1.090979e-01	-1.906230e-01	0.000000e+00	
-1.897436e+00	1.250000e+00	1.223922e+00	4.542750e+01	-4.165119e-07	2.538176e+05	1.011898e+05	2.880139e+02	1.090962e-01	-1.906142e-01	0.000000e+00	
-1.897436e+00	1.186709e+00	1.223922e+00	4.542881e+01	-2.055436e-04	2.538176e+05	1.011898e+05	2.880139e+02	1.090993e-01	-1.906195e-01	0.000000e+00	
-1.897436e+00	1.155063e+00	1.223922e+00	4.542903e+01	-1.795255e-04	2.538176e+05	1.011898e+05	2.880139e+02	1.090999e-01	-1.906248e-01	0.000000e+00	
-1.897436e+00	1.123418e+00	1.223922e+00	4.542905e+01	-1.188776e-04	2.538176e+05	1.011898e+05	2.880139e+02	1.090999e-01	-1.906245e-01	0.000000e+00	
-1.897436e+00	1.091772e+00	1.223922e+00	4.542902e+01	-7.559493e-05	2.538176e+05	1.011898e+05	2.880139e+02	1.090999e-01	-1.906269e-01	0.000000e+00	
-1.897436e+00	1.060127e+00	1.223922e+00	4.542900e+01	-4.157862e-05	2.538176e+05	1.011898e+05	2.880139e+02	1.090998e-01	-1.906272e-01	0.000000e+00	
-1.897436e+00	1.028481e+00	1.223922e+00	4.542898e+01	-2.072433e-05	2.538176e+05	1.011898e+05	2.880139e+02	1.090998e-01	-1.906283e-01	0.000000e+00	
-1.897436e+00	9.968354e-01	1.223922e+00	4.542897e+01	-5.491896e-06	2.538176e+05	1.011898e+05	2.880139e+02	1.090997e-01	-1.906286e-01	0.000000e+00	
-1.897436e+00	9.651899e-01	1.223922e+00	4.542896e+01	3.679299e-06	2.538176e+05	1.011898e+05	2.880139e+02	1.090997e-01	-1.906290e-01	0.000000e+00	
-1.897436e+00	9.335443e-01	1.223922e+00	4.542895e+01	9.669889e-06	2.538176e+05	1.011898e+05	2.880139e+02	1.090997e-01	-1.906291e-01	0.000000e+00	
-1.897436e+00	9.018987e-01	1.223922e+00	4.542894e+01	1.290914e-05	2.538176e+05	1.011898e+05	2.880139e+02	1.090997e-01	-1.906292e-01	0.000000e+00	
-1.897436e+00	8.702532e-01	1.223922e+00	4.542894e+01	1.489100e-05	2.538176e+05	1.011898e+05	2.880139e+02	1.090997e-01	-1.906292e-01	0.000000e+00	
-1.897436e+00	8.386076e-01	1.223922e+00	4.542893e+01	1.589322e-05	2.538176e+05	1.011898e+05	2.880139e+02	1.090996e-01	-1.906291e-01	0.000000e+00	
-1.897436e+00	8.069620e-01	1.223922e+00	4.542892e+01	1.638836e-05	2.538176e+05	1.011898e+05	2.880139e+02	1.090996e-01	-1.906290e-01	0.000000e+00	
-1.897436e+00	7.753165e-01	1.223922e+00	4.542891e+01	1.639443e-05	2.538176e+05	1.011898e+05	2.880139e+02	1.090996e-01	-1.906289e-01	0.000000e+00	
-1.897436e+00	7.436709e-01	1.223922e+00	4.542891e+01	1.608179e-05	2.538176e+05	1.011898e+05	2.880139e+02	1.090996e-01	-1.906288e-01	0.000000e+00	
-1.897436e+00	7.120253e-01	1.223922e+00	4.542890e+01	1.549940e-05	2.538176e+05	1.011898e+05	2.880139e+02	1.090996e-01	-1.906286e-01	0.000000e+00	
-1.897436e+00	6.803797e-01	1.223922e+00	4.542890e+01	1.476264e-05	2.538176e+05	1.011898e+05	2.880139e+02	1.090996e-01	-1.906285e-01	0.000000e+00	
-1.897436e+00	6.487342e-01	1.223922e+00	4.542889e+01	1.392214e-05	2.538176e+05	1.011898e+05	2.880139e+02	1.090996e-01	-1.906283e-01	0.000000e+00	
-1.897436e+00	6.170886e-01	1.223922e+00	4.542889e+01	1.303738e-05	2.538176e+05	1.011898e+05	2.880139e+02	1.090995e-01	-1.906281e-01	0.000000e+00	
-1.897436e+00	5.854430e-01	1.223922e+00	4.542888e+01	1.213245e-05	2.538176e+05	1.011898e+05	2.880139e+02	1.090995e-01	-1.906280e-01	0.000000e+00	
-1.897436e+00	5.537975e-01	1.223922e+00	4.542888e+01	1.123215e-05	2.538176e+05	1.011898e+05	2.880139e+02	1.090995e-01	-1.906278e-01	0.000000e+00	
-1.897436e+00	5.221519e-01	1.223922e+00	4.542888e+01	1.034668e-05	2.538176e+05	1.011898e+05	2.880139e+02	1.090995e-01	-1.906277e-01	0.000000e+00	
-1.897436e+00	4.905063e-01	1.223922e+00	4.542887e+01	9.486541e-06	2.538176e+05	1.011898e+05	2.880139e+02	1.090995e-01	-1.906276e-01	0.000000e+00	
-1.897436e+00	4.588608e-01	1.223922e+00	4.542887e+01	8.655921e-06	2.538176e+05	1.011898e+05	2.880139e+02	1.090995e-01	-1.906274e-01	0.000000e+00	
-1.897436e+00	4.272152e-01	1.223922e+00	4.542887e+01	7.858615e-06	2.538176e+05	1.011898e+05	2.880139e+02	1.090995e-01	-1.906273e-01	0.000000e+00	
-1.897436e+00	3.955696e-01	1.223922e+00	4.542887e+01	7.095349e-06	2.538176e+05	1.011898e+05	2.880139e+02	1.090995e-01	-1.906272e-01	0.000000e+00	
-1.897436e+00	3.639241e-01	1.223922e+00	4.542886e+01	6.366342e-06	2.538176e+05	1.011898e+05	2.880139e+02	1.090995e-01	-1.906271e-01	0.000000e+00	
-1.897436e+00	3.322785e-01	1.223922e+00	4.542886e+01	5.670321e-06	2.538176e+05	1.011898e+05	2.880139e+02	1.090995e-01	-1.906270e-01	0.000000e+00	
-1.897436e+00	3.006329e-01	1.223922e+00	4.542886e+01	5.005670e-06	2.538176e+05	1.011898e+05	2.880139e+02	1.090995e-01	-1.906269e-01	0.000000e+00	
-1.897436e+00	2.689873e-01	1.223922e+00	4.542886e+01	4.370074e-06	2.538176e+05	1.011898e+05	2.880139e+02	1.090995e-01	-1.906269e-01	0.000000e+00	
-1.897436e+00	2.373418e-01	1.223922e+00	4.542886e+01	3.761040e-06	2.538176e+05	1.011898e+05	2.880139e+02	1.090995e-01	-1.906268e-01	0.000000e+00	
-1.897436e+00	2.056962e-01	1.223922e+00	4.542886e+01	3.175767e-06	2.538176e+05	1.011898e+05	2.880139e+02	1.090995e-01	-1.906268e-01	0.000000e+00	
-1.897436e+00	1.740506e-01	1.223922e+00	4.542886e+01	2.611382e-06	2.538176e+05	1.011898e+05	2.880139e+02	1.090995e-01	-1.906267e-01	0.000000e+00	
-1.897436e+00	1.424051e-01	1.223922e+00	4.542886e+01	2.064885e-06	2.538176e+05	1.011898e+05	2.880139e+02	1.090995e-01	-1.906267e-01	0.000000e+00	
-1.897436e+00	1.107595e-01	1.223922e+00	4.542885e+01	1.533253e-06	2.538176e+05	1.011898e+05	2.880139e+02	1.090995e-01	-1.906266e-01	0.000000e+00	
-1.897436e+00	7.911392e-02	1.223922e+00	4.542885e+01	1.013416e-06	2.538176e+05	1.011898e+05	2.880139e+02	1.090995e-01	-1.906266e-01	0.000000e+00	
-1.897436e+00	4.746835e-02	1.223922e+00	4.542885e+01	5.022988e-07	2.538176e+05	1.011898e+05	2.880139e+02	1.090995e-01	-1.906266e-01	0.000000e+00	
-1.897436e+00	1.582278e-02	1.223922e+00	4.542885e+01	-3.190960e-09	2.538176e+05	1.011898e+05	2.880139e+02	1.090995e-01	-1.906266e-01	0.000000e+00	
-1.897436e+00	-1.582278e-02	1.223922e+00	4.542885e+01	-5.061495e-07	2.538176e+05	1.011898e+05	2.880139e+02	1.090995e-01	-1.906266e-01	0.000000e+00	
-1.897436e+00	-4.746835e-02	1.223922e+00	4.542885e+01	-1.009687e-06	2.538176e+05	1.011898e+05	2.880139e+02	1.090995e-01	-1.906266e-01	0.000000e+00	
-1.897436e+00	-7.911392e-02	1.223922e+00	4.542885e+01	-1.516922e-06	2.538176e+05	1.011898e+05	2.880139e+02	1.090995e-01	-1.906267e-01	0.000000e+00	
-1.897436e+00	-1.107595e-01	1.223922e+00	4.542886e+01	-2.030990e-06	2.538176e+05	1.011898e+05	2.880139e+02	1.090995e-01	-1.906267e-01	0.000000e+00	