TITLE = "SU2 Simulation"
VARIABLES = "Iteration","CL","CD","CSF","CMx","CMy","CMz","CFx","CFy","CFz","CL/CD","AoA","Custom_ObjFunc","Res_Flow[0]","Res_Flow[1]","Res_Flow[2]","Res_Flow[3]","Res_Flow[4]","Linear_Solver_Iterations","CFL_Number","Time(min)"
ZONE T= "Convergence history"
           0, 0.00000000e+00, 0.00000000e+00, 0.00000000e+00, 0.00000000e+00, 0.00000000e+00, 0.00000000e+00, 0.00000000e+00, 0.00000000e+00, 0.00000000e+00, 0.00000000e+00, 0.00000000e+00, 0.00000000e+00, -1.62443716e+01, -1.32514527e+01, -1.32295822e+01, -1.09138774e+01, 0.00000000e+00, 5.0000000000, 5.0000000000, 0.0012187667
           1, 0.00000000e+00, 0.00000000e+00, 0.00000000e+00, 0.00000000e+00, 0.00000000e+00, 0.00000000e+00, 0.00000000e+00, 0.00000000e+00, 0.00000000e+00, 0.00000000e+00, 0.00000000e+00, 0.00000000e+00, -1.59567078e+01, 1.47370188e+00, 1.28656141e+00, 3.00556003e+00, 0.00000000e+00, 5.0000000000, 5.0000000000, 0.0025171500
           2, 0.00000000e+00, 0.00000000e+00, 0.00000000e+00, 0.00000000e+00, 0.00000000e+00, 0.00000000e+00, 0.00000000e+00, 0.00000000e+00, 0.00000000e+00, 0.00000000e+00, 0.00000000e+00, 0.00000000e+00, -2.10427867e+00, 1.41533320e+00, 1.28336742e+00, 3.39057175e+00, 0.00000000e+00, 5.0000000000, 5.0000000000, 0.0037282667
           3, 0.00000000e+00, 0.00000000e+00, 0.00000000e+00, 0.00000000e+00, 0.00000000e+00, 0.00000000e+00, 0.00000000e+00, 0.00000000e+00, 0.00000000e+00, 0.00000000e+00, 0.00000000e+00, 0.00000000e+00, -1.90574673e+00, 1.35269116e+00, 1.27500541e+00, 3.56698303e+00, 0.00000000e+00, 5.0000000000, 5.0000000000, 0.0049109500
           4, 0.00000000e+00, 0.00000000e+00, 0.00000000e+00, 0.00000000e+00, 0.00000000e+00, 0.00000000e+00, 0.00000000e+00, 0.00000000e+00, 0.00000000e+00, 0.00000000e+00, 0.00000000e+00, 0.00000000e+00, -1.81953958e+00, 1.28665174e+00, 1.26261264e+00, 3.64774733e+00, 0.00000000e+00, 5.0000000000, 5.0000000000, 0.0061242167
           5, 0.00000000e+00, 0.00000000e+00, 0.00000000e+00, 0.00000000e+00, 0.00000000e+00, 0.00000000e+00, 0.00000000e+00, 0.00000000e+00, 0.00000000e+00, 0.00000000e+00, 0.00000000e+00, 0.00000000e+00, -1.77242224e+00, 1.21734607e+00, 1.24705302e+00, 3.69248849e+00, 0.00000000e+00, 5.0000000000, 5.0000000000, 0.0073801667
           6, 0.00000000e+00, 0.00000000e+00, 0.00000000e+00, 0.00000000e+00, 0.00000000e+00, 0.00000000e+00, 0.00000000e+00, 0.00000000e+00, 0.00000000e+00, 0.00000000e+00, 0.00000000e+00, 0.00000000e+00, -1.74309622e+00, 1.14410649e+00, 1.22901284e+00, 3.72049948e+00, 0.00000000e+00, 5.0000000000, 5.0000000000, 0.0085787167
           7, 0.00000000e+00, 0.00000000e+00, 0.00000000e+00, 0.00000000e+00, 0.00000000e+00, 0.00000000e+00, 0.00000000e+00, 0.00000000e+00, 0.00000000e+00, 0.00000000e+00, 0.00000000e+00, 0.00000000e+00, -1.72367432e+00, 1.06570244e+00, 1.20904621e+00, 3.73910323e+00, 0.00000000e+00, 5.0000000000, 5.0000000000, 0.0097653333
           8, 0.00000000e+00, 0.00000000e+00, 0.00000000e+00, 0.00000000e+00, 0.00000000e+00, 0.00000000e+00, 0.00000000e+00, 0.00000000e+00, 0.00000000e+00, 0.00000000e+00, 0.00000000e+00, 0.00000000e+00, -1.71086548e+00, 9.80287378e-01, 1.18760147e+00, 3.75137109e+00, 0.00000000e+00, 5.0000000000, 5.0000000000, 0.0109263333
           9, 0.00000000e+00, 0.00000000e+00, 0.00000000e+00, 0.00000000e+00, 0.00000000e+00, 0.00000000e+00, 0.00000000e+00, 0.00000000e+00, 0.00000000e+00, 0.00000000e+00, 0.00000000e+00, 0.00000000e+00, -1.70320886e+00, 8.85053104e-01, 1.16504283e+00, 3.75865658e+00, 0.00000000e+00, 5.0000000000, 5.0000000000, 0.0120708500
          10, 0.00000000e+00, 0.00000000e+00, 0.00000000e+00, 0.00000000e+00, 0.00000000e+00, 0.00000000e+00, 0.00000000e+00, 0.00000000e+00, 0.00000000e+00, 0.00000000e+00, 0.00000000e+00, 0.00000000e+00, -1.70028598e+00, 7.75720101e-01, 1.14166897e+00, 3.76131294e+00, 0.00000000e+00, 5.0000000000, 5.0000000000, 0.0132322667
          11, 0.00000000e+00, 0.00000000e+00, 0.00000000e+00, 0.00000000e+00, 0.00000000e+00, 0.00000000e+00, 0.00000000e+00, 0.00000000e+00, 0.00000000e+00, 0.00000000e+00, 0.00000000e+00, 0.00000000e+00, -1.70251460e+00, 6.46218671e-01, 1.11772675e+00, 3.75887381e+00, 0.00000000e+00, 5.0000000000, 5.0000000000, 0.0144019333
          12, 0.00000000e+00, 0.00000000e+00, 0.00000000e+00, 0.00000000e+00, 0.00000000e+00, 0.00000000e+00, 0.00000000e+00, 0.00000000e+00, 0.00000000e+00, 0.00000000e+00, 0.00000000e+00, 0.00000000e+00, -1.71100952e+00, 4.91239323e-01, 1.09341769e+00, 3.75018152e+00, 0.00000000e+00, 5.0000000000, 5.0000000000, 0.0156066333
          13, 0.00000000e+00, 0.00000000e+00, 0.00000000e+00, 0.00000000e+00, 0.00000000e+00, 0.00000000e+00, 0.00000000e+00, 0.00000000e+00, 0.00000000e+00, 0.00000000e+00, 0.00000000e+00, 0.00000000e+00, -1.72740594e+00, 3.30190661e-01, 1.06891299e+00, 3.73355726e+00, 0.00000000e+00, 5.0000000000, 5.0000000000, 0.0167450000
          14, 0.00000000e+00, 0.00000000e+00, 0.00000000e+00, 0.00000000e+00, 0.00000000e+00, 0.00000000e+00, 0.00000000e+00, 0.00000000e+00, 0.00000000e+00, 0.00000000e+00, 0.00000000e+00, 0.00000000e+00, -1.75369478e+00, 2.79700174e-01, 1.04434889e+00, 3.70696053e+00, 0.00000000e+00, 5.0000000000, 5.0000000000, 0.0179015833
          15, 0.00000000e+00, 0.00000000e+00, 0.00000000e+00, 0.00000000e+00, 0.00000000e+00, 0.00000000e+00, 0.00000000e+00, 0.00000000e+00, 0.00000000e+00, 0.00000000e+00, 0.00000000e+00, 0.00000000e+00, -1.79214900e+00, 3.83306578e-01, 1.01983437e+00, 3.66805348e+00, 0.00000000e+00, 5.0000000000, 5.0000000000, 0.0190490333
          16, 0.00000000e+00, 0.00000000e+00, 0.00000000e+00, 0.00000000e+00, 0.00000000e+00, 0.00000000e+00, 0.00000000e+00, 0.00000000e+00, 0.00000000e+00, 0.00000000e+00, 0.00000000e+00, 0.00000000e+00, -1.84540041e+00, 5.05041988e-01, 9.95457369e-01, 3.61410532e+00, 0.00000000e+00, 5.0000000000, 5.0000000000, 0.0201441333
          17, 0.00000000e+00, 0.00000000e+00, 0.00000000e+00, 0.00000000e+00, 0.00000000e+00, 0.00000000e+00, 0.00000000e+00, 0.00000000e+00, 0.00000000e+00, 0.00000000e+00, 0.00000000e+00, 0.00000000e+00, -1.91671157e+00, 5.99014314e-01, 9.71291476e-01, 3.54167765e+00, 0.00000000e+00, 5.0000000000, 5.0000000000, 0.0213170167
          18, 0.00000000e+00, 0.00000000e+00, 0.00000000e+00, 0.00000000e+00, 0.00000000e+00, 0.00000000e+00, 0.00000000e+00, 0.00000000e+00, 0.00000000e+00, 0.00000000e+00, 0.00000000e+00, 0.00000000e+00, -2.01047456e+00, 6.66412803e-01, 9.47402284e-01, 3.44602083e+00, 0.00000000e+00, 5.0000000000, 5.0000000000, 0.0224771667
          19, 0.00000000e+00, 0.00000000e+00, 0.00000000e+00, 0.00000000e+00, 0.00000000e+00, 0.00000000e+00, 0.00000000e+00, 0.00000000e+00, 0.00000000e+00, 0.00000000e+00, 0.00000000e+00, 0.00000000e+00, -2.13270179e+00, 7.13313057e-01, 9.23852634e-01, 3.32031019e+00, 0.00000000e+00, 5.0000000000, 5.0000000000, 0.0236154833
          20, 0.00000000e+00, 0.00000000e+00, 0.00000000e+00, 0.00000000e+00, 0.00000000e+00, 0.00000000e+00, 0.00000000e+00, 0.00000000e+00, 0.00000000e+00, 0.00000000e+00, 0.00000000e+00, 0.00000000e+00, -2.28873057e+00, 7.44711410e-01, 9.00703798e-01, 3.15735635e+00, 0.00000000e+00, 5.0000000000, 5.0000000000, 0.0247514000
          21, 0.00000000e+00, 0.00000000e+00, 0.00000000e+00, 0.00000000e+00, 0.00000000e+00, 0.00000000e+00, 0.00000000e+00, 0.00000000e+00, 0.00000000e+00, 0.00000000e+00, 0.00000000e+00, 0.00000000e+00, -2.45619577e+00, 7.64378674e-01, 8.78014145e-01, 2.97897436e+00, 0.00000000e+00, 5.0000000000, 5.0000000000, 0.0258792667
          22, 0.00000000e+00, 0.00000000e+00, 0.00000000e+00, 0.00000000e+00, 0.00000000e+00, 0.00000000e+00, 0.00000000e+00, 0.00000000e+00, 0.00000000e+00, 0.00000000e+00, 0.00000000e+00, 0.00000000e+00, -2.49921162e+00, 7.75200986e-01, 8.55834738e-01, 2.94213222e+00, 0.00000000e+00, 5.0000000000, 5.0000000000, 0.0269984833
          23, 0.00000000e+00, 0.00000000e+00, 0.00000000e+00, 0.00000000e+00, 0.00000000e+00, 0.00000000e+00, 0.00000000e+00, 0.00000000e+00, 0.00000000e+00, 0.00000000e+00, 0.00000000e+00, 0.00000000e+00, -2.38379371e+00, 7.79400486e-01, 8.34211265e-01, 3.07303710e+00, 0.00000000e+00, 5.0000000000, 5.0000000000, 0.0281588167
          24, 0.00000000e+00, 0.00000000e+00, 0.00000000e+00, 0.00000000e+00, 0.00000000e+00, 0.00000000e+00, 0.00000000e+00, 0.00000000e+00, 0.00000000e+00, 0.00000000e+00, 0.00000000e+00, 0.00000000e+00, -2.26023546e+00, 7.78653270e-01, 8.13174804e-01, 3.20201234e+00, 0.00000000e+00, 5.0000000000, 5.0000000000, 0.0293026500
          25, 0.00000000e+00, 0.00000000e+00, 0.00000000e+00, 0.00000000e+00, 0.00000000e+00, 0.00000000e+00, 0.00000000e+00, 0.00000000e+00, 0.00000000e+00, 0.00000000e+00, 0.00000000e+00, 0.00000000e+00, -2.16704232e+00, 7.74160577e-01, 7.92734631e-01, 3.29651285e+00, 0.00000000e+00, 5.0000000000, 5.0000000000, 0.0304470667
          26, 0.00000000e+00, 0.00000000e+00, 0.00000000e+00, 0.00000000e+00, 0.00000000e+00, 0.00000000e+00, 0.00000000e+00, 0.00000000e+00, 0.00000000e+00, 0.00000000e+00, 0.00000000e+00, 0.00000000e+00, -2.09971576e+00, 7.66724337e-01, 7.72880065e-01, 3.36380645e+00, 0.00000000e+00, 5.0000000000, 5.0000000000, 0.0315541000
          27, 0.00000000e+00, 0.00000000e+00, 0.00000000e+00, 0.00000000e+00, 0.00000000e+00, 0.00000000e+00, 0.00000000e+00, 0.00000000e+00, 0.00000000e+00, 0.00000000e+00, 0.00000000e+00, 0.00000000e+00, -2.05130385e+00, 7.56843966e-01, 7.53580868e-01, 3.41163370e+00, 0.00000000e+00, 5.0000000000, 5.0000000000, 0.0326656333
          28, 0.00000000e+00, 0.00000000e+00, 0.00000000e+00, 0.00000000e+00, 0.00000000e+00, 0.00000000e+00, 0.00000000e+00, 0.00000000e+00, 0.00000000e+00, 0.00000000e+00, 0.00000000e+00, 0.00000000e+00, -2.01680086e+00, 7.44821168e-01, 7.34789557e-01, 3.44525662e+00, 0.00000000e+00, 5.0000000000, 5.0000000000, 0.0337976000
          29, 0.00000000e+00, 0.00000000e+00, 0.00000000e+00, 0.00000000e+00, 0.00000000e+00, 0.00000000e+00, 0.00000000e+00, 0.00000000e+00, 0.00000000e+00, 0.00000000e+00, 0.00000000e+00, 0.00000000e+00, -1.99282630e+00, 7.30852958e-01, 7.16445858e-01, 3.46816235e+00, 0.00000000e+00, 5.0000000000, 5.0000000000, 0.0349600000
          30, 0.00000000e+00, 0.00000000e+00, 0.00000000e+00, 0.00000000e+00, 0.00000000e+00, 0.00000000e+00, 0.00000000e+00, 0.00000000e+00, 0.00000000e+00, 0.00000000e+00, 0.00000000e+00, 0.00000000e+00, -1.97706943e+00, 7.15098559e-01, 6.98482546e-01, 3.48272429e+00, 0.00000000e+00, 5.0000000000, 5.0000000000, 0.0360764000
          31, 0.00000000e+00, 0.00000000e+00, 0.00000000e+00, 0.00000000e+00, 0.00000000e+00, 0.00000000e+00, 0.00000000e+00, 0.00000000e+00, 0.00000000e+00, 0.00000000e+00, 0.00000000e+00, 0.00000000e+00, -1.96791591e+00, 6.97716339e-01, 6.80831447e-01, 3.49060761e+00, 0.00000000e+00, 5.0000000000, 5.0000000000, 0.0372029667
          32, 0.00000000e+00, 0.00000000e+00, 0.00000000e+00, 0.00000000e+00, 0.00000000e+00, 0.00000000e+00, 0.00000000e+00, 0.00000000e+00, 0.00000000e+00, 0.00000000e+00, 0.00000000e+00, 0.00000000e+00, -1.96422213e+00, 6.78875139e-01, 6.63428597e-01, 3.49300457e+00, 0.00000000e+00, 5.0000000000, 5.0000000000, 0.0383218000
          33, 0.00000000e+00, 0.00000000e+00, 0.00000000e+00, 0.00000000e+00, 0.00000000e+00, 0.00000000e+00, 0.00000000e+00, 0.00000000e+00, 0.00000000e+00, 0.00000000e+00, 0.00000000e+00, 0.00000000e+00, -1.96517925e+00, 6.58748171e-01, 6.46218236e-01, 3.49077173e+00, 0.00000000e+00, 5.0000000000, 5.0000000000, 0.0394886833
          34, 0.00000000e+00, 0.00000000e+00, 0.00000000e+00, 0.00000000e+00, 0.00000000e+00, 0.00000000e+00, 0.00000000e+00, 0.00000000e+00, 0.00000000e+00, 0.00000000e+00, 0.00000000e+00, 0.00000000e+00, -1.97022663e+00, 6.37499220e-01, 6.29155601e-01, 3.48451452e+00, 0.00000000e+00, 5.0000000000, 5.0000000000, 0.0406967333
          35, 0.00000000e+00, 0.00000000e+00, 0.00000000e+00, 0.00000000e+00, 0.00000000e+00, 0.00000000e+00, 0.00000000e+00, 0.00000000e+00, 0.00000000e+00, 0.00000000e+00, 0.00000000e+00, 0.00000000e+00, -1.97899051e+00, 6.15269763e-01, 6.12208943e-01, 3.47464571e+00, 0.00000000e+00, 5.0000000000, 5.0000000000, 0.0418254500
          36, 0.00000000e+00, 0.00000000e+00, 0.00000000e+00, 0.00000000e+00, 0.00000000e+00, 0.00000000e+00, 0.00000000e+00, 0.00000000e+00, 0.00000000e+00, 0.00000000e+00, 0.00000000e+00, 0.00000000e+00, -1.99123407e+00, 5.92173531e-01, 5.95359205e-01, 3.46143293e+00, 0.00000000e+00, 5.0000000000, 5.0000000000, 0.0429488000
          37, 0.00000000e+00, 0.00000000e+00, 0.00000000e+00, 0.00000000e+00, 0.00000000e+00, 0.00000000e+00, 0.00000000e+00, 0.00000000e+00, 0.00000000e+00, 0.00000000e+00, 0.00000000e+00, 0.00000000e+00, -2.00681198e+00, 5.68302237e-01, 5.78598727e-01, 3.44504305e+00, 0.00000000e+00, 5.0000000000, 5.0000000000, 0.0441200333
          38, 0.00000000e+00, 0.00000000e+00, 0.00000000e+00, 0.00000000e+00, 0.00000000e+00, 0.00000000e+00, 0.00000000e+00, 0.00000000e+00, 0.00000000e+00, 0.00000000e+00, 0.00000000e+00, 0.00000000e+00, -2.02562740e+00, 5.43743003e-01, 5.61929767e-01, 3.42558555e+00, 0.00000000e+00, 5.0000000000, 5.0000000000, 0.0452710000
          39, 0.00000000e+00, 0.00000000e+00, 0.00000000e+00, 0.00000000e+00, 0.00000000e+00, 0.00000000e+00, 0.00000000e+00, 0.00000000e+00, 0.00000000e+00, 0.00000000e+00, 0.00000000e+00, 0.00000000e+00, -2.04759093e+00, 5.18604843e-01, 5.45362669e-01, 3.40315530e+00, 0.00000000e+00, 5.0000000000, 5.0000000000, 0.0464387167
          40, 0.00000000e+00, 0.00000000e+00, 0.00000000e+00, 0.00000000e+00, 0.00000000e+00, 0.00000000e+00, 0.00000000e+00, 0.00000000e+00, 0.00000000e+00, 0.00000000e+00, 0.00000000e+00, 0.00000000e+00, -2.07258107e+00, 4.93049216e-01, 5.28914078e-01, 3.37787443e+00, 0.00000000e+00, 5.0000000000, 5.0000000000, 0.0475950833
          41, 0.00000000e+00, 0.00000000e+00, 0.00000000e+00, 0.00000000e+00, 0.00000000e+00, 0.00000000e+00, 0.00000000e+00, 0.00000000e+00, 0.00000000e+00, 0.00000000e+00, 0.00000000e+00, 0.00000000e+00, -2.10040475e+00, 4.67318381e-01, 5.12605354e-01, 3.34993428e+00, 0.00000000e+00, 5.0000000000, 5.0000000000, 0.0487517333
          42, 0.00000000e+00, 0.00000000e+00, 0.00000000e+00, 0.00000000e+00, 0.00000000e+00, 0.00000000e+00, 0.00000000e+00, 0.00000000e+00, 0.00000000e+00, 0.00000000e+00, 0.00000000e+00, 0.00000000e+00, -2.13075529e+00, 4.41754754e-01, 4.96461294e-01, 3.31963974e+00, 0.00000000e+00, 5.0000000000, 5.0000000000, 0.0499224500
          43, 0.00000000e+00, 0.00000000e+00, 0.00000000e+00, 0.00000000e+00, 0.00000000e+00, 0.00000000e+00, 0.00000000e+00, 0.00000000e+00, 0.00000000e+00, 0.00000000e+00, 0.00000000e+00, 0.00000000e+00, -2.16316491e+00, 4.16804596e-01, 4.80509164e-01, 3.28745801e+00, 0.00000000e+00, 5.0000000000, 5.0000000000, 0.0510585833
          44, 0.00000000e+00, 0.00000000e+00, 0.00000000e+00, 0.00000000e+00, 0.00000000e+00, 0.00000000e+00, 0.00000000e+00, 0.00000000e+00, 0.00000000e+00, 0.00000000e+00, 0.00000000e+00, 0.00000000e+00, -2.19695147e+00, 3.92999919e-01, 4.64777796e-01, 3.25407192e+00, 0.00000000e+00, 5.0000000000, 5.0000000000, 0.0521850333
          45, 0.00000000e+00, 0.00000000e+00, 0.00000000e+00, 0.00000000e+00, 0.00000000e+00, 0.00000000e+00, 0.00000000e+00, 0.00000000e+00, 0.00000000e+00, 0.00000000e+00, 0.00000000e+00, 0.00000000e+00, -2.23116610e+00, 3.70914852e-01, 4.49296758e-01, 3.22043009e+00, 0.00000000e+00, 5.0000000000, 5.0000000000, 0.0533749500
          46, 0.00000000e+00, 0.00000000e+00, 0.00000000e+00, 0.00000000e+00, 0.00000000e+00, 0.00000000e+00, 0.00000000e+00, 0.00000000e+00, 0.00000000e+00, 0.00000000e+00, 0.00000000e+00, 0.00000000e+00, -2.26456282e+00, 3.51097889e-01, 4.34095403e-01, 3.18777212e+00, 0.00000000e+00, 5.0000000000, 5.0000000000, 0.0545870000
          47, 0.00000000e+00, 0.00000000e+00, 0.00000000e+00, 0.00000000e+00, 0.00000000e+00, 0.00000000e+00, 0.00000000e+00, 0.00000000e+00, 0.00000000e+00, 0.00000000e+00, 0.00000000e+00, 0.00000000e+00, -2.29563029e+00, 3.33989956e-01, 4.19201712e-01, 3.15758881e+00, 0.00000000e+00, 5.0000000000, 5.0000000000, 0.0557175500
          48, 0.00000000e+00, 0.00000000e+00, 0.00000000e+00, 0.00000000e+00, 0.00000000e+00, 0.00000000e+00, 0.00000000e+00, 0.00000000e+00, 0.00000000e+00, 0.00000000e+00, 0.00000000e+00, 0.00000000e+00, -2.32273699e+00, 3.19847264e-01, 4.04640945e-01, 3.13146894e+00, 0.00000000e+00, 5.0000000000, 5.0000000000, 0.0568520500
          49, 0.00000000e+00, 0.00000000e+00, 0.00000000e+00, 0.00000000e+00, 0.00000000e+00, 0.00000000e+00, 0.00000000e+00, 0.00000000e+00, 0.00000000e+00, 0.00000000e+00, 0.00000000e+00, 0.00000000e+00, -2.34441440e+00, 3.08692191e-01, 3.90434139e-01, 3.11081444e+00, 0.00000000e+00, 5.0000000000, 5.0000000000, 0.0580382833
          50, 0.00000000e+00, 0.00000000e+00, 0.00000000e+00, 0.00000000e+00, 0.00000000e+00, 0.00000000e+00, 0.00000000e+00, 0.00000000e+00, 0.00000000e+00, 0.00000000e+00, 0.00000000e+00, 0.00000000e+00, -2.35971740e+00, 3.00308922e-01, 3.76596582e-01, 3.09649131e+00, 0.00000000e+00, 5.0000000000, 5.0000000000, 0.0591730833
          51, 0.00000000e+00, 0.00000000e+00, 0.00000000e+00, 0.00000000e+00, 0.00000000e+00, 0.00000000e+00, 0.00000000e+00, 0.00000000e+00, 0.00000000e+00, 0.00000000e+00, 0.00000000e+00, 0.00000000e+00, -2.36850059e+00, 2.94285255e-01, 3.63136457e-01, 3.08857562e+00, 0.00000000e+00, 5.0000000000, 5.0000000000, 0.0603011333
          52, 0.00000000e+00, 0.00000000e+00, 0.00000000e+00, 0.00000000e+00, 0.00000000e+00, 0.00000000e+00, 0.00000000e+00, 0.00000000e+00, 0.00000000e+00, 0.00000000e+00, 0.00000000e+00, 0.00000000e+00, -2.37144644e+00, 2.90085765e-01, 3.50053803e-01, 3.08634601e+00, 0.00000000e+00, 5.0000000000, 5.0000000000, 0.0614698333
          53, 0.00000000e+00, 0.00000000e+00, 0.00000000e+00, 0.00000000e+00, 0.00000000e+00, 0.00000000e+00, 0.00000000e+00, 0.00000000e+00, 0.00000000e+00, 0.00000000e+00, 0.00000000e+00, 0.00000000e+00, -2.36982322e+00, 2.87133826e-01, 3.37339975e-01, 3.08853103e+00, 0.00000000e+00, 5.0000000000, 5.0000000000, 0.0626306833
          54, 0.00000000e+00, 0.00000000e+00, 0.00000000e+00, 0.00000000e+00, 0.00000000e+00, 0.00000000e+00, 0.00000000e+00, 0.00000000e+00, 0.00000000e+00, 0.00000000e+00, 0.00000000e+00, 0.00000000e+00, -2.36511533e+00, 2.84882846e-01, 3.24977697e-01, 3.09366830e+00, 0.00000000e+00, 5.0000000000, 5.0000000000, 0.0638314667
          55, 0.00000000e+00, 0.00000000e+00, 0.00000000e+00, 0.00000000e+00, 0.00000000e+00, 0.00000000e+00, 0.00000000e+00, 0.00000000e+00, 0.00000000e+00, 0.00000000e+00, 0.00000000e+00, 0.00000000e+00, -2.35870314e+00, 2.82865835e-01, 3.12941720e-01, 3.10040862e+00, 0.00000000e+00, 5.0000000000, 5.0000000000, 0.0649723000
          56, 0.00000000e+00, 0.00000000e+00, 0.00000000e+00, 0.00000000e+00, 0.00000000e+00, 0.00000000e+00, 0.00000000e+00, 0.00000000e+00, 0.00000000e+00, 0.00000000e+00, 0.00000000e+00, 0.00000000e+00, -2.35168181e+00, 2.80721405e-01, 3.01200022e-01, 3.10768495e+00, 0.00000000e+00, 5.0000000000, 5.0000000000, 0.0661426167
          57, 0.00000000e+00, 0.00000000e+00, 0.00000000e+00, 0.00000000e+00, 0.00000000e+00, 0.00000000e+00, 0.00000000e+00, 0.00000000e+00, 0.00000000e+00, 0.00000000e+00, 0.00000000e+00, 0.00000000e+00, -2.34481096e+00, 2.78199917e-01, 2.89715380e-01, 3.11475721e+00, 0.00000000e+00, 5.0000000000, 5.0000000000, 0.0672717333
          58, 0.00000000e+00, 0.00000000e+00, 0.00000000e+00, 0.00000000e+00, 0.00000000e+00, 0.00000000e+00, 0.00000000e+00, 0.00000000e+00, 0.00000000e+00, 0.00000000e+00, 0.00000000e+00, 0.00000000e+00, -2.33854530e+00, 2.75155392e-01, 2.78447144e-01, 3.12118105e+00, 0.00000000e+00, 5.0000000000, 5.0000000000, 0.0684583500
          59, 0.00000000e+00, 0.00000000e+00, 0.00000000e+00, 0.00000000e+00, 0.00000000e+00, 0.00000000e+00, 0.00000000e+00, 0.00000000e+00, 0.00000000e+00, 0.00000000e+00, 0.00000000e+00, 0.00000000e+00, -2.33309988e+00, 2.71528657e-01, 2.67353005e-01, 3.12674445e+00, 0.00000000e+00, 5.0000000000, 5.0000000000, 0.0696842833
          60, 0.00000000e+00, 0.00000000e+00, 0.00000000e+00, 0.00000000e+00, 0.00000000e+00, 0.00000000e+00, 0.00000000e+00, 0.00000000e+00, 0.00000000e+00, 0.00000000e+00, 0.00000000e+00, 0.00000000e+00, -2.32852149e+00, 2.67326059e-01, 2.56390588e-01, 3.13139890e+00, 0.00000000e+00, 5.0000000000, 5.0000000000, 0.0712457500
          61, 0.00000000e+00, 0.00000000e+00, 0.00000000e+00, 0.00000000e+00, 0.00000000e+00, 0.00000000e+00, 0.00000000e+00, 0.00000000e+00, 0.00000000e+00, 0.00000000e+00, 0.00000000e+00, 0.00000000e+00, -2.32475300e+00, 2.62597047e-01, 2.45518753e-01, 3.13519756e+00, 0.00000000e+00, 5.0000000000, 5.0000000000, 0.0725979667
          62, 0.00000000e+00, 0.00000000e+00, 0.00000000e+00, 0.00000000e+00, 0.00000000e+00, 0.00000000e+00, 0.00000000e+00, 0.00000000e+00, 0.00000000e+00, 0.00000000e+00, 0.00000000e+00, 0.00000000e+00, -2.32168586e+00, 2.57413034e-01, 2.34698540e-01, 3.13824481e+00, 0.00000000e+00, 5.0000000000, 5.0000000000, 0.0737826333
          63, 0.00000000e+00, 0.00000000e+00, 0.00000000e+00, 0.00000000e+00, 0.00000000e+00, 0.00000000e+00, 0.00000000e+00, 0.00000000e+00, 0.00000000e+00, 0.00000000e+00, 0.00000000e+00, 0.00000000e+00, -2.31919939e+00, 2.51849247e-01, 2.23893742e-01, 3.14065858e+00, 0.00000000e+00, 5.0000000000, 5.0000000000, 0.0750275167
          64, 0.00000000e+00, 0.00000000e+00, 0.00000000e+00, 0.00000000e+00, 0.00000000e+00, 0.00000000e+00, 0.00000000e+00, 0.00000000e+00, 0.00000000e+00, 0.00000000e+00, 0.00000000e+00, 0.00000000e+00, -2.31718719e+00, 2.45970623e-01, 2.13071137e-01, 3.14254481e+00, 0.00000000e+00, 5.0000000000, 5.0000000000, 0.0762169833
          65, 0.00000000e+00, 0.00000000e+00, 0.00000000e+00, 0.00000000e+00, 0.00000000e+00, 0.00000000e+00, 0.00000000e+00, 0.00000000e+00, 0.00000000e+00, 0.00000000e+00, 0.00000000e+00, 0.00000000e+00, -2.31557170e+00, 2.39821968e-01, 2.02200435e-01, 3.14398332e+00, 0.00000000e+00, 5.0000000000, 5.0000000000, 0.0773867333
          66, 0.00000000e+00, 0.00000000e+00, 0.00000000e+00, 0.00000000e+00, 0.00000000e+00, 0.00000000e+00, 0.00000000e+00, 0.00000000e+00, 0.00000000e+00, 0.00000000e+00, 0.00000000e+00, 0.00000000e+00, -2.31430858e+00, 2.33422034e-01, 1.91254019e-01, 3.14502330e+00, 0.00000000e+00, 5.0000000000, 5.0000000000, 0.0788746667
          67, 0.00000000e+00, 0.00000000e+00, 0.00000000e+00, 0.00000000e+00, 0.00000000e+00, 0.00000000e+00, 0.00000000e+00, 0.00000000e+00, 0.00000000e+00, 0.00000000e+00, 0.00000000e+00, 0.00000000e+00, -2.31338342e+00, 2.26760415e-01, 1.80206500e-01, 3.14568609e+00, 0.00000000e+00, 5.0000000000, 5.0000000000, 0.0802037500
          68, 0.00000000e+00, 0.00000000e+00, 0.00000000e+00, 0.00000000e+00, 0.00000000e+00, 0.00000000e+00, 0.00000000e+00, 0.00000000e+00, 0.00000000e+00, 0.00000000e+00, 0.00000000e+00, 0.00000000e+00, -2.31280357e+00, 2.19796061e-01, 1.69034165e-01, 3.14597277e+00, 0.00000000e+00, 5.0000000000, 5.0000000000, 0.0814916333
          69, 0.00000000e+00, 0.00000000e+00, 0.00000000e+00, 0.00000000e+00, 0.00000000e+00, 0.00000000e+00, 0.00000000e+00, 0.00000000e+00, 0.00000000e+00, 0.00000000e+00, 0.00000000e+00, 0.00000000e+00, -2.31258761e+00, 2.12456154e-01, 1.57714428e-01, 3.14587405e+00, 0.00000000e+00, 5.0000000000, 5.0000000000, 0.0826388167
          70, 0.00000000e+00, 0.00000000e+00, 0.00000000e+00, 0.00000000e+00, 0.00000000e+00, 0.00000000e+00, 0.00000000e+00, 0.00000000e+00, 0.00000000e+00, 0.00000000e+00, 0.00000000e+00, 0.00000000e+00, -2.31275454e+00, 2.04634496e-01, 1.46225312e-01, 3.14538074e+00, 0.00000000e+00, 5.0000000000, 5.0000000000, 0.0837115167
          71, 0.00000000e+00, 0.00000000e+00, 0.00000000e+00, 0.00000000e+00, 0.00000000e+00, 0.00000000e+00, 0.00000000e+00, 0.00000000e+00, 0.00000000e+00, 0.00000000e+00, 0.00000000e+00, 0.00000000e+00, -2.31331383e+00, 1.96189018e-01, 1.34545020e-01, 3.14449345e+00, 0.00000000e+00, 5.0000000000, 5.0000000000, 0.0847935500
          72, 0.00000000e+00, 0.00000000e+00, 0.00000000e+00, 0.00000000e+00, 0.00000000e+00, 0.00000000e+00, 0.00000000e+00, 0.00000000e+00, 0.00000000e+00, 0.00000000e+00, 0.00000000e+00, 0.00000000e+00, -2.31425708e+00, 1.86938523e-01, 1.22651517e-01, 3.14323102e+00, 0.00000000e+00, 5.0000000000, 5.0000000000, 0.0859571667
          73, 0.00000000e+00, 0.00000000e+00, 0.00000000e+00, 0.00000000e+00, 0.00000000e+00, 0.00000000e+00, 0.00000000e+00, 0.00000000e+00, 0.00000000e+00, 0.00000000e+00, 0.00000000e+00, 0.00000000e+00, -2.31555099e+00, 1.76659030e-01, 1.10522130e-01, 3.14163782e+00, 0.00000000e+00, 5.0000000000, 5.0000000000, 0.0871629833
          74, 0.00000000e+00, 0.00000000e+00, 0.00000000e+00, 0.00000000e+00, 0.00000000e+00, 0.00000000e+00, 0.00000000e+00, 0.00000000e+00, 0.00000000e+00, 0.00000000e+00, 0.00000000e+00, 0.00000000e+00, -2.31713137e+00, 1.65080322e-01, 9.81331507e-02, 3.13978996e+00, 0.00000000e+00, 5.0000000000, 5.0000000000, 0.0883546333
          75, 0.00000000e+00, 0.00000000e+00, 0.00000000e+00, 0.00000000e+00, 0.00000000e+00, 0.00000000e+00, 0.00000000e+00, 0.00000000e+00, 0.00000000e+00, 0.00000000e+00, 0.00000000e+00, 0.00000000e+00, -2.31889788e+00, 1.51883414e-01, 8.54594772e-02, 3.13780095e+00, 0.00000000e+00, 5.0000000000, 5.0000000000, 0.0895332667
          76, 0.00000000e+00, 0.00000000e+00, 0.00000000e+00, 0.00000000e+00, 0.00000000e+00, 0.00000000e+00, 0.00000000e+00, 0.00000000e+00, 0.00000000e+00, 0.00000000e+00, 0.00000000e+00, 0.00000000e+00, -2.32070926e+00, 1.36699962e-01, 7.24741472e-02, 3.13582650e+00, 0.00000000e+00, 5.0000000000, 5.0000000000, 0.0907331833
          77, 0.00000000e+00, 0.00000000e+00, 0.00000000e+00, 0.00000000e+00, 0.00000000e+00, 0.00000000e+00, 0.00000000e+00, 0.00000000e+00, 0.00000000e+00, 0.00000000e+00, 0.00000000e+00, 0.00000000e+00, -2.32237967e+00, 1.19115468e-01, 5.91478888e-02, 3.13406803e+00, 0.00000000e+00, 5.0000000000, 5.0000000000, 0.0919644500
          78, 0.00000000e+00, 0.00000000e+00, 0.00000000e+00, 0.00000000e+00, 0.00000000e+00, 0.00000000e+00, 0.00000000e+00, 0.00000000e+00, 0.00000000e+00, 0.00000000e+00, 0.00000000e+00, 0.00000000e+00, -2.32367703e+00, 9.86801706e-02, 4.54486499e-02, 3.13277374e+00, 0.00000000e+00, 5.0000000000, 5.0000000000, 0.0931548667
          79, 0.00000000e+00, 0.00000000e+00, 0.00000000e+00, 0.00000000e+00, 0.00000000e+00, 0.00000000e+00, 0.00000000e+00, 0.00000000e+00, 0.00000000e+00, 0.00000000e+00, 0.00000000e+00, 0.00000000e+00, -2.32432502e+00, 7.49360976e-02, 3.13411182e-02, 3.13223526e+00, 0.00000000e+00, 5.0000000000, 5.0000000000, 0.0943320167
          80, 0.00000000e+00, 0.00000000e+00, 0.00000000e+00, 0.00000000e+00, 0.00000000e+00, 0.00000000e+00, 0.00000000e+00, 0.00000000e+00, 0.00000000e+00, 0.00000000e+00, 0.00000000e+00, 0.00000000e+00, -2.32401075e+00, 4.74786103e-02, 1.67862321e-02, 3.13277810e+00, 0.00000000e+00, 5.0000000000, 5.0000000000, 0.0955248333
          81, 0.00000000e+00, 0.00000000e+00, 0.00000000e+00, 0.00000000e+00, 0.00000000e+00, 0.00000000e+00, 0.00000000e+00, 0.00000000e+00, 0.00000000e+00, 0.00000000e+00, 0.00000000e+00, 0.00000000e+00, -2.32239968e+00, 1.60912254e-02, 1.74071522e-03, 3.13474427e+00, 0.00000000e+00, 5.0000000000, 5.0000000000, 0.0966462167
          82, 0.00000000e+00, 0.00000000e+00, 0.00000000e+00, 0.00000000e+00, 0.00000000e+00, 0.00000000e+00, 0.00000000e+00, 0.00000000e+00, 0.00000000e+00, 0.00000000e+00, 0.00000000e+00, 0.00000000e+00, -2.31915870e+00, -1.89685065e-02, -1.38433460e-02, 3.13846665e+00, 0.00000000e+00, 5.0000000000, 5.0000000000, 0.0977577333
          83, 0.00000000e+00, 0.00000000e+00, 0.00000000e+00, 0.00000000e+00, 0.00000000e+00, 0.00000000e+00, 0.00000000e+00, 0.00000000e+00, 0.00000000e+00, 0.00000000e+00, 0.00000000e+00, 0.00000000e+00, -2.31398616e+00, -5.63963082e-02, -3.00188550e-02, 3.14423694e+00, 0.00000000e+00, 5.0000000000, 5.0000000000, 0.0989324000
          84, 0.00000000e+00, 0.00000000e+00, 0.00000000e+00, 0.00000000e+00, 0.00000000e+00, 0.00000000e+00, 0.00000000e+00, 0.00000000e+00, 0.00000000e+00, 0.00000000e+00, 0.00000000e+00, 0.00000000e+00, -2.30664557e+00, -9.28364211e-02, -4.68439245e-02, 3.15227135e+00, 0.00000000e+00, 5.0000000000, 5.0000000000, 0.1000705667
          85, 0.00000000e+00, 0.00000000e+00, 0.00000000e+00, 0.00000000e+00, 0.00000000e+00, 0.00000000e+00, 0.00000000e+00, 0.00000000e+00, 0.00000000e+00, 0.00000000e+00, 0.00000000e+00, 0.00000000e+00, -2.29699695e+00, -1.21667951e-01, -6.43819907e-02, 3.16268067e+00, 0.00000000e+00, 5.0000000000, 5.0000000000, 0.1011162667
          86, 0.00000000e+00, 0.00000000e+00, 0.00000000e+00, 0.00000000e+00, 0.00000000e+00, 0.00000000e+00, 0.00000000e+00, 0.00000000e+00, 0.00000000e+00, 0.00000000e+00, 0.00000000e+00, 0.00000000e+00, -2.28501909e+00, -1.33187667e-01, -8.27017404e-02, 3.17545146e+00, 0.00000000e+00, 5.0000000000, 5.0000000000, 0.1021631333
          87, 0.00000000e+00, 0.00000000e+00, 0.00000000e+00, 0.00000000e+00, 0.00000000e+00, 0.00000000e+00, 0.00000000e+00, 0.00000000e+00, 0.00000000e+00, 0.00000000e+00, 0.00000000e+00, 0.00000000e+00, -2.27081750e+00, -1.19024822e-01, -1.01876861e-01, 3.19044270e+00, 0.00000000e+00, 5.0000000000, 5.0000000000, 0.1031644000
          88, 0.00000000e+00, 0.00000000e+00, 0.00000000e+00, 0.00000000e+00, 0.00000000e+00, 0.00000000e+00, 0.00000000e+00, 0.00000000e+00, 0.00000000e+00, 0.00000000e+00, 0.00000000e+00, 0.00000000e+00, -2.25461649e+00, -7.89114684e-02, -1.21985560e-01, 3.20739854e+00, 0.00000000e+00, 5.0000000000, 5.0000000000, 0.1042104000
          89, 0.00000000e+00, 0.00000000e+00, 0.00000000e+00, 0.00000000e+00, 0.00000000e+00, 0.00000000e+00, 0.00000000e+00, 0.00000000e+00, 0.00000000e+00, 0.00000000e+00, 0.00000000e+00, 0.00000000e+00, -2.23673773e+00, -2.09853891e-02, -1.43109772e-01, 3.22597316e+00, 0.00000000e+00, 5.0000000000, 5.0000000000, 0.1052313667