TITLE = "Visualization of the volumetric solution"
VARIABLES = "x","y","Density","Momentum_x","Momentum_y","Energy","Pressure","Temperature","Mach","C<sub>p</sub>","Roe_Dissipation"
ZONE NODES= 1720, ELEMENTS= 3288, DATAPACKING=POINT, ZONETYPE=FEQUADRILATERAL
-2.000000e+00	-1.190476e+00	1.226303e+00	3.736679e+01	8.977186e-06	2.542332e+05	1.014656e+05	2.882379e+02	8.952896e-02	1.981734e-01	0.000000e+00	
-1.913018e+00	-1.184272e+00	1.226303e+00	3.736657e+01	6.028149e-04	2.542332e+05	1.014656e+05	2.882379e+02	8.952841e-02	1.981832e-01	0.000000e+00	
-1.954560e+00	-1.150209e+00	1.226303e+00	3.736704e+01	4.042796e-04	2.542332e+05	1.014656e+05	2.882379e+02	8.952956e-02	1.981740e-01	0.000000e+00	
-1.849926e+00	-1.205140e+00	1.226304e+00	3.736605e+01	9.117543e-04	2.542333e+05	1.014656e+05	2.882380e+02	8.952716e-02	1.982271e-01	0.000000e+00	
-1.903970e+00	-1.130852e+00	1.226303e+00	3.736705e+01	9.583112e-04	2.542332e+05	1.014656e+05	2.882379e+02	8.952958e-02	1.981776e-01	0.000000e+00	
-2.000000e+00	-1.130952e+00	1.226303e+00	3.736727e+01	-2.886074e-06	2.542332e+05	1.014655e+05	2.882379e+02	8.953012e-02	1.981530e-01	0.000000e+00	
-1.851543e+00	-1.159370e+00	1.226303e+00	3.736640e+01	1.295533e-03	2.542332e+05	1.014656e+05	2.882380e+02	8.952800e-02	1.982011e-01	0.000000e+00	
-1.953167e+00	-1.099799e+00	1.226303e+00	3.736753e+01	5.505714e-04	2.542332e+05	1.014655e+05	2.882379e+02	8.953075e-02	1.981446e-01	0.000000e+00	
-1.790653e+00	-1.186382e+00	1.226304e+00	3.736554e+01	1.473556e-03	2.542333e+05	1.014656e+05	2.882380e+02	8.952592e-02	1.982535e-01	0.000000e+00	
-1.847749e+00	-1.098124e+00	1.226303e+00	3.736703e+01	1.784269e-03	2.542332e+05	1.014656e+05	2.882379e+02	8.952951e-02	1.981899e-01	0.000000e+00	
-1.900004e+00	-1.068081e+00	1.226303e+00	3.736773e+01	1.310204e-03	2.542332e+05	1.014655e+05	2.882379e+02	8.953122e-02	1.981403e-01	0.000000e+00	
-2.000000e+00	-1.071429e+00	1.226303e+00	3.736792e+01	-2.781760e-05	2.542331e+05	1.014655e+05	2.882379e+02	8.953169e-02	1.981196e-01	0.000000e+00	
-1.792598e+00	-1.131714e+00	1.226303e+00	3.736614e+01	2.145321e-03	2.542333e+05	1.014656e+05	2.882380e+02	8.952737e-02	1.982218e-01	0.000000e+00	
-1.951023e+00	-1.040587e+00	1.226303e+00	3.736827e+01	7.080176e-04	2.542332e+05	1.014655e+05	2.882379e+02	8.953253e-02	1.981216e-01	0.000000e+00	
-1.731144e+00	-1.203552e+00	1.226304e+00	3.736460e+01	1.727676e-03	2.542334e+05	1.014656e+05	2.882380e+02	8.952365e-02	1.982960e-01	0.000000e+00	
-1.734651e+00	-1.158217e+00	1.226304e+00	3.736509e+01	2.433138e-03	2.542333e+05	1.014656e+05	2.882380e+02	8.952482e-02	1.982772e-01	0.000000e+00	
-1.793108e+00	-1.066236e+00	1.226303e+00	3.736695e+01	2.823788e-03	2.542332e+05	1.014656e+05	2.882379e+02	8.952933e-02	1.981934e-01	0.000000e+00	
-1.846185e+00	-1.035678e+00	1.226303e+00	3.736786e+01	2.288427e-03	2.542332e+05	1.014655e+05	2.882379e+02	8.953154e-02	1.981397e-01	0.000000e+00	
-1.899025e+00	-1.006433e+00	1.226303e+00	3.736862e+01	1.618427e-03	2.542331e+05	1.014655e+05	2.882379e+02	8.953338e-02	1.981096e-01	0.000000e+00	
-2.000000e+00	-1.011905e+00	1.226303e+00	3.736874e+01	1.603038e-05	2.542331e+05	1.014655e+05	2.882379e+02	8.953368e-02	1.980858e-01	0.000000e+00	
-1.739212e+00	-1.097073e+00	1.226304e+00	3.736586e+01	3.229219e-03	2.542333e+05	1.014656e+05	2.882380e+02	8.952668e-02	1.982477e-01	0.000000e+00	
-1.943558e+00	-9.801168e-01	1.226303e+00	3.736921e+01	8.884699e-04	2.542331e+05	1.014655e+05	2.882379e+02	8.953480e-02	1.980755e-01	0.000000e+00	
-1.679379e+00	-1.180956e+00	1.226304e+00	3.736376e+01	2.511119e-03	2.542334e+05	1.014657e+05	2.882380e+02	8.952160e-02	1.983373e-01	0.000000e+00	
-1.685839e+00	-1.129056e+00	1.226304e+00	3.736466e+01	3.473945e-03	2.542334e+05	1.014657e+05	2.882380e+02	8.952377e-02	1.983117e-01	0.000000e+00	
-1.740561e+00	-1.034368e+00	1.226303e+00	3.736686e+01	4.049087e-03	2.542332e+05	1.014656e+05	2.882379e+02	8.952910e-02	1.981988e-01	0.000000e+00	
-1.792944e+00	-1.003990e+00	1.226303e+00	3.736796e+01	3.430790e-03	2.542332e+05	1.014655e+05	2.882379e+02	8.953177e-02	1.981466e-01	0.000000e+00	
-1.845444e+00	-9.749924e-01	1.226303e+00	3.736889e+01	2.695389e-03	2.542331e+05	1.014655e+05	2.882379e+02	8.953403e-02	1.981003e-01	0.000000e+00	
-1.898581e+00	-9.488258e-01	1.226303e+00	3.736964e+01	1.867968e-03	2.542331e+05	1.014655e+05	2.882379e+02	8.953584e-02	1.980600e-01	0.000000e+00	
-2.000000e+00	-9.523810e-01	1.226302e+00	3.736977e+01	1.202286e-05	2.542331e+05	1.014655e+05	2.882379e+02	8.953617e-02	1.980444e-01	0.000000e+00	
-1.688318e+00	-1.065673e+00	1.226304e+00	3.736557e+01	4.519141e-03	2.542333e+05	1.014656e+05	2.882380e+02	8.952597e-02	1.982621e-01	0.000000e+00	
-1.950382e+00	-9.223557e-01	1.226302e+00	3.737028e+01	9.499198e-04	2.542330e+05	1.014655e+05	2.882378e+02	8.953741e-02	1.980240e-01	0.000000e+00	
-1.607855e+00	-1.185371e+00	1.226305e+00	3.736218e+01	3.147344e-03	2.542335e+05	1.014657e+05	2.882381e+02	8.951779e-02	1.984052e-01	0.000000e+00	
-1.639307e+00	-1.148507e+00	1.226304e+00	3.736340e+01	3.659458e-03	2.542334e+05	1.014657e+05	2.882380e+02	8.952074e-02	1.983401e-01	0.000000e+00	
-1.636716e+00	-1.097558e+00	1.226304e+00	3.736409e+01	4.742266e-03	2.542334e+05	1.014657e+05	2.882380e+02	8.952238e-02	1.983461e-01	0.000000e+00	
-1.689165e+00	-1.003589e+00	1.226303e+00	3.736676e+01	5.453901e-03	2.542333e+05	1.014656e+05	2.882380e+02	8.952887e-02	1.982131e-01	0.000000e+00	
-1.740723e+00	-9.729752e-01	1.226303e+00	3.736805e+01	4.754870e-03	2.542332e+05	1.014655e+05	2.882379e+02	8.953199e-02	1.981486e-01	0.000000e+00	
-1.792515e+00	-9.434304e-01	1.226303e+00	3.736914e+01	3.941999e-03	2.542331e+05	1.014655e+05	2.882379e+02	8.953464e-02	1.980966e-01	0.000000e+00	
-1.844767e+00	-9.153378e-01	1.226302e+00	3.737005e+01	3.040410e-03	2.542331e+05	1.014655e+05	2.882379e+02	8.953684e-02	1.980519e-01	0.000000e+00	
-1.897525e+00	-8.884422e-01	1.226302e+00	3.737080e+01	2.059378e-03	2.542330e+05	1.014654e+05	2.882378e+02	8.953865e-02	1.980173e-01	0.000000e+00	
-2.000000e+00	-8.928571e-01	1.226302e+00	3.737088e+01	-4.239716e-05	2.542330e+05	1.014654e+05	2.882378e+02	8.953886e-02	1.979985e-01	0.000000e+00	
-1.637687e+00	-1.035136e+00	1.226304e+00	3.736524e+01	6.024588e-03	2.542333e+05	1.014656e+05	2.882380e+02	8.952518e-02	1.982767e-01	0.000000e+00	
-1.951486e+00	-8.621834e-01	1.226302e+00	3.737145e+01	1.019787e-03	2.542330e+05	1.014654e+05	2.882378e+02	8.954023e-02	1.979786e-01	0.000000e+00	
-1.550264e+00	-1.185139e+00	1.226305e+00	3.736047e+01	3.850908e-03	2.542336e+05	1.014658e+05	2.882381e+02	8.951363e-02	1.985028e-01	0.000000e+00	
-1.582082e+00	-1.140771e+00	1.226305e+00	3.736220e+01	4.771567e-03	2.542335e+05	1.014657e+05	2.882381e+02	8.951782e-02	1.984231e-01	0.000000e+00	
-1.585659e+00	-1.068349e+00	1.226304e+00	3.736346e+01	6.425663e-03	2.542334e+05	1.014657e+05	2.882380e+02	8.952087e-02	1.983705e-01	0.000000e+00	
-1.638167e+00	-9.734470e-01	1.226304e+00	3.736667e+01	7.079736e-03	2.542333e+05	1.014656e+05	2.882380e+02	8.952865e-02	1.982217e-01	0.000000e+00	
-1.689207e+00	-9.427785e-01	1.226303e+00	3.736815e+01	6.264338e-03	2.542332e+05	1.014655e+05	2.882379e+02	8.953221e-02	1.981505e-01	0.000000e+00	
-1.740389e+00	-9.128364e-01	1.226303e+00	3.736939e+01	5.347046e-03	2.542331e+05	1.014655e+05	2.882379e+02	8.953524e-02	1.980916e-01	0.000000e+00	
-1.791943e+00	-8.838067e-01	1.226302e+00	3.737044e+01	4.364145e-03	2.542331e+05	1.014655e+05	2.882379e+02	8.953777e-02	1.980398e-01	0.000000e+00	
-1.844135e+00	-8.558208e-01	1.226302e+00	3.737132e+01	3.321298e-03	2.542330e+05	1.014654e+05	2.882378e+02	8.953990e-02	1.979936e-01	0.000000e+00	
-1.897320e+00	-8.288068e-01	1.226302e+00	3.737205e+01	2.223092e-03	2.542330e+05	1.014654e+05	2.882378e+02	8.954169e-02	1.979568e-01	0.000000e+00	
-2.000000e+00	-8.333333e-01	1.226302e+00	3.737207e+01	-5.064886e-05	2.542330e+05	1.014654e+05	2.882378e+02	8.954172e-02	1.979418e-01	0.000000e+00	
-1.587044e+00	-1.004740e+00	1.226304e+00	3.736494e+01	7.797816e-03	2.542334e+05	1.014657e+05	2.882380e+02	8.952446e-02	1.983021e-01	0.000000e+00	
-1.951700e+00	-8.025383e-01	1.226302e+00	3.737270e+01	1.078439e-03	2.542329e+05	1.014654e+05	2.882378e+02	8.954325e-02	1.979233e-01	0.000000e+00	
-1.482426e+00	-1.181198e+00	1.226306e+00	3.735829e+01	4.581784e-03	2.542337e+05	1.014659e+05	2.882382e+02	8.950836e-02	1.985918e-01	0.000000e+00	
-1.524589e+00	-1.149206e+00	1.226305e+00	3.736036e+01	5.356876e-03	2.542335e+05	1.014658e+05	2.882381e+02	8.951339e-02	1.984744e-01	0.000000e+00	
-1.533019e+00	-1.098254e+00	1.226305e+00	3.736150e+01	6.698203e-03	2.542336e+05	1.014658e+05	2.882381e+02	8.951612e-02	1.984844e-01	0.000000e+00	
-1.535784e+00	-1.035922e+00	1.226304e+00	3.736296e+01	8.441254e-03	2.542335e+05	1.014657e+05	2.882381e+02	8.951967e-02	1.983843e-01	0.000000e+00	
-1.638043e+00	-9.131350e-01	1.226303e+00	3.736828e+01	7.968187e-03	2.542332e+05	1.014655e+05	2.882379e+02	8.953253e-02	1.981518e-01	0.000000e+00	
-1.587311e+00	-9.436131e-01	1.226304e+00	3.736663e+01	8.961638e-03	2.542333e+05	1.014656e+05	2.882380e+02	8.952854e-02	1.982283e-01	0.000000e+00	
-1.688831e+00	-8.830544e-01	1.226303e+00	3.736967e+01	6.912637e-03	2.542331e+05	1.014655e+05	2.882379e+02	8.953590e-02	1.980864e-01	0.000000e+00	
-1.739847e+00	-8.535053e-01	1.226302e+00	3.737084e+01	5.811140e-03	2.542331e+05	1.014655e+05	2.882379e+02	8.953873e-02	1.980290e-01	0.000000e+00	
-1.791344e+00	-8.246529e-01	1.226302e+00	3.737182e+01	4.673701e-03	2.542330e+05	1.014654e+05	2.882378e+02	8.954111e-02	1.979811e-01	0.000000e+00	
-1.843662e+00	-7.966422e-01	1.226302e+00	3.737266e+01	3.508240e-03	2.542330e+05	1.014654e+05	2.882378e+02	8.954313e-02	1.979376e-01	0.000000e+00	
-1.897118e+00	-7.695048e-01	1.226302e+00	3.737337e+01	2.317771e-03	2.542329e+05	1.014654e+05	2.882378e+02	8.954486e-02	1.979013e-01	0.000000e+00	
-2.000000e+00	-7.738095e-01	1.226301e+00	3.737334e+01	-6.132403e-05	2.542329e+05	1.014654e+05	2.882378e+02	8.954480e-02	1.978866e-01	0.000000e+00	
-1.536563e+00	-9.743093e-01	1.226304e+00	3.736470e+01	9.875429e-03	2.542334e+05	1.014657e+05	2.882380e+02	8.952387e-02	1.983213e-01	0.000000e+00	
-1.951774e+00	-7.430524e-01	1.226301e+00	3.737401e+01	1.112251e-03	2.542329e+05	1.014653e+05	2.882378e+02	8.954641e-02	1.978661e-01	0.000000e+00	
-1.428477e+00	-1.207429e+00	1.226306e+00	3.735585e+01	4.234489e-03	2.542338e+05	1.014659e+05	2.882382e+02	8.950246e-02	1.986915e-01	0.000000e+00	
-1.483039e+00	-1.130346e+00	1.226306e+00	3.735922e+01	6.694825e-03	2.542337e+05	1.014658e+05	2.882382e+02	8.951062e-02	1.985663e-01	0.000000e+00	
-1.485010e+00	-1.067181e+00	1.226305e+00	3.736070e+01	8.856871e-03	2.542336e+05	1.014658e+05	2.882381e+02	8.951419e-02	1.984989e-01	0.000000e+00	
-1.485902e+00	-1.005187e+00	1.226305e+00	3.736247e+01	1.070760e-02	2.542335e+05	1.014657e+05	2.882381e+02	8.951847e-02	1.984232e-01	0.000000e+00	
-1.587023e+00	-8.838189e-01	1.226303e+00	3.736848e+01	9.896313e-03	2.542332e+05	1.014655e+05	2.882379e+02	8.953302e-02	1.981499e-01	0.000000e+00	
-1.637592e+00	-8.537695e-01	1.226303e+00	3.737001e+01	8.657483e-03	2.542331e+05	1.014655e+05	2.882379e+02	8.953672e-02	1.980774e-01	0.000000e+00	
-1.536482e+00	-9.140522e-01	1.226304e+00	3.736666e+01	1.111127e-02	2.542333e+05	1.014656e+05	2.882380e+02	8.952863e-02	1.982327e-01	0.000000e+00	
-1.688274e+00	-8.239861e-01	1.226302e+00	3.737129e+01	7.400865e-03	2.542331e+05	1.014654e+05	2.882378e+02	8.953982e-02	1.980157e-01	0.000000e+00	
-1.739242e+00	-7.945913e-01	1.226302e+00	3.737237e+01	6.139437e-03	2.542330e+05	1.014654e+05	2.882378e+02	8.954243e-02	1.979624e-01	0.000000e+00	
-1.790775e+00	-7.657566e-01	1.226302e+00	3.737327e+01	4.880001e-03	2.542329e+05	1.014654e+05	2.882378e+02	8.954463e-02	1.979167e-01	0.000000e+00	
-1.843232e+00	-7.376524e-01	1.226301e+00	3.737405e+01	3.621780e-03	2.542329e+05	1.014653e+05	2.882378e+02	8.954651e-02	1.978759e-01	0.000000e+00	
-1.896909e+00	-7.103342e-01	1.226301e+00	3.737473e+01	2.365715e-03	2.542329e+05	1.014653e+05	2.882377e+02	8.954815e-02	1.978419e-01	0.000000e+00	
-2.000000e+00	-7.142857e-01	1.226301e+00	3.737466e+01	-6.449294e-05	2.542328e+05	1.014653e+05	2.882377e+02	8.954798e-02	1.978292e-01	0.000000e+00	
-1.436314e+00	-1.160707e+00	1.226306e+00	3.735660e+01	6.155585e-03	2.542338e+05	1.014659e+05	2.882382e+02	8.950427e-02	1.986792e-01	0.000000e+00	
-1.485963e+00	-9.444475e-01	1.226304e+00	3.736453e+01	1.228618e-02	2.542334e+05	1.014657e+05	2.882380e+02	8.952347e-02	1.983311e-01	0.000000e+00	
-1.951834e+00	-6.836189e-01	1.226301e+00	3.737534e+01	1.121173e-03	2.542328e+05	1.014653e+05	2.882377e+02	8.954965e-02	1.978077e-01	0.000000e+00	
-1.381401e+00	-1.203049e+00	1.226307e+00	3.735359e+01	5.133673e-03	2.542339e+05	1.014660e+05	2.882383e+02	8.949700e-02	1.987904e-01	0.000000e+00	
-1.435164e+00	-1.099511e+00	1.226306e+00	3.735800e+01	8.838915e-03	2.542337e+05	1.014659e+05	2.882382e+02	8.950765e-02	1.986332e-01	0.000000e+00	
-1.435473e+00	-1.036658e+00	1.226305e+00	3.735987e+01	1.132456e-02	2.542336e+05	1.014658e+05	2.882381e+02	8.951218e-02	1.985391e-01	0.000000e+00	
-1.435492e+00	-9.751382e-01	1.226305e+00	3.736203e+01	1.336549e-02	2.542335e+05	1.014658e+05	2.882381e+02	8.951742e-02	1.984476e-01	0.000000e+00	
-1.586498e+00	-8.247520e-01	1.226303e+00	3.737045e+01	1.059818e-02	2.542331e+05	1.014655e+05	2.882379e+02	8.953779e-02	1.980644e-01	0.000000e+00	
-1.536036e+00	-8.547237e-01	1.226303e+00	3.736880e+01	1.207216e-02	2.542332e+05	1.014655e+05	2.882379e+02	8.953378e-02	1.981424e-01	0.000000e+00	
-1.637009e+00	-7.948977e-01	1.226302e+00	3.737183e+01	9.142175e-03	2.542330e+05	1.014654e+05	2.882378e+02	8.954114e-02	1.979985e-01	0.000000e+00	
-1.485590e+00	-8.847930e-01	1.226304e+00	3.736682e+01	1.355672e-02	2.542333e+05	1.014656e+05	2.882380e+02	8.952899e-02	1.982342e-01	0.000000e+00	
-1.687660e+00	-7.652266e-01	1.226302e+00	3.737298e+01	7.716257e-03	2.542330e+05	1.014654e+05	2.882378e+02	8.954392e-02	1.979423e-01	0.000000e+00	
-1.738635e+00	-7.358608e-01	1.226301e+00	3.737395e+01	6.326260e-03	2.542329e+05	1.014654e+05	2.882378e+02	8.954626e-02	1.978937e-01	0.000000e+00	
-1.790233e+00	-7.069758e-01	1.226301e+00	3.737477e+01	4.972267e-03	2.542329e+05	1.014653e+05	2.882377e+02	8.954825e-02	1.978524e-01	0.000000e+00	
-1.842826e+00	-6.787423e-01	1.226301e+00	3.737547e+01	3.650910e-03	2.542328e+05	1.014653e+05	2.882377e+02	8.954996e-02	1.978144e-01	0.000000e+00	
-1.896711e+00	-6.512112e-01	1.226301e+00	3.737609e+01	2.358978e-03	2.542328e+05	1.014653e+05	2.882377e+02	8.955145e-02	1.977830e-01	0.000000e+00	
-2.000000e+00	-6.547619e-01	1.226301e+00	3.737599e+01	-6.571118e-05	2.542328e+05	1.014653e+05	2.882377e+02	8.955120e-02	1.977714e-01	0.000000e+00	
-1.384569e+00	-1.135692e+00	1.226307e+00	3.735470e+01	8.284252e-03	2.542339e+05	1.014660e+05	2.882383e+02	8.949967e-02	1.987601e-01	0.000000e+00	
-1.435154e+00	-9.150004e-01	1.226304e+00	3.736447e+01	1.503523e-02	2.542334e+05	1.014657e+05	2.882380e+02	8.952332e-02	1.983413e-01	0.000000e+00	
-1.951901e+00	-6.242027e-01	1.226301e+00	3.737668e+01	1.104631e-03	2.542328e+05	1.014653e+05	2.882377e+02	8.955287e-02	1.977496e-01	0.000000e+00	
-1.333934e+00	-1.179953e+00	1.226308e+00	3.735135e+01	7.563391e-03	2.542341e+05	1.014661e+05	2.882384e+02	8.949155e-02	1.989652e-01	0.000000e+00	
-1.385051e+00	-1.069594e+00	1.226306e+00	3.735668e+01	1.151110e-02	2.542338e+05	1.014659e+05	2.882382e+02	8.950447e-02	1.986749e-01	0.000000e+00	
-1.385044e+00	-1.006427e+00	1.226306e+00	3.735904e+01	1.422758e-02	2.542337e+05	1.014658e+05	2.882382e+02	8.951017e-02	1.985811e-01	0.000000e+00	
-1.384722e+00	-9.454568e-01	1.226305e+00	3.736169e+01	1.643617e-02	2.542336e+05	1.014658e+05	2.882381e+02	8.951658e-02	1.984689e-01	0.000000e+00	
-1.585892e+00	-7.660163e-01	1.226302e+00	3.737251e+01	1.105076e-02	2.542330e+05	1.014654e+05	2.882378e+02	8.954278e-02	1.979752e-01	0.000000e+00	
-1.535455e+00	-7.958758e-01	1.226302e+00	3.737105e+01	1.275300e-02	2.542331e+05	1.014655e+05	2.882379e+02	8.953923e-02	1.980449e-01	0.000000e+00	
-1.485037e+00	-8.257859e-01	1.226303e+00	3.736927e+01	1.451702e-02	2.542332e+05	1.014655e+05	2.882379e+02	8.953494e-02	1.981276e-01	0.000000e+00	
-1.636386e+00	-7.362313e-01	1.226302e+00	3.737372e+01	9.417461e-03	2.542330e+05	1.014654e+05	2.882378e+02	8.954571e-02	1.979162e-01	0.000000e+00	
-1.434624e+00	-8.557541e-01	1.226304e+00	3.736714e+01	1.633208e-02	2.542333e+05	1.014656e+05	2.882380e+02	8.952977e-02	1.982265e-01	0.000000e+00	
-1.687037e+00	-7.065855e-01	1.226301e+00	3.737473e+01	7.857972e-03	2.542329e+05	1.014653e+05	2.882378e+02	8.954814e-02	1.978664e-01	0.000000e+00	
-1.738039e+00	-6.771988e-01	1.226301e+00	3.737557e+01	6.372248e-03	2.542328e+05	1.014653e+05	2.882377e+02	8.955017e-02	1.978233e-01	0.000000e+00	
-1.789710e+00	-6.482388e-01	1.226301e+00	3.737628e+01	4.954993e-03	2.542328e+05	1.014653e+05	2.882377e+02	8.955189e-02	1.977868e-01	0.000000e+00	
-1.842437e+00	-6.198613e-01	1.226301e+00	3.737689e+01	3.598951e-03	2.542328e+05	1.014653e+05	2.882377e+02	8.955338e-02	1.977528e-01	0.000000e+00	
-1.896524e+00	-5.921043e-01	1.226300e+00	3.737744e+01	2.299121e-03	2.542327e+05	1.014652e+05	2.882377e+02	8.955471e-02	1.977247e-01	0.000000e+00	
-2.000000e+00	-5.952381e-01	1.226300e+00	3.737730e+01	-6.594578e-05	2.542327e+05	1.014652e+05	2.882377e+02	8.955438e-02	1.977144e-01	0.000000e+00	
-1.285603e+00	-1.202634e+00	1.226309e+00	3.734804e+01	7.216233e-03	2.542342e+05	1.014662e+05	2.882385e+02	8.948357e-02	1.990587e-01	0.000000e+00	
-1.334509e+00	-1.104381e+00	1.226307e+00	3.735298e+01	1.148009e-02	2.542340e+05	1.014660e+05	2.882383e+02	8.949552e-02	1.988376e-01	0.000000e+00	
-1.384211e+00	-8.858197e-01	1.226304e+00	3.736458e+01	1.817523e-02	2.542334e+05	1.014657e+05	2.882380e+02	8.952357e-02	1.983432e-01	0.000000e+00	
-1.951978e+00	-5.647922e-01	1.226300e+00	3.737797e+01	1.062421e-03	2.542327e+05	1.014652e+05	2.882377e+02	8.955601e-02	1.976930e-01	0.000000e+00	
-1.284178e+00	-1.135987e+00	1.226309e+00	3.734941e+01	1.130620e-02	2.542342e+05	1.014662e+05	2.882384e+02	8.948684e-02	1.990560e-01	0.000000e+00	
-1.334573e+00	-1.038434e+00	1.226307e+00	3.735546e+01	1.481692e-02	2.542339e+05	1.014660e+05	2.882383e+02	8.950151e-02	1.987424e-01	0.000000e+00	
-1.334286e+00	-9.762514e-01	1.226306e+00	3.735833e+01	1.769133e-02	2.542337e+05	1.014659e+05	2.882382e+02	8.950845e-02	1.986142e-01	0.000000e+00	
-1.333796e+00	-9.160353e-01	1.226305e+00	3.736150e+01	1.998340e-02	2.542336e+05	1.014658e+05	2.882381e+02	8.951613e-02	1.984837e-01	0.000000e+00	
-1.585263e+00	-7.074028e-01	1.226301e+00	3.737463e+01	1.125001e-02	2.542329e+05	1.014654e+05	2.882378e+02	8.954789e-02	1.978834e-01	0.000000e+00	
-1.534833e+00	-7.372253e-01	1.226302e+00	3.737338e+01	1.313720e-02	2.542330e+05	1.014654e+05	2.882378e+02	8.954487e-02	1.979438e-01	0.000000e+00	
-1.484423e+00	-7.670749e-01	1.226302e+00	3.737185e+01	1.513785e-02	2.542331e+05	1.014654e+05	2.882378e+02	8.954116e-02	1.980167e-01	0.000000e+00	
-1.434019e+00	-7.969472e-01	1.226303e+00	3.736997e+01	1.724879e-02	2.542332e+05	1.014655e+05	2.882379e+02	8.953662e-02	1.981040e-01	0.000000e+00	
-1.635756e+00	-6.776342e-01	1.226301e+00	3.737564e+01	9.479083e-03	2.542329e+05	1.014653e+05	2.882377e+02	8.955036e-02	1.978328e-01	0.000000e+00	
-1.383615e+00	-8.268533e-01	1.226303e+00	3.736768e+01	1.945913e-02	2.542333e+05	1.014656e+05	2.882380e+02	8.953109e-02	1.982096e-01	0.000000e+00	
-1.686417e+00	-6.479821e-01	1.226301e+00	3.737648e+01	7.822888e-03	2.542328e+05	1.014653e+05	2.882377e+02	8.955238e-02	1.977904e-01	0.000000e+00	
-1.737454e+00	-6.185590e-01	1.226301e+00	3.737718e+01	6.274970e-03	2.542328e+05	1.014653e+05	2.882377e+02	8.955406e-02	1.977537e-01	0.000000e+00	
-1.789199e+00	-5.895163e-01	1.226300e+00	3.737776e+01	4.825827e-03	2.542327e+05	1.014652e+05	2.882377e+02	8.955548e-02	1.977227e-01	0.000000e+00	
-1.842058e+00	-5.609896e-01	1.226300e+00	3.737827e+01	3.465452e-03	2.542327e+05	1.014652e+05	2.882377e+02	8.955672e-02	1.976932e-01	0.000000e+00	
-1.896346e+00	-5.330022e-01	1.226300e+00	3.737873e+01	2.186864e-03	2.542327e+05	1.014652e+05	2.882376e+02	8.955784e-02	1.976688e-01	0.000000e+00	
-2.000000e+00	-5.357143e-01	1.226300e+00	3.737856e+01	-6.491845e-05	2.542327e+05	1.014652e+05	2.882376e+02	8.955743e-02	1.976596e-01	0.000000e+00	
-1.232677e+00	-1.161484e+00	1.226309e+00	3.734526e+01	1.110273e-02	2.542343e+05	1.014663e+05	2.882385e+02	8.947684e-02	1.991886e-01	0.000000e+00	
-1.238042e+00	-1.207625e+00	1.226310e+00	3.734428e+01	7.055673e-03	2.542345e+05	1.014663e+05	2.882386e+02	8.947444e-02	1.992777e-01	0.000000e+00	
-1.284181e+00	-1.070156e+00	1.226308e+00	3.735145e+01	1.528745e-02	2.542340e+05	1.014661e+05	2.882384e+02	8.949182e-02	1.989038e-01	0.000000e+00	
-1.333210e+00	-8.568167e-01	1.226304e+00	3.736491e+01	2.174551e-02	2.542334e+05	1.014657e+05	2.882380e+02	8.952438e-02	1.983353e-01	0.000000e+00	
-1.952062e+00	-5.053835e-01	1.226300e+00	3.737921e+01	9.960354e-04	2.542326e+05	1.014652e+05	2.882376e+02	8.955899e-02	1.976392e-01	0.000000e+00	
-1.234074e+00	-1.100366e+00	1.226309e+00	3.734718e+01	1.544530e-02	2.542343e+05	1.014662e+05	2.882385e+02	8.948146e-02	1.991173e-01	0.000000e+00	
-1.283894e+00	-1.007220e+00	1.226307e+00	3.735437e+01	1.874383e-02	2.542339e+05	1.014660e+05	2.882383e+02	8.949888e-02	1.987972e-01	0.000000e+00	
-1.283398e+00	-9.464113e-01	1.226306e+00	3.735779e+01	2.171110e-02	2.542338e+05	1.014659e+05	2.882382e+02	8.950716e-02	1.986459e-01	0.000000e+00	
-1.282810e+00	-8.868629e-01	1.226305e+00	3.736155e+01	2.405953e-02	2.542336e+05	1.014658e+05	2.882381e+02	8.951625e-02	1.984870e-01	0.000000e+00	
-1.534200e+00	-6.786397e-01	1.226301e+00	3.737574e+01	1.321969e-02	2.542329e+05	1.014653e+05	2.882377e+02	8.955059e-02	1.978411e-01	0.000000e+00	
-1.584629e+00	-6.488259e-01	1.226301e+00	3.737675e+01	1.119421e-02	2.542328e+05	1.014653e+05	2.882377e+02	8.955303e-02	1.977911e-01	0.000000e+00	
-1.483792e+00	-7.084714e-01	1.226302e+00	3.737448e+01	1.540971e-02	2.542330e+05	1.014654e+05	2.882378e+02	8.954754e-02	1.979021e-01	0.000000e+00	
-1.433390e+00	-7.383124e-01	1.226302e+00	3.737291e+01	1.776570e-02	2.542330e+05	1.014654e+05	2.882378e+02	8.954372e-02	1.979768e-01	0.000000e+00	
-1.382989e+00	-7.681640e-01	1.226303e+00	3.737095e+01	2.028796e-02	2.542331e+05	1.014655e+05	2.882379e+02	8.953898e-02	1.980678e-01	0.000000e+00	
-1.635126e+00	-6.190563e-01	1.226301e+00	3.737756e+01	9.328248e-03	2.542328e+05	1.014653e+05	2.882377e+02	8.955498e-02	1.977498e-01	0.000000e+00	
-1.332588e+00	-7.980338e-01	1.226303e+00	3.736853e+01	2.296858e-02	2.542333e+05	1.014656e+05	2.882379e+02	8.953313e-02	1.981790e-01	0.000000e+00	
-1.685802e+00	-5.893892e-01	1.226300e+00	3.737821e+01	7.613268e-03	2.542327e+05	1.014652e+05	2.882377e+02	8.955656e-02	1.977155e-01	0.000000e+00	
-1.736874e+00	-5.599255e-01	1.226300e+00	3.737874e+01	6.037797e-03	2.542327e+05	1.014652e+05	2.882377e+02	8.955785e-02	1.976859e-01	0.000000e+00	
-1.788694e+00	-5.307981e-01	1.226300e+00	3.737918e+01	4.588859e-03	2.542327e+05	1.014652e+05	2.882376e+02	8.955892e-02	1.976610e-01	0.000000e+00	
-1.841686e+00	-5.021205e-01	1.226300e+00	3.737958e+01	3.254142e-03	2.542326e+05	1.014652e+05	2.882376e+02	8.955988e-02	1.976365e-01	0.000000e+00	
-1.896174e+00	-4.739013e-01	1.226300e+00	3.737994e+01	2.025372e-03	2.542326e+05	1.014652e+05	2.882376e+02	8.956077e-02	1.976164e-01	0.000000e+00	
-2.000000e+00	-4.761905e-01	1.226300e+00	3.737974e+01	-6.240632e-05	2.542326e+05	1.014652e+05	2.882376e+02	8.956029e-02	1.976082e-01	0.000000e+00	
-1.185708e+00	-1.130828e+00	1.226310e+00	3.734247e+01	1.510283e-02	2.542345e+05	1.014664e+05	2.882386e+02	8.947006e-02	1.993440e-01	0.000000e+00	
-1.184765e+00	-1.185808e+00	1.226311e+00	3.734024e+01	9.871166e-03	2.542347e+05	1.014665e+05	2.882387e+02	8.946464e-02	1.994706e-01	0.000000e+00	
-1.233724e+00	-1.038016e+00	1.226308e+00	3.734983e+01	1.962081e-02	2.542341e+05	1.014661e+05	2.882384e+02	8.948790e-02	1.989910e-01	0.000000e+00	
-1.282188e+00	-8.279355e-01	1.226304e+00	3.736556e+01	2.578629e-02	2.542334e+05	1.014657e+05	2.882380e+02	8.952596e-02	1.983142e-01	0.000000e+00	
-1.952152e+00	-4.459755e-01	1.226300e+00	3.738035e+01	9.073434e-04	2.542326e+05	1.014651e+05	2.882376e+02	8.956175e-02	1.975895e-01	0.000000e+00	
-1.184242e+00	-1.068796e+00	1.226310e+00	3.734482e+01	2.013319e-02	2.542344e+05	1.014663e+05	2.882385e+02	8.947577e-02	1.992300e-01	0.000000e+00	
-1.233095e+00	-9.769027e-01	1.226307e+00	3.735340e+01	2.330550e-02	2.542340e+05	1.014660e+05	2.882383e+02	8.949653e-02	1.988370e-01	0.000000e+00	
-1.232442e+00	-9.170133e-01	1.226306e+00	3.735748e+01	2.634673e-02	2.542338e+05	1.014659e+05	2.882382e+02	8.950641e-02	1.986687e-01	0.000000e+00	
-1.231797e+00	-8.578882e-01	1.226305e+00	3.736192e+01	2.870895e-02	2.542336e+05	1.014658e+05	2.882381e+02	8.951716e-02	1.984761e-01	0.000000e+00	
-1.533565e+00	-6.200713e-01	1.226301e+00	3.737809e+01	1.300175e-02	2.542328e+05	1.014653e+05	2.882377e+02	8.955628e-02	1.977391e-01	0.000000e+00	
-1.483157e+00	-6.498991e-01	1.226301e+00	3.737713e+01	1.532679e-02	2.542328e+05	1.014653e+05	2.882377e+02	8.955394e-02	1.977873e-01	0.000000e+00	
-1.583995e+00	-5.902579e-01	1.226300e+00	3.737884e+01	1.088648e-02	2.542327e+05	1.014652e+05	2.882377e+02	8.955808e-02	1.977006e-01	0.000000e+00	
-1.432756e+00	-6.797320e-01	1.226301e+00	3.737589e+01	1.787169e-02	2.542329e+05	1.014653e+05	2.882377e+02	8.955094e-02	1.978474e-01	0.000000e+00	
-1.382356e+00	-7.095681e-01	1.226302e+00	3.737430e+01	2.064411e-02	2.542330e+05	1.014654e+05	2.882378e+02	8.954709e-02	1.979226e-01	0.000000e+00	
-1.331956e+00	-7.394092e-01	1.226302e+00	3.737229e+01	2.364904e-02	2.542331e+05	1.014654e+05	2.882378e+02	8.954222e-02	1.980161e-01	0.000000e+00	
-1.634498e+00	-5.604830e-01	1.226300e+00	3.737942e+01	8.968618e-03	2.542327e+05	1.014652e+05	2.882376e+02	8.955948e-02	1.976693e-01	0.000000e+00	
-1.281556e+00	-7.692600e-01	1.226303e+00	3.736976e+01	2.688551e-02	2.542332e+05	1.014655e+05	2.882379e+02	8.953612e-02	1.981316e-01	0.000000e+00	
-1.685188e+00	-5.307987e-01	1.226300e+00	3.737987e+01	7.233611e-03	2.542327e+05	1.014652e+05	2.882376e+02	8.956057e-02	1.976437e-01	0.000000e+00	
-1.736298e+00	-5.012935e-01	1.226300e+00	3.738022e+01	5.665818e-03	2.542326e+05	1.014652e+05	2.882376e+02	8.956144e-02	1.976217e-01	0.000000e+00	
-1.788193e+00	-4.720809e-01	1.226300e+00	3.738052e+01	4.249400e-03	2.542326e+05	1.014652e+05	2.882376e+02	8.956215e-02	1.976033e-01	0.000000e+00	
-1.841317e+00	-4.432518e-01	1.226300e+00	3.738079e+01	2.970145e-03	2.542326e+05	1.014651e+05	2.882376e+02	8.956280e-02	1.975841e-01	0.000000e+00	
-1.896007e+00	-4.148005e-01	1.226300e+00	3.738105e+01	1.818687e-03	2.542326e+05	1.014651e+05	2.882376e+02	8.956344e-02	1.975686e-01	0.000000e+00	
-2.000000e+00	-4.166667e-01	1.226299e+00	3.738082e+01	-5.821910e-05	2.542325e+05	1.014651e+05	2.882376e+02	8.956290e-02	1.975614e-01	0.000000e+00	
-1.143479e+00	-1.149926e+00	1.226311e+00	3.733763e+01	1.472830e-02	2.542346e+05	1.014665e+05	2.882387e+02	8.945843e-02	1.994506e-01	0.000000e+00	
-1.136036e+00	-1.099969e+00	1.226312e+00	3.733915e+01	1.974589e-02	2.542347e+05	1.014665e+05	2.882387e+02	8.946201e-02	1.995232e-01	0.000000e+00	
-1.116564e+00	-1.191314e+00	1.226313e+00	3.733354e+01	1.124828e-02	2.542349e+05	1.014667e+05	2.882388e+02	8.944846e-02	1.997138e-01	0.000000e+00	
-1.183052e+00	-1.007558e+00	1.226309e+00	3.734832e+01	2.467277e-02	2.542342e+05	1.014662e+05	2.882384e+02	8.948424e-02	1.990705e-01	0.000000e+00	
-1.231159e+00	-7.991290e-01	1.226304e+00	3.736662e+01	3.033680e-02	2.542334e+05	1.014656e+05	2.882380e+02	8.952853e-02	1.982748e-01	0.000000e+00	
-1.952249e+00	-3.865677e-01	1.226299e+00	3.738137e+01	7.987283e-04	2.542325e+05	1.014651e+05	2.882376e+02	8.956422e-02	1.975449e-01	0.000000e+00	
-1.133422e+00	-1.038685e+00	1.226310e+00	3.734240e+01	2.568257e-02	2.542344e+05	1.014664e+05	2.882386e+02	8.946994e-02	1.992974e-01	0.000000e+00	
-1.182166e+00	-9.473104e-01	1.226308e+00	3.735262e+01	2.856738e-02	2.542340e+05	1.014661e+05	2.882383e+02	8.949465e-02	1.988787e-01	0.000000e+00	
-1.181435e+00	-8.879214e-01	1.226306e+00	3.735750e+01	3.167713e-02	2.542338e+05	1.014659e+05	2.882382e+02	8.950646e-02	1.986751e-01	0.000000e+00	
-1.180769e+00	-8.290307e-01	1.226305e+00	3.736273e+01	3.398274e-02	2.542336e+05	1.014658e+05	2.882381e+02	8.951912e-02	1.984480e-01	0.000000e+00	
-1.482521e+00	-5.913341e-01	1.226300e+00	3.737973e+01	1.489514e-02	2.542327e+05	1.014652e+05	2.882376e+02	8.956023e-02	1.976746e-01	0.000000e+00	
-1.532929e+00	-5.615067e-01	1.226300e+00	3.738038e+01	1.249096e-02	2.542327e+05	1.014652e+05	2.882376e+02	8.956180e-02	1.976402e-01	0.000000e+00	
-1.432120e+00	-6.211654e-01	1.226300e+00	3.737884e+01	1.756635e-02	2.542328e+05	1.014652e+05	2.882377e+02	8.955809e-02	1.977191e-01	0.000000e+00	
-1.583362e+00	-5.316917e-01	1.226300e+00	3.738085e+01	1.033551e-02	2.542326e+05	1.014652e+05	2.882376e+02	8.956294e-02	1.976137e-01	0.000000e+00	
-1.381720e+00	-6.509980e-01	1.226301e+00	3.737766e+01	2.052160e-02	2.542328e+05	1.014653e+05	2.882377e+02	8.955523e-02	1.977767e-01	0.000000e+00	
-1.331321e+00	-6.808319e-01	1.226301e+00	3.737610e+01	2.377662e-02	2.542329e+05	1.014653e+05	2.882377e+02	8.955145e-02	1.978505e-01	0.000000e+00	
-1.280921e+00	-7.106681e-01	1.226302e+00	3.737408e+01	2.734343e-02	2.542330e+05	1.014654e+05	2.882378e+02	8.954656e-02	1.979447e-01	0.000000e+00	
-1.633870e+00	-5.019105e-01	1.226300e+00	3.738118e+01	8.409526e-03	2.542326e+05	1.014651e+05	2.882376e+02	8.956375e-02	1.975929e-01	0.000000e+00	
-1.230522e+00	-7.405094e-01	1.226303e+00	3.737149e+01	3.123042e-02	2.542331e+05	1.014655e+05	2.882379e+02	8.954030e-02	1.980629e-01	0.000000e+00	
-1.684576e+00	-4.722088e-01	1.226300e+00	3.738142e+01	6.693551e-03	2.542326e+05	1.014651e+05	2.882376e+02	8.956432e-02	1.975765e-01	0.000000e+00	
-1.735722e+00	-4.426619e-01	1.226299e+00	3.738159e+01	5.168428e-03	2.542326e+05	1.014651e+05	2.882376e+02	8.956475e-02	1.975623e-01	0.000000e+00	
-1.787693e+00	-4.133637e-01	1.226299e+00	3.738173e+01	3.815937e-03	2.542326e+05	1.014651e+05	2.882376e+02	8.956509e-02	1.975507e-01	0.000000e+00	