TITLE = "Visualization of the volumetric solution"
VARIABLES = "x","y","Density","Momentum_x","Momentum_y","Energy","Pressure","Temperature","Mach","C<sub>p</sub>","Roe_Dissipation"
ZONE NODES= 84, ELEMENTS= 132, DATAPACKING=POINT, ZONETYPE=FEQUADRILATERAL
0.000000e+00	-7.853950e-02	1.225068e+00	4.167873e+01	6.337876e-01	2.540174e+05	1.013233e+05	2.881239e+02	9.999212e-02	-2.395277e-03	0.000000e+00	
9.261804e-02	-8.810319e-02	1.224969e+00	4.165752e+01	2.250197e+00	2.539970e+05	1.013147e+05	2.881228e+02	1.000837e-01	-1.458812e-02	0.000000e+00	
5.901099e-02	-2.216013e-02	1.225177e+00	4.168248e+01	1.728202e+00	2.540402e+05	1.013320e+05	2.881230e+02	1.000667e-01	9.846433e-03	0.000000e+00	
1.370231e-01	-2.703716e-02	1.225103e+00	4.167430e+01	2.680530e+00	2.540252e+05	1.013254e+05	2.881218e+02	1.001741e-01	5.278039e-04	0.000000e+00	
0.000000e+00	0.000000e+00	1.225153e+00	4.164218e+01	4.374916e-01	2.540345e+05	1.013307e+05	2.881249e+02	9.989130e-02	8.008275e-03	0.000000e+00	
1.828157e-01	-9.294718e-02	1.225062e+00	4.164226e+01	3.013044e+00	2.540168e+05	1.013221e+05	2.881220e+02	1.001551e-01	-4.062190e-03	0.000000e+00	
9.932489e-02	3.658580e-02	1.225012e+00	4.167195e+01	2.293600e+00	2.540061e+05	1.013181e+05	2.881223e+02	1.001205e-01	-9.773778e-03	0.000000e+00	
4.263339e-02	4.180379e-02	1.225065e+00	4.166116e+01	1.418484e+00	2.540166e+05	1.013229e+05	2.881238e+02	9.999665e-02	-2.901903e-03	0.000000e+00	
1.701916e-01	3.412495e-02	1.225025e+00	4.167379e+01	2.941293e+00	2.540093e+05	1.013188e+05	2.881212e+02	1.002214e-01	-8.795200e-03	0.000000e+00	
2.158034e-01	-2.996004e-02	1.225056e+00	4.166537e+01	3.193088e+00	2.540157e+05	1.013212e+05	2.881210e+02	1.002432e-01	-5.359906e-03	0.000000e+00	
0.000000e+00	7.853950e-02	1.225056e+00	4.165754e+01	3.981398e-01	2.540146e+05	1.013225e+05	2.881245e+02	9.993523e-02	-3.545150e-03	0.000000e+00	
2.628649e-01	-9.538335e-02	1.225037e+00	4.165660e+01	3.360970e+00	2.540118e+05	1.013196e+05	2.881208e+02	1.002553e-01	-7.651201e-03	0.000000e+00	
5.373447e-02	9.648692e-02	1.225131e+00	4.164417e+01	1.632913e+00	2.540301e+05	1.013285e+05	2.881241e+02	9.996933e-02	4.940653e-03	0.000000e+00	
1.227703e-01	9.704458e-02	1.225148e+00	4.167046e+01	2.561151e+00	2.540344e+05	1.013292e+05	2.881221e+02	1.001432e-01	5.968812e-03	0.000000e+00	
1.974907e-01	9.531656e-02	1.225055e+00	4.168166e+01	3.111394e+00	2.540157e+05	1.013211e+05	2.881207e+02	1.002674e-01	-5.558465e-03	0.000000e+00	
2.460235e-01	3.224497e-02	1.225053e+00	4.166533e+01	3.308171e+00	2.540152e+05	1.013209e+05	2.881207e+02	1.002648e-01	-5.794740e-03	0.000000e+00	
2.933904e-01	-3.174484e-02	1.225055e+00	4.166012e+01	3.434309e+00	2.540156e+05	1.013210e+05	2.881206e+02	1.002766e-01	-5.669151e-03	0.000000e+00	
0.000000e+00	1.570790e-01	1.225089e+00	4.167660e+01	5.700389e-01	2.540215e+05	1.013250e+05	2.881239e+02	9.998315e-02	-3.718441e-05	0.000000e+00	
3.407281e-01	-9.711905e-02	1.225049e+00	4.165945e+01	3.515911e+00	2.540144e+05	1.013204e+05	2.881204e+02	1.002918e-01	-6.468035e-03	0.000000e+00	
7.692308e-02	1.570790e-01	1.225083e+00	4.166255e+01	1.929055e+00	2.540205e+05	1.013242e+05	2.881232e+02	1.000478e-01	-1.076233e-03	0.000000e+00	
1.538462e-01	1.570790e-01	1.225077e+00	4.165574e+01	2.824758e+00	2.540198e+05	1.013233e+05	2.881220e+02	1.001546e-01	-2.361037e-03	0.000000e+00	
2.741305e-01	9.342432e-02	1.225054e+00	4.167412e+01	3.393453e+00	2.540156e+05	1.013208e+05	2.881203e+02	1.003022e-01	-5.909843e-03	0.000000e+00	
2.307692e-01	1.570790e-01	1.225067e+00	4.166541e+01	3.258156e+00	2.540182e+05	1.013221e+05	2.881208e+02	1.002544e-01	-4.049716e-03	0.000000e+00	
3.226855e-01	3.080612e-02	1.225045e+00	4.166622e+01	3.488360e+00	2.540137e+05	1.013201e+05	2.881203e+02	1.003028e-01	-6.962815e-03	0.000000e+00	
3.703148e-01	-3.305697e-02	1.225046e+00	4.166168e+01	3.549088e+00	2.540140e+05	1.013202e+05	2.881202e+02	1.003041e-01	-6.805949e-03	0.000000e+00	
4.179741e-01	-9.867741e-02	1.225045e+00	4.166277e+01	3.587015e+00	2.540137e+05	1.013200e+05	2.881201e+02	1.003146e-01	-7.036961e-03	0.000000e+00	
3.076923e-01	1.570790e-01	1.225053e+00	4.166793e+01	3.468588e+00	2.540155e+05	1.013208e+05	2.881203e+02	1.003022e-01	-5.956902e-03	0.000000e+00	
3.513155e-01	9.168994e-02	1.225048e+00	4.167023e+01	3.529076e+00	2.540143e+05	1.013202e+05	2.881201e+02	1.003204e-01	-6.749589e-03	0.000000e+00	
3.993075e-01	2.971008e-02	1.225048e+00	4.166467e+01	3.572796e+00	2.540144e+05	1.013203e+05	2.881201e+02	1.003160e-01	-6.662363e-03	0.000000e+00	
4.468665e-01	-3.427703e-02	1.225046e+00	4.166236e+01	3.600942e+00	2.540140e+05	1.013201e+05	2.881201e+02	1.003164e-01	-6.879251e-03	0.000000e+00	
4.949608e-01	-1.002712e-01	1.225046e+00	4.166372e+01	3.618884e+00	2.540140e+05	1.013201e+05	2.881200e+02	1.003234e-01	-6.934782e-03	0.000000e+00	
3.846154e-01	1.570790e-01	1.225050e+00	4.166748e+01	3.564020e+00	2.540148e+05	1.013204e+05	2.881201e+02	1.003208e-01	-6.498896e-03	0.000000e+00	
4.281402e-01	9.032346e-02	1.225047e+00	4.166793e+01	3.592110e+00	2.540142e+05	1.013201e+05	2.881200e+02	1.003279e-01	-6.876013e-03	0.000000e+00	
4.756624e-01	2.869316e-02	1.225046e+00	4.166487e+01	3.611952e+00	2.540140e+05	1.013200e+05	2.881200e+02	1.003247e-01	-6.981944e-03	0.000000e+00	
5.231576e-01	-3.564130e-02	1.225045e+00	4.166330e+01	3.625107e+00	2.540139e+05	1.013200e+05	2.881200e+02	1.003237e-01	-7.025276e-03	0.000000e+00	
5.717244e-01	-1.019667e-01	1.225046e+00	4.166439e+01	3.633399e+00	2.540139e+05	1.013200e+05	2.881200e+02	1.003281e-01	-7.029669e-03	0.000000e+00	
4.615385e-01	1.570790e-01	1.225047e+00	4.166675e+01	3.608506e+00	2.540143e+05	1.013202e+05	2.881200e+02	1.003284e-01	-6.803758e-03	0.000000e+00	
5.054575e-01	9.143122e-02	1.225046e+00	4.166671e+01	3.620975e+00	2.540141e+05	1.013201e+05	2.881199e+02	1.003310e-01	-6.976325e-03	0.000000e+00	
5.526968e-01	2.987458e-02	1.225046e+00	4.166472e+01	3.629925e+00	2.540141e+05	1.013201e+05	2.881200e+02	1.003281e-01	-6.962098e-03	0.000000e+00	
6.001407e-01	-3.468356e-02	1.225045e+00	4.166389e+01	3.636014e+00	2.540139e+05	1.013200e+05	2.881200e+02	1.003274e-01	-7.034916e-03	0.000000e+00	
6.487754e-01	-1.009252e-01	1.225046e+00	4.166464e+01	3.639913e+00	2.540140e+05	1.013200e+05	2.881199e+02	1.003300e-01	-7.027995e-03	0.000000e+00	
5.384615e-01	1.570790e-01	1.225046e+00	4.166620e+01	3.628537e+00	2.540141e+05	1.013201e+05	2.881199e+02	1.003313e-01	-6.944403e-03	0.000000e+00	
5.825566e-01	9.226908e-02	1.225046e+00	4.166604e+01	3.634190e+00	2.540140e+05	1.013200e+05	2.881199e+02	1.003321e-01	-7.020848e-03	0.000000e+00	
6.295485e-01	3.033432e-02	1.225046e+00	4.166482e+01	3.638201e+00	2.540140e+05	1.013200e+05	2.881199e+02	1.003301e-01	-7.035752e-03	0.000000e+00	
6.768868e-01	-3.461172e-02	1.225045e+00	4.166430e+01	3.641053e+00	2.540139e+05	1.013200e+05	2.881200e+02	1.003295e-01	-7.052707e-03	0.000000e+00	
7.259232e-01	-1.005122e-01	1.225046e+00	4.166480e+01	3.642858e+00	2.540140e+05	1.013200e+05	2.881199e+02	1.003310e-01	-7.045023e-03	0.000000e+00	
6.153846e-01	1.570790e-01	1.225046e+00	4.166574e+01	3.637709e+00	2.540141e+05	1.013200e+05	2.881199e+02	1.003322e-01	-6.996915e-03	0.000000e+00	
6.598414e-01	9.289245e-02	1.225046e+00	4.166560e+01	3.640179e+00	2.540140e+05	1.013200e+05	2.881199e+02	1.003324e-01	-7.033560e-03	0.000000e+00	
7.067759e-01	3.042625e-02	1.225046e+00	4.166483e+01	3.641989e+00	2.540140e+05	1.013200e+05	2.881199e+02	1.003309e-01	-7.034890e-03	0.000000e+00	
7.538754e-01	-3.478471e-02	1.225045e+00	4.166455e+01	3.643324e+00	2.540139e+05	1.013200e+05	2.881199e+02	1.003305e-01	-7.054105e-03	0.000000e+00	
8.028969e-01	-1.001769e-01	1.225046e+00	4.166489e+01	3.644170e+00	2.540140e+05	1.013200e+05	2.881199e+02	1.003315e-01	-7.045723e-03	0.000000e+00	
6.923077e-01	1.570790e-01	1.225046e+00	4.166547e+01	3.641834e+00	2.540140e+05	1.013200e+05	2.881199e+02	1.003324e-01	-7.029257e-03	0.000000e+00	
7.377939e-01	9.313691e-02	1.225046e+00	4.166535e+01	3.642935e+00	2.540140e+05	1.013200e+05	2.881199e+02	1.003323e-01	-7.046534e-03	0.000000e+00	
7.848548e-01	2.981790e-02	1.225046e+00	4.166486e+01	3.643744e+00	2.540140e+05	1.013200e+05	2.881199e+02	1.003314e-01	-7.048112e-03	0.000000e+00	
8.304037e-01	-3.547451e-02	1.225045e+00	4.166471e+01	3.644356e+00	2.540139e+05	1.013200e+05	2.881199e+02	1.003311e-01	-7.056291e-03	0.000000e+00	
8.786523e-01	-9.917868e-02	1.225046e+00	4.166493e+01	3.644737e+00	2.540140e+05	1.013200e+05	2.881199e+02	1.003317e-01	-7.049696e-03	0.000000e+00	
7.692308e-01	1.570790e-01	1.225046e+00	4.166529e+01	3.643704e+00	2.540140e+05	1.013200e+05	2.881199e+02	1.003324e-01	-7.039450e-03	0.000000e+00	
8.180567e-01	9.247790e-02	1.225046e+00	4.166518e+01	3.644199e+00	2.540140e+05	1.013200e+05	2.881199e+02	1.003322e-01	-7.050184e-03	0.000000e+00	
8.644398e-01	2.772480e-02	1.225046e+00	4.166489e+01	3.644541e+00	2.540140e+05	1.013200e+05	2.881199e+02	1.003316e-01	-7.046256e-03	0.000000e+00	
9.025730e-01	-3.716138e-02	1.225045e+00	4.166481e+01	3.644788e+00	2.540139e+05	1.013200e+05	2.881199e+02	1.003315e-01	-7.055232e-03	0.000000e+00	
9.432705e-01	-9.271396e-02	1.225045e+00	4.166494e+01	3.644973e+00	2.540139e+05	1.013200e+05	2.881199e+02	1.003318e-01	-7.052216e-03	0.000000e+00	
8.461538e-01	1.570790e-01	1.225046e+00	4.166516e+01	3.644538e+00	2.540140e+05	1.013200e+05	2.881199e+02	1.003322e-01	-7.049368e-03	0.000000e+00	
9.086548e-01	8.884445e-02	1.225046e+00	4.166509e+01	3.644758e+00	2.540140e+05	1.013200e+05	2.881199e+02	1.003321e-01	-7.052958e-03	0.000000e+00	
9.434181e-01	2.298177e-02	1.225046e+00	4.166492e+01	3.644877e+00	2.540140e+05	1.013200e+05	2.881199e+02	1.003317e-01	-7.049382e-03	0.000000e+00	
9.538483e-01	-3.783423e-02	1.225045e+00	4.166487e+01	3.644965e+00	2.540139e+05	1.013200e+05	2.881199e+02	1.003316e-01	-7.056642e-03	0.000000e+00	
1.000000e+00	-7.853950e-02	1.225045e+00	4.166493e+01	3.645095e+00	2.540139e+05	1.013200e+05	2.881199e+02	1.003318e-01	-7.054025e-03	0.000000e+00	
9.230769e-01	1.570790e-01	1.225046e+00	4.166507e+01	3.644897e+00	2.540140e+05	1.013200e+05	2.881199e+02	1.003321e-01	-7.049251e-03	0.000000e+00	
1.000000e+00	7.853950e-02	1.225045e+00	4.166501e+01	3.645054e+00	2.540139e+05	1.013200e+05	2.881199e+02	1.003320e-01	-7.054597e-03	0.000000e+00	
1.000000e+00	0.000000e+00	1.225045e+00	4.166492e+01	3.645047e+00	2.540139e+05	1.013200e+05	2.881199e+02	1.003318e-01	-7.053585e-03	0.000000e+00	
1.000000e+00	1.570790e-01	1.225046e+00	4.166501e+01	3.645093e+00	2.540140e+05	1.013200e+05	2.881199e+02	1.003320e-01	-7.051246e-03	0.000000e+00	
0.000000e+00	-1.570790e-01	1.225089e+00	4.167660e+01	5.700389e-01	2.540215e+05	1.013250e+05	2.881239e+02	9.998315e-02	-3.718441e-05	0.000000e+00	
7.692308e-02	-1.570790e-01	1.225083e+00	4.166255e+01	1.929055e+00	2.540205e+05	1.013242e+05	2.881232e+02	1.000478e-01	-1.076233e-03	0.000000e+00	
1.538462e-01	-1.570790e-01	1.225077e+00	4.165574e+01	2.824758e+00	2.540198e+05	1.013233e+05	2.881220e+02	1.001546e-01	-2.361037e-03	0.000000e+00	
2.307692e-01	-1.570790e-01	1.225067e+00	4.166541e+01	3.258156e+00	2.540182e+05	1.013221e+05	2.881208e+02	1.002544e-01	-4.049716e-03	0.000000e+00	
3.076923e-01	-1.570790e-01	1.225053e+00	4.166793e+01	3.468588e+00	2.540155e+05	1.013208e+05	2.881203e+02	1.003022e-01	-5.956902e-03	0.000000e+00	
3.846154e-01	-1.570790e-01	1.225050e+00	4.166748e+01	3.564020e+00	2.540148e+05	1.013204e+05	2.881201e+02	1.003208e-01	-6.498896e-03	0.000000e+00	
4.615385e-01	-1.570790e-01	1.225047e+00	4.166675e+01	3.608506e+00	2.540143e+05	1.013202e+05	2.881200e+02	1.003284e-01	-6.803758e-03	0.000000e+00	
5.384615e-01	-1.570790e-01	1.225046e+00	4.166620e+01	3.628537e+00	2.540141e+05	1.013201e+05	2.881199e+02	1.003313e-01	-6.944403e-03	0.000000e+00	
6.153846e-01	-1.570790e-01	1.225046e+00	4.166574e+01	3.637709e+00	2.540141e+05	1.013200e+05	2.881199e+02	1.003322e-01	-6.996915e-03	0.000000e+00	
6.923077e-01	-1.570790e-01	1.225046e+00	4.166547e+01	3.641834e+00	2.540140e+05	1.013200e+05	2.881199e+02	1.003324e-01	-7.029257e-03	0.000000e+00	
7.692308e-01	-1.570790e-01	1.225046e+00	4.166529e+01	3.643704e+00	2.540140e+05	1.013200e+05	2.881199e+02	1.003324e-01	-7.039450e-03	0.000000e+00	
8.461538e-01	-1.570790e-01	1.225046e+00	4.166516e+01	3.644538e+00	2.540140e+05	1.013200e+05	2.881199e+02	1.003322e-01	-7.049368e-03	0.000000e+00	
1.000000e+00	-1.570790e-01	1.225046e+00	4.166501e+01	3.645093e+00	2.540140e+05	1.013200e+05	2.881199e+02	1.003320e-01	-7.051246e-03	0.000000e+00	
9.230769e-01	-1.570790e-01	1.225046e+00	4.166507e+01	3.644897e+00	2.540140e+05	1.013200e+05	2.881199e+02	1.003321e-01	-7.049251e-03	0.000000e+00	
71	72	1	1
72	2	1	1
1	2	3	3
72	73	2	2
2	4	3	3
1	3	5	5
6	2	73	73
4	7	3	3
6	4	2	2
5	3	8	8
74	6	73	73
8	3	7	7
4	9	7	7
6	10	4	4
5	8	11	11
6	74	12	12
8	7	13	13
14	7	9	9
10	9	4	4
6	12	10	10
8	13	11	11
12	74	75	75
14	13	7	7
15	14	9	9
10	16	9	9
12	17	10	10
11	13	18	18
19	12	75	75
14	20	13	13
9	16	15	15
15	21	14	14
16	10	17	17
19	17	12	12
13	20	18	18
76	19	75	75
21	20	14	14
16	22	15	15
23	21	15	15
16	17	24	24
25	17	19	19
76	26	19	19
15	22	23	23
24	22	16	16
25	24	17	17
26	25	19	19
77	26	76	76
22	27	23	23
24	28	22	22
29	24	25	25
30	25	26	26
77	31	26	26
22	28	27	27
28	24	29	29
30	29	25	25
31	30	26	26
31	77	78	78
28	32	27	27
28	29	33	33
34	29	30	30
35	30	31	31
31	78	36	36
33	32	28	28
33	29	34	34
30	35	34	34
35	31	36	36
36	78	79	79
37	32	33	33
33	34	38	38
35	39	34	34
35	36	40	40
41	36	79	79
38	37	33	33
38	34	39	39
40	39	35	35
41	40	36	36
80	41	79	79
42	37	38	38
38	39	43	43
44	39	40	40
45	40	41	41
46	41	80	80
43	42	38	38
44	43	39	39
45	44	40	40
46	45	41	41
81	46	80	80
47	42	43	43
48	43	44	44
49	44	45	45
50	45	46	46
81	51	46	46
43	48	47	47
49	48	44	44
50	49	45	45
51	50	46	46
82	51	81	81
48	52	47	47
53	48	49	49
54	49	50	50
55	50	51	51
82	56	51	51
48	53	52	52
54	53	49	49
55	54	50	50
56	55	51	51
82	84	56	56
53	57	52	52
58	53	54	54
59	54	55	55
56	60	55	55
56	84	61	61
53	58	57	57
59	58	54	54
55	60	59	59
56	61	60	60
61	84	83	83
58	62	57	57
63	58	59	59
60	64	59	59
60	61	65	65
66	61	83	83
58	63	62	62
64	63	59	59
65	64	60	60
65	61	66	66
63	67	62	62
68	63	64	64
69	64	65	65
69	65	66	66
68	67	63	63
68	64	69	69
68	70	67	67
