TITLE = "Visualization of the volumetric solution"
VARIABLES = "x","y","Density","Momentum_x","Momentum_y","Energy","Pressure","Temperature","Mach","C<sub>p</sub>","Roe_Dissipation"
ZONE NODES= 164, ELEMENTS= 264, DATAPACKING=POINT, ZONETYPE=FEQUADRILATERAL
1.000000e+00	-7.853950e-02	1.225045e+00	4.166494e+01	3.645098e+00	2.540139e+05	1.013200e+05	2.881199e+02	1.003318e-01	-7.053134e-03	0.000000e+00	
1.095419e+00	-8.752320e-02	1.225045e+00	4.166496e+01	3.645083e+00	2.540139e+05	1.013200e+05	2.881199e+02	1.003319e-01	-7.052841e-03	0.000000e+00	
1.063435e+00	-2.263003e-02	1.225046e+00	4.166493e+01	3.645071e+00	2.540140e+05	1.013200e+05	2.881199e+02	1.003318e-01	-7.050269e-03	0.000000e+00	
1.130658e+00	-2.336608e-02	1.225045e+00	4.166495e+01	3.645071e+00	2.540139e+05	1.013200e+05	2.881199e+02	1.003319e-01	-7.052903e-03	0.000000e+00	
1.000000e+00	0.000000e+00	1.225045e+00	4.166492e+01	3.645049e+00	2.540139e+05	1.013200e+05	2.881199e+02	1.003318e-01	-7.053840e-03	0.000000e+00	
1.173697e+00	-8.974746e-02	1.225046e+00	4.166496e+01	3.645078e+00	2.540140e+05	1.013200e+05	2.881199e+02	1.003319e-01	-7.051926e-03	0.000000e+00	
1.092847e+00	5.483058e-02	1.225046e+00	4.166497e+01	3.645063e+00	2.540140e+05	1.013200e+05	2.881199e+02	1.003319e-01	-7.052363e-03	0.000000e+00	
1.166411e+00	2.584065e-02	1.225046e+00	4.166496e+01	3.645068e+00	2.540140e+05	1.013200e+05	2.881199e+02	1.003319e-01	-7.051560e-03	0.000000e+00	
1.207534e+00	-3.250741e-02	1.225046e+00	4.166496e+01	3.645072e+00	2.540140e+05	1.013200e+05	2.881199e+02	1.003319e-01	-7.051944e-03	0.000000e+00	
1.000000e+00	7.853950e-02	1.225046e+00	4.166501e+01	3.645050e+00	2.540140e+05	1.013200e+05	2.881199e+02	1.003320e-01	-7.050086e-03	0.000000e+00	
1.250464e+00	-9.192216e-02	1.225046e+00	4.166497e+01	3.645075e+00	2.540140e+05	1.013200e+05	2.881199e+02	1.003319e-01	-7.052216e-03	0.000000e+00	
1.185907e+00	8.634450e-02	1.225045e+00	4.166497e+01	3.645070e+00	2.540139e+05	1.013200e+05	2.881199e+02	1.003319e-01	-7.052999e-03	0.000000e+00	
1.074074e+00	1.570790e-01	1.225046e+00	4.166500e+01	3.645085e+00	2.540140e+05	1.013200e+05	2.881199e+02	1.003320e-01	-7.052279e-03	0.000000e+00	
1.237924e+00	2.869018e-02	1.225046e+00	4.166496e+01	3.645071e+00	2.540140e+05	1.013200e+05	2.881199e+02	1.003319e-01	-7.052117e-03	0.000000e+00	
1.148148e+00	1.570790e-01	1.225046e+00	4.166498e+01	3.645076e+00	2.540140e+05	1.013200e+05	2.881199e+02	1.003319e-01	-7.051983e-03	0.000000e+00	
1.281886e+00	-3.219910e-02	1.225046e+00	4.166496e+01	3.645073e+00	2.540140e+05	1.013200e+05	2.881199e+02	1.003319e-01	-7.052183e-03	0.000000e+00	
1.000000e+00	1.570790e-01	1.225046e+00	4.166501e+01	3.645097e+00	2.540140e+05	1.013200e+05	2.881199e+02	1.003320e-01	-7.048440e-03	0.000000e+00	
1.325123e+00	-9.195306e-02	1.225046e+00	4.166497e+01	3.645074e+00	2.540140e+05	1.013200e+05	2.881199e+02	1.003319e-01	-7.051946e-03	0.000000e+00	
1.267384e+00	9.404903e-02	1.225046e+00	4.166497e+01	3.645071e+00	2.540140e+05	1.013200e+05	2.881199e+02	1.003319e-01	-7.051883e-03	0.000000e+00	
1.222222e+00	1.570790e-01	1.225046e+00	4.166497e+01	3.645073e+00	2.540140e+05	1.013200e+05	2.881199e+02	1.003319e-01	-7.052025e-03	0.000000e+00	
1.311853e+00	3.063981e-02	1.225046e+00	4.166497e+01	3.645071e+00	2.540140e+05	1.013200e+05	2.881199e+02	1.003319e-01	-7.052006e-03	0.000000e+00	
1.355680e+00	-3.156368e-02	1.225046e+00	4.166497e+01	3.645073e+00	2.540140e+05	1.013200e+05	2.881199e+02	1.003319e-01	-7.051957e-03	0.000000e+00	
1.399110e+00	-9.181001e-02	1.225046e+00	4.166497e+01	3.645073e+00	2.540140e+05	1.013200e+05	2.881199e+02	1.003319e-01	-7.051964e-03	0.000000e+00	
1.340998e+00	9.556763e-02	1.225046e+00	4.166497e+01	3.645072e+00	2.540140e+05	1.013200e+05	2.881199e+02	1.003319e-01	-7.052104e-03	0.000000e+00	
1.296296e+00	1.570790e-01	1.225046e+00	4.166497e+01	3.645073e+00	2.540140e+05	1.013200e+05	2.881199e+02	1.003319e-01	-7.052071e-03	0.000000e+00	
1.385471e+00	3.108976e-02	1.225046e+00	4.166497e+01	3.645072e+00	2.540140e+05	1.013200e+05	2.881199e+02	1.003319e-01	-7.051948e-03	0.000000e+00	
1.429432e+00	-3.135691e-02	1.225046e+00	4.166497e+01	3.645073e+00	2.540140e+05	1.013200e+05	2.881199e+02	1.003319e-01	-7.051921e-03	0.000000e+00	
1.473029e+00	-9.179916e-02	1.225046e+00	4.166497e+01	3.645073e+00	2.540140e+05	1.013200e+05	2.881199e+02	1.003319e-01	-7.051841e-03	0.000000e+00	
1.415119e+00	9.582580e-02	1.225046e+00	4.166497e+01	3.645072e+00	2.540140e+05	1.013200e+05	2.881199e+02	1.003319e-01	-7.051888e-03	0.000000e+00	
1.370370e+00	1.570790e-01	1.225046e+00	4.166497e+01	3.645073e+00	2.540140e+05	1.013200e+05	2.881199e+02	1.003319e-01	-7.051964e-03	0.000000e+00	
1.459389e+00	3.120457e-02	1.225046e+00	4.166497e+01	3.645072e+00	2.540140e+05	1.013200e+05	2.881199e+02	1.003319e-01	-7.051875e-03	0.000000e+00	
1.503356e+00	-3.130130e-02	1.225046e+00	4.166497e+01	3.645073e+00	2.540140e+05	1.013200e+05	2.881199e+02	1.003319e-01	-7.051817e-03	0.000000e+00	
1.547021e+00	-9.184625e-02	1.225046e+00	4.166497e+01	3.645073e+00	2.540140e+05	1.013200e+05	2.881199e+02	1.003319e-01	-7.051774e-03	0.000000e+00	
1.489212e+00	9.580596e-02	1.225046e+00	4.166497e+01	3.645072e+00	2.540140e+05	1.013200e+05	2.881199e+02	1.003319e-01	-7.051851e-03	0.000000e+00	
1.444444e+00	1.570790e-01	1.225046e+00	4.166497e+01	3.645073e+00	2.540140e+05	1.013200e+05	2.881199e+02	1.003319e-01	-7.051894e-03	0.000000e+00	
1.533429e+00	3.123496e-02	1.225046e+00	4.166497e+01	3.645072e+00	2.540140e+05	1.013200e+05	2.881199e+02	1.003319e-01	-7.051784e-03	0.000000e+00	
1.577390e+00	-3.128163e-02	1.225046e+00	4.166497e+01	3.645072e+00	2.540140e+05	1.013200e+05	2.881199e+02	1.003319e-01	-7.051736e-03	0.000000e+00	
1.621065e+00	-9.190592e-02	1.225046e+00	4.166497e+01	3.645073e+00	2.540140e+05	1.013200e+05	2.881199e+02	1.003319e-01	-7.051676e-03	0.000000e+00	
1.563293e+00	9.572600e-02	1.225046e+00	4.166497e+01	3.645072e+00	2.540140e+05	1.013200e+05	2.881199e+02	1.003319e-01	-7.051744e-03	0.000000e+00	
1.518519e+00	1.570790e-01	1.225046e+00	4.166497e+01	3.645073e+00	2.540140e+05	1.013200e+05	2.881199e+02	1.003319e-01	-7.051806e-03	0.000000e+00	
1.607506e+00	3.124446e-02	1.225046e+00	4.166497e+01	3.645072e+00	2.540140e+05	1.013200e+05	2.881199e+02	1.003319e-01	-7.051698e-03	0.000000e+00	
1.651461e+00	-3.127353e-02	1.225046e+00	4.166497e+01	3.645072e+00	2.540140e+05	1.013200e+05	2.881199e+02	1.003319e-01	-7.051641e-03	0.000000e+00	
1.695126e+00	-9.197001e-02	1.225046e+00	4.166497e+01	3.645073e+00	2.540140e+05	1.013200e+05	2.881199e+02	1.003319e-01	-7.051585e-03	0.000000e+00	
1.637355e+00	9.563475e-02	1.225046e+00	4.166497e+01	3.645072e+00	2.540140e+05	1.013200e+05	2.881199e+02	1.003319e-01	-7.051660e-03	0.000000e+00	
1.592593e+00	1.570790e-01	1.225046e+00	4.166497e+01	3.645072e+00	2.540140e+05	1.013200e+05	2.881199e+02	1.003319e-01	-7.051717e-03	0.000000e+00	
1.681565e+00	3.123330e-02	1.225046e+00	4.166497e+01	3.645072e+00	2.540140e+05	1.013200e+05	2.881199e+02	1.003319e-01	-7.051602e-03	0.000000e+00	
1.725535e+00	-3.128594e-02	1.225046e+00	4.166497e+01	3.645072e+00	2.540140e+05	1.013200e+05	2.881199e+02	1.003319e-01	-7.051547e-03	0.000000e+00	
1.769187e+00	-9.204024e-02	1.225046e+00	4.166497e+01	3.645073e+00	2.540140e+05	1.013200e+05	2.881199e+02	1.003319e-01	-7.051486e-03	0.000000e+00	
1.711331e+00	9.556919e-02	1.225046e+00	4.166497e+01	3.645072e+00	2.540140e+05	1.013200e+05	2.881199e+02	1.003319e-01	-7.051563e-03	0.000000e+00	
1.666667e+00	1.570790e-01	1.225046e+00	4.166497e+01	3.645072e+00	2.540140e+05	1.013200e+05	2.881199e+02	1.003319e-01	-7.051625e-03	0.000000e+00	
1.755613e+00	3.114021e-02	1.225046e+00	4.166497e+01	3.645072e+00	2.540140e+05	1.013200e+05	2.881199e+02	1.003319e-01	-7.051506e-03	0.000000e+00	
1.799607e+00	-3.131599e-02	1.225046e+00	4.166497e+01	3.645073e+00	2.540140e+05	1.013200e+05	2.881199e+02	1.003319e-01	-7.051447e-03	0.000000e+00	
1.843248e+00	-9.211020e-02	1.225046e+00	4.166497e+01	3.645073e+00	2.540140e+05	1.013200e+05	2.881199e+02	1.003319e-01	-7.051386e-03	0.000000e+00	
1.785492e+00	9.562469e-02	1.225046e+00	4.166497e+01	3.645072e+00	2.540140e+05	1.013200e+05	2.881199e+02	1.003319e-01	-7.051466e-03	0.000000e+00	
1.740741e+00	1.570790e-01	1.225046e+00	4.166497e+01	3.645072e+00	2.540140e+05	1.013200e+05	2.881199e+02	1.003319e-01	-7.051528e-03	0.000000e+00	
1.829711e+00	3.107266e-02	1.225046e+00	4.166497e+01	3.645073e+00	2.540140e+05	1.013200e+05	2.881199e+02	1.003319e-01	-7.051406e-03	0.000000e+00	
1.873699e+00	-3.133302e-02	1.225046e+00	4.166497e+01	3.645073e+00	2.540140e+05	1.013200e+05	2.881199e+02	1.003319e-01	-7.051346e-03	0.000000e+00	
1.917315e+00	-9.216628e-02	1.225046e+00	4.166497e+01	3.645073e+00	2.540140e+05	1.013200e+05	2.881199e+02	1.003319e-01	-7.051282e-03	0.000000e+00	
1.859600e+00	9.573974e-02	1.225046e+00	4.166497e+01	3.645073e+00	2.540140e+05	1.013200e+05	2.881199e+02	1.003319e-01	-7.051364e-03	0.000000e+00	
1.814815e+00	1.570790e-01	1.225046e+00	4.166497e+01	3.645073e+00	2.540140e+05	1.013200e+05	2.881199e+02	1.003319e-01	-7.051429e-03	0.000000e+00	
1.903842e+00	3.102590e-02	1.225046e+00	4.166497e+01	3.645073e+00	2.540140e+05	1.013200e+05	2.881199e+02	1.003319e-01	-7.051303e-03	0.000000e+00	
1.947814e+00	-3.131373e-02	1.225046e+00	4.166497e+01	3.645073e+00	2.540140e+05	1.013200e+05	2.881199e+02	1.003319e-01	-7.051240e-03	0.000000e+00	
1.991381e+00	-9.219495e-02	1.225046e+00	4.166497e+01	3.645073e+00	2.540140e+05	1.013200e+05	2.881199e+02	1.003319e-01	-7.051175e-03	0.000000e+00	
1.933761e+00	9.584553e-02	1.225046e+00	4.166497e+01	3.645073e+00	2.540140e+05	1.013200e+05	2.881199e+02	1.003319e-01	-7.051260e-03	0.000000e+00	
1.888889e+00	1.570790e-01	1.225046e+00	4.166497e+01	3.645073e+00	2.540140e+05	1.013200e+05	2.881199e+02	1.003319e-01	-7.051326e-03	0.000000e+00	
1.978063e+00	3.104783e-02	1.225046e+00	4.166497e+01	3.645073e+00	2.540140e+05	1.013200e+05	2.881199e+02	1.003319e-01	-7.051196e-03	0.000000e+00	
2.021911e+00	-3.121715e-02	1.225046e+00	4.166497e+01	3.645073e+00	2.540140e+05	1.013200e+05	2.881199e+02	1.003319e-01	-7.051133e-03	0.000000e+00	
2.065434e+00	-9.219529e-02	1.225046e+00	4.166497e+01	3.645073e+00	2.540140e+05	1.013200e+05	2.881199e+02	1.003319e-01	-7.051066e-03	0.000000e+00	
2.008250e+00	9.579402e-02	1.225046e+00	4.166497e+01	3.645073e+00	2.540140e+05	1.013200e+05	2.881199e+02	1.003319e-01	-7.051152e-03	0.000000e+00	
1.962963e+00	1.570790e-01	1.225046e+00	4.166497e+01	3.645073e+00	2.540140e+05	1.013200e+05	2.881199e+02	1.003319e-01	-7.051221e-03	0.000000e+00	
2.052196e+00	3.141058e-02	1.225046e+00	4.166497e+01	3.645073e+00	2.540140e+05	1.013200e+05	2.881199e+02	1.003319e-01	-7.051087e-03	0.000000e+00	
2.095948e+00	-3.109406e-02	1.225046e+00	4.166497e+01	3.645073e+00	2.540140e+05	1.013200e+05	2.881199e+02	1.003319e-01	-7.051022e-03	0.000000e+00	
2.139452e+00	-9.219726e-02	1.225046e+00	4.166497e+01	3.645073e+00	2.540140e+05	1.013200e+05	2.881199e+02	1.003319e-01	-7.050954e-03	0.000000e+00	
2.081501e+00	9.520543e-02	1.225046e+00	4.166497e+01	3.645073e+00	2.540140e+05	1.013200e+05	2.881199e+02	1.003319e-01	-7.051043e-03	0.000000e+00	
2.037037e+00	1.570790e-01	1.225046e+00	4.166497e+01	3.645073e+00	2.540140e+05	1.013200e+05	2.881199e+02	1.003319e-01	-7.051112e-03	0.000000e+00	
2.125986e+00	3.135696e-02	1.225046e+00	4.166497e+01	3.645073e+00	2.540140e+05	1.013200e+05	2.881199e+02	1.003319e-01	-7.050976e-03	0.000000e+00	
2.169880e+00	-3.105053e-02	1.225046e+00	4.166497e+01	3.645073e+00	2.540140e+05	1.013200e+05	2.881199e+02	1.003319e-01	-7.050909e-03	0.000000e+00	
2.213403e+00	-9.220528e-02	1.225046e+00	4.166497e+01	3.645073e+00	2.540140e+05	1.013200e+05	2.881199e+02	1.003319e-01	-7.050840e-03	0.000000e+00	
2.155725e+00	9.492691e-02	1.225046e+00	4.166497e+01	3.645073e+00	2.540140e+05	1.013200e+05	2.881199e+02	1.003319e-01	-7.050930e-03	0.000000e+00	
2.111111e+00	1.570790e-01	1.225046e+00	4.166497e+01	3.645073e+00	2.540140e+05	1.013200e+05	2.881199e+02	1.003319e-01	-7.051001e-03	0.000000e+00	
2.199915e+00	3.137420e-02	1.225046e+00	4.166497e+01	3.645073e+00	2.540140e+05	1.013200e+05	2.881199e+02	1.003319e-01	-7.050863e-03	0.000000e+00	
2.243695e+00	-3.096917e-02	1.225046e+00	4.166497e+01	3.645073e+00	2.540140e+05	1.013200e+05	2.881199e+02	1.003319e-01	-7.050795e-03	0.000000e+00	
2.287213e+00	-9.219314e-02	1.225046e+00	4.166497e+01	3.645073e+00	2.540140e+05	1.013200e+05	2.881199e+02	1.003319e-01	-7.050724e-03	0.000000e+00	
2.229656e+00	9.480171e-02	1.225046e+00	4.166497e+01	3.645073e+00	2.540140e+05	1.013200e+05	2.881199e+02	1.003319e-01	-7.050816e-03	0.000000e+00	
2.185185e+00	1.570790e-01	1.225046e+00	4.166497e+01	3.645073e+00	2.540140e+05	1.013200e+05	2.881199e+02	1.003319e-01	-7.050887e-03	0.000000e+00	
2.273599e+00	3.146972e-02	1.225046e+00	4.166497e+01	3.645073e+00	2.540140e+05	1.013200e+05	2.881199e+02	1.003319e-01	-7.050747e-03	0.000000e+00	
2.317168e+00	-3.082151e-02	1.225046e+00	4.166497e+01	3.645073e+00	2.540140e+05	1.013200e+05	2.881199e+02	1.003319e-01	-7.050678e-03	0.000000e+00	
2.360718e+00	-9.215774e-02	1.225046e+00	4.166497e+01	3.645073e+00	2.540140e+05	1.013200e+05	2.881199e+02	1.003319e-01	-7.050607e-03	0.000000e+00	
2.303361e+00	9.478372e-02	1.225046e+00	4.166497e+01	3.645073e+00	2.540140e+05	1.013200e+05	2.881199e+02	1.003319e-01	-7.050699e-03	0.000000e+00	
2.259259e+00	1.570790e-01	1.225046e+00	4.166497e+01	3.645073e+00	2.540140e+05	1.013200e+05	2.881199e+02	1.003319e-01	-7.050772e-03	0.000000e+00	
2.346815e+00	3.171299e-02	1.225046e+00	4.166497e+01	3.645073e+00	2.540140e+05	1.013200e+05	2.881199e+02	1.003319e-01	-7.050630e-03	0.000000e+00	
2.389977e+00	-3.054598e-02	1.225046e+00	4.166497e+01	3.645073e+00	2.540140e+05	1.013200e+05	2.881199e+02	1.003319e-01	-7.050561e-03	0.000000e+00	
2.433621e+00	-9.210847e-02	1.225046e+00	4.166497e+01	3.645073e+00	2.540140e+05	1.013200e+05	2.881199e+02	1.003319e-01	-7.050488e-03	0.000000e+00	
2.376717e+00	9.493329e-02	1.225046e+00	4.166497e+01	3.645073e+00	2.540140e+05	1.013200e+05	2.881199e+02	1.003319e-01	-7.050581e-03	0.000000e+00	
2.333333e+00	1.570790e-01	1.225046e+00	4.166497e+01	3.645073e+00	2.540140e+05	1.013200e+05	2.881199e+02	1.003319e-01	-7.050654e-03	0.000000e+00	
2.419269e+00	3.226480e-02	1.225046e+00	4.166497e+01	3.645073e+00	2.540140e+05	1.013200e+05	2.881199e+02	1.003319e-01	-7.050513e-03	0.000000e+00	
2.461622e+00	-2.996669e-02	1.225046e+00	4.166497e+01	3.645073e+00	2.540140e+05	1.013200e+05	2.881199e+02	1.003319e-01	-7.050443e-03	0.000000e+00	
2.505316e+00	-9.205539e-02	1.225046e+00	4.166497e+01	3.645073e+00	2.540140e+05	1.013200e+05	2.881199e+02	1.003319e-01	-7.050369e-03	0.000000e+00	
2.449625e+00	9.538854e-02	1.225046e+00	4.166497e+01	3.645073e+00	2.540140e+05	1.013200e+05	2.881199e+02	1.003319e-01	-7.050462e-03	0.000000e+00	
2.407407e+00	1.570790e-01	1.225046e+00	4.166497e+01	3.645073e+00	2.540140e+05	1.013200e+05	2.881199e+02	1.003319e-01	-7.050534e-03	0.000000e+00	
2.490728e+00	3.346082e-02	1.225046e+00	4.166497e+01	3.645073e+00	2.540140e+05	1.013200e+05	2.881199e+02	1.003319e-01	-7.050394e-03	0.000000e+00	
2.531384e+00	-2.846420e-02	1.225046e+00	4.166497e+01	3.645073e+00	2.540140e+05	1.013200e+05	2.881199e+02	1.003319e-01	-7.050329e-03	0.000000e+00	
2.574304e+00	-9.165277e-02	1.225046e+00	4.166497e+01	3.645073e+00	2.540140e+05	1.013200e+05	2.881199e+02	1.003319e-01	-7.050251e-03	0.000000e+00	
2.522230e+00	9.624477e-02	1.225046e+00	4.166497e+01	3.645073e+00	2.540140e+05	1.013200e+05	2.881199e+02	1.003319e-01	-7.050340e-03	0.000000e+00	
2.481481e+00	1.570790e-01	1.225046e+00	4.166497e+01	3.645073e+00	2.540140e+05	1.013200e+05	2.881199e+02	1.003319e-01	-7.050411e-03	0.000000e+00	
2.561508e+00	3.566133e-02	1.225046e+00	4.166497e+01	3.645073e+00	2.540140e+05	1.013200e+05	2.881199e+02	1.003319e-01	-7.050275e-03	0.000000e+00	
2.598812e+00	-2.417342e-02	1.225046e+00	4.166497e+01	3.645073e+00	2.540140e+05	1.013200e+05	2.881199e+02	1.003319e-01	-7.050212e-03	0.000000e+00	
2.632415e+00	-8.271412e-02	1.225046e+00	4.166497e+01	3.645073e+00	2.540140e+05	1.013200e+05	2.881199e+02	1.003319e-01	-7.050153e-03	0.000000e+00	
2.595150e+00	9.700674e-02	1.225046e+00	4.166497e+01	3.645073e+00	2.540140e+05	1.013200e+05	2.881199e+02	1.003319e-01	-7.050215e-03	0.000000e+00	
2.555556e+00	1.570790e-01	1.225046e+00	4.166497e+01	3.645073e+00	2.540140e+05	1.013200e+05	2.881199e+02	1.003319e-01	-7.050286e-03	0.000000e+00	
2.691236e+00	-9.131523e-02	1.225046e+00	4.166497e+01	3.645073e+00	2.540140e+05	1.013200e+05	2.881199e+02	1.003319e-01	-7.050055e-03	0.000000e+00	
2.633420e+00	3.696402e-02	1.225046e+00	4.166497e+01	3.645073e+00	2.540140e+05	1.013200e+05	2.881199e+02	1.003319e-01	-7.050152e-03	0.000000e+00	
2.668774e+00	-2.396161e-02	1.225046e+00	4.166497e+01	3.645073e+00	2.540140e+05	1.013200e+05	2.881199e+02	1.003319e-01	-7.050092e-03	0.000000e+00	
2.668787e+00	9.670664e-02	1.225046e+00	4.166497e+01	3.645073e+00	2.540140e+05	1.013200e+05	2.881199e+02	1.003319e-01	-7.050095e-03	0.000000e+00	
2.629630e+00	1.570790e-01	1.225046e+00	4.166497e+01	3.645073e+00	2.540140e+05	1.013200e+05	2.881199e+02	1.003319e-01	-7.050158e-03	0.000000e+00	
2.763717e+00	-9.148834e-02	1.225046e+00	4.166497e+01	3.645073e+00	2.540140e+05	1.013200e+05	2.881199e+02	1.003319e-01	-7.049929e-03	0.000000e+00	
2.738661e+00	-2.830923e-02	1.225046e+00	4.166497e+01	3.645073e+00	2.540140e+05	1.013200e+05	2.881199e+02	1.003319e-01	-7.049970e-03	0.000000e+00	
2.706134e+00	3.552455e-02	1.225046e+00	4.166497e+01	3.645073e+00	2.540140e+05	1.013200e+05	2.881199e+02	1.003319e-01	-7.050025e-03	0.000000e+00	
2.742845e+00	9.557913e-02	1.225046e+00	4.166497e+01	3.645073e+00	2.540140e+05	1.013200e+05	2.881199e+02	1.003319e-01	-7.049967e-03	0.000000e+00	
2.703704e+00	1.570790e-01	1.225046e+00	4.166497e+01	3.645073e+00	2.540140e+05	1.013200e+05	2.881199e+02	1.003319e-01	-7.050032e-03	0.000000e+00	
2.842213e+00	-9.137581e-02	1.225046e+00	4.166497e+01	3.645073e+00	2.540140e+05	1.013200e+05	2.881199e+02	1.003319e-01	-7.049799e-03	0.000000e+00	
2.813531e+00	-2.984436e-02	1.225046e+00	4.166497e+01	3.645073e+00	2.540140e+05	1.013200e+05	2.881199e+02	1.003319e-01	-7.049845e-03	0.000000e+00	
2.779548e+00	3.309756e-02	1.225046e+00	4.166497e+01	3.645073e+00	2.540140e+05	1.013200e+05	2.881199e+02	1.003319e-01	-7.049908e-03	0.000000e+00	
2.777778e+00	1.570790e-01	1.225046e+00	4.166497e+01	3.645073e+00	2.540140e+05	1.013200e+05	2.881199e+02	1.003319e-01	-7.049905e-03	0.000000e+00	
2.818111e+00	9.446127e-02	1.225046e+00	4.166497e+01	3.645073e+00	2.540140e+05	1.013200e+05	2.881199e+02	1.003319e-01	-7.049844e-03	0.000000e+00	
2.926149e+00	-9.510042e-02	1.225046e+00	4.166497e+01	3.645073e+00	2.540140e+05	1.013200e+05	2.881199e+02	1.003319e-01	-7.049667e-03	0.000000e+00	
2.891751e+00	-2.869362e-02	1.225046e+00	4.166497e+01	3.645073e+00	2.540140e+05	1.013200e+05	2.881199e+02	1.003319e-01	-7.049723e-03	0.000000e+00	
2.853331e+00	3.226088e-02	1.225046e+00	4.166497e+01	3.645073e+00	2.540140e+05	1.013200e+05	2.881199e+02	1.003319e-01	-7.049768e-03	0.000000e+00	
2.851852e+00	1.570790e-01	1.225046e+00	4.166497e+01	3.645073e+00	2.540140e+05	1.013200e+05	2.881199e+02	1.003319e-01	-7.049779e-03	0.000000e+00	
2.895618e+00	9.382464e-02	1.225046e+00	4.166497e+01	3.645073e+00	2.540140e+05	1.013200e+05	2.881199e+02	1.003319e-01	-7.049717e-03	0.000000e+00	
3.000000e+00	0.000000e+00	1.225046e+00	4.166497e+01	3.645073e+00	2.540140e+05	1.013200e+05	2.881199e+02	1.003319e-01	-7.049529e-03	0.000000e+00	
2.928015e+00	3.468499e-02	1.225046e+00	4.166497e+01	3.645073e+00	2.540140e+05	1.013200e+05	2.881199e+02	1.003319e-01	-7.049669e-03	0.000000e+00	
3.000000e+00	-7.853950e-02	1.225046e+00	4.166497e+01	3.645073e+00	2.540140e+05	1.013200e+05	2.881199e+02	1.003319e-01	-7.049530e-03	0.000000e+00	
2.925926e+00	1.570790e-01	1.225046e+00	4.166497e+01	3.645073e+00	2.540140e+05	1.013200e+05	2.881199e+02	1.003319e-01	-7.049661e-03	0.000000e+00	
3.000000e+00	7.853950e-02	1.225046e+00	4.166497e+01	3.645073e+00	2.540140e+05	1.013200e+05	2.881199e+02	1.003319e-01	-7.049532e-03	0.000000e+00	
3.000000e+00	1.570790e-01	1.225046e+00	4.166497e+01	3.645073e+00	2.540140e+05	1.013200e+05	2.881199e+02	1.003319e-01	-7.049545e-03	0.000000e+00	
1.000000e+00	-1.570790e-01	1.225046e+00	4.166501e+01	3.645097e+00	2.540140e+05	1.013200e+05	2.881199e+02	1.003320e-01	-7.048440e-03	0.000000e+00	
1.074074e+00	-1.570790e-01	1.225046e+00	4.166500e+01	3.645085e+00	2.540140e+05	1.013200e+05	2.881199e+02	1.003320e-01	-7.052279e-03	0.000000e+00	
1.148148e+00	-1.570790e-01	1.225046e+00	4.166498e+01	3.645076e+00	2.540140e+05	1.013200e+05	2.881199e+02	1.003319e-01	-7.051983e-03	0.000000e+00	
1.222222e+00	-1.570790e-01	1.225046e+00	4.166497e+01	3.645073e+00	2.540140e+05	1.013200e+05	2.881199e+02	1.003319e-01	-7.052025e-03	0.000000e+00	
1.296296e+00	-1.570790e-01	1.225046e+00	4.166497e+01	3.645073e+00	2.540140e+05	1.013200e+05	2.881199e+02	1.003319e-01	-7.052071e-03	0.000000e+00	
1.370370e+00	-1.570790e-01	1.225046e+00	4.166497e+01	3.645073e+00	2.540140e+05	1.013200e+05	2.881199e+02	1.003319e-01	-7.051964e-03	0.000000e+00	
1.444444e+00	-1.570790e-01	1.225046e+00	4.166497e+01	3.645073e+00	2.540140e+05	1.013200e+05	2.881199e+02	1.003319e-01	-7.051894e-03	0.000000e+00	
1.518519e+00	-1.570790e-01	1.225046e+00	4.166497e+01	3.645073e+00	2.540140e+05	1.013200e+05	2.881199e+02	1.003319e-01	-7.051806e-03	0.000000e+00	
1.592593e+00	-1.570790e-01	1.225046e+00	4.166497e+01	3.645072e+00	2.540140e+05	1.013200e+05	2.881199e+02	1.003319e-01	-7.051717e-03	0.000000e+00	
1.666667e+00	-1.570790e-01	1.225046e+00	4.166497e+01	3.645072e+00	2.540140e+05	1.013200e+05	2.881199e+02	1.003319e-01	-7.051625e-03	0.000000e+00	
1.740741e+00	-1.570790e-01	1.225046e+00	4.166497e+01	3.645072e+00	2.540140e+05	1.013200e+05	2.881199e+02	1.003319e-01	-7.051528e-03	0.000000e+00	
1.814815e+00	-1.570790e-01	1.225046e+00	4.166497e+01	3.645073e+00	2.540140e+05	1.013200e+05	2.881199e+02	1.003319e-01	-7.051429e-03	0.000000e+00	
1.888889e+00	-1.570790e-01	1.225046e+00	4.166497e+01	3.645073e+00	2.540140e+05	1.013200e+05	2.881199e+02	1.003319e-01	-7.051326e-03	0.000000e+00	
1.962963e+00	-1.570790e-01	1.225046e+00	4.166497e+01	3.645073e+00	2.540140e+05	1.013200e+05	2.881199e+02	1.003319e-01	-7.051221e-03	0.000000e+00	
2.037037e+00	-1.570790e-01	1.225046e+00	4.166497e+01	3.645073e+00	2.540140e+05	1.013200e+05	2.881199e+02	1.003319e-01	-7.051112e-03	0.000000e+00	
2.111111e+00	-1.570790e-01	1.225046e+00	4.166497e+01	3.645073e+00	2.540140e+05	1.013200e+05	2.881199e+02	1.003319e-01	-7.051001e-03	0.000000e+00	
2.185185e+00	-1.570790e-01	1.225046e+00	4.166497e+01	3.645073e+00	2.540140e+05	1.013200e+05	2.881199e+02	1.003319e-01	-7.050887e-03	0.000000e+00	
2.259259e+00	-1.570790e-01	1.225046e+00	4.166497e+01	3.645073e+00	2.540140e+05	1.013200e+05	2.881199e+02	1.003319e-01	-7.050772e-03	0.000000e+00	
2.333333e+00	-1.570790e-01	1.225046e+00	4.166497e+01	3.645073e+00	2.540140e+05	1.013200e+05	2.881199e+02	1.003319e-01	-7.050654e-03	0.000000e+00	
2.407407e+00	-1.570790e-01	1.225046e+00	4.166497e+01	3.645073e+00	2.540140e+05	1.013200e+05	2.881199e+02	1.003319e-01	-7.050534e-03	0.000000e+00	
2.481481e+00	-1.570790e-01	1.225046e+00	4.166497e+01	3.645073e+00	2.540140e+05	1.013200e+05	2.881199e+02	1.003319e-01	-7.050411e-03	0.000000e+00	
2.555556e+00	-1.570790e-01	1.225046e+00	4.166497e+01	3.645073e+00	2.540140e+05	1.013200e+05	2.881199e+02	1.003319e-01	-7.050286e-03	0.000000e+00	
2.629630e+00	-1.570790e-01	1.225046e+00	4.166497e+01	3.645073e+00	2.540140e+05	1.013200e+05	2.881199e+02	1.003319e-01	-7.050158e-03	0.000000e+00	
2.703704e+00	-1.570790e-01	1.225046e+00	4.166497e+01	3.645073e+00	2.540140e+05	1.013200e+05	2.881199e+02	1.003319e-01	-7.050032e-03	0.000000e+00	
2.777778e+00	-1.570790e-01	1.225046e+00	4.166497e+01	3.645073e+00	2.540140e+05	1.013200e+05	2.881199e+02	1.003319e-01	-7.049905e-03	0.000000e+00	
2.851852e+00	-1.570790e-01	1.225046e+00	4.166497e+01	3.645073e+00	2.540140e+05	1.013200e+05	2.881199e+02	1.003319e-01	-7.049779e-03	0.000000e+00	
3.000000e+00	-1.570790e-01	1.225046e+00	4.166497e+01	3.645073e+00	2.540140e+05	1.013200e+05	2.881199e+02	1.003319e-01	-7.049545e-03	0.000000e+00	
2.925926e+00	-1.570790e-01	1.225046e+00	4.166497e+01	3.645073e+00	2.540140e+05	1.013200e+05	2.881199e+02	1.003319e-01	-7.049661e-03	0.000000e+00	
137	138	1	1
138	2	1	1
1	2	3	3
138	139	2	2
2	4	3	3
1	3	5	5
2	139	6	6
3	4	7	7
2	6	4	4
5	3	7	7
6	139	140	140
4	8	7	7
4	6	9	9
5	7	10	10
11	6	140	140
12	7	8	8
4	9	8	8
11	9	6	6
7	13	10	10
141	11	140	140
12	8	14	14
15	7	12	12
14	8	9	9
16	9	11	11
10	13	17	17
15	13	7	7
141	18	11	11
12	14	19	19
20	15	12	12
9	16	14	14
11	18	16	16
142	18	141	141
19	14	21	21
20	12	19	19
14	16	21	21
16	18	22	22
142	23	18	18
24	19	21	21
19	25	20	20
16	22	21	21
18	23	22	22
143	23	142	142
21	26	24	24
24	25	19	19
22	26	21	21
27	22	23	23
143	28	23	23
29	24	26	26
24	30	25	25
27	26	22	22
28	27	23	23
144	28	143	143
31	29	26	26
29	30	24	24
31	26	27	27
28	32	27	27
144	33	28	28
34	29	31	31
29	35	30	30
32	31	27	27
33	32	28	28
145	33	144	144
31	36	34	34
34	35	29	29
32	36	31	31
33	37	32	32
145	38	33	33
39	34	36	36
34	40	35	35
37	36	32	32
38	37	33	33
146	38	145	145
41	39	36	36
39	40	34	34
41	36	37	37
38	42	37	37
146	43	38	38
44	39	41	41
39	45	40	40
37	42	41	41
43	42	38	38
43	146	147	147
46	44	41	41
44	45	39	39
46	41	42	42
43	47	42	42
48	43	147	147
49	44	46	46
50	45	44	44
42	47	46	46
43	48	47	47
48	147	148	148
49	46	51	51
49	50	44	44
46	47	51	51
48	52	47	47
53	48	148	148
54	49	51	51
55	50	49	49
47	52	51	51
53	52	48	48
53	148	149	149
54	51	56	56
54	55	49	49
51	52	56	56
57	52	53	53
58	53	149	149
59	54	56	56
60	55	54	54
57	56	52	52
58	57	53	53
58	149	150	150
59	56	61	61
59	60	54	54
56	57	61	61
62	57	58	58
63	58	150	150
64	59	61	61
65	60	59	59
62	61	57	57
62	58	63	63
63	150	151	151
64	61	66	66
64	65	59	59
61	62	66	66
67	62	63	63
68	63	151	151
69	64	66	66
70	65	64	64
67	66	62	62
67	63	68	68
152	68	151	151
69	66	71	71
69	70	64	64
66	67	71	71
72	67	68	68
152	73	68	68
69	71	74	74
75	70	69	69
72	71	67	67
73	72	68	68
153	73	152	152
74	71	76	76
75	69	74	74
71	72	76	76
73	77	72	72
153	78	73	73
79	74	76	76
74	80	75	75
77	76	72	72
78	77	73	73
154	78	153	153
76	81	79	79
79	80	74	74
77	81	76	76
78	82	77	77
154	83	78	78
84	79	81	81
79	85	80	80
82	81	77	77
83	82	78	78
155	83	154	154
81	86	84	84
84	85	79	79
82	86	81	81
87	82	83	83
155	88	83	83
89	84	86	86
84	90	85	85
82	87	86	86
88	87	83	83
156	88	155	155
91	89	86	86
89	90	84	84
87	91	86	86
87	88	92	92
156	93	88	88
94	89	91	91
89	95	90	90
87	92	91	91
93	92	88	88
157	93	156	156
96	94	91	91
94	95	89	89
92	96	91	91
92	93	97	97
157	98	93	93
99	94	96	96
94	100	95	95
92	97	96	96
98	97	93	93
158	98	157	157
96	101	99	99
99	100	94	94
97	101	96	96
97	98	102	102
158	103	98	98
104	99	101	101
99	105	100	100
97	102	101	101
102	98	103	103
159	103	158	158
106	104	101	101
104	105	99	99
102	106	101	101
107	102	103	103
159	108	103	103
109	104	106	106
104	110	105	105
107	106	102	102
108	107	103	103
111	108	159	159
112	109	106	106
109	110	104	104
112	106	107	107
108	113	107	107
160	111	159	159
111	113	108	108
114	109	112	112
109	115	110	110
113	112	107	107
116	111	160	160
111	117	113	113
118	114	112	112
114	115	109	109
113	118	112	112
161	116	160	160
116	117	111	111
117	118	113	113
118	119	114	114
114	120	115	115
121	116	161	161
122	117	116	116
117	123	118	118
119	120	114	114
123	119	118	118
162	121	161	161
121	122	116	116
122	123	117	117
119	124	120	120
125	119	123	123
162	126	121	121
121	127	122	122
128	123	122	122
119	125	124	124
128	125	123	123
121	126	127	127
162	164	126	126
128	122	127	127
125	129	124	124
125	128	130	130
127	126	131	131
126	164	163	163
132	128	127	127
125	130	129	129
130	128	132	132
133	126	163	163
131	126	133	133
131	132	127	127
130	134	129	129
135	130	132	132
135	132	131	131
135	134	130	130
135	136	134	134
