TITLE = "SU2 Simulation"
VARIABLES = "Iteration","CL","CD","CSF","CMx","CMy","CMz","CFx","CFy","CFz","CL/CD","AoA","Custom_ObjFunc","Res_Flow[0]","Res_Flow[1]","Res_Flow[2]","Res_Flow[3]","Res_Flow[4]","Linear_Solver_Iterations","CFL_Number","Time(min)"
ZONE T= "Convergence history"
           0, 0.00000000e+00, 0.00000000e+00, 0.00000000e+00, 0.00000000e+00, 0.00000000e+00, 0.00000000e+00, 0.00000000e+00, 0.00000000e+00, 0.00000000e+00, 0.00000000e+00, 0.00000000e+00, 0.00000000e+00, -3.74930411e+00, -1.26321365e+00, -1.23418310e+01, 1.69552130e+00, 0.00000000e+00, 5.0000000000, 5.0000000000, 0.0000598000
           1, 0.00000000e+00, 0.00000000e+00, 0.00000000e+00, 0.00000000e+00, 0.00000000e+00, 0.00000000e+00, 0.00000000e+00, 0.00000000e+00, 0.00000000e+00, 0.00000000e+00, 0.00000000e+00, 0.00000000e+00, -3.95915720e+00, -1.47840751e+00, -3.04497996e+00, 1.48668215e+00, 0.00000000e+00, 5.0000000000, 5.0000000000, 0.0001296000
           2, 0.00000000e+00, 0.00000000e+00, 0.00000000e+00, 0.00000000e+00, 0.00000000e+00, 0.00000000e+00, 0.00000000e+00, 0.00000000e+00, 0.00000000e+00, 0.00000000e+00, 0.00000000e+00, 0.00000000e+00, -4.01675082e+00, -1.50165160e+00, -1.02710317e+00, 1.44040577e+00, 0.00000000e+00, 5.0000000000, 5.0000000000, 0.0001790667
           3, 0.00000000e+00, 0.00000000e+00, 0.00000000e+00, 0.00000000e+00, 0.00000000e+00, 0.00000000e+00, 0.00000000e+00, 0.00000000e+00, 0.00000000e+00, 0.00000000e+00, 0.00000000e+00, 0.00000000e+00, -3.94046378e+00, -1.40790113e+00, -7.56865526e-01, 1.52269956e+00, 0.00000000e+00, 5.0000000000, 5.0000000000, 0.0002282833
           4, 0.00000000e+00, 0.00000000e+00, 0.00000000e+00, 0.00000000e+00, 0.00000000e+00, 0.00000000e+00, 0.00000000e+00, 0.00000000e+00, 0.00000000e+00, 0.00000000e+00, 0.00000000e+00, 0.00000000e+00, -3.93827728e+00, -1.39373385e+00, -6.09852743e-01, 1.52205286e+00, 0.00000000e+00, 5.0000000000, 5.0000000000, 0.0002802833
           5, 0.00000000e+00, 0.00000000e+00, 0.00000000e+00, 0.00000000e+00, 0.00000000e+00, 0.00000000e+00, 0.00000000e+00, 0.00000000e+00, 0.00000000e+00, 0.00000000e+00, 0.00000000e+00, 0.00000000e+00, -4.00109129e+00, -1.42871313e+00, -5.11946174e-01, 1.45430136e+00, 0.00000000e+00, 5.0000000000, 5.0000000000, 0.0003321500
           6, 0.00000000e+00, 0.00000000e+00, 0.00000000e+00, 0.00000000e+00, 0.00000000e+00, 0.00000000e+00, 0.00000000e+00, 0.00000000e+00, 0.00000000e+00, 0.00000000e+00, 0.00000000e+00, 0.00000000e+00, -4.05623170e+00, -1.45941079e+00, -4.40943090e-01, 1.39895616e+00, 0.00000000e+00, 5.0000000000, 5.0000000000, 0.0003832000
           7, 0.00000000e+00, 0.00000000e+00, 0.00000000e+00, 0.00000000e+00, 0.00000000e+00, 0.00000000e+00, 0.00000000e+00, 0.00000000e+00, 0.00000000e+00, 0.00000000e+00, 0.00000000e+00, 0.00000000e+00, -4.04847060e+00, -1.45718092e+00, -3.86776335e-01, 1.41327730e+00, 0.00000000e+00, 5.0000000000, 5.0000000000, 0.0004440167
           8, 0.00000000e+00, 0.00000000e+00, 0.00000000e+00, 0.00000000e+00, 0.00000000e+00, 0.00000000e+00, 0.00000000e+00, 0.00000000e+00, 0.00000000e+00, 0.00000000e+00, 0.00000000e+00, 0.00000000e+00, -4.00991160e+00, -1.43287300e+00, -3.43972770e-01, 1.45694260e+00, 0.00000000e+00, 5.0000000000, 5.0000000000, 0.0005011833
           9, 0.00000000e+00, 0.00000000e+00, 0.00000000e+00, 0.00000000e+00, 0.00000000e+00, 0.00000000e+00, 0.00000000e+00, 0.00000000e+00, 0.00000000e+00, 0.00000000e+00, 0.00000000e+00, 0.00000000e+00, -3.97601113e+00, -1.40567953e+00, -3.09448340e-01, 1.49291351e+00, 0.00000000e+00, 5.0000000000, 5.0000000000, 0.0005613833
          10, 0.00000000e+00, 0.00000000e+00, 0.00000000e+00, 0.00000000e+00, 0.00000000e+00, 0.00000000e+00, 0.00000000e+00, 0.00000000e+00, 0.00000000e+00, 0.00000000e+00, 0.00000000e+00, 0.00000000e+00, -3.95182157e+00, -1.38463936e+00, -2.81242407e-01, 1.51764545e+00, 0.00000000e+00, 5.0000000000, 5.0000000000, 0.0006155167
          11, 0.00000000e+00, 0.00000000e+00, 0.00000000e+00, 0.00000000e+00, 0.00000000e+00, 0.00000000e+00, 0.00000000e+00, 0.00000000e+00, 0.00000000e+00, 0.00000000e+00, 0.00000000e+00, 0.00000000e+00, -3.93389240e+00, -1.37256526e+00, -2.58019766e-01, 1.53548486e+00, 0.00000000e+00, 5.0000000000, 5.0000000000, 0.0006672500
          12, 0.00000000e+00, 0.00000000e+00, 0.00000000e+00, 0.00000000e+00, 0.00000000e+00, 0.00000000e+00, 0.00000000e+00, 0.00000000e+00, 0.00000000e+00, 0.00000000e+00, 0.00000000e+00, 0.00000000e+00, -3.91945579e+00, -1.37034803e+00, -2.38816546e-01, 1.54957530e+00, 0.00000000e+00, 5.0000000000, 5.0000000000, 0.0007200833
          13, 0.00000000e+00, 0.00000000e+00, 0.00000000e+00, 0.00000000e+00, 0.00000000e+00, 0.00000000e+00, 0.00000000e+00, 0.00000000e+00, 0.00000000e+00, 0.00000000e+00, 0.00000000e+00, 0.00000000e+00, -3.90678289e+00, -1.37842674e+00, -2.22909743e-01, 1.56179870e+00, 0.00000000e+00, 5.0000000000, 5.0000000000, 0.0007721333
          14, 0.00000000e+00, 0.00000000e+00, 0.00000000e+00, 0.00000000e+00, 0.00000000e+00, 0.00000000e+00, 0.00000000e+00, 0.00000000e+00, 0.00000000e+00, 0.00000000e+00, 0.00000000e+00, 0.00000000e+00, -3.89467042e+00, -1.39707133e+00, -2.09744601e-01, 1.57343063e+00, 0.00000000e+00, 5.0000000000, 5.0000000000, 0.0008323833
          15, 0.00000000e+00, 0.00000000e+00, 0.00000000e+00, 0.00000000e+00, 0.00000000e+00, 0.00000000e+00, 0.00000000e+00, 0.00000000e+00, 0.00000000e+00, 0.00000000e+00, 0.00000000e+00, 0.00000000e+00, -3.88275180e+00, -1.42615834e+00, -1.98887640e-01, 1.58489256e+00, 0.00000000e+00, 5.0000000000, 5.0000000000, 0.0008887167
          16, 0.00000000e+00, 0.00000000e+00, 0.00000000e+00, 0.00000000e+00, 0.00000000e+00, 0.00000000e+00, 0.00000000e+00, 0.00000000e+00, 0.00000000e+00, 0.00000000e+00, 0.00000000e+00, 0.00000000e+00, -3.87177325e+00, -1.46448983e+00, -1.89994228e-01, 1.59549624e+00, 0.00000000e+00, 5.0000000000, 5.0000000000, 0.0009595500
          17, 0.00000000e+00, 0.00000000e+00, 0.00000000e+00, 0.00000000e+00, 0.00000000e+00, 0.00000000e+00, 0.00000000e+00, 0.00000000e+00, 0.00000000e+00, 0.00000000e+00, 0.00000000e+00, 0.00000000e+00, -3.86327540e+00, -1.50851200e+00, -1.82785841e-01, 1.60375688e+00, 0.00000000e+00, 5.0000000000, 5.0000000000, 0.0010149667
          18, 0.00000000e+00, 0.00000000e+00, 0.00000000e+00, 0.00000000e+00, 0.00000000e+00, 0.00000000e+00, 0.00000000e+00, 0.00000000e+00, 0.00000000e+00, 0.00000000e+00, 0.00000000e+00, 0.00000000e+00, -3.85895924e+00, -1.55062889e+00, -1.77027684e-01, 1.60801633e+00, 0.00000000e+00, 5.0000000000, 5.0000000000, 0.0010676333
          19, 0.00000000e+00, 0.00000000e+00, 0.00000000e+00, 0.00000000e+00, 0.00000000e+00, 0.00000000e+00, 0.00000000e+00, 0.00000000e+00, 0.00000000e+00, 0.00000000e+00, 0.00000000e+00, 0.00000000e+00, -3.86018500e+00, -1.57913914e+00, -1.72488122e-01, 1.60694075e+00, 0.00000000e+00, 5.0000000000, 5.0000000000, 0.0011212167
          20, 0.00000000e+00, 0.00000000e+00, 0.00000000e+00, 0.00000000e+00, 0.00000000e+00, 0.00000000e+00, 0.00000000e+00, 0.00000000e+00, 0.00000000e+00, 0.00000000e+00, 0.00000000e+00, 0.00000000e+00, -3.86776242e+00, -1.58388655e+00, -1.68971567e-01, 1.59973663e+00, 0.00000000e+00, 5.0000000000, 5.0000000000, 0.0011729000
          21, 0.00000000e+00, 0.00000000e+00, 0.00000000e+00, 0.00000000e+00, 0.00000000e+00, 0.00000000e+00, 0.00000000e+00, 0.00000000e+00, 0.00000000e+00, 0.00000000e+00, 0.00000000e+00, 0.00000000e+00, -3.88191768e+00, -1.56496317e+00, -1.66361573e-01, 1.58618744e+00, 0.00000000e+00, 5.0000000000, 5.0000000000, 0.0012266667
          22, 0.00000000e+00, 0.00000000e+00, 0.00000000e+00, 0.00000000e+00, 0.00000000e+00, 0.00000000e+00, 0.00000000e+00, 0.00000000e+00, 0.00000000e+00, 0.00000000e+00, 0.00000000e+00, 0.00000000e+00, -3.90234355e+00, -1.53224295e+00, -1.64549925e-01, 1.56659884e+00, 0.00000000e+00, 5.0000000000, 5.0000000000, 0.0012909167
          23, 0.00000000e+00, 0.00000000e+00, 0.00000000e+00, 0.00000000e+00, 0.00000000e+00, 0.00000000e+00, 0.00000000e+00, 0.00000000e+00, 0.00000000e+00, 0.00000000e+00, 0.00000000e+00, 0.00000000e+00, -3.92829406e+00, -1.49651403e+00, -1.63431550e-01, 1.54169739e+00, 0.00000000e+00, 5.0000000000, 5.0000000000, 0.0013486833
          24, 0.00000000e+00, 0.00000000e+00, 0.00000000e+00, 0.00000000e+00, 0.00000000e+00, 0.00000000e+00, 0.00000000e+00, 0.00000000e+00, 0.00000000e+00, 0.00000000e+00, 0.00000000e+00, 0.00000000e+00, -3.95869601e+00, -1.46434690e+00, -1.62911264e-01, 1.51250666e+00, 0.00000000e+00, 5.0000000000, 5.0000000000, 0.0014076333
          25, 0.00000000e+00, 0.00000000e+00, 0.00000000e+00, 0.00000000e+00, 0.00000000e+00, 0.00000000e+00, 0.00000000e+00, 0.00000000e+00, 0.00000000e+00, 0.00000000e+00, 0.00000000e+00, 0.00000000e+00, -3.99232137e+00, -1.43837547e+00, -1.62902881e-01, 1.48016095e+00, 0.00000000e+00, 5.0000000000, 5.0000000000, 0.0014671167
          26, 0.00000000e+00, 0.00000000e+00, 0.00000000e+00, 0.00000000e+00, 0.00000000e+00, 0.00000000e+00, 0.00000000e+00, 0.00000000e+00, 0.00000000e+00, 0.00000000e+00, 0.00000000e+00, 0.00000000e+00, -4.02805023e+00, -1.41892925e+00, -1.63330450e-01, 1.44563571e+00, 0.00000000e+00, 5.0000000000, 5.0000000000, 0.0015268167
          27, 0.00000000e+00, 0.00000000e+00, 0.00000000e+00, 0.00000000e+00, 0.00000000e+00, 0.00000000e+00, 0.00000000e+00, 0.00000000e+00, 0.00000000e+00, 0.00000000e+00, 0.00000000e+00, 0.00000000e+00, -4.06519333e+00, -1.40522091e+00, -1.64126533e-01, 1.40943342e+00, 0.00000000e+00, 5.0000000000, 5.0000000000, 0.0015838500
          28, 0.00000000e+00, 0.00000000e+00, 0.00000000e+00, 0.00000000e+00, 0.00000000e+00, 0.00000000e+00, 0.00000000e+00, 0.00000000e+00, 0.00000000e+00, 0.00000000e+00, 0.00000000e+00, 0.00000000e+00, -4.10375600e+00, -1.39601964e+00, -1.65232324e-01, 1.37133723e+00, 0.00000000e+00, 5.0000000000, 5.0000000000, 0.0016399500
          29, 0.00000000e+00, 0.00000000e+00, 0.00000000e+00, 0.00000000e+00, 0.00000000e+00, 0.00000000e+00, 0.00000000e+00, 0.00000000e+00, 0.00000000e+00, 0.00000000e+00, 0.00000000e+00, 0.00000000e+00, -4.14446922e+00, -1.39005544e+00, -1.66595503e-01, 1.33037667e+00, 0.00000000e+00, 5.0000000000, 5.0000000000, 0.0016962000
          30, 0.00000000e+00, 0.00000000e+00, 0.00000000e+00, 0.00000000e+00, 0.00000000e+00, 0.00000000e+00, 0.00000000e+00, 0.00000000e+00, 0.00000000e+00, 0.00000000e+00, 0.00000000e+00, 0.00000000e+00, -4.18848030e+00, -1.38630892e+00, -1.68169163e-01, 1.28508150e+00, 0.00000000e+00, 5.0000000000, 5.0000000000, 0.0017506833
          31, 0.00000000e+00, 0.00000000e+00, 0.00000000e+00, 0.00000000e+00, 0.00000000e+00, 0.00000000e+00, 0.00000000e+00, 0.00000000e+00, 0.00000000e+00, 0.00000000e+00, 0.00000000e+00, 0.00000000e+00, -4.23661611e+00, -1.38422391e+00, -1.69911943e-01, 1.23408503e+00, 0.00000000e+00, 5.0000000000, 5.0000000000, 0.0018145333
          32, 0.00000000e+00, 0.00000000e+00, 0.00000000e+00, 0.00000000e+00, 0.00000000e+00, 0.00000000e+00, 0.00000000e+00, 0.00000000e+00, 0.00000000e+00, 0.00000000e+00, 0.00000000e+00, 0.00000000e+00, -4.28805023e+00, -1.38381353e+00, -1.71787685e-01, 1.17728095e+00, 0.00000000e+00, 5.0000000000, 5.0000000000, 0.0018712500
          33, 0.00000000e+00, 0.00000000e+00, 0.00000000e+00, 0.00000000e+00, 0.00000000e+00, 0.00000000e+00, 0.00000000e+00, 0.00000000e+00, 0.00000000e+00, 0.00000000e+00, 0.00000000e+00, 0.00000000e+00, -4.33810008e+00, -1.38563256e+00, -1.73764326e-01, 1.11809454e+00, 0.00000000e+00, 5.0000000000, 5.0000000000, 0.0019310167
          34, 0.00000000e+00, 0.00000000e+00, 0.00000000e+00, 0.00000000e+00, 0.00000000e+00, 0.00000000e+00, 0.00000000e+00, 0.00000000e+00, 0.00000000e+00, 0.00000000e+00, 0.00000000e+00, 0.00000000e+00, -4.37594059e+00, -1.39063434e+00, -1.75813838e-01, 1.06709094e+00, 0.00000000e+00, 5.0000000000, 5.0000000000, 0.0019899167
          35, 0.00000000e+00, 0.00000000e+00, 0.00000000e+00, 0.00000000e+00, 0.00000000e+00, 0.00000000e+00, 0.00000000e+00, 0.00000000e+00, 0.00000000e+00, 0.00000000e+00, 0.00000000e+00, 0.00000000e+00, -4.38711071e+00, -1.39997184e+00, -1.77911983e-01, 1.04258705e+00, 0.00000000e+00, 5.0000000000, 5.0000000000, 0.0020461500
          36, 0.00000000e+00, 0.00000000e+00, 0.00000000e+00, 0.00000000e+00, 0.00000000e+00, 0.00000000e+00, 0.00000000e+00, 0.00000000e+00, 0.00000000e+00, 0.00000000e+00, 0.00000000e+00, 0.00000000e+00, -4.36543196e+00, -1.41480226e+00, -1.80037980e-01, 1.05762132e+00, 0.00000000e+00, 5.0000000000, 5.0000000000, 0.0021003833
          37, 0.00000000e+00, 0.00000000e+00, 0.00000000e+00, 0.00000000e+00, 0.00000000e+00, 0.00000000e+00, 0.00000000e+00, 0.00000000e+00, 0.00000000e+00, 0.00000000e+00, 0.00000000e+00, 0.00000000e+00, -4.32046252e+00, -1.43611130e+00, -1.82175449e-01, 1.10397437e+00, 0.00000000e+00, 5.0000000000, 5.0000000000, 0.0021555167
          38, 0.00000000e+00, 0.00000000e+00, 0.00000000e+00, 0.00000000e+00, 0.00000000e+00, 0.00000000e+00, 0.00000000e+00, 0.00000000e+00, 0.00000000e+00, 0.00000000e+00, 0.00000000e+00, 0.00000000e+00, -4.26753452e+00, -1.46451306e+00, -1.84309348e-01, 1.16208530e+00, 0.00000000e+00, 5.0000000000, 5.0000000000, 0.0022188500
          39, 0.00000000e+00, 0.00000000e+00, 0.00000000e+00, 0.00000000e+00, 0.00000000e+00, 0.00000000e+00, 0.00000000e+00, 0.00000000e+00, 0.00000000e+00, 0.00000000e+00, 0.00000000e+00, 0.00000000e+00, -4.21731234e+00, -1.49994894e+00, -1.86426608e-01, 1.21791885e+00, 0.00000000e+00, 5.0000000000, 5.0000000000, 0.0022731500
          40, 0.00000000e+00, 0.00000000e+00, 0.00000000e+00, 0.00000000e+00, 0.00000000e+00, 0.00000000e+00, 0.00000000e+00, 0.00000000e+00, 0.00000000e+00, 0.00000000e+00, 0.00000000e+00, 0.00000000e+00, -4.17470357e+00, -1.54117246e+00, -1.88516492e-01, 1.26540133e+00, 0.00000000e+00, 5.0000000000, 5.0000000000, 0.0023281167
          41, 0.00000000e+00, 0.00000000e+00, 0.00000000e+00, 0.00000000e+00, 0.00000000e+00, 0.00000000e+00, 0.00000000e+00, 0.00000000e+00, 0.00000000e+00, 0.00000000e+00, 0.00000000e+00, 0.00000000e+00, -4.14118201e+00, -1.58495345e+00, -1.90570420e-01, 1.30295431e+00, 0.00000000e+00, 5.0000000000, 5.0000000000, 0.0023894333
          42, 0.00000000e+00, 0.00000000e+00, 0.00000000e+00, 0.00000000e+00, 0.00000000e+00, 0.00000000e+00, 0.00000000e+00, 0.00000000e+00, 0.00000000e+00, 0.00000000e+00, 0.00000000e+00, 0.00000000e+00, -4.11654033e+00, -1.62534126e+00, -1.92581529e-01, 1.33098546e+00, 0.00000000e+00, 5.0000000000, 5.0000000000, 0.0024481333
          43, 0.00000000e+00, 0.00000000e+00, 0.00000000e+00, 0.00000000e+00, 0.00000000e+00, 0.00000000e+00, 0.00000000e+00, 0.00000000e+00, 0.00000000e+00, 0.00000000e+00, 0.00000000e+00, 0.00000000e+00, -4.09970057e+00, -1.65437563e+00, -1.94544677e-01, 1.35080903e+00, 0.00000000e+00, 5.0000000000, 5.0000000000, 0.0025079000
          44, 0.00000000e+00, 0.00000000e+00, 0.00000000e+00, 0.00000000e+00, 0.00000000e+00, 0.00000000e+00, 0.00000000e+00, 0.00000000e+00, 0.00000000e+00, 0.00000000e+00, 0.00000000e+00, 0.00000000e+00, -4.08900071e+00, -1.66593857e+00, -1.96456378e-01, 1.36428188e+00, 0.00000000e+00, 5.0000000000, 5.0000000000, 0.0025629167
          45, 0.00000000e+00, 0.00000000e+00, 0.00000000e+00, 0.00000000e+00, 0.00000000e+00, 0.00000000e+00, 0.00000000e+00, 0.00000000e+00, 0.00000000e+00, 0.00000000e+00, 0.00000000e+00, 0.00000000e+00, -4.08227554e+00, -1.66053988e+00, -1.98314342e-01, 1.37369638e+00, 0.00000000e+00, 5.0000000000, 5.0000000000, 0.0026166500
          46, 0.00000000e+00, 0.00000000e+00, 0.00000000e+00, 0.00000000e+00, 0.00000000e+00, 0.00000000e+00, 0.00000000e+00, 0.00000000e+00, 0.00000000e+00, 0.00000000e+00, 0.00000000e+00, 0.00000000e+00, -4.07696100e+00, -1.64512974e+00, -2.00117267e-01, 1.38165473e+00, 0.00000000e+00, 5.0000000000, 5.0000000000, 0.0026673833
          47, 0.00000000e+00, 0.00000000e+00, 0.00000000e+00, 0.00000000e+00, 0.00000000e+00, 0.00000000e+00, 0.00000000e+00, 0.00000000e+00, 0.00000000e+00, 0.00000000e+00, 0.00000000e+00, 0.00000000e+00, -4.07040697e+00, -1.62824511e+00, -2.01864703e-01, 1.39074128e+00, 0.00000000e+00, 5.0000000000, 5.0000000000, 0.0027174000
          48, 0.00000000e+00, 0.00000000e+00, 0.00000000e+00, 0.00000000e+00, 0.00000000e+00, 0.00000000e+00, 0.00000000e+00, 0.00000000e+00, 0.00000000e+00, 0.00000000e+00, 0.00000000e+00, 0.00000000e+00, -4.06046068e+00, -1.61643054e+00, -2.03556843e-01, 1.40295914e+00, 0.00000000e+00, 5.0000000000, 5.0000000000, 0.0027719833
          49, 0.00000000e+00, 0.00000000e+00, 0.00000000e+00, 0.00000000e+00, 0.00000000e+00, 0.00000000e+00, 0.00000000e+00, 0.00000000e+00, 0.00000000e+00, 0.00000000e+00, 0.00000000e+00, 0.00000000e+00, -4.04612101e+00, -1.61375214e+00, -2.05194546e-01, 1.41914810e+00, 0.00000000e+00, 5.0000000000, 5.0000000000, 0.0028260500
          50, 0.00000000e+00, 0.00000000e+00, 0.00000000e+00, 0.00000000e+00, 0.00000000e+00, 0.00000000e+00, 0.00000000e+00, 0.00000000e+00, 0.00000000e+00, 0.00000000e+00, 0.00000000e+00, 0.00000000e+00, -4.02784995e+00, -1.62264661e+00, -2.06779113e-01, 1.43876115e+00, 0.00000000e+00, 5.0000000000, 5.0000000000, 0.0028818833
          51, 0.00000000e+00, 0.00000000e+00, 0.00000000e+00, 0.00000000e+00, 0.00000000e+00, 0.00000000e+00, 0.00000000e+00, 0.00000000e+00, 0.00000000e+00, 0.00000000e+00, 0.00000000e+00, 0.00000000e+00, -4.00729643e+00, -1.64479641e+00, -2.08312139e-01, 1.46017831e+00, 0.00000000e+00, 5.0000000000, 5.0000000000, 0.0029387167
          52, 0.00000000e+00, 0.00000000e+00, 0.00000000e+00, 0.00000000e+00, 0.00000000e+00, 0.00000000e+00, 0.00000000e+00, 0.00000000e+00, 0.00000000e+00, 0.00000000e+00, 0.00000000e+00, 0.00000000e+00, -3.98663831e+00, -1.68171075e+00, -2.09795446e-01, 1.48133243e+00, 0.00000000e+00, 5.0000000000, 5.0000000000, 0.0029937333
          53, 0.00000000e+00, 0.00000000e+00, 0.00000000e+00, 0.00000000e+00, 0.00000000e+00, 0.00000000e+00, 0.00000000e+00, 0.00000000e+00, 0.00000000e+00, 0.00000000e+00, 0.00000000e+00, 0.00000000e+00, -3.96796419e+00, -1.73500959e+00, -2.11230995e-01, 1.50026890e+00, 0.00000000e+00, 5.0000000000, 5.0000000000, 0.0030495167
          54, 0.00000000e+00, 0.00000000e+00, 0.00000000e+00, 0.00000000e+00, 0.00000000e+00, 0.00000000e+00, 0.00000000e+00, 0.00000000e+00, 0.00000000e+00, 0.00000000e+00, 0.00000000e+00, 0.00000000e+00, -3.95293485e+00, -1.80624100e+00, -2.12620807e-01, 1.51544348e+00, 0.00000000e+00, 5.0000000000, 5.0000000000, 0.0031029500
          55, 0.00000000e+00, 0.00000000e+00, 0.00000000e+00, 0.00000000e+00, 0.00000000e+00, 0.00000000e+00, 0.00000000e+00, 0.00000000e+00, 0.00000000e+00, 0.00000000e+00, 0.00000000e+00, 0.00000000e+00, -3.94270587e+00, -1.89522372e+00, -2.13966898e-01, 1.52578652e+00, 0.00000000e+00, 5.0000000000, 5.0000000000, 0.0031544667
          56, 0.00000000e+00, 0.00000000e+00, 0.00000000e+00, 0.00000000e+00, 0.00000000e+00, 0.00000000e+00, 0.00000000e+00, 0.00000000e+00, 0.00000000e+00, 0.00000000e+00, 0.00000000e+00, 0.00000000e+00, -3.93799003e+00, -1.99323416e+00, -2.15271236e-01, 1.53064402e+00, 0.00000000e+00, 5.0000000000, 5.0000000000, 0.0032047167
          57, 0.00000000e+00, 0.00000000e+00, 0.00000000e+00, 0.00000000e+00, 0.00000000e+00, 0.00000000e+00, 0.00000000e+00, 0.00000000e+00, 0.00000000e+00, 0.00000000e+00, 0.00000000e+00, 0.00000000e+00, -3.93916006e+00, -2.06606156e+00, -2.16535656e-01, 1.52968353e+00, 0.00000000e+00, 5.0000000000, 5.0000000000, 0.0032530333
          58, 0.00000000e+00, 0.00000000e+00, 0.00000000e+00, 0.00000000e+00, 0.00000000e+00, 0.00000000e+00, 0.00000000e+00, 0.00000000e+00, 0.00000000e+00, 0.00000000e+00, 0.00000000e+00, 0.00000000e+00, -3.94634238e+00, -2.06176737e+00, -2.17761987e-01, 1.52280869e+00, 0.00000000e+00, 5.0000000000, 5.0000000000, 0.0033016167
          59, 0.00000000e+00, 0.00000000e+00, 0.00000000e+00, 0.00000000e+00, 0.00000000e+00, 0.00000000e+00, 0.00000000e+00, 0.00000000e+00, 0.00000000e+00, 0.00000000e+00, 0.00000000e+00, 0.00000000e+00, -3.95948746e+00, -1.99023579e+00, -2.18951896e-01, 1.51009478e+00, 0.00000000e+00, 5.0000000000, 5.0000000000, 0.0033489000
          60, 0.00000000e+00, 0.00000000e+00, 0.00000000e+00, 0.00000000e+00, 0.00000000e+00, 0.00000000e+00, 0.00000000e+00, 0.00000000e+00, 0.00000000e+00, 0.00000000e+00, 0.00000000e+00, 0.00000000e+00, -3.97841801e+00, -1.90392443e+00, -2.20106923e-01, 1.49174416e+00, 0.00000000e+00, 5.0000000000, 5.0000000000, 0.0033992333
          61, 0.00000000e+00, 0.00000000e+00, 0.00000000e+00, 0.00000000e+00, 0.00000000e+00, 0.00000000e+00, 0.00000000e+00, 0.00000000e+00, 0.00000000e+00, 0.00000000e+00, 0.00000000e+00, 0.00000000e+00, -4.00286218e+00, -1.82818483e+00, -2.21228496e-01, 1.46805479e+00, 0.00000000e+00, 5.0000000000, 5.0000000000, 0.0034498000
          62, 0.00000000e+00, 0.00000000e+00, 0.00000000e+00, 0.00000000e+00, 0.00000000e+00, 0.00000000e+00, 0.00000000e+00, 0.00000000e+00, 0.00000000e+00, 0.00000000e+00, 0.00000000e+00, 0.00000000e+00, -4.03247895e+00, -1.76751630e+00, -2.22317944e-01, 1.43939468e+00, 0.00000000e+00, 5.0000000000, 5.0000000000, 0.0034973667
          63, 0.00000000e+00, 0.00000000e+00, 0.00000000e+00, 0.00000000e+00, 0.00000000e+00, 0.00000000e+00, 0.00000000e+00, 0.00000000e+00, 0.00000000e+00, 0.00000000e+00, 0.00000000e+00, 0.00000000e+00, -4.06688137e+00, -1.72032971e+00, -2.23376459e-01, 1.40617677e+00, 0.00000000e+00, 5.0000000000, 5.0000000000, 0.0035439167
          64, 0.00000000e+00, 0.00000000e+00, 0.00000000e+00, 0.00000000e+00, 0.00000000e+00, 0.00000000e+00, 0.00000000e+00, 0.00000000e+00, 0.00000000e+00, 0.00000000e+00, 0.00000000e+00, 0.00000000e+00, -4.10565843e+00, -1.68394133e+00, -2.24405276e-01, 1.36883288e+00, 0.00000000e+00, 5.0000000000, 5.0000000000, 0.0035902500
          65, 0.00000000e+00, 0.00000000e+00, 0.00000000e+00, 0.00000000e+00, 0.00000000e+00, 0.00000000e+00, 0.00000000e+00, 0.00000000e+00, 0.00000000e+00, 0.00000000e+00, 0.00000000e+00, 0.00000000e+00, -4.14838878e+00, -1.65577979e+00, -2.25405525e-01, 1.32779290e+00, 0.00000000e+00, 5.0000000000, 5.0000000000, 0.0036366333
          66, 0.00000000e+00, 0.00000000e+00, 0.00000000e+00, 0.00000000e+00, 0.00000000e+00, 0.00000000e+00, 0.00000000e+00, 0.00000000e+00, 0.00000000e+00, 0.00000000e+00, 0.00000000e+00, 0.00000000e+00, -4.19462281e+00, -1.63363129e+00, -2.26378308e-01, 1.28349028e+00, 0.00000000e+00, 5.0000000000, 5.0000000000, 0.0036835333
          67, 0.00000000e+00, 0.00000000e+00, 0.00000000e+00, 0.00000000e+00, 0.00000000e+00, 0.00000000e+00, 0.00000000e+00, 0.00000000e+00, 0.00000000e+00, 0.00000000e+00, 0.00000000e+00, 0.00000000e+00, -4.24378760e+00, -1.61568734e+00, -2.27324705e-01, 1.23643386e+00, 0.00000000e+00, 5.0000000000, 5.0000000000, 0.0037368667
          68, 0.00000000e+00, 0.00000000e+00, 0.00000000e+00, 0.00000000e+00, 0.00000000e+00, 0.00000000e+00, 0.00000000e+00, 0.00000000e+00, 0.00000000e+00, 0.00000000e+00, 0.00000000e+00, 0.00000000e+00, -4.29493616e+00, -1.60056692e+00, -2.28245794e-01, 1.18741310e+00, 0.00000000e+00, 5.0000000000, 5.0000000000, 0.0037894000
          69, 0.00000000e+00, 0.00000000e+00, 0.00000000e+00, 0.00000000e+00, 0.00000000e+00, 0.00000000e+00, 0.00000000e+00, 0.00000000e+00, 0.00000000e+00, 0.00000000e+00, 0.00000000e+00, 0.00000000e+00, -4.34623887e+00, -1.58732807e+00, -2.29142658e-01, 1.13792415e+00, 0.00000000e+00, 5.0000000000, 5.0000000000, 0.0038408833
          70, 0.00000000e+00, 0.00000000e+00, 0.00000000e+00, 0.00000000e+00, 0.00000000e+00, 0.00000000e+00, 0.00000000e+00, 0.00000000e+00, 0.00000000e+00, 0.00000000e+00, 0.00000000e+00, 0.00000000e+00, -4.39418399e+00, -1.57544861e+00, -2.30016389e-01, 1.09086179e+00, 0.00000000e+00, 5.0000000000, 5.0000000000, 0.0038940667
          71, 0.00000000e+00, 0.00000000e+00, 0.00000000e+00, 0.00000000e+00, 0.00000000e+00, 0.00000000e+00, 0.00000000e+00, 0.00000000e+00, 0.00000000e+00, 0.00000000e+00, 0.00000000e+00, 0.00000000e+00, -4.43286678e+00, -1.56476342e+00, -2.30868090e-01, 1.05123626e+00, 0.00000000e+00, 5.0000000000, 5.0000000000, 0.0039448667
          72, 0.00000000e+00, 0.00000000e+00, 0.00000000e+00, 0.00000000e+00, 0.00000000e+00, 0.00000000e+00, 0.00000000e+00, 0.00000000e+00, 0.00000000e+00, 0.00000000e+00, 0.00000000e+00, 0.00000000e+00, -4.45470205e+00, -1.55536734e+00, -2.31698898e-01, 1.02592720e+00, 0.00000000e+00, 5.0000000000, 5.0000000000, 0.0039935833
          73, 0.00000000e+00, 0.00000000e+00, 0.00000000e+00, 0.00000000e+00, 0.00000000e+00, 0.00000000e+00, 0.00000000e+00, 0.00000000e+00, 0.00000000e+00, 0.00000000e+00, 0.00000000e+00, 0.00000000e+00, -4.45403146e+00, -1.54750901e+00, -2.32509965e-01, 1.02102497e+00, 0.00000000e+00, 5.0000000000, 5.0000000000, 0.0040450667
          74, 0.00000000e+00, 0.00000000e+00, 0.00000000e+00, 0.00000000e+00, 0.00000000e+00, 0.00000000e+00, 0.00000000e+00, 0.00000000e+00, 0.00000000e+00, 0.00000000e+00, 0.00000000e+00, 0.00000000e+00, -4.43145922e+00, -1.54150661e+00, -2.33302466e-01, 1.03765365e+00, 0.00000000e+00, 5.0000000000, 5.0000000000, 0.0040947500
          75, 0.00000000e+00, 0.00000000e+00, 0.00000000e+00, 0.00000000e+00, 0.00000000e+00, 0.00000000e+00, 0.00000000e+00, 0.00000000e+00, 0.00000000e+00, 0.00000000e+00, 0.00000000e+00, 0.00000000e+00, -4.39347987e+00, -1.53766802e+00, -2.34077556e-01, 1.07095235e+00, 0.00000000e+00, 5.0000000000, 5.0000000000, 0.0041414667
          76, 0.00000000e+00, 0.00000000e+00, 0.00000000e+00, 0.00000000e+00, 0.00000000e+00, 0.00000000e+00, 0.00000000e+00, 0.00000000e+00, 0.00000000e+00, 0.00000000e+00, 0.00000000e+00, 0.00000000e+00, -4.34799315e+00, -1.53627929e+00, -2.34836295e-01, 1.11350078e+00, 0.00000000e+00, 5.0000000000, 5.0000000000, 0.0041879167
          77, 0.00000000e+00, 0.00000000e+00, 0.00000000e+00, 0.00000000e+00, 0.00000000e+00, 0.00000000e+00, 0.00000000e+00, 0.00000000e+00, 0.00000000e+00, 0.00000000e+00, 0.00000000e+00, 0.00000000e+00, -4.30091643e+00, -1.53760551e+00, -2.35579602e-01, 1.15903862e+00, 0.00000000e+00, 5.0000000000, 5.0000000000, 0.0042344167
          78, 0.00000000e+00, 0.00000000e+00, 0.00000000e+00, 0.00000000e+00, 0.00000000e+00, 0.00000000e+00, 0.00000000e+00, 0.00000000e+00, 0.00000000e+00, 0.00000000e+00, 0.00000000e+00, 0.00000000e+00, -4.25563627e+00, -1.54190271e+00, -2.36308369e-01, 1.20366363e+00, 0.00000000e+00, 5.0000000000, 5.0000000000, 0.0042828833
          79, 0.00000000e+00, 0.00000000e+00, 0.00000000e+00, 0.00000000e+00, 0.00000000e+00, 0.00000000e+00, 0.00000000e+00, 0.00000000e+00, 0.00000000e+00, 0.00000000e+00, 0.00000000e+00, 0.00000000e+00, -4.21373718e+00, -1.54943587e+00, -2.37023396e-01, 1.24539259e+00, 0.00000000e+00, 5.0000000000, 5.0000000000, 0.0043374000
          80, 0.00000000e+00, 0.00000000e+00, 0.00000000e+00, 0.00000000e+00, 0.00000000e+00, 0.00000000e+00, 0.00000000e+00, 0.00000000e+00, 0.00000000e+00, 0.00000000e+00, 0.00000000e+00, 0.00000000e+00, -4.17579091e+00, -1.56050272e+00, -2.37725430e-01, 1.28340377e+00, 0.00000000e+00, 5.0000000000, 5.0000000000, 0.0043883500
          81, 0.00000000e+00, 0.00000000e+00, 0.00000000e+00, 0.00000000e+00, 0.00000000e+00, 0.00000000e+00, 0.00000000e+00, 0.00000000e+00, 0.00000000e+00, 0.00000000e+00, 0.00000000e+00, 0.00000000e+00, -4.14187474e+00, -1.57545288e+00, -2.38415183e-01, 1.31747742e+00, 0.00000000e+00, 5.0000000000, 5.0000000000, 0.0044412500
          82, 0.00000000e+00, 0.00000000e+00, 0.00000000e+00, 0.00000000e+00, 0.00000000e+00, 0.00000000e+00, 0.00000000e+00, 0.00000000e+00, 0.00000000e+00, 0.00000000e+00, 0.00000000e+00, 0.00000000e+00, -4.11186038e+00, -1.59469719e+00, -2.39093289e-01, 1.34766539e+00, 0.00000000e+00, 5.0000000000, 5.0000000000, 0.0044920000
          83, 0.00000000e+00, 0.00000000e+00, 0.00000000e+00, 0.00000000e+00, 0.00000000e+00, 0.00000000e+00, 0.00000000e+00, 0.00000000e+00, 0.00000000e+00, 0.00000000e+00, 0.00000000e+00, 0.00000000e+00, -4.08556442e+00, -1.61870288e+00, -2.39760298e-01, 1.37411289e+00, 0.00000000e+00, 5.0000000000, 5.0000000000, 0.0045392167
          84, 0.00000000e+00, 0.00000000e+00, 0.00000000e+00, 0.00000000e+00, 0.00000000e+00, 0.00000000e+00, 0.00000000e+00, 0.00000000e+00, 0.00000000e+00, 0.00000000e+00, 0.00000000e+00, 0.00000000e+00, -4.06282239e+00, -1.64796426e+00, -2.40416683e-01, 1.39696770e+00, 0.00000000e+00, 5.0000000000, 5.0000000000, 0.0045856667
          85, 0.00000000e+00, 0.00000000e+00, 0.00000000e+00, 0.00000000e+00, 0.00000000e+00, 0.00000000e+00, 0.00000000e+00, 0.00000000e+00, 0.00000000e+00, 0.00000000e+00, 0.00000000e+00, 0.00000000e+00, -4.04352145e+00, -1.68292321e+00, -2.41062843e-01, 1.41633764e+00, 0.00000000e+00, 5.0000000000, 5.0000000000, 0.0046327667
          86, 0.00000000e+00, 0.00000000e+00, 0.00000000e+00, 0.00000000e+00, 0.00000000e+00, 0.00000000e+00, 0.00000000e+00, 0.00000000e+00, 0.00000000e+00, 0.00000000e+00, 0.00000000e+00, 0.00000000e+00, -4.02761078e+00, -1.72378036e+00, -2.41699111e-01, 1.43227442e+00, 0.00000000e+00, 5.0000000000, 5.0000000000, 0.0046854167
          87, 0.00000000e+00, 0.00000000e+00, 0.00000000e+00, 0.00000000e+00, 0.00000000e+00, 0.00000000e+00, 0.00000000e+00, 0.00000000e+00, 0.00000000e+00, 0.00000000e+00, 0.00000000e+00, 0.00000000e+00, -4.01510044e+00, -1.77006959e+00, -2.42325780e-01, 1.44477138e+00, 0.00000000e+00, 5.0000000000, 5.0000000000, 0.0047328833
          88, 0.00000000e+00, 0.00000000e+00, 0.00000000e+00, 0.00000000e+00, 0.00000000e+00, 0.00000000e+00, 0.00000000e+00, 0.00000000e+00, 0.00000000e+00, 0.00000000e+00, 0.00000000e+00, 0.00000000e+00, -4.00605508e+00, -1.81976481e+00, -2.42943103e-01, 1.45376770e+00, 0.00000000e+00, 5.0000000000, 5.0000000000, 0.0047782667
          89, 0.00000000e+00, 0.00000000e+00, 0.00000000e+00, 0.00000000e+00, 0.00000000e+00, 0.00000000e+00, 0.00000000e+00, 0.00000000e+00, 0.00000000e+00, 0.00000000e+00, 0.00000000e+00, 0.00000000e+00, -4.00058659e+00, -1.86771181e+00, -2.43551309e-01, 1.45915447e+00, 0.00000000e+00, 5.0000000000, 5.0000000000, 0.0048287000