 VARIABLES = "X",  "Y"
 ZONE N=        6510 , E=       12339 , F=FEPOINT, ET=TRIANGLE
        0.9961947000        0.0871557400
        0.0000000000        0.0000000000
        3.0000000000       -0.1570790000
       -2.0000000000       -0.1570790000
        3.0000000000        0.1570790000
       -2.0000000000        0.1570790000
        0.9760602298        0.0882694136
        0.9559219258        0.0893114857
        0.9357801821        0.0902848108
        0.9156353279        0.0911914933
        0.8954877247        0.0920349260
        0.8753375619        0.0928148228
        0.8551851633        0.0935346095
        0.8350307287        0.0941950002
        0.8148744660        0.0947969938
        0.7947165900        0.0953423100
        0.7745572181        0.0958292025
        0.7543965854        0.0962607286
        0.7342348042        0.0966347817
        0.7140720312        0.0969509123
        0.6939084542        0.0972106779
        0.6737441931        0.0974104084
        0.6535794257        0.0975498354
        0.6334143263        0.0976276910
        0.6132490825        0.0976412218
        0.5930839049        0.0975877919
        0.5729190302        0.0974652357
        0.5527547262        0.0972703528
        0.5325913136        0.0969984316
        0.5124291487        0.0966461326
        0.4922686284        0.0962097570
        0.4721103063        0.0956816174
        0.4519547286        0.0950575004
        0.4318025412        0.0943322134
        0.4116546454        0.0934962227
        0.3915119131        0.0925440043
        0.3713755297        0.0914658922
        0.3512468758        0.0902520978
        0.3311275240        0.0888928936
        0.3110195092        0.0873752801
        0.2909250713        0.0856874970
        0.2708471164        0.0838139099
        0.2507890871        0.0817380048
        0.2307554388        0.0794388430
        0.2107514382        0.0768948098
        0.1907840383        0.0740780962
        0.1708621573        0.0709559781
        0.1509974909        0.0674887750
        0.1312060404        0.0636260408
        0.1115107856        0.0593003564
        0.0919488335        0.0544195676
        0.0726298517        0.0488677113
        0.0542531757        0.0426673942
        0.0388672599        0.0364644098
        0.0279871803        0.0312143366
        0.0198893342        0.0265591091
        0.0134055007        0.0220677226
        0.0084469846        0.0178143320
        0.0048712830        0.0138811842
        0.0024372631        0.0102668968
        0.0008981437        0.0068712549
        0.0000804664        0.0035210016
        0.0006801143       -0.0034200617
        0.0020497616       -0.0065606209
        0.0041263294       -0.0096180795
        0.0071035602       -0.0127307684
        0.0111613316       -0.0159060455
        0.0163082206       -0.0190201330
        0.0225527432       -0.0220125295
        0.0302630031       -0.0249746171
        0.0401020573       -0.0279891145
        0.0539171821       -0.0312638817
        0.0715290021       -0.0343490481
        0.0910875056       -0.0367830815
        0.1109244749       -0.0384701687
        0.1308162322       -0.0395454908
        0.1507292390       -0.0401210938
        0.1706501127       -0.0402718461
        0.1905704869       -0.0400586715
        0.2104848876       -0.0395244589
        0.2303896901       -0.0387064949
        0.2502824005       -0.0376334260
        0.2701614174       -0.0363307974
        0.2900256144       -0.0348186641
        0.3098744501       -0.0331165854
        0.3297075444       -0.0312398346
        0.3495247454       -0.0292020363
        0.3693260925       -0.0270154712
        0.3891117559       -0.0246912267
        0.4088820298       -0.0222394719
        0.4286371580       -0.0196684981
        0.4483776600       -0.0169875180
        0.4681037047       -0.0142021265
        0.4878160400       -0.0113212973
        0.5075147177       -0.0083485098
        0.5272002734       -0.0052900103
        0.5468730940       -0.0021506417
        0.5665337482        0.0010640551
        0.5861821919        0.0043525651
        0.6058190306        0.0077096809
        0.6254445475        0.0111323690
        0.6450587446        0.0146193430
        0.6646620541        0.0181670212
        0.6842545460        0.0217739605
        0.7038363791        0.0254383273
        0.7234073861        0.0291600839
        0.7429681126        0.0329355012
        0.7625180106        0.0367665966
        0.7820570517        0.0406526834
        0.8015854800        0.0445917536
        0.8211025428        0.0485867577
        0.8406084085        0.0526360766
        0.8601026386        0.0567410494
        0.8795847128        0.0609033221
        0.8990544768        0.0651228044
        0.9185109969        0.0694029426
        0.9379540979        0.0737436226
        0.9573828903        0.0781479040
        0.9767967120        0.0826177132
        2.9800251519       -0.1570790000
        2.9600503037       -0.1570790000
        2.9400754556       -0.1570790000
        2.9201006074       -0.1570790000
        2.9001257593       -0.1570790000
        2.8801509111       -0.1570790000
        2.8601760630       -0.1570790000
        2.8402012149       -0.1570790000
        2.8202263667       -0.1570790000
        2.8002515186       -0.1570790000
        2.7802766704       -0.1570790000
        2.7603018223       -0.1570790000
        2.7403269741       -0.1570790000
        2.7203521260       -0.1570790000
        2.7003772779       -0.1570790000
        2.6804024297       -0.1570790000
        2.6604275816       -0.1570790000
        2.6404527334       -0.1570790000
        2.6204778853       -0.1570790000
        2.6005030371       -0.1570790000
        2.5805281890       -0.1570790000
        2.5605533409       -0.1570790000
        2.5405784927       -0.1570790000
        2.5206036446       -0.1570790000
        2.5006287964       -0.1570790000
        2.4806539483       -0.1570790000
        2.4606791001       -0.1570790000
        2.4407042520       -0.1570790000
        2.4207294039       -0.1570790000
        2.4007545557       -0.1570790000
        2.3807797076       -0.1570790000
        2.3608048594       -0.1570790000
        2.3408300113       -0.1570790000
        2.3208551631       -0.1570790000
        2.3008803150       -0.1570790000
        2.2809054669       -0.1570790000
        2.2609306187       -0.1570790000
        2.2409557706       -0.1570790000
        2.2209809224       -0.1570790000
        2.2010060743       -0.1570790000
        2.1810312261       -0.1570790000
        2.1610563780       -0.1570790000
        2.1410815298       -0.1570790000
        2.1211066817       -0.1570790000
        2.1011318336       -0.1570790000
        2.0811569854       -0.1570790000
        2.0611821373       -0.1570790000
        2.0412072891       -0.1570790000
        2.0212324410       -0.1570790000
        2.0012575928       -0.1570790000
        1.9812827447       -0.1570790000
        1.9613078966       -0.1570790000
        1.9413330484       -0.1570790000
        1.9213582003       -0.1570790000
        1.9013833521       -0.1570790000
        1.8814085040       -0.1570790000
        1.8614336558       -0.1570790000
        1.8414588077       -0.1570790000
        1.8214839596       -0.1570790000
        1.8015091114       -0.1570790000
        1.7815342633       -0.1570790000
        1.7615594151       -0.1570790000
        1.7415845670       -0.1570790000
        1.7216097188       -0.1570790000
        1.7016348707       -0.1570790000
        1.6816600226       -0.1570790000
        1.6616851744       -0.1570790000
        1.6417103263       -0.1570790000
        1.6217354781       -0.1570790000
        1.6017606300       -0.1570790000
        1.5817857818       -0.1570790000
        1.5618109337       -0.1570790000
        1.5418360856       -0.1570790000
        1.5218612374       -0.1570790000
        1.5018863893       -0.1570790000
        1.4819115411       -0.1570790000
        1.4619366930       -0.1570790000
        1.4419618448       -0.1570790000
        1.4219869967       -0.1570790000
        1.4020121486       -0.1570790000
        1.3820373004       -0.1570790000
        1.3620624523       -0.1570790000
        1.3420876041       -0.1570790000
        1.3221127560       -0.1570790000
        1.3021379078       -0.1570790000
        1.2821630597       -0.1570790000
        1.2621882116       -0.1570790000
        1.2422133634       -0.1570790000
        1.2222385153       -0.1570790000
        1.2022636671       -0.1570790000
        1.1822888190       -0.1570790000
        1.1623139708       -0.1570790000
        1.1423391227       -0.1570790000
        1.1223642746       -0.1570790000
        1.1023894264       -0.1570790000
        1.0824145783       -0.1570790000
        1.0624397301       -0.1570790000
        1.0424648820       -0.1570790000
        1.0224900338       -0.1570790000
        1.0025151857       -0.1570790000
        0.9825403376       -0.1570790000
        0.9625654894       -0.1570790000
        0.9425906413       -0.1570790000
        0.9226157931       -0.1570790000
        0.9026409450       -0.1570790000
        0.8826660968       -0.1570790000
        0.8626912487       -0.1570790000
        0.8427164006       -0.1570790000
        0.8227415524       -0.1570790000
        0.8027667043       -0.1570790000
        0.7827918561       -0.1570790000
        0.7628170080       -0.1570790000
        0.7428421598       -0.1570790000
        0.7228673117       -0.1570790000
        0.7028924636       -0.1570790000
        0.6829176154       -0.1570790000
        0.6629427673       -0.1570790000
        0.6429679191       -0.1570790000
        0.6229930710       -0.1570790000
        0.6030182228       -0.1570790000
        0.5830433747       -0.1570790000
        0.5630685266       -0.1570790000
        0.5430936784       -0.1570790000
        0.5231188303       -0.1570790000
        0.5031439821       -0.1570790000
        0.4831691340       -0.1570790000
        0.4631942858       -0.1570790000
        0.4432194377       -0.1570790000
        0.4232445895       -0.1570790000
        0.4032697414       -0.1570790000
        0.3832948933       -0.1570790000
        0.3633200451       -0.1570790000
        0.3433451970       -0.1570790000
        0.3233703488       -0.1570790000
        0.3033955007       -0.1570790000
        0.2834206525       -0.1570790000
        0.2634458044       -0.1570790000
        0.2434709563       -0.1570790000
        0.2234961081       -0.1570790000
        0.2035212600       -0.1570790000
        0.1835464118       -0.1570790000
        0.1635715637       -0.1570790000
        0.1435967155       -0.1570790000
        0.1236218691       -0.1570790000
        0.1036483572       -0.1570790000
        0.0836954789       -0.1570790000
        0.0638082613       -0.1570790000
        0.0442389872       -0.1570790000
        0.0260313302       -0.1570790000
        0.0104846443       -0.1570790000
       -0.0022737751       -0.1570790000
       -0.0132223518       -0.1570790000
       -0.0229220735       -0.1570790000
       -0.0321386958       -0.1570790000
       -0.0410967597       -0.1570790000
       -0.0494653711       -0.1570790000
       -0.0570562687       -0.1570790000
       -0.0640151000       -0.1570790000
       -0.0706550486       -0.1570790000
       -0.0770265348       -0.1570790000
       -0.0831709368       -0.1570790000
       -0.0892604388       -0.1570790000
       -0.0953229826       -0.1570790000
       -0.1013648660       -0.1570790000
       -0.1075018349       -0.1570790000
       -0.1137913638       -0.1570790000
       -0.1202387116       -0.1570790000
       -0.1270284936       -0.1570790000
       -0.1343452072       -0.1570790000
       -0.1422555702       -0.1570790000
       -0.1512112948       -0.1570790000
       -0.1614930820       -0.1570790000
       -0.1725813891       -0.1570790000
       -0.1841674782       -0.1570790000
       -0.1973819917       -0.1570790000
       -0.2122055515       -0.1570790000
       -0.2275430192       -0.1570790000
       -0.2430112177       -0.1570790000
       -0.2585067969       -0.1570790000
       -0.2740144098       -0.1570790000
       -0.2896134409       -0.1570790000
       -0.3056599081       -0.1570790000
       -0.3232086423       -0.1570790000
       -0.3422713684       -0.1570790000
       -0.3620793808       -0.1570790000
       -0.3820379820       -0.1570790000
       -0.4020121522       -0.1570790000
       -0.4219869967       -0.1570790000
       -0.4419618448       -0.1570790000
       -0.4619366930       -0.1570790000
       -0.4819115411       -0.1570790000
       -0.5018863893       -0.1570790000
       -0.5218612374       -0.1570790000
       -0.5418360856       -0.1570790000
       -0.5618109337       -0.1570790000
       -0.5817857818       -0.1570790000
       -0.6017606300       -0.1570790000
       -0.6217354781       -0.1570790000
       -0.6417103263       -0.1570790000
       -0.6616851744       -0.1570790000
       -0.6816600226       -0.1570790000
       -0.7016348707       -0.1570790000
       -0.7216097188       -0.1570790000
       -0.7415845670       -0.1570790000
       -0.7615594151       -0.1570790000
       -0.7815342633       -0.1570790000
       -0.8015091114       -0.1570790000
       -0.8214839596       -0.1570790000
       -0.8414588077       -0.1570790000
       -0.8614336558       -0.1570790000
       -0.8814085040       -0.1570790000
       -0.9013833521       -0.1570790000
       -0.9213582003       -0.1570790000
       -0.9413330484       -0.1570790000
       -0.9613078966       -0.1570790000
       -0.9812827447       -0.1570790000
       -1.0012575928       -0.1570790000
       -1.0212324410       -0.1570790000
       -1.0412072891       -0.1570790000
       -1.0611821373       -0.1570790000
       -1.0811569854       -0.1570790000
       -1.1011318336       -0.1570790000
       -1.1211066817       -0.1570790000
       -1.1410815298       -0.1570790000
       -1.1610563780       -0.1570790000
       -1.1810312261       -0.1570790000
       -1.2010060743       -0.1570790000
       -1.2209809224       -0.1570790000
       -1.2409557706       -0.1570790000
       -1.2609306187       -0.1570790000
       -1.2809054669       -0.1570790000
       -1.3008803150       -0.1570790000
       -1.3208551631       -0.1570790000
       -1.3408300113       -0.1570790000
       -1.3608048594       -0.1570790000
       -1.3807797076       -0.1570790000
       -1.4007545557       -0.1570790000
       -1.4207294039       -0.1570790000
       -1.4407042520       -0.1570790000
       -1.4606791001       -0.1570790000
       -1.4806539483       -0.1570790000
       -1.5006287964       -0.1570790000
       -1.5206036446       -0.1570790000
       -1.5405784927       -0.1570790000
       -1.5605533409       -0.1570790000
       -1.5805281890       -0.1570790000
       -1.6005030371       -0.1570790000
       -1.6204778853       -0.1570790000
       -1.6404527334       -0.1570790000
       -1.6604275816       -0.1570790000
       -1.6804024297       -0.1570790000
       -1.7003772779       -0.1570790000
       -1.7203521260       -0.1570790000
       -1.7403269741       -0.1570790000
       -1.7603018223       -0.1570790000
       -1.7802766704       -0.1570790000
       -1.8002515186       -0.1570790000
       -1.8202263667       -0.1570790000
       -1.8402012149       -0.1570790000
       -1.8601760630       -0.1570790000
       -1.8801509111       -0.1570790000
       -1.9001257593       -0.1570790000
       -1.9201006074       -0.1570790000
       -1.9400754556       -0.1570790000
       -1.9600503037       -0.1570790000
       -1.9800251519       -0.1570790000
        3.0000000000        0.1374441250
        3.0000000000        0.1178092500
        3.0000000000        0.0981743750
        3.0000000000        0.0785395000
        3.0000000000        0.0589046250
        3.0000000000        0.0392697500
        3.0000000000        0.0196348750
        3.0000000000        0.0000000000
        3.0000000000       -0.0196348750
        3.0000000000       -0.0392697500
        3.0000000000       -0.0589046250
        3.0000000000       -0.0785395000
        3.0000000000       -0.0981743750
        3.0000000000       -0.1178092500
        3.0000000000       -0.1374441250
       -1.9800251519        0.1570790000
       -1.9600503037        0.1570790000
       -1.9400754556        0.1570790000
       -1.9201006074        0.1570790000
       -1.9001257593        0.1570790000
       -1.8801509111        0.1570790000
       -1.8601760630        0.1570790000
       -1.8402012149        0.1570790000
       -1.8202263667        0.1570790000
       -1.8002515186        0.1570790000
       -1.7802766704        0.1570790000
       -1.7603018223        0.1570790000
       -1.7403269741        0.1570790000
       -1.7203521260        0.1570790000
       -1.7003772779        0.1570790000
       -1.6804024297        0.1570790000
       -1.6604275816        0.1570790000
       -1.6404527334        0.1570790000
       -1.6204778853        0.1570790000
       -1.6005030371        0.1570790000
       -1.5805281890        0.1570790000
       -1.5605533409        0.1570790000
       -1.5405784927        0.1570790000
       -1.5206036446        0.1570790000
       -1.5006287964        0.1570790000
       -1.4806539483        0.1570790000
       -1.4606791001        0.1570790000
       -1.4407042520        0.1570790000
       -1.4207294039        0.1570790000
       -1.4007545557        0.1570790000
       -1.3807797076        0.1570790000
       -1.3608048594        0.1570790000
       -1.3408300113        0.1570790000
       -1.3208551631        0.1570790000
       -1.3008803150        0.1570790000
       -1.2809054669        0.1570790000
       -1.2609306187        0.1570790000
       -1.2409557706        0.1570790000
       -1.2209809224        0.1570790000
       -1.2010060743        0.1570790000
       -1.1810312261        0.1570790000
       -1.1610563780        0.1570790000
       -1.1410815298        0.1570790000
       -1.1211066817        0.1570790000
       -1.1011318336        0.1570790000
       -1.0811569854        0.1570790000
       -1.0611821373        0.1570790000
       -1.0412072891        0.1570790000
       -1.0212324410        0.1570790000
       -1.0012575928        0.1570790000
       -0.9812827447        0.1570790000
       -0.9613078966        0.1570790000
       -0.9413330484        0.1570790000
       -0.9213582003        0.1570790000
       -0.9013833521        0.1570790000
       -0.8814085040        0.1570790000
       -0.8614336558        0.1570790000
       -0.8414588077        0.1570790000
       -0.8214839596        0.1570790000
       -0.8015091114        0.1570790000
       -0.7815342633        0.1570790000
       -0.7615594151        0.1570790000
       -0.7415845670        0.1570790000
       -0.7216097188        0.1570790000
       -0.7016348707        0.1570790000
       -0.6816600226        0.1570790000
       -0.6616851744        0.1570790000
       -0.6417103263        0.1570790000
       -0.6217354781        0.1570790000
       -0.6017606300        0.1570790000
       -0.5817857818        0.1570790000
       -0.5618109337        0.1570790000
       -0.5418360856        0.1570790000
       -0.5218612374        0.1570790000
       -0.5018863893        0.1570790000
       -0.4819115411        0.1570790000
       -0.4619366930        0.1570790000
       -0.4419618448        0.1570790000
       -0.4219869967        0.1570790000
       -0.4020121522        0.1570790000
       -0.3820379820        0.1570790000
       -0.3620793808        0.1570790000
       -0.3422713684        0.1570790000
       -0.3232086423        0.1570790000
       -0.3056599081        0.1570790000
       -0.2896134409        0.1570790000
       -0.2740144098        0.1570790000
       -0.2585067969        0.1570790000
       -0.2430112177        0.1570790000
       -0.2275430192        0.1570790000
       -0.2122055515        0.1570790000
       -0.1973819917        0.1570790000
       -0.1841674782        0.1570790000
       -0.1725813891        0.1570790000
       -0.1614930820        0.1570790000
       -0.1512112948        0.1570790000
       -0.1422555702        0.1570790000
       -0.1343452072        0.1570790000
       -0.1270284936        0.1570790000
       -0.1202387116        0.1570790000
       -0.1137913638        0.1570790000
       -0.1075018349        0.1570790000
       -0.1013648660        0.1570790000
       -0.0953229826        0.1570790000
       -0.0892604388        0.1570790000
       -0.0831709368        0.1570790000
       -0.0770265348        0.1570790000
       -0.0706550486        0.1570790000
       -0.0640151000        0.1570790000
       -0.0570562687        0.1570790000
       -0.0494653711        0.1570790000
       -0.0410967597        0.1570790000
       -0.0321386958        0.1570790000
       -0.0229220735        0.1570790000
       -0.0132223518        0.1570790000
       -0.0022737751        0.1570790000
        0.0104846443        0.1570790000
        0.0260313302        0.1570790000
        0.0442389872        0.1570790000
        0.0638082613        0.1570790000
        0.0836954789        0.1570790000
        0.1036483572        0.1570790000
        0.1236218691        0.1570790000
        0.1435967155        0.1570790000
        0.1635715637        0.1570790000
        0.1835464118        0.1570790000
        0.2035212600        0.1570790000
        0.2234961081        0.1570790000
        0.2434709563        0.1570790000
        0.2634458044        0.1570790000
        0.2834206525        0.1570790000
        0.3033955007        0.1570790000
        0.3233703488        0.1570790000
        0.3433451970        0.1570790000
        0.3633200451        0.1570790000
        0.3832948933        0.1570790000
        0.4032697414        0.1570790000
        0.4232445895        0.1570790000
        0.4432194377        0.1570790000
        0.4631942858        0.1570790000
        0.4831691340        0.1570790000
        0.5031439821        0.1570790000
        0.5231188303        0.1570790000
        0.5430936784        0.1570790000
        0.5630685266        0.1570790000
        0.5830433747        0.1570790000
        0.6030182228        0.1570790000
        0.6229930710        0.1570790000
        0.6429679191        0.1570790000
        0.6629427673        0.1570790000
        0.6829176154        0.1570790000
        0.7028924636        0.1570790000
        0.7228673117        0.1570790000
        0.7428421598        0.1570790000
        0.7628170080        0.1570790000
        0.7827918561        0.1570790000
        0.8027667043        0.1570790000
        0.8227415524        0.1570790000
        0.8427164006        0.1570790000
        0.8626912487        0.1570790000
        0.8826660968        0.1570790000
        0.9026409450        0.1570790000
        0.9226157931        0.1570790000
        0.9425906413        0.1570790000
        0.9625654894        0.1570790000
        0.9825403376        0.1570790000
        1.0025151857        0.1570790000
        1.0224900338        0.1570790000
        1.0424648820        0.1570790000
        1.0624397301        0.1570790000
        1.0824145783        0.1570790000
        1.1023894264        0.1570790000
        1.1223642746        0.1570790000
        1.1423391227        0.1570790000
        1.1623139708        0.1570790000
        1.1822888190        0.1570790000
        1.2022636671        0.1570790000
        1.2222385153        0.1570790000
        1.2422133634        0.1570790000
        1.2621882116        0.1570790000
        1.2821630597        0.1570790000
        1.3021379078        0.1570790000
        1.3221127560        0.1570790000
        1.3420876041        0.1570790000
        1.3620624523        0.1570790000
        1.3820373004        0.1570790000
        1.4020121486        0.1570790000
        1.4219869967        0.1570790000
        1.4419618448        0.1570790000
        1.4619366930        0.1570790000
        1.4819115411        0.1570790000
        1.5018863893        0.1570790000
        1.5218612374        0.1570790000
        1.5418360856        0.1570790000
        1.5618109337        0.1570790000
        1.5817857818        0.1570790000
        1.6017606300        0.1570790000
        1.6217354781        0.1570790000
        1.6417103263        0.1570790000
        1.6616851744        0.1570790000
        1.6816600226        0.1570790000
        1.7016348707        0.1570790000
        1.7216097188        0.1570790000
        1.7415845670        0.1570790000
        1.7615594151        0.1570790000
        1.7815342633        0.1570790000
        1.8015091114        0.1570790000
        1.8214839596        0.1570790000
        1.8414588077        0.1570790000
        1.8614336558        0.1570790000
        1.8814085040        0.1570790000
        1.9013833521        0.1570790000
        1.9213582003        0.1570790000
        1.9413330484        0.1570790000
        1.9613078966        0.1570790000
        1.9812827447        0.1570790000
        2.0012575928        0.1570790000
        2.0212324410        0.1570790000
        2.0412072891        0.1570790000
        2.0611821373        0.1570790000
        2.0811569854        0.1570790000
        2.1011318336        0.1570790000
        2.1211066817        0.1570790000
        2.1410815298        0.1570790000
        2.1610563780        0.1570790000
        2.1810312261        0.1570790000
        2.2010060743        0.1570790000
        2.2209809224        0.1570790000
        2.2409557706        0.1570790000
        2.2609306187        0.1570790000
        2.2809054669        0.1570790000
        2.3008803150        0.1570790000
        2.3208551631        0.1570790000
        2.3408300113        0.1570790000
        2.3608048594        0.1570790000
        2.3807797076        0.1570790000
        2.4007545557        0.1570790000
        2.4207294039        0.1570790000
        2.4407042520        0.1570790000
        2.4606791001        0.1570790000
        2.4806539483        0.1570790000
        2.5006287964        0.1570790000
        2.5206036446        0.1570790000
        2.5405784927        0.1570790000
        2.5605533409        0.1570790000
        2.5805281890        0.1570790000
        2.6005030371        0.1570790000
        2.6204778853        0.1570790000
        2.6404527334        0.1570790000
        2.6604275816        0.1570790000
        2.6804024297        0.1570790000
        2.7003772779        0.1570790000
        2.7203521260        0.1570790000
        2.7403269741        0.1570790000
        2.7603018223        0.1570790000
        2.7802766704        0.1570790000
        2.8002515186        0.1570790000
        2.8202263667        0.1570790000
        2.8402012149        0.1570790000
        2.8601760630        0.1570790000
        2.8801509111        0.1570790000
        2.9001257593        0.1570790000
        2.9201006074        0.1570790000
        2.9400754556        0.1570790000
        2.9600503037        0.1570790000
        2.9800251519        0.1570790000
       -2.0000000000       -0.1374441250
       -2.0000000000       -0.1178092500
       -2.0000000000       -0.0981743750
       -2.0000000000       -0.0785395000
       -2.0000000000       -0.0589046250
       -2.0000000000       -0.0392697500
       -2.0000000000       -0.0196348750
       -2.0000000000       -0.0000000000
       -2.0000000000        0.0196348750
       -2.0000000000        0.0392697500
       -2.0000000000        0.0589046250
       -2.0000000000        0.0785395000
       -2.0000000000        0.0981743750
       -2.0000000000        0.1178092500
       -2.0000000000        0.1374441250
        0.6276111847        0.1154691592
        2.2321016384        0.1432297179
        2.4097959929        0.1440419079
        0.7328640747       -0.1438061117
        2.3728594289        0.1437925578
        1.8143339066       -0.1426028409
       -0.3701688574        0.1354450670
        0.9196524770        0.1238469439
        0.9597641956        0.1227636671
        0.9396036537        0.1232789148
       -1.9674194464        0.1428727496
        0.8996984509        0.1244402260
        0.8519998417        0.1076381337
        0.9477084626        0.1063340129
        0.9277738925        0.1069424586
        0.9078165484        0.1074395253
        0.8879495877        0.1079487618
        0.8689725716        0.1082249917
        0.8801686939        0.1246746040
        0.8610996347        0.1243312378
        0.1737369528        0.1423504419
        0.8421878341        0.1209388912
       -1.9785477097        0.1094084368
       -1.9822753253        0.1314687936
        0.8235587452        0.1184940557
        0.8038741241        0.1185191820
        2.9321975613       -0.1405960452
        0.7839056593        0.1187131146
        2.9500340691       -0.1351202806
        2.9679410376       -0.1399762987
        2.9831704905       -0.1309054663
        2.9662734683       -0.1217014353
        2.9829200489       -0.1103024787
        0.7638666850        0.1188696855
        1.1416309196        0.1227742476
        0.6347187400        0.1365642304
        0.6449134255        0.1181341021
        0.6538397620        0.1375908350
        0.6639128055        0.1189028478
        0.6734620724        0.1377844643
        0.6836653370        0.1190859235
        0.6933457757        0.1378466563
        0.7437920581        0.1189805820
        0.7036538887        0.1190989331
        0.7237137901        0.1190563022
        2.9323721413        0.0000224920
        2.9661066654        0.0200485840
        2.9492134960        0.0101051852