TITLE = "Visualization of the volumetric solution"
VARIABLES = "x","y","Density","Momentum_x","Momentum_y","Energy","Pressure","Temperature","Mach","C<sub>p</sub>","Roe_Dissipation"
ZONE NODES= 6510, ELEMENTS= 12339, DATAPACKING=POINT, ZONETYPE=FEQUADRILATERAL
-2.000000e+00	-1.374441e-01	1.225259e+00	4.111385e+01	-7.035437e-05	2.540514e+05	1.013447e+05	2.881398e+02	9.860746e-02	2.770519e-02	0.000000e+00	
-1.982922e+00	-1.312966e-01	1.225261e+00	4.111366e+01	-1.433612e-04	2.540519e+05	1.013448e+05	2.881399e+02	9.860683e-02	2.796469e-02	0.000000e+00	
-1.968509e+00	-1.428063e-01	1.225262e+00	4.111388e+01	-1.663732e-04	2.540522e+05	1.013449e+05	2.881400e+02	9.860728e-02	2.811906e-02	0.000000e+00	
-2.000000e+00	-1.178093e-01	1.225259e+00	4.111363e+01	-4.828193e-05	2.540514e+05	1.013446e+05	2.881398e+02	9.860693e-02	2.769861e-02	0.000000e+00	
-1.965336e+00	-1.256187e-01	1.225262e+00	4.111356e+01	-1.690189e-04	2.540522e+05	1.013450e+05	2.881400e+02	9.860649e-02	2.816346e-02	0.000000e+00	
-1.980137e+00	-1.097363e-01	1.225261e+00	4.111349e+01	-1.357240e-04	2.540519e+05	1.013449e+05	2.881399e+02	9.860642e-02	2.799985e-02	0.000000e+00	
-1.951722e+00	-1.418422e-01	1.225263e+00	4.111381e+01	-1.354277e-04	2.540526e+05	1.013451e+05	2.881401e+02	9.860698e-02	2.835175e-02	0.000000e+00	
-2.000000e+00	-9.817437e-02	1.225259e+00	4.111370e+01	-6.114451e-05	2.540514e+05	1.013447e+05	2.881398e+02	9.860709e-02	2.771254e-02	0.000000e+00	
-1.946453e+00	-1.251961e-01	1.225264e+00	4.111344e+01	-6.848367e-05	2.540527e+05	1.013452e+05	2.881402e+02	9.860605e-02	2.841897e-02	0.000000e+00	
-1.958236e+00	-1.086832e-01	1.225263e+00	4.111336e+01	-1.306073e-04	2.540524e+05	1.013450e+05	2.881401e+02	9.860594e-02	2.826497e-02	0.000000e+00	
-1.985544e+00	-8.971715e-02	1.225261e+00	4.111355e+01	-5.787317e-05	2.540518e+05	1.013448e+05	2.881399e+02	9.860659e-02	2.794274e-02	0.000000e+00	
-1.932707e+00	-1.414944e-01	1.225265e+00	4.111364e+01	-8.530528e-05	2.540530e+05	1.013453e+05	2.881403e+02	9.860641e-02	2.861406e-02	0.000000e+00	
-1.968245e+00	-9.058516e-02	1.225262e+00	4.111348e+01	-1.160250e-04	2.540522e+05	1.013450e+05	2.881400e+02	9.860629e-02	2.814486e-02	0.000000e+00	
-2.000000e+00	-7.853950e-02	1.225259e+00	4.111374e+01	2.444745e-05	2.540514e+05	1.013447e+05	2.881398e+02	9.860718e-02	2.771032e-02	0.000000e+00	
-1.929864e+00	-1.256697e-01	1.225265e+00	4.111327e+01	5.573095e-05	2.540531e+05	1.013453e+05	2.881403e+02	9.860550e-02	2.864467e-02	0.000000e+00	
-1.938708e+00	-1.091849e-01	1.225264e+00	4.111330e+01	1.817597e-05	2.540529e+05	1.013452e+05	2.881402e+02	9.860564e-02	2.852567e-02	0.000000e+00	
-1.948478e+00	-9.202330e-02	1.225263e+00	4.111335e+01	-6.990810e-05	2.540526e+05	1.013451e+05	2.881402e+02	9.860585e-02	2.839165e-02	0.000000e+00	
-1.979928e+00	-7.182455e-02	1.225261e+00	4.111361e+01	-4.210743e-05	2.540519e+05	1.013449e+05	2.881399e+02	9.860670e-02	2.800764e-02	0.000000e+00	
-1.912632e+00	-1.374971e-01	1.225266e+00	4.111323e+01	7.182706e-06	2.540535e+05	1.013455e+05	2.881404e+02	9.860527e-02	2.886992e-02	0.000000e+00	
-1.958548e+00	-7.427943e-02	1.225263e+00	4.111347e+01	-7.940973e-05	2.540524e+05	1.013451e+05	2.881401e+02	9.860619e-02	2.827623e-02	0.000000e+00	
-2.000000e+00	-5.890463e-02	1.225259e+00	4.111372e+01	-3.726430e-05	2.540514e+05	1.013447e+05	2.881398e+02	9.860714e-02	2.771033e-02	0.000000e+00	
-1.919303e+00	-1.127545e-01	1.225266e+00	4.111314e+01	1.655401e-04	2.540533e+05	1.013454e+05	2.881404e+02	9.860511e-02	2.877690e-02	0.000000e+00	
-1.928306e+00	-9.436498e-02	1.225265e+00	4.111327e+01	9.858604e-05	2.540531e+05	1.013453e+05	2.881403e+02	9.860549e-02	2.866008e-02	0.000000e+00	
-1.937975e+00	-7.635872e-02	1.225264e+00	4.111336e+01	-1.352518e-05	2.540529e+05	1.013452e+05	2.881402e+02	9.860579e-02	2.852971e-02	0.000000e+00	
-1.966933e+00	-5.626109e-02	1.225262e+00	4.111358e+01	-4.442588e-05	2.540522e+05	1.013450e+05	2.881400e+02	9.860654e-02	2.816351e-02	0.000000e+00	
-1.984535e+00	-5.309614e-02	1.225261e+00	4.111360e+01	-4.092755e-05	2.540519e+05	1.013448e+05	2.881399e+02	9.860669e-02	2.795857e-02	0.000000e+00	
-1.890690e+00	-1.393927e-01	1.225268e+00	4.111289e+01	6.023141e-05	2.540539e+05	1.013457e+05	2.881406e+02	9.860430e-02	2.914304e-02	0.000000e+00	
-1.899693e+00	-1.169481e-01	1.225267e+00	4.111288e+01	2.449168e-04	2.540537e+05	1.013456e+05	2.881405e+02	9.860434e-02	2.902795e-02	0.000000e+00	
-1.947309e+00	-5.830533e-02	1.225264e+00	4.111345e+01	-3.575810e-05	2.540527e+05	1.013452e+05	2.881402e+02	9.860608e-02	2.841645e-02	0.000000e+00	
-2.000000e+00	-3.926975e-02	1.225259e+00	4.111376e+01	-2.588444e-05	2.540514e+05	1.013447e+05	2.881398e+02	9.860722e-02	2.771526e-02	0.000000e+00	
-1.908393e+00	-9.743530e-02	1.225267e+00	4.111317e+01	2.529675e-04	2.540535e+05	1.013455e+05	2.881405e+02	9.860511e-02	2.891270e-02	0.000000e+00	
-1.917652e+00	-7.878748e-02	1.225266e+00	4.111330e+01	1.370897e-04	2.540533e+05	1.013454e+05	2.881404e+02	9.860548e-02	2.879223e-02	0.000000e+00	
-1.927052e+00	-6.044065e-02	1.225265e+00	4.111335e+01	2.670843e-05	2.540531e+05	1.013453e+05	2.881403e+02	9.860568e-02	2.867086e-02	0.000000e+00	
-1.956518e+00	-4.005111e-02	1.225263e+00	4.111350e+01	-2.733386e-05	2.540525e+05	1.013451e+05	2.881401e+02	9.860627e-02	2.829970e-02	0.000000e+00	
-1.976509e+00	-3.807230e-02	1.225261e+00	4.111359e+01	-4.065610e-05	2.540520e+05	1.013449e+05	2.881400e+02	9.860662e-02	2.805168e-02	0.000000e+00	
-1.870130e+00	-1.401081e-01	1.225270e+00	4.111261e+01	1.448032e-04	2.540544e+05	1.013458e+05	2.881407e+02	9.860347e-02	2.939512e-02	0.000000e+00	
-1.879579e+00	-1.186722e-01	1.225269e+00	4.111265e+01	2.833922e-04	2.540541e+05	1.013458e+05	2.881407e+02	9.860364e-02	2.926531e-02	0.000000e+00	
-1.888607e+00	-1.000673e-01	1.225268e+00	4.111303e+01	3.162855e-04	2.540540e+05	1.013457e+05	2.881406e+02	9.860463e-02	2.915739e-02	0.000000e+00	
-1.936354e+00	-4.215437e-02	1.225264e+00	4.111339e+01	-5.723798e-06	2.540529e+05	1.013453e+05	2.881402e+02	9.860585e-02	2.855302e-02	0.000000e+00	
-1.985996e+00	-2.043932e-02	1.225261e+00	4.111362e+01	-7.480245e-06	2.540518e+05	1.013448e+05	2.881399e+02	9.860675e-02	2.794571e-02	0.000000e+00	
-1.897622e+00	-8.124382e-02	1.225267e+00	4.111326e+01	2.471183e-04	2.540538e+05	1.013456e+05	2.881405e+02	9.860524e-02	2.904461e-02	0.000000e+00	
-1.906804e+00	-6.264868e-02	1.225267e+00	4.111330e+01	1.272778e-04	2.540536e+05	1.013455e+05	2.881405e+02	9.860540e-02	2.892701e-02	0.000000e+00	
-1.916029e+00	-4.423089e-02	1.225266e+00	4.111330e+01	3.756813e-05	2.540534e+05	1.013454e+05	2.881404e+02	9.860548e-02	2.880939e-02	0.000000e+00	
-1.965823e+00	-2.202655e-02	1.225262e+00	4.111353e+01	-1.000768e-05	2.540522e+05	1.013450e+05	2.881400e+02	9.860641e-02	2.817765e-02	0.000000e+00	
-1.945581e+00	-2.400585e-02	1.225264e+00	4.111342e+01	6.090757e-07	2.540527e+05	1.013452e+05	2.881402e+02	9.860598e-02	2.843809e-02	0.000000e+00	
-2.000000e+00	-1.963487e-02	1.225259e+00	4.111378e+01	3.198887e-06	2.540514e+05	1.013447e+05	2.881398e+02	9.860727e-02	2.770787e-02	0.000000e+00	
-1.849994e+00	-1.404422e-01	1.225271e+00	4.111234e+01	2.195440e-04	2.540548e+05	1.013460e+05	2.881409e+02	9.860267e-02	2.965325e-02	0.000000e+00	
-1.859483e+00	-1.197945e-01	1.225270e+00	4.111240e+01	3.078282e-04	2.540546e+05	1.013459e+05	2.881408e+02	9.860290e-02	2.952390e-02	0.000000e+00	
-1.868755e+00	-1.016929e-01	1.225270e+00	4.111287e+01	3.222531e-04	2.540544e+05	1.013459e+05	2.881407e+02	9.860408e-02	2.940978e-02	0.000000e+00	
-1.877757e+00	-8.325534e-02	1.225269e+00	4.111319e+01	2.908198e-04	2.540542e+05	1.013458e+05	2.881407e+02	9.860493e-02	2.929497e-02	0.000000e+00	
-1.925200e+00	-2.598913e-02	1.225265e+00	4.111332e+01	3.306641e-06	2.540531e+05	1.013454e+05	2.881403e+02	9.860560e-02	2.869277e-02	0.000000e+00	
-1.975363e+00	-4.045604e-03	1.225261e+00	4.111349e+01	1.483953e-05	2.540521e+05	1.013449e+05	2.881400e+02	9.860636e-02	2.807005e-02	0.000000e+00	
-2.000000e+00	0.000000e+00	1.225259e+00	4.111367e+01	3.208435e-05	2.540514e+05	1.013447e+05	2.881398e+02	9.860701e-02	2.771404e-02	0.000000e+00	
-1.886756e+00	-6.468980e-02	1.225268e+00	4.111327e+01	1.966155e-04	2.540540e+05	1.013457e+05	2.881406e+02	9.860519e-02	2.918049e-02	0.000000e+00	
-1.895803e+00	-4.620773e-02	1.225268e+00	4.111325e+01	9.118389e-05	2.540538e+05	1.013456e+05	2.881405e+02	9.860520e-02	2.906499e-02	0.000000e+00	
-1.904852e+00	-2.789314e-02	1.225267e+00	4.111324e+01	2.259212e-05	2.540536e+05	1.013455e+05	2.881405e+02	9.860524e-02	2.894999e-02	0.000000e+00	
-1.954631e+00	-6.057405e-03	1.225263e+00	4.111344e+01	-1.995129e-06	2.540525e+05	1.013451e+05	2.881401e+02	9.860611e-02	2.831627e-02	0.000000e+00	
-1.934226e+00	-7.943927e-03	1.225265e+00	4.111335e+01	-6.546793e-06	2.540529e+05	1.013453e+05	2.881403e+02	9.860573e-02	2.857948e-02	0.000000e+00	
-1.830000e+00	-1.406506e-01	1.225273e+00	4.111210e+01	2.698459e-04	2.540553e+05	1.013462e+05	2.881410e+02	9.860194e-02	2.990913e-02	0.000000e+00	
-1.839506e+00	-1.206585e-01	1.225272e+00	4.111220e+01	3.279565e-04	2.540550e+05	1.013461e+05	2.881410e+02	9.860228e-02	2.977665e-02	0.000000e+00	
-1.848868e+00	-1.028646e-01	1.225271e+00	4.111271e+01	3.173908e-04	2.540548e+05	1.013460e+05	2.881409e+02	9.860355e-02	2.966075e-02	0.000000e+00	
-1.857942e+00	-8.475487e-02	1.225271e+00	4.111311e+01	2.894739e-04	2.540546e+05	1.013460e+05	2.881408e+02	9.860457e-02	2.954443e-02	0.000000e+00	
-1.866873e+00	-6.640558e-02	1.225270e+00	4.111324e+01	2.182348e-04	2.540545e+05	1.013459e+05	2.881408e+02	9.860496e-02	2.943223e-02	0.000000e+00	
-1.913834e+00	-9.775457e-03	1.225266e+00	4.111325e+01	-6.198973e-06	2.540534e+05	1.013455e+05	2.881404e+02	9.860535e-02	2.883548e-02	0.000000e+00	
-1.982764e+00	1.401521e-02	1.225261e+00	4.111365e+01	1.772767e-05	2.540519e+05	1.013448e+05	2.881399e+02	9.860681e-02	2.798247e-02	0.000000e+00	
-1.962569e+00	1.178641e-02	1.225262e+00	4.111356e+01	9.055812e-06	2.540523e+05	1.013450e+05	2.881401e+02	9.860646e-02	2.821758e-02	0.000000e+00	
-1.875778e+00	-4.798929e-02	1.225269e+00	4.111322e+01	1.250444e-04	2.540543e+05	1.013458e+05	2.881407e+02	9.860497e-02	2.931884e-02	0.000000e+00	
-1.884684e+00	-2.966576e-02	1.225268e+00	4.111317e+01	4.265878e-05	2.540541e+05	1.013457e+05	2.881406e+02	9.860494e-02	2.920546e-02	0.000000e+00	
-1.893565e+00	-1.151301e-02	1.225268e+00	4.111316e+01	-5.435210e-06	2.540539e+05	1.013456e+05	2.881406e+02	9.860497e-02	2.909253e-02	0.000000e+00	
-1.942877e+00	9.996849e-03	1.225264e+00	4.111343e+01	-5.910610e-06	2.540528e+05	1.013452e+05	2.881402e+02	9.860598e-02	2.847158e-02	0.000000e+00	
-1.922666e+00	8.193787e-03	1.225265e+00	4.111330e+01	-3.405714e-06	2.540532e+05	1.013454e+05	2.881403e+02	9.860552e-02	2.872355e-02	0.000000e+00	
-2.000000e+00	1.963487e-02	1.225259e+00	4.111385e+01	2.092705e-05	2.540514e+05	1.013447e+05	2.881398e+02	9.860745e-02	2.770447e-02	0.000000e+00	
-1.810084e+00	-1.408148e-01	1.225274e+00	4.111188e+01	2.879632e-04	2.540557e+05	1.013464e+05	2.881412e+02	9.860127e-02	3.016579e-02	0.000000e+00	
-1.819627e+00	-1.214100e-01	1.225273e+00	4.111203e+01	3.216824e-04	2.540555e+05	1.013463e+05	2.881411e+02	9.860171e-02	3.003227e-02	0.000000e+00	
-1.829024e+00	-1.038274e-01	1.225273e+00	4.111256e+01	2.914989e-04	2.540553e+05	1.013462e+05	2.881410e+02	9.860305e-02	2.991593e-02	0.000000e+00	
-1.838144e+00	-8.595557e-02	1.225272e+00	4.111300e+01	2.615885e-04	2.540551e+05	1.013461e+05	2.881410e+02	9.860418e-02	2.979767e-02	0.000000e+00	
-1.847077e+00	-6.782251e-02	1.225271e+00	4.111318e+01	2.042550e-04	2.540549e+05	1.013461e+05	2.881409e+02	9.860468e-02	2.968497e-02	0.000000e+00	
-1.855916e+00	-4.954559e-02	1.225271e+00	4.111318e+01	1.300942e-04	2.540547e+05	1.013460e+05	2.881408e+02	9.860473e-02	2.957199e-02	0.000000e+00	
-1.902386e+00	6.471133e-03	1.225267e+00	4.111317e+01	-1.654222e-05	2.540537e+05	1.013456e+05	2.881405e+02	9.860506e-02	2.898098e-02	0.000000e+00	
-1.986785e+00	3.065035e-02	1.225261e+00	4.111378e+01	5.909710e-05	2.540518e+05	1.013448e+05	2.881399e+02	9.860715e-02	2.792623e-02	0.000000e+00	
-1.970373e+00	3.046585e-02	1.225262e+00	4.111373e+01	4.594799e-05	2.540522e+05	1.013449e+05	2.881400e+02	9.860692e-02	2.812207e-02	0.000000e+00	
-1.951246e+00	2.818850e-02	1.225263e+00	4.111355e+01	4.608865e-05	2.540526e+05	1.013451e+05	2.881401e+02	9.860635e-02	2.836668e-02	0.000000e+00	
-1.864719e+00	-3.127759e-02	1.225270e+00	4.111312e+01	5.168503e-05	2.540545e+05	1.013459e+05	2.881408e+02	9.860466e-02	2.946000e-02	0.000000e+00	
-1.873498e+00	-1.312869e-02	1.225269e+00	4.111308e+01	-7.190428e-06	2.540543e+05	1.013458e+05	2.881407e+02	9.860462e-02	2.934803e-02	0.000000e+00	
-1.882245e+00	4.865326e-03	1.225269e+00	4.111306e+01	-3.533154e-05	2.540541e+05	1.013457e+05	2.881406e+02	9.860464e-02	2.923678e-02	0.000000e+00	
-1.931351e+00	2.615526e-02	1.225265e+00	4.111338e+01	4.251064e-05	2.540530e+05	1.013453e+05	2.881403e+02	9.860578e-02	2.861381e-02	0.000000e+00	
-1.911135e+00	2.434555e-02	1.225266e+00	4.111321e+01	9.386284e-06	2.540535e+05	1.013455e+05	2.881404e+02	9.860523e-02	2.886998e-02	0.000000e+00	
-2.000000e+00	3.926975e-02	1.225259e+00	4.111389e+01	3.006929e-05	2.540514e+05	1.013446e+05	2.881398e+02	9.860755e-02	2.770144e-02	0.000000e+00	
-1.790244e+00	-1.409615e-01	1.225276e+00	4.111169e+01	2.734847e-04	2.540562e+05	1.013466e+05	2.881413e+02	9.860067e-02	3.042233e-02	0.000000e+00	
-1.799847e+00	-1.221371e-01	1.225275e+00	4.111188e+01	2.857278e-04	2.540559e+05	1.013465e+05	2.881412e+02	9.860121e-02	3.028691e-02	0.000000e+00	
-1.809259e+00	-1.047130e-01	1.225274e+00	4.111243e+01	2.436765e-04	2.540557e+05	1.013464e+05	2.881412e+02	9.860258e-02	3.017054e-02	0.000000e+00	
-1.818394e+00	-8.701337e-02	1.225274e+00	4.111289e+01	2.150258e-04	2.540555e+05	1.013463e+05	2.881411e+02	9.860377e-02	3.005094e-02	0.000000e+00	
-1.827332e+00	-6.905540e-02	1.225273e+00	4.111311e+01	1.680523e-04	2.540553e+05	1.013462e+05	2.881410e+02	9.860434e-02	2.993816e-02	0.000000e+00	
-1.836149e+00	-5.092213e-02	1.225272e+00	4.111312e+01	1.118312e-04	2.540551e+05	1.013462e+05	2.881410e+02	9.860445e-02	2.982518e-02	0.000000e+00	
-1.844899e+00	-3.274115e-02	1.225272e+00	4.111306e+01	4.520626e-05	2.540549e+05	1.013461e+05	2.881409e+02	9.860437e-02	2.971397e-02	0.000000e+00	
-1.890954e+00	2.272254e-02	1.225268e+00	4.111308e+01	-3.301071e-05	2.540539e+05	1.013457e+05	2.881406e+02	9.860476e-02	2.912611e-02	0.000000e+00	
-1.981034e+00	4.840645e-02	1.225261e+00	4.111376e+01	6.192617e-05	2.540519e+05	1.013449e+05	2.881399e+02	9.860707e-02	2.799440e-02	0.000000e+00	
-1.960378e+00	4.642988e-02	1.225263e+00	4.111362e+01	1.237833e-04	2.540524e+05	1.013450e+05	2.881401e+02	9.860657e-02	2.825231e-02	0.000000e+00	
-1.940124e+00	4.410596e-02	1.225264e+00	4.111346e+01	1.205058e-04	2.540528e+05	1.013452e+05	2.881402e+02	9.860604e-02	2.849998e-02	0.000000e+00	
-1.853611e+00	-1.462422e-02	1.225271e+00	4.111300e+01	-1.516595e-05	2.540547e+05	1.013460e+05	2.881409e+02	9.860428e-02	2.960272e-02	0.000000e+00	
-1.862290e+00	3.372533e-03	1.225270e+00	4.111296e+01	-5.775210e-05	2.540546e+05	1.013459e+05	2.881408e+02	9.860426e-02	2.949232e-02	0.000000e+00	
-1.870937e+00	2.124353e-02	1.225270e+00	4.111297e+01	-7.994428e-05	2.540544e+05	1.013458e+05	2.881407e+02	9.860434e-02	2.938200e-02	0.000000e+00	
-1.919861e+00	4.213795e-02	1.225266e+00	4.111329e+01	6.672396e-05	2.540533e+05	1.013454e+05	2.881404e+02	9.860547e-02	2.876032e-02	0.000000e+00	
-1.899636e+00	4.046642e-02	1.225267e+00	4.111315e+01	-8.021664e-06	2.540537e+05	1.013456e+05	2.881405e+02	9.860500e-02	2.901578e-02	0.000000e+00	
-2.000000e+00	5.890463e-02	1.225259e+00	4.111383e+01	-4.190529e-05	2.540514e+05	1.013446e+05	2.881398e+02	9.860741e-02	2.770293e-02	0.000000e+00	
-1.770486e+00	-1.410895e-01	1.225277e+00	4.111154e+01	2.272084e-04	2.540566e+05	1.013468e+05	2.881415e+02	9.860015e-02	3.067873e-02	0.000000e+00	
-1.780187e+00	-1.229267e-01	1.225277e+00	4.111176e+01	2.162458e-04	2.540564e+05	1.013467e+05	2.881414e+02	9.860075e-02	3.054146e-02	0.000000e+00	
-1.789600e+00	-1.056207e-01	1.225276e+00	4.111230e+01	1.672400e-04	2.540562e+05	1.013466e+05	2.881413e+02	9.860211e-02	3.042566e-02	0.000000e+00	
-1.798720e+00	-8.804147e-02	1.225275e+00	4.111277e+01	1.475487e-04	2.540560e+05	1.013465e+05	2.881413e+02	9.860333e-02	3.030559e-02	0.000000e+00	
-1.807645e+00	-7.021089e-02	1.225274e+00	4.111301e+01	1.153636e-04	2.540558e+05	1.013464e+05	2.881412e+02	9.860395e-02	3.019265e-02	0.000000e+00	
-1.816444e+00	-5.219601e-02	1.225274e+00	4.111304e+01	7.829623e-05	2.540556e+05	1.013463e+05	2.881411e+02	9.860410e-02	3.007931e-02	0.000000e+00	
-1.825167e+00	-3.410130e-02	1.225273e+00	4.111299e+01	2.717268e-05	2.540554e+05	1.013463e+05	2.881411e+02	9.860404e-02	2.996815e-02	0.000000e+00	
-1.833842e+00	-1.602666e-02	1.225272e+00	4.111292e+01	-2.817734e-05	2.540552e+05	1.013462e+05	2.881410e+02	9.860394e-02	2.985713e-02	0.000000e+00	
-1.879557e+00	3.900152e-02	1.225269e+00	4.111304e+01	-8.498181e-05	2.540542e+05	1.013458e+05	2.881407e+02	9.860457e-02	2.927289e-02	0.000000e+00	
-1.985209e+00	6.722783e-02	1.225261e+00	4.111367e+01	4.810436e-05	2.540518e+05	1.013448e+05	2.881399e+02	9.860687e-02	2.794211e-02	0.000000e+00	
-1.968656e+00	6.483175e-02	1.225262e+00	4.111364e+01	1.521493e-04	2.540522e+05	1.013450e+05	2.881400e+02	9.860668e-02	2.813614e-02	0.000000e+00	
-1.948843e+00	6.196109e-02	1.225263e+00	4.111352e+01	1.859168e-04	2.540526e+05	1.013451e+05	2.881402e+02	9.860624e-02	2.838965e-02	0.000000e+00	
-1.928555e+00	5.981022e-02	1.225265e+00	4.111339e+01	1.195688e-04	2.540531e+05	1.013453e+05	2.881403e+02	9.860578e-02	2.864769e-02	0.000000e+00	
-1.842478e+00	1.968076e-03	1.225272e+00	4.111287e+01	-7.943963e-05	2.540550e+05	1.013461e+05	2.881409e+02	9.860390e-02	2.974705e-02	0.000000e+00	
-1.851078e+00	1.986626e-02	1.225271e+00	4.111287e+01	-1.212515e-04	2.540548e+05	1.013460e+05	2.881409e+02	9.860396e-02	2.963713e-02	0.000000e+00	
-1.859646e+00	3.767186e-02	1.225270e+00	4.111294e+01	-1.523304e-04	2.540546e+05	1.013459e+05	2.881408e+02	9.860420e-02	2.952816e-02	0.000000e+00	
-1.908300e+00	5.808928e-02	1.225267e+00	4.111328e+01	2.005760e-05	2.540535e+05	1.013455e+05	2.881404e+02	9.860536e-02	2.890615e-02	0.000000e+00	
-1.888163e+00	5.664732e-02	1.225268e+00	4.111318e+01	-8.796232e-05	2.540540e+05	1.013457e+05	2.881406e+02	9.860499e-02	2.916281e-02	0.000000e+00	
-2.000000e+00	7.853950e-02	1.225259e+00	4.111373e+01	1.024136e-05	2.540514e+05	1.013447e+05	2.881398e+02	9.860716e-02	2.771370e-02	0.000000e+00	
-1.751158e+00	-1.412038e-01	1.225279e+00	4.111142e+01	1.344079e-04	2.540570e+05	1.013469e+05	2.881416e+02	9.859972e-02	3.093172e-02	0.000000e+00	
-1.760670e+00	-1.239219e-01	1.225278e+00	4.111165e+01	1.154931e-04	2.540568e+05	1.013468e+05	2.881415e+02	9.860035e-02	3.079453e-02	0.000000e+00	
-1.770074e+00	-1.066521e-01	1.225277e+00	4.111216e+01	6.202066e-05	2.540566e+05	1.013468e+05	2.881415e+02	9.860164e-02	3.068061e-02	0.000000e+00	
-1.779144e+00	-8.914572e-02	1.225277e+00	4.111263e+01	6.012743e-05	2.540564e+05	1.013467e+05	2.881414e+02	9.860283e-02	3.056015e-02	0.000000e+00	
-1.788033e+00	-7.138574e-02	1.225276e+00	4.111288e+01	4.975348e-05	2.540562e+05	1.013466e+05	2.881413e+02	9.860350e-02	3.044774e-02	0.000000e+00	
-1.796803e+00	-5.344614e-02	1.225275e+00	4.111293e+01	3.630565e-05	2.540560e+05	1.013465e+05	2.881413e+02	9.860369e-02	3.033391e-02	0.000000e+00	
-1.805500e+00	-3.541594e-02	1.225275e+00	4.111289e+01	3.522817e-06	2.540558e+05	1.013464e+05	2.881412e+02	9.860366e-02	3.022277e-02	0.000000e+00	
-1.814147e+00	-1.737756e-02	1.225274e+00	4.111283e+01	-4.221788e-05	2.540556e+05	1.013464e+05	2.881411e+02	9.860358e-02	3.011163e-02	0.000000e+00	
-1.822755e+00	6.166310e-04	1.225273e+00	4.111278e+01	-9.630376e-05	2.540554e+05	1.013463e+05	2.881411e+02	9.860353e-02	3.000170e-02	0.000000e+00	
-1.868192e+00	5.538224e-02	1.225270e+00	4.111310e+01	-1.791122e-04	2.540544e+05	1.013459e+05	2.881407e+02	9.860463e-02	2.941883e-02	0.000000e+00	
-1.979015e+00	8.490069e-02	1.225261e+00	4.111350e+01	9.668848e-05	2.540519e+05	1.013449e+05	2.881399e+02	9.860643e-02	2.800952e-02	0.000000e+00	
-1.957315e+00	7.947147e-02	1.225263e+00	4.111352e+01	1.828491e-04	2.540524e+05	1.013451e+05	2.881401e+02	9.860632e-02	2.827407e-02	0.000000e+00	
-1.937049e+00	7.725914e-02	1.225264e+00	4.111345e+01	1.550626e-04	2.540529e+05	1.013452e+05	2.881402e+02	9.860600e-02	2.854187e-02	0.000000e+00	
-1.916935e+00	7.557562e-02	1.225266e+00	4.111340e+01	3.128833e-05	2.540533e+05	1.013454e+05	2.881404e+02	9.860574e-02	2.879617e-02	0.000000e+00	
-1.831326e+00	1.854951e-02	1.225273e+00	4.111278e+01	-1.517679e-04	2.540553e+05	1.013462e+05	2.881410e+02	9.860359e-02	2.989184e-02	0.000000e+00	
-1.839859e+00	3.642239e-02	1.225272e+00	4.111285e+01	-2.016465e-04	2.540551e+05	1.013461e+05	2.881410e+02	9.860383e-02	2.978322e-02	0.000000e+00	
-1.848358e+00	5.422833e-02	1.225271e+00	4.111301e+01	-2.453624e-04	2.540549e+05	1.013460e+05	2.881409e+02	9.860427e-02	2.967391e-02	0.000000e+00	
-1.896768e+00	7.415816e-02	1.225268e+00	4.111335e+01	-9.187829e-05	2.540538e+05	1.013456e+05	2.881405e+02	9.860544e-02	2.905512e-02	0.000000e+00	
-1.876736e+00	7.297060e-02	1.225269e+00	4.111328e+01	-1.987633e-04	2.540542e+05	1.013458e+05	2.881407e+02	9.860513e-02	2.931091e-02	0.000000e+00	
-2.000000e+00	9.817437e-02	1.225259e+00	4.111345e+01	1.829208e-05	2.540514e+05	1.013447e+05	2.881398e+02	9.860649e-02	2.771138e-02	0.000000e+00	
-1.732561e+00	-1.419201e-01	1.225281e+00	4.111133e+01	-1.006160e-05	2.540575e+05	1.013471e+05	2.881418e+02	9.859935e-02	3.118101e-02	0.000000e+00	
-1.741843e+00	-1.250985e-01	1.225280e+00	4.111155e+01	-7.389691e-06	2.540573e+05	1.013470e+05	2.881417e+02	9.859995e-02	3.104418e-02	0.000000e+00	
-1.750772e+00	-1.079883e-01	1.225279e+00	4.111200e+01	-5.494749e-05	2.540571e+05	1.013469e+05	2.881416e+02	9.860111e-02	3.093452e-02	0.000000e+00	
-1.759692e+00	-9.045792e-02	1.225278e+00	4.111246e+01	-4.016912e-05	2.540569e+05	1.013469e+05	2.881415e+02	9.860226e-02	3.081581e-02	0.000000e+00	
-1.768509e+00	-7.268237e-02	1.225278e+00	4.111271e+01	-2.358524e-05	2.540567e+05	1.013468e+05	2.881415e+02	9.860295e-02	3.070330e-02	0.000000e+00	
-1.777235e+00	-5.475163e-02	1.225277e+00	4.111278e+01	-9.646897e-06	2.540565e+05	1.013467e+05	2.881414e+02	9.860319e-02	3.058938e-02	0.000000e+00	
-1.785896e+00	-3.674520e-02	1.225276e+00	4.111276e+01	-2.023713e-05	2.540563e+05	1.013466e+05	2.881414e+02	9.860320e-02	3.047788e-02	0.000000e+00	
-1.794514e+00	-1.872350e-02	1.225276e+00	4.111272e+01	-5.235713e-05	2.540561e+05	1.013465e+05	2.881413e+02	9.860316e-02	3.036648e-02	0.000000e+00	
-1.803097e+00	-7.216084e-04	1.225275e+00	4.111269e+01	-1.037155e-04	2.540559e+05	1.013465e+05	2.881412e+02	9.860315e-02	3.025636e-02	0.000000e+00	
-1.811644e+00	1.725259e-02	1.225274e+00	4.111269e+01	-1.661188e-04	2.540557e+05	1.013464e+05	2.881412e+02	9.860322e-02	3.014643e-02	0.000000e+00	
-1.856842e+00	7.193215e-02	1.225271e+00	4.111319e+01	-2.704899e-04	2.540547e+05	1.013460e+05	2.881408e+02	9.860476e-02	2.956663e-02	0.000000e+00	
-1.978548e+00	1.094084e-01	1.225261e+00	4.111331e+01	7.010969e-05	2.540520e+05	1.013449e+05	2.881399e+02	9.860598e-02	2.801624e-02	0.000000e+00	
-1.963171e+00	9.512502e-02	1.225262e+00	4.111336e+01	1.215320e-04	2.540523e+05	1.013450e+05	2.881401e+02	9.860599e-02	2.819784e-02	0.000000e+00	
-1.944805e+00	9.382527e-02	1.225264e+00	4.111342e+01	1.121134e-04	2.540527e+05	1.013452e+05	2.881402e+02	9.860600e-02	2.842763e-02	0.000000e+00	
-1.925366e+00	9.255071e-02	1.225265e+00	4.111343e+01	1.078853e-05	2.540531e+05	1.013454e+05	2.881403e+02	9.860585e-02	2.869135e-02	0.000000e+00	
-1.905386e+00	9.141843e-02	1.225267e+00	4.111343e+01	-1.156682e-04	2.540536e+05	1.013455e+05	2.881405e+02	9.860570e-02	2.894356e-02	0.000000e+00	
-1.820150e+00	3.520521e-02	1.225274e+00	4.111276e+01	-2.277996e-04	2.540555e+05	1.013463e+05	2.881411e+02	9.860345e-02	3.003781e-02	0.000000e+00	
-1.828615e+00	5.312921e-02	1.225273e+00	4.111290e+01	-2.807977e-04	2.540553e+05	1.013462e+05	2.881410e+02	9.860386e-02	2.992863e-02	0.000000e+00	
-1.837049e+00	7.097913e-02	1.225272e+00	4.111307e+01	-3.056018e-04	2.540551e+05	1.013462e+05	2.881410e+02	9.860432e-02	2.982158e-02	0.000000e+00	
-1.885311e+00	9.037012e-02	1.225268e+00	4.111338e+01	-2.205769e-04	2.540540e+05	1.013457e+05	2.881406e+02	9.860543e-02	2.920079e-02	0.000000e+00	
-1.865346e+00	8.946808e-02	1.225270e+00	4.111328e+01	-2.840100e-04	2.540545e+05	1.013459e+05	2.881408e+02	9.860505e-02	2.945591e-02	0.000000e+00	
-2.000000e+00	1.178093e-01	1.225259e+00	4.111353e+01	3.581488e-05	2.540514e+05	1.013447e+05	2.881398e+02	9.860668e-02	2.770617e-02	0.000000e+00	
-1.715914e+00	-1.434126e-01	1.225282e+00	4.111119e+01	-1.863342e-04	2.540579e+05	1.013473e+05	2.881419e+02	9.859886e-02	3.141950e-02	0.000000e+00	
-1.723275e+00	-1.268459e-01	1.225281e+00	4.111139e+01	-1.186527e-04	2.540577e+05	1.013472e+05	2.881418e+02	9.859943e-02	3.129112e-02	0.000000e+00	
-1.731657e+00	-1.097726e-01	1.225281e+00	4.111181e+01	-1.606842e-04	2.540575e+05	1.013471e+05	2.881418e+02	9.860050e-02	3.119191e-02	0.000000e+00	
-1.740341e+00	-9.213052e-02	1.225280e+00	4.111223e+01	-1.289352e-04	2.540573e+05	1.013470e+05	2.881417e+02	9.860158e-02	3.107109e-02	0.000000e+00	
-1.749066e+00	-7.421294e-02	1.225279e+00	4.111250e+01	-9.387002e-05	2.540571e+05	1.013470e+05	2.881416e+02	9.860229e-02	3.095995e-02	0.000000e+00	
-1.757739e+00	-5.619287e-02	1.225278e+00	4.111260e+01	-5.276704e-05	2.540569e+05	1.013469e+05	2.881416e+02	9.860258e-02	3.084506e-02	0.000000e+00	
-1.766360e+00	-3.814769e-02	1.225278e+00	4.111260e+01	-3.990424e-05	2.540567e+05	1.013468e+05	2.881415e+02	9.860266e-02	3.073343e-02	0.000000e+00	
-1.774944e+00	-2.010990e-02	1.225277e+00	4.111258e+01	-5.469164e-05	2.540565e+05	1.013467e+05	2.881414e+02	9.860268e-02	3.062154e-02	0.000000e+00	
-1.783498e+00	-2.086061e-03	1.225276e+00	4.111257e+01	-9.797764e-05	2.540563e+05	1.013466e+05	2.881414e+02	9.860272e-02	3.051115e-02	0.000000e+00	
-1.792020e+00	1.593607e-02	1.225276e+00	4.111258e+01	-1.607348e-04	2.540561e+05	1.013466e+05	2.881413e+02	9.860282e-02	3.040093e-02	0.000000e+00	
-1.800500e+00	3.397601e-02	1.225275e+00	4.111265e+01	-2.274306e-04	2.540560e+05	1.013465e+05	2.881412e+02	9.860305e-02	3.029224e-02	0.000000e+00	
-1.845486e+00	8.867043e-02	1.225272e+00	4.111313e+01	-3.053989e-04	2.540549e+05	1.013461e+05	2.881409e+02	9.860454e-02	2.971105e-02	0.000000e+00	
-1.954070e+00	1.103270e-01	1.225263e+00	4.111330e+01	4.870174e-05	2.540525e+05	1.013451e+05	2.881401e+02	9.860578e-02	2.830536e-02	0.000000e+00	
-1.982275e+00	1.314688e-01	1.225261e+00	4.111358e+01	1.158672e-04	2.540519e+05	1.013448e+05	2.881399e+02	9.860663e-02	2.797341e-02	0.000000e+00	
-1.933873e+00	1.092598e-01	1.225265e+00	4.111332e+01	-5.653198e-05	2.540530e+05	1.013453e+05	2.881403e+02	9.860567e-02	2.858169e-02	0.000000e+00	
-1.913934e+00	1.083466e-01	1.225266e+00	4.111337e+01	-1.514065e-04	2.540534e+05	1.013455e+05	2.881404e+02	9.860562e-02	2.883614e-02	0.000000e+00	
-1.893955e+00	1.075288e-01	1.225268e+00	4.111334e+01	-2.336395e-04	2.540539e+05	1.013456e+05	2.881406e+02	9.860540e-02	2.909384e-02	0.000000e+00	
-1.808932e+00	5.203302e-02	1.225274e+00	4.111278e+01	-2.842038e-04	2.540558e+05	1.013464e+05	2.881412e+02	9.860341e-02	3.018305e-02	0.000000e+00	
-1.817323e+00	7.005338e-02	1.225274e+00	4.111291e+01	-3.050403e-04	2.540556e+05	1.013463e+05	2.881411e+02	9.860379e-02	3.007632e-02	0.000000e+00	
-1.825701e+00	8.792516e-02	1.225273e+00	4.111293e+01	-2.912868e-04	2.540554e+05	1.013463e+05	2.881411e+02	9.860392e-02	2.996593e-02	0.000000e+00	
-1.873921e+00	1.067699e-01	1.225269e+00	4.111323e+01	-2.654727e-04	2.540543e+05	1.013458e+05	2.881407e+02	9.860499e-02	2.934937e-02	0.000000e+00	
-1.853984e+00	1.061164e-01	1.225271e+00	4.111305e+01	-2.576043e-04	2.540548e+05	1.013460e+05	2.881408e+02	9.860440e-02	2.960518e-02	0.000000e+00	
-1.962620e+00	1.263774e-01	1.225262e+00	4.111344e+01	5.027735e-05	2.540523e+05	1.013450e+05	2.881400e+02	9.860619e-02	2.818826e-02	0.000000e+00	
-2.000000e+00	1.374441e-01	1.225259e+00	4.111383e+01	1.170031e-04	2.540514e+05	1.013447e+05	2.881398e+02	9.860739e-02	2.770860e-02	0.000000e+00	
-1.705184e+00	-1.316072e-01	1.225283e+00	4.111114e+01	-2.629132e-04	2.540581e+05	1.013474e+05	2.881420e+02	9.859868e-02	3.155401e-02	0.000000e+00	
-1.712698e+00	-1.127656e-01	1.225282e+00	4.111155e+01	-2.247897e-04	2.540580e+05	1.013473e+05	2.881419e+02	9.859972e-02	3.144257e-02	0.000000e+00	
-1.721112e+00	-9.438353e-02	1.225281e+00	4.111197e+01	-1.928128e-04	2.540578e+05	1.013472e+05	2.881418e+02	9.860080e-02	3.132923e-02	0.000000e+00	
-1.729709e+00	-7.608712e-02	1.225281e+00	4.111225e+01	-1.440766e-04	2.540576e+05	1.013471e+05	2.881418e+02	9.860153e-02	3.121580e-02	0.000000e+00	
-1.738316e+00	-5.784104e-02	1.225280e+00	4.111237e+01	-8.585128e-05	2.540574e+05	1.013471e+05	2.881417e+02	9.860188e-02	3.110123e-02	0.000000e+00	
-1.746891e+00	-3.967362e-02	1.225279e+00	4.111240e+01	-5.171214e-05	2.540572e+05	1.013470e+05	2.881416e+02	9.860202e-02	3.098902e-02	0.000000e+00	
-1.755438e+00	-2.157504e-02	1.225279e+00	4.111241e+01	-4.750374e-05	2.540570e+05	1.013469e+05	2.881416e+02	9.860212e-02	3.087679e-02	0.000000e+00	
-1.763962e+00	-3.510509e-03	1.225278e+00	4.111243e+01	-7.763418e-05	2.540568e+05	1.013468e+05	2.881415e+02	9.860222e-02	3.076596e-02	0.000000e+00	
-1.772458e+00	1.456450e-02	1.225277e+00	4.111246e+01	-1.340001e-04	2.540566e+05	1.013467e+05	2.881415e+02	9.860236e-02	3.065536e-02	0.000000e+00	
-1.780912e+00	3.269316e-02	1.225277e+00	4.111252e+01	-1.993317e-04	2.540564e+05	1.013467e+05	2.881414e+02	9.860259e-02	3.054640e-02	0.000000e+00	
-1.789310e+00	5.088980e-02	1.225276e+00	4.111263e+01	-2.556678e-04	2.540562e+05	1.013466e+05	2.881413e+02	9.860290e-02	3.043713e-02	0.000000e+00	
-1.834128e+00	1.055258e-01	1.225272e+00	4.111280e+01	-2.198254e-04	2.540552e+05	1.013462e+05	2.881410e+02	9.860366e-02	2.986040e-02	0.000000e+00	
-1.967419e+00	1.428727e-01	1.225262e+00	4.111383e+01	7.338146e-05	2.540522e+05	1.013450e+05	2.881400e+02	9.860715e-02	2.812919e-02	0.000000e+00	