 VARIABLES = "X",  "Y"
 ZONE N=        4325 , E=        8328 , F=FEPOINT, ET=QUADRILATERAL
        0.0000000000       -1.2336765631
        0.0126208691       -1.2294490362
        0.0000000000       -1.2183172546
        0.0240403455       -1.2364528121
        0.0122048166       -1.2119652209
        0.0253478321       -1.2200662877
        0.0000000000       -1.2037482884
        0.0391283433       -1.2310003159
        0.0116383790       -1.1968750509
        0.0243369386       -1.2031919529
        0.0395349535       -1.2079678858
        0.0000000000       -1.1900743446
        0.0568191804       -1.2133559352
        0.0552608849       -1.2338493527
        0.0108383697       -1.1835949033
        0.0224535164       -1.1887299022
        0.0348882689       -1.1938917293
        0.0525232127       -1.1898820071
        0.0000000000       -1.1771033730
        0.0740091307       -1.2265476885
        0.0108932188       -1.1712658927
        0.0203971696       -1.1771786904
        0.0337318420       -1.1770043979
        0.0812885058       -1.1963146867
        0.0000000000       -1.1645376905
        0.0488033526       -1.1679967855
        0.0706001547       -1.1647938156
        0.1003939675       -1.2199310232
        0.0112853404       -1.1585953247
        0.0230909602       -1.1664289693
        0.0359217604       -1.1602053177
        0.0952423908       -1.1717257571
        0.1128235471       -1.1919477759
        0.0000000000       -1.1519779555
        0.0520445352       -1.1498029295
        0.0917593967       -1.1454267688
        0.1347441115       -1.2173210866
        0.0111502788       -1.1454897065
        0.0232131034       -1.1520253882
        0.0684304218       -1.1382776857
        0.0360520869       -1.1426906434
        0.1248717848       -1.1541822280
        0.1502056738       -1.1855731040
        0.0000000000       -1.1394101334
        0.0472946093       -1.1285903445
        0.1120165637       -1.1232004806
        0.1738687850       -1.2149758659
        0.0224655652       -1.1381220325
        0.0109484674       -1.1327009676
        0.0854727296       -1.1185338627
        0.0323836299       -1.1308352793
        0.1410639759       -1.1221464307
        0.1628260024       -1.1488070164
        0.1899376138       -1.1800877434
        0.0000000000       -1.1270001464
        0.0642654790       -1.1128408108
        0.0333355338       -1.1185124614
        0.1003502015       -1.1024533903
        0.1228118306       -1.0974856689
        0.2192003254       -1.2136133938
        0.0217160183       -1.1257346398
        0.0106279667       -1.1203659920
        0.0442694367       -1.1063334773
        0.0789404091       -1.0935778374
        0.1525288667       -1.0884725669
        0.1759200142       -1.1135264550
        0.2027296972       -1.1404203816
        0.2337543180       -1.1721044742
        0.0000000000       -1.1147245021
        0.0588780876       -1.0951236009
        0.0304959633       -1.1073331008
        0.0211652666       -1.1136964129
        0.1022433561       -1.0794314377
        0.1296435843       -1.0631936523
        0.2685659496       -1.2095312069
        0.0104297472       -1.1082535444
        0.0436548473       -1.0855480903
        0.0622172056       -1.0756631219
        0.0321875839       -1.0956206064
        0.0807499142       -1.0660280972
        0.1600871011       -1.0570664784
        0.1852240956       -1.0789290694
        0.2121048169       -1.1015948942
        0.2433371446       -1.1275701495
        0.2800757389       -1.1586426279
        0.0000000000       -1.1026538899
        0.0207514175       -1.1018323112
        0.1022670867       -1.0513840126
        0.1416716521       -1.0367967198
        0.3261396482       -1.1974623378
        0.0103061140       -1.0963137664
        0.0300050792       -1.0847231298
        0.0464698360       -1.0634701614
        0.0626026130       -1.0541556608
        0.0206948567       -1.0901489207
        0.0808935168       -1.0422990869
        0.1195721569       -1.0388935684
        0.1685465128       -1.0287939771
        0.1919370498       -1.0463053150
        0.2170645000       -1.0643933959
        0.2475519472       -1.0862952246
        0.2823785364       -1.1102072794
        0.3224127103       -1.1366876995
        0.0000000000       -1.0906703729
        0.0324073083       -1.0723864554
        0.1000313478       -1.0259846653
        0.1243866760       -1.0176475323
        0.1498761928       -1.0100560617
        0.3667204756       -1.1586153399
        0.3779476422       -1.2044388082
        0.0103273071       -1.0843910255
        0.0207150654       -1.0783236559
        0.0433541526       -1.0439763615
        0.0329638359       -1.0572695923
        0.0784524849       -1.0238324536
        0.0630535513       -1.0335677773
        0.1764507456       -1.0021551946
        0.1933405055       -1.0209293636
        0.2164168455       -1.0321673718
        0.2464455579       -1.0502076880
        0.2803816961       -1.0700096280
        0.3178278550       -1.0901626289
        0.3591981315       -1.1082306189
        0.0000000000       -1.0786947409
        0.0212318840       -1.0657813758
        0.0848283850       -1.0064701468
        0.1074186395       -1.0008557147
        0.1315342675       -0.9921338623
        0.1565933982       -0.9829983409
        0.3989186387       -1.1247559962
        0.4097956833       -1.1707704030
        0.4225911626       -1.2128492835
        0.0103299754       -1.0724042349
        0.0472328304       -1.0242073004
        0.0296797403       -1.0477493836
        0.0207290444       -1.0539043284
        0.0646916406       -1.0113202909
        0.2097940098       -0.9926176017
        0.1811288442       -0.9780781328
        0.2432872411       -1.0116793788
        0.2775958037       -1.0300879530
        0.3133553982       -1.0471595220
        0.3520328791       -1.0634568749
        0.3890997204       -1.0787092287
        0.0000000000       -1.0667601325
        0.0103603625       -1.0604730111
        0.0333181264       -1.0299931365
        0.0297139167       -1.0395565441
        0.0907618892       -0.9840055661
        0.0711238710       -0.9922415684
        0.1135367247       -0.9758234124
        0.1379834551       -0.9657555060
        0.1640610612       -0.9553566837
        0.4341517610       -1.0909281979
        0.4466018786       -1.1394189731
        0.4581907525       -1.1887062871
        0.0460224090       -1.0056026444
        0.0337139534       -1.0149890018
        0.0201399558       -1.0434704796
        0.0102335584       -1.0489654871
        0.0564158120       -0.9965688672
        0.1959000173       -0.9603745571
        0.2413113977       -0.9797189541
        0.2732714131       -0.9942041057
        0.3075055917       -1.0089718586
        0.3439511368       -1.0227602222
        0.3798912559       -1.0358313493
        0.4219992849       -1.0462491696
        0.5075412205       -1.2056182739
        0.0000000000       -1.0549395836
        0.0208811856       -1.0330793877
        0.0217041526       -1.0211707206
        0.0950192705       -0.9605195793
        0.0728304453       -0.9682254543
        0.0572407677       -0.9817260087
        0.1181015213       -0.9514829066
        0.1391370098       -0.9420404224
        0.2198997653       -0.9652125845
        0.1839598307       -0.9279143698
        0.4836993081       -1.1012300241
        0.4695793486       -1.0546986574
        0.4964915149       -1.1519748142
        0.0426324351       -0.9909159684
        0.0330774905       -1.0009831444
        0.0217225943       -1.0085645263
        0.0102884283       -1.0377797796
        0.0000000000       -1.0432785585
        0.1576839810       -0.9296137401
        0.2144570218       -0.9378854695
        0.2699218129       -0.9597966926
        0.2413956023       -0.9479457307
        0.3017382706       -0.9719798500
        0.3362726526       -0.9838847672
        0.3702275254       -0.9952059013
        0.4097790091       -1.0045479524
        0.4540854124       -1.0120147591
        0.5513225616       -1.1644302429
        0.5685854839       -1.2184235881
        0.0105243574       -1.0263368350
        0.0106874528       -1.0145855461
        0.0992695796       -0.9387385901
        0.0791636347       -0.9477397806
        0.0560585487       -0.9663536752
        0.0443089087       -0.9745613275
        0.1198615491       -0.9287280613
        0.1397902714       -0.9156473241
        0.1603150146       -0.9060251419
        0.2095190117       -0.9091315464
        0.5166234300       -1.0618013164
        0.5328221469       -1.1109706917
        0.5003101738       -1.0197164340
        0.0299940300       -0.9911881507
        0.0210004641       -0.9966823619
        0.0105686670       -1.0027786488
        0.0000000000       -1.0316913808
        0.0592909744       -0.9523624260
        0.0317902068       -0.9806548200
        0.2369394830       -0.9192119302
        0.1847911626       -0.8965401689
        0.2649791030       -0.9290658045
        0.2948875418       -0.9392315761
        0.3272968984       -0.9491925316
        0.3600862808       -0.9586769021
        0.3972201537       -0.9660664218
        0.4391315323       -0.9706244379
        0.4786752303       -0.9786861294
        0.6120842190       -1.1839195105
        0.5906239556       -1.1151841657
        0.0000000000       -1.0201141573
        0.0000000000       -1.0085306851
        0.0830168721       -0.9256208894
        0.1009605346       -0.9163263421
        0.0659398054       -0.9344912921
        0.0456135494       -0.9599739890
        0.0327195683       -0.9676534715
        0.1209855919       -0.9057637489
        0.1398617651       -0.8904966309
        0.1626176178       -0.8814253878
        0.2071511399       -0.8813087873
        0.2321043445       -0.8909973984
        0.5571201433       -1.0732631158
        0.5477852952       -1.0264217182
        0.5186670330       -0.9835499810
        0.0206680312       -0.9855838208
        0.0104135784       -0.9912310036
        0.0000000000       -0.9970063916
        0.0522403115       -0.9388123271
        0.0439050946       -0.9466881782
        0.0211364506       -0.9740158192
        0.2589735102       -0.8999173426
        0.1849207006       -0.8707704562
        0.2875287131       -0.9084647140
        0.3181177012       -0.9167569031
        0.3497838700       -0.9245181066
        0.3844704084       -0.9307619024
        0.4232606071       -0.9357671699
        0.4620495218       -0.9378556219
        0.4972921741       -0.9522826325
        0.6756300559       -1.1905502073
        0.6409773449       -1.1408195942
        0.5962458468       -1.0600830657
        0.0832534233       -0.9041401619
        0.0680758212       -0.9167568602
        0.1028252014       -0.8964067383
        0.0537674811       -0.9253592724
        0.0402634163       -0.9334047991
        0.0326300208       -0.9546826425
        0.0212736142       -0.9618391156
        0.1184013940       -0.8884345716
        0.1462737340       -0.8630708371
        0.1676511825       -0.8613603871
        0.2271794359       -0.8645896217
        0.2038529675       -0.8563391714
        0.2524500225       -0.8724216593
        0.5624015565       -0.9726880456
        0.5305323191       -0.9415970955
        0.6389939715       -1.0902795049
        0.0103776870       -0.9797909100
        0.0000000000       -0.9855538627
        0.0315416430       -0.9426890057
        0.0104375871       -0.9681960671
        0.1236246153       -0.8715159442
        0.2795933949       -0.8797020767
        0.1827869647       -0.8484054059
        0.3086030116       -0.8864791789
        0.3391812282       -0.8927740523
        0.3722549724       -0.8977055944
        0.4083407250       -0.9004091201
        0.4373694084       -0.9081275381
        0.4988495196       -0.9169356490
        0.6009029908       -1.0050715929
        0.7266076321       -1.2084976734
        0.6863011011       -1.1256730564
        0.6443850024       -1.0358043344
        0.0896759131       -0.8859343542
        0.0658964964       -0.9015729618
        0.0538853669       -0.9092624279
        0.1045030672       -0.8777804587
        0.0417585422       -0.9178423988
        0.0284084450       -0.9336754893
        0.0209293345       -0.9500975670
        0.0103929196       -0.9566399806
        0.1249782977       -0.8500050948
        0.1623584031       -0.8424254350
        0.2456441977       -0.8466012691
        0.2217203740       -0.8400255314
        0.1993967715       -0.8332629997
        0.2713390633       -0.8526288640
        0.4666106889       -0.8945913698
        0.6068290892       -0.9535077208
        0.5697578387       -0.9255267710
        0.5352903914       -0.8998092708
        0.7315366624       -1.1594979062
        0.6898383791       -1.0663991224
        0.0000000000       -0.9741404831
        0.0713716255       -0.8843832665
        0.0299576453       -0.9236836582
        0.0199679447       -0.9390512979
        0.0000000000       -0.9627556703
        0.1057962694       -0.8594484964
        0.1429480514       -0.8359659427
        0.2988422878       -0.8580498746
        0.1781454736       -0.8268373450
        0.3280529688       -0.8630222458
        0.3594084688       -0.8674230090
        0.3949354324       -0.8699341574
        0.4301518995       -0.8722685690
        0.5021375497       -0.8765952627
        0.6479593367       -0.9821610586
        0.7861469983       -1.1966497240
        0.7371872915       -1.0983815928
        0.6922882719       -1.0107757660
        0.0869629512       -0.8673051247
        0.0526109469       -0.8942778601
        0.0420045139       -0.9042836592
        0.0305929234       -0.9115518936
        0.0195328500       -0.9284894955
        0.0101104953       -0.9452756415
        0.0000000000       -0.9514117461
        0.1242869072       -0.8279440949
        0.1076023620       -0.8396076847
        0.1573854853       -0.8204364990
        0.2628834994       -0.8272604684
        0.2385885161       -0.8223982606
        0.2157823757       -0.8168984895
        0.1941083025       -0.8111302143
        0.2889344318       -0.8312960815
        0.4693996325       -0.8547923834
        0.6500421953       -0.9309122572
        0.6098956484       -0.9053326195
        0.5727076065       -0.8809719398
        0.5375822072       -0.8582218466
        0.7875281232       -1.1311048573
        0.7391674556       -1.0398673366
        0.0653681594       -0.8642150795
        0.0544642618       -0.8770867389
        0.0198952544       -0.9174831826
        0.0098572679       -0.9341494001
        0.0916702908       -0.8486063466
        0.1392119074       -0.8146706407
        0.3164909393       -0.8348693586
        0.1730778856       -0.8050210568
        0.3462503315       -0.8381124745
        0.3783787548       -0.8412977572
        0.4077889373       -0.8422977886
        0.4398491455       -0.8323971691
        0.5041106191       -0.8370152475
        0.6930708279       -0.9571364119
        0.8421344668       -1.2110101829
        0.8400269425       -1.1617041730
        0.7885997676       -1.0699123131
        0.7389905332       -0.9838063902
        0.0780189719       -0.8527523701
        0.0411989812       -0.8844354044
        0.0394012268       -0.8946979111
        0.0302518268       -0.9000874946
        0.0199988538       -0.9060662779
        0.0097895461       -0.9230913891
        0.0000000000       -0.9401295447
        0.1221514421       -0.8088925291
        0.1074905966       -0.8201927473
        0.0926992295       -0.8302712147
        0.1513659221       -0.7973922393
        0.2544319171       -0.8037158573
        0.2788065468       -0.8063932350
        0.2314540331       -0.7995417191
        0.2096746115       -0.7947254411
        0.1889098189       -0.7897678637
        0.3052521791       -0.8079466022
        0.4727378794       -0.8167337804
        0.6919664324       -0.9058470705
        0.6498822464       -0.8823009492
        0.6102323385       -0.8596690625
        0.5730841797       -0.8381788962
        0.5379111924       -0.8179507367
        0.8402791575       -1.1005894908
        0.7877157851       -1.0111345106
        0.0646623872       -0.8456881815
        0.0505180680       -0.8653941918
        0.0410397903       -0.8721122013
        0.0098554446       -0.9119152304
        0.0000000000       -0.9289050220
        0.0785824880       -0.8379819607
        0.1342751615       -0.7982539329
        0.3322041772       -0.8104432338
        0.1692497322       -0.7844667173
        0.3653270743       -0.8098130608
        0.3910305720       -0.8194526920
        0.4150438576       -0.8109864553
        0.4438750861       -0.7974559802
        0.5047239044       -0.7988882882
        0.7367337888       -0.9300266226
        0.8926549014       -1.1981080752
        0.8933806017       -1.1338176186
        0.8395043752       -1.0392599431
        0.7843260599       -0.9548236664
        0.0504584788       -0.8516434507
        0.0302623518       -0.8784034648
        0.0300888986       -0.8894954252
        0.0199881710       -0.8950368653
        0.0099174401       -0.9007737388
        0.0000000000       -0.9177098559
        0.1203557327       -0.7910121468
        0.1062430965       -0.8020667741
        0.0924312644       -0.8123909969
        0.0782648449       -0.8216084537
        0.1363545758       -0.7801096538
        0.1532845924       -0.7784747195
        0.2462019189       -0.7821754769
        0.2689867049       -0.7840056009
        0.2920334544       -0.7849501850
        0.2245138225       -0.7770733549
        0.2034106304       -0.7734204073
        0.1838235418       -0.7697467547
        0.3197492915       -0.7843073810
        0.4735731238       -0.7808176552
        0.6888848895       -0.8570626339
        0.7326018372       -0.8787295803
        0.6475798228       -0.8361116222
        0.6084007868       -0.8161196203
        0.5714697682       -0.7971659582
        0.5364743536       -0.7792866346
        0.8934830140       -1.0692166691
        0.8355261904       -0.9802619128
        0.0655283304       -0.8295374619
        0.0524876766       -0.8375768158
        0.0398181579       -0.8606350990
        0.0299660623       -0.8670650056
        0.0000000000       -0.9065337180
        0.3459664143       -0.7905940081
        0.1652848911       -0.7657528978
        0.3902117070       -0.7948682149
        0.4169194692       -0.7802692088
        0.4442699650       -0.7641194153
        0.5033087921       -0.7622828336
        0.7787474106       -0.9009969666
        0.9463316719       -1.1712705349
        0.9490722399       -1.1008896293
        0.8912812316       -1.0063944143
        0.8279904078       -0.9239349512
        0.0409630473       -0.8422544015
        0.0382645845       -0.8511419139
        0.0198397896       -0.8729830110
        0.0199114190       -0.8840514343
        0.0098962382       -0.8896898246
        0.0000000000       -0.8953827358
        0.1178615434       -0.7729408865
        0.1041948099       -0.7845902601
        0.0912228647       -0.7955654968
        0.0778171350       -0.8057759167
        0.0649156122       -0.8145052984
        0.1468802461       -0.7641674078
        0.3673692860       -0.7811458925
        0.2395575798       -0.7605596321
        0.2586244304       -0.7680219532
        0.2794623721       -0.7632969033
        0.3017795180       -0.7672686930
        0.2169445210       -0.7526324218
        0.1964880567       -0.7560982727
        0.1798464393       -0.7487109395
        0.3436562798       -0.7675467972
        0.4719397113       -0.7463570677
        0.6844378641       -0.8101209345
        0.7273660324       -0.8291399725
        0.7723903432       -0.8487148492
        0.6437223897       -0.7918052089
        0.6049485629       -0.7743615971
        0.5682182519       -0.7577276745
        0.5332900924       -0.7417408857
        1.0000000000       -1.1897878730
        0.9485781260       -1.0365193555
        0.8816437606       -0.9476635239
        0.0526282590       -0.8217577526
        0.0411923762       -0.8294879626
        0.0293514197       -0.8563503711
        0.0196235287       -0.8619660374
        0.1299188049       -0.7618770022
        0.1584609213       -0.7482956558
        0.3208963565       -0.7559158383
        0.3912245785       -0.7656346664
        0.4164099815       -0.7491194689
        0.4420860766       -0.7315601398
        0.5001388261       -0.7266067963
        0.8197967086       -0.8687167243
        1.0000000000       -1.1295758706
        1.0000000000       -1.0693663379
        0.9443090033       -0.9711749487
        0.8695356521       -0.8890439523
        0.0301291937       -0.8351290963
        0.0296006662       -0.8461174757
        0.0097876738       -0.8675943314
        0.0098519094       -0.8786451246
        0.0000000000       -0.8842680202
        0.1131197112       -0.7570729398
        0.1011330773       -0.7673080420
        0.0888616916       -0.7793066322
        0.0767761370       -0.7902092800
        0.0643832736       -0.7993821868
        0.0504577946       -0.8077550372
        0.1413896020       -0.7469135329
        0.3664101052       -0.7524517305
        0.2360022611       -0.7397671239
        0.2571195910       -0.7486314428
        0.2992316636       -0.7455546369
        0.1986765275       -0.7401724473
        0.1680149264       -0.7357696888
        0.3422353647       -0.7405859120
        0.4684207483       -0.7120458595
        0.6787497709       -0.7652652105
        0.7209853719       -0.7817529151
        0.7652325400       -0.7987104374
        0.8117926130       -0.8159106045
        0.6384750504       -0.7492974181
        0.6000241915       -0.7339438849
        0.5633938189       -0.7191561763
        0.5286428297       -0.7051365230
        1.0000000000       -1.0091789688
        0.9204749389       -0.9089723198
        0.0409243602       -0.8167724345
        0.0301242397       -0.8235453920
        0.0195669798       -0.8512059940
        0.0097358909       -0.8566376752
        0.1248125751       -0.7440607996
        0.1511822974       -0.7312043045
        0.2172551325       -0.7306967394
        0.2769561267       -0.7350287628
        0.3190249688       -0.7302720480
        0.1826687399       -0.7300167762
        0.3896938335       -0.7358457288
        0.4134675152       -0.7181890556
        0.4380668635       -0.6984522460
        0.4952912173       -0.6913979547
        0.8607478352       -0.8330809277
        1.0000000000       -0.9490902462
        0.9667697717       -0.9216589047
        0.9111221881       -0.8498067136
        0.0197482554       -0.8292373956
        0.0196593956       -0.8403196564
        0.0000000000       -0.8621417324
        0.0000000000       -0.8731921766
        0.1088941351       -0.7393950716
        0.0968097396       -0.7517344085
        0.0841865823       -0.7620664551
        0.0744864832       -0.7755815568
        0.0635380567       -0.7850028463
        0.0517942779       -0.7924939244
        0.0381977735       -0.8074561048
        0.1349820376       -0.7332659593
        0.3640787614       -0.7242523060
        0.2557760958       -0.7249948935
        0.2356208428       -0.7161151816
        0.2962624402       -0.7196275343
        0.1992801442       -0.7196524247
        0.1668684862       -0.7203057726
        0.3394090780       -0.7141616226
        0.4630332318       -0.6768440684
        0.7135508963       -0.7363949333
        0.6719107485       -0.7218344071
        0.7569598040       -0.7510733166
        0.8027763450       -0.7658823143
        0.8516398094       -0.7807428999
        0.6319045529       -0.7077927294
        0.5935647790       -0.6943096789
        0.5572603072       -0.6816352516
        0.5226952439       -0.6695184005
        0.9607363803       -0.8650404286
        0.0295148281       -0.8124221679
        0.0196167639       -0.8180581853
        0.0097174694       -0.8456623310
        0.0000000000       -0.8511053926
        0.1208097718       -0.7250479381
        0.0399743563       -0.7977933366
        0.1363266877       -0.7192952906
        0.2164648780       -0.7070967945
        0.2749254605       -0.7102365391
        0.3151739260       -0.7040324593
        0.1824008463       -0.7102257585
        0.1514101734       -0.7118769130
        0.3860658066       -0.7068129226
        0.4088085540       -0.6863005927
        0.4328502660       -0.6662795341
        0.4890502384       -0.6578926267
        0.9036540704       -0.7952692706
        1.0000000000       -0.8892877127
        0.9568909975       -0.8096119365
        0.0097046635       -0.8236142228
        0.0097271759       -0.8346592586
        0.1054744126       -0.7243539082
        0.0926152020       -0.7335333566
        0.0826439236       -0.7470993497
        0.0708906920       -0.7647863763
        0.0619536431       -0.7721671269
        0.0513770780       -0.7795899899
        0.0404575311       -0.7857322721
        0.0293456860       -0.8020601365
        0.3600573946       -0.6969840889
        0.2541788956       -0.7009636634
        0.2339102029       -0.6925279969
        0.2933017570       -0.6955904515
        0.1981576112       -0.6986080344
        0.1662430010       -0.7018961564
        0.3344362777       -0.6870439611
        0.4571447450       -0.6440300170
        0.7479275676       -0.7051188864
        0.7053117020       -0.6921736446
        0.6638650705       -0.6791699060
        0.7925814663       -0.7174679564
        0.8406765697       -0.7295944518
        0.8932736909       -0.7427099550
        0.6238097817       -0.6669483614
        0.5857341510       -0.6558000881
        0.5498296753       -0.6449935088
        0.5159982393       -0.6346104248
        1.0000000000       -0.8300999200
        0.0195287201       -0.8072260782
        0.0097024160       -0.8126675097
        0.0000000000       -0.8400827555
        0.1106880725       -0.7090754315
        0.0721529331       -0.7543758755
        0.0297400425       -0.7911647570
        0.1248235851       -0.7112106691
        0.1369064959       -0.7036442368
        0.2141501203       -0.6854179281
        0.2728756673       -0.6858808553
        0.3104465211       -0.6787747377
        0.1808500562       -0.6908382117
        0.1509425204       -0.6941832483
        0.3810570003       -0.6779904831
        0.4015948604       -0.6543644623
        0.4265648442       -0.6416660842
        0.4873660637       -0.6292089941
        0.9518762953       -0.7551562170
        1.0000000000       -0.7720786531
        0.0000000000       -0.8181205657
        0.0000000000       -0.8290845785
        0.0942284943       -0.7164993049
        0.0791706830       -0.7350064992
        0.0700427338       -0.7415621536
        0.0608226163       -0.7607756346
        0.0506189139       -0.7675951848
        0.0401675675       -0.7741321451
        0.0297735470       -0.7799111089
        0.0195383250       -0.7963650384
        0.3538196522       -0.6687305175
        0.2517937851       -0.6756457272
        0.2308822536       -0.6704857497
        0.2904985965       -0.6740136940
        0.1953905083       -0.6784450486
        0.1648632945       -0.6839620507
        0.3290305164       -0.6615286015
        0.4359290196       -0.6156833429
        0.4674078756       -0.6078083255
        0.7387780077       -0.6604545757
        0.7811338749       -0.6720985097
        0.6961442583       -0.6487842771
        0.6542190280       -0.6363567523
        0.8276571236       -0.6803556667
        0.8781854495       -0.6899942994
        0.9359422213       -0.7060103133
        0.6143381551       -0.6275062987
        0.5760473541       -0.6185307562
        0.5413620307       -0.6098491769
        0.5051262651       -0.6005778948
        0.0096898355       -0.8017419489
        0.0000000000       -0.8071872495
        0.0952219921       -0.6995629312
        0.1222930268       -0.6978808783
        0.0813231363       -0.7232029777
        0.0596946721       -0.7490129643
        0.0196352948       -0.7853532744
        0.1359806931       -0.6871875332
        0.2099044637       -0.6648807770
        0.2729344364       -0.6589090662
        0.3015476031       -0.6543394395
        0.1777320237       -0.6719305237
        0.1500889863       -0.6767381749
        0.3727596803       -0.6544279238
        0.4066352617       -0.6236382851
        1.0000000000       -0.7149436059
        0.0803617760       -0.7068666274
        0.1082412163       -0.6920363331
        0.0688758647       -0.7296420566
        0.0571246490       -0.7355979776
        0.0495843115       -0.7563164007
        0.0396069764       -0.7627895180
        0.0295044944       -0.7688900279
        0.0195169412       -0.7745086330
        0.0097200324       -0.7908149196
        0.3494014547       -0.6412432637
        0.2463363165       -0.6521906827
        0.2243649688       -0.6534997935
        0.1912107023       -0.6595253106
        0.1632242535       -0.6682019495
        0.3236076229       -0.6408243211
        0.3793680840       -0.6306690186
        0.4436463748       -0.5830757128
        0.4141638207       -0.5926824260
        0.4761207500       -0.5758420014
        0.7289912698       -0.6168951933
        0.7733143032       -0.6260204171
        0.8123420038       -0.6390079918
        0.6856587623       -0.6069568923
        0.6424434024       -0.5908844589
        0.8590325880       -0.6305957966
        0.9147973832       -0.6540057712
        0.6021979245       -0.5959602400
        0.5682171327       -0.5815420178
        0.5324413600       -0.5827961196
        0.0000000000       -0.7962709882