TITLE = "Visualization of the volumetric solution"
VARIABLES = "x","y","Adjoint_Density","Adjoint_Momentum_x","Adjoint_Momentum_y","Adjoint_Energy","Sensitivity_x","Sensitivity_y","Surface_Sensitivity"
ZONE NODES= 2400, ELEMENTS= 2291, DATAPACKING=POINT, ZONETYPE=FEQUADRILATERAL
0.000000e+00	1.250000e+00	-4.437941e-01	1.259753e-02	2.412778e-04	1.549754e-05	0.000000e+00	0.000000e+00	0.000000e+00	
0.000000e+00	1.218354e+00	-3.788700e-01	1.075490e-02	9.514283e-05	1.317790e-05	0.000000e+00	0.000000e+00	0.000000e+00	
3.448276e-02	1.218354e+00	-5.060072e-01	1.435433e-02	6.924079e-04	1.748421e-05	0.000000e+00	0.000000e+00	0.000000e+00	
3.448276e-02	1.250000e+00	-6.366791e-01	1.806277e-02	8.258508e-04	2.209321e-05	0.000000e+00	0.000000e+00	0.000000e+00	
0.000000e+00	1.186709e+00	-3.833369e-01	1.088501e-02	9.307895e-05	1.324733e-05	0.000000e+00	0.000000e+00	0.000000e+00	
3.448276e-02	1.186709e+00	-5.109759e-01	1.449889e-02	6.928301e-04	1.759248e-05	0.000000e+00	0.000000e+00	0.000000e+00	
0.000000e+00	1.155063e+00	-3.833035e-01	1.088399e-02	1.114974e-04	1.322582e-05	0.000000e+00	0.000000e+00	0.000000e+00	
3.448276e-02	1.155063e+00	-5.093369e-01	1.445049e-02	7.150287e-04	1.755341e-05	0.000000e+00	0.000000e+00	0.000000e+00	
0.000000e+00	1.123418e+00	-3.835278e-01	1.089165e-02	8.994939e-05	1.323129e-05	0.000000e+00	0.000000e+00	0.000000e+00	
3.448276e-02	1.123418e+00	-5.088255e-01	1.443649e-02	6.971222e-04	1.756597e-05	0.000000e+00	0.000000e+00	0.000000e+00	
0.000000e+00	1.091772e+00	-3.836395e-01	1.089686e-02	4.728511e-05	1.322768e-05	0.000000e+00	0.000000e+00	0.000000e+00	
3.448276e-02	1.091772e+00	-5.086112e-01	1.443227e-02	6.602914e-04	1.756225e-05	0.000000e+00	0.000000e+00	0.000000e+00	
0.000000e+00	1.060127e+00	-3.835314e-01	1.089537e-02	8.049898e-06	1.322742e-05	0.000000e+00	0.000000e+00	0.000000e+00	
3.448276e-02	1.060127e+00	-5.089969e-01	1.444536e-02	6.264559e-04	1.756403e-05	0.000000e+00	0.000000e+00	0.000000e+00	
0.000000e+00	1.028481e+00	-3.835573e-01	1.089715e-02	-1.858640e-05	1.322973e-05	0.000000e+00	0.000000e+00	0.000000e+00	
3.448276e-02	1.028481e+00	-5.099914e-01	1.447567e-02	6.030826e-04	1.756737e-05	0.000000e+00	0.000000e+00	0.000000e+00	
0.000000e+00	9.968354e-01	-3.835505e-01	1.089704e-02	-2.362495e-05	1.323277e-05	0.000000e+00	0.000000e+00	0.000000e+00	
3.448276e-02	9.968354e-01	-5.110272e-01	1.450622e-02	5.981714e-04	1.757124e-05	0.000000e+00	0.000000e+00	0.000000e+00	
0.000000e+00	9.651899e-01	-3.835800e-01	1.089731e-02	-1.167964e-05	1.323569e-05	0.000000e+00	0.000000e+00	0.000000e+00	
3.448276e-02	9.651899e-01	-5.117978e-01	1.452825e-02	6.074740e-04	1.757475e-05	0.000000e+00	0.000000e+00	0.000000e+00	
0.000000e+00	9.335443e-01	-3.835892e-01	1.089666e-02	9.129877e-06	1.323714e-05	0.000000e+00	0.000000e+00	0.000000e+00	
3.448276e-02	9.335443e-01	-5.120720e-01	1.453538e-02	6.243853e-04	1.757658e-05	0.000000e+00	0.000000e+00	0.000000e+00	
0.000000e+00	9.018987e-01	-3.835885e-01	1.089581e-02	2.906146e-05	1.323714e-05	0.000000e+00	0.000000e+00	0.000000e+00	
3.448276e-02	9.018987e-01	-5.119167e-01	1.452996e-02	6.407756e-04	1.757685e-05	0.000000e+00	0.000000e+00	0.000000e+00	
0.000000e+00	8.702532e-01	-3.835740e-01	1.089485e-02	4.211468e-05	1.323601e-05	0.000000e+00	0.000000e+00	0.000000e+00	
3.448276e-02	8.702532e-01	-5.115205e-01	1.451776e-02	6.518004e-04	1.757586e-05	0.000000e+00	0.000000e+00	0.000000e+00	
0.000000e+00	8.386076e-01	-3.835559e-01	1.089413e-02	4.665742e-05	1.323448e-05	0.000000e+00	0.000000e+00	0.000000e+00	
3.448276e-02	8.386076e-01	-5.111064e-01	1.450539e-02	6.560065e-04	1.757437e-05	0.000000e+00	0.000000e+00	0.000000e+00	
0.000000e+00	8.069620e-01	-3.835413e-01	1.089375e-02	4.478778e-05	1.323312e-05	0.000000e+00	0.000000e+00	0.000000e+00	
3.448276e-02	8.069620e-01	-5.108209e-01	1.449702e-02	6.551562e-04	1.757310e-05	0.000000e+00	0.000000e+00	0.000000e+00	
0.000000e+00	7.753165e-01	-3.835337e-01	1.089372e-02	3.927584e-05	1.323064e-05	0.000000e+00	0.000000e+00	0.000000e+00	
3.448276e-02	7.753165e-01	-5.107032e-01	1.449371e-02	6.514870e-04	1.757199e-05	0.000000e+00	0.000000e+00	0.000000e+00	
0.000000e+00	7.436709e-01	-3.835154e-01	1.089326e-02	3.472670e-05	1.323487e-05	0.000000e+00	0.000000e+00	0.000000e+00	
3.448276e-02	7.436709e-01	-5.106982e-01	1.449369e-02	6.479049e-04	1.757177e-05	0.000000e+00	0.000000e+00	0.000000e+00	
0.000000e+00	7.120253e-01	-3.835287e-01	1.089386e-02	3.124725e-05	1.322859e-05	0.000000e+00	0.000000e+00	0.000000e+00	
3.448276e-02	7.120253e-01	-5.107943e-01	1.449660e-02	6.452447e-04	1.757145e-05	0.000000e+00	0.000000e+00	0.000000e+00	
0.000000e+00	6.803797e-01	-3.835136e-01	1.089338e-02	2.913198e-05	1.323336e-05	0.000000e+00	0.000000e+00	0.000000e+00	
3.448276e-02	6.803797e-01	-5.108563e-01	1.449845e-02	6.437759e-04	1.757175e-05	0.000000e+00	0.000000e+00	0.000000e+00	
0.000000e+00	6.487342e-01	-3.835146e-01	1.089342e-02	2.937991e-05	1.323190e-05	0.000000e+00	0.000000e+00	0.000000e+00	
3.448276e-02	6.487342e-01	-5.109105e-01	1.450004e-02	6.435769e-04	1.757169e-05	0.000000e+00	0.000000e+00	0.000000e+00	
0.000000e+00	6.170886e-01	-3.835136e-01	1.089337e-02	2.967338e-05	1.323199e-05	0.000000e+00	0.000000e+00	0.000000e+00	
3.448276e-02	6.170886e-01	-5.109342e-01	1.450072e-02	6.435879e-04	1.757187e-05	0.000000e+00	0.000000e+00	0.000000e+00	
0.000000e+00	5.854430e-01	-3.835118e-01	1.089330e-02	3.012688e-05	1.323204e-05	0.000000e+00	0.000000e+00	0.000000e+00	
3.448276e-02	5.854430e-01	-5.109348e-01	1.450071e-02	6.438333e-04	1.757188e-05	0.000000e+00	0.000000e+00	0.000000e+00	
0.000000e+00	5.537975e-01	-3.835112e-01	1.089326e-02	3.042114e-05	1.323204e-05	0.000000e+00	0.000000e+00	0.000000e+00	
3.448276e-02	5.537975e-01	-5.109270e-01	1.450047e-02	6.439517e-04	1.757189e-05	0.000000e+00	0.000000e+00	0.000000e+00	
0.000000e+00	5.221519e-01	-3.835110e-01	1.089325e-02	3.053121e-05	1.323203e-05	0.000000e+00	0.000000e+00	0.000000e+00	
3.448276e-02	5.221519e-01	-5.109194e-01	1.450024e-02	6.439800e-04	1.757188e-05	0.000000e+00	0.000000e+00	0.000000e+00	
0.000000e+00	4.905063e-01	-3.835112e-01	1.089325e-02	3.051090e-05	1.323202e-05	0.000000e+00	0.000000e+00	0.000000e+00	
3.448276e-02	4.905063e-01	-5.109153e-01	1.450011e-02	6.439369e-04	1.757187e-05	0.000000e+00	0.000000e+00	0.000000e+00	
0.000000e+00	4.588608e-01	-3.835114e-01	1.089325e-02	3.045596e-05	1.323202e-05	0.000000e+00	0.000000e+00	0.000000e+00	
3.448276e-02	4.588608e-01	-5.109145e-01	1.450009e-02	6.438865e-04	1.757186e-05	0.000000e+00	0.000000e+00	0.000000e+00	
0.000000e+00	4.272152e-01	-3.835117e-01	1.089326e-02	3.041095e-05	1.323202e-05	0.000000e+00	0.000000e+00	0.000000e+00	
3.448276e-02	4.272152e-01	-5.109155e-01	1.450011e-02	6.438496e-04	1.757187e-05	0.000000e+00	0.000000e+00	0.000000e+00	
0.000000e+00	3.955696e-01	-3.835118e-01	1.089326e-02	3.039368e-05	1.323203e-05	0.000000e+00	0.000000e+00	0.000000e+00	
3.448276e-02	3.955696e-01	-5.109168e-01	1.450015e-02	6.438358e-04	1.757187e-05	0.000000e+00	0.000000e+00	0.000000e+00	
0.000000e+00	3.639241e-01	-3.835120e-01	1.089326e-02	3.039642e-05	1.323203e-05	0.000000e+00	0.000000e+00	0.000000e+00	
3.448276e-02	3.639241e-01	-5.109178e-01	1.450017e-02	6.438365e-04	1.757187e-05	0.000000e+00	0.000000e+00	0.000000e+00	
0.000000e+00	3.322785e-01	-3.835120e-01	1.089326e-02	3.040841e-05	1.323203e-05	0.000000e+00	0.000000e+00	0.000000e+00	
3.448276e-02	3.322785e-01	-5.109182e-01	1.450018e-02	6.438443e-04	1.757188e-05	0.000000e+00	0.000000e+00	0.000000e+00	
0.000000e+00	3.006329e-01	-3.835121e-01	1.089326e-02	3.042070e-05	1.323204e-05	0.000000e+00	0.000000e+00	0.000000e+00	
3.448276e-02	3.006329e-01	-5.109182e-01	1.450018e-02	6.438529e-04	1.757188e-05	0.000000e+00	0.000000e+00	0.000000e+00	
0.000000e+00	2.689873e-01	-3.835121e-01	1.089326e-02	3.042998e-05	1.323204e-05	0.000000e+00	0.000000e+00	0.000000e+00	
3.448276e-02	2.689873e-01	-5.109181e-01	1.450018e-02	6.438601e-04	1.757188e-05	0.000000e+00	0.000000e+00	0.000000e+00	
0.000000e+00	2.373418e-01	-3.835121e-01	1.089326e-02	3.043600e-05	1.323204e-05	0.000000e+00	0.000000e+00	0.000000e+00	
3.448276e-02	2.373418e-01	-5.109180e-01	1.450017e-02	6.438659e-04	1.757188e-05	0.000000e+00	0.000000e+00	0.000000e+00	
0.000000e+00	2.056962e-01	-3.835121e-01	1.089326e-02	3.043997e-05	1.323204e-05	0.000000e+00	0.000000e+00	0.000000e+00	
3.448276e-02	2.056962e-01	-5.109179e-01	1.450017e-02	6.438710e-04	1.757188e-05	0.000000e+00	0.000000e+00	0.000000e+00	
0.000000e+00	1.740506e-01	-3.835120e-01	1.089326e-02	3.044299e-05	1.323204e-05	0.000000e+00	0.000000e+00	0.000000e+00	
3.448276e-02	1.740506e-01	-5.109178e-01	1.450016e-02	6.438761e-04	1.757188e-05	0.000000e+00	0.000000e+00	0.000000e+00	
0.000000e+00	1.424051e-01	-3.835119e-01	1.089325e-02	3.044569e-05	1.323203e-05	0.000000e+00	0.000000e+00	0.000000e+00	
3.448276e-02	1.424051e-01	-5.109176e-01	1.450016e-02	6.438819e-04	1.757188e-05	0.000000e+00	0.000000e+00	0.000000e+00	
0.000000e+00	1.107595e-01	-3.835118e-01	1.089325e-02	3.044833e-05	1.323203e-05	0.000000e+00	0.000000e+00	0.000000e+00	
3.448276e-02	1.107595e-01	-5.109174e-01	1.450015e-02	6.438888e-04	1.757188e-05	0.000000e+00	0.000000e+00	0.000000e+00	
0.000000e+00	7.911392e-02	-3.835115e-01	1.089324e-02	3.045106e-05	1.323203e-05	0.000000e+00	0.000000e+00	0.000000e+00	
3.448276e-02	7.911392e-02	-5.109171e-01	1.450014e-02	6.438975e-04	1.757188e-05	0.000000e+00	0.000000e+00	0.000000e+00	
0.000000e+00	4.746835e-02	-3.835112e-01	1.089323e-02	3.045407e-05	1.323203e-05	0.000000e+00	0.000000e+00	0.000000e+00	
3.448276e-02	4.746835e-02	-5.109166e-01	1.450013e-02	6.439089e-04	1.757188e-05	0.000000e+00	0.000000e+00	0.000000e+00	
0.000000e+00	1.582278e-02	-3.835107e-01	1.089322e-02	3.045765e-05	1.323202e-05	0.000000e+00	0.000000e+00	0.000000e+00	
3.448276e-02	1.582278e-02	-5.109159e-01	1.450011e-02	6.439243e-04	1.757188e-05	0.000000e+00	0.000000e+00	0.000000e+00	
0.000000e+00	-1.582278e-02	-3.835101e-01	1.089320e-02	3.046225e-05	1.323202e-05	0.000000e+00	0.000000e+00	0.000000e+00	
3.448276e-02	-1.582278e-02	-5.109150e-01	1.450008e-02	6.439452e-04	1.757187e-05	0.000000e+00	0.000000e+00	0.000000e+00	
0.000000e+00	-4.746835e-02	-3.835092e-01	1.089317e-02	3.046839e-05	1.323201e-05	0.000000e+00	0.000000e+00	0.000000e+00	
3.448276e-02	-4.746835e-02	-5.109137e-01	1.450004e-02	6.439737e-04	1.757187e-05	0.000000e+00	0.000000e+00	0.000000e+00	
0.000000e+00	-7.911392e-02	-3.835080e-01	1.089314e-02	3.047673e-05	1.323200e-05	0.000000e+00	0.000000e+00	0.000000e+00	
3.448276e-02	-7.911392e-02	-5.109119e-01	1.449999e-02	6.440121e-04	1.757187e-05	0.000000e+00	0.000000e+00	0.000000e+00	
0.000000e+00	-1.107595e-01	-3.835064e-01	1.089309e-02	3.048793e-05	1.323199e-05	0.000000e+00	0.000000e+00	0.000000e+00	
3.448276e-02	-1.107595e-01	-5.109095e-01	1.449991e-02	6.440635e-04	1.757186e-05	0.000000e+00	0.000000e+00	0.000000e+00	
0.000000e+00	-1.424051e-01	-3.835043e-01	1.089303e-02	3.050293e-05	1.323198e-05	0.000000e+00	0.000000e+00	0.000000e+00	
3.448276e-02	-1.424051e-01	-5.109063e-01	1.449982e-02	6.441312e-04	1.757186e-05	0.000000e+00	0.000000e+00	0.000000e+00	
0.000000e+00	-1.740506e-01	-3.835016e-01	1.089295e-02	3.052253e-05	1.323197e-05	0.000000e+00	0.000000e+00	0.000000e+00	
3.448276e-02	-1.740506e-01	-5.109021e-01	1.449969e-02	6.442189e-04	1.757185e-05	0.000000e+00	0.000000e+00	0.000000e+00	
0.000000e+00	-2.056962e-01	-3.834982e-01	1.089285e-02	3.054814e-05	1.323196e-05	0.000000e+00	0.000000e+00	0.000000e+00	
3.448276e-02	-2.056962e-01	-5.108968e-01	1.449953e-02	6.443311e-04	1.757184e-05	0.000000e+00	0.000000e+00	0.000000e+00	
0.000000e+00	-2.373418e-01	-3.834940e-01	1.089273e-02	3.058044e-05	1.323194e-05	0.000000e+00	0.000000e+00	0.000000e+00	
3.448276e-02	-2.373418e-01	-5.108900e-01	1.449933e-02	6.444713e-04	1.757182e-05	0.000000e+00	0.000000e+00	0.000000e+00	
0.000000e+00	-2.689873e-01	-3.834888e-01	1.089257e-02	3.062171e-05	1.323192e-05	0.000000e+00	0.000000e+00	0.000000e+00	
3.448276e-02	-2.689873e-01	-5.108815e-01	1.449908e-02	6.446449e-04	1.757181e-05	0.000000e+00	0.000000e+00	0.000000e+00	
0.000000e+00	-3.006329e-01	-3.834825e-01	1.089239e-02	3.067124e-05	1.323191e-05	0.000000e+00	0.000000e+00	0.000000e+00	
3.448276e-02	-3.006329e-01	-5.108712e-01	1.449877e-02	6.448525e-04	1.757178e-05	0.000000e+00	0.000000e+00	0.000000e+00	
0.000000e+00	-3.322785e-01	-3.834751e-01	1.089217e-02	3.073329e-05	1.323190e-05	0.000000e+00	0.000000e+00	0.000000e+00	
3.448276e-02	-3.322785e-01	-5.108588e-01	1.449840e-02	6.451006e-04	1.757176e-05	0.000000e+00	0.000000e+00	0.000000e+00	
0.000000e+00	-3.639241e-01	-3.834664e-01	1.089191e-02	3.080063e-05	1.323188e-05	0.000000e+00	0.000000e+00	0.000000e+00	
3.448276e-02	-3.639241e-01	-5.108442e-01	1.449796e-02	6.453796e-04	1.757173e-05	0.000000e+00	0.000000e+00	0.000000e+00	
0.000000e+00	-3.955696e-01	-3.834568e-01	1.089163e-02	3.088442e-05	1.323189e-05	0.000000e+00	0.000000e+00	0.000000e+00	
3.448276e-02	-3.955696e-01	-5.108274e-01	1.449746e-02	6.457009e-04	1.757170e-05	0.000000e+00	0.000000e+00	0.000000e+00	
0.000000e+00	-4.272152e-01	-3.834459e-01	1.089131e-02	3.095717e-05	1.323189e-05	0.000000e+00	0.000000e+00	0.000000e+00	
3.448276e-02	-4.272152e-01	-5.108083e-01	1.449689e-02	6.460251e-04	1.757165e-05	0.000000e+00	0.000000e+00	0.000000e+00	
0.000000e+00	-4.588608e-01	-3.834349e-01	1.089098e-02	3.102226e-05	1.323190e-05	0.000000e+00	0.000000e+00	0.000000e+00	
3.448276e-02	-4.588608e-01	-5.107878e-01	1.449627e-02	6.464034e-04	1.757164e-05	0.000000e+00	0.000000e+00	0.000000e+00	
0.000000e+00	-4.905063e-01	-3.834219e-01	1.089060e-02	3.100015e-05	1.323192e-05	0.000000e+00	0.000000e+00	0.000000e+00	
3.448276e-02	-4.905063e-01	-5.107637e-01	1.449556e-02	6.466197e-04	1.757150e-05	0.000000e+00	0.000000e+00	0.000000e+00	
0.000000e+00	-5.221519e-01	-3.834071e-01	1.089013e-02	3.155462e-05	1.323353e-05	0.000000e+00	0.000000e+00	0.000000e+00	
3.448276e-02	-5.221519e-01	-5.107407e-01	1.449487e-02	6.470665e-04	1.757165e-05	0.000000e+00	0.000000e+00	0.000000e+00	
0.000000e+00	-5.537975e-01	-3.834075e-01	1.089022e-02	3.110653e-05	1.322892e-05	0.000000e+00	0.000000e+00	0.000000e+00	
3.448276e-02	-5.537975e-01	-5.107370e-01	1.449476e-02	6.471129e-04	1.757138e-05	0.000000e+00	0.000000e+00	0.000000e+00	
0.000000e+00	-5.854430e-01	-3.833814e-01	1.088934e-02	3.125542e-05	1.323523e-05	0.000000e+00	0.000000e+00	0.000000e+00	
3.448276e-02	-5.854430e-01	-5.107001e-01	1.449367e-02	6.472984e-04	1.757165e-05	0.000000e+00	0.000000e+00	0.000000e+00	
0.000000e+00	-6.170886e-01	-3.833897e-01	1.088969e-02	3.140197e-05	1.322906e-05	0.000000e+00	0.000000e+00	0.000000e+00	
3.448276e-02	-6.170886e-01	-5.107069e-01	1.449388e-02	6.473616e-04	1.757131e-05	0.000000e+00	0.000000e+00	0.000000e+00	
0.000000e+00	-6.487342e-01	-3.833720e-01	1.088909e-02	3.091699e-05	1.323377e-05	0.000000e+00	0.000000e+00	0.000000e+00	
3.448276e-02	-6.487342e-01	-5.106797e-01	1.449308e-02	6.470336e-04	1.757148e-05	0.000000e+00	0.000000e+00	0.000000e+00	
0.000000e+00	-6.803797e-01	-3.833715e-01	1.088910e-02	3.131694e-05	1.323219e-05	0.000000e+00	0.000000e+00	0.000000e+00	
3.448276e-02	-6.803797e-01	-5.106705e-01	1.449283e-02	6.468147e-04	1.757120e-05	0.000000e+00	0.000000e+00	0.000000e+00	
0.000000e+00	-7.120253e-01	-3.833695e-01	1.088905e-02	3.086879e-05	1.323213e-05	0.000000e+00	0.000000e+00	0.000000e+00	
3.448276e-02	-7.120253e-01	-5.106597e-01	1.449253e-02	6.460077e-04	1.757118e-05	0.000000e+00	0.000000e+00	0.000000e+00	
0.000000e+00	-7.436709e-01	-3.833650e-01	1.088893e-02	3.009049e-05	1.323198e-05	0.000000e+00	0.000000e+00	0.000000e+00	
3.448276e-02	-7.436709e-01	-5.106471e-01	1.449220e-02	6.449652e-04	1.757099e-05	0.000000e+00	0.000000e+00	0.000000e+00	
0.000000e+00	-7.753165e-01	-3.833576e-01	1.088875e-02	2.889304e-05	1.323175e-05	0.000000e+00	0.000000e+00	0.000000e+00	
3.448276e-02	-7.753165e-01	-5.106453e-01	1.449220e-02	6.435504e-04	1.757082e-05	0.000000e+00	0.000000e+00	0.000000e+00	
0.000000e+00	-8.069620e-01	-3.833450e-01	1.088840e-02	2.764267e-05	1.323142e-05	0.000000e+00	0.000000e+00	0.000000e+00	
3.448276e-02	-8.069620e-01	-5.106706e-01	1.449298e-02	6.422007e-04	1.757063e-05	0.000000e+00	0.000000e+00	0.000000e+00	
0.000000e+00	-8.386076e-01	-3.833256e-01	1.088783e-02	2.715060e-05	1.323099e-05	0.000000e+00	0.000000e+00	0.000000e+00	
3.448276e-02	-8.386076e-01	-5.107343e-01	1.449486e-02	6.416285e-04	1.757039e-05	0.000000e+00	0.000000e+00	0.000000e+00	
0.000000e+00	-8.702532e-01	-3.832966e-01	1.088690e-02	2.859627e-05	1.323036e-05	0.000000e+00	0.000000e+00	0.000000e+00	
3.448276e-02	-8.702532e-01	-5.108233e-01	1.449742e-02	6.428765e-04	1.757000e-05	0.000000e+00	0.000000e+00	0.000000e+00	
0.000000e+00	-9.018987e-01	-3.832507e-01	1.088541e-02	3.280016e-05	1.322930e-05	0.000000e+00	0.000000e+00	0.000000e+00	
3.448276e-02	-9.018987e-01	-5.108798e-01	1.449893e-02	6.467101e-04	1.756923e-05	0.000000e+00	0.000000e+00	0.000000e+00	
0.000000e+00	-9.335443e-01	-3.831749e-01	1.088299e-02	3.938124e-05	1.322758e-05	0.000000e+00	0.000000e+00	0.000000e+00	
3.448276e-02	-9.335443e-01	-5.108027e-01	1.449647e-02	6.530175e-04	1.756781e-05	0.000000e+00	0.000000e+00	0.000000e+00	
0.000000e+00	-9.651899e-01	-3.830488e-01	1.087915e-02	4.598103e-05	1.322499e-05	0.000000e+00	0.000000e+00	0.000000e+00	
3.448276e-02	-9.651899e-01	-5.104798e-01	1.448682e-02	6.601833e-04	1.756553e-05	0.000000e+00	0.000000e+00	0.000000e+00	
0.000000e+00	-9.968354e-01	-3.828516e-01	1.087344e-02	4.856811e-05	1.322165e-05	0.000000e+00	0.000000e+00	0.000000e+00	
3.448276e-02	-9.968354e-01	-5.098496e-01	1.446831e-02	6.653417e-04	1.756241e-05	0.000000e+00	0.000000e+00	0.000000e+00	
0.000000e+00	-1.028481e+00	-3.825708e-01	1.086562e-02	4.302146e-05	1.321809e-05	0.000000e+00	0.000000e+00	0.000000e+00	
3.448276e-02	-1.028481e+00	-5.089779e-01	1.444301e-02	6.656300e-04	1.755908e-05	0.000000e+00	0.000000e+00	0.000000e+00	
0.000000e+00	-1.060127e+00	-3.822075e-01	1.085575e-02	2.753246e-05	1.321523e-05	0.000000e+00	0.000000e+00	0.000000e+00	
3.448276e-02	-1.060127e+00	-5.080345e-01	1.441592e-02	6.598739e-04	1.755568e-05	0.000000e+00	0.000000e+00	0.000000e+00	
0.000000e+00	-1.091772e+00	-3.817936e-01	1.084456e-02	5.272933e-06	1.321437e-05	0.000000e+00	0.000000e+00	0.000000e+00	
3.448276e-02	-1.091772e+00	-5.073491e-01	1.439652e-02	6.505686e-04	1.755514e-05	0.000000e+00	0.000000e+00	0.000000e+00	
0.000000e+00	-1.123418e+00	-3.813479e-01	1.083227e-02	-1.696749e-05	1.321564e-05	0.000000e+00	0.000000e+00	0.000000e+00	
3.448276e-02	-1.123418e+00	-5.069849e-01	1.438643e-02	6.432100e-04	1.755297e-05	0.000000e+00	0.000000e+00	0.000000e+00	
0.000000e+00	-1.155063e+00	-3.809819e-01	1.082167e-02	-2.715685e-05	1.322095e-05	0.000000e+00	0.000000e+00	0.000000e+00	
3.448276e-02	-1.155063e+00	-5.073655e-01	1.439744e-02	6.424964e-04	1.756432e-05	0.000000e+00	0.000000e+00	0.000000e+00	
0.000000e+00	-1.186709e+00	-3.805217e-01	1.080763e-02	-2.433281e-05	1.322580e-05	0.000000e+00	0.000000e+00	0.000000e+00	
3.448276e-02	-1.186709e+00	-5.075613e-01	1.440143e-02	7.159794e-04	1.753340e-05	0.000000e+00	0.000000e+00	0.000000e+00	
0.000000e+00	-1.218354e+00	-3.821017e-01	1.085073e-02	-7.971184e-05	1.324390e-05	0.000000e+00	0.000000e+00	0.000000e+00	
3.448276e-02	-1.218354e+00	-5.110227e-01	1.450774e-02	3.408881e-04	1.771029e-05	0.000000e+00	0.000000e+00	0.000000e+00	
6.896552e-02	1.218354e+00	-5.067223e-01	1.436414e-02	1.072383e-03	1.750125e-05	0.000000e+00	0.000000e+00	0.000000e+00	
6.896552e-02	1.250000e+00	-6.412904e-01	1.818690e-02	1.265181e-03	2.205465e-05	0.000000e+00	0.000000e+00	0.000000e+00	
6.896552e-02	1.186709e+00	-5.120558e-01	1.451959e-02	1.064443e-03	1.762521e-05	0.000000e+00	0.000000e+00	0.000000e+00	
6.896552e-02	1.155063e+00	-5.095129e-01	1.444419e-02	1.089918e-03	1.758395e-05	0.000000e+00	0.000000e+00	0.000000e+00	
6.896552e-02	1.123418e+00	-5.087618e-01	1.442287e-02	1.078509e-03	1.760224e-05	0.000000e+00	0.000000e+00	0.000000e+00	
6.896552e-02	1.091772e+00	-5.084780e-01	1.441632e-02	1.053979e-03	1.759958e-05	0.000000e+00	0.000000e+00	0.000000e+00	
6.896552e-02	1.060127e+00	-5.092364e-01	1.444008e-02	1.031838e-03	1.760215e-05	0.000000e+00	0.000000e+00	0.000000e+00	
6.896552e-02	1.028481e+00	-5.107892e-01	1.448657e-02	1.017202e-03	1.760460e-05	0.000000e+00	0.000000e+00	0.000000e+00	
6.896552e-02	9.968354e-01	-5.123742e-01	1.453312e-02	1.015539e-03	1.760721e-05	0.000000e+00	0.000000e+00	0.000000e+00	
6.896552e-02	9.651899e-01	-5.134942e-01	1.456542e-02	1.022872e-03	1.760956e-05	0.000000e+00	0.000000e+00	0.000000e+00	
6.896552e-02	9.335443e-01	-5.138600e-01	1.457532e-02	1.034532e-03	1.761077e-05	0.000000e+00	0.000000e+00	0.000000e+00	
6.896552e-02	9.018987e-01	-5.135941e-01	1.456679e-02	1.045013e-03	1.761101e-05	0.000000e+00	0.000000e+00	0.000000e+00	
6.896552e-02	8.702532e-01	-5.129979e-01	1.454884e-02	1.051660e-03	1.761045e-05	0.000000e+00	0.000000e+00	0.000000e+00	
6.896552e-02	8.386076e-01	-5.124006e-01	1.453115e-02	1.053923e-03	1.760953e-05	0.000000e+00	0.000000e+00	0.000000e+00	
6.896552e-02	8.069620e-01	-5.120016e-01	1.451946e-02	1.053314e-03	1.760872e-05	0.000000e+00	0.000000e+00	0.000000e+00	
6.896552e-02	7.753165e-01	-5.118531e-01	1.451521e-02	1.051231e-03	1.760804e-05	0.000000e+00	0.000000e+00	0.000000e+00	
6.896552e-02	7.436709e-01	-5.118695e-01	1.451578e-02	1.049404e-03	1.760778e-05	0.000000e+00	0.000000e+00	0.000000e+00	
6.896552e-02	7.120253e-01	-5.119957e-01	1.451954e-02	1.048095e-03	1.760756e-05	0.000000e+00	0.000000e+00	0.000000e+00	
6.896552e-02	6.803797e-01	-5.120921e-01	1.452238e-02	1.047343e-03	1.760763e-05	0.000000e+00	0.000000e+00	0.000000e+00	
6.896552e-02	6.487342e-01	-5.121659e-01	1.452454e-02	1.047227e-03	1.760758e-05	0.000000e+00	0.000000e+00	0.000000e+00	
6.896552e-02	6.170886e-01	-5.121921e-01	1.452529e-02	1.047098e-03	1.760765e-05	0.000000e+00	0.000000e+00	0.000000e+00	
6.896552e-02	5.854430e-01	-5.121914e-01	1.452526e-02	1.047097e-03	1.760762e-05	0.000000e+00	0.000000e+00	0.000000e+00	
6.896552e-02	5.537975e-01	-5.121808e-01	1.452494e-02	1.047015e-03	1.760764e-05	0.000000e+00	0.000000e+00	0.000000e+00	
6.896552e-02	5.221519e-01	-5.121714e-01	1.452466e-02	1.046948e-03	1.760762e-05	0.000000e+00	0.000000e+00	0.000000e+00	
6.896552e-02	4.905063e-01	-5.121671e-01	1.452453e-02	1.046878e-03	1.760762e-05	0.000000e+00	0.000000e+00	0.000000e+00	
6.896552e-02	4.588608e-01	-5.121670e-01	1.452452e-02	1.046838e-03	1.760762e-05	0.000000e+00	0.000000e+00	0.000000e+00	
6.896552e-02	4.272152e-01	-5.121689e-01	1.452457e-02	1.046816e-03	1.760762e-05	0.000000e+00	0.000000e+00	0.000000e+00	
6.896552e-02	3.955696e-01	-5.121708e-01	1.452462e-02	1.046810e-03	1.760762e-05	0.000000e+00	0.000000e+00	0.000000e+00	
6.896552e-02	3.639241e-01	-5.121720e-01	1.452466e-02	1.046811e-03	1.760763e-05	0.000000e+00	0.000000e+00	0.000000e+00	
6.896552e-02	3.322785e-01	-5.121724e-01	1.452467e-02	1.046813e-03	1.760763e-05	0.000000e+00	0.000000e+00	0.000000e+00	
6.896552e-02	3.006329e-01	-5.121725e-01	1.452467e-02	1.046816e-03	1.760763e-05	0.000000e+00	0.000000e+00	0.000000e+00	
6.896552e-02	2.689873e-01	-5.121723e-01	1.452466e-02	1.046819e-03	1.760763e-05	0.000000e+00	0.000000e+00	0.000000e+00	
6.896552e-02	2.373418e-01	-5.121722e-01	1.452466e-02	1.046822e-03	1.760763e-05	0.000000e+00	0.000000e+00	0.000000e+00	
6.896552e-02	2.056962e-01	-5.121721e-01	1.452465e-02	1.046826e-03	1.760763e-05	0.000000e+00	0.000000e+00	0.000000e+00	
6.896552e-02	1.740506e-01	-5.121720e-01	1.452465e-02	1.046830e-03	1.760763e-05	0.000000e+00	0.000000e+00	0.000000e+00	
6.896552e-02	1.424051e-01	-5.121719e-01	1.452465e-02	1.046835e-03	1.760763e-05	0.000000e+00	0.000000e+00	0.000000e+00	
6.896552e-02	1.107595e-01	-5.121717e-01	1.452464e-02	1.046841e-03	1.760763e-05	0.000000e+00	0.000000e+00	0.000000e+00	
6.896552e-02	7.911392e-02	-5.121714e-01	1.452463e-02	1.046850e-03	1.760763e-05	0.000000e+00	0.000000e+00	0.000000e+00	
6.896552e-02	4.746835e-02	-5.121710e-01	1.452462e-02	1.046861e-03	1.760763e-05	0.000000e+00	0.000000e+00	0.000000e+00	
6.896552e-02	1.582278e-02	-5.121705e-01	1.452460e-02	1.046878e-03	1.760763e-05	0.000000e+00	0.000000e+00	0.000000e+00	
6.896552e-02	-1.582278e-02	-5.121697e-01	1.452458e-02	1.046902e-03	1.760763e-05	0.000000e+00	0.000000e+00	0.000000e+00	
6.896552e-02	-4.746835e-02	-5.121686e-01	1.452454e-02	1.046935e-03	1.760763e-05	0.000000e+00	0.000000e+00	0.000000e+00	
6.896552e-02	-7.911392e-02	-5.121670e-01	1.452450e-02	1.046982e-03	1.760762e-05	0.000000e+00	0.000000e+00	0.000000e+00	
6.896552e-02	-1.107595e-01	-5.121649e-01	1.452443e-02	1.047046e-03	1.760761e-05	0.000000e+00	0.000000e+00	0.000000e+00	
6.896552e-02	-1.424051e-01	-5.121620e-01	1.452434e-02	1.047134e-03	1.760760e-05	0.000000e+00	0.000000e+00	0.000000e+00	
6.896552e-02	-1.740506e-01	-5.121582e-01	1.452423e-02	1.047250e-03	1.760758e-05	0.000000e+00	0.000000e+00	0.000000e+00	
6.896552e-02	-2.056962e-01	-5.121533e-01	1.452407e-02	1.047403e-03	1.760755e-05	0.000000e+00	0.000000e+00	0.000000e+00	
6.896552e-02	-2.373418e-01	-5.121468e-01	1.452388e-02	1.047598e-03	1.760751e-05	0.000000e+00	0.000000e+00	0.000000e+00	
6.896552e-02	-2.689873e-01	-5.121388e-01	1.452363e-02	1.047846e-03	1.760747e-05	0.000000e+00	0.000000e+00	0.000000e+00	
6.896552e-02	-3.006329e-01	-5.121288e-01	1.452332e-02	1.048150e-03	1.760740e-05	0.000000e+00	0.000000e+00	0.000000e+00	
6.896552e-02	-3.322785e-01	-5.121166e-01	1.452295e-02	1.048520e-03	1.760733e-05	0.000000e+00	0.000000e+00	0.000000e+00	
6.896552e-02	-3.639241e-01	-5.121021e-01	1.452251e-02	1.048946e-03	1.760722e-05	0.000000e+00	0.000000e+00	0.000000e+00	
6.896552e-02	-3.955696e-01	-5.120852e-01	1.452199e-02	1.049449e-03	1.760712e-05	0.000000e+00	0.000000e+00	0.000000e+00	
6.896552e-02	-4.272152e-01	-5.120658e-01	1.452140e-02	1.049972e-03	1.760696e-05	0.000000e+00	0.000000e+00	0.000000e+00	
6.896552e-02	-4.588608e-01	-5.120445e-01	1.452074e-02	1.050588e-03	1.760685e-05	0.000000e+00	0.000000e+00	0.000000e+00	
6.896552e-02	-4.905063e-01	-5.120221e-01	1.452007e-02	1.051092e-03	1.760662e-05	0.000000e+00	0.000000e+00	0.000000e+00	
6.896552e-02	-5.221519e-01	-5.119955e-01	1.451926e-02	1.051750e-03	1.760652e-05	0.000000e+00	0.000000e+00	0.000000e+00	
6.896552e-02	-5.537975e-01	-5.119876e-01	1.451902e-02	1.052051e-03	1.760623e-05	0.000000e+00	0.000000e+00	0.000000e+00	
6.896552e-02	-5.854430e-01	-5.119542e-01	1.451803e-02	1.052334e-03	1.760617e-05	0.000000e+00	0.000000e+00	0.000000e+00	
6.896552e-02	-6.170886e-01	-5.119587e-01	1.451817e-02	1.052388e-03	1.760590e-05	0.000000e+00	0.000000e+00	0.000000e+00	
6.896552e-02	-6.487342e-01	-5.119372e-01	1.451756e-02	1.051987e-03	1.760587e-05	0.000000e+00	0.000000e+00	0.000000e+00	
6.896552e-02	-6.803797e-01	-5.119337e-01	1.451749e-02	1.051477e-03	1.760566e-05	0.000000e+00	0.000000e+00	0.000000e+00	
6.896552e-02	-7.120253e-01	-5.119236e-01	1.451724e-02	1.050324e-03	1.760561e-05	0.000000e+00	0.000000e+00	0.000000e+00	
6.896552e-02	-7.436709e-01	-5.119157e-01	1.451709e-02	1.048805e-03	1.760546e-05	0.000000e+00	0.000000e+00	0.000000e+00	
6.896552e-02	-7.753165e-01	-5.119241e-01	1.451743e-02	1.046781e-03	1.760536e-05	0.000000e+00	0.000000e+00	0.000000e+00	
6.896552e-02	-8.069620e-01	-5.119745e-01	1.451902e-02	1.044596e-03	1.760521e-05	0.000000e+00	0.000000e+00	0.000000e+00	
6.896552e-02	-8.386076e-01	-5.120868e-01	1.452241e-02	1.042705e-03	1.760496e-05	0.000000e+00	0.000000e+00	0.000000e+00	
6.896552e-02	-8.702532e-01	-5.122492e-01	1.452722e-02	1.041914e-03	1.760451e-05	0.000000e+00	0.000000e+00	0.000000e+00	
6.896552e-02	-9.018987e-01	-5.123866e-01	1.453121e-02	1.042941e-03	1.760362e-05	0.000000e+00	0.000000e+00	0.000000e+00	
6.896552e-02	-9.335443e-01	-5.123623e-01	1.453035e-02	1.046116e-03	1.760211e-05	0.000000e+00	0.000000e+00	0.000000e+00	
6.896552e-02	-9.651899e-01	-5.120217e-01	1.452017e-02	1.050960e-03	1.759972e-05	0.000000e+00	0.000000e+00	0.000000e+00	
6.896552e-02	-9.968354e-01	-5.112846e-01	1.449841e-02	1.056059e-03	1.759644e-05	0.000000e+00	0.000000e+00	0.000000e+00	
6.896552e-02	-1.028481e+00	-5.102548e-01	1.446819e-02	1.060588e-03	1.759246e-05	0.000000e+00	0.000000e+00	0.000000e+00	
6.896552e-02	-1.060127e+00	-5.091952e-01	1.443729e-02	1.063151e-03	1.758778e-05	0.000000e+00	0.000000e+00	0.000000e+00	
6.896552e-02	-1.091772e+00	-5.085834e-01	1.441944e-02	1.068516e-03	1.758403e-05	0.000000e+00	0.000000e+00	0.000000e+00	
6.896552e-02	-1.123418e+00	-5.085599e-01	1.441886e-02	1.074285e-03	1.757730e-05	0.000000e+00	0.000000e+00	0.000000e+00	
6.896552e-02	-1.155063e+00	-5.096495e-01	1.444970e-02	1.101479e-03	1.757629e-05	0.000000e+00	0.000000e+00	0.000000e+00	
6.896552e-02	-1.186709e+00	-5.109691e-01	1.448372e-02	1.232880e-03	1.751066e-05	0.000000e+00	0.000000e+00	0.000000e+00	
6.896552e-02	-1.218354e+00	-5.143661e-01	1.459884e-02	7.145043e-04	1.783685e-05	0.000000e+00	0.000000e+00	0.000000e+00	
1.034483e-01	1.218354e+00	-5.075570e-01	1.437223e-02	1.383896e-03	1.749913e-05	0.000000e+00	0.000000e+00	0.000000e+00	
1.034483e-01	1.250000e+00	-6.436773e-01	1.824007e-02	1.621945e-03	2.199783e-05	0.000000e+00	0.000000e+00	0.000000e+00	
1.034483e-01	1.186709e+00	-5.126783e-01	1.452176e-02	1.370113e-03	1.762830e-05	0.000000e+00	0.000000e+00	0.000000e+00	
1.034483e-01	1.155063e+00	-5.095269e-01	1.442846e-02	1.392311e-03	1.758500e-05	0.000000e+00	0.000000e+00	0.000000e+00	
1.034483e-01	1.123418e+00	-5.086347e-01	1.440268e-02	1.385072e-03	1.760721e-05	0.000000e+00	0.000000e+00	0.000000e+00	
1.034483e-01	1.091772e+00	-5.084032e-01	1.439724e-02	1.369100e-03	1.760599e-05	0.000000e+00	0.000000e+00	0.000000e+00	
1.034483e-01	1.060127e+00	-5.094767e-01	1.442981e-02	1.355632e-03	1.760926e-05	0.000000e+00	0.000000e+00	0.000000e+00	
1.034483e-01	1.028481e+00	-5.114190e-01	1.448741e-02	1.347789e-03	1.761114e-05	0.000000e+00	0.000000e+00	0.000000e+00	
1.034483e-01	9.968354e-01	-5.133461e-01	1.454384e-02	1.348863e-03	1.761288e-05	0.000000e+00	0.000000e+00	0.000000e+00	
1.034483e-01	9.651899e-01	-5.146559e-01	1.458174e-02	1.355092e-03	1.761448e-05	0.000000e+00	0.000000e+00	0.000000e+00	
1.034483e-01	9.335443e-01	-5.150514e-01	1.459266e-02	1.363163e-03	1.761534e-05	0.000000e+00	0.000000e+00	0.000000e+00	