TITLE = "Visualization of the volumetric solution"
VARIABLES = "x","y","Adjoint_Density","Adjoint_Momentum_x","Adjoint_Momentum_y","Adjoint_Energy","Sensitivity_x","Sensitivity_y","Surface_Sensitivity"
ZONE NODES= 3200, ELEMENTS= 3081, DATAPACKING=POINT, ZONETYPE=FEQUADRILATERAL
-2.000000e+00	1.250000e+00	4.561268e-17	2.033294e-20	-2.173627e-22	-1.792028e-22	0.000000e+00	0.000000e+00	0.000000e+00	
-2.000000e+00	1.218354e+00	3.916152e-17	1.770926e-20	-7.793612e-22	-1.560142e-22	0.000000e+00	0.000000e+00	0.000000e+00	
-1.948718e+00	1.218354e+00	-2.133218e-17	3.211963e-21	-1.643159e-21	8.283781e-23	0.000000e+00	0.000000e+00	0.000000e+00	
-1.948718e+00	1.250000e+00	-2.479785e-17	5.126869e-21	-7.104684e-22	9.376291e-23	0.000000e+00	0.000000e+00	0.000000e+00	
-2.000000e+00	1.186709e+00	3.544013e-17	1.593263e-20	-1.515961e-21	-1.408911e-22	0.000000e+00	0.000000e+00	0.000000e+00	
-1.948718e+00	1.186709e+00	-2.011528e-17	2.915804e-21	-2.740906e-21	7.791870e-23	0.000000e+00	0.000000e+00	0.000000e+00	
-2.000000e+00	1.155063e+00	3.125567e-17	1.392859e-20	-2.173105e-21	-1.240842e-22	0.000000e+00	0.000000e+00	0.000000e+00	
-1.948718e+00	1.155063e+00	-1.838431e-17	2.596857e-21	-3.557945e-21	7.099175e-23	0.000000e+00	0.000000e+00	0.000000e+00	
-2.000000e+00	1.123418e+00	2.763242e-17	1.225438e-20	-2.772985e-21	-1.096088e-22	0.000000e+00	0.000000e+00	0.000000e+00	
-1.948718e+00	1.123418e+00	-1.661413e-17	2.370644e-21	-4.151976e-21	6.398734e-23	0.000000e+00	0.000000e+00	0.000000e+00	
-2.000000e+00	1.091772e+00	2.489645e-17	1.101949e-20	-3.303021e-21	-9.874120e-23	0.000000e+00	0.000000e+00	0.000000e+00	
-1.948718e+00	1.091772e+00	-1.507719e-17	2.195364e-21	-4.594353e-21	5.797251e-23	0.000000e+00	0.000000e+00	0.000000e+00	
-2.000000e+00	1.060127e+00	2.290302e-17	1.015165e-20	-3.777607e-21	-9.086828e-23	0.000000e+00	0.000000e+00	0.000000e+00	
-1.948718e+00	1.060127e+00	-1.384982e-17	2.055695e-21	-4.961204e-21	5.321948e-23	0.000000e+00	0.000000e+00	0.000000e+00	
-2.000000e+00	1.028481e+00	2.133043e-17	9.489308e-21	-4.208929e-21	-8.468668e-23	0.000000e+00	0.000000e+00	0.000000e+00	
-1.948718e+00	1.028481e+00	-1.286852e-17	1.919945e-21	-5.303470e-21	4.944937e-23	0.000000e+00	0.000000e+00	0.000000e+00	
-2.000000e+00	9.968354e-01	1.985882e-17	8.876023e-21	-4.606391e-21	-7.890570e-23	0.000000e+00	0.000000e+00	0.000000e+00	
-1.948718e+00	9.968354e-01	-1.201181e-17	1.772527e-21	-5.641620e-21	4.616499e-23	0.000000e+00	0.000000e+00	0.000000e+00	
-2.000000e+00	9.651899e-01	1.827192e-17	8.207970e-21	-4.975297e-21	-7.265648e-23	0.000000e+00	0.000000e+00	0.000000e+00	
-1.948718e+00	9.651899e-01	-1.116208e-17	1.606626e-21	-5.975200e-21	4.289706e-23	0.000000e+00	0.000000e+00	0.000000e+00	
-2.000000e+00	9.335443e-01	1.646890e-17	7.436826e-21	-5.315810e-21	-6.553526e-23	0.000000e+00	0.000000e+00	0.000000e+00	
-1.948718e+00	9.335443e-01	-1.023780e-17	1.424444e-21	-6.290938e-21	3.932653e-23	0.000000e+00	0.000000e+00	0.000000e+00	
-2.000000e+00	9.018987e-01	1.444204e-17	6.560087e-21	-5.625368e-21	-5.751237e-23	0.000000e+00	0.000000e+00	0.000000e+00	
-1.948718e+00	9.018987e-01	-9.198689e-18	1.232936e-21	-6.573060e-21	3.530166e-23	0.000000e+00	0.000000e+00	0.000000e+00	
-2.000000e+00	8.702532e-01	1.223715e-17	5.599534e-21	-5.899245e-21	-4.877186e-23	0.000000e+00	0.000000e+00	0.000000e+00	
-1.948718e+00	8.702532e-01	-8.036911e-18	1.040332e-21	-6.807463e-21	3.079890e-23	0.000000e+00	0.000000e+00	0.000000e+00	
-2.000000e+00	8.386076e-01	9.921514e-18	4.586354e-21	-6.132274e-21	-3.958263e-23	0.000000e+00	0.000000e+00	0.000000e+00	
-1.948718e+00	8.386076e-01	-6.764199e-18	8.539082e-22	-6.984717e-21	2.587090e-23	0.000000e+00	0.000000e+00	0.000000e+00	
-2.000000e+00	8.069620e-01	7.561676e-18	3.549904e-21	-6.319393e-21	-3.020962e-23	0.000000e+00	0.000000e+00	0.000000e+00	
-1.948718e+00	8.069620e-01	-5.401515e-18	6.785032e-22	-7.099831e-21	2.060440e-23	0.000000e+00	0.000000e+00	0.000000e+00	
-2.000000e+00	7.753165e-01	5.213440e-18	2.513769e-21	-6.456448e-21	-2.087425e-23	0.000000e+00	0.000000e+00	0.000000e+00	
-1.948718e+00	7.753165e-01	-3.972888e-18	5.162288e-22	-7.151854e-21	1.509604e-23	0.000000e+00	0.000000e+00	0.000000e+00	
-2.000000e+00	7.436709e-01	2.918818e-18	1.494683e-21	-6.540470e-21	-1.174301e-23	0.000000e+00	0.000000e+00	0.000000e+00	
-1.948718e+00	7.436709e-01	-2.502936e-18	3.665189e-22	-7.142791e-21	9.442542e-24	0.000000e+00	0.000000e+00	0.000000e+00	
-2.000000e+00	7.120253e-01	7.070963e-19	5.038053e-22	-6.570022e-21	-2.932251e-24	0.000000e+00	0.000000e+00	0.000000e+00	
-1.948718e+00	7.120253e-01	-1.016417e-18	2.266111e-22	-7.076971e-21	3.739337e-24	0.000000e+00	0.000000e+00	0.000000e+00	
-2.000000e+00	6.803797e-01	-1.403445e-18	-4.520521e-22	-6.545323e-21	5.484524e-24	0.000000e+00	0.000000e+00	0.000000e+00	
-1.948718e+00	6.803797e-01	4.616690e-19	9.208590e-23	-6.960424e-21	-1.918862e-24	0.000000e+00	0.000000e+00	0.000000e+00	
-2.000000e+00	6.487342e-01	-3.404155e-18	-1.369366e-21	-6.468343e-21	1.347109e-23	0.000000e+00	0.000000e+00	0.000000e+00	
-1.948718e+00	6.487342e-01	1.906468e-18	-4.244273e-23	-6.800464e-21	-7.439192e-24	0.000000e+00	0.000000e+00	0.000000e+00	
-2.000000e+00	6.170886e-01	-5.295338e-18	-2.247475e-21	-6.342706e-21	2.102594e-23	0.000000e+00	0.000000e+00	0.000000e+00	
-1.948718e+00	6.170886e-01	3.294477e-18	-1.825924e-22	-6.605177e-21	-1.273503e-23	0.000000e+00	0.000000e+00	0.000000e+00	
-2.000000e+00	5.854430e-01	-7.085582e-18	-3.088297e-21	-6.173460e-21	2.817996e-23	0.000000e+00	0.000000e+00	0.000000e+00	
-1.948718e+00	5.854430e-01	4.605421e-18	-3.334075e-22	-6.382810e-21	-1.773283e-23	0.000000e+00	0.000000e+00	0.000000e+00	
-2.000000e+00	5.537975e-01	-8.790470e-18	-3.896003e-21	-5.966643e-21	3.499176e-23	0.000000e+00	0.000000e+00	0.000000e+00	
-1.948718e+00	5.537975e-01	5.824273e-18	-4.985904e-22	-6.141033e-21	-2.237950e-23	0.000000e+00	0.000000e+00	0.000000e+00	
-2.000000e+00	5.221519e-01	-1.043015e-17	-4.676278e-21	-5.728736e-21	4.153845e-23	0.000000e+00	0.000000e+00	0.000000e+00	
-1.948718e+00	5.221519e-01	6.942832e-18	-6.798545e-22	-5.886177e-21	-2.664793e-23	0.000000e+00	0.000000e+00	0.000000e+00	
-2.000000e+00	4.905063e-01	-1.202586e-17	-5.435206e-21	-5.466028e-21	4.790221e-23	0.000000e+00	0.000000e+00	0.000000e+00	
-1.948718e+00	4.905063e-01	7.960355e-18	-8.765280e-22	-5.622576e-21	-3.053887e-23	0.000000e+00	0.000000e+00	0.000000e+00	
-2.000000e+00	4.588608e-01	-1.359583e-17	-6.177877e-21	-5.184020e-21	5.415435e-23	0.000000e+00	0.000000e+00	0.000000e+00	
-1.948718e+00	4.588608e-01	8.883011e-18	-1.085493e-21	-5.352174e-21	-3.407840e-23	0.000000e+00	0.000000e+00	0.000000e+00	
-2.000000e+00	4.272152e-01	-1.515151e-17	-6.907044e-21	-4.886949e-21	6.034026e-23	0.000000e+00	0.000000e+00	0.000000e+00	
-1.948718e+00	4.272152e-01	9.722210e-18	-1.301497e-21	-5.074479e-21	-3.731113e-23	0.000000e+00	0.000000e+00	0.000000e+00	
-2.000000e+00	3.955696e-01	-1.669479e-17	-7.622137e-21	-4.577519e-21	6.646832e-23	0.000000e+00	0.000000e+00	0.000000e+00	
-1.948718e+00	3.955696e-01	1.049214e-17	-1.517796e-21	-4.786898e-21	-4.029069e-23	0.000000e+00	0.000000e+00	0.000000e+00	
-2.000000e+00	3.639241e-01	-1.821690e-17	-8.318871e-21	-4.256875e-21	7.250550e-23	0.000000e+00	0.000000e+00	0.000000e+00	
-1.948718e+00	3.639241e-01	1.120701e-17	-1.727016e-21	-4.485396e-21	-4.306921e-23	0.000000e+00	0.000000e+00	0.000000e+00	
-2.000000e+00	3.322785e-01	-1.969927e-17	-8.989544e-21	-3.924804e-21	7.838019e-23	0.000000e+00	0.000000e+00	0.000000e+00	
-1.948718e+00	3.322785e-01	1.187847e-17	-1.922083e-21	-4.165353e-21	-4.568802e-23	0.000000e+00	0.000000e+00	0.000000e+00	
-2.000000e+00	3.006329e-01	-2.111598e-17	-9.623954e-21	-3.580142e-21	8.399188e-23	0.000000e+00	0.000000e+00	0.000000e+00	
-1.948718e+00	3.006329e-01	1.251379e-17	-2.097047e-21	-3.822454e-21	-4.817093e-23	0.000000e+00	0.000000e+00	0.000000e+00	
-2.000000e+00	2.689873e-01	-2.243746e-17	-1.021073e-20	-3.221264e-21	8.922520e-23	0.000000e+00	0.000000e+00	0.000000e+00	
-1.948718e+00	2.689873e-01	1.311490e-17	-2.247686e-21	-3.453470e-21	-5.052130e-23	0.000000e+00	0.000000e+00	0.000000e+00	
-2.000000e+00	2.373418e-01	-2.363441e-17	-1.073878e-20	-2.846608e-21	9.396559e-23	0.000000e+00	0.000000e+00	0.000000e+00	
-1.948718e+00	2.373418e-01	1.367842e-17	-2.371783e-21	-3.056784e-21	-5.272273e-23	0.000000e+00	0.000000e+00	0.000000e+00	
-2.000000e+00	2.056962e-01	-2.468148e-17	-1.119862e-20	-2.455118e-21	9.811348e-23	0.000000e+00	0.000000e+00	0.000000e+00	
-1.948718e+00	2.056962e-01	1.419657e-17	-2.469088e-21	-2.632614e-21	-5.474300e-23	0.000000e+00	0.000000e+00	0.000000e+00	
-2.000000e+00	1.740506e-01	-2.555981e-17	-1.158328e-20	-2.046560e-21	1.015945e-22	0.000000e+00	0.000000e+00	0.000000e+00	
-1.948718e+00	1.740506e-01	1.465865e-17	-2.541007e-21	-2.182934e-21	-5.653977e-23	0.000000e+00	0.000000e+00	0.000000e+00	
-2.000000e+00	1.424051e-01	-2.625826e-17	-1.188873e-20	-1.621683e-21	1.043642e-22	0.000000e+00	0.000000e+00	0.000000e+00	
-1.948718e+00	1.424051e-01	1.505266e-17	-2.590122e-21	-1.711143e-21	-5.806702e-23	0.000000e+00	0.000000e+00	0.000000e+00	
-2.000000e+00	1.107595e-01	-2.677313e-17	-1.211376e-20	-1.182231e-21	1.064075e-22	0.000000e+00	0.000000e+00	0.000000e+00	
-1.948718e+00	1.107595e-01	1.536686e-17	-2.619630e-21	-1.221596e-21	-5.928069e-23	0.000000e+00	0.000000e+00	0.000000e+00	
-2.000000e+00	7.911392e-02	-2.710672e-17	-1.225939e-20	-7.308366e-22	1.077327e-22	0.000000e+00	0.000000e+00	0.000000e+00	
-1.948718e+00	7.911392e-02	1.559097e-17	-2.632823e-21	-7.191139e-22	-6.014297e-23	0.000000e+00	0.000000e+00	0.000000e+00	
-2.000000e+00	4.746835e-02	-2.726503e-17	-1.232800e-20	-2.708447e-22	1.083626e-22	0.000000e+00	0.000000e+00	0.000000e+00	
-1.948718e+00	4.746835e-02	1.571690e-17	-2.632653e-21	-2.085660e-22	-6.062475e-23	0.000000e+00	0.000000e+00	0.000000e+00	
-2.000000e+00	1.582278e-02	-2.725523e-17	-1.232242e-20	1.938955e-22	1.083248e-22	0.000000e+00	0.000000e+00	0.000000e+00	
-1.948718e+00	1.582278e-02	1.573911e-17	-2.621435e-21	3.053863e-22	-6.070654e-23	0.000000e+00	0.000000e+00	0.000000e+00	
-2.000000e+00	-1.582278e-02	-2.708342e-17	-1.224503e-20	6.592320e-22	1.076432e-22	0.000000e+00	0.000000e+00	0.000000e+00	
-1.948718e+00	-1.582278e-02	1.565469e-17	-2.600656e-21	8.183786e-22	-6.037834e-23	0.000000e+00	0.000000e+00	0.000000e+00	
-2.000000e+00	-4.746835e-02	-2.675318e-17	-1.209727e-20	1.120893e-21	1.063315e-22	0.000000e+00	0.000000e+00	0.000000e+00	
-1.948718e+00	-4.746835e-02	1.546323e-17	-2.570899e-21	1.326283e-21	-5.963913e-23	0.000000e+00	0.000000e+00	0.000000e+00	
-2.000000e+00	-7.911392e-02	-2.626502e-17	-1.187940e-20	1.574652e-21	1.043920e-22	0.000000e+00	0.000000e+00	0.000000e+00	
-1.948718e+00	-7.911392e-02	1.516672e-17	-2.531849e-21	1.825067e-21	-5.849636e-23	0.000000e+00	0.000000e+00	0.000000e+00	
-2.000000e+00	-1.107595e-01	-2.561703e-17	-1.159079e-20	2.016483e-21	1.018174e-22	0.000000e+00	0.000000e+00	0.000000e+00	
-1.948718e+00	-1.107595e-01	1.476953e-17	-2.482362e-21	2.310645e-21	-5.696584e-23	0.000000e+00	0.000000e+00	0.000000e+00	
-2.000000e+00	-1.424051e-01	-2.480638e-17	-1.123044e-20	2.442721e-21	9.859704e-23	0.000000e+00	0.000000e+00	0.000000e+00	
-1.948718e+00	-1.424051e-01	1.427826e-17	-2.420609e-21	2.778818e-21	-5.507152e-23	0.000000e+00	0.000000e+00	0.000000e+00	
-2.000000e+00	-1.740506e-01	-2.383136e-17	-1.079780e-20	2.850218e-21	9.472498e-23	0.000000e+00	0.000000e+00	0.000000e+00	
-1.948718e+00	-1.740506e-01	1.370158e-17	-2.344305e-21	3.225342e-21	-5.284515e-23	0.000000e+00	0.000000e+00	0.000000e+00	
-2.000000e+00	-2.056962e-01	-2.269356e-17	-1.029358e-20	3.236496e-21	9.020822e-23	0.000000e+00	0.000000e+00	0.000000e+00	
-1.948718e+00	-2.056962e-01	1.304974e-17	-2.251015e-21	3.646136e-21	-5.032491e-23	0.000000e+00	0.000000e+00	0.000000e+00	
-2.000000e+00	-2.373418e-01	-2.139968e-17	-9.720395e-21	3.599856e-21	8.507369e-23	0.000000e+00	0.000000e+00	0.000000e+00	
-1.948718e+00	-2.373418e-01	1.233391e-17	-2.138548e-21	4.037612e-21	-4.755290e-23	0.000000e+00	0.000000e+00	0.000000e+00	
-2.000000e+00	-2.689873e-01	-1.996236e-17	-9.083158e-21	3.939423e-21	7.937176e-23	0.000000e+00	0.000000e+00	0.000000e+00	
-1.948718e+00	-2.689873e-01	1.156504e-17	-2.005385e-21	4.397048e-21	-4.457138e-23	0.000000e+00	0.000000e+00	0.000000e+00	
-2.000000e+00	-3.006329e-01	-1.840002e-17	-8.388990e-21	4.255085e-21	7.317515e-23	0.000000e+00	0.000000e+00	0.000000e+00	
-1.948718e+00	-3.006329e-01	1.075269e-17	-1.851080e-21	4.722902e-21	-4.141810e-23	0.000000e+00	0.000000e+00	0.000000e+00	
-2.000000e+00	-3.322785e-01	-1.673540e-17	-7.646709e-21	4.547321e-21	6.657333e-23	0.000000e+00	0.000000e+00	0.000000e+00	
-1.948718e+00	-3.322785e-01	9.903830e-18	-1.676568e-21	5.014988e-21	-3.812172e-23	0.000000e+00	0.000000e+00	0.000000e+00	
-2.000000e+00	-3.639241e-01	-1.499315e-17	-6.865950e-21	4.816919e-21	5.966292e-23	0.000000e+00	0.000000e+00	0.000000e+00	
-1.948718e+00	-3.639241e-01	9.021906e-18	-1.484281e-21	5.274443e-21	-3.469804e-23	0.000000e+00	0.000000e+00	0.000000e+00	
-2.000000e+00	-3.955696e-01	-1.319683e-17	-6.056070e-21	5.064622e-21	5.253607e-23	0.000000e+00	0.000000e+00	0.000000e+00	
-1.948718e+00	-3.955696e-01	8.106562e-18	-1.278030e-21	5.503449e-21	-3.114845e-23	0.000000e+00	0.000000e+00	0.000000e+00	
-2.000000e+00	-4.272152e-01	-1.136604e-17	-5.225081e-21	5.290759e-21	4.526906e-23	0.000000e+00	0.000000e+00	0.000000e+00	
-1.948718e+00	-4.272152e-01	7.154010e-18	-1.062646e-21	5.704748e-21	-2.746096e-23	0.000000e+00	0.000000e+00	0.000000e+00	
-2.000000e+00	-4.588608e-01	-9.514161e-18	-4.378837e-21	5.494931e-21	3.791374e-23	0.000000e+00	0.000000e+00	0.000000e+00	
-1.948718e+00	-4.588608e-01	6.158184e-18	-8.434171e-22	5.881030e-21	-2.361417e-23	0.000000e+00	0.000000e+00	0.000000e+00	
-2.000000e+00	-4.905063e-01	-7.647361e-18	-3.520676e-21	5.675819e-21	3.049373e-23	0.000000e+00	0.000000e+00	0.000000e+00	
-1.948718e+00	-4.905063e-01	5.112469e-18	-6.254221e-22	6.034309e-21	-1.958364e-23	0.000000e+00	0.000000e+00	0.000000e+00	
-2.000000e+00	-5.221519e-01	-5.765017e-18	-2.651588e-21	5.831151e-21	2.300635e-23	0.000000e+00	0.000000e+00	0.000000e+00	
-1.948718e+00	-5.221519e-01	4.011697e-18	-4.128776e-22	6.165420e-21	-1.534934e-23	0.000000e+00	0.000000e+00	0.000000e+00	
-2.000000e+00	-5.537975e-01	-3.861478e-18	-1.770862e-21	5.957856e-21	1.542965e-23	0.000000e+00	0.000000e+00	0.000000e+00	
-1.948718e+00	-5.537975e-01	2.853992e-18	-2.086269e-22	6.273737e-21	-1.090280e-23	0.000000e+00	0.000000e+00	0.000000e+00	
-2.000000e+00	-5.854430e-01	-1.928680e-18	-8.770006e-22	6.052373e-21	7.732808e-24	0.000000e+00	0.000000e+00	0.000000e+00	
-1.948718e+00	-5.854430e-01	1.642044e-18	-1.385489e-23	6.357167e-21	-6.252230e-24	0.000000e+00	0.000000e+00	0.000000e+00	
-2.000000e+00	-6.170886e-01	4.105260e-20	3.133540e-23	6.111056e-21	-1.129270e-25	0.000000e+00	0.000000e+00	0.000000e+00	
-1.948718e+00	-6.170886e-01	3.835391e-19	1.719272e-22	6.412411e-21	-1.424474e-24	0.000000e+00	0.000000e+00	0.000000e+00	
-2.000000e+00	-6.487342e-01	2.052660e-18	9.546236e-22	6.130618e-21	-8.125195e-24	0.000000e+00	0.000000e+00	0.000000e+00	
-1.948718e+00	-6.487342e-01	-9.093325e-19	3.506547e-22	6.435410e-21	3.536490e-24	0.000000e+00	0.000000e+00	0.000000e+00	
-2.000000e+00	-6.803797e-01	4.106798e-18	1.892075e-21	6.108528e-21	-1.630473e-23	0.000000e+00	0.000000e+00	0.000000e+00	
-1.948718e+00	-6.803797e-01	-2.221073e-18	5.252898e-22	6.421857e-21	8.573786e-24	0.000000e+00	0.000000e+00	0.000000e+00	
-2.000000e+00	-7.120253e-01	6.198993e-18	2.841475e-21	6.043326e-21	-2.463235e-23	0.000000e+00	0.000000e+00	0.000000e+00	
-1.948718e+00	-7.120253e-01	-3.534333e-18	6.993002e-22	6.367703e-21	1.362296e-23	0.000000e+00	0.000000e+00	0.000000e+00	
-2.000000e+00	-7.436709e-01	8.318876e-18	3.798858e-21	5.934811e-21	-3.306624e-23	0.000000e+00	0.000000e+00	0.000000e+00	
-1.948718e+00	-7.436709e-01	-4.831099e-18	8.760659e-22	6.269531e-21	1.861621e-23	0.000000e+00	0.000000e+00	0.000000e+00	
-2.000000e+00	-7.753165e-01	1.044883e-17	4.757778e-21	5.784138e-21	-4.153656e-23	0.000000e+00	0.000000e+00	0.000000e+00	
-1.948718e+00	-7.753165e-01	-6.093152e-18	1.058278e-21	6.124947e-21	2.348392e-23	0.000000e+00	0.000000e+00	0.000000e+00	
-2.000000e+00	-8.069620e-01	1.256139e-17	5.707694e-21	5.593785e-21	-4.993499e-23	0.000000e+00	0.000000e+00	0.000000e+00	
-1.948718e+00	-8.069620e-01	-7.301721e-18	1.247266e-21	5.932935e-21	2.815294e-23	0.000000e+00	0.000000e+00	0.000000e+00	
-2.000000e+00	-8.386076e-01	1.461611e-17	6.632057e-21	5.367508e-21	-5.810171e-23	0.000000e+00	0.000000e+00	0.000000e+00	
-1.948718e+00	-8.386076e-01	-8.436802e-18	1.442362e-21	5.694561e-21	3.254360e-23	0.000000e+00	0.000000e+00	0.000000e+00	
-2.000000e+00	-8.702532e-01	1.655721e-17	7.506384e-21	5.110051e-21	-6.581542e-23	0.000000e+00	0.000000e+00	0.000000e+00	
-1.948718e+00	-8.702532e-01	-9.477295e-18	1.640232e-21	5.413758e-21	3.656982e-23	0.000000e+00	0.000000e+00	0.000000e+00	
-2.000000e+00	-9.018987e-01	1.831618e-17	8.299091e-21	4.826910e-21	-7.280286e-23	0.000000e+00	0.000000e+00	0.000000e+00	
-1.948718e+00	-9.018987e-01	-1.040371e-17	1.834664e-21	5.098678e-21	4.014973e-23	0.000000e+00	0.000000e+00	0.000000e+00	
-2.000000e+00	-9.335443e-01	1.982260e-17	8.975743e-21	4.523461e-21	-7.878163e-23	0.000000e+00	0.000000e+00	0.000000e+00	
-1.948718e+00	-9.335443e-01	-1.120529e-17	2.016658e-21	4.762173e-21	4.323362e-23	0.000000e+00	0.000000e+00	0.000000e+00	
-2.000000e+00	-9.651899e-01	2.102914e-17	9.511811e-21	4.204365e-21	-8.355992e-23	0.000000e+00	0.000000e+00	0.000000e+00	
-1.948718e+00	-9.651899e-01	-1.189220e-17	2.176148e-21	4.422338e-21	4.585330e-23	0.000000e+00	0.000000e+00	0.000000e+00	
-2.000000e+00	-9.968354e-01	2.194888e-17	9.909512e-21	3.871433e-21	-8.718656e-23	0.000000e+00	0.000000e+00	0.000000e+00	
-1.948718e+00	-9.968354e-01	-1.251062e-17	2.304004e-21	4.098587e-21	4.818342e-23	0.000000e+00	0.000000e+00	0.000000e+00	
-2.000000e+00	-1.028481e+00	2.270323e-17	1.022421e-20	3.523269e-21	-9.014374e-23	0.000000e+00	0.000000e+00	0.000000e+00	
-1.948718e+00	-1.028481e+00	-1.315323e-17	2.397539e-21	3.808222e-21	5.058801e-23	0.000000e+00	0.000000e+00	0.000000e+00	
-2.000000e+00	-1.060127e+00	2.355402e-17	1.057513e-20	3.151042e-21	-9.347882e-23	0.000000e+00	0.000000e+00	0.000000e+00	
-1.948718e+00	-1.060127e+00	-1.395303e-17	2.462515e-21	3.550829e-21	5.360082e-23	0.000000e+00	0.000000e+00	0.000000e+00	
-2.000000e+00	-1.091772e+00	2.489759e-17	1.115396e-20	2.742971e-21	-9.878193e-23	0.000000e+00	0.000000e+00	0.000000e+00	
-1.948718e+00	-1.091772e+00	-1.504710e-17	2.522997e-21	3.307094e-21	5.778853e-23	0.000000e+00	0.000000e+00	0.000000e+00	
-2.000000e+00	-1.123418e+00	2.715448e-17	1.215323e-20	2.275604e-21	-1.077543e-22	0.000000e+00	0.000000e+00	0.000000e+00	
-1.948718e+00	-1.123418e+00	-1.650731e-17	2.608429e-21	3.005125e-21	6.347323e-23	0.000000e+00	0.000000e+00	0.000000e+00	
-2.000000e+00	-1.155063e+00	3.055684e-17	1.371688e-20	1.742005e-21	-1.213465e-22	0.000000e+00	0.000000e+00	0.000000e+00	
-1.948718e+00	-1.155063e+00	-1.825544e-17	2.771506e-21	2.578343e-21	7.038541e-23	0.000000e+00	0.000000e+00	0.000000e+00	
-2.000000e+00	-1.186709e+00	3.480524e-17	1.568031e-20	1.111272e-21	-1.384210e-22	0.000000e+00	0.000000e+00	0.000000e+00	
-1.948718e+00	-1.186709e+00	-2.000471e-17	3.006525e-21	1.884196e-21	7.740670e-23	0.000000e+00	0.000000e+00	0.000000e+00	
-2.000000e+00	-1.218354e+00	3.880226e-17	1.768273e-20	3.758882e-22	-1.544654e-22	0.000000e+00	0.000000e+00	0.000000e+00	
-1.948718e+00	-1.218354e+00	-2.127025e-17	3.350514e-21	6.234429e-22	8.296352e-23	0.000000e+00	0.000000e+00	0.000000e+00	
-1.897436e+00	1.218354e+00	-1.854124e-17	6.838219e-21	-1.059670e-21	7.069097e-23	0.000000e+00	0.000000e+00	0.000000e+00	
-1.897436e+00	1.250000e+00	-2.315948e-17	9.410267e-21	-8.017974e-22	8.638620e-23	0.000000e+00	0.000000e+00	0.000000e+00	
-1.897436e+00	1.186709e+00	-1.694367e-17	6.385793e-21	-1.547055e-21	6.453212e-23	0.000000e+00	0.000000e+00	0.000000e+00	
-1.897436e+00	1.155063e+00	-1.503189e-17	5.841609e-21	-1.973877e-21	5.720119e-23	0.000000e+00	0.000000e+00	0.000000e+00	
-1.897436e+00	1.123418e+00	-1.329855e-17	5.390835e-21	-2.367816e-21	5.059053e-23	0.000000e+00	0.000000e+00	0.000000e+00	
-1.897436e+00	1.091772e+00	-1.195467e-17	5.000506e-21	-2.718549e-21	4.547469e-23	0.000000e+00	0.000000e+00	0.000000e+00	
-1.897436e+00	1.060127e+00	-1.098675e-17	4.670210e-21	-3.033919e-21	4.179622e-23	0.000000e+00	0.000000e+00	0.000000e+00	
-1.897436e+00	1.028481e+00	-1.025837e-17	4.363962e-21	-3.315194e-21	3.902685e-23	0.000000e+00	0.000000e+00	0.000000e+00	
-1.897436e+00	9.968354e-01	-9.610399e-18	4.058747e-21	-3.560263e-21	3.655733e-23	0.000000e+00	0.000000e+00	0.000000e+00	
-1.897436e+00	9.651899e-01	-8.920566e-18	3.736901e-21	-3.768136e-21	3.392376e-23	0.000000e+00	0.000000e+00	0.000000e+00	
-1.897436e+00	9.335443e-01	-8.122466e-18	3.392165e-21	-3.936746e-21	3.087585e-23	0.000000e+00	0.000000e+00	0.000000e+00	
-1.897436e+00	9.018987e-01	-7.197884e-18	3.025762e-21	-4.065919e-21	2.734766e-23	0.000000e+00	0.000000e+00	0.000000e+00	
-1.897436e+00	8.702532e-01	-6.159271e-18	2.643239e-21	-4.155832e-21	2.338869e-23	0.000000e+00	0.000000e+00	0.000000e+00	
-1.897436e+00	8.386076e-01	-5.033355e-18	2.251129e-21	-4.208155e-21	1.910218e-23	0.000000e+00	0.000000e+00	0.000000e+00	
-1.897436e+00	8.069620e-01	-3.850369e-18	1.854672e-21	-4.225336e-21	1.460360e-23	0.000000e+00	0.000000e+00	0.000000e+00	
-1.897436e+00	7.753165e-01	-2.638926e-18	1.456913e-21	-4.210993e-21	1.000175e-23	0.000000e+00	0.000000e+00	0.000000e+00	
-1.897436e+00	7.436709e-01	-1.424638e-18	1.058593e-21	-4.169491e-21	5.393411e-24	0.000000e+00	0.000000e+00	0.000000e+00	
-1.897436e+00	7.120253e-01	-2.303590e-19	6.587117e-22	-4.105859e-21	8.645528e-25	0.000000e+00	0.000000e+00	0.000000e+00	
-1.897436e+00	6.803797e-01	9.234831e-19	2.552512e-22	-4.025304e-21	-3.508426e-24	0.000000e+00	0.000000e+00	0.000000e+00	
-1.897436e+00	6.487342e-01	2.019216e-18	-1.540035e-22	-3.932812e-21	-7.659790e-24	0.000000e+00	0.000000e+00	0.000000e+00	
-1.897436e+00	6.170886e-01	3.042972e-18	-5.707468e-22	-3.832619e-21	-1.153839e-23	0.000000e+00	0.000000e+00	0.000000e+00	
-1.897436e+00	5.854430e-01	3.986058e-18	-9.955405e-22	-3.727787e-21	-1.511270e-23	0.000000e+00	0.000000e+00	0.000000e+00	
-1.897436e+00	5.537975e-01	4.846066e-18	-1.427388e-21	-3.619867e-21	-1.837492e-23	0.000000e+00	0.000000e+00	0.000000e+00	
-1.897436e+00	5.221519e-01	5.627191e-18	-1.863512e-21	-3.508766e-21	-2.134199e-23	0.000000e+00	0.000000e+00	0.000000e+00	
-1.897436e+00	4.905063e-01	6.339470e-18	-2.299390e-21	-3.392820e-21	-2.405256e-23	0.000000e+00	0.000000e+00	0.000000e+00	
-1.897436e+00	4.588608e-01	6.996957e-18	-2.729041e-21	-3.269095e-21	-2.656002e-23	0.000000e+00	0.000000e+00	0.000000e+00	
-1.897436e+00	4.272152e-01	7.615173e-18	-3.145550e-21	-3.133856e-21	-2.892275e-23	0.000000e+00	0.000000e+00	0.000000e+00	
-1.897436e+00	3.955696e-01	8.208320e-18	-3.541743e-21	-2.983156e-21	-3.119360e-23	0.000000e+00	0.000000e+00	0.000000e+00	
-1.897436e+00	3.639241e-01	8.786829e-18	-3.910907e-21	-2.813432e-21	-3.341079e-23	0.000000e+00	0.000000e+00	0.000000e+00	
-1.897436e+00	3.322785e-01	9.355698e-18	-4.247437e-21	-2.622022e-21	-3.559172e-23	0.000000e+00	0.000000e+00	0.000000e+00	
-1.897436e+00	3.006329e-01	9.913886e-18	-4.547286e-21	-2.407534e-21	-3.773093e-23	0.000000e+00	0.000000e+00	0.000000e+00	
-1.897436e+00	2.689873e-01	1.045479e-17	-4.808164e-21	-2.170008e-21	-3.980206e-23	0.000000e+00	0.000000e+00	0.000000e+00	
-1.897436e+00	2.373418e-01	1.096761e-17	-5.029464e-21	-1.910868e-21	-4.176323e-23	0.000000e+00	0.000000e+00	0.000000e+00	
-1.897436e+00	2.056962e-01	1.143924e-17	-5.211972e-21	-1.632690e-21	-4.356421e-23	0.000000e+00	0.000000e+00	0.000000e+00	
-1.897436e+00	1.740506e-01	1.185622e-17	-5.357422e-21	-1.338845e-21	-4.515398e-23	0.000000e+00	0.000000e+00	0.000000e+00	
-1.897436e+00	1.424051e-01	1.220648e-17	-5.468031e-21	-1.033079e-21	-4.648709e-23	0.000000e+00	0.000000e+00	0.000000e+00	
-1.897436e+00	1.107595e-01	1.248040e-17	-5.546072e-21	-7.191238e-22	-4.752781e-23	0.000000e+00	0.000000e+00	0.000000e+00	
-1.897436e+00	7.911392e-02	1.267132e-17	-5.593571e-21	-4.003831e-22	-4.825164e-23	0.000000e+00	0.000000e+00	0.000000e+00	
-1.897436e+00	4.746835e-02	1.277532e-17	-5.612138e-21	-7.974571e-23	-4.864454e-23	0.000000e+00	0.000000e+00	0.000000e+00	
-1.897436e+00	1.582278e-02	1.279065e-17	-5.602921e-21	2.404586e-22	-4.870065e-23	0.000000e+00	0.000000e+00	0.000000e+00	
-1.897436e+00	-1.582278e-02	1.271706e-17	-5.566636e-21	5.583736e-22	-4.841945e-23	0.000000e+00	0.000000e+00	0.000000e+00	
-1.897436e+00	-4.746835e-02	1.255519e-17	-5.503621e-21	8.724332e-22	-4.780358e-23	0.000000e+00	0.000000e+00	0.000000e+00	
-1.897436e+00	-7.911392e-02	1.230635e-17	-5.413876e-21	1.181129e-21	-4.685789e-23	0.000000e+00	0.000000e+00	0.000000e+00	
-1.897436e+00	-1.107595e-01	1.197264e-17	-5.297087e-21	1.482781e-21	-4.558994e-23	0.000000e+00	0.000000e+00	0.000000e+00	
-1.897436e+00	-1.424051e-01	1.155737e-17	-5.152619e-21	1.775371e-21	-4.401174e-23	0.000000e+00	0.000000e+00	0.000000e+00	
-1.897436e+00	-1.740506e-01	1.106561e-17	-4.979545e-21	2.056467e-21	-4.214184e-23	0.000000e+00	0.000000e+00	0.000000e+00	
-1.897436e+00	-2.056962e-01	1.050456e-17	-4.776722e-21	2.323277e-21	-4.000687e-23	0.000000e+00	0.000000e+00	0.000000e+00	
-1.897436e+00	-2.373418e-01	9.883529e-18	-4.542971e-21	2.572808e-21	-3.764173e-23	0.000000e+00	0.000000e+00	0.000000e+00	
-1.897436e+00	-2.689873e-01	9.213476e-18	-4.277346e-21	2.802137e-21	-3.508773e-23	0.000000e+00	0.000000e+00	0.000000e+00	
-1.897436e+00	-3.006329e-01	8.505948e-18	-3.979459e-21	3.008718e-21	-3.238877e-23	0.000000e+00	0.000000e+00	0.000000e+00	
-1.897436e+00	-3.322785e-01	7.771702e-18	-3.649823e-21	3.190690e-21	-2.958609e-23	0.000000e+00	0.000000e+00	0.000000e+00	
-1.897436e+00	-3.639241e-01	7.019236e-18	-3.290109e-21	3.347106e-21	-2.671267e-23	0.000000e+00	0.000000e+00	0.000000e+00	
-1.897436e+00	-3.955696e-01	6.253565e-18	-2.903266e-21	3.478052e-21	-2.378849e-23	0.000000e+00	0.000000e+00	0.000000e+00	
-1.897436e+00	-4.272152e-01	5.475586e-18	-2.493440e-21	3.584606e-21	-2.081797e-23	0.000000e+00	0.000000e+00	0.000000e+00	
-1.897436e+00	-4.588608e-01	4.682224e-18	-2.065700e-21	3.668640e-21	-1.779039e-23	0.000000e+00	0.000000e+00	0.000000e+00	
-1.897436e+00	-4.905063e-01	3.867425e-18	-1.625608e-21	3.732495e-21	-1.468351e-23	0.000000e+00	0.000000e+00	0.000000e+00	
-1.897436e+00	-5.221519e-01	3.023818e-18	-1.178700e-21	3.778582e-21	-1.146975e-23	0.000000e+00	0.000000e+00	0.000000e+00	
-1.897436e+00	-5.537975e-01	2.144701e-18	-7.299738e-22	3.808965e-21	-8.123713e-24	0.000000e+00	0.000000e+00	0.000000e+00	
-1.897436e+00	-5.854430e-01	1.225915e-18	-2.834745e-22	3.825022e-21	-4.629296e-24	0.000000e+00	0.000000e+00	0.000000e+00	
-1.897436e+00	-6.170886e-01	2.671560e-19	1.579785e-22	3.827216e-21	-9.847236e-25	0.000000e+00	0.000000e+00	0.000000e+00	
-1.897436e+00	-6.487342e-01	-7.275328e-19	5.928857e-22	3.815034e-21	2.795474e-24	0.000000e+00	0.000000e+00	0.000000e+00	
-1.897436e+00	-6.803797e-01	-1.750101e-18	1.020978e-21	3.787077e-21	6.681625e-24	0.000000e+00	0.000000e+00	0.000000e+00	
-1.897436e+00	-7.120253e-01	-2.789373e-18	1.442953e-21	3.741314e-21	1.063218e-23	0.000000e+00	0.000000e+00	0.000000e+00	
-1.897436e+00	-7.436709e-01	-3.831972e-18	1.860020e-21	3.675400e-21	1.459708e-23	0.000000e+00	0.000000e+00	0.000000e+00	
-1.897436e+00	-7.753165e-01	-4.862726e-18	2.273269e-21	3.587099e-21	1.851928e-23	0.000000e+00	0.000000e+00	0.000000e+00	
-1.897436e+00	-8.069620e-01	-5.864247e-18	2.682837e-21	3.474580e-21	2.233297e-23	0.000000e+00	0.000000e+00	0.000000e+00	
-1.897436e+00	-8.386076e-01	-6.815832e-18	3.087065e-21	3.336840e-21	2.595949e-23	0.000000e+00	0.000000e+00	0.000000e+00	
-1.897436e+00	-8.702532e-01	-7.692631e-18	3.481740e-21	3.173702e-21	2.930379e-23	0.000000e+00	0.000000e+00	0.000000e+00	
-1.897436e+00	-9.018987e-01	-8.466876e-18	3.860027e-21	2.986227e-21	3.225928e-23	0.000000e+00	0.000000e+00	0.000000e+00	
-1.897436e+00	-9.335443e-01	-9.113647e-18	4.213265e-21	2.776114e-21	3.472906e-23	0.000000e+00	0.000000e+00	0.000000e+00	
-1.897436e+00	-9.651899e-01	-9.623426e-18	4.533448e-21	2.546559e-21	3.667428e-23	0.000000e+00	0.000000e+00	0.000000e+00	
-1.897436e+00	-9.968354e-01	-1.002133e-17	4.816570e-21	2.300334e-21	3.818674e-23	0.000000e+00	0.000000e+00	0.000000e+00	
-1.897436e+00	-1.028481e+00	-1.038780e-17	5.067119e-21	2.042309e-21	3.957010e-23	0.000000e+00	0.000000e+00	0.000000e+00	
-1.897436e+00	-1.060127e+00	-1.086754e-17	5.300738e-21	1.773068e-21	4.137478e-23	0.000000e+00	0.000000e+00	0.000000e+00	
-1.897436e+00	-1.091772e+00	-1.164789e-17	5.544286e-21	1.496748e-21	4.431963e-23	0.000000e+00	0.000000e+00	0.000000e+00	
-1.897436e+00	-1.123418e+00	-1.289049e-17	5.831778e-21	1.202070e-21	4.903289e-23	0.000000e+00	0.000000e+00	0.000000e+00	
-1.897436e+00	-1.155063e+00	-1.462096e-17	6.182169e-21	8.841703e-22	5.562020e-23	0.000000e+00	0.000000e+00	0.000000e+00	
-1.897436e+00	-1.186709e+00	-1.661866e-17	6.604538e-21	5.255505e-22	6.329306e-23	0.000000e+00	0.000000e+00	0.000000e+00	
-1.897436e+00	-1.218354e+00	-1.836932e-17	7.035514e-21	-2.314268e-24	7.034567e-23	0.000000e+00	0.000000e+00	0.000000e+00	
-1.846154e+00	1.218354e+00	1.573484e-18	4.651254e-21	-1.016355e-21	-8.304035e-24	0.000000e+00	0.000000e+00	0.000000e+00	
-1.846154e+00	1.250000e+00	1.351131e-18	6.647418e-21	-8.458246e-22	-8.391722e-24	0.000000e+00	0.000000e+00	0.000000e+00	
-1.846154e+00	1.186709e+00	1.860982e-18	4.227823e-21	-1.479106e-21	-9.234108e-24	0.000000e+00	0.000000e+00	0.000000e+00	
-1.846154e+00	1.155063e+00	2.033497e-18	3.753643e-21	-1.900449e-21	-9.721194e-24	0.000000e+00	0.000000e+00	0.000000e+00	
-1.846154e+00	1.123418e+00	2.042633e-18	3.416709e-21	-2.287233e-21	-9.592037e-24	0.000000e+00	0.000000e+00	0.000000e+00	
-1.846154e+00	1.091772e+00	1.922109e-18	3.169706e-21	-2.634066e-21	-8.989094e-24	0.000000e+00	0.000000e+00	0.000000e+00	
-1.846154e+00	1.060127e+00	1.738407e-18	3.003366e-21	-2.939401e-21	-8.168773e-24	0.000000e+00	0.000000e+00	0.000000e+00	