TITLE = "Visualization of the volumetric solution"
VARIABLES = "x","y","Density","Momentum_x","Momentum_y","Energy","Pressure","Temperature","Mach","C<sub>p</sub>","Roe_Dissipation"
ZONE NODES= 60, ELEMENTS= 88, DATAPACKING=POINT, ZONETYPE=FEQUADRILATERAL
0.000000e+00	-7.853950e-02	1.225022e+00	4.168269e+01	8.446663e-01	2.540078e+05	1.013194e+05	2.881235e+02	1.000144e-01	-7.953204e-03	0.000000e+00	
8.336198e-02	-5.312538e-02	1.225087e+00	4.165407e+01	2.074766e+00	2.540213e+05	1.013246e+05	2.881232e+02	1.000439e-01	-6.101378e-04	0.000000e+00	
1.486198e-01	-8.886870e-02	1.225030e+00	4.164122e+01	2.794618e+00	2.540098e+05	1.013195e+05	2.881224e+02	1.001187e-01	-7.700645e-03	0.000000e+00	
0.000000e+00	0.000000e+00	1.225101e+00	4.166031e+01	8.134855e-01	2.540240e+05	1.013261e+05	2.881243e+02	9.995270e-02	1.615972e-03	0.000000e+00	
1.753722e-01	-6.372133e-04	1.225058e+00	4.165811e+01	2.898117e+00	2.540159e+05	1.013217e+05	2.881217e+02	1.001739e-01	-4.686221e-03	0.000000e+00	
8.325806e-02	5.281438e-02	1.225074e+00	4.166319e+01	2.073627e+00	2.540188e+05	1.013234e+05	2.881230e+02	1.000667e-01	-2.203713e-03	0.000000e+00	
2.261455e-01	-8.194797e-02	1.225092e+00	4.165120e+01	3.228383e+00	2.540232e+05	1.013243e+05	2.881213e+02	1.002127e-01	-9.167620e-04	0.000000e+00	
0.000000e+00	7.853950e-02	1.225178e+00	4.163606e+01	8.440473e-01	2.540397e+05	1.013328e+05	2.881251e+02	9.988958e-02	1.098076e-02	0.000000e+00	
2.656102e-01	-2.363800e-03	1.225052e+00	4.165852e+01	3.364405e+00	2.540150e+05	1.013208e+05	2.881208e+02	1.002593e-01	-5.857532e-03	0.000000e+00	
1.478765e-01	8.780658e-02	1.225093e+00	4.167776e+01	2.791621e+00	2.540232e+05	1.013244e+05	2.881214e+02	1.002007e-01	-8.012213e-04	0.000000e+00	
9.090909e-02	1.570790e-01	1.225081e+00	4.165797e+01	2.042794e+00	2.540202e+05	1.013241e+05	2.881232e+02	1.000499e-01	-1.269279e-03	0.000000e+00	
3.163528e-01	-8.389134e-02	1.225028e+00	4.166236e+01	3.471947e+00	2.540103e+05	1.013188e+05	2.881204e+02	1.002916e-01	-8.809606e-03	0.000000e+00	
2.263628e-01	7.664795e-02	1.225017e+00	4.166599e+01	3.227167e+00	2.540077e+05	1.013179e+05	2.881208e+02	1.002541e-01	-9.945913e-03	0.000000e+00	
0.000000e+00	1.570790e-01	1.225099e+00	4.165853e+01	7.966222e-01	2.540234e+05	1.013260e+05	2.881244e+02	9.994784e-02	1.348724e-03	0.000000e+00	
3.617267e-01	-3.317405e-03	1.225047e+00	4.165884e+01	3.532062e+00	2.540141e+05	1.013203e+05	2.881204e+02	1.002938e-01	-6.677452e-03	0.000000e+00	
3.166232e-01	7.693581e-02	1.225067e+00	4.165558e+01	3.472440e+00	2.540182e+05	1.013220e+05	2.881206e+02	1.002723e-01	-4.160992e-03	0.000000e+00	
1.818182e-01	1.570790e-01	1.225062e+00	4.166011e+01	3.003063e+00	2.540168e+05	1.013219e+05	2.881215e+02	1.001962e-01	-4.349483e-03	0.000000e+00	
4.086798e-01	-8.490396e-02	1.225055e+00	4.165704e+01	3.576814e+00	2.540158e+05	1.013209e+05	2.881203e+02	1.002980e-01	-5.744572e-03	0.000000e+00	
2.727273e-01	1.570790e-01	1.225049e+00	4.165955e+01	3.370159e+00	2.540145e+05	1.013206e+05	2.881207e+02	1.002632e-01	-6.203567e-03	0.000000e+00	
4.090111e-01	7.618462e-02	1.225037e+00	4.166073e+01	3.576848e+00	2.540122e+05	1.013194e+05	2.881202e+02	1.003082e-01	-7.854622e-03	0.000000e+00	
4.546116e-01	-4.048283e-03	1.225046e+00	4.165892e+01	3.603418e+00	2.540139e+05	1.013201e+05	2.881202e+02	1.003087e-01	-6.898801e-03	0.000000e+00	
3.636364e-01	1.570790e-01	1.225047e+00	4.165910e+01	3.538710e+00	2.540141e+05	1.013203e+05	2.881203e+02	1.002957e-01	-6.652746e-03	0.000000e+00	
5.007556e-01	-8.573249e-02	1.225042e+00	4.165966e+01	3.618658e+00	2.540131e+05	1.013198e+05	2.881201e+02	1.003140e-01	-7.385974e-03	0.000000e+00	
4.545455e-01	1.570790e-01	1.225046e+00	4.165892e+01	3.601673e+00	2.540139e+05	1.013201e+05	2.881202e+02	1.003084e-01	-6.896486e-03	0.000000e+00	
5.011548e-01	7.527816e-02	1.225049e+00	4.165822e+01	3.618741e+00	2.540145e+05	1.013203e+05	2.881202e+02	1.003100e-01	-6.569644e-03	0.000000e+00	
5.470892e-01	-4.716508e-03	1.225045e+00	4.165892e+01	3.628471e+00	2.540138e+05	1.013200e+05	2.881201e+02	1.003140e-01	-6.993417e-03	0.000000e+00	
5.929411e-01	-8.645409e-02	1.225047e+00	4.165865e+01	3.634886e+00	2.540141e+05	1.013202e+05	2.881201e+02	1.003145e-01	-6.827611e-03	0.000000e+00	
5.454545e-01	1.570790e-01	1.225045e+00	4.165897e+01	3.628977e+00	2.540138e+05	1.013200e+05	2.881201e+02	1.003142e-01	-7.019175e-03	0.000000e+00	
5.934557e-01	7.433648e-02	1.225043e+00	4.165919e+01	3.634940e+00	2.540134e+05	1.013199e+05	2.881201e+02	1.003161e-01	-7.210062e-03	0.000000e+00	
6.404704e-01	-5.182824e-03	1.225045e+00	4.165895e+01	3.639035e+00	2.540137e+05	1.013200e+05	2.881201e+02	1.003163e-01	-7.040868e-03	0.000000e+00	
6.856055e-01	-8.670611e-02	1.225044e+00	4.165910e+01	3.641043e+00	2.540136e+05	1.013200e+05	2.881201e+02	1.003171e-01	-7.107623e-03	0.000000e+00	
6.363636e-01	1.570790e-01	1.225045e+00	4.165890e+01	3.638420e+00	2.540138e+05	1.013200e+05	2.881201e+02	1.003160e-01	-7.027098e-03	0.000000e+00	
6.863968e-01	7.330154e-02	1.225045e+00	4.165876e+01	3.641065e+00	2.540138e+05	1.013200e+05	2.881201e+02	1.003162e-01	-6.987691e-03	0.000000e+00	
7.379919e-01	-4.678665e-03	1.225045e+00	4.165893e+01	3.642503e+00	2.540138e+05	1.013200e+05	2.881201e+02	1.003169e-01	-7.044476e-03	0.000000e+00	
7.760947e-01	-8.495455e-02	1.225045e+00	4.165894e+01	3.643288e+00	2.540138e+05	1.013200e+05	2.881201e+02	1.003171e-01	-7.017062e-03	0.000000e+00	
7.272727e-01	1.570790e-01	1.225045e+00	4.165893e+01	3.642437e+00	2.540137e+05	1.013200e+05	2.881201e+02	1.003169e-01	-7.057670e-03	0.000000e+00	
7.777450e-01	7.081513e-02	1.225044e+00	4.165891e+01	3.643321e+00	2.540137e+05	1.013200e+05	2.881201e+02	1.003171e-01	-7.087265e-03	0.000000e+00	
8.223597e-01	-1.182597e-03	1.225045e+00	4.165894e+01	3.643912e+00	2.540137e+05	1.013200e+05	2.881201e+02	1.003173e-01	-7.055960e-03	0.000000e+00	
8.489629e-01	-8.937210e-02	1.225045e+00	4.165899e+01	3.644088e+00	2.540137e+05	1.013200e+05	2.881201e+02	1.003174e-01	-7.073728e-03	0.000000e+00	
8.181818e-01	1.570790e-01	1.225045e+00	4.165891e+01	3.643765e+00	2.540137e+05	1.013200e+05	2.881201e+02	1.003172e-01	-7.051822e-03	0.000000e+00	
8.499841e-01	8.621716e-02	1.225045e+00	4.165886e+01	3.644090e+00	2.540138e+05	1.013200e+05	2.881201e+02	1.003171e-01	-7.039234e-03	0.000000e+00	
9.156785e-01	-5.327834e-02	1.225045e+00	4.165893e+01	3.644364e+00	2.540138e+05	1.013200e+05	2.881201e+02	1.003173e-01	-7.046660e-03	0.000000e+00	
9.158203e-01	5.251095e-02	1.225045e+00	4.165892e+01	3.644367e+00	2.540137e+05	1.013200e+05	2.881201e+02	1.003173e-01	-7.064537e-03	0.000000e+00	
9.090909e-01	1.570790e-01	1.225045e+00	4.165892e+01	3.644341e+00	2.540137e+05	1.013200e+05	2.881201e+02	1.003173e-01	-7.057200e-03	0.000000e+00	
1.000000e+00	0.000000e+00	1.225045e+00	4.165893e+01	3.644599e+00	2.540137e+05	1.013200e+05	2.881201e+02	1.003174e-01	-7.057540e-03	0.000000e+00	
1.000000e+00	-7.853950e-02	1.225045e+00	4.165894e+01	3.644570e+00	2.540137e+05	1.013200e+05	2.881201e+02	1.003174e-01	-7.059575e-03	0.000000e+00	
1.000000e+00	7.853950e-02	1.225045e+00	4.165891e+01	3.644574e+00	2.540137e+05	1.013200e+05	2.881201e+02	1.003173e-01	-7.053866e-03	0.000000e+00	
1.000000e+00	1.570790e-01	1.225045e+00	4.165892e+01	3.644583e+00	2.540137e+05	1.013200e+05	2.881201e+02	1.003174e-01	-7.056621e-03	0.000000e+00	
0.000000e+00	-1.570790e-01	1.225099e+00	4.165853e+01	7.966222e-01	2.540234e+05	1.013260e+05	2.881244e+02	9.994784e-02	1.348724e-03	0.000000e+00	
9.090909e-02	-1.570790e-01	1.225081e+00	4.165797e+01	2.042794e+00	2.540202e+05	1.013241e+05	2.881232e+02	1.000499e-01	-1.269279e-03	0.000000e+00	
1.818182e-01	-1.570790e-01	1.225062e+00	4.166011e+01	3.003063e+00	2.540168e+05	1.013219e+05	2.881215e+02	1.001962e-01	-4.349483e-03	0.000000e+00	
2.727273e-01	-1.570790e-01	1.225049e+00	4.165955e+01	3.370159e+00	2.540145e+05	1.013206e+05	2.881207e+02	1.002632e-01	-6.203567e-03	0.000000e+00	
3.636364e-01	-1.570790e-01	1.225047e+00	4.165910e+01	3.538710e+00	2.540141e+05	1.013203e+05	2.881203e+02	1.002957e-01	-6.652746e-03	0.000000e+00	
4.545455e-01	-1.570790e-01	1.225046e+00	4.165892e+01	3.601673e+00	2.540139e+05	1.013201e+05	2.881202e+02	1.003084e-01	-6.896486e-03	0.000000e+00	
5.454545e-01	-1.570790e-01	1.225045e+00	4.165897e+01	3.628977e+00	2.540138e+05	1.013200e+05	2.881201e+02	1.003142e-01	-7.019175e-03	0.000000e+00	
6.363636e-01	-1.570790e-01	1.225045e+00	4.165890e+01	3.638420e+00	2.540138e+05	1.013200e+05	2.881201e+02	1.003160e-01	-7.027098e-03	0.000000e+00	
7.272727e-01	-1.570790e-01	1.225045e+00	4.165893e+01	3.642437e+00	2.540137e+05	1.013200e+05	2.881201e+02	1.003169e-01	-7.057670e-03	0.000000e+00	
8.181818e-01	-1.570790e-01	1.225045e+00	4.165891e+01	3.643765e+00	2.540137e+05	1.013200e+05	2.881201e+02	1.003172e-01	-7.051822e-03	0.000000e+00	
1.000000e+00	-1.570790e-01	1.225045e+00	4.165892e+01	3.644583e+00	2.540137e+05	1.013200e+05	2.881201e+02	1.003174e-01	-7.056621e-03	0.000000e+00	
9.090909e-01	-1.570790e-01	1.225045e+00	4.165892e+01	3.644341e+00	2.540137e+05	1.013200e+05	2.881201e+02	1.003173e-01	-7.057200e-03	0.000000e+00	
49	50	1	1
1	50	2	2
50	3	2	2
1	2	4	4
5	2	3	3
50	51	3	3
4	2	6	6
7	5	3	3
2	5	6	6
7	3	51	51
4	6	8	8
9	5	7	7
6	5	10	10
52	7	51	51
6	11	8	8
12	9	7	7
5	9	13	13
10	5	13	13
10	11	6	6
52	12	7	7
8	11	14	14
12	15	9	9
9	16	13	13
10	13	17	17
17	11	10	10
53	12	52	52
9	15	16	16
18	15	12	12
16	19	13	13
13	19	17	17
18	12	53	53
15	20	16	16
15	18	21	21
16	22	19	19
54	18	53	53
20	22	16	16
15	21	20	20
21	18	23	23
18	54	23	23
24	22	20	20
21	25	20	20
23	26	21	21
23	54	55	55
24	20	25	25
26	25	21	21
26	23	27	27
23	55	27	27
28	24	25	25
29	25	26	26
27	30	26	26
27	55	56	56
28	25	29	29
30	29	26	26
27	31	30	30
27	56	31	31
32	28	29	29
33	29	30	30
30	31	34	34
31	56	57	57
32	29	33	33
30	34	33	33
34	31	35	35
35	31	57	57
33	36	32	32
34	37	33	33
38	34	35	35
58	35	57	57
37	36	33	33
38	37	34	34
39	38	35	35
58	39	35	35
37	40	36	36
38	41	37	37
39	42	38	38
39	58	60	60
41	40	37	37
43	41	38	38
42	43	38	38
42	39	60	60
41	44	40	40
43	44	41	41
45	43	42	42
42	60	46	46
47	44	43	43
45	42	46	46
47	43	45	45
46	60	59	59
47	48	44	44
