TITLE = "Visualization of the volumetric solution"
VARIABLES = "x","y","Density","Momentum_x","Momentum_y","Energy","Pressure","Temperature","Mach","C<sub>p</sub>","Roe_Dissipation"
ZONE NODES= 115, ELEMENTS= 176, DATAPACKING=POINT, ZONETYPE=FEQUADRILATERAL
1.000000e+00	-7.853950e-02	1.225045e+00	4.165893e+01	3.644576e+00	2.540137e+05	1.013200e+05	2.881201e+02	1.003174e-01	-7.056123e-03	0.000000e+00	
1.085725e+00	-5.313149e-02	1.225045e+00	4.165893e+01	3.644583e+00	2.540137e+05	1.013200e+05	2.881201e+02	1.003174e-01	-7.056614e-03	0.000000e+00	
1.154299e+00	-8.865983e-02	1.225045e+00	4.165893e+01	3.644582e+00	2.540137e+05	1.013200e+05	2.881201e+02	1.003174e-01	-7.056109e-03	0.000000e+00	
1.000000e+00	0.000000e+00	1.225045e+00	4.165893e+01	3.644591e+00	2.540137e+05	1.013200e+05	2.881201e+02	1.003174e-01	-7.056548e-03	0.000000e+00	
1.180923e+00	-9.066818e-04	1.225045e+00	4.165892e+01	3.644583e+00	2.540137e+05	1.013200e+05	2.881201e+02	1.003174e-01	-7.056088e-03	0.000000e+00	
1.085633e+00	5.250652e-02	1.225045e+00	4.165892e+01	3.644584e+00	2.540137e+05	1.013200e+05	2.881201e+02	1.003174e-01	-7.056004e-03	0.000000e+00	
1.219523e+00	-8.316472e-02	1.225045e+00	4.165893e+01	3.644582e+00	2.540137e+05	1.013200e+05	2.881201e+02	1.003174e-01	-7.055913e-03	0.000000e+00	
1.000000e+00	7.853950e-02	1.225045e+00	4.165892e+01	3.644580e+00	2.540137e+05	1.013200e+05	2.881201e+02	1.003174e-01	-7.056992e-03	0.000000e+00	
1.257612e+00	-3.687791e-03	1.225045e+00	4.165892e+01	3.644583e+00	2.540137e+05	1.013200e+05	2.881201e+02	1.003174e-01	-7.055829e-03	0.000000e+00	
1.153622e+00	8.584806e-02	1.225045e+00	4.165892e+01	3.644583e+00	2.540137e+05	1.013200e+05	2.881201e+02	1.003174e-01	-7.056088e-03	0.000000e+00	
1.090909e+00	1.570790e-01	1.225045e+00	4.165892e+01	3.644580e+00	2.540137e+05	1.013200e+05	2.881201e+02	1.003174e-01	-7.056226e-03	0.000000e+00	
1.311232e+00	-8.687723e-02	1.225045e+00	4.165892e+01	3.644583e+00	2.540137e+05	1.013200e+05	2.881201e+02	1.003174e-01	-7.055688e-03	0.000000e+00	
1.216712e+00	7.243005e-02	1.225045e+00	4.165892e+01	3.644583e+00	2.540137e+05	1.013200e+05	2.881201e+02	1.003174e-01	-7.055933e-03	0.000000e+00	
1.000000e+00	1.570790e-01	1.225045e+00	4.165892e+01	3.644576e+00	2.540137e+05	1.013200e+05	2.881201e+02	1.003174e-01	-7.056734e-03	0.000000e+00	
1.357009e+00	-4.200952e-03	1.225045e+00	4.165892e+01	3.644583e+00	2.540137e+05	1.013200e+05	2.881201e+02	1.003174e-01	-7.055568e-03	0.000000e+00	
1.309314e+00	7.640583e-02	1.225045e+00	4.165892e+01	3.644583e+00	2.540137e+05	1.013200e+05	2.881201e+02	1.003174e-01	-7.055683e-03	0.000000e+00	
1.181818e+00	1.570790e-01	1.225045e+00	4.165893e+01	3.644582e+00	2.540137e+05	1.013200e+05	2.881201e+02	1.003174e-01	-7.056120e-03	0.000000e+00	
1.404458e+00	-8.678316e-02	1.225045e+00	4.165892e+01	3.644583e+00	2.540137e+05	1.013200e+05	2.881201e+02	1.003174e-01	-7.055412e-03	0.000000e+00	
1.272727e+00	1.570790e-01	1.225045e+00	4.165893e+01	3.644583e+00	2.540137e+05	1.013200e+05	2.881201e+02	1.003174e-01	-7.055793e-03	0.000000e+00	
1.403064e+00	7.729792e-02	1.225045e+00	4.165892e+01	3.644583e+00	2.540137e+05	1.013200e+05	2.881201e+02	1.003174e-01	-7.055422e-03	0.000000e+00	
1.450962e+00	-3.777646e-03	1.225045e+00	4.165892e+01	3.644583e+00	2.540137e+05	1.013200e+05	2.881201e+02	1.003174e-01	-7.055293e-03	0.000000e+00	
1.363636e+00	1.570790e-01	1.225045e+00	4.165893e+01	3.644583e+00	2.540137e+05	1.013200e+05	2.881201e+02	1.003174e-01	-7.055556e-03	0.000000e+00	
1.496685e+00	-8.592366e-02	1.225045e+00	4.165892e+01	3.644583e+00	2.540137e+05	1.013200e+05	2.881201e+02	1.003174e-01	-7.055146e-03	0.000000e+00	
1.495626e+00	7.787184e-02	1.225045e+00	4.165892e+01	3.644583e+00	2.540137e+05	1.013200e+05	2.881201e+02	1.003174e-01	-7.055149e-03	0.000000e+00	
1.454545e+00	1.570790e-01	1.225045e+00	4.165893e+01	3.644583e+00	2.540137e+05	1.013200e+05	2.881201e+02	1.003174e-01	-7.055286e-03	0.000000e+00	
1.543219e+00	-3.127193e-03	1.225045e+00	4.165892e+01	3.644583e+00	2.540137e+05	1.013200e+05	2.881201e+02	1.003174e-01	-7.055014e-03	0.000000e+00	
1.588309e+00	-8.492145e-02	1.225045e+00	4.165892e+01	3.644583e+00	2.540137e+05	1.013200e+05	2.881201e+02	1.003174e-01	-7.054862e-03	0.000000e+00	
1.587481e+00	7.844930e-02	1.225045e+00	4.165892e+01	3.644583e+00	2.540137e+05	1.013200e+05	2.881201e+02	1.003174e-01	-7.054868e-03	0.000000e+00	
1.545455e+00	1.570790e-01	1.225045e+00	4.165893e+01	3.644583e+00	2.540137e+05	1.013200e+05	2.881201e+02	1.003174e-01	-7.055012e-03	0.000000e+00	
1.634769e+00	-2.428543e-03	1.225045e+00	4.165892e+01	3.644583e+00	2.540137e+05	1.013200e+05	2.881201e+02	1.003174e-01	-7.054727e-03	0.000000e+00	
1.679655e+00	-8.390391e-02	1.225045e+00	4.165892e+01	3.644584e+00	2.540137e+05	1.013200e+05	2.881201e+02	1.003174e-01	-7.054573e-03	0.000000e+00	
1.678999e+00	7.905634e-02	1.225045e+00	4.165892e+01	3.644584e+00	2.540137e+05	1.013200e+05	2.881201e+02	1.003174e-01	-7.054578e-03	0.000000e+00	
1.636364e+00	1.570790e-01	1.225045e+00	4.165893e+01	3.644583e+00	2.540137e+05	1.013200e+05	2.881201e+02	1.003174e-01	-7.054726e-03	0.000000e+00	
1.726020e+00	-1.719844e-03	1.225045e+00	4.165892e+01	3.644584e+00	2.540137e+05	1.013200e+05	2.881201e+02	1.003174e-01	-7.054432e-03	0.000000e+00	
1.770897e+00	-8.289321e-02	1.225045e+00	4.165892e+01	3.644584e+00	2.540137e+05	1.013200e+05	2.881201e+02	1.003174e-01	-7.054273e-03	0.000000e+00	
1.770375e+00	7.969628e-02	1.225045e+00	4.165892e+01	3.644584e+00	2.540137e+05	1.013200e+05	2.881201e+02	1.003174e-01	-7.054279e-03	0.000000e+00	
1.727273e+00	1.570790e-01	1.225045e+00	4.165893e+01	3.644584e+00	2.540137e+05	1.013200e+05	2.881201e+02	1.003174e-01	-7.054432e-03	0.000000e+00	
1.817159e+00	-1.003437e-03	1.225045e+00	4.165892e+01	3.644584e+00	2.540137e+05	1.013200e+05	2.881201e+02	1.003174e-01	-7.054129e-03	0.000000e+00	
1.862114e+00	-8.189185e-02	1.225045e+00	4.165892e+01	3.644584e+00	2.540137e+05	1.013200e+05	2.881201e+02	1.003174e-01	-7.053967e-03	0.000000e+00	
1.861695e+00	8.037111e-02	1.225045e+00	4.165892e+01	3.644584e+00	2.540137e+05	1.013200e+05	2.881201e+02	1.003174e-01	-7.053972e-03	0.000000e+00	
1.818182e+00	1.570790e-01	1.225045e+00	4.165893e+01	3.644584e+00	2.540137e+05	1.013200e+05	2.881201e+02	1.003174e-01	-7.054129e-03	0.000000e+00	
1.908265e+00	-2.775766e-04	1.225045e+00	4.165892e+01	3.644584e+00	2.540137e+05	1.013200e+05	2.881201e+02	1.003174e-01	-7.053818e-03	0.000000e+00	
1.953338e+00	-8.090128e-02	1.225045e+00	4.165892e+01	3.644585e+00	2.540137e+05	1.013200e+05	2.881201e+02	1.003174e-01	-7.053652e-03	0.000000e+00	
1.952993e+00	8.108029e-02	1.225045e+00	4.165892e+01	3.644585e+00	2.540137e+05	1.013200e+05	2.881201e+02	1.003174e-01	-7.053658e-03	0.000000e+00	
1.909091e+00	1.570790e-01	1.225045e+00	4.165893e+01	3.644584e+00	2.540137e+05	1.013200e+05	2.881201e+02	1.003174e-01	-7.053818e-03	0.000000e+00	
1.999365e+00	4.569476e-04	1.225045e+00	4.165892e+01	3.644585e+00	2.540137e+05	1.013200e+05	2.881201e+02	1.003174e-01	-7.053499e-03	0.000000e+00	
2.044581e+00	-7.992460e-02	1.225045e+00	4.165892e+01	3.644585e+00	2.540137e+05	1.013200e+05	2.881201e+02	1.003174e-01	-7.053331e-03	0.000000e+00	
2.044278e+00	8.182109e-02	1.225045e+00	4.165892e+01	3.644585e+00	2.540137e+05	1.013200e+05	2.881201e+02	1.003174e-01	-7.053336e-03	0.000000e+00	
2.000000e+00	1.570790e-01	1.225045e+00	4.165892e+01	3.644585e+00	2.540137e+05	1.013200e+05	2.881201e+02	1.003174e-01	-7.053500e-03	0.000000e+00	
2.090471e+00	1.196851e-03	1.225045e+00	4.165892e+01	3.644585e+00	2.540137e+05	1.013200e+05	2.881201e+02	1.003174e-01	-7.053174e-03	0.000000e+00	
2.135852e+00	-7.896680e-02	1.225045e+00	4.165892e+01	3.644585e+00	2.540137e+05	1.013200e+05	2.881201e+02	1.003174e-01	-7.053003e-03	0.000000e+00	
2.135557e+00	8.258943e-02	1.225045e+00	4.165892e+01	3.644585e+00	2.540137e+05	1.013200e+05	2.881201e+02	1.003174e-01	-7.053007e-03	0.000000e+00	
2.090909e+00	1.570790e-01	1.225045e+00	4.165892e+01	3.644585e+00	2.540137e+05	1.013200e+05	2.881201e+02	1.003174e-01	-7.053175e-03	0.000000e+00	
2.181592e+00	1.936509e-03	1.225045e+00	4.165892e+01	3.644585e+00	2.540137e+05	1.013200e+05	2.881201e+02	1.003174e-01	-7.052842e-03	0.000000e+00	
2.227164e+00	-7.803665e-02	1.225045e+00	4.165892e+01	3.644586e+00	2.540137e+05	1.013200e+05	2.881201e+02	1.003174e-01	-7.052669e-03	0.000000e+00	
2.226834e+00	8.338078e-02	1.225045e+00	4.165892e+01	3.644586e+00	2.540137e+05	1.013200e+05	2.881201e+02	1.003174e-01	-7.052673e-03	0.000000e+00	
2.181818e+00	1.570790e-01	1.225045e+00	4.165892e+01	3.644585e+00	2.540137e+05	1.013200e+05	2.881201e+02	1.003174e-01	-7.052844e-03	0.000000e+00	
2.272745e+00	2.667051e-03	1.225045e+00	4.165892e+01	3.644586e+00	2.540137e+05	1.013200e+05	2.881201e+02	1.003174e-01	-7.052505e-03	0.000000e+00	
2.318520e+00	-7.714706e-02	1.225045e+00	4.165892e+01	3.644586e+00	2.540137e+05	1.013200e+05	2.881201e+02	1.003174e-01	-7.052330e-03	0.000000e+00	
2.272727e+00	1.570790e-01	1.225045e+00	4.165892e+01	3.644586e+00	2.540137e+05	1.013200e+05	2.881201e+02	1.003174e-01	-7.052508e-03	0.000000e+00	
2.318126e+00	8.419401e-02	1.225045e+00	4.165892e+01	3.644586e+00	2.540137e+05	1.013200e+05	2.881201e+02	1.003174e-01	-7.052334e-03	0.000000e+00	
2.363993e+00	3.350856e-03	1.225045e+00	4.165892e+01	3.644586e+00	2.540137e+05	1.013200e+05	2.881201e+02	1.003174e-01	-7.052163e-03	0.000000e+00	
2.409905e+00	-7.624586e-02	1.225045e+00	4.165892e+01	3.644586e+00	2.540137e+05	1.013200e+05	2.881201e+02	1.003174e-01	-7.051986e-03	0.000000e+00	
2.363636e+00	1.570790e-01	1.225045e+00	4.165892e+01	3.644586e+00	2.540137e+05	1.013200e+05	2.881201e+02	1.003174e-01	-7.052165e-03	0.000000e+00	
2.409500e+00	8.497986e-02	1.225045e+00	4.165892e+01	3.644586e+00	2.540137e+05	1.013200e+05	2.881201e+02	1.003174e-01	-7.051990e-03	0.000000e+00	
2.455429e+00	4.101278e-03	1.225045e+00	4.165892e+01	3.644586e+00	2.540137e+05	1.013200e+05	2.881201e+02	1.003174e-01	-7.051815e-03	0.000000e+00	
2.501494e+00	-7.532792e-02	1.225045e+00	4.165892e+01	3.644586e+00	2.540137e+05	1.013200e+05	2.881201e+02	1.003174e-01	-7.051637e-03	0.000000e+00	
2.454545e+00	1.570790e-01	1.225045e+00	4.165892e+01	3.644586e+00	2.540137e+05	1.013200e+05	2.881201e+02	1.003174e-01	-7.051821e-03	0.000000e+00	
2.501060e+00	8.583346e-02	1.225045e+00	4.165892e+01	3.644586e+00	2.540137e+05	1.013200e+05	2.881201e+02	1.003174e-01	-7.051642e-03	0.000000e+00	
2.547371e+00	4.840426e-03	1.225045e+00	4.165892e+01	3.644586e+00	2.540137e+05	1.013200e+05	2.881201e+02	1.003174e-01	-7.051463e-03	0.000000e+00	
2.593564e+00	-7.439556e-02	1.225045e+00	4.165892e+01	3.644587e+00	2.540137e+05	1.013200e+05	2.881201e+02	1.003174e-01	-7.051288e-03	0.000000e+00	
2.545455e+00	1.570790e-01	1.225045e+00	4.165892e+01	3.644586e+00	2.540137e+05	1.013200e+05	2.881201e+02	1.003174e-01	-7.051469e-03	0.000000e+00	
2.593031e+00	8.662114e-02	1.225045e+00	4.165892e+01	3.644587e+00	2.540137e+05	1.013200e+05	2.881201e+02	1.003174e-01	-7.051292e-03	0.000000e+00	
2.640560e+00	5.374258e-03	1.225045e+00	4.165892e+01	3.644587e+00	2.540137e+05	1.013200e+05	2.881201e+02	1.003174e-01	-7.051100e-03	0.000000e+00	
2.686429e+00	-7.337503e-02	1.225045e+00	4.165892e+01	3.644587e+00	2.540137e+05	1.013200e+05	2.881201e+02	1.003174e-01	-7.050921e-03	0.000000e+00	
2.636364e+00	1.570790e-01	1.225045e+00	4.165892e+01	3.644587e+00	2.540137e+05	1.013200e+05	2.881201e+02	1.003174e-01	-7.051123e-03	0.000000e+00	
2.685617e+00	8.693177e-02	1.225045e+00	4.165892e+01	3.644587e+00	2.540137e+05	1.013200e+05	2.881201e+02	1.003174e-01	-7.050930e-03	0.000000e+00	
2.738042e+00	4.885921e-03	1.225045e+00	4.165892e+01	3.644587e+00	2.540137e+05	1.013200e+05	2.881201e+02	1.003174e-01	-7.050739e-03	0.000000e+00	
2.777801e+00	-7.085504e-02	1.225045e+00	4.165892e+01	3.644587e+00	2.540137e+05	1.013200e+05	2.881201e+02	1.003174e-01	-7.050593e-03	0.000000e+00	
2.727273e+00	1.570790e-01	1.225045e+00	4.165892e+01	3.644587e+00	2.540137e+05	1.013200e+05	2.881201e+02	1.003174e-01	-7.050765e-03	0.000000e+00	
2.776064e+00	8.521941e-02	1.225045e+00	4.165892e+01	3.644587e+00	2.540137e+05	1.013200e+05	2.881201e+02	1.003174e-01	-7.050601e-03	0.000000e+00	
2.822397e+00	1.203459e-03	1.225045e+00	4.165892e+01	3.644588e+00	2.540137e+05	1.013200e+05	2.881201e+02	1.003174e-01	-7.050363e-03	0.000000e+00	
2.850005e+00	-8.622417e-02	1.225045e+00	4.165892e+01	3.644588e+00	2.540137e+05	1.013200e+05	2.881201e+02	1.003174e-01	-7.050224e-03	0.000000e+00	
2.818182e+00	1.570790e-01	1.225045e+00	4.165892e+01	3.644587e+00	2.540137e+05	1.013200e+05	2.881201e+02	1.003174e-01	-7.050396e-03	0.000000e+00	
2.848954e+00	8.943078e-02	1.225045e+00	4.165892e+01	3.644588e+00	2.540137e+05	1.013200e+05	2.881201e+02	1.003174e-01	-7.050238e-03	0.000000e+00	
2.915830e+00	-5.250948e-02	1.225045e+00	4.165892e+01	3.644588e+00	2.540137e+05	1.013200e+05	2.881201e+02	1.003174e-01	-7.050038e-03	0.000000e+00	
2.915684e+00	5.328900e-02	1.225045e+00	4.165892e+01	3.644588e+00	2.540137e+05	1.013200e+05	2.881201e+02	1.003174e-01	-7.050045e-03	0.000000e+00	
2.909091e+00	1.570790e-01	1.225045e+00	4.165892e+01	3.644588e+00	2.540137e+05	1.013200e+05	2.881201e+02	1.003174e-01	-7.050039e-03	0.000000e+00	
3.000000e+00	0.000000e+00	1.225045e+00	4.165892e+01	3.644588e+00	2.540137e+05	1.013200e+05	2.881201e+02	1.003174e-01	-7.049625e-03	0.000000e+00	
3.000000e+00	-7.853950e-02	1.225045e+00	4.165892e+01	3.644588e+00	2.540137e+05	1.013200e+05	2.881201e+02	1.003174e-01	-7.049675e-03	0.000000e+00	
3.000000e+00	7.853950e-02	1.225045e+00	4.165892e+01	3.644589e+00	2.540137e+05	1.013200e+05	2.881201e+02	1.003174e-01	-7.049677e-03	0.000000e+00	
3.000000e+00	1.570790e-01	1.225045e+00	4.165892e+01	3.644588e+00	2.540137e+05	1.013200e+05	2.881201e+02	1.003174e-01	-7.049708e-03	0.000000e+00	
1.000000e+00	-1.570790e-01	1.225045e+00	4.165892e+01	3.644576e+00	2.540137e+05	1.013200e+05	2.881201e+02	1.003174e-01	-7.056734e-03	0.000000e+00	
1.090909e+00	-1.570790e-01	1.225045e+00	4.165892e+01	3.644580e+00	2.540137e+05	1.013200e+05	2.881201e+02	1.003174e-01	-7.056226e-03	0.000000e+00	
1.181818e+00	-1.570790e-01	1.225045e+00	4.165893e+01	3.644582e+00	2.540137e+05	1.013200e+05	2.881201e+02	1.003174e-01	-7.056120e-03	0.000000e+00	
1.272727e+00	-1.570790e-01	1.225045e+00	4.165893e+01	3.644583e+00	2.540137e+05	1.013200e+05	2.881201e+02	1.003174e-01	-7.055793e-03	0.000000e+00	
1.363636e+00	-1.570790e-01	1.225045e+00	4.165893e+01	3.644583e+00	2.540137e+05	1.013200e+05	2.881201e+02	1.003174e-01	-7.055556e-03	0.000000e+00	
1.454545e+00	-1.570790e-01	1.225045e+00	4.165893e+01	3.644583e+00	2.540137e+05	1.013200e+05	2.881201e+02	1.003174e-01	-7.055286e-03	0.000000e+00	
1.545455e+00	-1.570790e-01	1.225045e+00	4.165893e+01	3.644583e+00	2.540137e+05	1.013200e+05	2.881201e+02	1.003174e-01	-7.055012e-03	0.000000e+00	
1.636364e+00	-1.570790e-01	1.225045e+00	4.165893e+01	3.644583e+00	2.540137e+05	1.013200e+05	2.881201e+02	1.003174e-01	-7.054726e-03	0.000000e+00	
1.727273e+00	-1.570790e-01	1.225045e+00	4.165893e+01	3.644584e+00	2.540137e+05	1.013200e+05	2.881201e+02	1.003174e-01	-7.054432e-03	0.000000e+00	
1.818182e+00	-1.570790e-01	1.225045e+00	4.165893e+01	3.644584e+00	2.540137e+05	1.013200e+05	2.881201e+02	1.003174e-01	-7.054129e-03	0.000000e+00	
1.909091e+00	-1.570790e-01	1.225045e+00	4.165893e+01	3.644584e+00	2.540137e+05	1.013200e+05	2.881201e+02	1.003174e-01	-7.053818e-03	0.000000e+00	
2.000000e+00	-1.570790e-01	1.225045e+00	4.165892e+01	3.644585e+00	2.540137e+05	1.013200e+05	2.881201e+02	1.003174e-01	-7.053500e-03	0.000000e+00	
2.090909e+00	-1.570790e-01	1.225045e+00	4.165892e+01	3.644585e+00	2.540137e+05	1.013200e+05	2.881201e+02	1.003174e-01	-7.053175e-03	0.000000e+00	
2.181818e+00	-1.570790e-01	1.225045e+00	4.165892e+01	3.644585e+00	2.540137e+05	1.013200e+05	2.881201e+02	1.003174e-01	-7.052844e-03	0.000000e+00	
2.272727e+00	-1.570790e-01	1.225045e+00	4.165892e+01	3.644586e+00	2.540137e+05	1.013200e+05	2.881201e+02	1.003174e-01	-7.052508e-03	0.000000e+00	
2.363636e+00	-1.570790e-01	1.225045e+00	4.165892e+01	3.644586e+00	2.540137e+05	1.013200e+05	2.881201e+02	1.003174e-01	-7.052165e-03	0.000000e+00	
2.454545e+00	-1.570790e-01	1.225045e+00	4.165892e+01	3.644586e+00	2.540137e+05	1.013200e+05	2.881201e+02	1.003174e-01	-7.051821e-03	0.000000e+00	
2.545455e+00	-1.570790e-01	1.225045e+00	4.165892e+01	3.644586e+00	2.540137e+05	1.013200e+05	2.881201e+02	1.003174e-01	-7.051469e-03	0.000000e+00	
2.636364e+00	-1.570790e-01	1.225045e+00	4.165892e+01	3.644587e+00	2.540137e+05	1.013200e+05	2.881201e+02	1.003174e-01	-7.051123e-03	0.000000e+00	
2.727273e+00	-1.570790e-01	1.225045e+00	4.165892e+01	3.644587e+00	2.540137e+05	1.013200e+05	2.881201e+02	1.003174e-01	-7.050765e-03	0.000000e+00	
2.818182e+00	-1.570790e-01	1.225045e+00	4.165892e+01	3.644587e+00	2.540137e+05	1.013200e+05	2.881201e+02	1.003174e-01	-7.050396e-03	0.000000e+00	
3.000000e+00	-1.570790e-01	1.225045e+00	4.165892e+01	3.644588e+00	2.540137e+05	1.013200e+05	2.881201e+02	1.003174e-01	-7.049708e-03	0.000000e+00	
2.909091e+00	-1.570790e-01	1.225045e+00	4.165892e+01	3.644588e+00	2.540137e+05	1.013200e+05	2.881201e+02	1.003174e-01	-7.050039e-03	0.000000e+00	
93	94	1	1
1	94	2	2
94	3	2	2
1	2	4	4
5	2	3	3
94	95	3	3
4	2	6	6
7	5	3	3
5	6	2	2
7	3	95	95
4	6	8	8
9	5	7	7
6	5	10	10
96	7	95	95
6	11	8	8
12	9	7	7
5	9	13	13
5	13	10	10
10	11	6	6
12	7	96	96
8	11	14	14
12	15	9	9
9	16	13	13
10	13	17	17
17	11	10	10
97	12	96	96
9	15	16	16
12	18	15	15
13	16	19	19
13	19	17	17
97	18	12	12
20	16	15	15
18	21	15	15
16	22	19	19
98	18	97	97
15	21	20	20
20	22	16	16
18	23	21	21
98	23	18	18
24	20	21	21
20	25	22	22
23	26	21	21
99	23	98	98
21	26	24	24
24	25	20	20
23	27	26	26
99	27	23	23
28	24	26	26
24	29	25	25
27	30	26	26
100	27	99	99
26	30	28	28
28	29	24	24
27	31	30	30
100	31	27	27
28	30	32	32
33	29	28	28
31	34	30	30
31	100	101	101
30	34	32	32
33	28	32	32
35	34	31	31
35	31	101	101
32	34	36	36
37	33	32	32
38	34	35	35
35	101	102	102
38	36	34	34
37	32	36	36
39	38	35	35
39	35	102	102
36	38	40	40
41	37	36	36
42	38	39	39
39	102	103	103
42	40	38	38
41	36	40	40
43	42	39	39
43	39	103	103
40	42	44	44
45	41	40	40
46	42	43	43
43	103	104	104
46	44	42	42
45	40	44	44
46	43	47	47
43	104	47	47
44	46	48	48
49	45	44	44
47	50	46	46
47	104	105	105
50	48	46	46
49	44	48	48
51	50	47	47
51	47	105	105
52	48	50	50
48	53	49	49
50	51	54	54
106	51	105	105
54	52	50	50
52	53	48	48
51	55	54	54
106	55	51	51
54	56	52	52
52	57	53	53
55	58	54	54
107	55	106	106
52	56	57	57
58	56	54	54
59	58	55	55
107	59	55	55
56	60	57	57
61	56	58	58
62	58	59	59
108	59	107	107
56	61	60	60
62	61	58	58
63	62	59	59
108	63	59	59
61	64	60	60
62	65	61	61
66	62	63	63
109	63	108	108
61	65	64	64
65	62	66	66
67	66	63	63
109	67	63	63
65	68	64	64
66	69	65	65
70	66	67	67
110	67	109	109
65	69	68	68
69	66	70	70
71	70	67	67
110	71	67	67
69	72	68	68
70	73	69	69
74	70	71	71
111	71	110	110
69	73	72	72
73	70	74	74
75	74	71	71
111	75	71	71
73	76	72	72
73	74	77	77
74	75	78	78
112	75	111	111
73	77	76	76
74	78	77	77
78	75	79	79
112	79	75	75
77	80	76	76
81	77	78	78
82	78	79	79
113	79	112	112
81	80	77	77
82	81	78	78
83	82	79	79
113	83	79	79
81	84	80	80
82	85	81	81
83	86	82	82
83	113	115	115
85	84	81	81
87	85	82	82
86	87	82	82
86	83	115	115
85	88	84	84
87	88	85	85
89	87	86	86
86	115	90	90
91	88	87	87
89	86	90	90
91	87	89	89
90	115	114	114
91	92	88	88
