/*--------------------------------*- C++ -*----------------------------------*\
  =========                 |
  \\      /  F ield         | OpenFOAM: The Open Source CFD Toolbox
   \\    /   O peration     | Website:  https://openfoam.org
    \\  /    A nd           | Version:  6
     \\/     M anipulation  |
\*---------------------------------------------------------------------------*/
FoamFile
{
    version     2.0;
    format      ascii;
    class       volVectorField;
    location    "20";
    object      U;
}
// * * * * * * * * * * * * * * * * * * * * * * * * * * * * * * * * * * * * * //

dimensions      [0 1 -1 0 0 0 0];

internalField   nonuniform List<vector> 
4000
(
(400 5.05754e-14 0)
(400 5.68658e-14 0)
(400 5.79911e-14 0)
(400 6.06685e-14 0)
(400 6.1132e-14 0)
(400 7.59553e-14 0)
(400 6.20221e-14 0)
(400 5.62544e-14 0)
(400 5.39593e-14 0)
(400 2.80348e-14 0)
(400 1.46074e-14 0)
(400 1.9345e-14 0)
(400 2.40225e-14 0)
(400 4.28975e-14 0)
(400 6.21312e-14 0)
(400 7.88273e-14 0)
(400 6.56123e-14 0)
(400 3.43596e-14 0)
(400 1.89315e-14 0)
(400 1.55122e-14 0)
(400 2.54265e-14 0)
(400 2.02618e-14 0)
(400 4.84334e-15 0)
(400 -1.0571e-14 0)
(400 2.00435e-15 0)
(400 1.74203e-15 0)
(400 -1.03238e-14 0)
(400 -1.65798e-14 0)
(400 -2.61667e-14 0)
(400 -2.53419e-14 0)
(400 -1.75259e-14 0)
(400 -1.26832e-14 0)
(400 -6.36251e-15 0)
(400 -1.05566e-14 0)
(400 -3.92533e-15 0)
(400 2.04138e-14 0)
(400 3.22204e-14 0)
(400 2.52152e-14 0)
(400 1.09816e-14 0)
(400 8.94983e-15 0)
(400 4.16621e-16 0)
(400 -2.19348e-15 0)
(400 -1.34952e-14 0)
(400 -1.51982e-14 0)
(400 -1.60949e-14 0)
(400 -3.06892e-14 0)
(400 -3.01058e-14 0)
(400 -3.08213e-14 0)
(400 -3.09498e-14 0)
(400 -2.89342e-14 0)
(400 -2.14977e-14 0)
(400 -1.31083e-14 0)
(400 -2.20439e-15 0)
(400 -1.84942e-14 0)
(400 -2.89168e-14 0)
(400 -4.29882e-15 0)
(400 1.88501e-14 0)
(400 2.25762e-14 0)
(400 2.66421e-14 0)
(400 3.53686e-14 0)
(400 4.49717e-14 0)
(400 3.33515e-14 0)
(400 2.23391e-14 0)
(400 2.52283e-14 0)
(400 9.69198e-15 0)
(400 1.11497e-14 0)
(400 -3.75841e-15 0)
(400 -9.00431e-15 0)
(400 -5.72437e-15 0)
(400 -8.42789e-15 0)
(400 -1.34878e-14 0)
(400 -3.34965e-14 0)
(400 -6.41237e-14 0)
(400 -7.98733e-14 0)
(400 -9.10023e-14 0)
(400 -8.25677e-14 0)
(400 -6.13494e-14 0)
(400 -5.65647e-14 0)
(400 -5.47664e-14 0)
(400 -7.02737e-14 0)
(400 -6.40709e-14 0)
(400 -4.21603e-14 0)
(400 -4.53574e-14 0)
(400 -4.40637e-14 0)
(400 -5.17867e-14 0)
(400 -4.55405e-14 0)
(400 -2.19886e-14 0)
(400 -5.18547e-15 0)
(400 -7.22465e-16 0)
(400 1.09078e-15 0)
(400 7.09844e-15 0)
(400 2.04431e-14 0)
(400 9.50526e-15 0)
(400 -5.30667e-15 0)
(400 3.80419e-15 0)
(400 1.76465e-14 0)
(400 2.09331e-14 0)
(400 1.42962e-14 0)
(400 1.08393e-14 0)
(400 1.84556e-14 0)
(400 2.16895e-14 0)
(400 3.1662e-14 0)
(400 3.48941e-14 0)
(400 4.349e-14 0)
(400 5.55583e-14 0)
(400 6.08469e-14 0)
(400 6.73403e-14 0)
(400 7.3128e-14 0)
(400 6.99707e-14 0)
(400 5.62839e-14 0)
(400 4.53603e-14 0)
(400 4.78007e-14 0)
(400 3.01841e-14 0)
(400 4.7541e-15 0)
(400 -8.65375e-15 0)
(400 -1.46715e-14 0)
(400 -1.11329e-14 0)
(400 -2.77299e-14 0)
(400 -5.13882e-14 0)
(400 -4.38398e-14 0)
(400 -4.0875e-14 0)
(400 -4.24311e-14 0)
(400 -5.03098e-14 0)
(400 -5.06768e-14 0)
(400 -3.68015e-14 0)
(400 -3.30306e-14 0)
(400 -3.4852e-14 0)
(400 -3.08104e-14 0)
(400 -3.68714e-14 0)
(400 -9.4754e-15 0)
(400 -6.32596e-15 0)
(400 -2.40571e-14 0)
(400 -3.08893e-14 0)
(400 -1.05165e-14 0)
(400 -5.06535e-15 0)
(400 -7.41211e-15 0)
(400 -1.13029e-14 0)
(400 -2.92388e-15 0)
(400 1.09233e-14 0)
(400 6.05812e-15 0)
(400 -2.53449e-14 0)
(400 -2.9494e-14 0)
(400 -8.78226e-15 0)
(400 2.57775e-15 0)
(400 7.16822e-15 0)
(400 1.09398e-14 0)
(400 2.24127e-14 0)
(400 3.24475e-14 0)
(400 4.61371e-14 0)
(400 4.94832e-14 0)
(400 2.61442e-14 0)
(400 5.16957e-15 0)
(400 6.94323e-15 0)
(400 -1.2502e-14 0)
(400 -2.49689e-14 0)
(400 -5.84986e-14 0)
(400 -6.43004e-14 0)
(400 -5.39511e-14 0)
(400 -4.15872e-14 0)
(400 -4.86329e-14 0)
(400 -3.00053e-14 0)
(400 -8.96647e-15 0)
(400 1.95565e-15 0)
(400 -1.1085e-14 0)
(400 -3.42573e-14 0)
(400 -5.31331e-15 0)
(400 -7.73657e-15 0)
(400 -1.46107e-14 0)
(400 -1.95549e-14 0)
(400 -3.43714e-14 0)
(400 -4.02975e-14 0)
(400 -3.32213e-14 0)
(400 -4.19143e-14 0)
(400 -5.98796e-14 0)
(400 -6.27406e-14 0)
(400 -3.30257e-14 0)
(400 -1.09289e-14 0)
(400 -1.47517e-14 0)
(400 -1.96871e-14 0)
(400 -3.29533e-14 0)
(400 -2.97177e-14 0)
(400 -6.89908e-15 0)
(400 2.79731e-15 0)
(400 9.66575e-15 0)
(400 8.1704e-15 0)
(400 7.04586e-15 0)
(400 2.48434e-14 0)
(400 2.23177e-14 0)
(400 2.06583e-15 0)
(400 -8.33171e-16 0)
(400 2.09665e-14 0)
(400 3.59294e-14 0)
(400 4.06025e-14 0)
(400 4.10839e-14 0)
(400 3.29536e-14 0)
(400 2.25961e-14 0)
(400 6.38987e-15 0)
(400 -1.18148e-14 0)
(400 -1.31119e-14 0)
(400 -1.43643e-14 0)
(400 1.09423e-14 0)
(400 1.33633e-14 0)
(400 2.77918e-14 0)
(400 3.55133e-14 0)
(400 4.51857e-14 0)
(400 6.34798e-14 0)
(400 5.96614e-14 0)
(400 5.0905e-14 0)
(400 4.9028e-14 0)
(400 4.00932e-14 0)
(400 3.3162e-14 0)
(400 3.30149e-14 0)
(400 4.01145e-14 0)
(400 5.15324e-14 0)
(400 5.27656e-14 0)
(400 4.73934e-14 0)
(400 5.60495e-14 0)
(400 6.38123e-14 0)
(400 6.6204e-14 0)
(400 7.16399e-14 0)
(400 5.9939e-14 0)
(400 2.16335e-14 0)
(400 -1.2265e-14 0)
(400 -1.60532e-14 0)
(400 -1.3807e-14 0)
(400 -1.70703e-14 0)
(400 -2.17746e-14 0)
(400 -1.99855e-14 0)
(400 -1.38377e-14 0)
(400 -1.35505e-14 0)
(400 1.9762e-15 0)
(400 1.61188e-14 0)
(400 1.46117e-14 0)
(400 1.95855e-14 0)
(400 2.8987e-14 0)
(400 4.58359e-14 0)
(400 3.7578e-14 0)
(400 2.0578e-14 0)
(400 1.37636e-14 0)
(400 2.8798e-14 0)
(400 3.81385e-14 0)
(400 3.78798e-14 0)
(400 3.63264e-14 0)
(400 3.84739e-14 0)
(400 3.26763e-14 0)
(400 2.96343e-14 0)
(400 2.53324e-14 0)
(400 9.66529e-15 0)
(400 -4.89047e-15 0)
(400 -1.57143e-14 0)
(400 -3.49986e-15 0)
(400 -6.49632e-15 0)
(400 -1.27511e-14 0)
(400 -3.20155e-14 0)
(400 -5.56084e-14 0)
(400 -4.08696e-14 0)
(400 -2.2175e-14 0)
(400 -1.65976e-14 0)
(400 -1.5523e-14 0)
(400 -1.1916e-14 0)
(400 -5.86835e-15 0)
(400 -2.13755e-14 0)
(400 -3.23881e-14 0)
(400 -3.55947e-14 0)
(400 -3.23395e-14 0)
(400 -3.86757e-14 0)
(400 -4.08406e-14 0)
(400 -3.66343e-14 0)
(400 -2.75822e-14 0)
(400 -5.31309e-15 0)
(400 6.31588e-15 0)
(400 3.83589e-15 0)
(400 -1.32975e-14 0)
(400 -2.82556e-14 0)
(400 -3.23338e-14 0)
(400 -3.669e-14 0)
(400 -3.29604e-14 0)
(400 -1.02685e-14 0)
(400 -7.66712e-15 0)
(400 -9.44504e-15 0)
(400 -5.44851e-15 0)
(400 4.28659e-15 0)
(400 1.65475e-15 0)
(400 1.81144e-15 0)
(400 -3.9075e-15 0)
(400 -7.44087e-15 0)
(400 -4.85067e-16 0)
(400 2.21232e-14 0)
(400 4.34664e-14 0)
(400 4.71605e-14 0)
(400 3.78314e-14 0)
(400 4.00741e-14 0)
(400 2.01482e-14 0)
(400 1.32038e-14 0)
(400 1.00531e-14 0)
(400 1.07734e-14 0)
(400 3.23765e-15 0)
(400 -1.28753e-14 0)
(400 -1.68614e-14 0)
(400 -1.43036e-14 0)
(400 3.25301e-16 0)
(400 2.72548e-15 0)
(400 2.63691e-15 0)
(400 1.93949e-14 0)
(400 2.77107e-14 0)
(400 1.37517e-14 0)
(400 9.32695e-15 0)
(400 2.72437e-14 0)
(400 3.53864e-14 0)
(400 2.34667e-14 0)
(400 1.0146e-14 0)
(400 1.51708e-14 0)
(400 -1.31414e-15 0)
(400 1.01166e-15 0)
(400 -1.01943e-14 0)
(400 -1.91612e-14 0)
(400 8.38571e-15 0)
(400 2.85436e-16 0)
(400 -2.68596e-14 0)
(400 -2.58929e-14 0)
(400 -1.55006e-14 0)
(400 -9.63735e-15 0)
(400 -4.12264e-15 0)
(400 -2.09481e-14 0)
(400 -2.53871e-14 0)
(400 -3.46167e-14 0)
(400 -3.45484e-14 0)
(400 -3.43964e-14 0)
(400 -2.48642e-14 0)
(400 -2.77601e-14 0)
(400 -5.30572e-14 0)
(400 -6.09021e-14 0)
(400 -5.86485e-14 0)
(400 -6.19969e-14 0)
(400 -6.17892e-14 0)
(400 -4.57024e-14 0)
(400 -3.00784e-14 0)
(400 -1.65865e-14 0)
(400 -8.86894e-15 0)
(400 -2.59066e-15 0)
(400 -3.20209e-16 0)
(400 -1.72318e-15 0)
(400 -9.11001e-15 0)
(400 5.59743e-16 0)
(400 1.01436e-14 0)
(400 1.73859e-14 0)
(400 1.1048e-14 0)
(400 1.27519e-14 0)
(400 2.82078e-14 0)
(400 2.58974e-14 0)
(400 5.03783e-17 0)
(400 -2.09315e-15 0)
(400 1.21845e-14 0)
(400 -1.02144e-14 0)
(400 -2.044e-14 0)
(400 -3.98207e-14 0)
(400 -5.59861e-14 0)
(400 -3.29316e-14 0)
(400 -7.14994e-15 0)
(400 -3.94232e-15 0)
(400 1.05102e-14 0)
(400 1.98482e-14 0)
(400 2.5385e-14 0)
(400 1.174e-14 0)
(400 -2.04251e-14 0)
(400 -2.79094e-14 0)
(400 -2.73281e-14 0)
(400 -2.60069e-14 0)
(400 -3.95549e-14 0)
(400 -5.81087e-14 0)
(400 -5.71223e-14 0)
(400 -4.36504e-14 0)
(400 -4.25368e-14 0)
(400 -5.0603e-14 0)
(400 -5.85716e-14 0)
(400 -5.38413e-14 0)
(400 -3.18779e-14 0)
(400 -1.12805e-14 0)
(400 -8.4578e-15 0)
(400 -9.86459e-15 0)
(400 2.19724e-15 0)
(400 1.87287e-14 0)
(400 4.0379e-14 0)
(400 5.09627e-14 0)
(400 4.52493e-14 0)
(400 4.8e-14 0)
(400 7.26801e-14 0)
(400 7.67007e-14 0)
(400 5.29729e-14 0)
(400 5.06762e-14 0)
(400 6.85005e-14 0)
(400 6.19639e-14 0)
(400 5.21195e-14 0)
(400 3.92456e-14 0)
(400 1.05849e-14 0)
(400 -3.34129e-15 0)
(400 -1.01241e-14 0)
(400 -1.83977e-14 0)
(400 -2.25323e-14 0)
(400 -3.6885e-14 0)
(400 -1.02203e-14 0)
(400 -3.64262e-15 0)
(400 1.10274e-14 0)
(400 2.38756e-14 0)
(400 3.36739e-14 0)
(400 4.75818e-14 0)
(400 6.02346e-14 0)
(400 5.1541e-14 0)
(400 4.38453e-14 0)
(400 3.84232e-14 0)
(400 3.14753e-14 0)
(400 2.77327e-14 0)
(400 2.0822e-14 0)
(400 2.6648e-14 0)
(400 3.39659e-14 0)
(400 1.97712e-14 0)
(400 1.99296e-14 0)
(400 4.78865e-14 0)
(400 6.18046e-14 0)
(400 6.21812e-14 0)
(400 5.10297e-14 0)
(400 4.1285e-14 0)
(400 2.70278e-14 0)
(400 4.61192e-14 0)
(400 2.84498e-14 0)
(400 1.83141e-14 0)
(400 1.439e-14 0)
(400 1.756e-14 0)
(400 2.19311e-14 0)
(400 2.20183e-14 0)
(400 2.82092e-14 0)
(400 1.86602e-14 0)
(400 1.56063e-14 0)
(400 4.45941e-14 0)
(400 4.36504e-14 0)
(400 1.55682e-14 0)
(400 -8.57971e-15 0)
(400 -2.32536e-14 0)
(400 -3.52831e-14 0)
(400 -3.06599e-14 0)
(400 -1.46929e-14 0)
(400 2.50798e-15 0)
(400 1.1302e-14 0)
(400 2.03815e-14 0)
(400 1.94373e-14 0)
(400 2.55697e-14 0)
(400 2.24412e-14 0)
(400 1.16577e-14 0)
(400 7.5031e-15 0)
(400 -1.06826e-14 0)
(400 -6.98995e-15 0)
(400 1.64927e-14 0)
(400 1.7569e-14 0)
(400 -1.95978e-14 0)
(400 -3.99453e-14 0)
(400 -3.0515e-14 0)
(400 -3.35235e-14 0)
(400 -3.05851e-14 0)
(400 -3.90654e-14 0)
(400 -3.77095e-14 0)
(400 -4.21891e-14 0)
(400 -4.1259e-14 0)
(400 -2.35393e-14 0)
(400 -2.07704e-14 0)
(400 -1.33658e-14 0)
(400 -2.52061e-14 0)
(400 -4.19764e-14 0)
(400 -4.13329e-14 0)
(400 -3.8363e-14 0)
(400 -3.11046e-14 0)
(400 -3.0171e-14 0)
(400 -3.7954e-14 0)
(400 -4.81735e-14 0)
(400 -5.83956e-14 0)
(400 -5.6602e-14 0)
(400 -6.51774e-14 0)
(400 -8.31471e-14 0)
(400 -7.39552e-14 0)
(400 -6.24456e-14 0)
(400 -3.46074e-14 0)
(400 -1.63496e-14 0)
(400 -2.29709e-14 0)
(400 -1.90875e-14 0)
(400 -1.44884e-14 0)
(400 -5.54998e-15 0)
(400 -4.15353e-15 0)
(400 -1.07926e-14 0)
(400 2.7268e-15 0)
(400 3.3673e-14 0)
(400 4.89295e-14 0)
(400 4.87072e-14 0)
(400 3.57568e-14 0)
(400 1.71942e-14 0)
(400 1.85652e-14 0)
(400 1.70486e-14 0)
(400 1.89274e-14 0)
(400 1.98901e-16 0)
(400 -1.55002e-14 0)
(400 -8.96249e-15 0)
(400 -5.84052e-15 0)
(400 -1.30764e-14 0)
(400 -2.60249e-14 0)
(400 -1.43069e-14 0)
(400 -8.96509e-15 0)
(400 -1.52829e-14 0)
(400 -1.54261e-14 0)
(400 -1.93978e-14 0)
(400 -5.75209e-15 0)
(400 2.03303e-15 0)
(400 3.10219e-15 0)
(400 -6.66094e-15 0)
(400 -4.82969e-15 0)
(400 6.02718e-15 0)
(400 6.7695e-15 0)
(400 -1.38005e-14 0)
(400 -1.89757e-14 0)
(400 -9.56096e-15 0)
(400 1.80294e-15 0)
(400 -3.92974e-15 0)
(400 -1.83779e-14 0)
(400 -7.62342e-15 0)
(400 3.09604e-15 0)
(400 1.04654e-14 0)
(400 4.54101e-15 0)
(400 -1.18482e-14 0)
(400 -2.97167e-14 0)
(400 -3.28497e-14 0)
(400 -4.35411e-14 0)
(400 -2.85368e-14 0)
(400 -3.82998e-14 0)
(400 -5.27911e-14 0)
(400 -3.81062e-14 0)
(400 -2.06078e-14 0)
(400 -3.22591e-14 0)
(400 -2.93375e-14 0)
(400 -1.78532e-14 0)
(400 7.18561e-15 0)
(400 2.57822e-14 0)
(400 3.43134e-14 0)
(400 3.98116e-14 0)
(400 5.00725e-14 0)
(400 5.42359e-14 0)
(400 5.33646e-14 0)
(400 7.19294e-14 0)
(400 7.49736e-14 0)
(400 5.86072e-14 0)
(400 3.73963e-14 0)
(400 2.99249e-14 0)
(400 2.5245e-14 0)
(400 1.99014e-14 0)
(400 2.1331e-14 0)
(400 3.25574e-14 0)
(400 2.70223e-14 0)
(400 1.38222e-14 0)
(400 -1.01772e-14 0)
(400 -2.44899e-14 0)
(400 -4.60231e-14 0)
(400 -2.82679e-14 0)
(400 -5.09701e-15 0)
(400 1.27603e-14 0)
(400 1.72902e-14 0)
(400 1.59033e-14 0)
(400 2.0493e-14 0)
(400 2.17073e-14 0)
(400 2.02601e-14 0)
(400 -8.95753e-15 0)
(400 -1.66189e-14 0)
(400 -4.9664e-15 0)
(400 -9.9221e-15 0)
(400 -3.22895e-14 0)
(400 -3.49243e-14 0)
(400 -4.4108e-14 0)
(400 -4.34388e-14 0)
(400 -2.87563e-14 0)
(400 -1.95408e-14 0)
(400 -2.89018e-14 0)
(400 -5.16785e-14 0)
(400 -5.00056e-14 0)
(400 -3.23899e-14 0)
(400 -7.24212e-15 0)
(400 1.72836e-14 0)
(400 1.10251e-14 0)
(400 1.05994e-14 0)
(400 2.40201e-14 0)
(400 3.46849e-14 0)
(400 3.9596e-14 0)
(400 5.42715e-14 0)
(400 7.45264e-14 0)
(400 9.21319e-14 0)
(400 1.05702e-13 0)
(400 1.16878e-13 0)
(400 9.57236e-14 0)
(400 8.30368e-14 0)
(400 7.26364e-14 0)
(400 5.16092e-14 0)
(400 3.15321e-14 0)
(400 2.82352e-14 0)
(400 3.68032e-14 0)
(400 2.21101e-14 0)
(400 9.3504e-15 0)
(400 5.0577e-15 0)
(400 1.44088e-14 0)
(400 2.72703e-14 0)
(400 5.21664e-14 0)
(400 5.64758e-14 0)
(400 5.55186e-14 0)
(400 5.90597e-14 0)
(400 4.77473e-14 0)
(400 3.89794e-14 0)
(400 2.40103e-14 0)
(400 2.35963e-14 0)
(400 1.98815e-14 0)
(400 2.40526e-14 0)
(400 2.08389e-14 0)
(400 2.09085e-14 0)
(400 1.44256e-14 0)
(400 2.83451e-15 0)
(400 2.34589e-14 0)
(400 2.85541e-14 0)
(400 3.06139e-14 0)
(400 3.01927e-14 0)
(400 4.79591e-14 0)
(400 5.30903e-14 0)
(400 5.64135e-14 0)
(400 4.08218e-14 0)
(400 2.7751e-14 0)
(400 2.31061e-14 0)
(400 2.07761e-14 0)
(400 2.37451e-14 0)
(400 2.7742e-14 0)
(400 3.30371e-14 0)
(400 6.59494e-15 0)
(400 -8.4356e-15 0)
(400 1.99064e-15 0)
(400 -6.25643e-15 0)
(400 -2.52619e-14 0)
(400 -2.75863e-14 0)
(400 -3.12689e-14 0)
(400 -1.86088e-14 0)
(400 -9.08267e-15 0)
(400 3.91978e-15 0)
(400 1.64143e-14 0)
(400 4.43022e-14 0)
(400 6.62288e-14 0)
(400 6.26276e-14 0)
(400 4.95684e-14 0)
(400 3.84558e-14 0)
(400 3.32824e-14 0)
(400 3.68344e-14 0)
(400 3.50666e-14 0)
(400 1.70327e-14 0)
(400 1.56874e-14 0)
(400 -6.87792e-16 0)
(400 -2.33473e-14 0)
(400 -3.90931e-14 0)
(400 -4.44287e-14 0)
(400 -4.78525e-14 0)
(400 -4.30845e-14 0)
(400 -3.78214e-14 0)
(400 -3.613e-14 0)
(400 -3.43958e-14 0)
(400 -4.28669e-14 0)
(400 -3.93143e-14 0)
(400 -3.85672e-14 0)
(400 -4.1217e-14 0)
(400 -3.9013e-14 0)
(400 -4.82394e-14 0)
(400 -4.58186e-14 0)
(400 -3.43501e-14 0)
(400 -3.08159e-14 0)
(400 -1.12664e-14 0)
(400 -2.06419e-14 0)
(400 -3.6286e-14 0)
(400 -5.21526e-14 0)
(400 -6.03906e-14 0)
(400 -6.70525e-14 0)
(400 -6.56152e-14 0)
(400 -5.96727e-14 0)
(400 -3.99809e-14 0)
(400 -2.67458e-14 0)
(400 -1.25662e-14 0)
(400 -1.05063e-14 0)
(400 -2.02585e-15 0)
(400 1.11912e-14 0)
(400 1.43027e-14 0)
(400 4.93115e-15 0)
(400 2.3807e-14 0)
(400 3.91846e-14 0)
(400 3.64767e-14 0)
(400 3.84293e-14 0)
(400 5.54154e-14 0)
(400 4.62331e-14 0)
(400 4.34197e-14 0)
(400 3.22067e-14 0)
(400 3.34425e-14 0)
(400 3.7261e-14 0)
(400 2.63878e-14 0)
(400 2.74772e-14 0)
(400 2.93224e-14 0)
(400 1.02569e-14 0)
(400 -8.9062e-15 0)
(400 -2.51708e-14 0)
(400 -2.49764e-14 0)
(400 -2.78674e-14 0)
(400 -4.27111e-14 0)
(400 -5.16864e-14 0)
(400 -5.17547e-14 0)
(400 -4.57978e-14 0)
(400 -4.93104e-14 0)
(400 -5.18284e-14 0)
(400 -5.43444e-14 0)
(400 -4.6056e-14 0)
(400 -1.60576e-14 0)
(400 -3.02126e-14 0)
(400 -3.69021e-14 0)
(400 -2.17918e-14 0)
(400 -1.25265e-14 0)
(400 -7.29338e-15 0)
(400 -1.36936e-15 0)
(400 -9.69766e-15 0)
(400 -4.87108e-15 0)
(400 -1.77394e-15 0)
(400 -3.95024e-15 0)
(400 6.4212e-16 0)
(400 -1.90075e-14 0)
(400 -3.16266e-14 0)
(400 -3.57244e-14 0)
(400 -4.39137e-14 0)
(400 -4.43373e-14 0)
(400 -4.91677e-14 0)
(400 -4.94144e-14 0)
(400 -3.67901e-14 0)
(400 -1.18453e-14 0)
(400 1.03174e-14 0)
(400 2.93824e-14 0)
(400 2.95866e-14 0)
(400 3.6583e-14 0)
(400 3.79566e-14 0)
(400 4.47932e-14 0)
(400 4.35064e-14 0)
(400 4.30738e-14 0)
(400 2.24891e-14 0)
(400 2.64531e-14 0)
(400 3.83303e-14 0)
(400 4.36144e-14 0)
(400 3.3965e-14 0)
(400 1.11521e-14 0)
(400 -1.37178e-14 0)
(400 -1.7368e-14 0)
(400 -1.52908e-14 0)
(400 -2.60816e-15 0)
(400 3.8609e-15 0)
(400 1.76993e-14 0)
(400 2.36914e-14 0)
(400 3.06182e-15 0)
(400 1.99104e-15 0)
(400 5.6436e-15 0)
(400 -1.10624e-14 0)
(400 -6.7176e-15 0)
(400 7.76074e-15 0)
(400 1.3219e-14 0)
(400 1.9718e-14 0)
(400 2.83489e-14 0)
(400 4.0375e-14 0)
(400 4.3384e-14 0)
(400 3.43532e-14 0)
(400 1.94326e-14 0)
(400 3.71245e-15 0)
(400 2.31141e-15 0)
(400 -1.06735e-14 0)
(400 -1.77564e-14 0)
(400 -2.4884e-14 0)
(400 -1.23813e-14 0)
(400 -1.17835e-14 0)
(400 -4.50598e-15 0)
(400 9.17364e-15 0)
(400 8.46853e-15 0)
(400 -1.46805e-15 0)
(400 1.57174e-14 0)
(400 2.80327e-14 0)
(400 3.26564e-14 0)
(400 2.60526e-14 0)
(400 1.39252e-14 0)
(400 3.2717e-14 0)
(400 5.40623e-14 0)
(400 7.38884e-14 0)
(400 8.73344e-14 0)
(400 8.5421e-14 0)
(400 9.55729e-14 0)
(400 1.07881e-13 0)
(400 9.67142e-14 0)
(400 7.28411e-14 0)
(400 5.08754e-14 0)
(400 4.05081e-14 0)
(400 2.9996e-14 0)
(400 1.88009e-14 0)
(400 9.41036e-15 0)
(400 -5.97583e-15 0)
(400 -1.38266e-14 0)
(400 -2.45492e-14 0)
(400 1.39713e-14 0)
(400 2.72771e-14 0)
(400 3.67334e-14 0)
(400 5.71177e-14 0)
(400 6.8908e-14 0)
(400 6.51467e-14 0)
(400 5.93418e-14 0)
(400 7.06218e-14 0)
(400 5.7774e-14 0)
(400 4.55336e-14 0)
(400 3.98018e-14 0)
(400 2.81332e-14 0)
(400 4.28366e-14 0)
(400 3.02324e-14 0)
(400 1.42251e-14 0)
(400 -4.31986e-16 0)
(400 1.06931e-14 0)
(400 1.59261e-14 0)
(400 5.71272e-15 0)
(400 5.61356e-15 0)
(400 8.08226e-15 0)
(400 1.63303e-14 0)
(400 2.06267e-14 0)
(400 7.78978e-15 0)
(400 1.06141e-14 0)
(400 1.33176e-14 0)
(400 1.31254e-14 0)
(400 -3.20647e-15 0)
(400 2.5427e-16 0)
(400 5.80615e-15 0)
(400 -3.16203e-15 0)
(400 -1.61286e-14 0)
(400 -3.38805e-14 0)
(400 -5.78488e-14 0)
(400 -6.11891e-14 0)
(400 -5.85813e-14 0)
(400 -4.72951e-14 0)
(400 -3.02853e-14 0)
(400 3.66266e-15 0)
(400 2.06069e-14 0)
(400 3.45206e-14 0)
(400 3.98419e-14 0)
(400 6.02392e-14 0)
(400 7.69318e-14 0)
(400 8.2688e-14 0)
(400 6.12864e-14 0)
(400 4.79727e-14 0)
(400 4.58933e-14 0)
(400 3.55593e-14 0)
(400 3.90171e-14 0)
(400 3.26346e-14 0)
(400 6.62729e-15 0)
(400 -1.54384e-14 0)
(400 -4.18975e-15 0)
(400 -5.02406e-15 0)
(400 -1.67413e-14 0)
(400 -1.49478e-14 0)
(400 -2.16907e-14 0)
(400 -2.38803e-14 0)
(400 -2.75419e-14 0)
(400 -1.83297e-14 0)
(400 -1.69373e-14 0)
(400 -2.43349e-14 0)
(400 -2.39045e-14 0)
(400 -3.12476e-14 0)
(400 -2.8116e-14 0)
(400 -1.8395e-14 0)
(400 -1.93651e-14 0)
(400 -2.13519e-14 0)
(400 -1.82245e-14 0)
(400 -5.58465e-15 0)
(400 -1.45807e-14 0)
(400 -3.493e-14 0)
(400 -6.32278e-14 0)
(400 -7.90164e-14 0)
(400 -6.85048e-14 0)
(400 -5.4838e-14 0)
(400 -4.67066e-14 0)
(400 -4.23462e-14 0)
(400 -4.39495e-14 0)
(400 -4.82524e-14 0)
(400 -3.37747e-14 0)
(400 -7.61041e-15 0)
(400 5.13154e-15 0)
(400 2.39785e-14 0)
(400 4.63228e-14 0)
(400 6.04861e-14 0)
(400 7.13245e-14 0)
(400 6.10939e-14 0)
(400 5.77559e-14 0)
(400 7.19027e-14 0)
(400 7.02251e-14 0)
(400 6.53649e-14 0)
(400 4.91465e-14 0)
(400 4.46099e-14 0)
(400 2.69503e-14 0)
(400 1.40209e-14 0)
(400 1.35638e-14 0)
(400 6.89678e-16 0)
(400 -2.28905e-14 0)
(400 -2.95595e-14 0)
(400 -2.43196e-14 0)
(400 -3.79858e-14 0)
(400 -4.73545e-14 0)
(400 -5.21429e-14 0)
(400 -5.66999e-14 0)
(400 -5.60335e-14 0)
(400 -6.35284e-14 0)
(400 -6.55153e-14 0)
(400 -6.20703e-14 0)
(400 -5.39236e-14 0)
(400 -5.24524e-14 0)
(400 -5.16102e-14 0)
(400 -4.461e-14 0)
(400 -4.34502e-14 0)
(400 -3.78408e-14 0)
(400 -4.55573e-14 0)
(400 -5.26285e-14 0)
(400 -3.48869e-14 0)
(400 -3.68586e-14 0)
(400 -3.91568e-14 0)
(400 -4.55988e-14 0)
(400 -4.5088e-14 0)
(400 -4.47841e-14 0)
(400 -4.95399e-14 0)
(400 -5.21908e-14 0)
(400 -5.61356e-14 0)
(400 -5.8488e-14 0)
(400 -6.63869e-14 0)
(400 -6.61995e-14 0)
(400 -5.39043e-14 0)
(400 -2.87101e-14 0)
(400 5.10656e-15 0)
(400 4.33742e-14 0)
(400 6.25982e-14 0)
(400 8.16206e-14 0)
(400 7.71326e-14 0)
(400 6.11495e-14 0)
(400 6.21397e-14 0)
(400 7.03596e-14 0)
(400 6.80747e-14 0)
(400 4.98579e-14 0)
(400 3.82996e-14 0)
(400 4.04421e-14 0)
(400 5.36225e-14 0)
(400 3.62261e-14 0)
(400 9.54934e-15 0)
(400 -1.24513e-14 0)
(400 -2.2169e-14 0)
(400 -2.13194e-14 0)
(400 -1.34221e-14 0)
(400 -5.19252e-15 0)
(400 1.33479e-14 0)
(400 1.63995e-14 0)
(400 1.52859e-14 0)
(400 1.47842e-14 0)
(400 1.80123e-14 0)
(400 6.11229e-15 0)
(400 2.02135e-15 0)
(400 1.63091e-14 0)
(400 4.63536e-14 0)
(400 5.07827e-14 0)
(400 5.26734e-14 0)
(400 5.66987e-14 0)
(400 5.32039e-14 0)
(400 4.55139e-14 0)
(400 2.39492e-14 0)
(400 2.60536e-15 0)
(400 -9.09227e-15 0)
(400 2.29711e-15 0)
(400 -2.67914e-15 0)
(400 8.79389e-16 0)
(400 6.053e-16 0)
(400 -5.56669e-15 0)
(400 -9.35856e-16 0)
(400 4.46244e-15 0)
(400 1.47174e-14 0)
(400 1.47679e-14 0)
(400 1.30717e-14 0)
(400 1.56833e-14 0)
(400 1.69924e-14 0)
(400 2.12391e-14 0)
(400 2.33638e-14 0)
(400 2.86555e-14 0)
(400 4.65459e-14 0)
(400 8.56712e-14 0)
(400 9.86245e-14 0)
(400 9.47438e-14 0)
(400 1.08486e-13 0)
(400 1.05666e-13 0)
(400 8.96692e-14 0)
(400 7.35511e-14 0)
(400 5.72192e-14 0)
(400 3.98554e-14 0)
(400 2.16974e-14 0)
(400 1.14282e-14 0)
(400 -6.43085e-15 0)
(400 -2.31011e-14 0)
(400 -1.76563e-14 0)
(400 -1.58601e-14 0)
(400 1.04978e-14 0)
(400 2.19064e-14 0)
(400 2.95142e-14 0)
(400 3.67402e-14 0)
(400 4.50293e-14 0)
(400 4.14186e-14 0)
(400 4.56057e-14 0)
(400 6.0602e-14 0)
(400 6.21513e-14 0)
(400 6.89343e-14 0)
(400 7.27923e-14 0)
(400 6.52785e-14 0)
(400 5.16728e-14 0)
(400 3.39493e-14 0)
(400 9.75123e-15 0)
(400 3.7077e-16 0)
(400 -6.34637e-15 0)
(400 -8.66542e-15 0)
(400 -1.72022e-14 0)
(400 -4.08055e-14 0)
(400 -3.61026e-14 0)
(400 -3.87854e-14 0)
(400 -3.36046e-14 0)
(400 -4.41697e-14 0)
(400 -3.1827e-14 0)
(400 -1.76125e-14 0)
(400 -3.79433e-14 0)
(400 -4.40049e-14 0)
(400 -3.81358e-14 0)
(400 -3.41569e-14 0)
(400 -3.41469e-14 0)
(400 -4.62757e-14 0)
(400 -5.83059e-14 0)
(400 -6.8187e-14 0)
(400 -6.87417e-14 0)
(400 -6.68634e-14 0)
(400 -5.25555e-14 0)
(400 -2.70594e-14 0)
(400 -2.40001e-15 0)
(400 5.7443e-15 0)
(400 2.96004e-14 0)
(400 4.35161e-14 0)
(400 5.04921e-14 0)
(400 5.24266e-14 0)
(400 4.91491e-14 0)
(400 4.34668e-14 0)
(400 3.1896e-14 0)
(400 2.21171e-14 0)
(400 6.48699e-16 0)
(400 -8.76239e-15 0)
(400 -6.79669e-15 0)
(400 -2.27128e-14 0)
(400 -2.14892e-14 0)
(400 -7.2402e-15 0)
(400 -2.50531e-15 0)
(400 -1.29413e-14 0)
(400 -1.53283e-14 0)
(400 -2.5596e-14 0)
(400 -4.20504e-14 0)
(400 -4.04625e-14 0)
(400 -2.44986e-14 0)
(400 -1.38948e-14 0)
(400 -1.04307e-14 0)
(400 -1.27162e-14 0)
(400 -8.65469e-15 0)
(400 -8.24114e-15 0)
(400 -6.26006e-15 0)
(400 -6.43667e-15 0)
(400 -2.36255e-14 0)
(400 -2.80656e-14 0)
(400 -3.83137e-14 0)
(400 -3.98815e-14 0)
(400 -4.17448e-14 0)
(400 -4.24468e-14 0)
(400 -4.48079e-14 0)
(400 -2.81354e-14 0)
(400 -2.90033e-14 0)
(400 -3.44277e-14 0)
(400 -4.10731e-14 0)
(400 -4.5374e-14 0)
(400 -5.04816e-14 0)
(400 -4.40329e-14 0)
(400 -2.05128e-14 0)
(400 -1.21481e-14 0)
(400 1.24202e-14 0)
(400 6.05306e-14 0)
(400 4.88302e-14 0)
(400 3.95657e-14 0)
(400 4.57726e-14 0)
(400 4.21311e-14 0)
(400 4.45715e-14 0)
(400 4.61745e-14 0)
(400 6.23656e-14 0)
(400 5.52052e-14 0)
(400 4.99402e-14 0)
(400 2.14111e-14 0)
(400 7.50082e-15 0)
(400 -7.6992e-15 0)
(400 -3.6577e-14 0)
(400 -3.78309e-14 0)
(400 -3.03043e-14 0)
(400 -1.7253e-14 0)
(400 -1.3378e-14 0)
(400 -2.64638e-14 0)
(400 -3.11138e-14 0)
(400 -3.56093e-14 0)
(400 -4.19618e-14 0)
(400 -6.15679e-14 0)
(400 -6.35081e-14 0)
(400 -5.78556e-14 0)
(400 -5.27331e-14 0)
(400 -5.62303e-14 0)
(400 -5.35549e-14 0)
(400 -4.50419e-14 0)
(400 -3.08723e-14 0)
(400 -2.68213e-14 0)
(400 -5.17908e-14 0)
(400 -5.47402e-14 0)
(400 -4.29973e-14 0)
(400 -4.65747e-14 0)
(400 -5.69339e-14 0)
(400 -6.2378e-14 0)
(400 -5.24923e-14 0)
(400 -4.46907e-14 0)
(400 -3.48154e-14 0)
(400 -2.93207e-14 0)
(400 -3.75481e-14 0)
(400 -4.36969e-14 0)
(400 -4.80062e-14 0)
(400 -3.16017e-14 0)
(400 -3.50359e-15 0)
(400 2.26334e-14 0)
(400 4.16843e-14 0)
(400 5.21967e-14 0)
(400 6.11954e-14 0)
(400 7.92901e-14 0)
(400 7.65622e-14 0)
(400 7.17883e-14 0)
(400 8.16063e-14 0)
(400 9.03863e-14 0)
(400 7.23539e-14 0)
(400 7.101e-14 0)
(400 6.28346e-14 0)
(400 5.88439e-14 0)
(400 5.26737e-14 0)
(400 3.48102e-14 0)
(400 1.55919e-14 0)
(400 3.98992e-15 0)
(400 -1.2049e-14 0)
(400 -8.82313e-15 0)
(400 -3.03458e-15 0)
(400 3.30992e-15 0)
(400 2.53957e-15 0)
(400 1.23324e-14 0)
(400 2.66274e-14 0)
(400 3.26729e-14 0)
(400 4.02753e-14 0)
(400 4.39182e-14 0)
(400 3.16853e-14 0)
(400 3.54267e-14 0)
(400 3.92546e-14 0)
(400 2.3445e-14 0)
(400 1.34633e-14 0)
(400 3.43675e-15 0)
(400 9.29751e-16 0)
(400 -2.1936e-14 0)
(400 -4.03275e-14 0)
(400 -2.80363e-14 0)
(400 -1.69148e-14 0)
(400 1.12187e-14 0)
(400 1.19095e-14 0)
(400 8.55423e-15 0)
(400 -5.18106e-15 0)
(400 -9.42447e-15 0)
(400 8.8641e-15 0)
(400 8.73532e-15 0)
(400 3.44053e-15 0)
(400 1.27718e-14 0)
(400 1.17346e-14 0)
(400 1.76199e-14 0)
(400 1.43702e-14 0)
(400 1.48508e-14 0)
(400 1.82241e-14 0)
(400 1.38286e-14 0)
(400 2.49151e-14 0)
(400 3.68922e-14 0)
(400 3.50454e-14 0)
(400 4.91594e-14 0)
(400 6.92598e-14 0)
(400 6.79317e-14 0)
(400 6.21981e-14 0)
(400 6.51883e-14 0)
(400 6.28623e-14 0)
(400 6.27521e-14 0)
(400 7.30804e-14 0)
(400 6.43891e-14 0)
(400 4.93992e-14 0)
(400 5.73028e-14 0)
(400 5.60643e-14 0)
(400 6.35815e-14 0)
(400 -5.60526e-16 0)
(400 8.37454e-15 0)
(400 1.73015e-14 0)
(400 1.55753e-14 0)
(400 1.33977e-14 0)
(400 1.32073e-14 0)
(400 2.62978e-14 0)
(400 3.02595e-14 0)
(400 4.26115e-14 0)
(400 5.91848e-14 0)
(400 6.88849e-14 0)
(400 6.35047e-14 0)
(400 5.77128e-14 0)
(400 5.51596e-14 0)
(400 1.86457e-14 0)
(400 5.38747e-15 0)
(400 -1.25886e-14 0)
(400 -3.47851e-14 0)
(400 -4.02122e-14 0)
(400 -5.60391e-14 0)
(400 -5.04502e-14 0)
(400 -5.42257e-14 0)
(400 -5.63699e-14 0)
(400 -6.80683e-14 0)
(400 -6.86256e-14 0)
(400 -6.638e-14 0)
(400 -7.81775e-14 0)
(400 -8.032e-14 0)
(400 -8.55443e-14 0)
(400 -8.62199e-14 0)
(400 -7.26985e-14 0)
(400 -6.7151e-14 0)
(400 -6.89108e-14 0)
(400 -6.23113e-14 0)
(400 -5.60854e-14 0)
(400 -4.33809e-14 0)
(400 -3.55246e-14 0)
(400 -2.25682e-14 0)
(400 -1.07417e-14 0)
(400 5.82771e-15 0)
(400 2.56863e-14 0)
(400 4.92855e-14 0)
(400 6.19014e-14 0)
(400 6.11178e-14 0)
(400 6.59158e-14 0)
(400 6.75093e-14 0)
(400 4.82811e-14 0)
(400 3.19938e-14 0)
(400 2.64146e-14 0)
(400 3.53884e-14 0)
(400 3.24873e-14 0)
(400 1.95756e-14 0)
(400 1.64685e-14 0)
(400 2.34149e-14 0)
(400 3.87954e-14 0)
(400 1.80782e-14 0)
(400 -7.97063e-16 0)
(400 -1.39204e-14 0)
(400 -1.24069e-14 0)
(400 -1.0261e-14 0)
(400 3.31476e-15 0)
(400 1.86901e-14 0)
(400 1.99137e-14 0)
(400 1.366e-14 0)
(400 2.52657e-14 0)
(400 1.99532e-14 0)
(400 1.79388e-14 0)
(400 5.39734e-15 0)
(400 -7.41539e-15 0)
(400 -1.05748e-14 0)
(400 -5.32517e-14 0)
(400 -5.19015e-14 0)
(400 -3.62824e-14 0)
(400 -3.25451e-14 0)
(400 -3.03071e-14 0)
(400 -2.11734e-14 0)
(400 -1.57192e-14 0)
(400 -1.35096e-14 0)
(400 -1.44319e-14 0)
(400 -1.40017e-14 0)
(400 -4.91097e-16 0)
(400 9.45232e-15 0)
(400 1.92151e-14 0)
(400 3.46027e-14 0)
(400 4.39631e-14 0)
(400 4.03763e-14 0)
(400 3.0293e-14 0)
(400 2.42033e-14 0)
(400 2.82029e-14 0)
(400 2.49539e-14 0)
(400 2.07209e-14 0)
(400 2.11258e-14 0)
(400 3.40001e-14 0)
(400 3.83769e-14 0)
(400 2.46684e-14 0)
(400 1.20031e-15 0)
(400 -9.65683e-15 0)
(400 -2.03205e-14 0)
(400 -1.27805e-14 0)
(400 1.14956e-14 0)
(400 2.1891e-14 0)
(400 3.65369e-14 0)
(400 4.16272e-14 0)
(400 2.90252e-14 0)
(400 2.31163e-14 0)
(400 1.46231e-14 0)
(400 -8.21423e-15 0)
(400 -4.61626e-14 0)
(400 -5.51925e-14 0)
(400 -3.82775e-14 0)
(400 -2.27922e-14 0)
(400 -4.08725e-14 0)
(400 -3.33444e-14 0)
(400 -2.58539e-14 0)
(400 -1.1358e-14 0)
(400 -2.15836e-14 0)
(400 -4.62514e-14 0)
(400 -4.75571e-14 0)
(400 -4.16953e-14 0)
(400 -3.30595e-14 0)
(400 -4.26474e-14 0)
(400 -3.94392e-14 0)
(400 -3.21751e-14 0)
(400 -2.15926e-14 0)
(400 -1.79627e-14 0)
(400 -3.06547e-14 0)
(400 -4.90263e-14 0)
(400 -5.64937e-14 0)
(400 -4.07518e-14 0)
(400 -1.21068e-14 0)
(400 -2.73106e-15 0)
(400 -1.10875e-14 0)
(400 -9.08879e-15 0)
(400 -2.23357e-15 0)
(400 2.84739e-14 0)
(400 4.09676e-14 0)
(400 3.38754e-14 0)
(400 2.56499e-14 0)
(400 3.49023e-14 0)
(400 5.92534e-14 0)
(400 6.42578e-14 0)
(400 4.40152e-14 0)
(400 3.66836e-14 0)
(400 3.72405e-14 0)
(400 3.01015e-14 0)
(400 1.55309e-14 0)
(400 -1.2549e-14 0)
(400 -2.34865e-14 0)
(400 -1.71854e-14 0)
(400 -6.50006e-15 0)
(400 -1.25556e-14 0)
(400 -9.34287e-15 0)
(400 -3.56277e-15 0)
(400 2.75184e-14 0)
(400 5.70797e-14 0)
(400 7.06002e-14 0)
(400 7.13057e-14 0)
(400 6.28271e-14 0)
(400 6.06712e-14 0)
(400 7.44624e-14 0)
(400 5.23679e-14 0)
(400 3.15959e-14 0)
(400 1.82172e-14 0)
(400 4.25619e-15 0)
(400 1.3083e-15 0)
(400 -1.45202e-14 0)
(400 -1.79719e-14 0)
(400 -3.37164e-15 0)
(400 2.43199e-14 0)
(400 3.8327e-14 0)
(400 3.79357e-14 0)
(400 2.21884e-14 0)
(400 8.80659e-15 0)
(400 2.94443e-15 0)
(400 5.17324e-16 0)
(400 8.08192e-15 0)
(400 1.66915e-14 0)
(400 1.87376e-14 0)
(400 2.26124e-14 0)
(400 2.73821e-14 0)
(400 1.51278e-14 0)
(400 -2.54397e-15 0)
(400 -4.96817e-15 0)
(400 -8.97425e-15 0)
(400 -5.02078e-15 0)
(400 -7.35148e-15 0)
(400 -1.33706e-14 0)
(400 -8.69241e-15 0)
(400 3.0042e-16 0)
(400 4.82546e-15 0)
(400 1.51436e-14 0)
(400 3.19563e-14 0)
(400 3.37904e-14 0)
(400 4.4886e-14 0)
(400 6.08112e-14 0)
(400 7.41323e-14 0)
(400 7.1776e-14 0)
(400 6.03511e-14 0)
(400 5.35651e-14 0)
(400 5.50462e-14 0)
(400 -4.68967e-15 0)
(400 5.9648e-15 0)
(400 1.77624e-14 0)
(400 1.5532e-14 0)
(400 1.69278e-14 0)
(400 1.36724e-14 0)
(400 2.24253e-14 0)
(400 3.72105e-14 0)
(400 5.6247e-14 0)
(400 7.32798e-14 0)
(400 6.91544e-14 0)
(400 4.74258e-14 0)
(400 3.72664e-14 0)
(400 3.92069e-14 0)
(400 2.22719e-14 0)
(400 -4.04124e-15 0)
(400 -1.97738e-14 0)
(400 -4.83472e-14 0)
(400 -4.05139e-14 0)
(400 -2.9179e-14 0)
(400 -2.47756e-14 0)
(400 -2.55499e-14 0)
(400 -3.06617e-14 0)
(400 -5.13349e-14 0)
(400 -7.59115e-14 0)
(400 -9.53401e-14 0)
(400 -8.44388e-14 0)
(400 -8.60015e-14 0)
(400 -9.69144e-14 0)
(400 -9.64026e-14 0)
(400 -9.12756e-14 0)
(400 -5.90557e-14 0)
(400 -3.44533e-14 0)
(400 -2.90594e-14 0)
(400 -2.20749e-14 0)
(400 -1.33489e-14 0)
(400 -1.13966e-14 0)
(400 -9.33625e-15 0)
(400 -4.23889e-15 0)