/*--------------------------------*- C++ -*----------------------------------*\
  =========                 |
  \\      /  F ield         | OpenFOAM: The Open Source CFD Toolbox
   \\    /   O peration     | Website:  https://openfoam.org
    \\  /    A nd           | Version:  6
     \\/     M anipulation  |
\*---------------------------------------------------------------------------*/
FoamFile
{
    version     2.0;
    format      ascii;
    class       volScalarField;
    location    "90";
    object      p;
}
// * * * * * * * * * * * * * * * * * * * * * * * * * * * * * * * * * * * * * //

dimensions      [0 2 -2 0 0 0 0];

internalField   nonuniform List<scalar> 
4000
(
-5.47535e-09
-5.45979e-09
-5.42637e-09
-5.40226e-09
-5.38815e-09
-5.38914e-09
-5.38501e-09
-5.38408e-09
-5.37292e-09
-5.3628e-09
-5.37131e-09
-5.3708e-09
-5.35997e-09
-5.37174e-09
-5.37678e-09
-5.37493e-09
-5.36225e-09
-5.33852e-09
-5.31974e-09
-5.28723e-09
-5.27052e-09
-5.25357e-09
-5.23778e-09
-5.21132e-09
-5.19093e-09
-5.17519e-09
-5.17659e-09
-5.1539e-09
-5.12828e-09
-5.11391e-09
-5.08557e-09
-5.06695e-09
-5.04268e-09
-5.01566e-09
-4.99473e-09
-4.97676e-09
-4.95525e-09
-4.92669e-09
-4.9035e-09
-4.90843e-09
-4.88365e-09
-4.8601e-09
-4.85738e-09
-4.86085e-09
-4.86538e-09
-4.86534e-09
-4.86499e-09
-4.86498e-09
-4.8579e-09
-4.82569e-09
-4.78586e-09
-4.74752e-09
-4.69079e-09
-4.62497e-09
-4.55023e-09
-4.49534e-09
-4.44361e-09
-4.41369e-09
-4.38483e-09
-4.35431e-09
-4.33097e-09
-4.31517e-09
-4.27777e-09
-4.23668e-09
-4.20316e-09
-4.16733e-09
-4.15706e-09
-4.13771e-09
-4.10422e-09
-4.07528e-09
-4.04294e-09
-3.99485e-09
-3.95527e-09
-3.92363e-09
-3.88652e-09
-3.86536e-09
-3.8317e-09
-3.80646e-09
-3.7726e-09
-3.74084e-09
-3.70631e-09
-3.6823e-09
-3.66037e-09
-3.63368e-09
-3.59614e-09
-3.55845e-09
-3.51834e-09
-3.49145e-09
-3.46241e-09
-3.4172e-09
-3.38288e-09
-3.35592e-09
-3.34338e-09
-3.34111e-09
-3.31895e-09
-3.30497e-09
-3.29046e-09
-3.25949e-09
-3.24059e-09
-3.22312e-09
-3.20291e-09
-3.1798e-09
-3.13489e-09
-3.08602e-09
-3.04805e-09
-3.00701e-09
-2.96223e-09
-2.92435e-09
-2.87534e-09
-2.81143e-09
-2.76828e-09
-2.7359e-09
-2.68889e-09
-2.62995e-09
-2.57887e-09
-2.51645e-09
-2.46515e-09
-2.44551e-09
-2.42209e-09
-2.4019e-09
-2.38549e-09
-2.37703e-09
-2.36916e-09
-2.36943e-09
-2.35192e-09
-2.33274e-09
-2.31382e-09
-2.27748e-09
-2.24582e-09
-2.22561e-09
-2.18777e-09
-2.14608e-09
-2.12015e-09
-2.08469e-09
-2.04412e-09
-1.99585e-09
-1.94893e-09
-1.89753e-09
-1.85502e-09
-1.81399e-09
-1.78904e-09
-1.7587e-09
-1.73918e-09
-1.72003e-09
-1.70527e-09
-1.67609e-09
-1.64209e-09
-1.623e-09
-1.61141e-09
-1.57113e-09
-1.55296e-09
-1.53665e-09
-1.5226e-09
-1.51371e-09
-1.49464e-09
-1.49136e-09
-1.47097e-09
-1.44264e-09
-1.41794e-09
-1.38991e-09
-1.36542e-09
-1.35007e-09
-1.32836e-09
-1.27659e-09
-1.26298e-09
-1.26782e-09
-1.24489e-09
-1.21028e-09
-1.18099e-09
-1.15277e-09
-1.13672e-09
-1.1306e-09
-1.10244e-09
-1.06265e-09
-1.02874e-09
-1.00749e-09
-9.70492e-10
-9.23022e-10
-8.78221e-10
-8.11088e-10
-7.77622e-10
-7.5454e-10
-7.10554e-10
-6.78862e-10
-6.42923e-10
-6.24259e-10
-5.87324e-10
-5.43605e-10
-4.93041e-10
-4.43271e-10
-4.14794e-10
-3.63634e-10
-3.07644e-10
-2.54318e-10
-2.076e-10
-1.60723e-10
-1.03847e-10
-6.67438e-11
-4.88628e-11
-2.2226e-11
-5.48571e-09
-5.46194e-09
-5.42507e-09
-5.40271e-09
-5.39038e-09
-5.38471e-09
-5.38188e-09
-5.37957e-09
-5.36082e-09
-5.355e-09
-5.36738e-09
-5.36272e-09
-5.34627e-09
-5.36643e-09
-5.38234e-09
-5.37857e-09
-5.35467e-09
-5.33233e-09
-5.32527e-09
-5.30387e-09
-5.28443e-09
-5.26603e-09
-5.24825e-09
-5.21635e-09
-5.20662e-09
-5.19069e-09
-5.18056e-09
-5.15968e-09
-5.13618e-09
-5.11773e-09
-5.0854e-09
-5.0665e-09
-5.04863e-09
-5.00309e-09
-4.98543e-09
-4.97256e-09
-4.94881e-09
-4.9245e-09
-4.89727e-09
-4.89847e-09
-4.88866e-09
-4.87063e-09
-4.86528e-09
-4.86483e-09
-4.87236e-09
-4.87911e-09
-4.87854e-09
-4.8727e-09
-4.86344e-09
-4.84059e-09
-4.79994e-09
-4.74338e-09
-4.68965e-09
-4.61434e-09
-4.54555e-09
-4.49763e-09
-4.45128e-09
-4.41395e-09
-4.38239e-09
-4.35714e-09
-4.33442e-09
-4.31301e-09
-4.26991e-09
-4.22459e-09
-4.19607e-09
-4.18102e-09
-4.1564e-09
-4.13358e-09
-4.0993e-09
-4.07179e-09
-4.03462e-09
-3.9906e-09
-3.94871e-09
-3.91039e-09
-3.88032e-09
-3.85618e-09
-3.82659e-09
-3.81111e-09
-3.77323e-09
-3.7388e-09
-3.71616e-09
-3.69255e-09
-3.66546e-09
-3.64379e-09
-3.61236e-09
-3.57561e-09
-3.53498e-09
-3.5075e-09
-3.46268e-09
-3.42007e-09
-3.38434e-09
-3.35555e-09
-3.33418e-09
-3.32376e-09
-3.30934e-09
-3.29337e-09
-3.26982e-09
-3.25061e-09
-3.22633e-09
-3.20559e-09
-3.18327e-09
-3.16988e-09
-3.14125e-09
-3.09846e-09
-3.03763e-09
-2.98598e-09
-2.96549e-09
-2.932e-09
-2.88042e-09
-2.82094e-09
-2.78222e-09
-2.75443e-09
-2.6996e-09
-2.63775e-09
-2.57818e-09
-2.52001e-09
-2.47118e-09
-2.45448e-09
-2.42932e-09
-2.40911e-09
-2.38773e-09
-2.37337e-09
-2.3725e-09
-2.35588e-09
-2.34438e-09
-2.33534e-09
-2.32274e-09
-2.28566e-09
-2.2496e-09
-2.22424e-09
-2.18624e-09
-2.15261e-09
-2.12241e-09
-2.09462e-09
-2.05481e-09
-2.01021e-09
-1.95222e-09
-1.91158e-09
-1.85716e-09
-1.81527e-09
-1.77566e-09
-1.75751e-09
-1.74256e-09
-1.71612e-09
-1.68629e-09
-1.66488e-09
-1.64243e-09
-1.62091e-09
-1.59652e-09
-1.56982e-09
-1.54724e-09
-1.53292e-09
-1.52864e-09
-1.51638e-09
-1.49453e-09
-1.47892e-09
-1.45917e-09
-1.44386e-09
-1.41546e-09
-1.38633e-09
-1.36353e-09
-1.35689e-09
-1.32611e-09
-1.28443e-09
-1.26709e-09
-1.2774e-09
-1.2545e-09
-1.22041e-09
-1.19145e-09
-1.15536e-09
-1.13741e-09
-1.12874e-09
-1.09031e-09
-1.0561e-09
-1.02527e-09
-1.00854e-09
-9.82103e-10
-9.37894e-10
-8.82649e-10
-8.20107e-10
-7.79981e-10
-7.57347e-10
-7.11011e-10
-6.73522e-10
-6.36933e-10
-6.20601e-10
-5.82188e-10
-5.35108e-10
-4.93188e-10
-4.4532e-10
-4.15076e-10
-3.66886e-10
-3.04788e-10
-2.49999e-10
-1.99697e-10
-1.62034e-10
-1.07458e-10
-6.29229e-11
-3.63657e-11
-1.45302e-11
-5.47873e-09
-5.47628e-09
-5.43504e-09
-5.39583e-09
-5.39229e-09
-5.38749e-09
-5.38469e-09
-5.37688e-09
-5.36061e-09
-5.35002e-09
-5.3579e-09
-5.35916e-09
-5.35332e-09
-5.36434e-09
-5.38663e-09
-5.36557e-09
-5.35135e-09
-5.34891e-09
-5.32985e-09
-5.30482e-09
-5.28777e-09
-5.26998e-09
-5.24798e-09
-5.23323e-09
-5.21498e-09
-5.19912e-09
-5.18762e-09
-5.16382e-09
-5.13107e-09
-5.12046e-09
-5.08346e-09
-5.06666e-09
-5.03622e-09
-4.99259e-09
-4.97754e-09
-4.96161e-09
-4.94355e-09
-4.92194e-09
-4.89068e-09
-4.90385e-09
-4.89401e-09
-4.88133e-09
-4.87194e-09
-4.87759e-09
-4.88089e-09
-4.88284e-09
-4.88385e-09
-4.8824e-09
-4.87083e-09
-4.84091e-09
-4.80046e-09
-4.746e-09
-4.68468e-09
-4.60983e-09
-4.53395e-09
-4.49438e-09
-4.45229e-09
-4.41043e-09
-4.388e-09
-4.36767e-09
-4.33859e-09
-4.30272e-09
-4.26567e-09
-4.22458e-09
-4.19695e-09
-4.17596e-09
-4.14592e-09
-4.11856e-09
-4.09026e-09
-4.05862e-09
-4.02553e-09
-3.98053e-09
-3.93924e-09
-3.90859e-09
-3.88049e-09
-3.85414e-09
-3.84044e-09
-3.82148e-09
-3.7754e-09
-3.74003e-09
-3.71564e-09
-3.69763e-09
-3.66853e-09
-3.66236e-09
-3.62241e-09
-3.5864e-09
-3.5459e-09
-3.50795e-09
-3.46715e-09
-3.42186e-09
-3.37802e-09
-3.36505e-09
-3.32643e-09
-3.30975e-09
-3.29186e-09
-3.27484e-09
-3.25551e-09
-3.23436e-09
-3.22424e-09
-3.20452e-09
-3.17991e-09
-3.16436e-09
-3.12643e-09
-3.08955e-09
-3.04086e-09
-2.98419e-09
-2.9706e-09
-2.92482e-09
-2.8892e-09
-2.84352e-09
-2.78954e-09
-2.76936e-09
-2.71388e-09
-2.64578e-09
-2.58363e-09
-2.52787e-09
-2.48702e-09
-2.46096e-09
-2.44024e-09
-2.41189e-09
-2.38037e-09
-2.36751e-09
-2.35719e-09
-2.33907e-09
-2.33418e-09
-2.32971e-09
-2.32593e-09
-2.29063e-09
-2.25995e-09
-2.2205e-09
-2.1713e-09
-2.15345e-09
-2.11306e-09
-2.08575e-09
-2.0548e-09
-2.02061e-09
-1.96399e-09
-1.91864e-09
-1.86952e-09
-1.82074e-09
-1.78329e-09
-1.75665e-09
-1.73054e-09
-1.71586e-09
-1.69268e-09
-1.65881e-09
-1.6336e-09
-1.61902e-09
-1.61443e-09
-1.58358e-09
-1.55381e-09
-1.53889e-09
-1.52005e-09
-1.5122e-09
-1.49441e-09
-1.47387e-09
-1.46067e-09
-1.44103e-09
-1.41824e-09
-1.38377e-09
-1.34953e-09
-1.34407e-09
-1.33089e-09
-1.2878e-09
-1.26727e-09
-1.27901e-09
-1.25363e-09
-1.22149e-09
-1.18839e-09
-1.15699e-09
-1.15129e-09
-1.12826e-09
-1.08758e-09
-1.05531e-09
-1.028e-09
-1.00816e-09
-9.7783e-10
-9.39323e-10
-8.85104e-10
-8.35424e-10
-7.90616e-10
-7.52175e-10
-7.06297e-10
-6.74038e-10
-6.44548e-10
-6.17384e-10
-5.92437e-10
-5.4473e-10
-4.85231e-10
-4.43146e-10
-4.08069e-10
-3.63857e-10
-3.09431e-10
-2.56887e-10
-1.97122e-10
-1.47669e-10
-1.0823e-10
-6.18266e-11
-3.02173e-11
-1.07092e-11
-5.47054e-09
-5.46429e-09
-5.44293e-09
-5.41626e-09
-5.38823e-09
-5.37824e-09
-5.37162e-09
-5.36784e-09
-5.36744e-09
-5.35839e-09
-5.3645e-09
-5.35558e-09
-5.34873e-09
-5.3644e-09
-5.37317e-09
-5.36878e-09
-5.34252e-09
-5.34846e-09
-5.33904e-09
-5.30696e-09
-5.28186e-09
-5.259e-09
-5.24752e-09
-5.24279e-09
-5.22713e-09
-5.21525e-09
-5.19597e-09
-5.16575e-09
-5.13767e-09
-5.11666e-09
-5.08561e-09
-5.0539e-09
-5.02976e-09
-5.0069e-09
-4.97551e-09
-4.95805e-09
-4.93823e-09
-4.92719e-09
-4.91301e-09
-4.90629e-09
-4.89932e-09
-4.90716e-09
-4.89534e-09
-4.89109e-09
-4.8782e-09
-4.87756e-09
-4.87813e-09
-4.86748e-09
-4.85686e-09
-4.82579e-09
-4.78668e-09
-4.74739e-09
-4.67791e-09
-4.5883e-09
-4.52623e-09
-4.48786e-09
-4.44953e-09
-4.41787e-09
-4.39385e-09
-4.37334e-09
-4.34318e-09
-4.29602e-09
-4.26721e-09
-4.22862e-09
-4.20918e-09
-4.16866e-09
-4.13025e-09
-4.11067e-09
-4.08424e-09
-4.04544e-09
-4.0057e-09
-3.96714e-09
-3.93331e-09
-3.90385e-09
-3.88153e-09
-3.8549e-09
-3.83689e-09
-3.8172e-09
-3.77575e-09
-3.73977e-09
-3.72698e-09
-3.70221e-09
-3.67719e-09
-3.66771e-09
-3.62549e-09
-3.5839e-09
-3.53827e-09
-3.49546e-09
-3.45623e-09
-3.42328e-09
-3.39496e-09
-3.36913e-09
-3.33279e-09
-3.31027e-09
-3.27953e-09
-3.26368e-09
-3.22974e-09
-3.21941e-09
-3.20317e-09
-3.19069e-09
-3.16857e-09
-3.15028e-09
-3.12922e-09
-3.0821e-09
-3.03768e-09
-2.99506e-09
-2.96572e-09
-2.9268e-09
-2.88896e-09
-2.84834e-09
-2.80008e-09
-2.7719e-09
-2.72536e-09
-2.65312e-09
-2.58616e-09
-2.54081e-09
-2.50592e-09
-2.47879e-09
-2.44806e-09
-2.40774e-09
-2.38033e-09
-2.36025e-09
-2.35819e-09
-2.34623e-09
-2.33537e-09
-2.33111e-09
-2.31464e-09
-2.28244e-09
-2.25381e-09
-2.21452e-09
-2.1745e-09
-2.14231e-09
-2.11091e-09
-2.07112e-09
-2.04322e-09
-2.00964e-09
-1.97205e-09
-1.92465e-09
-1.88013e-09
-1.83385e-09
-1.78865e-09
-1.76378e-09
-1.74065e-09
-1.71898e-09
-1.6865e-09
-1.6601e-09
-1.64429e-09
-1.62885e-09
-1.61055e-09
-1.5872e-09
-1.55902e-09
-1.53785e-09
-1.52002e-09
-1.5133e-09
-1.50287e-09
-1.48175e-09
-1.45657e-09
-1.44057e-09
-1.40586e-09
-1.3738e-09
-1.34302e-09
-1.33125e-09
-1.31289e-09
-1.29206e-09
-1.28215e-09
-1.27439e-09
-1.25302e-09
-1.22267e-09
-1.196e-09
-1.17018e-09
-1.15091e-09
-1.12066e-09
-1.08286e-09
-1.05683e-09
-1.03568e-09
-1.01392e-09
-9.79233e-10
-9.46811e-10
-9.03397e-10
-8.48829e-10
-7.97159e-10
-7.511e-10
-7.02124e-10
-6.70934e-10
-6.44251e-10
-6.25953e-10
-5.96803e-10
-5.46709e-10
-4.93742e-10
-4.55312e-10
-4.13561e-10
-3.61516e-10
-3.01976e-10
-2.532e-10
-1.85379e-10
-1.31596e-10
-1.01344e-10
-5.56089e-11
-1.98309e-11
-5.37642e-12
-5.46844e-09
-5.4661e-09
-5.4473e-09
-5.42484e-09
-5.38749e-09
-5.36366e-09
-5.36393e-09
-5.36662e-09
-5.36748e-09
-5.36769e-09
-5.36698e-09
-5.36234e-09
-5.35738e-09
-5.3711e-09
-5.37232e-09
-5.34571e-09
-5.33234e-09
-5.33428e-09
-5.32848e-09
-5.30962e-09
-5.27876e-09
-5.26768e-09
-5.24479e-09
-5.23698e-09
-5.22673e-09
-5.21317e-09
-5.20472e-09
-5.16854e-09
-5.13626e-09
-5.11923e-09
-5.09144e-09
-5.05313e-09
-5.0283e-09
-5.00676e-09
-4.9846e-09
-4.97294e-09
-4.94915e-09
-4.92865e-09
-4.92516e-09
-4.9284e-09
-4.91359e-09
-4.90403e-09
-4.89676e-09
-4.8903e-09
-4.87519e-09
-4.86755e-09
-4.87e-09
-4.85858e-09
-4.84223e-09
-4.80629e-09
-4.77923e-09
-4.72328e-09
-4.64745e-09
-4.57495e-09
-4.51769e-09
-4.48418e-09
-4.45281e-09
-4.42905e-09
-4.40365e-09
-4.37878e-09
-4.34457e-09
-4.29639e-09
-4.27722e-09
-4.25564e-09
-4.2241e-09
-4.17658e-09
-4.12994e-09
-4.10982e-09
-4.0843e-09
-4.03402e-09
-4.00039e-09
-3.95696e-09
-3.93403e-09
-3.91049e-09
-3.8857e-09
-3.86427e-09
-3.84335e-09
-3.81596e-09
-3.77754e-09
-3.73308e-09
-3.70995e-09
-3.70647e-09
-3.68614e-09
-3.67403e-09
-3.62296e-09
-3.56931e-09
-3.53506e-09
-3.49686e-09
-3.46998e-09
-3.41803e-09
-3.39686e-09
-3.36758e-09
-3.3348e-09
-3.30753e-09
-3.27387e-09
-3.25438e-09
-3.22332e-09
-3.20879e-09
-3.20779e-09
-3.18687e-09
-3.16307e-09
-3.14163e-09
-3.11304e-09
-3.07338e-09
-3.02625e-09
-2.99007e-09
-2.96127e-09
-2.9266e-09
-2.88526e-09
-2.8327e-09
-2.79604e-09
-2.76714e-09
-2.71238e-09
-2.64915e-09
-2.59981e-09
-2.57489e-09
-2.52478e-09
-2.47657e-09
-2.44558e-09
-2.40304e-09
-2.36718e-09
-2.35711e-09
-2.36039e-09
-2.34212e-09
-2.34066e-09
-2.33167e-09
-2.30932e-09
-2.27198e-09
-2.24631e-09
-2.20258e-09
-2.16124e-09
-2.13161e-09
-2.09463e-09
-2.0596e-09
-2.03724e-09
-2.01127e-09
-1.97369e-09
-1.92832e-09
-1.89239e-09
-1.83988e-09
-1.78744e-09
-1.772e-09
-1.74127e-09
-1.72355e-09
-1.70578e-09
-1.68061e-09
-1.66172e-09
-1.63446e-09
-1.62011e-09
-1.59937e-09
-1.56582e-09
-1.52266e-09
-1.51736e-09
-1.52526e-09
-1.51418e-09
-1.47803e-09
-1.45389e-09
-1.42769e-09
-1.40315e-09
-1.37606e-09
-1.34777e-09
-1.32139e-09
-1.29992e-09
-1.28643e-09
-1.27451e-09
-1.25945e-09
-1.23825e-09
-1.21262e-09
-1.19489e-09
-1.16392e-09
-1.14759e-09
-1.12323e-09
-1.08049e-09
-1.06205e-09
-1.04439e-09
-1.02462e-09
-9.85184e-10
-9.50339e-10
-9.22665e-10
-8.61737e-10
-8.15953e-10
-7.63901e-10
-7.10491e-10
-6.71201e-10
-6.38066e-10
-6.39407e-10
-6.10191e-10
-5.48311e-10
-4.90159e-10
-4.56942e-10
-4.16553e-10
-3.58499e-10
-2.95216e-10
-2.48355e-10
-1.83686e-10
-1.36324e-10
-9.08355e-11
-4.5208e-11
-1.66868e-11
5.32209e-12
-5.46798e-09
-5.46934e-09
-5.44388e-09
-5.42472e-09
-5.38576e-09
-5.36045e-09
-5.35286e-09
-5.36014e-09
-5.35683e-09
-5.36239e-09
-5.36531e-09
-5.35562e-09
-5.36287e-09
-5.36018e-09
-5.3536e-09
-5.33067e-09
-5.32294e-09
-5.32853e-09
-5.32316e-09
-5.31155e-09
-5.28255e-09
-5.26635e-09
-5.24936e-09
-5.23444e-09
-5.22583e-09
-5.20933e-09
-5.19528e-09
-5.16595e-09
-5.1358e-09
-5.11973e-09
-5.09236e-09
-5.05917e-09
-5.03089e-09
-5.01189e-09
-4.99606e-09
-4.98507e-09
-4.96845e-09
-4.94699e-09
-4.93287e-09
-4.93157e-09
-4.92267e-09
-4.90042e-09
-4.8887e-09
-4.88235e-09
-4.8579e-09
-4.84872e-09
-4.85668e-09
-4.85252e-09
-4.82744e-09
-4.78996e-09
-4.76268e-09
-4.70051e-09
-4.64111e-09
-4.57245e-09
-4.51945e-09
-4.4866e-09
-4.45536e-09
-4.42836e-09
-4.39822e-09
-4.376e-09
-4.34536e-09
-4.31361e-09
-4.28809e-09
-4.2666e-09
-4.2353e-09
-4.19593e-09
-4.15446e-09
-4.11397e-09
-4.07379e-09
-4.03335e-09
-4.00187e-09
-3.96085e-09
-3.94592e-09
-3.92189e-09
-3.88885e-09
-3.87773e-09
-3.84557e-09
-3.81086e-09
-3.76687e-09
-3.7175e-09
-3.69063e-09
-3.69832e-09
-3.68228e-09
-3.65624e-09
-3.62059e-09
-3.56538e-09
-3.52701e-09
-3.49531e-09
-3.46557e-09
-3.41859e-09
-3.38818e-09
-3.35921e-09
-3.33178e-09
-3.30173e-09
-3.26921e-09
-3.23445e-09
-3.21966e-09
-3.21516e-09
-3.20031e-09
-3.18262e-09
-3.16429e-09
-3.13909e-09
-3.11496e-09
-3.07706e-09
-3.02886e-09
-2.9972e-09
-2.96632e-09
-2.9255e-09
-2.87229e-09
-2.81832e-09
-2.77535e-09
-2.73352e-09
-2.68366e-09
-2.63256e-09
-2.60394e-09
-2.57331e-09
-2.52957e-09
-2.48425e-09
-2.44647e-09
-2.40661e-09
-2.37565e-09
-2.37649e-09
-2.36077e-09
-2.35542e-09
-2.35996e-09
-2.34665e-09
-2.31225e-09
-2.28232e-09
-2.24141e-09
-2.19197e-09
-2.15949e-09
-2.12571e-09
-2.08678e-09
-2.05635e-09
-2.03167e-09
-2.00795e-09
-1.97743e-09
-1.92748e-09
-1.89398e-09
-1.84377e-09
-1.80447e-09
-1.78416e-09
-1.75558e-09
-1.73315e-09
-1.72014e-09
-1.69281e-09
-1.66955e-09
-1.6465e-09
-1.62841e-09
-1.60357e-09
-1.56074e-09
-1.52004e-09
-1.50394e-09
-1.50461e-09
-1.48301e-09
-1.45897e-09
-1.43956e-09
-1.42195e-09
-1.39462e-09
-1.36757e-09
-1.3468e-09
-1.32257e-09
-1.29341e-09
-1.28433e-09
-1.27363e-09
-1.25936e-09
-1.23352e-09
-1.21491e-09
-1.20167e-09
-1.167e-09
-1.14074e-09
-1.11695e-09
-1.0881e-09
-1.07492e-09
-1.06444e-09
-1.02376e-09
-9.91497e-10
-9.62374e-10
-9.2606e-10
-8.84798e-10
-8.4767e-10
-7.90991e-10
-7.21853e-10
-6.8369e-10
-6.53996e-10
-6.42565e-10
-6.10816e-10
-5.53251e-10
-5.03426e-10
-4.6653e-10
-4.20801e-10
-3.58487e-10
-2.88248e-10
-2.47502e-10
-1.8987e-10
-1.47545e-10
-1.01644e-10
-4.9264e-11
-2.01961e-11
-4.23669e-12
-5.46497e-09
-5.46339e-09
-5.43472e-09
-5.41883e-09
-5.38985e-09
-5.36613e-09
-5.358e-09
-5.35603e-09
-5.35687e-09
-5.34885e-09
-5.36296e-09
-5.35144e-09
-5.35231e-09
-5.34702e-09
-5.33691e-09
-5.31709e-09
-5.3084e-09
-5.31255e-09
-5.31505e-09
-5.30226e-09
-5.29023e-09
-5.2759e-09
-5.25225e-09
-5.23117e-09
-5.22582e-09
-5.21492e-09
-5.19776e-09
-5.16881e-09
-5.13649e-09
-5.12572e-09
-5.1019e-09
-5.06114e-09
-5.03136e-09
-5.02111e-09
-5.02419e-09
-5.00399e-09
-4.98602e-09
-4.95654e-09
-4.9373e-09
-4.92908e-09
-4.92353e-09
-4.89772e-09
-4.87971e-09
-4.86562e-09
-4.84721e-09
-4.84126e-09
-4.84112e-09
-4.8344e-09
-4.80616e-09
-4.76618e-09
-4.74753e-09
-4.69036e-09
-4.6428e-09
-4.5859e-09
-4.52103e-09
-4.48832e-09
-4.46292e-09
-4.41821e-09
-4.38368e-09
-4.37281e-09
-4.34004e-09
-4.30265e-09
-4.28375e-09
-4.26849e-09
-4.23451e-09
-4.20619e-09
-4.16605e-09
-4.12562e-09
-4.07718e-09
-4.03469e-09
-4.00337e-09
-3.97466e-09
-3.94859e-09
-3.92575e-09
-3.88639e-09
-3.84594e-09
-3.81969e-09
-3.80017e-09
-3.76454e-09
-3.72623e-09
-3.69169e-09
-3.68634e-09
-3.66622e-09
-3.63868e-09
-3.60577e-09
-3.57051e-09
-3.53414e-09
-3.49516e-09
-3.46449e-09
-3.42249e-09
-3.38338e-09
-3.3628e-09
-3.32946e-09
-3.28849e-09
-3.2668e-09
-3.22535e-09
-3.21188e-09
-3.2053e-09
-3.19843e-09
-3.19772e-09
-3.1734e-09
-3.14982e-09
-3.11852e-09
-3.08414e-09
-3.04314e-09
-3.00889e-09
-2.9777e-09
-2.93252e-09
-2.86195e-09
-2.80336e-09
-2.76147e-09
-2.71115e-09
-2.6513e-09
-2.62072e-09
-2.58813e-09
-2.55917e-09
-2.52484e-09
-2.47229e-09
-2.44039e-09
-2.41457e-09
-2.39032e-09
-2.38552e-09
-2.37742e-09
-2.36909e-09
-2.35562e-09
-2.34683e-09
-2.32226e-09
-2.2851e-09
-2.23444e-09
-2.19399e-09
-2.15739e-09
-2.11922e-09
-2.07981e-09
-2.04497e-09
-2.01804e-09
-1.9968e-09
-1.97866e-09
-1.93425e-09
-1.89962e-09
-1.85744e-09
-1.82489e-09
-1.79988e-09
-1.77249e-09
-1.74607e-09
-1.73702e-09
-1.70762e-09
-1.67199e-09
-1.63975e-09
-1.61609e-09
-1.5928e-09
-1.54529e-09
-1.51487e-09
-1.48667e-09
-1.47812e-09
-1.46796e-09
-1.45634e-09
-1.44844e-09
-1.41642e-09
-1.40155e-09
-1.38435e-09
-1.35134e-09
-1.33261e-09
-1.30116e-09
-1.28384e-09
-1.27534e-09
-1.26289e-09
-1.24297e-09
-1.21736e-09
-1.19017e-09
-1.15947e-09
-1.14991e-09
-1.12214e-09
-1.09722e-09
-1.08791e-09
-1.07533e-09
-1.03871e-09
-1.00723e-09
-9.71657e-10
-9.42384e-10
-9.04916e-10
-8.5998e-10
-8.01854e-10
-7.35399e-10
-6.90828e-10
-6.59339e-10
-6.36133e-10
-5.95234e-10
-5.44541e-10
-5.07963e-10
-4.69341e-10
-4.11622e-10
-3.54014e-10
-2.90133e-10
-2.43244e-10
-1.91613e-10
-1.49147e-10
-1.05533e-10
-5.98658e-11
-3.19683e-11
-1.14523e-11
-5.44982e-09
-5.44141e-09
-5.43436e-09
-5.41136e-09
-5.38439e-09
-5.36468e-09
-5.36118e-09
-5.35413e-09
-5.35691e-09
-5.35515e-09
-5.36327e-09
-5.34881e-09
-5.35356e-09
-5.35613e-09
-5.34227e-09
-5.32694e-09
-5.31587e-09
-5.30537e-09
-5.31126e-09
-5.30025e-09
-5.28412e-09
-5.26149e-09
-5.24552e-09
-5.22608e-09
-5.21586e-09
-5.21465e-09
-5.20131e-09
-5.16934e-09
-5.12765e-09
-5.1096e-09
-5.10104e-09
-5.08251e-09
-5.04919e-09
-5.02786e-09
-5.03107e-09
-5.01722e-09
-4.98954e-09
-4.95891e-09
-4.94235e-09
-4.93182e-09
-4.92677e-09
-4.89857e-09
-4.873e-09
-4.84743e-09
-4.83284e-09
-4.83758e-09
-4.83438e-09
-4.82518e-09
-4.79746e-09
-4.76268e-09
-4.72912e-09
-4.68331e-09
-4.6374e-09
-4.58565e-09
-4.53006e-09
-4.49306e-09
-4.45774e-09
-4.41155e-09
-4.37778e-09
-4.36433e-09
-4.34126e-09
-4.31314e-09
-4.28544e-09
-4.26134e-09
-4.23136e-09
-4.20466e-09
-4.17492e-09
-4.12893e-09
-4.07076e-09
-4.03712e-09
-4.0024e-09
-3.98073e-09
-3.94311e-09
-3.9195e-09
-3.88194e-09
-3.83327e-09
-3.81208e-09
-3.78957e-09
-3.75458e-09
-3.72748e-09
-3.70806e-09
-3.69279e-09
-3.66324e-09
-3.64461e-09
-3.5928e-09
-3.5538e-09
-3.52136e-09
-3.49247e-09
-3.46897e-09
-3.41402e-09
-3.38047e-09
-3.36072e-09
-3.3365e-09
-3.30173e-09
-3.25251e-09
-3.22412e-09
-3.20901e-09
-3.20306e-09
-3.1973e-09
-3.18797e-09
-3.17334e-09
-3.15487e-09
-3.13161e-09
-3.09371e-09
-3.03763e-09
-3.00614e-09
-2.98397e-09
-2.91777e-09
-2.86888e-09
-2.79545e-09
-2.7452e-09
-2.71051e-09
-2.63877e-09
-2.6013e-09
-2.56253e-09
-2.54461e-09
-2.51179e-09
-2.46985e-09
-2.43694e-09
-2.40977e-09
-2.39574e-09
-2.38792e-09
-2.37528e-09
-2.371e-09
-2.36517e-09
-2.36145e-09
-2.34449e-09
-2.29641e-09
-2.24001e-09
-2.1932e-09
-2.162e-09
-2.13105e-09
-2.08097e-09
-2.04446e-09
-2.0037e-09
-1.98832e-09
-1.96574e-09
-1.92773e-09
-1.89495e-09
-1.85692e-09
-1.83497e-09
-1.80827e-09
-1.78429e-09
-1.76052e-09
-1.73452e-09
-1.71082e-09
-1.68041e-09
-1.64305e-09
-1.60785e-09
-1.58497e-09
-1.5482e-09
-1.52183e-09
-1.48941e-09
-1.47918e-09
-1.45801e-09
-1.46365e-09
-1.45752e-09
-1.43643e-09
-1.42145e-09
-1.39444e-09
-1.37069e-09
-1.34577e-09
-1.31414e-09
-1.28641e-09
-1.2712e-09
-1.27121e-09
-1.24081e-09
-1.21125e-09
-1.18515e-09
-1.1539e-09
-1.13787e-09
-1.11669e-09
-1.09566e-09
-1.09154e-09
-1.07669e-09
-1.04925e-09
-1.01523e-09
-9.74634e-10
-9.45939e-10
-9.077e-10
-8.71439e-10
-8.10039e-10
-7.44831e-10
-6.96205e-10
-6.66708e-10
-6.33094e-10
-5.93752e-10
-5.40569e-10
-4.91366e-10
-4.55028e-10
-4.12609e-10
-3.53892e-10
-2.92037e-10
-2.42344e-10
-1.93372e-10
-1.6182e-10
-1.14569e-10
-6.38565e-11
-3.06031e-11
-5.95943e-12
-5.45222e-09
-5.45542e-09
-5.43229e-09
-5.41134e-09
-5.39616e-09
-5.3715e-09
-5.36636e-09
-5.35529e-09
-5.34915e-09
-5.33903e-09
-5.35545e-09
-5.34104e-09
-5.33478e-09
-5.3504e-09
-5.35856e-09
-5.34801e-09
-5.32796e-09
-5.30746e-09
-5.31603e-09
-5.30435e-09
-5.27782e-09
-5.26173e-09
-5.23533e-09
-5.21187e-09
-5.20544e-09
-5.20051e-09
-5.18876e-09
-5.1635e-09
-5.13685e-09
-5.11744e-09
-5.10314e-09
-5.09235e-09
-5.07048e-09
-5.05662e-09
-5.04736e-09
-5.0251e-09
-4.9917e-09
-4.94973e-09
-4.93169e-09
-4.9305e-09
-4.92527e-09
-4.89457e-09
-4.86585e-09
-4.8444e-09
-4.82665e-09
-4.82958e-09
-4.82699e-09
-4.81309e-09
-4.785e-09
-4.75864e-09
-4.724e-09
-4.67335e-09
-4.6389e-09
-4.57594e-09
-4.5298e-09
-4.50116e-09
-4.46325e-09
-4.41835e-09
-4.38319e-09
-4.35134e-09
-4.33824e-09
-4.31916e-09
-4.27425e-09
-4.24271e-09
-4.23002e-09
-4.2079e-09
-4.17382e-09
-4.12873e-09
-4.089e-09
-4.05347e-09
-4.0093e-09
-3.97821e-09
-3.93634e-09
-3.90182e-09
-3.86487e-09
-3.82538e-09
-3.79682e-09
-3.77875e-09
-3.76197e-09
-3.7321e-09
-3.70618e-09
-3.6992e-09
-3.65534e-09
-3.63243e-09
-3.59009e-09
-3.54365e-09
-3.51313e-09
-3.48984e-09
-3.4475e-09
-3.41435e-09
-3.39524e-09
-3.37377e-09
-3.34291e-09
-3.30394e-09
-3.26722e-09
-3.23362e-09
-3.21284e-09
-3.19068e-09
-3.18549e-09
-3.17398e-09
-3.17092e-09
-3.15583e-09
-3.13166e-09
-3.08715e-09
-3.0379e-09
-3.00461e-09
-2.96677e-09
-2.91383e-09
-2.85947e-09
-2.78827e-09
-2.74578e-09
-2.69733e-09
-2.64459e-09
-2.60069e-09
-2.55683e-09
-2.5216e-09
-2.49012e-09
-2.4553e-09
-2.42151e-09
-2.39459e-09
-2.38331e-09
-2.3774e-09
-2.37144e-09
-2.36604e-09
-2.37912e-09
-2.36194e-09
-2.33436e-09
-2.29354e-09
-2.24397e-09
-2.20049e-09
-2.16375e-09
-2.12815e-09
-2.08792e-09
-2.04193e-09
-2.00456e-09
-1.97844e-09
-1.95246e-09
-1.92256e-09
-1.88743e-09
-1.85235e-09
-1.82526e-09
-1.79826e-09
-1.78042e-09
-1.75426e-09
-1.74015e-09
-1.71202e-09
-1.68443e-09
-1.64578e-09
-1.60886e-09
-1.58204e-09
-1.54924e-09
-1.51825e-09
-1.49043e-09
-1.48482e-09
-1.47262e-09
-1.46788e-09
-1.46225e-09
-1.44548e-09
-1.42706e-09
-1.41015e-09
-1.38382e-09
-1.35318e-09
-1.32395e-09
-1.29659e-09
-1.27625e-09
-1.26414e-09
-1.24009e-09
-1.21609e-09
-1.18815e-09
-1.16275e-09
-1.1299e-09
-1.09093e-09
-1.07597e-09
-1.0772e-09
-1.06745e-09
-1.05017e-09
-1.01182e-09
-9.72222e-10
-9.50577e-10
-9.04996e-10
-8.62881e-10
-8.21339e-10
-7.63192e-10
-7.10232e-10
-6.61227e-10
-6.31916e-10
-5.96128e-10
-5.45516e-10
-4.87282e-10
-4.42513e-10
-4.13743e-10
-3.55644e-10
-2.94911e-10
-2.48847e-10
-2.10479e-10
-1.64119e-10
-1.24157e-10
-8.12931e-11
-3.83326e-11
-1.01496e-11
-5.45072e-09
-5.4593e-09
-5.43191e-09
-5.41345e-09
-5.40282e-09
-5.37707e-09
-5.36801e-09
-5.35476e-09
-5.35317e-09
-5.35636e-09
-5.36799e-09
-5.35547e-09
-5.34965e-09
-5.36089e-09
-5.36562e-09
-5.35489e-09
-5.34142e-09
-5.34154e-09
-5.31632e-09
-5.29364e-09
-5.27055e-09
-5.25006e-09
-5.23242e-09
-5.20077e-09
-5.19243e-09
-5.19e-09
-5.18114e-09
-5.16196e-09
-5.14042e-09
-5.13253e-09
-5.12182e-09
-5.10565e-09
-5.07816e-09
-5.05833e-09
-5.05286e-09
-5.02603e-09
-4.98822e-09
-4.94389e-09
-4.92778e-09
-4.93686e-09
-4.91573e-09
-4.88046e-09
-4.84849e-09
-4.83227e-09
-4.83429e-09
-4.8246e-09
-4.82458e-09
-4.81405e-09
-4.78404e-09
-4.75597e-09
-4.71742e-09
-4.67895e-09
-4.63755e-09
-4.57711e-09
-4.53104e-09
-4.50384e-09
-4.46692e-09
-4.42342e-09
-4.39289e-09
-4.35816e-09
-4.34248e-09
-4.30331e-09
-4.28104e-09
-4.2526e-09
-4.2333e-09
-4.21422e-09
-4.17068e-09
-4.14296e-09
-4.10779e-09
-4.07003e-09
-4.02428e-09
-3.98239e-09
-3.94223e-09
-3.90413e-09
-3.86964e-09
-3.82391e-09
-3.79738e-09
-3.76947e-09
-3.75366e-09
-3.74112e-09
-3.71342e-09
-3.6923e-09
-3.66309e-09
-3.6326e-09
-3.57642e-09
-3.5291e-09
-3.5003e-09
-3.4773e-09
-3.44617e-09
-3.40625e-09
-3.38805e-09
-3.37396e-09
-3.36005e-09
-3.31362e-09
-3.28019e-09
-3.23935e-09
-3.20959e-09
-3.19657e-09
-3.19405e-09
-3.1681e-09
-3.15755e-09
-3.13464e-09
-3.12325e-09
-3.09105e-09
-3.03951e-09
-2.99459e-09
-2.95346e-09
-2.91543e-09
-2.86849e-09
-2.79723e-09
-2.74952e-09
-2.70269e-09
-2.65199e-09
-2.59584e-09
-2.54975e-09
-2.51601e-09
-2.46975e-09
-2.43312e-09
-2.41576e-09
-2.38601e-09
-2.37017e-09
-2.36976e-09
-2.36992e-09
-2.36032e-09
-2.36475e-09
-2.35878e-09
-2.32681e-09
-2.27848e-09
-2.23184e-09
-2.19129e-09
-2.15162e-09
-2.11961e-09
-2.08832e-09
-2.05214e-09
-2.01411e-09
-1.9781e-09
-1.94805e-09
-1.91604e-09
-1.88499e-09
-1.84559e-09
-1.82085e-09
-1.79794e-09
-1.77595e-09
-1.75609e-09
-1.73443e-09
-1.70573e-09
-1.68501e-09
-1.65346e-09
-1.61885e-09
-1.58347e-09
-1.55366e-09
-1.52987e-09
-1.50767e-09
-1.49846e-09
-1.4903e-09
-1.47965e-09
-1.46775e-09
-1.44674e-09
-1.42915e-09
-1.41376e-09
-1.38655e-09
-1.35608e-09
-1.33774e-09
-1.30951e-09
-1.27792e-09
-1.27009e-09
-1.24845e-09
-1.22452e-09
-1.19716e-09
-1.16692e-09
-1.13489e-09
-1.09586e-09
-1.06139e-09
-1.0608e-09
-1.05029e-09
-1.03009e-09
-9.93284e-10
-9.58522e-10
-9.4928e-10
-9.10762e-10
-8.70646e-10
-8.27641e-10
-7.75095e-10
-7.22428e-10
-6.8107e-10
-6.45913e-10
-6.0402e-10
-5.56082e-10
-4.98536e-10
-4.4618e-10
-4.14835e-10
-3.59336e-10
-3.04454e-10
-2.63234e-10
-2.21732e-10
-1.80189e-10
-1.32219e-10
-8.77401e-11
-5.24383e-11
-9.55634e-12
-5.43534e-09
-5.46388e-09
-5.43557e-09
-5.40867e-09
-5.40967e-09
-5.38231e-09
-5.36763e-09
-5.35601e-09
-5.36437e-09
-5.36078e-09
-5.37319e-09
-5.37092e-09
-5.3586e-09
-5.37454e-09
-5.38342e-09
-5.35745e-09
-5.34777e-09
-5.33432e-09
-5.31299e-09
-5.29919e-09
-5.2793e-09
-5.25249e-09
-5.22021e-09
-5.19497e-09
-5.19224e-09
-5.17824e-09
-5.17669e-09
-5.16798e-09
-5.14279e-09
-5.13339e-09
-5.12954e-09
-5.10173e-09
-5.07514e-09
-5.04743e-09
-5.04126e-09
-5.00942e-09
-4.98099e-09
-4.95015e-09
-4.93725e-09
-4.92331e-09
-4.9017e-09
-4.87963e-09
-4.85247e-09
-4.83557e-09
-4.83066e-09
-4.82335e-09
-4.82155e-09
-4.79821e-09
-4.77345e-09
-4.74724e-09
-4.71882e-09
-4.67298e-09
-4.6319e-09
-4.58726e-09
-4.55381e-09
-4.51049e-09
-4.46261e-09
-4.42636e-09
-4.39992e-09
-4.37324e-09
-4.34406e-09
-4.3136e-09
-4.28421e-09
-4.26084e-09
-4.23758e-09
-4.21299e-09
-4.18429e-09
-4.15365e-09
-4.12048e-09
-4.07503e-09
-4.02513e-09
-3.98382e-09
-3.94343e-09
-3.90683e-09
-3.87785e-09
-3.83309e-09
-3.7987e-09
-3.77225e-09
-3.75474e-09
-3.73077e-09
-3.69778e-09
-3.67481e-09
-3.64978e-09
-3.61239e-09
-3.56502e-09
-3.52031e-09
-3.49271e-09
-3.47389e-09
-3.44591e-09
-3.41616e-09
-3.38705e-09
-3.37274e-09
-3.35556e-09
-3.31509e-09
-3.27608e-09
-3.24148e-09
-3.2124e-09
-3.21005e-09
-3.20618e-09
-3.1869e-09
-3.15633e-09
-3.13368e-09
-3.11421e-09
-3.08326e-09
-3.04353e-09
-2.99214e-09
-2.94584e-09
-2.91164e-09
-2.87096e-09
-2.81717e-09
-2.76318e-09
-2.71243e-09
-2.65953e-09
-2.59399e-09
-2.53973e-09
-2.50338e-09
-2.45729e-09
-2.41845e-09
-2.3961e-09
-2.38381e-09
-2.37865e-09
-2.37179e-09
-2.35726e-09
-2.35188e-09
-2.35605e-09
-2.35115e-09
-2.32815e-09
-2.27236e-09
-2.21387e-09
-2.17334e-09
-2.13471e-09
-2.11864e-09
-2.08947e-09
-2.05701e-09
-2.01845e-09
-1.98612e-09
-1.94443e-09
-1.90653e-09
-1.87013e-09
-1.83729e-09
-1.80878e-09
-1.78777e-09
-1.77393e-09
-1.75353e-09
-1.72135e-09
-1.71149e-09
-1.68942e-09
-1.65267e-09
-1.61423e-09
-1.58909e-09
-1.56257e-09
-1.55262e-09
-1.53419e-09
-1.51262e-09
-1.50421e-09
-1.48786e-09
-1.48016e-09
-1.45472e-09
-1.43228e-09
-1.40945e-09
-1.38743e-09
-1.36735e-09
-1.33806e-09
-1.3151e-09
-1.28741e-09
-1.27787e-09
-1.26195e-09
-1.22058e-09
-1.19176e-09
-1.16485e-09
-1.14457e-09
-1.10405e-09
-1.0724e-09
-1.05024e-09
-1.03346e-09
-1.02038e-09
-9.81392e-10
-9.5737e-10
-9.36934e-10
-9.0106e-10
-8.72407e-10
-8.27233e-10
-7.73052e-10
-7.22888e-10
-6.86586e-10
-6.53445e-10
-6.0743e-10
-5.60382e-10
-4.98832e-10
-4.45895e-10
-4.18514e-10
-3.64728e-10
-3.15101e-10
-2.74088e-10
-2.23263e-10
-1.87091e-10
-1.35874e-10
-8.16017e-11
-4.31511e-11
-1.07692e-11
-5.44235e-09
-5.45891e-09
-5.44122e-09
-5.41705e-09
-5.41183e-09
-5.39043e-09
-5.3723e-09
-5.35892e-09
-5.36182e-09
-5.36557e-09
-5.37579e-09
-5.37668e-09
-5.37001e-09
-5.37766e-09
-5.37353e-09
-5.36175e-09
-5.3499e-09
-5.33689e-09
-5.31739e-09
-5.29992e-09
-5.28231e-09
-5.25377e-09
-5.2336e-09
-5.20308e-09
-5.18092e-09
-5.17158e-09
-5.18228e-09
-5.16512e-09
-5.12664e-09
-5.12086e-09
-5.12038e-09
-5.10452e-09
-5.07098e-09
-5.03712e-09
-5.02443e-09
-4.99051e-09
-4.98355e-09
-4.96213e-09
-4.9417e-09
-4.90833e-09
-4.89298e-09
-4.87334e-09
-4.85462e-09
-4.84359e-09
-4.82238e-09
-4.81825e-09
-4.80716e-09
-4.79061e-09
-4.75861e-09
-4.73137e-09
-4.72358e-09
-4.67083e-09
-4.63165e-09
-4.60615e-09
-4.56994e-09
-4.52043e-09
-4.4805e-09
-4.44522e-09
-4.40152e-09
-4.38897e-09
-4.35612e-09
-4.31126e-09
-4.28209e-09
-4.26951e-09
-4.24813e-09
-4.21421e-09
-4.18508e-09
-4.16e-09
-4.11892e-09
-4.07643e-09
-4.02723e-09
-3.97435e-09
-3.94299e-09