/*--------------------------------*- C++ -*----------------------------------*\
  =========                 |
  \\      /  F ield         | OpenFOAM: The Open Source CFD Toolbox
   \\    /   O peration     | Website:  https://openfoam.org
    \\  /    A nd           | Version:  6
     \\/     M anipulation  |
\*---------------------------------------------------------------------------*/
FoamFile
{
    version     2.0;
    format      ascii;
    class       volVectorField;
    location    "90";
    object      U;
}
// * * * * * * * * * * * * * * * * * * * * * * * * * * * * * * * * * * * * * //

dimensions      [0 1 -1 0 0 0 0];

internalField   nonuniform List<vector> 
4000
(
(400 3.9349e-14 0)
(400 5.83517e-14 0)
(400 6.31001e-14 0)
(400 6.24671e-14 0)
(400 5.9089e-14 0)
(400 6.83881e-14 0)
(400 7.12784e-14 0)
(400 6.66752e-14 0)
(400 7.19862e-14 0)
(400 6.14489e-14 0)
(400 6.08207e-14 0)
(400 5.06414e-14 0)
(400 1.77414e-14 0)
(400 9.52518e-15 0)
(400 1.7609e-14 0)
(400 1.14912e-14 0)
(400 -1.92965e-14 0)
(400 -6.28922e-14 0)
(400 -6.81063e-14 0)
(400 -5.77204e-14 0)
(400 -4.70816e-14 0)
(400 -4.63346e-14 0)
(400 -4.04855e-14 0)
(400 -4.45789e-14 0)
(400 -1.52727e-14 0)
(400 2.39125e-14 0)
(400 3.97197e-14 0)
(400 4.05925e-14 0)
(400 3.42261e-14 0)
(400 2.8142e-14 0)
(400 1.74594e-14 0)
(400 5.52901e-15 0)
(400 1.16248e-14 0)
(400 -9.82807e-15 0)
(400 -1.85828e-14 0)
(400 -1.91857e-14 0)
(400 -2.40762e-14 0)
(400 -2.72502e-14 0)
(400 -3.58972e-14 0)
(400 -3.8487e-14 0)
(400 -3.77773e-14 0)
(400 -4.31109e-14 0)
(400 -3.85431e-14 0)
(400 -3.49119e-14 0)
(400 -2.60541e-14 0)
(400 6.9464e-16 0)
(400 3.85332e-14 0)
(400 3.88411e-14 0)
(400 3.43431e-14 0)
(400 3.76004e-14 0)
(400 4.19694e-14 0)
(400 3.23972e-14 0)
(400 3.38137e-14 0)
(400 2.53685e-14 0)
(400 2.03461e-14 0)
(400 3.30039e-14 0)
(400 3.13191e-14 0)
(400 6.43709e-15 0)
(400 -1.88455e-14 0)
(400 -2.4837e-14 0)
(400 -1.29431e-14 0)
(400 -9.85696e-16 0)
(400 -8.32316e-15 0)
(400 -2.61541e-14 0)
(400 -2.73077e-14 0)
(400 1.18971e-14 0)
(400 2.8291e-14 0)
(400 2.3051e-14 0)
(400 1.47299e-14 0)
(400 1.02428e-14 0)
(400 1.16738e-14 0)
(400 1.21803e-14 0)
(400 1.4434e-14 0)
(400 1.06594e-14 0)
(400 1.70202e-14 0)
(400 1.79859e-14 0)
(400 7.57869e-15 0)
(400 7.8699e-15 0)
(400 -5.29962e-15 0)
(400 -1.51131e-14 0)
(400 -8.1186e-15 0)
(400 1.17094e-15 0)
(400 3.69583e-15 0)
(400 7.06028e-15 0)
(400 1.93248e-14 0)
(400 2.61164e-14 0)
(400 2.65992e-14 0)
(400 4.16148e-14 0)
(400 4.08171e-14 0)
(400 4.78672e-14 0)
(400 5.76526e-14 0)
(400 5.91109e-14 0)
(400 5.54865e-14 0)
(400 5.76414e-14 0)
(400 6.43116e-14 0)
(400 7.94616e-14 0)
(400 7.79096e-14 0)
(400 8.25205e-14 0)
(400 7.66022e-14 0)
(400 6.78146e-14 0)
(400 4.49509e-14 0)
(400 2.79741e-14 0)
(400 1.82369e-14 0)
(400 1.55479e-14 0)
(400 -3.36694e-15 0)
(400 -2.21299e-14 0)
(400 -1.38975e-15 0)
(400 4.25045e-15 0)
(400 -4.00693e-15 0)
(400 -1.38633e-14 0)
(400 -1.66993e-15 0)
(400 2.338e-14 0)
(400 1.83878e-14 0)
(400 5.08488e-15 0)
(400 -3.78038e-15 0)
(400 -1.46178e-14 0)
(400 -2.62459e-14 0)
(400 -2.13359e-14 0)
(400 -1.86272e-14 0)
(400 -8.77123e-15 0)
(400 -5.95977e-15 0)
(400 -7.50318e-15 0)
(400 4.83921e-15 0)
(400 -1.38218e-14 0)
(400 -3.36818e-14 0)
(400 -3.29995e-14 0)
(400 -2.14613e-14 0)
(400 -8.15346e-15 0)
(400 -9.69514e-15 0)
(400 -9.56668e-15 0)
(400 -1.0352e-14 0)
(400 -1.08612e-14 0)
(400 -1.02208e-14 0)
(400 -1.86198e-15 0)
(400 1.12149e-14 0)
(400 1.85288e-14 0)
(400 1.00816e-14 0)
(400 2.12107e-14 0)
(400 1.843e-14 0)
(400 1.23113e-14 0)
(400 -1.15e-15 0)
(400 7.04588e-15 0)
(400 2.32186e-14 0)
(400 3.00167e-14 0)
(400 2.09293e-14 0)
(400 1.66319e-14 0)
(400 8.43643e-15 0)
(400 -1.16945e-14 0)
(400 -2.77882e-14 0)
(400 -2.80751e-14 0)
(400 -3.3437e-14 0)
(400 -4.31778e-14 0)
(400 -4.84805e-14 0)
(400 -4.63119e-14 0)
(400 -4.5142e-14 0)
(400 -3.67658e-14 0)
(400 -3.88052e-14 0)
(400 -4.25824e-14 0)
(400 -4.19775e-14 0)
(400 -4.06231e-14 0)
(400 -5.42231e-14 0)
(400 -4.28507e-14 0)
(400 -2.73819e-14 0)
(400 -3.1374e-14 0)
(400 -3.35406e-14 0)
(400 -1.72206e-15 0)
(400 2.20848e-14 0)
(400 2.0172e-14 0)
(400 1.46695e-14 0)
(400 4.18295e-15 0)
(400 7.83261e-15 0)
(400 1.00057e-14 0)
(400 -1.1405e-14 0)
(400 -3.01684e-14 0)
(400 -5.92194e-14 0)
(400 -6.8685e-14 0)
(400 -5.66152e-14 0)
(400 -4.39464e-14 0)
(400 -3.8599e-14 0)
(400 -3.77375e-14 0)
(400 -2.59171e-14 0)
(400 -8.4679e-15 0)
(400 1.94926e-15 0)
(400 4.78605e-15 0)
(400 1.08031e-14 0)
(400 3.32116e-14 0)
(400 4.3753e-14 0)
(400 4.50639e-14 0)
(400 5.1487e-14 0)
(400 5.63414e-14 0)
(400 7.5578e-14 0)
(400 7.46099e-14 0)
(400 4.66869e-14 0)
(400 2.29746e-14 0)
(400 -5.2216e-16 0)
(400 4.44119e-15 0)
(400 7.10074e-15 0)
(400 1.0658e-14 0)
(400 1.49887e-14 0)
(400 3.1902e-14 0)
(400 6.91971e-15 0)
(400 3.63925e-14 0)
(400 5.43329e-14 0)
(400 5.09934e-14 0)
(400 6.26369e-14 0)
(400 6.51375e-14 0)
(400 6.99709e-14 0)
(400 7.0611e-14 0)
(400 6.77047e-14 0)
(400 6.27884e-14 0)
(400 5.74737e-14 0)
(400 4.57725e-14 0)
(400 3.7766e-14 0)
(400 3.55688e-14 0)
(400 4.99456e-14 0)
(400 3.28726e-14 0)
(400 8.68373e-15 0)
(400 7.30815e-15 0)
(400 2.95673e-15 0)
(400 1.20413e-14 0)
(400 1.85021e-14 0)
(400 1.44197e-14 0)
(400 -2.37577e-15 0)
(400 -3.68635e-15 0)
(400 6.78106e-15 0)
(400 1.8893e-14 0)
(400 1.77936e-14 0)
(400 2.20765e-14 0)
(400 2.08859e-14 0)
(400 2.80503e-14 0)
(400 2.73275e-14 0)
(400 3.3249e-14 0)
(400 3.3609e-14 0)
(400 1.05447e-14 0)
(400 -1.92734e-15 0)
(400 -9.4713e-15 0)
(400 -8.70588e-15 0)
(400 -3.25529e-15 0)
(400 -1.85884e-14 0)
(400 -2.7818e-14 0)
(400 -1.58368e-14 0)
(400 6.02751e-15 0)
(400 1.07289e-14 0)
(400 1.95941e-14 0)
(400 2.87553e-14 0)
(400 4.04668e-14 0)
(400 5.01e-14 0)
(400 4.71897e-14 0)
(400 3.96723e-14 0)
(400 4.04273e-14 0)
(400 4.00756e-14 0)
(400 2.85308e-14 0)
(400 2.32836e-14 0)
(400 1.65506e-14 0)
(400 1.19474e-14 0)
(400 1.77626e-14 0)
(400 2.69727e-14 0)
(400 1.59446e-14 0)
(400 1.65709e-14 0)
(400 2.19493e-14 0)
(400 1.40538e-14 0)
(400 -1.07149e-14 0)
(400 -2.3061e-14 0)
(400 -2.68489e-14 0)
(400 -2.39099e-14 0)
(400 -3.50292e-15 0)
(400 -7.54668e-15 0)
(400 -9.15744e-15 0)
(400 -4.77748e-15 0)
(400 -4.57421e-15 0)
(400 -4.28178e-15 0)
(400 4.15602e-16 0)
(400 6.62995e-15 0)
(400 1.76961e-14 0)
(400 3.18396e-14 0)
(400 3.14968e-14 0)
(400 4.2333e-14 0)
(400 4.53346e-14 0)
(400 2.76188e-14 0)
(400 3.2681e-15 0)
(400 -9.88048e-15 0)
(400 -1.15349e-14 0)
(400 -2.08533e-14 0)
(400 -9.48437e-16 0)
(400 1.60176e-14 0)
(400 2.87981e-14 0)
(400 3.28978e-14 0)
(400 3.18125e-14 0)
(400 3.54591e-14 0)
(400 4.59042e-14 0)
(400 3.71733e-14 0)
(400 4.95343e-14 0)
(400 4.05152e-14 0)
(400 3.22632e-14 0)
(400 3.34243e-14 0)
(400 2.43944e-14 0)
(400 8.68662e-15 0)
(400 5.20398e-15 0)
(400 1.47232e-14 0)
(400 1.93397e-14 0)
(400 8.62342e-15 0)
(400 -3.92787e-15 0)
(400 -1.6863e-14 0)
(400 -1.00766e-14 0)
(400 -1.16493e-14 0)
(400 -2.76392e-14 0)
(400 -4.54086e-15 0)
(400 3.40936e-16 0)
(400 1.54529e-14 0)
(400 3.98284e-14 0)
(400 4.53459e-14 0)
(400 6.32576e-14 0)
(400 6.47555e-14 0)
(400 5.85373e-14 0)
(400 3.74032e-14 0)
(400 2.14058e-14 0)
(400 1.77642e-14 0)
(400 1.5609e-14 0)
(400 2.85558e-14 0)
(400 4.32897e-14 0)
(400 4.4219e-14 0)
(400 4.92268e-14 0)
(400 6.06106e-14 0)
(400 5.22218e-14 0)
(400 5.99239e-14 0)
(400 7.98495e-14 0)
(400 1.09761e-13 0)
(400 1.35272e-13 0)
(400 1.52365e-13 0)
(400 1.3707e-13 0)
(400 1.12013e-13 0)
(400 1.16348e-13 0)
(400 9.42952e-14 0)
(400 8.13369e-14 0)
(400 7.99309e-14 0)
(400 9.58925e-14 0)
(400 1.01552e-13 0)
(400 1.18855e-13 0)
(400 1.23501e-13 0)
(400 1.17802e-13 0)
(400 1.02933e-13 0)
(400 9.12997e-14 0)
(400 7.66519e-14 0)
(400 6.54251e-14 0)
(400 3.87242e-14 0)
(400 3.11952e-15 0)
(400 -2.00613e-14 0)
(400 -3.46507e-14 0)
(400 -4.27327e-14 0)
(400 -3.53461e-14 0)
(400 -4.54894e-14 0)
(400 -5.18564e-14 0)
(400 -5.33626e-14 0)
(400 -4.71864e-14 0)
(400 -4.09394e-14 0)
(400 -4.78155e-14 0)
(400 -4.06975e-14 0)
(400 -3.07181e-14 0)
(400 -1.80751e-14 0)
(400 -1.28876e-14 0)
(400 -1.95979e-14 0)
(400 -1.57904e-14 0)
(400 -8.86073e-15 0)
(400 5.15874e-16 0)
(400 2.52684e-15 0)
(400 1.71536e-14 0)
(400 2.62557e-14 0)
(400 2.63926e-14 0)
(400 1.42402e-14 0)
(400 2.61527e-15 0)
(400 6.53073e-15 0)
(400 -1.04708e-14 0)
(400 -3.53489e-14 0)
(400 -4.6833e-14 0)
(400 -5.42813e-14 0)
(400 -6.28717e-14 0)
(400 -6.563e-14 0)
(400 -5.69821e-14 0)
(400 -6.30037e-14 0)
(400 -4.64686e-14 0)
(400 -4.10349e-14 0)
(400 -4.64647e-14 0)
(400 -4.79404e-14 0)
(400 -4.86579e-14 0)
(400 -3.62594e-14 0)
(400 -3.55202e-14 0)
(400 -2.55164e-14 0)
(400 -2.33809e-14 0)
(400 -2.86187e-14 0)
(400 -2.52965e-14 0)
(400 -3.78933e-14 0)
(400 -4.17332e-14 0)
(400 -4.30244e-14 0)
(400 -4.62451e-14 0)
(400 -6.69721e-14 0)
(400 -7.9691e-14 0)
(400 -7.5377e-14 0)
(400 -8.14839e-14 0)
(400 -1.00215e-13 0)
(400 -9.81311e-14 0)
(400 -1.49883e-14 0)
(400 5.776e-16 0)
(400 3.21972e-14 0)
(400 5.23677e-14 0)
(400 5.03286e-14 0)
(400 4.7927e-14 0)
(400 4.5335e-14 0)
(400 4.22985e-14 0)
(400 5.8953e-14 0)
(400 6.4038e-14 0)
(400 6.76858e-14 0)
(400 6.05386e-14 0)
(400 5.46472e-14 0)
(400 4.87135e-14 0)
(400 3.76392e-14 0)
(400 2.45037e-14 0)
(400 8.55071e-15 0)
(400 2.11518e-14 0)
(400 2.42631e-14 0)
(400 1.79313e-14 0)
(400 7.34474e-15 0)
(400 -1.51933e-14 0)
(400 -3.18472e-14 0)
(400 -1.48345e-14 0)
(400 -5.31633e-16 0)
(400 1.89244e-14 0)
(400 2.9054e-14 0)
(400 2.9364e-14 0)
(400 2.54774e-14 0)
(400 2.01173e-14 0)
(400 1.63167e-14 0)
(400 -3.24323e-15 0)
(400 -2.60677e-14 0)
(400 -2.15024e-14 0)
(400 -3.44405e-14 0)
(400 -5.09225e-14 0)
(400 -6.09143e-14 0)
(400 -5.53495e-14 0)
(400 -4.55556e-14 0)
(400 -5.41522e-14 0)
(400 -5.20905e-14 0)
(400 -1.63659e-14 0)
(400 1.30576e-14 0)
(400 4.21393e-14 0)
(400 4.35241e-14 0)
(400 4.25488e-14 0)
(400 4.63557e-14 0)
(400 4.03792e-14 0)
(400 3.52682e-14 0)
(400 2.19024e-14 0)
(400 3.13888e-15 0)
(400 1.21504e-14 0)
(400 1.07599e-14 0)
(400 -6.21414e-15 0)
(400 -1.06054e-14 0)
(400 -6.31207e-15 0)
(400 3.35133e-15 0)
(400 1.55489e-14 0)
(400 2.88847e-14 0)
(400 4.1318e-14 0)
(400 3.8264e-14 0)
(400 4.30494e-15 0)
(400 -3.24182e-15 0)
(400 -1.85084e-15 0)
(400 4.22614e-15 0)
(400 -2.13237e-14 0)
(400 -4.49493e-14 0)
(400 -4.3934e-14 0)
(400 -3.35322e-14 0)
(400 -3.91474e-14 0)
(400 -3.99635e-14 0)
(400 -3.72385e-14 0)
(400 -3.32034e-14 0)
(400 -2.37549e-14 0)
(400 -8.22873e-15 0)
(400 6.49348e-15 0)
(400 3.09031e-14 0)
(400 4.10238e-14 0)
(400 4.66056e-14 0)
(400 4.05284e-14 0)
(400 4.00185e-14 0)
(400 3.58532e-14 0)
(400 3.12791e-14 0)
(400 4.76309e-14 0)
(400 5.87196e-14 0)
(400 6.96348e-14 0)
(400 6.648e-14 0)
(400 4.97142e-14 0)
(400 5.51501e-14 0)
(400 7.07139e-14 0)
(400 8.40937e-14 0)
(400 9.03181e-14 0)
(400 8.72598e-14 0)
(400 8.79371e-14 0)
(400 7.03757e-14 0)
(400 5.97699e-14 0)
(400 4.10766e-14 0)
(400 3.32179e-14 0)
(400 3.42048e-14 0)
(400 4.00015e-14 0)
(400 3.88883e-14 0)
(400 2.5372e-14 0)
(400 1.58619e-14 0)
(400 -1.65843e-15 0)
(400 2.22229e-15 0)
(400 1.07749e-14 0)
(400 6.17225e-15 0)
(400 -4.09327e-16 0)
(400 1.04687e-14 0)
(400 3.42736e-14 0)
(400 3.60804e-14 0)
(400 3.78863e-14 0)
(400 5.0514e-14 0)
(400 4.41581e-14 0)
(400 2.83542e-14 0)
(400 3.39471e-14 0)
(400 5.21291e-14 0)
(400 5.21453e-14 0)
(400 5.56844e-14 0)
(400 4.64608e-14 0)
(400 4.05078e-14 0)
(400 3.73338e-14 0)
(400 3.82461e-14 0)
(400 5.34254e-14 0)
(400 6.79668e-14 0)
(400 8.55802e-14 0)
(400 9.73077e-14 0)
(400 1.1151e-13 0)
(400 1.22413e-13 0)
(400 1.06514e-13 0)
(400 8.12836e-14 0)
(400 6.01399e-14 0)
(400 3.94505e-14 0)
(400 2.90343e-15 0)
(400 -2.19197e-14 0)
(400 -3.30108e-14 0)
(400 -1.7757e-14 0)
(400 -1.61681e-14 0)
(400 -3.36472e-15 0)
(400 2.69467e-15 0)
(400 5.99597e-15 0)
(400 2.90917e-15 0)
(400 -5.75751e-15 0)
(400 -7.2503e-15 0)
(400 -1.66756e-14 0)
(400 -2.89699e-14 0)
(400 -3.39225e-14 0)
(400 -2.83613e-14 0)
(400 -2.05896e-14 0)
(400 -1.76305e-14 0)
(400 -1.96613e-14 0)
(400 -2.13181e-14 0)
(400 -3.1705e-14 0)
(400 -3.80345e-14 0)
(400 -2.98731e-14 0)
(400 -2.36962e-14 0)
(400 -1.46163e-14 0)
(400 -7.74287e-15 0)
(400 -6.2336e-15 0)
(400 -6.09746e-15 0)
(400 -1.25055e-14 0)
(400 -2.28874e-14 0)
(400 -2.12631e-14 0)
(400 1.46311e-15 0)
(400 2.78651e-14 0)
(400 2.87722e-14 0)
(400 3.63037e-14 0)
(400 4.31835e-14 0)
(400 4.8709e-14 0)
(400 6.10229e-14 0)
(400 5.91116e-14 0)
(400 3.03828e-14 0)
(400 1.28028e-14 0)
(400 4.92448e-15 0)
(400 1.5603e-15 0)
(400 -1.28031e-14 0)
(400 -3.10817e-14 0)
(400 -2.90789e-14 0)
(400 -1.70061e-14 0)
(400 5.04435e-15 0)
(400 1.61351e-14 0)
(400 5.71361e-15 0)
(400 -9.58036e-16 0)
(400 -5.70465e-15 0)
(400 1.85921e-15 0)
(400 5.41256e-15 0)
(400 2.16394e-14 0)
(400 2.95072e-14 0)
(400 2.89712e-14 0)
(400 4.39222e-14 0)
(400 4.10936e-14 0)
(400 4.30668e-14 0)
(400 5.37541e-14 0)
(400 7.24926e-14 0)
(400 6.57388e-14 0)
(400 3.68956e-14 0)
(400 4.02243e-14 0)
(400 3.64724e-14 0)
(400 2.26786e-14 0)
(400 2.30833e-14 0)
(400 -9.23578e-15 0)
(400 -9.01418e-15 0)
(400 2.03376e-14 0)
(400 6.60647e-14 0)
(400 6.65573e-14 0)
(400 4.97408e-14 0)
(400 3.64304e-14 0)
(400 3.11249e-14 0)
(400 3.86761e-14 0)
(400 5.27708e-14 0)
(400 5.2698e-14 0)
(400 4.65826e-14 0)
(400 3.78559e-14 0)
(400 3.70284e-14 0)
(400 2.22321e-14 0)
(400 9.03485e-15 0)
(400 2.0511e-17 0)
(400 -1.20649e-14 0)
(400 -8.8989e-15 0)
(400 3.79141e-16 0)
(400 -1.04396e-14 0)
(400 -1.36399e-14 0)
(400 -1.20751e-14 0)
(400 9.76177e-16 0)
(400 1.18347e-14 0)
(400 1.97403e-14 0)
(400 3.00368e-14 0)
(400 3.00241e-14 0)
(400 3.31817e-14 0)
(400 2.86713e-14 0)
(400 3.68854e-14 0)
(400 9.17521e-15 0)
(400 -1.66306e-14 0)
(400 -1.27574e-14 0)
(400 -1.66675e-14 0)
(400 -1.51694e-14 0)
(400 -2.05064e-14 0)
(400 -2.67841e-14 0)
(400 -2.62762e-15 0)
(400 9.30633e-15 0)
(400 1.60532e-14 0)
(400 2.88112e-14 0)
(400 5.37535e-14 0)
(400 7.34377e-14 0)
(400 7.43791e-14 0)
(400 6.87759e-14 0)
(400 6.69171e-14 0)
(400 5.47475e-14 0)
(400 4.11395e-14 0)
(400 1.74648e-14 0)
(400 1.22163e-14 0)
(400 -2.30646e-15 0)
(400 -3.47472e-14 0)
(400 -5.49543e-14 0)
(400 -4.69195e-14 0)
(400 -4.4792e-14 0)
(400 -4.0844e-14 0)
(400 -2.2478e-14 0)
(400 -1.47282e-14 0)
(400 -1.44912e-14 0)
(400 -2.46637e-14 0)
(400 -4.5267e-14 0)
(400 -4.36588e-14 0)
(400 -2.42015e-14 0)
(400 -1.53302e-14 0)
(400 -3.24561e-14 0)
(400 -4.75271e-14 0)
(400 -4.28978e-14 0)
(400 -3.27334e-14 0)
(400 -4.46225e-14 0)
(400 -4.77415e-14 0)
(400 -5.40873e-14 0)
(400 -5.72131e-14 0)
(400 -5.93064e-14 0)
(400 -4.94195e-14 0)
(400 -3.07279e-14 0)
(400 -1.5918e-14 0)
(400 -4.56407e-15 0)
(400 2.04856e-14 0)
(400 3.02007e-14 0)
(400 3.43583e-14 0)
(400 4.25245e-14 0)
(400 5.1701e-14 0)
(400 5.10851e-14 0)
(400 4.68812e-14 0)
(400 3.8473e-14 0)
(400 4.32139e-14 0)
(400 3.89653e-14 0)
(400 4.75978e-14 0)
(400 3.87754e-14 0)
(400 5.49884e-14 0)
(400 4.54896e-14 0)
(400 4.7529e-14 0)
(400 3.81026e-14 0)
(400 1.7266e-14 0)
(400 8.76356e-15 0)
(400 -4.57056e-15 0)
(400 -7.73117e-15 0)
(400 3.90766e-16 0)
(400 2.94754e-15 0)
(400 6.02007e-15 0)
(400 -8.1629e-16 0)
(400 2.73494e-15 0)
(400 -3.07225e-15 0)
(400 -1.09101e-14 0)
(400 1.53626e-15 0)
(400 -1.03724e-14 0)
(400 1.28612e-15 0)
(400 1.42181e-14 0)
(400 2.21437e-14 0)
(400 3.94566e-14 0)
(400 3.71403e-14 0)
(400 3.7565e-14 0)
(400 3.3199e-14 0)
(400 4.18195e-14 0)
(400 8.76577e-14 0)
(400 1.11394e-13 0)
(400 1.08118e-13 0)
(400 9.7522e-14 0)
(400 7.84528e-14 0)
(400 6.5662e-14 0)
(400 6.76155e-14 0)
(400 8.29683e-14 0)
(400 9.92578e-14 0)
(400 1.14505e-13 0)
(400 1.26768e-13 0)
(400 1.19871e-13 0)
(400 1.14768e-13 0)
(400 1.16763e-13 0)
(400 1.15682e-13 0)
(400 1.11558e-13 0)
(400 8.43403e-14 0)
(400 6.7818e-14 0)
(400 4.3462e-14 0)
(400 2.31841e-14 0)
(400 8.96271e-15 0)
(400 1.62532e-14 0)
(400 1.79615e-14 0)
(400 3.17557e-14 0)
(400 4.25176e-14 0)
(400 3.11922e-14 0)
(400 3.51978e-14 0)
(400 2.8248e-14 0)
(400 2.32709e-14 0)
(400 2.31545e-14 0)
(400 3.42183e-14 0)
(400 4.86397e-14 0)
(400 4.91715e-14 0)
(400 3.66562e-14 0)
(400 3.45678e-14 0)
(400 3.05928e-14 0)
(400 5.67995e-15 0)
(400 2.55118e-16 0)
(400 6.20999e-15 0)
(400 2.24335e-14 0)
(400 1.33218e-14 0)
(400 4.00441e-15 0)
(400 2.70912e-17 0)
(400 -6.05893e-15 0)
(400 -1.31113e-15 0)
(400 7.85807e-15 0)
(400 -5.47648e-15 0)
(400 -2.86427e-14 0)
(400 -1.56566e-14 0)
(400 -1.51447e-15 0)
(400 -2.00275e-14 0)
(400 -2.57983e-14 0)
(400 -2.50877e-14 0)
(400 -7.38418e-15 0)
(400 3.59406e-15 0)
(400 -5.35456e-15 0)
(400 -1.17953e-14 0)
(400 -2.25853e-14 0)
(400 -2.13468e-14 0)
(400 -1.94094e-14 0)
(400 -2.60766e-14 0)
(400 -4.05213e-14 0)
(400 -4.58256e-14 0)
(400 -2.19608e-14 0)
(400 -1.7678e-14 0)
(400 -1.58947e-14 0)
(400 -2.43684e-14 0)
(400 -3.25867e-14 0)
(400 -4.88401e-14 0)
(400 -7.20673e-14 0)
(400 -5.8102e-14 0)
(400 -4.47144e-14 0)
(400 -4.60471e-14 0)
(400 -4.37253e-14 0)
(400 -2.83884e-14 0)
(400 -1.50456e-14 0)
(400 -2.04287e-14 0)
(400 -3.42889e-14 0)
(400 -3.44049e-14 0)
(400 -3.87123e-14 0)
(400 -4.15372e-14 0)
(400 -4.84875e-14 0)
(400 -5.72092e-14 0)
(400 -5.92533e-14 0)
(400 -6.73786e-14 0)
(400 -3.02892e-16 0)
(400 1.7158e-14 0)
(400 3.30243e-14 0)
(400 5.73839e-14 0)
(400 6.73175e-14 0)
(400 6.13003e-14 0)
(400 5.06824e-14 0)
(400 5.08277e-14 0)
(400 4.46122e-14 0)
(400 4.6567e-14 0)
(400 3.20125e-14 0)
(400 2.24568e-14 0)
(400 4.13494e-14 0)
(400 3.86657e-14 0)
(400 2.98456e-14 0)
(400 7.73214e-15 0)
(400 1.0639e-14 0)
(400 1.17568e-15 0)
(400 -1.13355e-14 0)
(400 -3.49614e-15 0)
(400 -4.6275e-15 0)
(400 4.76311e-15 0)
(400 9.68961e-15 0)
(400 3.98951e-15 0)
(400 4.46309e-15 0)
(400 -4.02607e-15 0)
(400 -7.40934e-15 0)
(400 -9.21275e-15 0)
(400 -1.10948e-14 0)
(400 -6.40624e-15 0)
(400 -1.70038e-16 0)
(400 -2.15699e-15 0)
(400 -1.35589e-14 0)
(400 -1.87224e-14 0)
(400 -5.50704e-15 0)
(400 1.09223e-14 0)
(400 2.2582e-14 0)
(400 1.65674e-14 0)
(400 1.74437e-14 0)
(400 3.51173e-14 0)
(400 4.94556e-14 0)
(400 3.62341e-14 0)
(400 3.80658e-14 0)
(400 4.81161e-14 0)
(400 4.97519e-14 0)
(400 3.98327e-14 0)
(400 3.93824e-14 0)
(400 4.41646e-14 0)
(400 2.96892e-14 0)
(400 8.25153e-15 0)
(400 6.24668e-15 0)
(400 -2.81112e-14 0)
(400 -5.54106e-14 0)
(400 -5.56586e-14 0)
(400 -5.09682e-14 0)
(400 -4.99164e-14 0)
(400 -5.20365e-14 0)
(400 -5.61981e-14 0)
(400 -6.37016e-14 0)
(400 -7.24386e-14 0)
(400 -8.09235e-14 0)
(400 -6.92999e-14 0)
(400 -6.17535e-14 0)
(400 -4.2063e-14 0)
(400 -3.71591e-14 0)
(400 -2.40075e-14 0)
(400 -1.07686e-14 0)
(400 -1.69128e-14 0)
(400 -2.72027e-14 0)
(400 -3.18068e-14 0)
(400 -2.96613e-14 0)
(400 -3.73286e-14 0)
(400 -2.79208e-14 0)
(400 -1.20175e-14 0)
(400 -3.14691e-15 0)
(400 2.37008e-14 0)
(400 3.89755e-14 0)
(400 4.53174e-14 0)
(400 5.47186e-14 0)
(400 5.48732e-14 0)
(400 3.3207e-14 0)
(400 3.9927e-14 0)
(400 4.81793e-14 0)
(400 3.57992e-14 0)
(400 3.85013e-14 0)
(400 2.53137e-14 0)
(400 2.95355e-14 0)
(400 3.55651e-14 0)
(400 4.12134e-14 0)
(400 3.51733e-14 0)
(400 3.16987e-14 0)
(400 2.1053e-14 0)
(400 1.23264e-14 0)
(400 -1.45635e-14 0)
(400 -3.52841e-14 0)
(400 -6.0834e-14 0)
(400 -5.68061e-14 0)
(400 -4.67712e-14 0)
(400 -3.31096e-14 0)
(400 -2.73508e-14 0)
(400 -1.66711e-14 0)
(400 -1.87403e-14 0)
(400 -2.00874e-14 0)
(400 -1.51237e-14 0)
(400 -2.16856e-14 0)
(400 -1.23928e-14 0)
(400 -1.24905e-15 0)
(400 1.3385e-14 0)
(400 2.35229e-14 0)
(400 2.57507e-14 0)
(400 3.33041e-14 0)
(400 1.55348e-14 0)
(400 -1.06379e-14 0)
(400 -1.89795e-14 0)
(400 9.96161e-15 0)
(400 4.08504e-14 0)
(400 4.7347e-14 0)
(400 3.61611e-14 0)
(400 3.00209e-14 0)
(400 3.09792e-14 0)
(400 2.99904e-14 0)
(400 5.77417e-14 0)
(400 6.4409e-14 0)
(400 7.36259e-14 0)
(400 9.73165e-14 0)
(400 1.07109e-13 0)
(400 1.01586e-13 0)
(400 1.08267e-13 0)
(400 1.07971e-13 0)
(400 1.04786e-13 0)
(400 1.07338e-13 0)
(400 9.22509e-14 0)
(400 5.8989e-14 0)
(400 3.75126e-14 0)
(400 1.32174e-14 0)
(400 -1.37917e-15 0)
(400 -1.08676e-14 0)
(400 -2.18828e-14 0)
(400 -1.86489e-14 0)
(400 -2.28452e-14 0)
(400 -1.91121e-14 0)
(400 -1.12535e-14 0)
(400 -1.6182e-14 0)
(400 -2.49764e-14 0)
(400 -9.5802e-15 0)
(400 8.03271e-15 0)
(400 2.11577e-14 0)
(400 3.1281e-14 0)
(400 4.97504e-14 0)
(400 6.9051e-14 0)
(400 7.53809e-14 0)
(400 6.42754e-14 0)
(400 5.61528e-14 0)
(400 5.7149e-14 0)
(400 3.96612e-14 0)
(400 1.64959e-14 0)
(400 8.18014e-15 0)
(400 5.82737e-15 0)
(400 7.9117e-15 0)
(400 1.27838e-14 0)
(400 2.57528e-14 0)
(400 2.19901e-14 0)
(400 3.01481e-15 0)
(400 -3.50402e-15 0)
(400 -1.10125e-14 0)
(400 -1.96389e-14 0)
(400 -2.98657e-14 0)
(400 -2.84395e-14 0)
(400 -1.92367e-14 0)
(400 -2.72726e-14 0)
(400 -4.48672e-14 0)
(400 -5.12343e-14 0)
(400 -5.36494e-14 0)
(400 -4.56274e-14 0)
(400 -2.33034e-14 0)
(400 -2.60566e-14 0)
(400 -2.32245e-14 0)
(400 -2.36195e-14 0)
(400 -2.22643e-14 0)
(400 -9.45288e-15 0)
(400 1.6518e-14 0)
(400 2.40643e-14 0)
(400 1.98244e-14 0)
(400 2.25105e-14 0)
(400 1.99474e-14 0)
(400 2.94226e-14 0)
(400 4.14124e-14 0)
(400 4.41609e-14 0)
(400 4.56248e-14 0)
(400 5.13784e-14 0)
(400 5.61291e-14 0)
(400 4.72149e-14 0)
(400 2.36432e-14 0)
(400 7.76781e-15 0)
(400 2.71519e-15 0)
(400 1.37548e-14 0)
(400 2.43159e-15 0)
(400 -1.44529e-14 0)
(400 -2.3163e-14 0)
(400 -3.28698e-14 0)
(400 -3.04472e-15 0)
(400 4.82955e-17 0)
(400 -1.23288e-15 0)
(400 1.10516e-14 0)
(400 3.03717e-14 0)
(400 4.75082e-14 0)
(400 5.0151e-14 0)
(400 4.5433e-14 0)
(400 3.89085e-14 0)
(400 2.16153e-14 0)
(400 1.91746e-14 0)
(400 7.31569e-15 0)
(400 1.60584e-14 0)
(400 8.01424e-15 0)
(400 -6.40618e-15 0)
(400 -7.72654e-15 0)
(400 -6.03215e-15 0)
(400 -1.18562e-14 0)
(400 -2.28666e-14 0)
(400 -3.98602e-14 0)
(400 -3.67777e-14 0)
(400 -2.85554e-14 0)
(400 -2.06699e-14 0)
(400 -3.37729e-14 0)
(400 -3.53958e-14 0)
(400 -2.47948e-14 0)
(400 -2.1137e-14 0)
(400 -1.91035e-14 0)
(400 -1.35011e-14 0)
(400 5.36674e-16 0)
(400 6.66053e-15 0)
(400 4.2924e-15 0)
(400 -2.31837e-15 0)
(400 6.0739e-15 0)
(400 3.88538e-14 0)
(400 5.11587e-14 0)
(400 6.54657e-14 0)
(400 6.60785e-14 0)
(400 5.29716e-14 0)
(400 3.8155e-14 0)
(400 4.77222e-14 0)
(400 4.91386e-14 0)
(400 4.97552e-14 0)
(400 5.01954e-14 0)
(400 5.0189e-14 0)
(400 4.67192e-14 0)
(400 3.76958e-14 0)
(400 3.02524e-14 0)
(400 7.33376e-15 0)
(400 -1.55725e-14 0)
(400 -3.04656e-14 0)
(400 -4.8883e-14 0)
(400 -3.58764e-14 0)
(400 -1.9143e-14 0)
(400 -2.85736e-14 0)
(400 -3.23313e-14 0)
(400 -2.39047e-14 0)
(400 -3.4104e-14 0)
(400 -5.03843e-14 0)
(400 -5.1213e-14 0)
(400 -5.53118e-14 0)
(400 -5.44109e-14 0)
(400 -6.14879e-14 0)
(400 -6.0468e-14 0)
(400 -6.0531e-14 0)
(400 -4.29591e-14 0)
(400 -2.58636e-14 0)
(400 -2.41143e-14 0)
(400 -4.32056e-14 0)
(400 -4.28231e-14 0)
(400 -4.78068e-14 0)
(400 -3.32818e-14 0)
(400 -1.34508e-14 0)
(400 7.63507e-15 0)
(400 1.11671e-14 0)
(400 7.05298e-15 0)
(400 3.85433e-15 0)
(400 8.00023e-15 0)
(400 1.74182e-14 0)
(400 3.13003e-14 0)
(400 2.39131e-14 0)
(400 1.45593e-14 0)
(400 1.38586e-14 0)
(400 -3.18345e-15 0)
(400 -6.20077e-15 0)
(400 2.84773e-15 0)
(400 1.14309e-14 0)
(400 1.09896e-14 0)
(400 3.52934e-15 0)
(400 1.52901e-14 0)
(400 1.08225e-14 0)
(400 1.79627e-14 0)
(400 9.32896e-15 0)
(400 -1.84222e-14 0)
(400 -3.06708e-14 0)
(400 -6.82152e-14 0)
(400 -8.00496e-14 0)
(400 -8.24171e-14 0)
(400 -9.7852e-14 0)
(400 -8.49748e-14 0)
(400 -7.1477e-14 0)
(400 -5.88861e-14 0)
(400 -4.67861e-14 0)
(400 -3.61272e-14 0)
(400 -2.03664e-14 0)
(400 9.8091e-16 0)
(400 2.42022e-14 0)
(400 4.28849e-14 0)
(400 4.15455e-14 0)
(400 4.5282e-14 0)
(400 5.06901e-14 0)
(400 2.48568e-14 0)
(400 -1.49539e-14 0)
(400 -1.83163e-14 0)
(400 -1.5086e-14 0)
(400 -2.99034e-14 0)
(400 -2.5869e-14 0)
(400 -3.44002e-14 0)
(400 -3.56877e-14 0)
(400 -1.3269e-14 0)
(400 2.07734e-14 0)
(400 5.17557e-14 0)
(400 6.1809e-14 0)
(400 7.55085e-14 0)
(400 7.87643e-14 0)
(400 8.14514e-14 0)
(400 8.83401e-14 0)
(400 1.05668e-13 0)
(400 9.82829e-14 0)
(400 9.59275e-14 0)
(400 1.05626e-13 0)
(400 1.02965e-13 0)
(400 8.88253e-14 0)
(400 7.04708e-14 0)
(400 4.663e-14 0)
(400 2.697e-14 0)
(400 2.71364e-14 0)
(400 2.36875e-14 0)
(400 1.43088e-14 0)
(400 1.10392e-14 0)
(400 2.51661e-14 0)
(400 2.9125e-14 0)
(400 4.015e-14 0)
(400 2.74189e-14 0)
(400 2.77953e-14 0)
(400 3.35901e-14 0)
(400 3.51023e-14 0)
(400 3.91581e-14 0)
(400 4.38378e-14 0)
(400 5.06479e-14 0)
(400 4.56344e-14 0)
(400 5.23679e-14 0)
(400 3.17758e-14 0)
(400 -3.63677e-15 0)
(400 -4.74246e-14 0)
(400 -6.13439e-14 0)
(400 -5.84485e-14 0)
(400 -6.71987e-14 0)
(400 -6.72492e-14 0)
(400 -6.04376e-14 0)
(400 -6.14134e-14 0)
(400 -5.55708e-14 0)
(400 -6.27256e-14 0)
(400 -6.68178e-14 0)
(400 -6.06925e-14 0)
(400 -4.48533e-14 0)
(400 -2.65658e-14 0)
(400 -1.41533e-14 0)
(400 -2.36408e-14 0)
(400 -2.82017e-14 0)
(400 -2.34229e-14 0)
(400 -3.38502e-14 0)
(400 -2.78817e-14 0)
(400 -1.47672e-14 0)
(400 1.33005e-14 0)
(400 2.30332e-14 0)
(400 3.42572e-14 0)
(400 2.90243e-14 0)
(400 1.74149e-14 0)
(400 3.07633e-14 0)
(400 4.56649e-14 0)
(400 4.74106e-14 0)
(400 3.26803e-14 0)
(400 2.1602e-14 0)
(400 2.93285e-14 0)
(400 1.76835e-14 0)
(400 -2.72717e-15 0)
(400 -4.59222e-15 0)
(400 2.38944e-14 0)
(400 4.05654e-14 0)
(400 3.09689e-14 0)
(400 2.62667e-14 0)
(400 2.82669e-14 0)
(400 2.60496e-14 0)
(400 2.89346e-14 0)
(400 2.1716e-14 0)
(400 5.80088e-15 0)
(400 -8.82153e-15 0)
(400 -2.46444e-14 0)
(400 -3.24262e-14 0)
(400 -2.17984e-14 0)
(400 -5.18477e-14 0)
(400 -5.37748e-14 0)
(400 -5.44417e-14 0)
(400 -3.39823e-14 0)
(400 -1.47539e-14 0)
(400 1.11992e-14 0)
(400 1.81047e-14 0)
(400 3.25582e-14 0)
(400 3.97327e-14 0)
(400 5.38355e-14 0)
(400 5.39296e-14 0)
(400 5.36315e-14 0)
(400 6.68093e-14 0)
(400 7.16633e-14 0)
(400 7.94193e-14 0)
(400 7.78751e-14 0)
(400 5.71956e-14 0)
(400 5.06315e-14 0)
(400 3.75447e-14 0)
(400 3.90721e-14 0)
(400 3.05359e-14 0)
(400 2.89628e-14 0)
(400 2.208e-14 0)
(400 7.85882e-15 0)
(400 1.06742e-14 0)
(400 1.82287e-14 0)
(400 2.14857e-14 0)
(400 8.20749e-15 0)
(400 -7.95883e-15 0)
(400 -7.9236e-15 0)
(400 4.75405e-15 0)
(400 5.41141e-15 0)
(400 6.79129e-15 0)
(400 2.68959e-14 0)
(400 4.12769e-14 0)
(400 4.40535e-14 0)
(400 3.54987e-14 0)
(400 3.02785e-14 0)
(400 2.51365e-14 0)
(400 4.20854e-14 0)
(400 5.54864e-14 0)
(400 5.40594e-14 0)
(400 3.29758e-14 0)
(400 2.67429e-14 0)
(400 3.61351e-14 0)
(400 2.97533e-14 0)
(400 1.83169e-14 0)
(400 -2.5986e-15 0)
(400 -1.88415e-14 0)
(400 -3.89504e-14 0)
(400 -4.00248e-14 0)
(400 -3.21989e-14 0)
(400 -1.57598e-14 0)
(400 -1.08953e-14 0)
(400 -8.47627e-15 0)
(400 9.65241e-16 0)
(400 -2.68352e-15 0)
(400 -8.05376e-15 0)
(400 -4.31088e-15 0)
(400 3.42414e-15 0)
(400 8.82744e-15 0)
(400 6.80487e-15 0)
(400 -4.8178e-15 0)
(400 -2.20086e-14 0)
(400 -1.93238e-14 0)
(400 -3.73361e-15 0)
(400 2.58006e-15 0)
(400 -7.45637e-15 0)
(400 1.75987e-15 0)
(400 6.63585e-15 0)
(400 3.38334e-14 0)
(400 4.3954e-14 0)
(400 5.71137e-14 0)
(400 6.04313e-14 0)
(400 3.24041e-14 0)
(400 2.56262e-14 0)
(400 2.75293e-14 0)
(400 2.73605e-14 0)
(400 4.37277e-14 0)
(400 6.41516e-14 0)
(400 5.73477e-14 0)
(400 4.62195e-14 0)
(400 4.8705e-14 0)
(400 2.54657e-14 0)
(400 2.1838e-14 0)
(400 1.44382e-14 0)
(400 9.81594e-15 0)
(400 1.40926e-14 0)
(400 3.90912e-15 0)
(400 -3.60429e-15 0)
(400 5.22772e-15 0)
(400 1.27775e-14 0)
(400 1.27631e-14 0)
(400 -4.42528e-15 0)
(400 -2.31841e-14 0)
(400 -4.51037e-14 0)
(400 -6.53465e-14 0)
(400 -8.21151e-14 0)
(400 -8.88197e-14 0)
(400 -8.36939e-14 0)
(400 -6.36999e-14 0)
(400 -4.7916e-14 0)
(400 -3.19759e-14 0)
(400 -2.19824e-14 0)
(400 -1.30852e-14 0)
(400 8.40226e-15 0)
(400 5.25811e-15 0)
(400 1.72723e-14 0)
(400 1.91502e-14 0)
(400 1.55269e-14 0)
(400 1.45477e-14 0)
(400 -1.61203e-14 0)
(400 -2.18579e-14 0)
(400 -4.34725e-14 0)
(400 -5.31498e-14 0)
(400 -4.90523e-14 0)
(400 -4.53978e-14 0)
(400 -4.56808e-14 0)
(400 -3.49267e-14 0)
(400 -8.54234e-15 0)
(400 2.7688e-16 0)
(400 9.52309e-15 0)
(400 1.52664e-14 0)
(400 9.7458e-15 0)
(400 1.91544e-14 0)
(400 4.79502e-14 0)
(400 5.19529e-14 0)
(400 4.45428e-14 0)
(400 4.46132e-14 0)
(400 5.33605e-14 0)
(400 7.26125e-14 0)
(400 8.03115e-14 0)
(400 8.2749e-14 0)
(400 6.84565e-14 0)
(400 5.81028e-14 0)
(400 5.34083e-14 0)
(400 5.93672e-14 0)
(400 5.23704e-14 0)
(400 4.86988e-14 0)
(400 5.60625e-14 0)
(400 5.33135e-14 0)
(400 6.36132e-14 0)
(400 6.90239e-14 0)
(400 6.37553e-14 0)
(400 6.91324e-14 0)
(400 7.89517e-14 0)
(400 7.58575e-14 0)
(400 5.33851e-14 0)
(400 3.70342e-14 0)
(400 2.78915e-14 0)
(400 3.89538e-14 0)
(400 2.70941e-14 0)
(400 -2.90804e-16 0)
(400 -3.01739e-14 0)
(400 -3.2015e-14 0)
(400 -2.83465e-14 0)
(400 -3.75852e-14 0)
(400 -3.1989e-14 0)
(400 -2.5452e-14 0)
(400 -2.23484e-14 0)
(400 -1.82551e-14 0)
(400 -6.69112e-15 0)
(400 -1.13068e-14 0)
(400 -1.5378e-14 0)
(400 1.96055e-15 0)
(400 1.21506e-14 0)
(400 1.17118e-14 0)
(400 -3.79387e-15 0)
(400 -8.20226e-15 0)
(400 1.73752e-15 0)
(400 1.39105e-15 0)
(400 3.44994e-15 0)
(400 1.47954e-14 0)
(400 2.65356e-14 0)
(400 5.72539e-14 0)
(400 7.07676e-14 0)
(400 6.21641e-14 0)
(400 6.37754e-14 0)
(400 6.77548e-14 0)
(400 6.84824e-14 0)
(400 6.41549e-14 0)
(400 6.09016e-14 0)
(400 4.84634e-14 0)
(400 4.90358e-14 0)
(400 3.1493e-14 0)
(400 1.86171e-14 0)
(400 2.02657e-14 0)
(400 2.98871e-14 0)
(400 3.90793e-14 0)
(400 4.35211e-14 0)
(400 5.14749e-14 0)
(400 6.35719e-14 0)
(400 5.59608e-14 0)
(400 5.17163e-14 0)
(400 4.36226e-14 0)
(400 2.28808e-14 0)
(400 5.35355e-16 0)
(400 -2.70416e-14 0)
(400 -5.75719e-14 0)
(400 -1.64187e-14 0)
(400 -2.74475e-14 0)
(400 -3.22862e-14 0)
(400 -4.6179e-14 0)
(400 -4.02011e-14 0)
(400 -3.56685e-14 0)
(400 -1.83876e-14 0)
(400 -9.62891e-15 0)
(400 -4.50316e-15 0)
(400 -4.75168e-15 0)
(400 6.55871e-16 0)
(400 4.29272e-15 0)
(400 -2.29616e-15 0)
(400 8.04281e-15 0)
(400 3.37129e-14 0)
(400 6.05894e-14 0)
(400 6.98021e-14 0)
(400 6.2104e-14 0)
(400 7.51317e-14 0)
(400 9.57731e-14 0)
(400 9.64138e-14 0)
(400 8.88523e-14 0)
(400 7.01062e-14 0)
(400 5.01918e-14 0)
(400 2.83294e-14 0)
(400 7.61107e-15 0)
(400 -1.00055e-14 0)
(400 -1.63928e-14 0)
(400 -2.17027e-14 0)
(400 -4.22153e-14 0)
(400 -5.03441e-14 0)
(400 -2.23238e-14 0)
(400 1.0933e-14 0)
(400 3.37003e-14 0)
(400 4.35429e-14 0)
(400 5.84848e-14 0)
(400 5.62204e-14 0)
(400 4.0144e-14 0)
(400 3.46338e-14 0)
(400 4.12766e-14 0)
(400 5.23936e-14 0)
(400 5.71864e-14 0)
(400 5.11748e-14 0)
(400 3.57844e-14 0)
(400 1.79808e-14 0)
(400 1.0569e-14 0)