TITLE = "Visualization of the volumetric solution"
VARIABLES = "x","y","Density","Momentum_x","Momentum_y","Energy","Pressure","Temperature","Mach","C<sub>p</sub>","Roe_Dissipation"
ZONE NODES= 276, ELEMENTS= 466, DATAPACKING=POINT, ZONETYPE=FEQUADRILATERAL
-2.000000e+00	-1.047193e-01	1.225095e+00	4.166730e+01	-1.297033e-08	2.540227e+05	1.013256e+05	2.881243e+02	9.995090e-02	9.098708e-04	0.000000e+00	
-1.953212e+00	-8.368855e-02	1.225095e+00	4.166730e+01	-2.038042e-08	2.540227e+05	1.013256e+05	2.881243e+02	9.995090e-02	9.099596e-04	0.000000e+00	
-1.910396e+00	-1.077251e-01	1.225095e+00	4.166730e+01	-1.836337e-08	2.540227e+05	1.013256e+05	2.881243e+02	9.995090e-02	9.100148e-04	0.000000e+00	
-2.000000e+00	-5.235967e-02	1.225095e+00	4.166730e+01	-6.699298e-09	2.540227e+05	1.013256e+05	2.881243e+02	9.995090e-02	9.098706e-04	0.000000e+00	
-1.905522e+00	-5.576545e-02	1.225095e+00	4.166730e+01	-1.839839e-08	2.540227e+05	1.013256e+05	2.881243e+02	9.995090e-02	9.100193e-04	0.000000e+00	
-1.952006e+00	-2.783118e-02	1.225095e+00	4.166730e+01	-9.280031e-09	2.540227e+05	1.013256e+05	2.881243e+02	9.995090e-02	9.099592e-04	0.000000e+00	
-1.860982e+00	-9.083640e-02	1.225095e+00	4.166730e+01	-1.292285e-08	2.540227e+05	1.013256e+05	2.881243e+02	9.995090e-02	9.100887e-04	0.000000e+00	
-2.000000e+00	0.000000e+00	1.225095e+00	4.166730e+01	-2.786828e-10	2.540227e+05	1.013256e+05	2.881243e+02	9.995090e-02	9.098739e-04	0.000000e+00	
-1.905290e+00	-8.960573e-05	1.225095e+00	4.166730e+01	-6.609228e-10	2.540227e+05	1.013256e+05	2.881243e+02	9.995090e-02	9.100237e-04	0.000000e+00	
-1.860306e+00	-2.993739e-02	1.225095e+00	4.166730e+01	-1.029176e-08	2.540227e+05	1.013256e+05	2.881243e+02	9.995090e-02	9.100908e-04	0.000000e+00	
-1.952048e+00	2.775754e-02	1.225095e+00	4.166730e+01	8.368469e-09	2.540227e+05	1.013256e+05	2.881243e+02	9.995090e-02	9.099591e-04	0.000000e+00	
-1.815426e+00	-5.576584e-02	1.225095e+00	4.166730e+01	-1.391886e-09	2.540227e+05	1.013256e+05	2.881243e+02	9.995090e-02	9.101547e-04	0.000000e+00	
-1.811715e+00	-1.080510e-01	1.225095e+00	4.166730e+01	-1.191288e-08	2.540227e+05	1.013256e+05	2.881243e+02	9.995090e-02	9.101640e-04	0.000000e+00	
-2.000000e+00	5.235967e-02	1.225095e+00	4.166730e+01	6.405846e-09	2.540227e+05	1.013256e+05	2.881243e+02	9.995090e-02	9.098706e-04	0.000000e+00	
-1.905632e+00	5.557109e-02	1.225095e+00	4.166730e+01	1.840584e-08	2.540227e+05	1.013256e+05	2.881243e+02	9.995090e-02	9.100192e-04	0.000000e+00	
-1.860408e+00	2.959474e-02	1.225095e+00	4.166730e+01	9.619803e-09	2.540227e+05	1.013256e+05	2.881243e+02	9.995090e-02	9.100908e-04	0.000000e+00	
-1.814967e+00	-3.722165e-04	1.225095e+00	4.166730e+01	-1.124824e-10	2.540227e+05	1.013256e+05	2.881243e+02	9.995090e-02	9.101541e-04	0.000000e+00	
-1.953345e+00	8.357815e-02	1.225095e+00	4.166730e+01	2.076961e-08	2.540227e+05	1.013256e+05	2.881243e+02	9.995090e-02	9.099596e-04	0.000000e+00	
-1.768072e+00	-8.494063e-02	1.225095e+00	4.166730e+01	-9.474781e-09	2.540227e+05	1.013256e+05	2.881243e+02	9.995090e-02	9.102225e-04	0.000000e+00	
-1.768674e+00	-2.827833e-02	1.225095e+00	4.166730e+01	-1.447536e-09	2.540227e+05	1.013256e+05	2.881243e+02	9.995090e-02	9.102232e-04	0.000000e+00	
-2.000000e+00	1.047193e-01	1.225095e+00	4.166730e+01	1.322136e-08	2.540227e+05	1.013256e+05	2.881243e+02	9.995090e-02	9.098707e-04	0.000000e+00	
-1.910308e+00	1.077593e-01	1.225095e+00	4.166730e+01	1.982463e-08	2.540227e+05	1.013256e+05	2.881243e+02	9.995090e-02	9.100150e-04	0.000000e+00	
-1.860868e+00	9.094930e-02	1.225095e+00	4.166730e+01	1.434785e-08	2.540227e+05	1.013256e+05	2.881243e+02	9.995090e-02	9.100888e-04	0.000000e+00	
-1.815352e+00	5.578789e-02	1.225095e+00	4.166730e+01	1.636867e-09	2.540227e+05	1.013256e+05	2.881243e+02	9.995090e-02	9.101549e-04	0.000000e+00	
-1.768335e+00	2.802550e-02	1.225095e+00	4.166730e+01	3.030687e-09	2.540227e+05	1.013256e+05	2.881243e+02	9.995090e-02	9.102234e-04	0.000000e+00	
-1.722022e+00	-1.143806e-01	1.225095e+00	4.166730e+01	-6.845548e-09	2.540227e+05	1.013256e+05	2.881243e+02	9.995090e-02	9.102896e-04	0.000000e+00	
-1.944444e+00	1.570790e-01	1.225095e+00	4.166730e+01	5.572547e-10	2.540227e+05	1.013256e+05	2.881243e+02	9.995090e-02	9.099654e-04	0.000000e+00	
-1.722101e+00	-5.681209e-02	1.225095e+00	4.166730e+01	-1.528431e-09	2.540227e+05	1.013256e+05	2.881243e+02	9.995090e-02	9.102893e-04	0.000000e+00	
-1.722249e+00	1.007157e-04	1.225095e+00	4.166730e+01	1.470014e-09	2.540227e+05	1.013256e+05	2.881243e+02	9.995090e-02	9.102892e-04	0.000000e+00	
-2.000000e+00	1.570790e-01	1.225095e+00	4.166730e+01	-3.212953e-11	2.540227e+05	1.013256e+05	2.881243e+02	9.995090e-02	9.098760e-04	0.000000e+00	
-1.888889e+00	1.570790e-01	1.225095e+00	4.166730e+01	9.250240e-10	2.540227e+05	1.013256e+05	2.881243e+02	9.995090e-02	9.100452e-04	0.000000e+00	
-1.811842e+00	1.081109e-01	1.225095e+00	4.166730e+01	1.350147e-08	2.540227e+05	1.013256e+05	2.881243e+02	9.995090e-02	9.101640e-04	0.000000e+00	
-1.768061e+00	8.515828e-02	1.225095e+00	4.166730e+01	1.004061e-08	2.540227e+05	1.013256e+05	2.881243e+02	9.995090e-02	9.102225e-04	0.000000e+00	
-1.721804e+00	5.670570e-02	1.225095e+00	4.166730e+01	3.687192e-09	2.540227e+05	1.013256e+05	2.881243e+02	9.995090e-02	9.102896e-04	0.000000e+00	
-1.676134e+00	-8.476101e-02	1.225095e+00	4.166730e+01	6.589831e-09	2.540227e+05	1.013256e+05	2.881243e+02	9.995090e-02	9.103564e-04	0.000000e+00	
-1.833333e+00	1.570790e-01	1.225095e+00	4.166730e+01	1.157391e-09	2.540227e+05	1.013256e+05	2.881243e+02	9.995090e-02	9.101281e-04	0.000000e+00	
-1.675651e+00	-2.840179e-02	1.225095e+00	4.166730e+01	2.790239e-09	2.540227e+05	1.013256e+05	2.881243e+02	9.995090e-02	9.103552e-04	0.000000e+00	
-1.675811e+00	2.867413e-02	1.225095e+00	4.166730e+01	-3.981784e-10	2.540227e+05	1.013256e+05	2.881243e+02	9.995090e-02	9.103552e-04	0.000000e+00	
-1.777778e+00	1.570790e-01	1.225095e+00	4.166730e+01	6.420347e-10	2.540227e+05	1.013256e+05	2.881243e+02	9.995090e-02	9.102053e-04	0.000000e+00	
-1.721722e+00	1.150225e-01	1.225095e+00	4.166730e+01	6.698750e-09	2.540227e+05	1.013256e+05	2.881243e+02	9.995090e-02	9.102899e-04	0.000000e+00	
-1.675769e+00	8.572153e-02	1.225095e+00	4.166730e+01	-4.978062e-09	2.540227e+05	1.013256e+05	2.881243e+02	9.995090e-02	9.103565e-04	0.000000e+00	
-1.632207e+00	-1.073217e-01	1.225095e+00	4.166730e+01	1.027606e-08	2.540227e+05	1.013256e+05	2.881243e+02	9.995090e-02	9.104158e-04	0.000000e+00	
-1.628462e+00	-5.580669e-02	1.225095e+00	4.166730e+01	3.511075e-09	2.540227e+05	1.013256e+05	2.881243e+02	9.995090e-02	9.104212e-04	0.000000e+00	
-1.628780e+00	2.259930e-05	1.225095e+00	4.166730e+01	2.537463e-10	2.540227e+05	1.013256e+05	2.881243e+02	9.995090e-02	9.104234e-04	0.000000e+00	
-1.629009e+00	5.663096e-02	1.225095e+00	4.166730e+01	-2.121249e-09	2.540227e+05	1.013256e+05	2.881243e+02	9.995090e-02	9.104207e-04	0.000000e+00	
-1.722222e+00	1.570790e-01	1.225095e+00	4.166730e+01	-3.332719e-10	2.540227e+05	1.013256e+05	2.881243e+02	9.995090e-02	9.102880e-04	0.000000e+00	
-1.666667e+00	1.570790e-01	1.225095e+00	4.166730e+01	1.504213e-10	2.540227e+05	1.013256e+05	2.881243e+02	9.995090e-02	9.103711e-04	0.000000e+00	
-1.632893e+00	1.089536e-01	1.225095e+00	4.166730e+01	-8.592120e-09	2.540227e+05	1.013256e+05	2.881243e+02	9.995090e-02	9.104152e-04	0.000000e+00	
-1.582954e+00	-9.020046e-02	1.225095e+00	4.166730e+01	6.703291e-09	2.540227e+05	1.013256e+05	2.881243e+02	9.995090e-02	9.104866e-04	0.000000e+00	
-1.582908e+00	-2.979950e-02	1.225095e+00	4.166730e+01	3.647937e-09	2.540227e+05	1.013256e+05	2.881243e+02	9.995090e-02	9.104870e-04	0.000000e+00	
-1.583116e+00	3.015359e-02	1.225095e+00	4.166730e+01	-1.162211e-09	2.540227e+05	1.013256e+05	2.881243e+02	9.995090e-02	9.104865e-04	0.000000e+00	
-1.583325e+00	9.220480e-02	1.225095e+00	4.166730e+01	-5.894398e-09	2.540227e+05	1.013256e+05	2.881243e+02	9.995090e-02	9.104859e-04	0.000000e+00	
-1.611111e+00	1.570790e-01	1.225095e+00	4.166730e+01	7.842423e-10	2.540227e+05	1.013256e+05	2.881243e+02	9.995090e-02	9.104464e-04	0.000000e+00	
-1.537203e+00	-5.538946e-02	1.225095e+00	4.166730e+01	1.308825e-08	2.540227e+05	1.013256e+05	2.881243e+02	9.995090e-02	9.105516e-04	0.000000e+00	
-1.533690e+00	-1.068296e-01	1.225095e+00	4.166730e+01	-5.222293e-10	2.540227e+05	1.013256e+05	2.881243e+02	9.995090e-02	9.105593e-04	0.000000e+00	
-1.537251e+00	2.732826e-04	1.225095e+00	4.166730e+01	3.206098e-09	2.540227e+05	1.013256e+05	2.881243e+02	9.995090e-02	9.105495e-04	0.000000e+00	
-1.537716e+00	5.675594e-02	1.225095e+00	4.166730e+01	-8.787817e-09	2.540227e+05	1.013256e+05	2.881243e+02	9.995090e-02	9.105507e-04	0.000000e+00	
-1.555556e+00	1.570790e-01	1.225095e+00	4.166730e+01	-1.863788e-09	2.540227e+05	1.013256e+05	2.881243e+02	9.995090e-02	9.105258e-04	0.000000e+00	
-1.534075e+00	1.096206e-01	1.225095e+00	4.166730e+01	-3.491767e-09	2.540227e+05	1.013256e+05	2.881243e+02	9.995090e-02	9.105584e-04	0.000000e+00	
-1.490096e+00	-2.763408e-02	1.225095e+00	4.166730e+01	6.954928e-09	2.540227e+05	1.013256e+05	2.881243e+02	9.995090e-02	9.106159e-04	0.000000e+00	
-1.489355e+00	-8.355302e-02	1.225095e+00	4.166730e+01	-9.938541e-10	2.540227e+05	1.013256e+05	2.881243e+02	9.995090e-02	9.106156e-04	0.000000e+00	
-1.490621e+00	2.931525e-02	1.225095e+00	4.166730e+01	3.458915e-09	2.540227e+05	1.013256e+05	2.881243e+02	9.995090e-02	9.106154e-04	0.000000e+00	
-1.490456e+00	8.697052e-02	1.225095e+00	4.166730e+01	-5.769517e-11	2.540227e+05	1.013256e+05	2.881243e+02	9.995090e-02	9.106132e-04	0.000000e+00	
-1.500000e+00	1.570790e-01	1.225095e+00	4.166730e+01	-4.742377e-09	2.540227e+05	1.013256e+05	2.881243e+02	9.995090e-02	9.105987e-04	0.000000e+00	
-1.442935e+00	-1.127084e-01	1.225095e+00	4.166730e+01	-1.171260e-08	2.540227e+05	1.013256e+05	2.881243e+02	9.995090e-02	9.106812e-04	0.000000e+00	
-1.443122e+00	-5.532159e-02	1.225095e+00	4.166730e+01	1.194048e-09	2.540227e+05	1.013256e+05	2.881243e+02	9.995090e-02	9.106802e-04	0.000000e+00	
-1.444128e+00	1.697243e-03	1.225095e+00	4.166730e+01	6.092562e-09	2.540227e+05	1.013256e+05	2.881243e+02	9.995090e-02	9.106786e-04	0.000000e+00	
-1.444731e+00	5.909580e-02	1.225095e+00	4.166730e+01	2.808535e-09	2.540227e+05	1.013256e+05	2.881243e+02	9.995090e-02	9.106768e-04	0.000000e+00	
-1.444762e+00	1.167817e-01	1.225095e+00	4.166730e+01	5.082409e-09	2.540227e+05	1.013256e+05	2.881243e+02	9.995090e-02	9.106782e-04	0.000000e+00	
-1.395970e+00	-8.279312e-02	1.225095e+00	4.166730e+01	-9.855305e-09	2.540227e+05	1.013256e+05	2.881243e+02	9.995090e-02	9.107441e-04	0.000000e+00	
-1.444444e+00	1.570790e-01	1.225095e+00	4.166730e+01	-6.644049e-09	2.540227e+05	1.013256e+05	2.881243e+02	9.995090e-02	9.106767e-04	0.000000e+00	
-1.397593e+00	-2.512001e-02	1.225095e+00	4.166730e+01	-2.805790e-09	2.540227e+05	1.013256e+05	2.881243e+02	9.995090e-02	9.107411e-04	0.000000e+00	
-1.398765e+00	3.220932e-02	1.225095e+00	4.166730e+01	3.208981e-10	2.540227e+05	1.013256e+05	2.881243e+02	9.995090e-02	9.107395e-04	0.000000e+00	
-1.399359e+00	8.946572e-02	1.225095e+00	4.166730e+01	1.055681e-08	2.540227e+05	1.013256e+05	2.881243e+02	9.995090e-02	9.107412e-04	0.000000e+00	
-1.388889e+00	1.570790e-01	1.225095e+00	4.166730e+01	1.857212e-09	2.540227e+05	1.013256e+05	2.881243e+02	9.995090e-02	9.107529e-04	0.000000e+00	
-1.350591e+00	-4.824634e-02	1.225095e+00	4.166730e+01	-2.073238e-08	2.540227e+05	1.013256e+05	2.881243e+02	9.995090e-02	9.108034e-04	0.000000e+00	
-1.347622e+00	-1.067020e-01	1.225095e+00	4.166730e+01	-1.292157e-08	2.540227e+05	1.013256e+05	2.881243e+02	9.995090e-02	9.108048e-04	0.000000e+00	
-1.351683e+00	6.728699e-03	1.225095e+00	4.166730e+01	-8.482708e-09	2.540227e+05	1.013256e+05	2.881243e+02	9.995090e-02	9.108032e-04	0.000000e+00	
-1.354049e+00	6.229235e-02	1.225095e+00	4.166730e+01	1.590399e-08	2.540227e+05	1.013256e+05	2.881243e+02	9.995090e-02	9.108000e-04	0.000000e+00	
-1.355360e+00	1.162232e-01	1.225095e+00	4.166730e+01	2.869587e-08	2.540227e+05	1.013256e+05	2.881243e+02	9.995090e-02	9.107946e-04	0.000000e+00	
-1.303827e+00	-1.634598e-02	1.225095e+00	4.166730e+01	-1.548476e-08	2.540227e+05	1.013256e+05	2.881243e+02	9.995090e-02	9.108659e-04	0.000000e+00	
-1.300825e+00	-7.061986e-02	1.225095e+00	4.166730e+01	-1.260582e-08	2.540227e+05	1.013256e+05	2.881243e+02	9.995090e-02	9.108689e-04	0.000000e+00	
-1.301168e+00	-1.198180e-01	1.225095e+00	4.166730e+01	-1.711819e-09	2.540227e+05	1.013256e+05	2.881243e+02	9.995090e-02	9.108694e-04	0.000000e+00	
-1.333333e+00	1.570790e-01	1.225095e+00	4.166730e+01	1.088863e-08	2.540227e+05	1.013256e+05	2.881243e+02	9.995090e-02	9.108239e-04	0.000000e+00	
-1.304178e+00	3.783747e-02	1.225095e+00	4.166730e+01	1.057632e-09	2.540227e+05	1.013256e+05	2.881243e+02	9.995090e-02	9.108666e-04	0.000000e+00	
-1.304482e+00	1.064938e-01	1.225095e+00	4.166730e+01	1.557992e-08	2.540227e+05	1.013256e+05	2.881243e+02	9.995090e-02	9.108657e-04	0.000000e+00	
-1.257562e+00	-4.138377e-02	1.225095e+00	4.166730e+01	6.856398e-09	2.540227e+05	1.013256e+05	2.881243e+02	9.995090e-02	9.109283e-04	0.000000e+00	
-1.256879e+00	1.430442e-02	1.225095e+00	4.166730e+01	-2.004567e-09	2.540227e+05	1.013256e+05	2.881243e+02	9.995090e-02	9.109271e-04	0.000000e+00	
-1.252495e+00	-1.011473e-01	1.225095e+00	4.166730e+01	1.259034e-08	2.540227e+05	1.013256e+05	2.881243e+02	9.995090e-02	9.109372e-04	0.000000e+00	
-1.277778e+00	1.570790e-01	1.225095e+00	4.166730e+01	2.581491e-09	2.540227e+05	1.013256e+05	2.881243e+02	9.995090e-02	9.109025e-04	0.000000e+00	
-1.255575e+00	6.927189e-02	1.225095e+00	4.166730e+01	-1.219512e-08	2.540227e+05	1.013256e+05	2.881243e+02	9.995090e-02	9.109279e-04	0.000000e+00	
-1.254027e+00	1.184717e-01	1.225095e+00	4.166730e+01	-1.636091e-08	2.540227e+05	1.013256e+05	2.881243e+02	9.995090e-02	9.109318e-04	0.000000e+00	
-1.210200e+00	-1.037100e-02	1.225095e+00	4.166730e+01	9.241365e-09	2.540227e+05	1.013256e+05	2.881243e+02	9.995090e-02	9.109892e-04	0.000000e+00	
-1.215223e+00	-6.147289e-02	1.225095e+00	4.166730e+01	2.693552e-08	2.540227e+05	1.013256e+05	2.881243e+02	9.995090e-02	9.109830e-04	0.000000e+00	
-1.210478e+00	4.514376e-02	1.225095e+00	4.166730e+01	-1.873894e-08	2.540227e+05	1.013256e+05	2.881243e+02	9.995090e-02	9.109887e-04	0.000000e+00	
-1.192967e+00	-1.057667e-01	1.225095e+00	4.166730e+01	1.708285e-08	2.540227e+05	1.013256e+05	2.881243e+02	9.995090e-02	9.110124e-04	0.000000e+00	
-1.222222e+00	1.570790e-01	1.225095e+00	4.166730e+01	-5.027335e-09	2.540227e+05	1.013256e+05	2.881243e+02	9.995090e-02	9.109788e-04	0.000000e+00	
-1.212740e+00	1.013355e-01	1.225095e+00	4.166730e+01	-2.964776e-08	2.540227e+05	1.013256e+05	2.881243e+02	9.995090e-02	9.109900e-04	0.000000e+00	
-1.165374e+00	1.693721e-02	1.225095e+00	4.166730e+01	5.919840e-10	2.540227e+05	1.013256e+05	2.881243e+02	9.995090e-02	9.110454e-04	0.000000e+00	
-1.165027e+00	-4.460704e-02	1.225095e+00	4.166730e+01	1.291817e-08	2.540227e+05	1.013256e+05	2.881243e+02	9.995090e-02	9.110458e-04	0.000000e+00	
-1.166571e+00	7.615089e-02	1.225095e+00	4.166730e+01	-1.752131e-08	2.540227e+05	1.013256e+05	2.881243e+02	9.995090e-02	9.110438e-04	0.000000e+00	
-1.136873e+00	-1.067001e-01	1.225095e+00	4.166730e+01	-1.322579e-08	2.540227e+05	1.013256e+05	2.881243e+02	9.995090e-02	9.110794e-04	0.000000e+00	
-1.166667e+00	1.570790e-01	1.225095e+00	4.166730e+01	-1.125592e-08	2.540227e+05	1.013256e+05	2.881243e+02	9.995090e-02	9.110440e-04	0.000000e+00	
-1.121429e+00	1.060969e-01	1.225095e+00	4.166730e+01	3.847375e-09	2.540227e+05	1.013256e+05	2.881243e+02	9.995090e-02	9.110965e-04	0.000000e+00	
-1.119609e+00	-8.942939e-03	1.225095e+00	4.166730e+01	1.224344e-08	2.540227e+05	1.013256e+05	2.881243e+02	9.995090e-02	9.111021e-04	0.000000e+00	
-1.120463e+00	4.505767e-02	1.225095e+00	4.166730e+01	1.418517e-08	2.540227e+05	1.013256e+05	2.881243e+02	9.995090e-02	9.110997e-04	0.000000e+00	
-1.115344e+00	-6.106610e-02	1.225095e+00	4.166730e+01	-5.291971e-09	2.540227e+05	1.013256e+05	2.881243e+02	9.995090e-02	9.111072e-04	0.000000e+00	
-1.079382e+00	-1.035776e-01	1.225095e+00	4.166730e+01	-2.658583e-08	2.540227e+05	1.013256e+05	2.881243e+02	9.995090e-02	9.111505e-04	0.000000e+00	
-1.111111e+00	1.570790e-01	1.225095e+00	4.166730e+01	-1.994607e-08	2.540227e+05	1.013256e+05	2.881243e+02	9.995090e-02	9.111065e-04	0.000000e+00	
-1.071218e+00	7.136062e-02	1.225095e+00	4.166730e+01	2.388030e-08	2.540227e+05	1.013256e+05	2.881243e+02	9.995090e-02	9.111580e-04	0.000000e+00	
-1.075823e+00	1.194936e-01	1.225095e+00	4.166730e+01	1.158044e-09	2.540227e+05	1.013256e+05	2.881243e+02	9.995090e-02	9.111520e-04	0.000000e+00	
-1.070971e+00	-3.666345e-02	1.225095e+00	4.166730e+01	1.603728e-09	2.540227e+05	1.013256e+05	2.881243e+02	9.995090e-02	9.111602e-04	0.000000e+00	
-1.071603e+00	1.810654e-02	1.225095e+00	4.166730e+01	2.628783e-08	2.540227e+05	1.013256e+05	2.881243e+02	9.995090e-02	9.111595e-04	0.000000e+00	
-1.026124e+00	-1.173569e-01	1.225095e+00	4.166730e+01	-2.887903e-08	2.540227e+05	1.013256e+05	2.881243e+02	9.995090e-02	9.112134e-04	0.000000e+00	
-1.055556e+00	1.570790e-01	1.225095e+00	4.166730e+01	-2.463608e-08	2.540227e+05	1.013256e+05	2.881243e+02	9.995090e-02	9.111789e-04	0.000000e+00	
-1.023590e+00	-6.659401e-02	1.225095e+00	4.166730e+01	-1.027165e-08	2.540227e+05	1.013256e+05	2.881243e+02	9.995090e-02	9.112160e-04	0.000000e+00	
-1.024276e+00	4.674290e-02	1.225095e+00	4.166730e+01	2.375314e-08	2.540227e+05	1.013256e+05	2.881243e+02	9.995090e-02	9.112153e-04	0.000000e+00	
-1.025903e+00	1.033901e-01	1.225095e+00	4.166730e+01	2.595937e-09	2.540227e+05	1.013256e+05	2.881243e+02	9.995090e-02	9.112134e-04	0.000000e+00	
-1.023094e+00	-8.951964e-03	1.225095e+00	4.166730e+01	1.376560e-08	2.540227e+05	1.013256e+05	2.881243e+02	9.995090e-02	9.112175e-04	0.000000e+00	
-9.731208e-01	-1.041168e-01	1.225095e+00	4.166730e+01	5.195293e-10	2.540227e+05	1.013256e+05	2.881243e+02	9.995090e-02	9.112746e-04	0.000000e+00	
-1.000000e+00	1.570790e-01	1.225095e+00	4.166730e+01	-1.258854e-08	2.540227e+05	1.013256e+05	2.881243e+02	9.995090e-02	9.112430e-04	0.000000e+00	
-9.745688e-01	-3.681049e-02	1.225095e+00	4.166730e+01	7.841777e-09	2.540227e+05	1.013256e+05	2.881243e+02	9.995090e-02	9.112722e-04	0.000000e+00	
-9.759537e-01	1.941922e-02	1.225095e+00	4.166730e+01	7.510549e-09	2.540227e+05	1.013256e+05	2.881243e+02	9.995090e-02	9.112706e-04	0.000000e+00	
-9.779806e-01	7.251514e-02	1.225095e+00	4.166730e+01	-6.020536e-09	2.540227e+05	1.013256e+05	2.881243e+02	9.995090e-02	9.112688e-04	0.000000e+00	
-9.773403e-01	1.187332e-01	1.225095e+00	4.166730e+01	-5.850097e-09	2.540227e+05	1.013256e+05	2.881243e+02	9.995090e-02	9.112710e-04	0.000000e+00	
-9.247768e-01	-6.449293e-02	1.225095e+00	4.166730e+01	2.572583e-08	2.540227e+05	1.013256e+05	2.881243e+02	9.995090e-02	9.113284e-04	0.000000e+00	
-9.192867e-01	-1.177832e-01	1.225095e+00	4.166730e+01	2.955861e-08	2.540227e+05	1.013256e+05	2.881243e+02	9.995090e-02	9.113376e-04	0.000000e+00	
-9.444444e-01	1.570790e-01	1.225095e+00	4.166730e+01	2.163705e-09	2.540227e+05	1.013256e+05	2.881243e+02	9.995090e-02	9.113096e-04	0.000000e+00	
-9.276957e-01	-5.347178e-03	1.225095e+00	4.166730e+01	-4.003824e-10	2.540227e+05	1.013256e+05	2.881243e+02	9.995090e-02	9.113243e-04	0.000000e+00	
-9.289080e-01	5.015091e-02	1.225095e+00	4.166730e+01	-2.470284e-08	2.540227e+05	1.013256e+05	2.881243e+02	9.995090e-02	9.113235e-04	0.000000e+00	
-9.322393e-01	1.040176e-01	1.225095e+00	4.166730e+01	-1.939269e-08	2.540227e+05	1.013256e+05	2.881243e+02	9.995090e-02	9.113238e-04	0.000000e+00	
-8.653710e-01	-1.034768e-01	1.225095e+00	4.166730e+01	2.792961e-08	2.540227e+05	1.013256e+05	2.881243e+02	9.995090e-02	9.113897e-04	0.000000e+00	
-8.796276e-01	-3.009922e-02	1.225095e+00	4.166730e+01	5.596653e-09	2.540227e+05	1.013256e+05	2.881243e+02	9.995090e-02	9.113743e-04	0.000000e+00	
-8.888889e-01	1.570790e-01	1.225095e+00	4.166730e+01	5.695622e-09	2.540227e+05	1.013256e+05	2.881243e+02	9.995090e-02	9.113697e-04	0.000000e+00	
-8.815527e-01	2.709796e-02	1.225095e+00	4.166730e+01	-2.606606e-08	2.540227e+05	1.013256e+05	2.881243e+02	9.995090e-02	9.113748e-04	0.000000e+00	
-8.827133e-01	8.257176e-02	1.225095e+00	4.166730e+01	-3.269627e-08	2.540227e+05	1.013256e+05	2.881243e+02	9.995090e-02	9.113750e-04	0.000000e+00	
-8.349962e-01	-5.450964e-02	1.225095e+00	4.166730e+01	8.941464e-09	2.540227e+05	1.013256e+05	2.881243e+02	9.995090e-02	9.114249e-04	0.000000e+00	
-8.352713e-01	1.979340e-03	1.225095e+00	4.166730e+01	-7.878164e-09	2.540227e+05	1.013256e+05	2.881243e+02	9.995090e-02	9.114222e-04	0.000000e+00	
-8.041845e-01	-1.039973e-01	1.225095e+00	4.166730e+01	1.247884e-08	2.540227e+05	1.013256e+05	2.881243e+02	9.995090e-02	9.114513e-04	0.000000e+00	
-8.350175e-01	1.122119e-01	1.225095e+00	4.166730e+01	-6.944618e-09	2.540227e+05	1.013256e+05	2.881243e+02	9.995090e-02	9.114205e-04	0.000000e+00	
-8.353028e-01	5.662946e-02	1.225095e+00	4.166730e+01	-2.441181e-08	2.540227e+05	1.013256e+05	2.881243e+02	9.995090e-02	9.114186e-04	0.000000e+00	
-8.333333e-01	1.570790e-01	1.225095e+00	4.166730e+01	1.542412e-08	2.540227e+05	1.013256e+05	2.881243e+02	9.995090e-02	9.114251e-04	0.000000e+00	
-7.909801e-01	-2.902231e-02	1.225095e+00	4.166730e+01	7.196094e-09	2.540227e+05	1.013256e+05	2.881243e+02	9.995090e-02	9.114636e-04	0.000000e+00	
-7.893455e-01	2.782864e-02	1.225095e+00	4.166730e+01	-3.247435e-09	2.540227e+05	1.013256e+05	2.881243e+02	9.995090e-02	9.114717e-04	0.000000e+00	
-7.498135e-01	-1.195486e-01	1.225095e+00	4.166730e+01	8.863809e-09	2.540227e+05	1.013256e+05	2.881243e+02	9.995090e-02	9.115148e-04	0.000000e+00	
-7.874349e-01	8.303117e-02	1.225095e+00	4.166730e+01	9.165935e-09	2.540227e+05	1.013256e+05	2.881243e+02	9.995090e-02	9.114782e-04	0.000000e+00	
-7.777778e-01	1.570790e-01	1.225095e+00	4.166730e+01	5.359904e-09	2.540227e+05	1.013256e+05	2.881243e+02	9.995090e-02	9.114783e-04	0.000000e+00	
-7.454561e-01	-6.288889e-02	1.225095e+00	4.166730e+01	9.310635e-11	2.540227e+05	1.013256e+05	2.881243e+02	9.995090e-02	9.115192e-04	0.000000e+00	
-7.435322e-01	-3.459632e-03	1.225095e+00	4.166730e+01	3.973132e-09	2.540227e+05	1.013256e+05	2.881243e+02	9.995090e-02	9.115138e-04	0.000000e+00	
-7.428369e-01	5.157542e-02	1.225095e+00	4.166730e+01	2.524049e-08	2.540227e+05	1.013256e+05	2.881243e+02	9.995090e-02	9.115033e-04	0.000000e+00	
-6.968855e-01	-1.053350e-01	1.225095e+00	4.166730e+01	-1.666206e-08	2.540227e+05	1.013256e+05	2.881243e+02	9.995090e-02	9.115323e-04	0.000000e+00	
-7.386237e-01	1.049739e-01	1.225095e+00	4.166730e+01	2.780337e-08	2.540227e+05	1.013256e+05	2.881243e+02	9.995090e-02	9.115039e-04	0.000000e+00	
-7.222222e-01	1.570790e-01	1.225095e+00	4.166730e+01	4.620639e-08	2.540227e+05	1.013256e+05	2.881243e+02	9.995090e-02	9.115354e-04	0.000000e+00	
-6.968553e-01	-3.267306e-02	1.225095e+00	4.166730e+01	-7.659278e-08	2.540227e+05	1.013256e+05	2.881243e+02	9.995090e-02	9.115474e-04	0.000000e+00	
-6.961596e-01	2.225796e-02	1.225095e+00	4.166730e+01	-6.709348e-08	2.540227e+05	1.013256e+05	2.881243e+02	9.995090e-02	9.115730e-04	0.000000e+00	
-6.953872e-01	7.514752e-02	1.225095e+00	4.166730e+01	-2.552261e-08	2.540227e+05	1.013256e+05	2.881243e+02	9.995090e-02	9.115837e-04	0.000000e+00	
-6.457665e-01	-1.155013e-01	1.225095e+00	4.166730e+01	2.778466e-08	2.540227e+05	1.013256e+05	2.881243e+02	9.995090e-02	9.116325e-04	0.000000e+00	
-6.936963e-01	1.177921e-01	1.225095e+00	4.166730e+01	2.326355e-08	2.540227e+05	1.013256e+05	2.881243e+02	9.995090e-02	9.115814e-04	0.000000e+00	
-6.467459e-01	-6.048512e-02	1.225095e+00	4.166730e+01	-6.274860e-08	2.540227e+05	1.013256e+05	2.881243e+02	9.995090e-02	9.116411e-04	0.000000e+00	
-6.666667e-01	1.570790e-01	1.225095e+00	4.166730e+01	-5.918637e-09	2.540227e+05	1.013256e+05	2.881243e+02	9.995090e-02	9.115910e-04	0.000000e+00	
-6.487943e-01	-3.952243e-03	1.225095e+00	4.166730e+01	-1.696600e-07	2.540227e+05	1.013256e+05	2.881243e+02	9.995090e-02	9.115982e-04	0.000000e+00	
-6.490045e-01	5.110681e-02	1.225095e+00	4.166730e+01	-1.293783e-07	2.540227e+05	1.013256e+05	2.881243e+02	9.995090e-02	9.115614e-04	0.000000e+00	
-6.527410e-01	1.051870e-01	1.225095e+00	4.166730e+01	-2.901263e-08	2.540227e+05	1.013256e+05	2.881243e+02	9.995090e-02	9.115704e-04	0.000000e+00	
-6.014546e-01	-8.912072e-02	1.225095e+00	4.166730e+01	1.643548e-07	2.540227e+05	1.013256e+05	2.881243e+02	9.995090e-02	9.115548e-04	0.000000e+00	
-6.019207e-01	-3.157266e-02	1.225095e+00	4.166730e+01	-1.845969e-07	2.540227e+05	1.013256e+05	2.881243e+02	9.995090e-02	9.115736e-04	0.000000e+00	
-5.561171e-01	-1.170589e-01	1.225095e+00	4.166730e+01	6.982185e-07	2.540227e+05	1.013256e+05	2.881243e+02	9.995090e-02	9.117627e-04	0.000000e+00	
-6.111111e-01	1.570790e-01	1.225095e+00	4.166730e+01	2.271923e-07	2.540227e+05	1.013256e+05	2.881243e+02	9.995090e-02	9.116417e-04	0.000000e+00	
-6.024835e-01	2.588402e-02	1.225095e+00	4.166730e+01	-1.639041e-07	2.540227e+05	1.013256e+05	2.881243e+02	9.995090e-02	9.117131e-04	0.000000e+00	
-6.037146e-01	8.269951e-02	1.225095e+00	4.166730e+01	-1.432390e-08	2.540227e+05	1.013256e+05	2.881243e+02	9.995090e-02	9.117501e-04	0.000000e+00	
-5.561472e-01	-5.978911e-02	1.225095e+00	4.166730e+01	1.407336e-07	2.540227e+05	1.013256e+05	2.881243e+02	9.995090e-02	9.118303e-04	0.000000e+00	
-5.564359e-01	-2.455780e-03	1.225095e+00	4.166730e+01	1.933275e-07	2.540227e+05	1.013256e+05	2.881243e+02	9.995090e-02	9.117178e-04	0.000000e+00	
-5.102436e-01	-8.833980e-02	1.225095e+00	4.166730e+01	4.027842e-07	2.540227e+05	1.013256e+05	2.881243e+02	9.995090e-02	9.112714e-04	0.000000e+00	
-5.566889e-01	1.123038e-01	1.225095e+00	4.166730e+01	6.140755e-07	2.540227e+05	1.013256e+05	2.881243e+02	9.995090e-02	9.116027e-04	0.000000e+00	
-5.566301e-01	5.476612e-02	1.225095e+00	4.166730e+01	-2.406979e-08	2.540227e+05	1.013256e+05	2.881243e+02	9.995090e-02	9.114547e-04	0.000000e+00	
-5.103020e-01	-3.164983e-02	1.225095e+00	4.166730e+01	-4.426050e-07	2.540227e+05	1.013256e+05	2.881243e+02	9.995090e-02	9.115333e-04	0.000000e+00	
-5.555556e-01	1.570790e-01	1.225095e+00	4.166730e+01	1.788190e-07	2.540227e+05	1.013256e+05	2.881243e+02	9.995090e-02	9.117028e-04	0.000000e+00	
-5.105078e-01	2.545280e-02	1.225095e+00	4.166730e+01	-8.391506e-07	2.540227e+05	1.013256e+05	2.881243e+02	9.995090e-02	9.118548e-04	0.000000e+00	
-4.663790e-01	-1.112272e-01	1.225095e+00	4.166730e+01	9.500167e-07	2.540227e+05	1.013256e+05	2.881243e+02	9.995091e-02	9.121435e-04	0.000000e+00	
-4.630042e-01	-6.010321e-02	1.225095e+00	4.166730e+01	-1.913811e-06	2.540227e+05	1.013256e+05	2.881243e+02	9.995091e-02	9.124530e-04	0.000000e+00	
-5.000000e-01	1.570790e-01	1.225095e+00	4.166730e+01	1.058707e-06	2.540227e+05	1.013256e+05	2.881243e+02	9.995090e-02	9.116988e-04	0.000000e+00	
-5.090841e-01	8.264348e-02	1.225095e+00	4.166730e+01	4.972886e-07	2.540227e+05	1.013256e+05	2.881243e+02	9.995090e-02	9.123012e-04	0.000000e+00	
-4.638530e-01	-5.154327e-03	1.225095e+00	4.166730e+01	-3.393394e-06	2.540227e+05	1.013256e+05	2.881243e+02	9.995090e-02	9.116611e-04	0.000000e+00	
-4.641450e-01	5.044071e-02	1.225095e+00	4.166729e+01	-1.735553e-06	2.540227e+05	1.013256e+05	2.881243e+02	9.995089e-02	9.112549e-04	0.000000e+00	
-4.169583e-01	-9.479410e-02	1.225095e+00	4.166730e+01	-1.004354e-06	2.540227e+05	1.013256e+05	2.881243e+02	9.995091e-02	9.100090e-04	0.000000e+00	
-4.171140e-01	-3.541352e-02	1.225095e+00	4.166730e+01	-8.497199e-06	2.540227e+05	1.013256e+05	2.881243e+02	9.995090e-02	9.106655e-04	0.000000e+00	
-4.603320e-01	1.060037e-01	1.225095e+00	4.166729e+01	-1.273700e-07	2.540227e+05	1.013256e+05	2.881243e+02	9.995089e-02	9.109633e-04	0.000000e+00	
-4.172956e-01	2.088664e-02	1.225095e+00	4.166730e+01	-8.591713e-06	2.540227e+05	1.013256e+05	2.881243e+02	9.995090e-02	9.130131e-04	0.000000e+00	
-4.444444e-01	1.570790e-01	1.225095e+00	4.166730e+01	3.867229e-06	2.540227e+05	1.013256e+05	2.881243e+02	9.995090e-02	9.121743e-04	0.000000e+00	
-4.175202e-01	7.474275e-02	1.225095e+00	4.166729e+01	-3.793183e-06	2.540227e+05	1.013256e+05	2.881243e+02	9.995089e-02	9.133381e-04	0.000000e+00	
-3.710068e-01	-5.976309e-02	1.225095e+00	4.166732e+01	-2.342721e-06	2.540227e+05	1.013256e+05	2.881243e+02	9.995095e-02	9.143338e-04	0.000000e+00	
-3.675176e-01	-1.107261e-01	1.225095e+00	4.166732e+01	1.232667e-05	2.540227e+05	1.013256e+05	2.881243e+02	9.995095e-02	9.133160e-04	0.000000e+00	
-3.705491e-01	-4.896454e-03	1.225095e+00	4.166730e+01	-8.788500e-06	2.540227e+05	1.013256e+05	2.881243e+02	9.995090e-02	9.117725e-04	0.000000e+00	
-4.186059e-01	1.194828e-01	1.225095e+00	4.166729e+01	2.987432e-06	2.540227e+05	1.013256e+05	2.881243e+02	9.995089e-02	9.134284e-04	0.000000e+00	
-3.704767e-01	5.074199e-02	1.225095e+00	4.166728e+01	-5.708737e-06	2.540227e+05	1.013256e+05	2.881243e+02	9.995085e-02	9.089956e-04	0.000000e+00	
-3.888889e-01	1.570790e-01	1.225095e+00	4.166730e+01	7.130370e-06	2.540227e+05	1.013256e+05	2.881243e+02	9.995090e-02	9.113293e-04	0.000000e+00	
-3.736769e-01	1.059007e-01	1.225095e+00	4.166728e+01	8.631230e-06	2.540227e+05	1.013256e+05	2.881243e+02	9.995085e-02	9.101939e-04	0.000000e+00	
-3.238877e-01	-3.100130e-02	1.225095e+00	4.166731e+01	-1.077961e-05	2.540227e+05	1.013256e+05	2.881243e+02	9.995093e-02	9.079737e-04	0.000000e+00	
-3.235505e-01	-8.737202e-02	1.225095e+00	4.166731e+01	2.399586e-05	2.540227e+05	1.013256e+05	2.881243e+02	9.995094e-02	9.033643e-04	0.000000e+00	
-3.241853e-01	2.604177e-02	1.225095e+00	4.166729e+01	-1.503498e-05	2.540227e+05	1.013256e+05	2.881243e+02	9.995088e-02	9.153650e-04	0.000000e+00	
-2.778743e-01	-1.156140e-01	1.225095e+00	4.166738e+01	5.749879e-05	2.540227e+05	1.013257e+05	2.881243e+02	9.995108e-02	9.174183e-04	0.000000e+00	
-3.256399e-01	8.369901e-02	1.225095e+00	4.166728e+01	1.746901e-05	2.540227e+05	1.013257e+05	2.881243e+02	9.995086e-02	9.204636e-04	0.000000e+00	
-3.333333e-01	1.570790e-01	1.225095e+00	4.166730e+01	3.437040e-05	2.540227e+05	1.013256e+05	2.881243e+02	9.995090e-02	9.121935e-04	0.000000e+00	
-2.777017e-01	-5.829190e-02	1.225095e+00	4.166740e+01	-1.638691e-05	2.540227e+05	1.013257e+05	2.881243e+02	9.995115e-02	9.214880e-04	0.000000e+00	