TITLE = "Visualization of the volumetric solution"
VARIABLES = "x","y","Density","Momentum_x","Momentum_y","Energy","Pressure","Temperature","Mach","C<sub>p</sub>","Roe_Dissipation"
ZONE NODES= 268, ELEMENTS= 450, DATAPACKING=POINT, ZONETYPE=FEQUADRILATERAL
1.000000e+00	-1.047193e-01	1.225046e+00	4.166728e+01	3.645279e+00	2.540140e+05	1.013200e+05	2.881199e+02	1.003374e-01	-7.044923e-03	0.000000e+00	
1.048453e+00	-9.234527e-02	1.225046e+00	4.166726e+01	3.645264e+00	2.540140e+05	1.013200e+05	2.881199e+02	1.003374e-01	-7.045840e-03	0.000000e+00	
1.089303e+00	-1.167683e-01	1.225046e+00	4.166730e+01	3.645264e+00	2.540140e+05	1.013200e+05	2.881199e+02	1.003375e-01	-7.047263e-03	0.000000e+00	
1.000000e+00	-5.235967e-02	1.225046e+00	4.166720e+01	3.645253e+00	2.540140e+05	1.013200e+05	2.881199e+02	1.003372e-01	-7.048114e-03	0.000000e+00	
1.094448e+00	-6.255562e-02	1.225046e+00	4.166725e+01	3.645251e+00	2.540140e+05	1.013200e+05	2.881199e+02	1.003374e-01	-7.046594e-03	0.000000e+00	
1.047840e+00	-2.898915e-02	1.225046e+00	4.166722e+01	3.645237e+00	2.540140e+05	1.013200e+05	2.881199e+02	1.003373e-01	-7.046320e-03	0.000000e+00	
1.142456e+00	-1.076686e-01	1.225046e+00	4.166729e+01	3.645256e+00	2.540140e+05	1.013200e+05	2.881199e+02	1.003375e-01	-7.046197e-03	0.000000e+00	
1.000000e+00	0.000000e+00	1.225046e+00	4.166722e+01	3.645216e+00	2.540140e+05	1.013200e+05	2.881199e+02	1.003373e-01	-7.048168e-03	0.000000e+00	
1.095380e+00	2.113703e-03	1.225046e+00	4.166725e+01	3.645228e+00	2.540140e+05	1.013200e+05	2.881199e+02	1.003374e-01	-7.046675e-03	0.000000e+00	
1.142393e+00	-3.105091e-02	1.225046e+00	4.166725e+01	3.645241e+00	2.540140e+05	1.013200e+05	2.881199e+02	1.003374e-01	-7.046589e-03	0.000000e+00	
1.048281e+00	3.073867e-02	1.225046e+00	4.166728e+01	3.645217e+00	2.540140e+05	1.013200e+05	2.881199e+02	1.003374e-01	-7.045996e-03	0.000000e+00	
1.180626e+00	-5.861482e-02	1.225046e+00	4.166727e+01	3.645248e+00	2.540140e+05	1.013200e+05	2.881199e+02	1.003374e-01	-7.046691e-03	0.000000e+00	
1.193594e+00	-1.164910e-01	1.225046e+00	4.166730e+01	3.645253e+00	2.540140e+05	1.013200e+05	2.881199e+02	1.003375e-01	-7.046820e-03	0.000000e+00	
1.000000e+00	5.235967e-02	1.225046e+00	4.166733e+01	3.645214e+00	2.540140e+05	1.013200e+05	2.881199e+02	1.003375e-01	-7.044851e-03	0.000000e+00	
1.096814e+00	6.596259e-02	1.225046e+00	4.166732e+01	3.645228e+00	2.540140e+05	1.013200e+05	2.881199e+02	1.003375e-01	-7.045967e-03	0.000000e+00	
1.141221e+00	3.790586e-02	1.225046e+00	4.166729e+01	3.645229e+00	2.540140e+05	1.013200e+05	2.881199e+02	1.003374e-01	-7.046694e-03	0.000000e+00	
1.198158e+00	2.789581e-03	1.225046e+00	4.166727e+01	3.645237e+00	2.540140e+05	1.013200e+05	2.881199e+02	1.003374e-01	-7.046358e-03	0.000000e+00	
1.049104e+00	9.293202e-02	1.225046e+00	4.166737e+01	3.645233e+00	2.540140e+05	1.013200e+05	2.881199e+02	1.003376e-01	-7.047000e-03	0.000000e+00	
1.224099e+00	-5.473252e-02	1.225046e+00	4.166728e+01	3.645246e+00	2.540140e+05	1.013200e+05	2.881199e+02	1.003374e-01	-7.046719e-03	0.000000e+00	
1.249658e+00	-1.163284e-01	1.225046e+00	4.166730e+01	3.645250e+00	2.540140e+05	1.013200e+05	2.881199e+02	1.003375e-01	-7.046490e-03	0.000000e+00	
1.000000e+00	1.047193e-01	1.225046e+00	4.166740e+01	3.645244e+00	2.540140e+05	1.013200e+05	2.881199e+02	1.003377e-01	-7.043174e-03	0.000000e+00	
1.090595e+00	1.151135e-01	1.225046e+00	4.166736e+01	3.645244e+00	2.540140e+05	1.013200e+05	2.881199e+02	1.003376e-01	-7.047608e-03	0.000000e+00	
1.135333e+00	9.858648e-02	1.225046e+00	4.166734e+01	3.645239e+00	2.540140e+05	1.013200e+05	2.881199e+02	1.003376e-01	-7.046072e-03	0.000000e+00	
1.179211e+00	6.030694e-02	1.225046e+00	4.166730e+01	3.645232e+00	2.540140e+05	1.013200e+05	2.881199e+02	1.003375e-01	-7.047168e-03	0.000000e+00	
1.248715e+00	9.393247e-04	1.225046e+00	4.166728e+01	3.645239e+00	2.540140e+05	1.013200e+05	2.881199e+02	1.003374e-01	-7.046630e-03	0.000000e+00	
1.055556e+00	1.570790e-01	1.225046e+00	4.166735e+01	3.645260e+00	2.540140e+05	1.013200e+05	2.881199e+02	1.003376e-01	-7.047319e-03	0.000000e+00	
1.223873e+00	5.324993e-02	1.225046e+00	4.166730e+01	3.645236e+00	2.540140e+05	1.013200e+05	2.881199e+02	1.003375e-01	-7.046343e-03	0.000000e+00	
1.279356e+00	-5.653214e-02	1.225046e+00	4.166728e+01	3.645246e+00	2.540140e+05	1.013200e+05	2.881199e+02	1.003374e-01	-7.046638e-03	0.000000e+00	
1.305570e+00	-1.166644e-01	1.225046e+00	4.166730e+01	3.645248e+00	2.540140e+05	1.013200e+05	2.881199e+02	1.003375e-01	-7.046701e-03	0.000000e+00	
1.000000e+00	1.570790e-01	1.225046e+00	4.166737e+01	3.645272e+00	2.540140e+05	1.013200e+05	2.881199e+02	1.003377e-01	-7.043507e-03	0.000000e+00	
1.111111e+00	1.570790e-01	1.225046e+00	4.166734e+01	3.645256e+00	2.540140e+05	1.013200e+05	2.881199e+02	1.003376e-01	-7.045771e-03	0.000000e+00	
1.195072e+00	1.092909e-01	1.225046e+00	4.166733e+01	3.645240e+00	2.540140e+05	1.013200e+05	2.881199e+02	1.003375e-01	-7.046714e-03	0.000000e+00	
1.308203e+00	7.876693e-04	1.225046e+00	4.166728e+01	3.645240e+00	2.540140e+05	1.013200e+05	2.881199e+02	1.003374e-01	-7.046663e-03	0.000000e+00	
1.279382e+00	5.570186e-02	1.225046e+00	4.166730e+01	3.645238e+00	2.540140e+05	1.013200e+05	2.881199e+02	1.003375e-01	-7.046693e-03	0.000000e+00	
1.166667e+00	1.570790e-01	1.225046e+00	4.166733e+01	3.645252e+00	2.540140e+05	1.013200e+05	2.881199e+02	1.003376e-01	-7.046973e-03	0.000000e+00	
1.249776e+00	1.100134e-01	1.225046e+00	4.166732e+01	3.645242e+00	2.540140e+05	1.013200e+05	2.881199e+02	1.003375e-01	-7.046557e-03	0.000000e+00	
1.335921e+00	-5.677220e-02	1.225046e+00	4.166729e+01	3.645245e+00	2.540140e+05	1.013200e+05	2.881199e+02	1.003375e-01	-7.046770e-03	0.000000e+00	
1.361494e+00	-1.168136e-01	1.225046e+00	4.166730e+01	3.645247e+00	2.540140e+05	1.013200e+05	2.881199e+02	1.003375e-01	-7.046706e-03	0.000000e+00	
1.222222e+00	1.570790e-01	1.225046e+00	4.166732e+01	3.645249e+00	2.540140e+05	1.013200e+05	2.881199e+02	1.003375e-01	-7.046570e-03	0.000000e+00	
1.364907e+00	1.024021e-03	1.225046e+00	4.166729e+01	3.645241e+00	2.540140e+05	1.013200e+05	2.881199e+02	1.003375e-01	-7.046746e-03	0.000000e+00	
1.335976e+00	5.628985e-02	1.225046e+00	4.166730e+01	3.645239e+00	2.540140e+05	1.013200e+05	2.881199e+02	1.003375e-01	-7.046708e-03	0.000000e+00	
1.305563e+00	1.103094e-01	1.225046e+00	4.166731e+01	3.645242e+00	2.540140e+05	1.013200e+05	2.881199e+02	1.003375e-01	-7.046690e-03	0.000000e+00	
1.277778e+00	1.570790e-01	1.225046e+00	4.166732e+01	3.645247e+00	2.540140e+05	1.013200e+05	2.881199e+02	1.003375e-01	-7.046761e-03	0.000000e+00	
1.391896e+00	-5.666952e-02	1.225046e+00	4.166729e+01	3.645245e+00	2.540140e+05	1.013200e+05	2.881199e+02	1.003375e-01	-7.046800e-03	0.000000e+00	
1.417215e+00	-1.169055e-01	1.225046e+00	4.166730e+01	3.645246e+00	2.540140e+05	1.013200e+05	2.881199e+02	1.003375e-01	-7.046799e-03	0.000000e+00	
1.420642e+00	1.259448e-03	1.225046e+00	4.166729e+01	3.645242e+00	2.540140e+05	1.013200e+05	2.881199e+02	1.003375e-01	-7.046804e-03	0.000000e+00	
1.391974e+00	5.647991e-02	1.225046e+00	4.166730e+01	3.645241e+00	2.540140e+05	1.013200e+05	2.881199e+02	1.003375e-01	-7.046791e-03	0.000000e+00	
1.361537e+00	1.101535e-01	1.225046e+00	4.166731e+01	3.645242e+00	2.540140e+05	1.013200e+05	2.881199e+02	1.003375e-01	-7.046728e-03	0.000000e+00	
1.333333e+00	1.570790e-01	1.225046e+00	4.166731e+01	3.645246e+00	2.540140e+05	1.013200e+05	2.881199e+02	1.003375e-01	-7.046734e-03	0.000000e+00	
1.447387e+00	-5.653592e-02	1.225046e+00	4.166729e+01	3.645245e+00	2.540140e+05	1.013200e+05	2.881199e+02	1.003375e-01	-7.046867e-03	0.000000e+00	
1.472778e+00	-1.170078e-01	1.225046e+00	4.166730e+01	3.645245e+00	2.540140e+05	1.013200e+05	2.881199e+02	1.003375e-01	-7.046861e-03	0.000000e+00	
1.475896e+00	1.438495e-03	1.225046e+00	4.166729e+01	3.645243e+00	2.540140e+05	1.013200e+05	2.881199e+02	1.003375e-01	-7.046876e-03	0.000000e+00	
1.447484e+00	5.652843e-02	1.225046e+00	4.166730e+01	3.645241e+00	2.540140e+05	1.013200e+05	2.881199e+02	1.003375e-01	-7.046850e-03	0.000000e+00	
1.417320e+00	1.098282e-01	1.225046e+00	4.166730e+01	3.645242e+00	2.540140e+05	1.013200e+05	2.881199e+02	1.003375e-01	-7.046796e-03	0.000000e+00	
1.388889e+00	1.570790e-01	1.225046e+00	4.166731e+01	3.645245e+00	2.540140e+05	1.013200e+05	2.881199e+02	1.003375e-01	-7.046818e-03	0.000000e+00	
1.502609e+00	-5.643245e-02	1.225046e+00	4.166729e+01	3.645244e+00	2.540140e+05	1.013200e+05	2.881199e+02	1.003375e-01	-7.046926e-03	0.000000e+00	
1.528258e+00	-1.171333e-01	1.225046e+00	4.166730e+01	3.645245e+00	2.540140e+05	1.013200e+05	2.881199e+02	1.003375e-01	-7.046937e-03	0.000000e+00	
1.530924e+00	1.574933e-03	1.225046e+00	4.166729e+01	3.645243e+00	2.540140e+05	1.013200e+05	2.881199e+02	1.003375e-01	-7.046945e-03	0.000000e+00	
1.502719e+00	5.651353e-02	1.225046e+00	4.166730e+01	3.645242e+00	2.540140e+05	1.013200e+05	2.881199e+02	1.003375e-01	-7.046918e-03	0.000000e+00	
1.472928e+00	1.094431e-01	1.225046e+00	4.166730e+01	3.645243e+00	2.540140e+05	1.013200e+05	2.881199e+02	1.003375e-01	-7.046866e-03	0.000000e+00	
1.444444e+00	1.570790e-01	1.225046e+00	4.166730e+01	3.645245e+00	2.540140e+05	1.013200e+05	2.881199e+02	1.003375e-01	-7.046862e-03	0.000000e+00	
1.557714e+00	-5.635802e-02	1.225046e+00	4.166730e+01	3.645244e+00	2.540140e+05	1.013200e+05	2.881199e+02	1.003375e-01	-7.046992e-03	0.000000e+00	
1.583706e+00	-1.172796e-01	1.225046e+00	4.166730e+01	3.645245e+00	2.540140e+05	1.013200e+05	2.881199e+02	1.003375e-01	-7.047009e-03	0.000000e+00	
1.585871e+00	1.684614e-03	1.225046e+00	4.166729e+01	3.645243e+00	2.540140e+05	1.013200e+05	2.881199e+02	1.003375e-01	-7.047017e-03	0.000000e+00	
1.557835e+00	5.647163e-02	1.225046e+00	4.166730e+01	3.645242e+00	2.540140e+05	1.013200e+05	2.881199e+02	1.003375e-01	-7.046986e-03	0.000000e+00	
1.528444e+00	1.090418e-01	1.225046e+00	4.166730e+01	3.645243e+00	2.540140e+05	1.013200e+05	2.881199e+02	1.003375e-01	-7.046936e-03	0.000000e+00	
1.500000e+00	1.570790e-01	1.225046e+00	4.166730e+01	3.645244e+00	2.540140e+05	1.013200e+05	2.881199e+02	1.003375e-01	-7.046928e-03	0.000000e+00	
1.612787e+00	-5.630742e-02	1.225046e+00	4.166730e+01	3.645244e+00	2.540140e+05	1.013200e+05	2.881199e+02	1.003375e-01	-7.047060e-03	0.000000e+00	
1.639150e+00	-1.174458e-01	1.225046e+00	4.166730e+01	3.645244e+00	2.540140e+05	1.013200e+05	2.881199e+02	1.003375e-01	-7.047085e-03	0.000000e+00	
1.640824e+00	1.762435e-03	1.225046e+00	4.166730e+01	3.645243e+00	2.540140e+05	1.013200e+05	2.881199e+02	1.003375e-01	-7.047089e-03	0.000000e+00	
1.612928e+00	5.641059e-02	1.225046e+00	4.166730e+01	3.645243e+00	2.540140e+05	1.013200e+05	2.881199e+02	1.003375e-01	-7.047056e-03	0.000000e+00	
1.583930e+00	1.086409e-01	1.225046e+00	4.166730e+01	3.645243e+00	2.540140e+05	1.013200e+05	2.881199e+02	1.003375e-01	-7.047010e-03	0.000000e+00	
1.555556e+00	1.570790e-01	1.225046e+00	4.166730e+01	3.645244e+00	2.540140e+05	1.013200e+05	2.881199e+02	1.003375e-01	-7.046991e-03	0.000000e+00	
1.667883e+00	-5.628684e-02	1.225046e+00	4.166730e+01	3.645244e+00	2.540140e+05	1.013200e+05	2.881199e+02	1.003375e-01	-7.047131e-03	0.000000e+00	
1.694604e+00	-1.176201e-01	1.225046e+00	4.166730e+01	3.645244e+00	2.540140e+05	1.013200e+05	2.881199e+02	1.003375e-01	-7.047161e-03	0.000000e+00	
1.695859e+00	1.772094e-03	1.225046e+00	4.166730e+01	3.645243e+00	2.540140e+05	1.013200e+05	2.881199e+02	1.003375e-01	-7.047164e-03	0.000000e+00	
1.668079e+00	5.629993e-02	1.225046e+00	4.166730e+01	3.645243e+00	2.540140e+05	1.013200e+05	2.881199e+02	1.003375e-01	-7.047129e-03	0.000000e+00	
1.639436e+00	1.082337e-01	1.225046e+00	4.166730e+01	3.645243e+00	2.540140e+05	1.013200e+05	2.881199e+02	1.003375e-01	-7.047084e-03	0.000000e+00	
1.611111e+00	1.570790e-01	1.225046e+00	4.166730e+01	3.645244e+00	2.540140e+05	1.013200e+05	2.881199e+02	1.003375e-01	-7.047060e-03	0.000000e+00	
1.723027e+00	-5.628227e-02	1.225046e+00	4.166730e+01	3.645244e+00	2.540140e+05	1.013200e+05	2.881199e+02	1.003375e-01	-7.047205e-03	0.000000e+00	
1.750057e+00	-1.177600e-01	1.225046e+00	4.166730e+01	3.645244e+00	2.540140e+05	1.013200e+05	2.881199e+02	1.003375e-01	-7.047239e-03	0.000000e+00	
1.723404e+00	5.604077e-02	1.225046e+00	4.166730e+01	3.645243e+00	2.540140e+05	1.013200e+05	2.881199e+02	1.003375e-01	-7.047204e-03	0.000000e+00	
1.751048e+00	1.664522e-03	1.225046e+00	4.166730e+01	3.645243e+00	2.540140e+05	1.013200e+05	2.881199e+02	1.003375e-01	-7.047240e-03	0.000000e+00	
1.695027e+00	1.077742e-01	1.225046e+00	4.166730e+01	3.645243e+00	2.540140e+05	1.013200e+05	2.881199e+02	1.003375e-01	-7.047160e-03	0.000000e+00	
1.666667e+00	1.570790e-01	1.225046e+00	4.166730e+01	3.645244e+00	2.540140e+05	1.013200e+05	2.881199e+02	1.003375e-01	-7.047131e-03	0.000000e+00	
1.778165e+00	-5.615934e-02	1.225046e+00	4.166730e+01	3.645244e+00	2.540140e+05	1.013200e+05	2.881199e+02	1.003375e-01	-7.047281e-03	0.000000e+00	
1.805411e+00	-1.176212e-01	1.225046e+00	4.166730e+01	3.645244e+00	2.540140e+05	1.013200e+05	2.881199e+02	1.003375e-01	-7.047318e-03	0.000000e+00	
1.750841e+00	1.071238e-01	1.225046e+00	4.166730e+01	3.645243e+00	2.540140e+05	1.013200e+05	2.881199e+02	1.003375e-01	-7.047239e-03	0.000000e+00	
1.779135e+00	5.540079e-02	1.225046e+00	4.166730e+01	3.645243e+00	2.540140e+05	1.013200e+05	2.881199e+02	1.003375e-01	-7.047282e-03	0.000000e+00	
1.806382e+00	1.441185e-03	1.225046e+00	4.166730e+01	3.645243e+00	2.540140e+05	1.013200e+05	2.881199e+02	1.003375e-01	-7.047319e-03	0.000000e+00	
1.722222e+00	1.570790e-01	1.225046e+00	4.166730e+01	3.645244e+00	2.540140e+05	1.013200e+05	2.881199e+02	1.003375e-01	-7.047205e-03	0.000000e+00	
1.832901e+00	-5.518710e-02	1.225046e+00	4.166730e+01	3.645244e+00	2.540140e+05	1.013200e+05	2.881199e+02	1.003375e-01	-7.047358e-03	0.000000e+00	
1.860360e+00	-1.162426e-01	1.225046e+00	4.166730e+01	3.645243e+00	2.540140e+05	1.013200e+05	2.881199e+02	1.003375e-01	-7.047400e-03	0.000000e+00	
1.777778e+00	1.570790e-01	1.225046e+00	4.166730e+01	3.645243e+00	2.540140e+05	1.013200e+05	2.881199e+02	1.003375e-01	-7.047282e-03	0.000000e+00	
1.807150e+00	1.058783e-01	1.225046e+00	4.166730e+01	3.645243e+00	2.540140e+05	1.013200e+05	2.881199e+02	1.003375e-01	-7.047320e-03	0.000000e+00	
1.835930e+00	5.371951e-02	1.225046e+00	4.166730e+01	3.645243e+00	2.540140e+05	1.013200e+05	2.881199e+02	1.003375e-01	-7.047364e-03	0.000000e+00	
1.861139e+00	1.458509e-03	1.225046e+00	4.166730e+01	3.645243e+00	2.540140e+05	1.013200e+05	2.881199e+02	1.003375e-01	-7.047393e-03	0.000000e+00	
1.885932e+00	-5.046445e-02	1.225046e+00	4.166730e+01	3.645243e+00	2.540140e+05	1.013200e+05	2.881199e+02	1.003375e-01	-7.047437e-03	0.000000e+00	
1.914418e+00	-1.103380e-01	1.225046e+00	4.166730e+01	3.645243e+00	2.540140e+05	1.013200e+05	2.881199e+02	1.003375e-01	-7.047475e-03	0.000000e+00	
1.833333e+00	1.570790e-01	1.225046e+00	4.166730e+01	3.645243e+00	2.540140e+05	1.013200e+05	2.881199e+02	1.003375e-01	-7.047361e-03	0.000000e+00	
1.864805e+00	1.029160e-01	1.225046e+00	4.166730e+01	3.645243e+00	2.540140e+05	1.013200e+05	2.881199e+02	1.003375e-01	-7.047406e-03	0.000000e+00	
1.896961e+00	4.879346e-02	1.225046e+00	4.166730e+01	3.645243e+00	2.540140e+05	1.013200e+05	2.881199e+02	1.003375e-01	-7.047454e-03	0.000000e+00	
1.908772e+00	3.375526e-03	1.225046e+00	4.166730e+01	3.645243e+00	2.540140e+05	1.013200e+05	2.881199e+02	1.003375e-01	-7.047475e-03	0.000000e+00	
1.937862e+00	-3.139519e-02	1.225046e+00	4.166730e+01	3.645243e+00	2.540140e+05	1.013200e+05	2.881199e+02	1.003375e-01	-7.047520e-03	0.000000e+00	
1.964929e+00	-9.010200e-02	1.225046e+00	4.166730e+01	3.645243e+00	2.540140e+05	1.013200e+05	2.881199e+02	1.003375e-01	-7.047556e-03	0.000000e+00	
1.888889e+00	1.570790e-01	1.225046e+00	4.166730e+01	3.645243e+00	2.540140e+05	1.013200e+05	2.881199e+02	1.003375e-01	-7.047442e-03	0.000000e+00	
1.924522e+00	9.507070e-02	1.225046e+00	4.166730e+01	3.645243e+00	2.540140e+05	1.013200e+05	2.881199e+02	1.003375e-01	-7.047491e-03	0.000000e+00	
1.953247e+00	3.707160e-02	1.225046e+00	4.166730e+01	3.645243e+00	2.540140e+05	1.013200e+05	2.881199e+02	1.003375e-01	-7.047544e-03	0.000000e+00	
1.992052e+00	-1.158330e-01	1.225046e+00	4.166730e+01	3.645243e+00	2.540140e+05	1.013200e+05	2.881199e+02	1.003375e-01	-7.047595e-03	0.000000e+00	
1.991236e+00	-1.823127e-02	1.225046e+00	4.166730e+01	3.645243e+00	2.540140e+05	1.013200e+05	2.881199e+02	1.003375e-01	-7.047596e-03	0.000000e+00	
2.022374e+00	-6.542127e-02	1.225046e+00	4.166730e+01	3.645243e+00	2.540140e+05	1.013200e+05	2.881199e+02	1.003375e-01	-7.047644e-03	0.000000e+00	
1.944444e+00	1.570790e-01	1.225046e+00	4.166730e+01	3.645243e+00	2.540140e+05	1.013200e+05	2.881199e+02	1.003375e-01	-7.047521e-03	0.000000e+00	
1.978787e+00	1.038041e-01	1.225046e+00	4.166730e+01	3.645243e+00	2.540140e+05	1.013200e+05	2.881199e+02	1.003375e-01	-7.047563e-03	0.000000e+00	
2.014376e+00	2.623092e-02	1.225046e+00	4.166730e+01	3.645243e+00	2.540140e+05	1.013200e+05	2.881199e+02	1.003375e-01	-7.047630e-03	0.000000e+00	
2.039812e+00	-1.118089e-01	1.225046e+00	4.166730e+01	3.645243e+00	2.540140e+05	1.013200e+05	2.881199e+02	1.003375e-01	-7.047681e-03	0.000000e+00	
2.050942e+00	-1.600218e-02	1.225046e+00	4.166730e+01	3.645243e+00	2.540140e+05	1.013200e+05	2.881199e+02	1.003375e-01	-7.047699e-03	0.000000e+00	
2.014091e+00	8.020098e-02	1.225046e+00	4.166730e+01	3.645243e+00	2.540140e+05	1.013200e+05	2.881199e+02	1.003375e-01	-7.047633e-03	0.000000e+00	
2.080035e+00	-6.553917e-02	1.225046e+00	4.166730e+01	3.645243e+00	2.540140e+05	1.013200e+05	2.881199e+02	1.003375e-01	-7.047741e-03	0.000000e+00	
2.000000e+00	1.570790e-01	1.225046e+00	4.166730e+01	3.645243e+00	2.540140e+05	1.013200e+05	2.881199e+02	1.003375e-01	-7.047603e-03	0.000000e+00	
2.023567e+00	1.206819e-01	1.225046e+00	4.166730e+01	3.645243e+00	2.540140e+05	1.013200e+05	2.881199e+02	1.003375e-01	-7.047647e-03	0.000000e+00	
2.061213e+00	5.805813e-02	1.225046e+00	4.166730e+01	3.645243e+00	2.540140e+05	1.013200e+05	2.881199e+02	1.003375e-01	-7.047711e-03	0.000000e+00	
2.099221e+00	-1.118513e-01	1.225046e+00	4.166730e+01	3.645243e+00	2.540140e+05	1.013200e+05	2.881199e+02	1.003375e-01	-7.047772e-03	0.000000e+00	
2.106113e+00	-2.667736e-02	1.225046e+00	4.166730e+01	3.645243e+00	2.540140e+05	1.013200e+05	2.881199e+02	1.003375e-01	-7.047785e-03	0.000000e+00	
2.065889e+00	1.158945e-01	1.225046e+00	4.166730e+01	3.645243e+00	2.540140e+05	1.013200e+05	2.881199e+02	1.003375e-01	-7.047730e-03	0.000000e+00	
2.107551e+00	3.076261e-02	1.225046e+00	4.166730e+01	3.645243e+00	2.540140e+05	1.013200e+05	2.881199e+02	1.003375e-01	-7.047789e-03	0.000000e+00	
2.136821e+00	-7.146621e-02	1.225046e+00	4.166730e+01	3.645243e+00	2.540140e+05	1.013200e+05	2.881199e+02	1.003375e-01	-7.047839e-03	0.000000e+00	
2.055556e+00	1.570790e-01	1.225046e+00	4.166730e+01	3.645243e+00	2.540140e+05	1.013200e+05	2.881199e+02	1.003375e-01	-7.047707e-03	0.000000e+00	
2.112023e+00	9.813704e-02	1.225046e+00	4.166730e+01	3.645243e+00	2.540140e+05	1.013200e+05	2.881199e+02	1.003375e-01	-7.047795e-03	0.000000e+00	
2.159722e+00	-1.290812e-01	1.225046e+00	4.166730e+01	3.645243e+00	2.540140e+05	1.013200e+05	2.881199e+02	1.003375e-01	-7.047876e-03	0.000000e+00	
2.154024e+00	-2.853065e-04	1.225046e+00	4.166730e+01	3.645243e+00	2.540140e+05	1.013200e+05	2.881199e+02	1.003375e-01	-7.047861e-03	0.000000e+00	
2.111111e+00	1.570790e-01	1.225046e+00	4.166730e+01	3.645243e+00	2.540140e+05	1.013200e+05	2.881199e+02	1.003375e-01	-7.047777e-03	0.000000e+00	
2.160199e+00	6.319807e-02	1.225046e+00	4.166730e+01	3.645243e+00	2.540140e+05	1.013200e+05	2.881199e+02	1.003375e-01	-7.047870e-03	0.000000e+00	
2.206746e+00	-1.021819e-01	1.225046e+00	4.166730e+01	3.645243e+00	2.540140e+05	1.013200e+05	2.881199e+02	1.003375e-01	-7.047947e-03	0.000000e+00	
2.202845e+00	-3.539069e-02	1.225046e+00	4.166730e+01	3.645243e+00	2.540140e+05	1.013200e+05	2.881199e+02	1.003375e-01	-7.047940e-03	0.000000e+00	
2.166100e+00	1.273511e-01	1.225046e+00	4.166730e+01	3.645243e+00	2.540140e+05	1.013200e+05	2.881199e+02	1.003375e-01	-7.047882e-03	0.000000e+00	
2.207366e+00	2.831081e-02	1.225046e+00	4.166730e+01	3.645243e+00	2.540140e+05	1.013200e+05	2.881199e+02	1.003375e-01	-7.047948e-03	0.000000e+00	
2.213543e+00	9.701479e-02	1.225046e+00	4.166730e+01	3.645243e+00	2.540140e+05	1.013200e+05	2.881199e+02	1.003375e-01	-7.047955e-03	0.000000e+00	
2.166667e+00	1.570790e-01	1.225046e+00	4.166730e+01	3.645243e+00	2.540140e+05	1.013200e+05	2.881199e+02	1.003375e-01	-7.047887e-03	0.000000e+00	
2.253850e+00	-1.175420e-01	1.225046e+00	4.166730e+01	3.645243e+00	2.540140e+05	1.013200e+05	2.881199e+02	1.003375e-01	-7.048008e-03	0.000000e+00	
2.257354e+00	-6.793476e-02	1.225046e+00	4.166730e+01	3.645243e+00	2.540140e+05	1.013200e+05	2.881199e+02	1.003375e-01	-7.048025e-03	0.000000e+00	
2.255686e+00	-7.243290e-03	1.225046e+00	4.166730e+01	3.645243e+00	2.540140e+05	1.013200e+05	2.881199e+02	1.003375e-01	-7.048024e-03	0.000000e+00	
2.222222e+00	1.570790e-01	1.225046e+00	4.166730e+01	3.645243e+00	2.540140e+05	1.013200e+05	2.881199e+02	1.003375e-01	-7.047984e-03	0.000000e+00	
2.257747e+00	5.499977e-02	1.225046e+00	4.166730e+01	3.645243e+00	2.540140e+05	1.013200e+05	2.881199e+02	1.003375e-01	-7.048028e-03	0.000000e+00	
2.262108e+00	1.147663e-01	1.225046e+00	4.166730e+01	3.645243e+00	2.540140e+05	1.013200e+05	2.881199e+02	1.003375e-01	-7.048022e-03	0.000000e+00	
2.305994e+00	-9.780417e-02	1.225046e+00	4.166730e+01	3.645243e+00	2.540140e+05	1.013200e+05	2.881199e+02	1.003375e-01	-7.048117e-03	0.000000e+00	
2.305253e+00	-4.234519e-02	1.225046e+00	4.166730e+01	3.645243e+00	2.540140e+05	1.013200e+05	2.881199e+02	1.003375e-01	-7.048112e-03	0.000000e+00	
2.304012e+00	2.116688e-02	1.225046e+00	4.166730e+01	3.645243e+00	2.540140e+05	1.013200e+05	2.881199e+02	1.003375e-01	-7.048108e-03	0.000000e+00	
2.277778e+00	1.570790e-01	1.225046e+00	4.166730e+01	3.645243e+00	2.540140e+05	1.013200e+05	2.881199e+02	1.003375e-01	-7.048060e-03	0.000000e+00	
2.304312e+00	7.849871e-02	1.225046e+00	4.166730e+01	3.645243e+00	2.540140e+05	1.013200e+05	2.881199e+02	1.003375e-01	-7.048112e-03	0.000000e+00	
2.303023e+00	1.271338e-01	1.225046e+00	4.166730e+01	3.645243e+00	2.540140e+05	1.013200e+05	2.881199e+02	1.003375e-01	-7.048108e-03	0.000000e+00	
2.358735e+00	-1.139026e-01	1.225046e+00	4.166730e+01	3.645243e+00	2.540140e+05	1.013200e+05	2.881199e+02	1.003375e-01	-7.048208e-03	0.000000e+00	
2.357069e+00	-6.830068e-02	1.225046e+00	4.166730e+01	3.645243e+00	2.540140e+05	1.013200e+05	2.881199e+02	1.003375e-01	-7.048199e-03	0.000000e+00	
2.352052e+00	-8.272866e-03	1.225046e+00	4.166730e+01	3.645243e+00	2.540140e+05	1.013200e+05	2.881199e+02	1.003375e-01	-7.048191e-03	0.000000e+00	
2.350086e+00	5.397367e-02	1.225046e+00	4.166730e+01	3.645243e+00	2.540140e+05	1.013200e+05	2.881199e+02	1.003375e-01	-7.048191e-03	0.000000e+00	
2.333333e+00	1.570790e-01	1.225046e+00	4.166730e+01	3.645243e+00	2.540140e+05	1.013200e+05	2.881199e+02	1.003375e-01	-7.048166e-03	0.000000e+00	
2.349387e+00	1.138307e-01	1.225046e+00	4.166730e+01	3.645243e+00	2.540140e+05	1.013200e+05	2.881199e+02	1.003375e-01	-7.048202e-03	0.000000e+00	
2.407122e+00	-8.989275e-02	1.225046e+00	4.166730e+01	3.645243e+00	2.540140e+05	1.013200e+05	2.881199e+02	1.003375e-01	-7.048290e-03	0.000000e+00	
2.400239e+00	-3.787054e-02	1.225046e+00	4.166730e+01	3.645243e+00	2.540140e+05	1.013200e+05	2.881199e+02	1.003375e-01	-7.048274e-03	0.000000e+00	
2.397016e+00	2.620980e-02	1.225046e+00	4.166730e+01	3.645243e+00	2.540140e+05	1.013200e+05	2.881199e+02	1.003375e-01	-7.048270e-03	0.000000e+00	
2.394952e+00	9.490625e-02	1.225046e+00	4.166730e+01	3.645243e+00	2.540140e+05	1.013200e+05	2.881199e+02	1.003375e-01	-7.048270e-03	0.000000e+00	
2.388889e+00	1.570790e-01	1.225046e+00	4.166730e+01	3.645243e+00	2.540140e+05	1.013200e+05	2.881199e+02	1.003375e-01	-7.048263e-03	0.000000e+00	
2.481722e+00	-8.882261e-02	1.225046e+00	4.166730e+01	3.645243e+00	2.540140e+05	1.013200e+05	2.881199e+02	1.003375e-01	-7.048417e-03	0.000000e+00	
2.443243e+00	-5.383038e-02	1.225046e+00	4.166730e+01	3.645243e+00	2.540140e+05	1.013200e+05	2.881199e+02	1.003375e-01	-7.048352e-03	0.000000e+00	
2.442820e+00	-3.233977e-03	1.225046e+00	4.166730e+01	3.645243e+00	2.540140e+05	1.013200e+05	2.881199e+02	1.003375e-01	-7.048351e-03	0.000000e+00	
2.443376e+00	6.032009e-02	1.225046e+00	4.166730e+01	3.645243e+00	2.540140e+05	1.013200e+05	2.881199e+02	1.003375e-01	-7.048353e-03	0.000000e+00	
2.445279e+00	1.252577e-01	1.225046e+00	4.166730e+01	3.645243e+00	2.540140e+05	1.013200e+05	2.881199e+02	1.003375e-01	-7.048351e-03	0.000000e+00	
2.444444e+00	1.570790e-01	1.225046e+00	4.166730e+01	3.645243e+00	2.540140e+05	1.013200e+05	2.881199e+02	1.003375e-01	-7.048354e-03	0.000000e+00	
2.530371e+00	-1.108304e-01	1.225046e+00	4.166730e+01	3.645243e+00	2.540140e+05	1.013200e+05	2.881199e+02	1.003375e-01	-7.048503e-03	0.000000e+00	
2.485817e+00	-3.800798e-02	1.225046e+00	4.166730e+01	3.645243e+00	2.540140e+05	1.013200e+05	2.881199e+02	1.003375e-01	-7.048428e-03	0.000000e+00	
2.488691e+00	2.622870e-02	1.225046e+00	4.166730e+01	3.645243e+00	2.540140e+05	1.013200e+05	2.881199e+02	1.003375e-01	-7.048431e-03	0.000000e+00	
2.492686e+00	9.468251e-02	1.225046e+00	4.166730e+01	3.645243e+00	2.540140e+05	1.013200e+05	2.881199e+02	1.003375e-01	-7.048439e-03	0.000000e+00	
2.500000e+00	1.570790e-01	1.225046e+00	4.166730e+01	3.645243e+00	2.540140e+05	1.013200e+05	2.881199e+02	1.003375e-01	-7.048449e-03	0.000000e+00	
2.529319e+00	-6.822844e-02	1.225046e+00	4.166730e+01	3.645243e+00	2.540140e+05	1.013200e+05	2.881199e+02	1.003375e-01	-7.048509e-03	0.000000e+00	
2.580957e+00	-9.351357e-02	1.225046e+00	4.166730e+01	3.645243e+00	2.540140e+05	1.013200e+05	2.881199e+02	1.003375e-01	-7.048593e-03	0.000000e+00	
2.532881e+00	-8.161605e-03	1.225046e+00	4.166730e+01	3.645243e+00	2.540140e+05	1.013200e+05	2.881199e+02	1.003375e-01	-7.048513e-03	0.000000e+00	
2.535826e+00	5.385203e-02	1.225046e+00	4.166730e+01	3.645243e+00	2.540140e+05	1.013200e+05	2.881199e+02	1.003375e-01	-7.048515e-03	0.000000e+00	
2.539753e+00	1.124349e-01	1.225046e+00	4.166730e+01	3.645243e+00	2.540140e+05	1.013200e+05	2.881199e+02	1.003375e-01	-7.048513e-03	0.000000e+00	
2.578737e+00	-4.255560e-02	1.225046e+00	4.166730e+01	3.645243e+00	2.540140e+05	1.013200e+05	2.881199e+02	1.003375e-01	-7.048595e-03	0.000000e+00	
2.555556e+00	1.570790e-01	1.225046e+00	4.166730e+01	3.645243e+00	2.540140e+05	1.013200e+05	2.881199e+02	1.003375e-01	-7.048547e-03	0.000000e+00	
2.623349e+00	-6.738132e-02	1.225046e+00	4.166730e+01	3.645243e+00	2.540140e+05	1.013200e+05	2.881199e+02	1.003375e-01	-7.048681e-03	0.000000e+00	
2.632000e+00	-1.149932e-01	1.225046e+00	4.166730e+01	3.645243e+00	2.540140e+05	1.013200e+05	2.881199e+02	1.003375e-01	-7.048712e-03	0.000000e+00	
2.579999e+00	2.128579e-02	1.225046e+00	4.166730e+01	3.645243e+00	2.540140e+05	1.013200e+05	2.881199e+02	1.003375e-01	-7.048599e-03	0.000000e+00	
2.581933e+00	7.816947e-02	1.225046e+00	4.166730e+01	3.645243e+00	2.540140e+05	1.013200e+05	2.881199e+02	1.003375e-01	-7.048597e-03	0.000000e+00	
2.585770e+00	1.241561e-01	1.225046e+00	4.166730e+01	3.645243e+00	2.540140e+05	1.013200e+05	2.881199e+02	1.003375e-01	-7.048607e-03	0.000000e+00	
2.625397e+00	-7.001802e-03	1.225046e+00	4.166730e+01	3.645243e+00	2.540140e+05	1.013200e+05	2.881199e+02	1.003375e-01	-7.048684e-03	0.000000e+00	
2.611111e+00	1.570790e-01	1.225046e+00	4.166730e+01	3.645243e+00	2.540140e+05	1.013200e+05	2.881199e+02	1.003375e-01	-7.048657e-03	0.000000e+00	
2.672254e+00	-3.527236e-02	1.225046e+00	4.166730e+01	3.645243e+00	2.540140e+05	1.013200e+05	2.881199e+02	1.003375e-01	-7.048768e-03	0.000000e+00	
2.672320e+00	-9.798584e-02	1.225046e+00	4.166730e+01	3.645243e+00	2.540140e+05	1.013200e+05	2.881199e+02	1.003375e-01	-7.048767e-03	0.000000e+00	
2.626120e+00	5.452384e-02	1.225046e+00	4.166730e+01	3.645243e+00	2.540140e+05	1.013200e+05	2.881199e+02	1.003375e-01	-7.048685e-03	0.000000e+00	
2.625595e+00	1.128886e-01	1.225046e+00	4.166730e+01	3.645243e+00	2.540140e+05	1.013200e+05	2.881199e+02	1.003375e-01	-7.048700e-03	0.000000e+00	
2.672597e+00	2.782812e-02	1.225046e+00	4.166730e+01	3.645243e+00	2.540140e+05	1.013200e+05	2.881199e+02	1.003375e-01	-7.048769e-03	0.000000e+00	
2.721757e+00	-1.253876e-01	1.225046e+00	4.166730e+01	3.645243e+00	2.540140e+05	1.013200e+05	2.881199e+02	1.003375e-01	-7.048859e-03	0.000000e+00	
2.666667e+00	1.570790e-01	1.225046e+00	4.166730e+01	3.645243e+00	2.540140e+05	1.013200e+05	2.881199e+02	1.003375e-01	-7.048744e-03	0.000000e+00	
2.720365e+00	-6.525291e-02	1.225046e+00	4.166730e+01	3.645243e+00	2.540140e+05	1.013200e+05	2.881199e+02	1.003375e-01	-7.048857e-03	0.000000e+00	
2.719976e+00	-2.020170e-03	1.225046e+00	4.166730e+01	3.645243e+00	2.540140e+05	1.013200e+05	2.881199e+02	1.003375e-01	-7.048856e-03	0.000000e+00	
2.671863e+00	9.477377e-02	1.225046e+00	4.166730e+01	3.645243e+00	2.540140e+05	1.013200e+05	2.881199e+02	1.003375e-01	-7.048770e-03	0.000000e+00	
2.720540e+00	6.235706e-02	1.225046e+00	4.166730e+01	3.645243e+00	2.540140e+05	1.013200e+05	2.881199e+02	1.003375e-01	-7.048855e-03	0.000000e+00	
2.768995e+00	-9.818488e-02	1.225046e+00	4.166730e+01	3.645243e+00	2.540140e+05	1.013200e+05	2.881199e+02	1.003375e-01	-7.048942e-03	0.000000e+00	
2.722544e+00	1.250854e-01	1.225046e+00	4.166730e+01	3.645243e+00	2.540140e+05	1.013200e+05	2.881199e+02	1.003375e-01	-7.048857e-03	0.000000e+00	
2.767244e+00	-3.325234e-02	1.225046e+00	4.166730e+01	3.645243e+00	2.540140e+05	1.013200e+05	2.881199e+02	1.003375e-01	-7.048939e-03	0.000000e+00	
2.767373e+00	3.142377e-02	1.225046e+00	4.166730e+01	3.645243e+00	2.540140e+05	1.013200e+05	2.881199e+02	1.003375e-01	-7.048940e-03	0.000000e+00	
2.722222e+00	1.570790e-01	1.225046e+00	4.166730e+01	3.645243e+00	2.540140e+05	1.013200e+05	2.881199e+02	1.003375e-01	-7.048858e-03	0.000000e+00	
2.769365e+00	9.756412e-02	1.225046e+00	4.166730e+01	3.645243e+00	2.540140e+05	1.013200e+05	2.881199e+02	1.003375e-01	-7.048942e-03	0.000000e+00	
2.809900e+00	-1.183519e-01	1.225046e+00	4.166730e+01	3.645243e+00	2.540140e+05	1.013200e+05	2.881199e+02	1.003375e-01	-7.049013e-03	0.000000e+00	