VARIABLES = "x"
 "y"
 "Density"
 "Momentum_x"
 "Momentum_y"
 "Energy"
 "Pressure"
 "Temperature"
 "Mach"
 "C<sub>p</sub>"
 "Roe_Dissipation"
ZONE
DT=(DOUBLE,DOUBLE,DOUBLE,DOUBLE,DOUBLE,DOUBLE,DOUBLE,DOUBLE,DOUBLE,DOUBLE,DOUBLE)
                     -2                       0         1.2248899936676        42.3530616760254   -9.46567607282289E-12            253986.90625          101301.8984375        288.105010986328        0.10161630064249     -0.0325880981981754                       0 
      -1.99749874937469                       0         1.2248899936676        42.3530616760254    -7.3715651185315E-12            253986.90625          101301.8984375        288.105010986328        0.10161630064249     -0.0325880981981754                       0 
      -1.99499749874937                       0         1.2248899936676        42.3530616760254   -5.27745416423993E-12            253986.90625          101301.8984375        288.105010986328        0.10161630064249     -0.0325880981981754                       0 
      -1.99249624812406                       0         1.2248899936676        42.3530616760254   -3.18334320994854E-12            253986.90625          101301.8984375        288.105010986328        0.10161630064249     -0.0325880981981754                       0 
      -1.98999499749875                       0         1.2248899936676        42.3530616760254   -1.08923225565715E-12            253986.90625          101301.8984375        288.105010986328        0.10161630064249     -0.0325880981981754                       0 
      -1.98749374687344                       0         1.2248899936676        42.3530616760254    1.00487869863424E-12            253986.90625          101301.8984375        288.105010986328        0.10161630064249     -0.0325880981981754                       0 
      -1.98499249624812                       0         1.2248899936676        42.3530616760254    3.09898965292582E-12            253986.90625          101301.8984375        288.105010986328        0.10161630064249     -0.0325880981981754                       0 
      -1.98249124562281                       0         1.2248899936676        42.3530616760254    5.19310060721721E-12            253986.90625          101301.8984375        288.105010986328        0.10161630064249     -0.0325880981981754                       0 
       -1.9799899949975                       0         1.2248899936676        42.3530616760254     7.2872115615086E-12            253986.90625          101301.8984375        288.105010986328        0.10161630064249     -0.0325880981981754                       0 
      -1.97748874437219                       0         1.2248899936676        42.3530616760254    9.38132251580017E-12            253986.90625          101301.8984375        288.105010986328        0.10161630064249     -0.0325880981981754                       0 
      -1.97498749374687                       0         1.2248899936676        42.3530616760254    1.14754334700916E-11            253986.90625          101301.8984375        288.105010986328        0.10161630064249     -0.0325880981981754                       0 
      -1.97248624312156                       0         1.2248899936676        42.3530616760254     1.3569544424383E-11            253986.90625          101301.8984375        288.105010986328        0.10161630064249     -0.0325880981981754                       0 
      -1.96998499249625                       0         1.2248899936676        42.3530616760254    1.56636553786745E-11            253986.90625          101301.8984375        288.105010986328        0.10161630064249     -0.0325880981981754                       0 
      -1.96748374187094                       0         1.2248899936676        42.3530616760254    1.77577663329659E-11            253986.90625          101301.8984375        288.105010986328        0.10161630064249     -0.0325880981981754                       0 
      -1.96498249124562                       0         1.2248899936676        42.3530616760254    1.98518772872573E-11            253986.90625          101301.8984375        288.105010986328        0.10161630064249     -0.0325880981981754                       0 
      -1.96248124062031                       0         1.2248899936676        42.3530616760254    2.19459882415487E-11            253986.90625          101301.8984375        288.105010986328        0.10161630064249     -0.0325880981981754                       0 
        -1.959979989995                       0         1.2248899936676        42.3530616760254    2.40400991958403E-11            253986.90625          101301.8984375        288.105010986328        0.10161630064249     -0.0325880981981754                       0 
      -1.95747873936968                       0         1.2248899936676        42.3530616760254    2.61342101501317E-11            253986.90625          101301.8984375        288.105010986328        0.10161630064249     -0.0325880981981754                       0 
      -1.95497748874437                       0         1.2248899936676        42.3530616760254    2.82283211044231E-11            253986.90625          101301.8984375        288.105010986328        0.10161630064249     -0.0325880981981754                       0 
      -1.95247623811906                       0         1.2248899936676        42.3530616760254    3.03224320587146E-11            253986.90625          101301.8984375        288.105010986328        0.10161630064249     -0.0325880981981754                       0 
      -1.94997498749375                       0         1.2248899936676        42.3530616760254     3.2416543013006E-11            253986.90625          101301.8984375        288.105010986328        0.10161630064249     -0.0325880981981754                       0 
      -1.94747373686843                       0         1.2248899936676        42.3530616760254    3.45504797099569E-11            253986.90625          101301.8984375        288.105010986328        0.10161630064249     -0.0325880981981754                       0 
      -1.94497248624312                       0         1.2248899936676        42.3530616760254    3.67246525275466E-11            253986.90625          101301.8984375        288.105010986328        0.10161630064249     -0.0325880981981754                       0 
      -1.94247123561781                       0         1.2248899936676        42.3530616760254    3.88988253451361E-11            253986.90625          101301.8984375        288.105010986328        0.10161630064249     -0.0325880981981754                       0 
       -1.9399699849925                       0         1.2248899936676        42.3530616760254    4.10729981627256E-11            253986.90625          101301.8984375        288.105010986328        0.10161630064249     -0.0325880981981754                       0 
      -1.93746873436718                       0         1.2248899936676        42.3530616760254     4.3247170980315E-11            253986.90625          101301.8984375        288.105010986328        0.10161630064249     -0.0325880981981754                       0 
      -1.93496748374187                       0         1.2248899936676        42.3530616760254    4.54213437979047E-11            253986.90625          101301.8984375        288.105010986328        0.10161630064249     -0.0325880981981754                       0 
      -1.93246623311656                       0         1.2248899936676        42.3530616760254    4.75955166154942E-11            253986.90625          101301.8984375        288.105010986328        0.10161630064249     -0.0325880981981754                       0 
      -1.92996498249125                       0         1.2248899936676        42.3530616760254    4.97696894330837E-11            253986.90625          101301.8984375        288.105010986328        0.10161630064249     -0.0325880981981754                       0 
      -1.92746373186593                       0         1.2248899936676        42.3530616760254    5.19438622506734E-11            253986.90625          101301.8984375        288.105010986328        0.10161630064249     -0.0325880981981754                       0 
      -1.92496248124062                       0         1.2248899936676        42.3530616760254    5.41180350682628E-11            253986.90625          101301.8984375        288.105010986328        0.10161630064249     -0.0325880981981754                       0 
      -1.92246123061531                       0         1.2248899936676        42.3530616760254    5.62922078858523E-11            253986.90625          101301.8984375        288.105010986328        0.10161630064249     -0.0325880981981754                       0 
      -1.91995997998999                       0         1.2248899936676        42.3530616760254     5.8466380703442E-11            253986.90625          101301.8984375        288.105010986328        0.10161630064249     -0.0325880981981754                       0 
      -1.91745872936468                       0         1.2248899936676        42.3530616760254    6.06405535210315E-11            253986.90625          101301.8984375        288.105010986328        0.10161630064249     -0.0325880981981754                       0 
      -1.91495747873937                       0         1.2248899936676        42.3530616760254     6.2814726338621E-11            253986.90625          101301.8984375        288.105010986328        0.10161630064249     -0.0325880981981754                       0 
      -1.91245622811406                       0         1.2248899936676        42.3530616760254    6.49888991562104E-11            253986.90625          101301.8984375        288.105010986328        0.10161630064249     -0.0325880981981754                       0 
      -1.90995497748874                       0         1.2248899936676        42.3530616760254    6.71630719738001E-11            253986.90625          101301.8984375        288.105010986328        0.10161630064249     -0.0325880981981754                       0 
      -1.90745372686343                       0         1.2248899936676        42.3530616760254    6.93372447913896E-11            253986.90625          101301.8984375        288.105010986328        0.10161630064249     -0.0325880981981754                       0 
      -1.90495247623812                       0         1.2248899936676        42.3530616760254    7.15114176089791E-11            253986.90625          101301.8984375        288.105010986328        0.10161630064249     -0.0325880981981754                       0 
      -1.90245122561281                       0         1.2248899936676        42.3530616760254    7.36855904265688E-11            253986.90625          101301.8984375        288.105010986328        0.10161630064249     -0.0325880981981754                       0 
      -1.89994997498749                       0         1.2248899936676        42.3530616760254    7.58597632441582E-11            253986.90625          101301.8984375        288.105010986328        0.10161630064249     -0.0325880981981754                       0 
      -1.89744872436218                       0         1.2248899936676        42.3530616760254    7.80339360617477E-11            253986.90625          101301.8984375        288.105010986328        0.10161630064249     -0.0325880981981754                       0 
      -1.89494747373687                       0         1.2248899936676        42.3530616760254    8.01193222123385E-11            253986.90625          101301.8984375        288.105010986328        0.10161630064249     -0.0325880981981754                       0 
      -1.89244622311156                       0         1.2248899936676        42.3530616760254     8.2204255194015E-11            253986.90625          101301.8984375        288.105010986328        0.10161630064249     -0.0325880981981754                       0 
      -1.88994497248624                       0         1.2248899936676        42.3530616760254    8.42891881756915E-11            253986.90625          101301.8984375        288.105010986328        0.10161630064249     -0.0325880981981754                       0 
      -1.88744372186093                       0         1.2248899936676        42.3530616760254     8.6374121157368E-11            253986.90625          101301.8984375        288.105010986328        0.10161630064249     -0.0325880981981754                       0 
      -1.88494247123562                       0         1.2248899936676        42.3530616760254    8.84590541390447E-11            253986.90625          101301.8984375        288.105010986328        0.10161630064249     -0.0325880981981754                       0 
      -1.88244122061031                       0         1.2248899936676        42.3530616760254    9.05439871207213E-11            253986.90625          101301.8984375        288.105010986328        0.10161630064249     -0.0325880981981754                       0 
      -1.87993996998499                       0         1.2248899936676        42.3530616760254    9.26289201023978E-11            253986.90625          101301.8984375        288.105010986328        0.10161630064249     -0.0325880981981754                       0 
      -1.87743871935968                       0         1.2248899936676        42.3530616760254    9.47138530840745E-11            253986.90625          101301.8984375        288.105010986328        0.10161630064249     -0.0325880981981754                       0 
      -1.87493746873437                       0         1.2248899936676        42.3530616760254     9.6798786065751E-11            253986.90625          101301.8984375        288.105010986328        0.10161630064249     -0.0325880981981754                       0 
      -1.87243621810905                       0         1.2248899936676        42.3530616760254    9.88837190474275E-11            253986.90625          101301.8984375        288.105010986328        0.10161630064249     -0.0325880981981754                       0 
      -1.86993496748374                       0         1.2248899936676        42.3530616760254    1.00968652029104E-10            253986.90625          101301.8984375        288.105010986328        0.10161630064249     -0.0325880981981754                       0 
      -1.86743371685843                       0         1.2248899936676        42.3530616760254    1.03053585010781E-10            253986.90625          101301.8984375        288.105010986328        0.10161630064249     -0.0325880981981754                       0 
      -1.86493246623312                       0         1.2248899936676        42.3530616760254    1.05138517992457E-10            253986.90625          101301.8984375        288.105010986328        0.10161630064249     -0.0325880981981754                       0 
       -1.8624312156078                       0         1.2248899936676        42.3530616760254    1.07223450974134E-10            253986.90625          101301.8984375        288.105010986328        0.10161630064249     -0.0325880981981754                       0 
      -1.85992996498249                       0         1.2248899936676        42.3530616760254     1.0930838395581E-10            253986.90625          101301.8984375        288.105010986328        0.10161630064249     -0.0325880981981754                       0 
      -1.85742871435718                       0         1.2248899936676        42.3530616760254    1.11393316937487E-10            253986.90625          101301.8984375        288.105010986328        0.10161630064249     -0.0325880981981754                       0 
      -1.85492746373187                       0         1.2248899936676        42.3530616760254    1.13478249919163E-10            253986.90625          101301.8984375        288.105010986328        0.10161630064249     -0.0325880981981754                       0 
      -1.85242621310655                       0         1.2248899936676        42.3530616760254     1.1556318290084E-10            253986.90625          101301.8984375        288.105010986328        0.10161630064249     -0.0325880981981754                       0 
      -1.84992496248124                       0         1.2248899936676        42.3530616760254    1.17648115882517E-10            253986.90625          101301.8984375        288.105010986328        0.10161630064249     -0.0325880981981754                       0 
      -1.84742371185593                       0         1.2248899936676        42.3530616760254    1.19733048864193E-10            253986.90625          101301.8984375        288.105010986328        0.10161630064249     -0.0325880981981754                       0 
      -1.84492246123062                       0         1.2248899936676        42.3530616760254    1.21783276842344E-10            253986.90625          101301.8984375        288.105010986328        0.10161630064249     -0.0325880981981754                       0 
       -1.8424212106053                       0         1.2248899936676        42.3530616760254    1.23797722634321E-10            253986.90625          101301.8984375        288.105010986328        0.10161630064249     -0.0325880981981754                       0 
      -1.83991995997999                       0         1.2248899936676        42.3530616760254    1.25812168426298E-10            253986.90625          101301.8984375        288.105010986328        0.10161630064249     -0.0325880981981754                       0 
      -1.83741870935468                       0         1.2248899936676        42.3530616760254    1.27826614218274E-10            253986.90625          101301.8984375        288.105010986328        0.10161630064249     -0.0325880981981754                       0 
      -1.83491745872936                       0         1.2248899936676        42.3530616760254    1.29841060010251E-10            253986.90625          101301.8984375        288.105010986328        0.10161630064249     -0.0325880981981754                       0 
      -1.83241620810405                       0         1.2248899936676        42.3530616760254    1.31855505802227E-10            253986.90625          101301.8984375        288.105010986328        0.10161630064249     -0.0325880981981754                       0 
      -1.82991495747874                       0         1.2248899936676        42.3530616760254    1.33869951594204E-10            253986.90625          101301.8984375        288.105010986328        0.10161630064249     -0.0325880981981754                       0 
      -1.82741370685343                       0         1.2248899936676        42.3530616760254     1.3588439738618E-10            253986.90625          101301.8984375        288.105010986328        0.10161630064249     -0.0325880981981754                       0 
      -1.82491245622811                       0         1.2248899936676        42.3530616760254    1.37898843178157E-10            253986.90625          101301.8984375        288.105010986328        0.10161630064249     -0.0325880981981754                       0 
       -1.8224112056028                       0         1.2248899936676        42.3530616760254    1.39913288970133E-10            253986.90625          101301.8984375        288.105010986328        0.10161630064249     -0.0325880981981754                       0 
      -1.81990995497749                       0         1.2248899936676        42.3530616760254     1.4192773476211E-10            253986.90625          101301.8984375        288.105010986328        0.10161630064249     -0.0325880981981754                       0 
      -1.81740870435218                       0         1.2248899936676        42.3530616760254    1.43942180554086E-10            253986.90625          101301.8984375        288.105010986328        0.10161630064249     -0.0325880981981754                       0 
      -1.81490745372686                       0         1.2248899936676        42.3530616760254    1.45956626346063E-10            253986.90625          101301.8984375        288.105010986328        0.10161630064249     -0.0325880981981754                       0 
      -1.81240620310155                       0         1.2248899936676        42.3530616760254    1.47971072138039E-10            253986.90625          101301.8984375        288.105010986328        0.10161630064249     -0.0325880981981754                       0 
      -1.80990495247624                       0         1.2248899936676        42.3530616760254    1.49985517930016E-10            253986.90625          101301.8984375        288.105010986328        0.10161630064249     -0.0325880981981754                       0 
      -1.80740370185093                       0         1.2248899936676        42.3530616760254    1.51999963721992E-10            253986.90625          101301.8984375        288.105010986328        0.10161630064249     -0.0325880981981754                       0 
      -1.80490245122561                       0         1.2248899936676        42.3530616760254    1.54014409513969E-10            253986.90625          101301.8984375        288.105010986328        0.10161630064249     -0.0325880981981754                       0 
       -1.8024012006003                       0         1.2248899936676        42.3530616760254    1.56028855305946E-10            253986.90625          101301.8984375        288.105010986328        0.10161630064249     -0.0325880981981754                       0 
      -1.79989994997499                       0         1.2248899936676        42.3530616760254    1.58043301097922E-10            253986.90625          101301.8984375        288.105010986328        0.10161630064249     -0.0325880981981754                       0 
      -1.79739869934967                       0         1.2248899936676        42.3530616760254    1.60057746889899E-10            253986.90625          101301.8984375        288.105010986328        0.10161630064249     -0.0325880981981754                       0 
      -1.79489744872436                       0         1.2248899936676        42.3530616760254    1.62072192681875E-10            253986.90625          101301.8984375        288.105010986328        0.10161630064249     -0.0325880981981754                       0 
      -1.79239619809905                       0         1.2248899936676        42.3530616760254    1.64033403529071E-10            253986.90625          101301.8984375        288.105010986328        0.10161630064249     -0.0325880987377356                       0 
      -1.78989494747374                       0         1.2248899936676        42.3530616760254    1.65994068163954E-10            253986.90625          101301.8984375        288.105010986328        0.10161630064249     -0.0325880992828319                       0 
      -1.78739369684842                       0         1.2248899936676        42.3530616760254    1.67954732798837E-10            253986.90625          101301.8984375        288.105010986328        0.10161630064249     -0.0325880998279282                       0 
      -1.78489244622311                       0         1.2248899936676        42.3530616760254     1.6991539743372E-10            253986.90625          101301.8984375        288.105010986328        0.10161630064249     -0.0325881003730245                       0 
       -1.7823911955978                       0         1.2248899936676        42.3530616760254    1.71876062068603E-10            253986.90625          101301.8984375        288.105010986328        0.10161630064249     -0.0325881009181208                       0 
      -1.77988994497249                       0         1.2248899936676        42.3530616760254    1.73836726703486E-10            253986.90625          101301.8984375        288.105010986328        0.10161630064249      -0.032588101463217                       0 
      -1.77738869434717                       0         1.2248899936676        42.3530616760254     1.7579739133837E-10            253986.90625          101301.8984375        288.105010986328        0.10161630064249     -0.0325881020083133                       0 
      -1.77488744372186                       0         1.2248899936676        42.3530616760254    1.77758055973253E-10            253986.90625          101301.8984375        288.105010986328        0.10161630064249     -0.0325881025534096                       0 
      -1.77238619309655                       0         1.2248899936676        42.3530616760254    1.79718720608136E-10            253986.90625          101301.8984375        288.105010986328        0.10161630064249     -0.0325881030985059                       0 
      -1.76988494247124                       0         1.2248899936676        42.3530616760254    1.81679385243019E-10            253986.90625          101301.8984375        288.105010986328        0.10161630064249     -0.0325881036436022                       0 
      -1.76738369184592                       0         1.2248899936676        42.3530616760254    1.83640049877902E-10            253986.90625          101301.8984375        288.105010986328        0.10161630064249     -0.0325881041886985                       0 
      -1.76488244122061                       0         1.2248899936676        42.3530616760254    1.85600714512785E-10            253986.90625          101301.8984375        288.105010986328        0.10161630064249     -0.0325881047337948                       0 
       -1.7623811905953                       0         1.2248899936676        42.3530616760254    1.87561379147668E-10            253986.90625          101301.8984375        288.105010986328        0.10161630064249     -0.0325881052788911                       0 
      -1.75987993996998                       0         1.2248899936676        42.3530616760254    1.89522043782552E-10            253986.90625          101301.8984375        288.105010986328        0.10161630064249     -0.0325881058239873                       0 
      -1.75737868934467                       0         1.2248899936676        42.3530616760254    1.91482708417435E-10            253986.90625          101301.8984375        288.105010986328        0.10161630064249     -0.0325881063690836                       0 
      -1.75487743871936                       0         1.2248899936676        42.3530616760254    1.93443373052318E-10            253986.90625          101301.8984375        288.105010986328        0.10161630064249     -0.0325881069141799                       0 
      -1.75237618809405                       0         1.2248899936676        42.3530616760254    1.95404037687201E-10            253986.90625          101301.8984375        288.105010986328        0.10161630064249     -0.0325881074592762                       0 
      -1.74987493746873                       0         1.2248899936676        42.3530616760254    1.97364702322084E-10            253986.90625          101301.8984375        288.105010986328        0.10161630064249     -0.0325881080043725                       0 
      -1.74737368684342                       0         1.2248899936676        42.3530616760254    1.99325366956967E-10            253986.90625          101301.8984375        288.105010986328        0.10161630064249     -0.0325881085494688                       0 
      -1.74487243621811                       0         1.2248899936676        42.3530616760254     2.0128603159185E-10            253986.90625          101301.8984375        288.105010986328        0.10161630064249     -0.0325881090945651                       0 
       -1.7423711855928                       0         1.2248899936676        42.3530616760254    2.03206106067341E-10            253986.90625          101301.8984375        288.105010986328        0.10161630064249     -0.0325881093740463                       0 
      -1.73986993496748                       0         1.2248899936676        42.3530616760254    2.05083471402042E-10            253986.90625          101301.8984375        288.105010986328        0.10161630064249     -0.0325881093740463                       0 
      -1.73736868434217                       0         1.2248899936676        42.3530616760254    2.06960836736744E-10            253986.90625          101301.8984375        288.105010986328        0.10161630064249     -0.0325881093740463                       0 
      -1.73486743371686                       0         1.2248899936676        42.3530616760254    2.08838202071445E-10            253986.90625          101301.8984375        288.105010986328        0.10161630064249     -0.0325881093740463                       0 
      -1.73236618309155                       0         1.2248899936676        42.3530616760254    2.10715567406146E-10            253986.90625          101301.8984375        288.105010986328        0.10161630064249     -0.0325881093740463                       0 
      -1.72986493246623                       0         1.2248899936676        42.3530616760254    2.12592932740846E-10            253986.90625          101301.8984375        288.105010986328        0.10161630064249     -0.0325881093740463                       0 
      -1.72736368184092                       0         1.2248899936676        42.3530616760254    2.14470298075547E-10            253986.90625          101301.8984375        288.105010986328        0.10161630064249     -0.0325881093740463                       0 
      -1.72486243121561                       0         1.2248899936676        42.3530616760254    2.16347663410249E-10            253986.90625          101301.8984375        288.105010986328        0.10161630064249     -0.0325881093740463                       0 
       -1.7223611805903                       0         1.2248899936676        42.3530616760254     2.1822502874495E-10            253986.90625          101301.8984375        288.105010986328        0.10161630064249     -0.0325881093740463                       0 