VARIABLES = "x"
 "y"
 "Density"
 "Momentum_x"
 "Momentum_y"
 "Energy"
 "Pressure"
 "Temperature"
 "Mach"
 "C<sub>p</sub>"
 "Roe_Dissipation"
ZONE
DT=(DOUBLE,DOUBLE,DOUBLE,DOUBLE,DOUBLE,DOUBLE,DOUBLE,DOUBLE,DOUBLE,DOUBLE,DOUBLE)
                     -2                       0        1.22498500347137        42.0368118286133   -1.42145648550362E-11                254003.5          101312.8984375        288.114013671875       0.100848197937012     -0.0170696694403887                       0 
      -1.99749874937469                       0        1.22498500347137        42.0368118286133   -8.68135461806936E-12                254003.5          101312.8984375        288.114013671875       0.100848197937012      -0.017069669985485                       0 
      -1.99499749874937                       0        1.22498500347137        42.0368118286133   -3.14814438110197E-12                254003.5          101312.8984375        288.114013671875       0.100848197937012     -0.0170696705305813                       0 
      -1.99249624812406                       0        1.22498500347137        42.0368118286133    2.38506585586492E-12                254003.5          101312.8984375        288.114013671875       0.100848197937012     -0.0170696710756775                       0 
      -1.98999499749875                       0        1.22498500347137        42.0368118286133    7.91827609283181E-12                254003.5          101312.8984375        288.114013671875       0.100848197937012     -0.0170696716207738                       0 
      -1.98749374687344                       0        1.22498500347137        42.0368118286133    1.34514863297987E-11                254003.5          101312.8984375        288.114013671875       0.100848197937012     -0.0170696721658701                       0 
      -1.98499249624812                       0        1.22498500347137        42.0368118286133    1.89846965667661E-11                254003.5          101312.8984375        288.114013671875       0.100848197937012     -0.0170696727109664                       0 
      -1.98249124562281                       0        1.22498500347137        42.0368118286133     2.4517906803733E-11                254003.5          101312.8984375        288.114013671875       0.100848197937012     -0.0170696732560627                       0 
       -1.9799899949975                       0        1.22498500347137        42.0368118286133    3.00511170406999E-11                254003.5          101312.8984375        288.114013671875       0.100848197937012      -0.017069673801159                       0 
      -1.97748874437219                       0        1.22498500347137        42.0368118286133    3.55843272776673E-11                254003.5          101312.8984375        288.114013671875       0.100848197937012     -0.0170696743462553                       0 
      -1.97498749374687                       0        1.22498500347137        42.0368118286133    4.11175375146341E-11                254003.5          101312.8984375        288.114013671875       0.100848197937012     -0.0170696748913515                       0 
      -1.97248624312156                       0        1.22498500347137        42.0368118286133     4.6650747751601E-11                254003.5          101312.8984375        288.114013671875       0.100848197937012     -0.0170696754364478                       0 
      -1.96998499249625                       0        1.22498500347137        42.0368118286133    5.21839579885684E-11                254003.5          101312.8984375        288.114013671875       0.100848197937012     -0.0170696759815441                       0 
      -1.96748374187094                       0        1.22498500347137        42.0368118286133    5.77171682255353E-11                254003.5          101312.8984375        288.114013671875       0.100848197937012     -0.0170696765266404                       0 
      -1.96498249124562                       0        1.22498500347137        42.0368118286133    6.32503784625022E-11                254003.5          101312.8984375        288.114013671875       0.100848197937012     -0.0170696770717367                       0 
      -1.96248124062031                       0        1.22498500347137        42.0368118286133    6.87835886994691E-11                254003.5          101312.8984375        288.114013671875       0.100848197937012      -0.017069677616833                       0 
        -1.959979989995                       0        1.22498500347137        42.0368118286133    7.43167989364365E-11                254003.5          101312.8984375        288.114013671875       0.100848197937012     -0.0170696781619293                       0 
      -1.95747873936968                       0        1.22498500347137        42.0368118286133    7.98500091734034E-11                254003.5          101312.8984375        288.114013671875       0.100848197937012     -0.0170696787070256                       0 
      -1.95497748874437                       0        1.22498500347137        42.0368118286133    8.53832194103703E-11                254003.5          101312.8984375        288.114013671875       0.100848197937012     -0.0170696792521218                       0 
      -1.95247623811906                       0        1.22498500347137        42.0368118286133    9.09164296473376E-11                254003.5          101312.8984375        288.114013671875       0.100848197937012     -0.0170696797972181                       0 
      -1.94997498749375                       0        1.22498500347137        42.0368118286133    9.64496398843045E-11                254003.5          101312.8984375        288.114013671875       0.100848197937012     -0.0170696803423144                       0 
      -1.94747373686843                       0        1.22498500347137        42.0368118286133    1.02074800466418E-10                254003.5          101312.8984375        288.114013671875       0.100848197937012     -0.0170696806162596                       0 
      -1.94497248624312                       0        1.22498500347137        42.0368118286133    1.07792858881266E-10                254003.5          101312.8984375        288.114013671875       0.100848197937012     -0.0170696806162596                       0 
      -1.94247123561781                       0        1.22498500347137        42.0368118286133    1.13510917296114E-10                254003.5          101312.8984375        288.114013671875       0.100848197937012     -0.0170696806162596                       0 
       -1.9399699849925                       0        1.22498500347137        42.0368118286133    1.19228975710961E-10                254003.5          101312.8984375        288.114013671875       0.100848197937012     -0.0170696806162596                       0 
      -1.93746873436718                       0        1.22498500347137        42.0368118286133    1.24947034125809E-10                254003.5          101312.8984375        288.114013671875       0.100848197937012     -0.0170696806162596                       0 
      -1.93496748374187                       0        1.22498500347137        42.0368118286133    1.30665092540657E-10                254003.5          101312.8984375        288.114013671875       0.100848197937012     -0.0170696806162596                       0 
      -1.93246623311656                       0        1.22498500347137        42.0368118286133    1.36383150955504E-10                254003.5          101312.8984375        288.114013671875       0.100848197937012     -0.0170696806162596                       0 
      -1.92996498249125                       0        1.22498500347137        42.0368118286133    1.42101209370352E-10                254003.5          101312.8984375        288.114013671875       0.100848197937012     -0.0170696806162596                       0 
      -1.92746373186593                       0        1.22498500347137        42.0368118286133      1.478192677852E-10                254003.5          101312.8984375        288.114013671875       0.100848197937012     -0.0170696806162596                       0 
      -1.92496248124062                       0        1.22498500347137        42.0368118286133    1.53537326200047E-10                254003.5          101312.8984375        288.114013671875       0.100848197937012     -0.0170696806162596                       0 
      -1.92246123061531                       0        1.22498500347137        42.0368118286133    1.59255384614895E-10                254003.5          101312.8984375        288.114013671875       0.100848197937012     -0.0170696806162596                       0 
      -1.91995997998999                       0        1.22498500347137        42.0368118286133    1.64973443029743E-10                254003.5          101312.8984375        288.114013671875       0.100848197937012     -0.0170696806162596                       0 
      -1.91745872936468                       0        1.22498500347137        42.0368118286133     1.7069150144459E-10                254003.5          101312.8984375        288.114013671875       0.100848197937012     -0.0170696806162596                       0 
      -1.91495747873937                       0        1.22498500347137        42.0368118286133    1.76409559859438E-10                254003.5          101312.8984375        288.114013671875       0.100848197937012     -0.0170696806162596                       0 
      -1.91245622811406                       0        1.22498500347137        42.0368118286133    1.82127618274285E-10                254003.5          101312.8984375        288.114013671875       0.100848197937012     -0.0170696806162596                       0 
      -1.90995497748874                       0        1.22498500347137        42.0368118286133    1.87845676689133E-10                254003.5          101312.8984375        288.114013671875       0.100848197937012     -0.0170696806162596                       0 
      -1.90745372686343                       0        1.22498500347137        42.0368118286133    1.93563735103981E-10                254003.5          101312.8984375        288.114013671875       0.100848197937012     -0.0170696806162596                       0 
      -1.90495247623812                       0        1.22498500347137        42.0368118286133    1.99281793518828E-10                254003.5          101312.8984375        288.114013671875       0.100848197937012     -0.0170696806162596                       0 
      -1.90245122561281                       0        1.22498500347137        42.0368118286133    2.04999851933676E-10                254003.5          101312.8984375        288.114013671875       0.100848197937012     -0.0170696806162596                       0 
      -1.89994997498749                       0        1.22498500347137        42.0368118286133    2.10717910348524E-10                254003.5          101312.8984375        288.114013671875       0.100848197937012     -0.0170696806162596                       0 
      -1.89744872436218                       0        1.22498500347137        42.0368118286133    2.16435968763371E-10                254003.5          101312.8984375        288.114013671875       0.100848197937012     -0.0170696806162596                       0 
      -1.89494747373687                       0        1.22498500347137        42.0368118286133    2.22165180149749E-10                254003.5          101312.8984375        288.114013671875       0.100848197937012     -0.0170696806162596                       0 
      -1.89244622311156                       0        1.22498500347137        42.0368118286133    2.27894448461115E-10                254003.5          101312.8984375        288.114013671875       0.100848197937012     -0.0170696806162596                       0 
      -1.88994497248624                       0        1.22498500347137        42.0368118286133    2.33623716772481E-10                254003.5          101312.8984375        288.114013671875       0.100848197937012     -0.0170696806162596                       0 
      -1.88744372186093                       0        1.22498500347137        42.0368118286133    2.39352985083846E-10                254003.5          101312.8984375        288.114013671875       0.100848197937012     -0.0170696806162596                       0 
      -1.88494247123562                       0        1.22498500347137        42.0368118286133    2.45082253395213E-10                254003.5          101312.8984375        288.114013671875       0.100848197937012     -0.0170696806162596                       0 
      -1.88244122061031                       0        1.22498500347137        42.0368118286133    2.50811521706579E-10                254003.5          101312.8984375        288.114013671875       0.100848197937012     -0.0170696806162596                       0 
      -1.87993996998499                       0        1.22498500347137        42.0368118286133    2.56540790017944E-10                254003.5          101312.8984375        288.114013671875       0.100848197937012     -0.0170696806162596                       0 
      -1.87743871935968                       0        1.22498500347137        42.0368118286133    2.62270058329311E-10                254003.5          101312.8984375        288.114013671875       0.100848197937012     -0.0170696806162596                       0 
      -1.87493746873437                       0        1.22498500347137        42.0368118286133    2.67999326640676E-10                254003.5          101312.8984375        288.114013671875       0.100848197937012     -0.0170696806162596                       0 
      -1.87243621810905                       0        1.22498500347137        42.0368118286133    2.73728594952042E-10                254003.5          101312.8984375        288.114013671875       0.100848197937012     -0.0170696806162596                       0 
      -1.86993496748374                       0        1.22498500347137        42.0368118286133    2.79457863263409E-10                254003.5          101312.8984375        288.114013671875       0.100848197937012     -0.0170696806162596                       0 
      -1.86743371685843                       0        1.22498500347137        42.0368118286133    2.85187131574774E-10                254003.5          101312.8984375        288.114013671875       0.100848197937012     -0.0170696806162596                       0 
      -1.86493246623312                       0        1.22498500347137        42.0368118286133     2.9091639988614E-10                254003.5          101312.8984375        288.114013671875       0.100848197937012     -0.0170696806162596                       0 
       -1.8624312156078                       0        1.22498500347137        42.0368118286133    2.96645668197506E-10                254003.5          101312.8984375        288.114013671875       0.100848197937012     -0.0170696806162596                       0 
      -1.85992996498249                       0        1.22498500347137        42.0368118286133    3.02374936508872E-10                254003.5          101312.8984375        288.114013671875       0.100848197937012     -0.0170696806162596                       0 
      -1.85742871435718                       0        1.22498500347137        42.0368118286133    3.08104204820238E-10                254003.5          101312.8984375        288.114013671875       0.100848197937012     -0.0170696806162596                       0 
      -1.85492746373187                       0        1.22498500347137        42.0368118286133    3.13833473131604E-10                254003.5          101312.8984375        288.114013671875       0.100848197937012     -0.0170696806162596                       0 
      -1.85242621310655                       0        1.22498500347137        42.0368118286133     3.1956274144297E-10                254003.5          101312.8984375        288.114013671875       0.100848197937012     -0.0170696806162596                       0 
      -1.84992496248124                       0        1.22498500347137        42.0368118286133    3.25292009754336E-10                254003.5          101312.8984375        288.114013671875       0.100848197937012     -0.0170696806162596                       0 
      -1.84742371185593                       0        1.22498500347137        42.0368118286133    3.31021278065702E-10                254003.5          101312.8984375        288.114013671875       0.100848197937012     -0.0170696806162596                       0 
      -1.84492246123062                       0        1.22498500347137        42.0368118286133    3.36806373002478E-10                254003.5          101312.8984375        288.114013671875       0.100848197937012     -0.0170696808399127                       0 
       -1.8424212106053                       0        1.22498500347137        42.0368118286133    3.42649027325541E-10                254003.5          101312.8984375        288.114013671875       0.100848197937012     -0.0170696812941606                       0 
      -1.83991995997999                       0        1.22498500347137        42.0368118286133    3.48491681648603E-10                254003.5          101312.8984375        288.114013671875       0.100848197937012     -0.0170696817484086                       0 
      -1.83741870935468                       0        1.22498500347137        42.0368118286133    3.54334335971664E-10                254003.5          101312.8984375        288.114013671875       0.100848197937012     -0.0170696822026565                       0 
      -1.83491745872936                       0        1.22498500347137        42.0368118286133    3.60176990294727E-10                254003.5          101312.8984375        288.114013671875       0.100848197937012     -0.0170696826569045                       0 
      -1.83241620810405                       0        1.22498500347137        42.0368118286133    3.66019644617789E-10                254003.5          101312.8984375        288.114013671875       0.100848197937012     -0.0170696831111525                       0 
      -1.82991495747874                       0        1.22498500347137        42.0368118286133     3.7186229894085E-10                254003.5          101312.8984375        288.114013671875       0.100848197937012     -0.0170696835654004                       0 
      -1.82741370685343                       0        1.22498500347137        42.0368118286133    3.77704953263913E-10                254003.5          101312.8984375        288.114013671875       0.100848197937012     -0.0170696840196484                       0 
      -1.82491245622811                       0        1.22498500347137        42.0368118286133    3.83547607586975E-10                254003.5          101312.8984375        288.114013671875       0.100848197937012     -0.0170696844738963                       0 
       -1.8224112056028                       0        1.22498500347137        42.0368118286133    3.89390261910037E-10                254003.5          101312.8984375        288.114013671875       0.100848197937012     -0.0170696849281443                       0 
      -1.81990995497749                       0        1.22498500347137        42.0368118286133    3.95232916233099E-10                254003.5          101312.8984375        288.114013671875       0.100848197937012     -0.0170696853823923                       0 
      -1.81740870435218                       0        1.22498500347137        42.0368118286133    4.01075570556161E-10                254003.5          101312.8984375        288.114013671875       0.100848197937012     -0.0170696858366402                       0 
      -1.81490745372686                       0        1.22498500347137        42.0368118286133    4.06918224879223E-10                254003.5          101312.8984375        288.114013671875       0.100848197937012     -0.0170696862908882                       0 
      -1.81240620310155                       0        1.22498500347137        42.0368118286133    4.12760879202285E-10                254003.5          101312.8984375        288.114013671875       0.100848197937012     -0.0170696867451362                       0 
      -1.80990495247624                       0        1.22498500347137        42.0368118286133    4.18603533525347E-10                254003.5          101312.8984375        288.114013671875       0.100848197937012     -0.0170696871993841                       0 
      -1.80740370185093                       0        1.22498500347137        42.0368118286133    4.24446187848409E-10                254003.5          101312.8984375        288.114013671875       0.100848197937012     -0.0170696876536321                       0 
      -1.80490245122561                       0        1.22498500347137        42.0368118286133    4.30288842171471E-10                254003.5          101312.8984375        288.114013671875       0.100848197937012       -0.01706968810788                       0 
       -1.8024012006003                       0        1.22498500347137        42.0368118286133    4.36131496494533E-10                254003.5          101312.8984375        288.114013671875       0.100848197937012      -0.017069688562128                       0 
      -1.79989994997499                       0        1.22498500347137        42.0368118286133    4.41974150817595E-10                254003.5          101312.8984375        288.114013671875       0.100848197937012      -0.017069689016376                       0 
      -1.79739869934967                       0        1.22498500347137        42.0368118286133    4.47816805140657E-10                254003.5          101312.8984375        288.114013671875       0.100848197937012     -0.0170696894706239                       0 
      -1.79489744872436                       0        1.22498500347137        42.0368118286133    4.53659459463719E-10                254003.5          101312.8984375        288.114013671875       0.100848197937012     -0.0170696899248719                       0 
      -1.79239619809905                       0        1.22498500347137        42.0368118286133    4.59607840705632E-10                254003.5          101312.8984375        288.114013671875       0.100848197937012     -0.0170696899294853                       0 
      -1.78989494747374                       0        1.22498500347137        42.0368118286133    4.65557306748985E-10                254003.5          101312.8984375        288.114013671875       0.100848197937012     -0.0170696899294853                       0 
      -1.78739369684842                       0        1.22498500347137        42.0368118286133     4.7150677279234E-10                254003.5          101312.8984375        288.114013671875       0.100848197937012     -0.0170696899294853                       0 
      -1.78489244622311                       0        1.22498500347137        42.0368118286133    4.77456238835694E-10                254003.5          101312.8984375        288.114013671875       0.100848197937012     -0.0170696899294853                       0 
       -1.7823911955978                       0        1.22498500347137        42.0368118286133    4.83405704879047E-10                254003.5          101312.8984375        288.114013671875       0.100848197937012     -0.0170696899294853                       0 
      -1.77988994497249                       0        1.22498500347137        42.0368118286133    4.89355170922401E-10                254003.5          101312.8984375        288.114013671875       0.100848197937012     -0.0170696899294853                       0 
      -1.77738869434717                       0        1.22498500347137        42.0368118286133    4.95304636965755E-10                254003.5          101312.8984375        288.114013671875       0.100848197937012     -0.0170696899294853                       0 
      -1.77488744372186                       0        1.22498500347137        42.0368118286133    5.01254103009109E-10                254003.5          101312.8984375        288.114013671875       0.100848197937012     -0.0170696899294853                       0 
      -1.77238619309655                       0        1.22498500347137        42.0368118286133    5.07203569052463E-10                254003.5          101312.8984375        288.114013671875       0.100848197937012     -0.0170696899294853                       0 
      -1.76988494247124                       0        1.22498500347137        42.0368118286133    5.13153035095817E-10                254003.5          101312.8984375        288.114013671875       0.100848197937012     -0.0170696899294853                       0 
      -1.76738369184592                       0        1.22498500347137        42.0368118286133    5.19102501139171E-10                254003.5          101312.8984375        288.114013671875       0.100848197937012     -0.0170696899294853                       0 
      -1.76488244122061                       0        1.22498500347137        42.0368118286133    5.25051967182525E-10                254003.5          101312.8984375        288.114013671875       0.100848197937012     -0.0170696899294853                       0 
       -1.7623811905953                       0        1.22498500347137        42.0368118286133    5.31001433225878E-10                254003.5          101312.8984375        288.114013671875       0.100848197937012     -0.0170696899294853                       0 
      -1.75987993996998                       0        1.22498500347137        42.0368118286133    5.36950899269233E-10                254003.5          101312.8984375        288.114013671875       0.100848197937012     -0.0170696899294853                       0 
      -1.75737868934467                       0        1.22498500347137        42.0368118286133    5.42900365312586E-10                254003.5          101312.8984375        288.114013671875       0.100848197937012     -0.0170696899294853                       0 
      -1.75487743871936                       0        1.22498500347137        42.0368118286133     5.4884983135594E-10                254003.5          101312.8984375        288.114013671875       0.100848197937012     -0.0170696899294853                       0 
      -1.75237618809405                       0        1.22498500347137        42.0368118286133    5.54799297399294E-10                254003.5          101312.8984375        288.114013671875       0.100848197937012     -0.0170696899294853                       0 
      -1.74987493746873                       0        1.22498500347137        42.0368118286133    5.60748763442648E-10                254003.5          101312.8984375        288.114013671875       0.100848197937012     -0.0170696899294853                       0 
      -1.74737368684342                       0        1.22498500347137        42.0368118286133    5.66698229486002E-10                254003.5          101312.8984375        288.114013671875       0.100848197937012     -0.0170696899294853                       0 
      -1.74487243621811                       0        1.22498500347137        42.0368118286133    5.72647695529356E-10                254003.5          101312.8984375        288.114013671875       0.100848197937012     -0.0170696899294853                       0 
       -1.7423711855928                       0        1.22498500347137        42.0368118286133    5.78602592240409E-10                254003.5          101312.8984375        288.114013671875       0.100848197937012     -0.0170696899294853                       0 
      -1.73986993496748                       0        1.22498500347137        42.0368118286133    5.84563203123439E-10                254003.5          101312.8984375        288.114013671875       0.100848197937012     -0.0170696899294853                       0 
      -1.73736868434217                       0        1.22498500347137        42.0368118286133     5.9052381400647E-10                254003.5          101312.8984375        288.114013671875       0.100848197937012     -0.0170696899294853                       0 
      -1.73486743371686                       0        1.22498500347137        42.0368118286133    5.96484424889499E-10                254003.5          101312.8984375        288.114013671875       0.100848197937012     -0.0170696899294853                       0 
      -1.73236618309155                       0        1.22498500347137        42.0368118286133     6.0244503577253E-10                254003.5          101312.8984375        288.114013671875       0.100848197937012     -0.0170696899294853                       0 
      -1.72986493246623                       0        1.22498500347137        42.0368118286133     6.0840564665556E-10                254003.5          101312.8984375        288.114013671875       0.100848197937012     -0.0170696899294853                       0 
      -1.72736368184092                       0        1.22498500347137        42.0368118286133    6.14366257538589E-10                254003.5          101312.8984375        288.114013671875       0.100848197937012     -0.0170696899294853                       0 
      -1.72486243121561                       0        1.22498500347137        42.0368118286133     6.2032686842162E-10                254003.5          101312.8984375        288.114013671875       0.100848197937012     -0.0170696899294853                       0 
       -1.7223611805903                       0        1.22498500347137        42.0368118286133     6.2628747930465E-10                254003.5          101312.8984375        288.114013671875       0.100848197937012     -0.0170696899294853                       0 