VARIABLES = "x"
 "y"
 "Density"
 "Momentum_x"
 "Momentum_y"
 "Energy"
 "Pressure"
 "Temperature"
 "Mach"
 "C<sub>p</sub>"
 "Roe_Dissipation"
ZONE
DT=(DOUBLE,DOUBLE,DOUBLE,DOUBLE,DOUBLE,DOUBLE,DOUBLE,DOUBLE,DOUBLE,DOUBLE,DOUBLE)
                     -2                       0        1.22509396076202        41.6718101501465   -3.61665684067702E-08                254022.5                101325.5        288.124206542969      0.0999618619680405    0.000691198220010847                       0 
      -1.99499499499499                       0        1.22509396076202        41.6718101501465   -4.91613779601453E-08                254022.5                101325.5        288.124206542969      0.0999618619680405    0.000691269422886859                       0 
      -1.98998998998999                       0        1.22509396076202        41.6718101501465   -6.21561875135203E-08                254022.5                101325.5        288.124206542969      0.0999618619680405    0.000691340625762872                       0 
      -1.98498498498498                       0        1.22509396076202        41.6718101501465   -7.02550377468836E-08                254022.5                101325.5        288.124206542969      0.0999618619680405    0.000691401199957936                       0 
      -1.97997997997998                       0        1.22509396076202        41.6718101501465   -7.25334683745886E-08                254022.5                101325.5        288.124206542969      0.0999618619680405    0.000691449138553123                       0 
      -1.97497497497497                       0        1.22509396076202        41.6718101501465   -8.17131610309724E-08                254022.5                101325.5        288.124206542969      0.0999618619680405    0.000691498831669619                       0 
      -1.96996996996997                       0        1.22509396076202        41.6718101501465   -8.81424720436275E-08                254022.5                101325.5        288.124206542969      0.0999618619680405    0.000691549153158185                       0 
      -1.96496496496496                       0        1.22509396076202        41.6718101501465   -8.44421691159879E-08                254022.5                101325.5        288.124206542969      0.0999618619680405      0.0006916015856342                       0 
      -1.95995995995996                       0        1.22509396076202        41.6718101501465   -8.15019652616277E-08                254022.5                101325.5        288.124206542969      0.0999618619680405    0.000691653164672598                       0 
      -1.95495495495495                       0        1.22509396076202        41.6718101501465   -7.94160273387051E-08                254022.5                101325.5        288.124206542969      0.0999618619680405    0.000691703784543033                       0 
      -1.94994994994995                       0        1.22509396076202        41.6718101501465   -7.27713326533403E-08                254022.5                101325.5        288.124206542969      0.0999618619680405    0.000691754541862189                       0 
      -1.94494494494494                       0        1.22509396076202        41.6718101501465   -6.47222539850341E-08                254022.5                101325.5        288.124206542969      0.0999618619680405    0.000691805489908149                       0 
      -1.93993993993994                       0        1.22509396076202        41.6718101501465   -5.90119368630637E-08                254022.5                101325.5        288.124206542969      0.0999618619680405    0.000691858486162802                       0 
      -1.93493493493493                       0        1.22509396076202        41.6718101501465   -5.24225036039937E-08                254022.5                101325.5        288.124206542969      0.0999618619680405    0.000691911458734115                       0 
      -1.92992992992993                       0        1.22509396076202        41.6718101501465   -4.36698192867639E-08                254022.5                101325.5        288.124206542969      0.0999618619680405     0.00069196437302756                       0 
      -1.92492492492492                       0        1.22509396076202        41.6718101501465   -3.69973512923645E-08                254022.5                101325.5        288.124206542969      0.0999618619680405    0.000692017177287197                       0 
      -1.91991991991992                       0        1.22509396076202        41.6718101501465   -3.12035950212072E-08                254022.5                101325.5        288.124206542969      0.0999618619680405    0.000692069935067055                       0 
      -1.91491491491491                       0        1.22509396076202        41.6718101501465   -2.48981360758201E-08                254022.5                101325.5        288.124206542969      0.0999618619680405     0.00069212308901186                       0 
      -1.90990990990991                       0        1.22509396076202        41.6718101501465   -1.88178177970454E-08                254022.5                101325.5        288.124206542969      0.0999618619680405    0.000692176407664097                       0 
       -1.9049049049049                       0        1.22509396076202        41.6718101501465    -1.3286052202094E-08                254022.5                101325.5        288.124206542969      0.0999618619680405     0.00069222992226127                       0 
       -1.8998998998999                       0        1.22509396076202        41.6718101501465   -7.62021101945609E-09                254022.5                101325.5        288.124206542969      0.0999618619680405    0.000692283525202788                       0 
      -1.89489489489489                       0        1.22509396076202        41.6718101501465   -1.80317040025853E-09                254022.5                101325.5        288.124206542969      0.0999618619680405    0.000692337227771803                       0 
      -1.88988988988989                       0        1.22509396076202        41.6718101501465    4.10921899842597E-09                254022.5                101325.5        288.124206542969      0.0999618619680405    0.000692390993806733                       0 
      -1.88488488488488                       0        1.22509396076202        41.6718101501465    1.00515636134059E-08                254022.5                101325.5        288.124206542969      0.0999618619680405    0.000692444779446325                       0 
      -1.87987987987988                       0        1.22509396076202        41.6718101501465     1.6413033489843E-08                254022.5                101325.5        288.124206542969      0.0999618619680405    0.000692498839353921                       0 
      -1.87487487487487                       0        1.22509396076202        41.6718101501465    2.33827632258041E-08                254022.5                101325.5        288.124206542969      0.0999618619680405    0.000692553026186972                       0 
      -1.86986986986987                       0        1.22509396076202        41.6718101501465    3.06994760611203E-08                254022.5                101325.5        288.124206542969      0.0999618619680405    0.000692607285424913                       0 
      -1.86486486486486                       0        1.22509396076202        41.6718101501465    3.84454286001907E-08                254022.5                101325.5        288.124206542969      0.0999618619680405     0.00069266171247011                       0 
      -1.85985985985986                       0        1.22509396076202        41.6718101501465      4.675740720673E-08                254022.5                101325.5        288.124206542969      0.0999618619680405    0.000692716303312667                       0 
      -1.85485485485485                       0        1.22509396076202        41.6718101501465    5.59648890526254E-08                254022.5                101325.5        288.124206542969      0.0999618619680405    0.000692771096562492                       0 
      -1.84984984984985                       0        1.22509396076202        41.6718101501465    6.53479712836774E-08                254022.5                101325.5        288.124206542969      0.0999618619680405    0.000692825969579756                       0 
      -1.84484484484484                       0        1.22509396076202        41.6718101501465    7.52047687925838E-08                254022.5                101325.5        288.124206542969      0.0999618619680405    0.000692881057784781                       0 
      -1.83983983983984                       0        1.22509396076202        41.6718101501465    8.62515749453258E-08                254022.5                101325.5        288.124206542969      0.0999618619680405      0.0006929364447222                       0 
      -1.83483483483483                       0        1.22509396076202        41.6718101501465    9.73795350803074E-08                254022.5                101325.5        288.124206542969      0.0999618619680405    0.000692991852032011                       0 
      -1.82982982982983                       0        1.22509396076202        41.6718101501465    1.08894099358218E-07                254022.5                101325.5        288.124206542969      0.0999618619680405    0.000693047504349089                       0 
      -1.82482482482482                       0        1.22509396076202        41.6718101501465    1.21128421300741E-07                254022.5                101325.5        288.124206542969      0.0999618619680405    0.000693103366354409                       0 
      -1.81981981981982                       0        1.22509396076202        41.6718101501465    1.33798142999774E-07                254022.5                101325.5        288.124206542969      0.0999618619680405     0.00069315934471665                       0 
      -1.81481481481481                       0        1.22509396076202        41.6718101501465    1.46480510801125E-07                254022.5                101325.5        288.124206542969      0.0999618619680405    0.000693215507316147                       0 
      -1.80980980980981                       0        1.22509396076202        41.6718101501465    1.59432465530692E-07                254022.5                101325.5        288.124206542969      0.0999618619680405    0.000693271931832478                       0 
       -1.8048048048048                       0        1.22509396076202        41.6718101501465    1.73016344941122E-07                254022.5                101325.5        288.124206542969      0.0999618619680405    0.000693328589026577                       0 
       -1.7997997997998                       0        1.22509396076202        41.6718101501465    1.86504174769968E-07                254022.5                101325.5        288.124206542969      0.0999618619680405    0.000693385295174671                       0 
      -1.79479479479479                       0        1.22509396076202        41.6718101501465    1.99518542518041E-07                254022.5                101325.5        288.124206542969      0.0999618619680405    0.000693442242634173                       0 
      -1.78978978978979                       0        1.22509396076202        41.6718101501465    2.13219185121552E-07                254022.5                101325.5        288.124206542969      0.0999618619680405    0.000693499493423471                       0 
      -1.78478478478478                       0        1.22509396076202        41.6718101501465    2.26932664655576E-07                254022.5                101325.5        288.124206542969      0.0999618619680405    0.000693556749886623                       0 
      -1.77977977977978                       0        1.22509396076202        41.6718101501465    2.39554122861324E-07                254022.5                101325.5        288.124206542969      0.0999618619680405    0.000693614273459627                       0 
      -1.77477477477477                       0        1.22509396076202        41.6718101501465    2.52335835145567E-07                254022.5                101325.5        288.124206542969      0.0999618619680405    0.000693672095169421                       0 
      -1.76976976976977                       0        1.22509396076202        41.6718101501465    2.65308194939303E-07                254022.5                101325.5        288.124206542969      0.0999618619680405    0.000693730030292305                       0 
      -1.76476476476476                       0        1.22509396076202        41.6718101501465    2.77215275546762E-07                254022.5                101325.5        288.124206542969      0.0999618619680405    0.000693788129801723                       0 
      -1.75975975975976                       0        1.22509396076202        41.6718101501465    2.88165039861454E-07                254022.5                101325.5        288.124206542969      0.0999618619680405    0.000693846544739401                       0 
      -1.75475475475475                       0        1.22509396076202        41.6718101501465    2.99498049230563E-07                254022.5                101325.5        288.124206542969      0.0999618619680405    0.000693905177314322                       0 
      -1.74974974974975                       0        1.22509396076202        41.6718101501465    3.10408291504747E-07                254022.5                101325.5        288.124206542969      0.0999618619680405     0.00069396385266218                       0 
      -1.74474474474474                       0        1.22509396076202        41.6718101501465    3.18495550775813E-07                254022.5                101325.5        288.124206542969      0.0999618619680405    0.000694022849446278                       0 
      -1.73973973973974                       0        1.22509396076202        41.6718101501465    3.27293931519157E-07                254022.5                101325.5        288.124206542969      0.0999618619680405    0.000694082197737595                       0 
      -1.73473473473473                       0        1.22509396076202        41.6718101501465      3.360923122625E-07                254022.5                101325.5        288.124206542969      0.0999618619680405    0.000694141546028912                       0 
      -1.72972972972973                       0        1.22509396076202        41.6718101501465    3.41416834206921E-07                254022.5                101325.5        288.124206542969      0.0999618619680405    0.000694201197239116                       0 
      -1.72472472472472                       0        1.22509396076202        41.6718101501465    3.46615697308973E-07                254022.5                101325.5        288.124206542969      0.0999618619680405    0.000694261190798979                       0 
      -1.71971971971972                       0        1.22509396076202        41.6718101501465    3.52049421279796E-07                254022.5                101325.5        288.124206542969      0.0999618619680405    0.000694321257492614                       0 
      -1.71471471471471                       0        1.22509396076202        41.6718101501465    3.55026919306111E-07                254022.5                101325.5        288.124206542969      0.0999618619680405    0.000694381512733862                       0 
      -1.70970970970971                       0        1.22509396076202        41.6718101501465    3.55598501400351E-07                254022.5                101325.5        288.124206542969      0.0999618619680405    0.000694442214227999                       0 
       -1.7047047047047                       0        1.22509396076202        41.6718101501465    3.56933595799904E-07                254022.5                101325.5        288.124206542969      0.0999618619680405     0.00069450313737493                       0 
       -1.6996996996997                       0        1.22509396076202        41.6718101501465    3.57622617802777E-07                254022.5                101325.5        288.124206542969      0.0999618619680405    0.000694564099050928                       0 
      -1.69469469469469                       0        1.22509396076202        41.6718101501465    3.52671678116497E-07                254022.5                101325.5        288.124206542969      0.0999618619680405    0.000694625504910573                       0 
      -1.68968968968969                       0        1.22509396076202        41.6718101501465    3.49324225659568E-07                254022.5                101325.5        288.124206542969      0.0999618619680405    0.000694687282493508                       0 
      -1.68468468468468                       0        1.22509396076202        41.6718101501465    3.45976773202639E-07                254022.5                101325.5        288.124206542969      0.0999618619680405    0.000694749060076444                       0 
      -1.67967967967968                       0        1.22509396076202        41.6718101501465    3.36898607997532E-07                254022.5                101325.5        288.124206542969      0.0999618619680405    0.000694811177909441                       0 
      -1.67467467467467                       0        1.22509396076202        41.6718101501465    3.28187727085056E-07                254022.5                101325.5        288.124206542969      0.0999618619680405    0.000694873787085675                       0 
      -1.66966966966967                       0        1.22509396076202        41.6718101501465     3.1973981669068E-07                254022.5                101325.5        288.124206542969      0.0999618619680405    0.000694936440869701                       0 
      -1.66466466466466                       0        1.22509396076202        41.6718101501465    3.07882027189525E-07                254022.5                101325.5        288.124206542969      0.0999618619680405    0.000694999310596343                       0 
      -1.65965965965966                       0        1.22509396076202        41.6718101501465    2.92931122229242E-07                254022.5                101325.5        288.124206542969      0.0999618619680405    0.000695062780186943                       0 
      -1.65465465465465                       0        1.22509396076202        41.6718101501465    2.79162445108537E-07                254022.5                101325.5        288.124206542969      0.0999618619680405    0.000695126437445275                       0 
      -1.64964964964965                       0        1.22509396076202        41.6718101501465    2.64828034315834E-07                254022.5                101325.5        288.124206542969      0.0999618619680405    0.000695190129936556                       0 
      -1.64464464464464                       0        1.22509396076202        41.6718101501465    2.43458539184552E-07                254022.5                101325.5        288.124206542969      0.0999618619680405    0.000695254506640436                       0 
      -1.63963963963964                       0        1.22509396076202        41.6718101501465    2.24404758496314E-07                254022.5                101325.5        288.124206542969      0.0999618619680405    0.000695319258211757                       0 
      -1.63463463463463                       0        1.22509396076202        41.6718101501465    2.05350977808076E-07                254022.5                101325.5        288.124206542969      0.0999618619680405    0.000695384009783078                       0 
      -1.62962962962963                       0        1.22509396076202        41.6718101501465    1.80246096344607E-07                254022.5                101325.5        288.124206542969      0.0999618619680405       0.000695449165144                       0 
      -1.62462462462462                       0        1.22509396076202        41.6718101501465    1.56264521698774E-07                254022.5                101325.5        288.124206542969      0.0999618619680405    0.000695515005322074                       0 
      -1.61961961961962                       0        1.22509396076202        41.6718101501465     1.3228294705294E-07                254022.5                101325.5        288.124206542969      0.0999618619680405    0.000695580845500148                       0 
      -1.61461461461461                       0        1.22509396076202        41.6718101501465    1.05308172112292E-07                254022.5                101325.5        288.124206542969      0.0999618619680405    0.000695646902146925                       0 
      -1.60960960960961                       0        1.22509396076202        41.6718101501465    7.62041025489277E-08                254022.5                101325.5        288.124206542969      0.0999618619680405    0.000695713773633392                       0 
       -1.6046046046046                       0        1.22509396076202        41.6718101501465    4.80176774057303E-08                254022.5                101325.5        288.124206542969      0.0999618619680405    0.000695780782513236                       0 
       -1.5995995995996                       0        1.22509396076202        41.6718101501465    1.97019225287629E-08                254022.5                101325.5        288.124206542969      0.0999618619680405    0.000695847802435432                       0 
      -1.59459459459459                       0        1.22509396076202        41.6718101501465   -1.37024633479375E-08                254022.5                101325.5        288.124206542969      0.0999618619680405    0.000695915726778233                       0 
      -1.58958958958959                       0        1.22509396076202        41.6718101501465   -4.50818504830227E-08                254022.5                101325.5        288.124206542969      0.0999618619680405    0.000695983968505241                       0 
      -1.58458458458458                       0        1.22509396076202        41.6718101501465   -7.64612376181107E-08                254022.5                101325.5        288.124206542969      0.0999618619680405    0.000696052210232249                       0 
      -1.57957957957958                       0        1.22509396076202        41.6718101501465   -1.10945036439486E-07                254022.5                101325.5        288.124206542969      0.0999618619680405    0.000696120987305088                       0 
      -1.57457457457457                       0        1.22509396076202        41.6718101501465   -1.44378731068613E-07                254022.5                101325.5        288.124206542969      0.0999618619680405    0.000696190505157864                       0 
      -1.56956956956957                       0        1.22509396076202        41.6718101501465   -1.77812425697744E-07                254022.5                101325.5        288.124206542969      0.0999618619680405    0.000696260023010639                       0 
      -1.56456456456456                       0        1.22509396076202        41.6718101501465   -2.12608455588817E-07                254022.5                101325.5        288.124206542969      0.0999618619680405    0.000696329709034687                       0 
      -1.55955955955956                       0        1.22509396076202        41.6718101501465   -2.47099078852214E-07                254022.5                101325.5        288.124206542969      0.0999618619680405    0.000696400436918642                       0 
      -1.55455455455455                       0        1.22509396076202        41.6718101501465   -2.81364011935518E-07                254022.5                101325.5        288.124206542969      0.0999618619680405    0.000696471209321691                       0 
      -1.54954954954955                       0        1.22509396076202        41.6718101501465    -3.1562894501882E-07                254022.5                101325.5        288.124206542969      0.0999618619680405    0.000696541981724739                       0 
      -1.54454454454454                       0        1.22509396076202        41.6718101501465   -3.50463632838901E-07                254022.5                101325.5        288.124206542969      0.0999618619680405    0.000696613765341186                       0 
      -1.53953953953954                       0        1.22509396076202        41.6718101501465    -3.8440727128704E-07                254022.5                101325.5        288.124206542969      0.0999618619680405    0.000696685823969986                       0 
      -1.53453453453453                       0        1.22509396076202        41.6718101501465   -4.18350909735179E-07                254022.5                101325.5        288.124206542969      0.0999618619680405    0.000696757882598787                       0 
      -1.52952952952953                       0        1.22509396076202        41.6718101501465    -4.5197981140009E-07                254022.5                101325.5        288.124206542969      0.0999618619680405    0.000696830547854722                       0 
      -1.52452452452452                       0        1.22509396076202        41.6718101501465   -4.84605498846183E-07                254022.5                101325.5        288.124206542969      0.0999618619680405    0.000696903892721476                       0 
      -1.51951951951952                       0        1.22509396076202        41.6718101501465   -5.17231186292278E-07                254022.5                101325.5        288.124206542969      0.0999618619680405     0.00069697723758823                       0 
      -1.51451451451451                       0        1.22509396076202        41.6718101501465   -5.49500922346749E-07                254022.5                101325.5        288.124206542969      0.0999618619680405    0.000697050778245908                       0 
      -1.50950950950951                       0        1.22509396076202        41.6718101501465   -5.80038180119957E-07                254022.5                101325.5        288.124206542969      0.0999618619680405    0.000697125355183074                       0 
       -1.5045045045045                       0        1.22509396076202        41.6718101501465   -6.10575437893165E-07                254022.5                101325.5        288.124206542969      0.0999618619680405     0.00069719993212024                       0 
       -1.4994994994995                       0        1.22509396076202        41.6718101501465   -6.41112695666373E-07                254022.5                101325.5        288.124206542969      0.0999618619680405    0.000697274509057406                       0 
      -1.49449449449449                       0        1.22509396076202        41.6718101501465   -6.68968960119085E-07                254022.5                101325.5        288.124206542969      0.0999618619680405    0.000697350201242424                       0 
      -1.48948948948949                       0        1.22509396076202        41.6718101501465   -6.96538876935907E-07                254022.5                101325.5        288.124206542969      0.0999618619680405    0.000697426102247355                       0 
      -1.48448448448448                       0        1.22509396076202        41.6718101501465   -7.24108793752728E-07                254022.5                101325.5        288.124206542969      0.0999618619680405    0.000697502003252286                       0 
      -1.47947947947948                       0        1.22509396076202        41.6718101501465   -7.49336499667374E-07                254022.5                101325.5        288.124206542969      0.0999618619680405    0.000697578556896205                       0 
      -1.47447447447447                       0        1.22509396076202        41.6718101501465    -7.7275182770227E-07                254022.5                101325.5        288.124206542969      0.0999618619680405    0.000697655704293936                       0 
      -1.46946946946947                       0        1.22509396076202        41.6718101501465   -7.96126723226407E-07                254022.5                101325.5        288.124206542969      0.0999618619680405    0.000697732850760812                       0 
      -1.46446446446446                       0        1.22509396076202        41.6718101501465   -8.18247936228584E-07                254022.5                101325.5        288.124206542969      0.0999618619680405    0.000697810273855065                       0 
      -1.45945945945946                       0        1.22509396076202        41.6718101501465   -8.36122336537064E-07                254022.5                101325.5        288.124206542969      0.0999618619680405    0.000697888782416177                       0 
      -1.45445445445445                       0        1.22509396076202        41.6718101501465   -8.53996736845544E-07                254022.5                101325.5        288.124206542969      0.0999618619680405    0.000697967290977288                       0 
      -1.44944944944945                       0        1.22509396076202        41.6718101501465   -8.71871137154024E-07                254022.5                101325.5        288.124206542969      0.0999618619680405      0.0006980457995384                       0 
      -1.44444444444444                       0        1.22509396076202        41.6718101501465   -8.84978955380861E-07                254022.5                101325.5        288.124206542969      0.0999618619680405    0.000698125432171878                       0 