VARIABLES = "x"
 "y"
 "Density"
 "Momentum_x"
 "Momentum_y"
 "Energy"
 "Pressure"
 "Temperature"
 "Mach"
 "C<sub>p</sub>"
 "Roe_Dissipation"
ZONE
DT=(DOUBLE,DOUBLE,DOUBLE,DOUBLE,DOUBLE,DOUBLE,DOUBLE,DOUBLE,DOUBLE,DOUBLE,DOUBLE)
                     -2                       0        1.22509801387787        41.6589317321777    1.18269394278059E-10            254023.09375          101325.8984375        288.124603271484       0.099930576980114      0.0013152010506019                       0 
      -1.99499499499499                       0        1.22509801387787        41.6589317321777    8.48820938252042E-11            254023.09375          101325.8984375        288.124603271484       0.099930576980114     0.00131519350474854                       0 
      -1.98998998998999                       0        1.22509801387787        41.6589317321777    5.14947933723494E-11            254023.09375          101325.8984375        288.124603271484       0.099930576980114     0.00131518595889518                       0 
      -1.98498498498498                       0        1.22509801387787        41.6589317321777    1.81074929194949E-11            254023.09375          101325.8984375        288.124603271484       0.099930576980114     0.00131517841304182                       0 
      -1.97997997997998                       0        1.22509801387787        41.6589317321777     -1.527980753336E-11            254023.09375          101325.8984375        288.124603271484       0.099930576980114     0.00131517086718846                       0 
      -1.97497497497497                       0        1.22509801387787        41.6589317321777   -4.86671079862149E-11            254023.09375          101325.8984375        288.124603271484       0.099930576980114     0.00131516332133509                       0 
      -1.96996996996997                       0        1.22509801387787        41.6589317321777    -8.2054408439069E-11            254023.09375          101325.8984375        288.124603271484       0.099930576980114     0.00131515577548173                       0 
      -1.96496496496496                       0        1.22509801387787        41.6589317321777   -1.15441708891923E-10            254023.09375          101325.8984375        288.124603271484       0.099930576980114     0.00131514822962837                       0 
      -1.95995995995996                       0        1.22509801387787        41.6589317321777   -1.48829009344779E-10            254023.09375          101325.8984375        288.124603271484       0.099930576980114     0.00131514068377501                       0 
      -1.95495495495495                       0        1.22509801387787        41.6589317321777   -1.82216309797634E-10            254023.09375          101325.8984375        288.124603271484       0.099930576980114     0.00131513313792165                       0 
      -1.94994994994995                       0        1.22509801387787        41.6589317321777   -2.15603610250489E-10            254023.09375          101325.8984375        288.124603271484       0.099930576980114     0.00131512559206829                       0 
      -1.94494494494494                       0        1.22509801387787        41.6589317321777   -2.48990910703343E-10            254023.09375          101325.8984375        288.124603271484       0.099930576980114     0.00131511804621493                       0 
      -1.93993993993994                       0        1.22509801387787        41.6589317321777   -2.82378211156197E-10            254023.09375          101325.8984375        288.124603271484       0.099930576980114     0.00131511050036157                       0 
      -1.93493493493493                       0        1.22509801387787        41.6589317321777   -3.15765511609051E-10            254023.09375          101325.8984375        288.124603271484       0.099930576980114     0.00131510295450821                       0 
      -1.92992992992993                       0        1.22509801387787        41.6589317321777   -3.49152812061906E-10            254023.09375          101325.8984375        288.124603271484       0.099930576980114     0.00131509540865484                       0 
      -1.92492492492492                       0        1.22509801387787        41.6589317321777   -3.82540112514763E-10            254023.09375          101325.8984375        288.124603271484       0.099930576980114     0.00131508786280148                       0 
      -1.91991991991992                       0        1.22509801387787        41.6589317321777   -4.15927412967616E-10            254023.09375          101325.8984375        288.124603271484       0.099930576980114     0.00131508031694812                       0 
      -1.91491491491491                       0        1.22509801387787        41.6589317321777   -4.38781756749773E-10            254023.09375          101325.8984375        288.124603271484       0.099930576980114     0.00131507318409616                       0 
      -1.90990990990991                       0        1.22509801387787        41.6589317321777   -4.09605527616139E-10            254023.09375          101325.8984375        288.124603271484       0.099930576980114     0.00131506809138356                       0 
       -1.9049049049049                       0        1.22509801387787        41.6589317321777   -3.80429298482509E-10            254023.09375          101325.8984375        288.124603271484       0.099930576980114     0.00131506299867097                       0 
       -1.8998998998999                       0        1.22509801387787        41.6589317321777   -3.51253069348877E-10            254023.09375          101325.8984375        288.124603271484       0.099930576980114     0.00131505790595837                       0 
      -1.89489489489489                       0        1.22509801387787        41.6589317321777   -3.22076840215245E-10            254023.09375          101325.8984375        288.124603271484       0.099930576980114     0.00131505281324577                       0 
      -1.88988988988989                       0        1.22509801387787        41.6589317321777   -2.92900611081612E-10            254023.09375          101325.8984375        288.124603271484       0.099930576980114     0.00131504772053317                       0 
      -1.88488488488488                       0        1.22509801387787        41.6589317321777   -2.63724381947981E-10            254023.09375          101325.8984375        288.124603271484       0.099930576980114     0.00131504262782058                       0 
      -1.87987987987988                       0        1.22509801387787        41.6589317321777   -2.34548152814349E-10            254023.09375          101325.8984375        288.124603271484       0.099930576980114     0.00131503753510798                       0 
      -1.87487487487487                       0        1.22509801387787        41.6589317321777   -2.05371923680715E-10            254023.09375          101325.8984375        288.124603271484       0.099930576980114     0.00131503244239538                       0 
      -1.86986986986987                       0        1.22509801387787        41.6589317321777   -1.76195694547085E-10            254023.09375          101325.8984375        288.124603271484       0.099930576980114     0.00131502734968278                       0 
      -1.86486486486486                       0        1.22509801387787        41.6589317321777   -1.47019465413452E-10            254023.09375          101325.8984375        288.124603271484       0.099930576980114     0.00131502225697019                       0 
      -1.85985985985986                       0        1.22509801387787        41.6589317321777   -1.17843236279821E-10            254023.09375          101325.8984375        288.124603271484       0.099930576980114     0.00131501716425759                       0 
      -1.85485485485485                       0        1.22509801387787        41.6589317321777   -8.86670071461888E-11            254023.09375          101325.8984375        288.124603271484       0.099930576980114     0.00131501207154499                       0 
      -1.84984984984985                       0        1.22509801387787        41.6589317321777   -5.94907780125566E-11            254023.09375          101325.8984375        288.124603271484       0.099930576980114     0.00131500697883239                       0 
      -1.84484484484484                       0        1.22509801387787        41.6589317321777   -3.03145488789249E-11            254023.09375          101325.8984375        288.124603271484       0.099930576980114     0.00131500188611979                       0 
      -1.83983983983984                       0        1.22509801387787        41.6589317321777   -1.13831974529271E-12            254023.09375          101325.8984375        288.124603271484       0.099930576980114      0.0013149967934072                       0 
      -1.83483483483483                       0        1.22509801387787        41.6589317321777    2.80379093883401E-11            254023.09375          101325.8984375        288.124603271484       0.099930576980114      0.0013149917006946                       0 
      -1.82982982982983                       0        1.22509801387787        41.6589317321777    5.72141385219698E-11            254023.09375          101325.8984375        288.124603271484       0.099930576980114       0.001314986607982                       0 
      -1.82482482482482                       0        1.22509801387787        41.6589317321777    8.63903676556028E-11            254023.09375          101325.8984375        288.124603271484       0.099930576980114      0.0013149815152694                       0 
      -1.81981981981982                       0        1.22509801387787        41.6589317321777    3.79577538536542E-10            254023.09375          101325.8984375        288.124603271484       0.099930576980114     0.00131497523326202                       0 
      -1.81481481481481                       0        1.22509801387787        41.6589317321777     3.5464239136045E-10            254023.09375          101325.8984375        288.124603271484       0.099930576980114      0.0013149681949865                       0 
      -1.80980980980981                       0        1.22509801387787        41.6589317321777    3.29707244184358E-10            254023.09375          101325.8984375        288.124603271484       0.099930576980114     0.00131496115671099                       0 
       -1.8048048048048                       0        1.22509801387787        41.6589317321777    3.04772097008265E-10            254023.09375          101325.8984375        288.124603271484       0.099930576980114     0.00131495411843547                       0 
       -1.7997997997998                       0        1.22509801387787        41.6589317321777    2.79836949832173E-10            254023.09375          101325.8984375        288.124603271484       0.099930576980114     0.00131494708015995                       0 
      -1.79479479479479                       0        1.22509801387787        41.6589317321777    2.54901802656081E-10            254023.09375          101325.8984375        288.124603271484       0.099930576980114     0.00131494004188444                       0 
      -1.78978978978979                       0        1.22509801387787        41.6589317321777    2.29966655479988E-10            254023.09375          101325.8984375        288.124603271484       0.099930576980114     0.00131493300360892                       0 
      -1.78478478478478                       0        1.22509801387787        41.6589317321777    2.05031508303896E-10            254023.09375          101325.8984375        288.124603271484       0.099930576980114     0.00131492596533341                       0 
      -1.77977977977978                       0        1.22509801387787        41.6589317321777    1.80096361127804E-10            254023.09375          101325.8984375        288.124603271484       0.099930576980114     0.00131491892705789                       0 
      -1.77477477477477                       0        1.22509801387787        41.6589317321777    1.55161213951711E-10            254023.09375          101325.8984375        288.124603271484       0.099930576980114     0.00131491188878237                       0 
      -1.76976976976977                       0        1.22509801387787        41.6589317321777    1.30226066775619E-10            254023.09375          101325.8984375        288.124603271484       0.099930576980114     0.00131490485050686                       0 
      -1.76476476476476                       0        1.22509801387787        41.6589317321777    1.05290919599527E-10            254023.09375          101325.8984375        288.124603271484       0.099930576980114     0.00131489781223134                       0 
      -1.75975975975976                       0        1.22509801387787        41.6589317321777    8.03557724234343E-11            254023.09375          101325.8984375        288.124603271484       0.099930576980114     0.00131489077395582                       0 
      -1.75475475475475                       0        1.22509801387787        41.6589317321777    5.54206252473421E-11            254023.09375          101325.8984375        288.124603271484       0.099930576980114     0.00131488373568031                       0 
      -1.74974974974975                       0        1.22509801387787        41.6589317321777    3.04854780712498E-11            254023.09375          101325.8984375        288.124603271484       0.099930576980114     0.00131487669740479                       0 
      -1.74474474474474                       0        1.22509801387787        41.6589317321777    5.55033089515746E-12            254023.09375          101325.8984375        288.124603271484       0.099930576980114     0.00131486965912928                       0 
      -1.73973973973974                       0        1.22509801387787        41.6589317321777    7.37611971360877E-12            254023.09375          101325.8984375        288.124603271484       0.099930576980114     0.00131486288125585                       0 
      -1.73473473473473                       0        1.22509801387787        41.6589317321777    1.38842061318162E-10            254023.09375          101325.8984375        288.124603271484       0.099930576980114     0.00131485734686064                       0 
      -1.72972972972973                       0        1.22509801387787        41.6589317321777    3.81669839365938E-10            254023.09375          101325.8984375        288.124603271484       0.099930576980114     0.00131485185378024                       0 
      -1.72472472472472                       0        1.22509801387787        41.6589317321777    6.24497617413714E-10            254023.09375          101325.8984375        288.124603271484       0.099930576980114     0.00131484636069983                       0 
      -1.71971971971972                       0        1.22509801387787        41.6589317321777     8.6732539546149E-10            254023.09375          101325.8984375        288.124603271484       0.099930576980114     0.00131484086761942                       0 
      -1.71471471471471                       0        1.22509801387787        41.6589317321777    1.11015317350927E-09            254023.09375          101325.8984375        288.124603271484       0.099930576980114     0.00131483537453901                       0 
      -1.70970970970971                       0        1.22509801387787        41.6589317321777    1.35298095155704E-09            254023.09375          101325.8984375        288.124603271484       0.099930576980114      0.0013148298814586                       0 
       -1.7047047047047                       0        1.22509801387787        41.6589317321777    1.59580872960482E-09            254023.09375          101325.8984375        288.124603271484       0.099930576980114      0.0013148243883782                       0 
       -1.6996996996997                       0        1.22509801387787        41.6589317321777    1.83863650765259E-09            254023.09375          101325.8984375        288.124603271484       0.099930576980114     0.00131481889529779                       0 
      -1.69469469469469                       0        1.22509801387787        41.6589317321777    2.08146428570037E-09            254023.09375          101325.8984375        288.124603271484       0.099930576980114     0.00131481340221738                       0 
      -1.68968968968969                       0        1.22509801387787        41.6589317321777    2.32429206374814E-09            254023.09375          101325.8984375        288.124603271484       0.099930576980114     0.00131480790913697                       0 
      -1.68468468468468                       0        1.22509801387787        41.6589317321777    2.56711984179592E-09            254023.09375          101325.8984375        288.124603271484       0.099930576980114     0.00131480241605656                       0 
      -1.67967967967968                       0        1.22509801387787        41.6589317321777     2.8099476198437E-09            254023.09375          101325.8984375        288.124603271484       0.099930576980114     0.00131479692297616                       0 
      -1.67467467467467                       0        1.22509801387787        41.6589317321777    3.05277539789147E-09            254023.09375          101325.8984375        288.124603271484       0.099930576980114     0.00131479142989575                       0 
      -1.66966966966967                       0        1.22509801387787        41.6589317321777    3.29560317593925E-09            254023.09375          101325.8984375        288.124603271484       0.099930576980114     0.00131478593681534                       0 
      -1.66466466466466                       0        1.22509801387787        41.6589317321777    3.53843095398702E-09            254023.09375          101325.8984375        288.124603271484       0.099930576980114     0.00131478044373493                       0 
      -1.65965965965966                       0        1.22509801387787        41.6589317321777    3.78125873203481E-09            254023.09375          101325.8984375        288.124603271484       0.099930576980114     0.00131477495065452                       0 
      -1.65465465465465                       0        1.22509801387787        41.6589317321777    4.02408651008258E-09            254023.09375          101325.8984375        288.124603271484       0.099930576980114     0.00131476945757412                       0 
      -1.64964964964965                       0        1.22509801387787        41.6589317321777    4.26691428813035E-09            254023.09375          101325.8984375        288.124603271484       0.099930576980114     0.00131476396449371                       0 
      -1.64464464464464                       0        1.22509801387787        41.6589317321777    4.50974206617813E-09            254023.09375          101325.8984375        288.124603271484       0.099930576980114      0.0013147584714133                       0 
      -1.63963963963964                       0        1.22509801387787        41.6589317321777    4.82143240758129E-09            254023.09375          101325.8984375        288.124603271484       0.099930576980114     0.00131475254207684                       0 
      -1.63463463463463                       0        1.22509801387787        41.6589317321777    4.61500530649388E-09            254023.09375          101325.8984375        288.124603271484       0.099930576980114     0.00131474666930482                       0 
      -1.62962962962963                       0        1.22509801387787        41.6589317321777    3.97365335224234E-09            254023.09375          101325.8984375        288.124603271484       0.099930576980114     0.00131474092622584                       0 
      -1.62462462462462                       0        1.22509801387787        41.6589317321777    3.33230139799076E-09            254023.09375          101325.8984375        288.124603271484       0.099930576980114     0.00131473518314685                       0 
      -1.61961961961962                       0        1.22509801387787        41.6589317321777    2.69094944373916E-09            254023.09375          101325.8984375        288.124603271484       0.099930576980114     0.00131472944006787                       0 
      -1.61461461461461                       0        1.22509801387787        41.6589317321777    2.04959748948761E-09            254023.09375          101325.8984375        288.124603271484       0.099930576980114     0.00131472369698888                       0 
      -1.60960960960961                       0        1.22509801387787        41.6589317321777    1.40824553523601E-09            254023.09375          101325.8984375        288.124603271484       0.099930576980114      0.0013147179539099                       0 
       -1.6046046046046                       0        1.22509801387787        41.6589317321777    7.66893580984465E-10            254023.09375          101325.8984375        288.124603271484       0.099930576980114     0.00131471221083091                       0 
       -1.5995995995996                       0        1.22509801387787        41.6589317321777    1.25541626732891E-10            254023.09375          101325.8984375        288.124603271484       0.099930576980114     0.00131470646775193                       0 
      -1.59459459459459                       0        1.22509801387787        41.6589317321777   -5.15810327518712E-10            254023.09375          101325.8984375        288.124603271484       0.099930576980114     0.00131470072467294                       0 
      -1.58958958958959                       0        1.22509801387787        41.6589317321777   -1.15716228177026E-09            254023.09375          101325.8984375        288.124603271484       0.099930576980114     0.00131469498159396                       0 
      -1.58458458458458                       0        1.22509801387787        41.6589317321777   -1.79851423602186E-09            254023.09375          101325.8984375        288.124603271484       0.099930576980114     0.00131468923851497                       0 
      -1.57957957957958                       0        1.22509801387787        41.6589317321777   -2.43986619027343E-09            254023.09375          101325.8984375        288.124603271484       0.099930576980114     0.00131468349543599                       0 
      -1.57457457457457                       0        1.22509801387787        41.6589317321777   -3.08121814452498E-09            254023.09375          101325.8984375        288.124603271484       0.099930576980114       0.001314677752357                       0 
      -1.56956956956957                       0        1.22509801387787        41.6589317321777   -3.72257009877658E-09            254023.09375          101325.8984375        288.124603271484       0.099930576980114     0.00131467200927802                       0 
      -1.56456456456456                       0        1.22509801387787        41.6589317321777   -4.36392205302813E-09            254023.09375          101325.8984375        288.124603271484       0.099930576980114     0.00131466626619903                       0 
      -1.55955955955956                       0        1.22509801387787        41.6589317321777   -5.00527400727973E-09            254023.09375          101325.8984375        288.124603271484       0.099930576980114     0.00131466052312005                       0 
      -1.55455455455455                       0        1.22509801387787        41.6589317321777    -5.6466259615313E-09            254023.09375          101325.8984375        288.124603271484       0.099930576980114     0.00131465478004106                       0 
      -1.54954954954955                       0        1.22509801387787        41.6589317321777   -6.21440795420125E-09            254023.09375          101325.8984375        288.124603271484       0.099930576980114     0.00131464912536764                       0 
      -1.54454454454454                       0        1.22509801387787        41.6589317321777   -6.27263189381011E-09            254023.09375          101325.8984375        288.124603271484       0.099930576980114     0.00131464406687237                       0 
      -1.53953953953954                       0        1.22509801387787        41.6589317321777   -5.38643624115683E-09            254023.09375          101325.8984375        288.124603271484       0.099930576980114     0.00131463873049458                       0 
      -1.53453453453453                       0        1.22509801387787        41.6589317321777   -4.50024058850356E-09            254023.09375          101325.8984375        288.124603271484       0.099930576980114     0.00131463339411679                       0 
      -1.52952952952953                       0        1.22509801387787        41.6589317321777   -3.61404493585029E-09            254023.09375          101325.8984375        288.124603271484       0.099930576980114       0.001314628057739                       0 
      -1.52452452452452                       0        1.22509801387787        41.6589317321777   -2.72784928319706E-09            254023.09375          101325.8984375        288.124603271484       0.099930576980114     0.00131462272136121                       0 
      -1.51951951951952                       0        1.22509801387787        41.6589317321777   -1.84165363054375E-09            254023.09375          101325.8984375        288.124603271484       0.099930576980114     0.00131461738498341                       0 
      -1.51451451451451                       0        1.22509801387787        41.6589317321777   -9.55457977890474E-10            254023.09375          101325.8984375        288.124603271484       0.099930576980114     0.00131461204860562                       0 
      -1.50950950950951                       0        1.22509801387787        41.6589317321777   -6.92623252372025E-11            254023.09375          101325.8984375        288.124603271484       0.099930576980114     0.00131460671222783                       0 
       -1.5045045045045                       0        1.22509801387787        41.6589317321777     8.1693332741607E-10            254023.09375          101325.8984375        288.124603271484       0.099930576980114     0.00131460137585004                       0 
       -1.4994994994995                       0        1.22509801387787        41.6589317321777    1.70312898006934E-09            254023.09375          101325.8984375        288.124603271484       0.099930576980114     0.00131459603947225                       0 
      -1.49449449449449                       0        1.22509801387787        41.6589317321777    2.58932463272261E-09            254023.09375          101325.8984375        288.124603271484       0.099930576980114     0.00131459070309446                       0 
      -1.48948948948949                       0        1.22509801387787        41.6589317321777    3.47552028537589E-09            254023.09375          101325.8984375        288.124603271484       0.099930576980114     0.00131458536671667                       0 
      -1.48448448448448                       0        1.22509801387787        41.6589317321777    4.36171593802912E-09            254023.09375          101325.8984375        288.124603271484       0.099930576980114     0.00131458003033887                       0 
      -1.47947947947948                       0        1.22509801387787        41.6589317321777    5.24791159068243E-09            254023.09375          101325.8984375        288.124603271484       0.099930576980114     0.00131457469396108                       0 
      -1.47447447447447                       0        1.22509801387787        41.6589317321777     6.1341072433357E-09            254023.09375          101325.8984375        288.124603271484       0.099930576980114     0.00131456935758329                       0 
      -1.46946946946947                       0        1.22509801387787        41.6589317321777    7.02030289598898E-09            254023.09375          101325.8984375        288.124603271484       0.099930576980114      0.0013145640212055                       0 
      -1.46446446446446                       0        1.22509801387787        41.6589317321777    7.90649854864225E-09            254023.09375          101325.8984375        288.124603271484       0.099930576980114     0.00131455868482771                       0 
      -1.45945945945946                       0        1.22509801387787        41.6589317321777    8.79269420129552E-09            254023.09375          101325.8984375        288.124603271484       0.099930576980114     0.00131455334844992                       0 
      -1.45445445445445                       0        1.22509801387787        41.6589317321777    9.07011753247782E-09            254023.09375          101325.8984375        288.124603271484       0.099930576980114     0.00131454741779629                       0 
      -1.44944944944945                       0        1.22509801387787        41.6589317321777    7.96844350672115E-09            254023.09375          101325.8984375        288.124603271484       0.099930576980114     0.00131454178931844                       0 
      -1.44444444444444                       0        1.22509801387787        41.6589317321777    6.46847560294264E-09            254023.09375          101325.8984375        288.124603271484       0.099930576980114     0.00131453638042482                       0 