VARIABLES = "x"
 "y"
 "Density"
 "Momentum_x"
 "Momentum_y"
 "Energy"
 "Pressure"
 "Temperature"
 "Mach"
 "C<sub>p</sub>"
 "Roe_Dissipation"
ZONE
DT=(DOUBLE,DOUBLE,DOUBLE,DOUBLE,DOUBLE,DOUBLE,DOUBLE,DOUBLE,DOUBLE,DOUBLE,DOUBLE)
                     -2                       0        1.22510302066803        41.6411018371582   -3.94203315823294E-11            254024.09375                101326.5                 288.125      0.0998873114585876     0.00217819097451866                       0 
      -1.99499499499499                       0        1.22510302066803        41.6411018371582   -3.45889820416688E-11            254024.09375                101326.5                 288.125      0.0998873114585876      0.0021781946453068                       0 
      -1.98998998998999                       0        1.22510302066803        41.6411018371582   -2.97576325010082E-11            254024.09375                101326.5                 288.125      0.0998873114585876     0.00217819831609495                       0 
      -1.98498498498498                       0        1.22510302066803        41.6411018371582   -2.49262829603476E-11            254024.09375                101326.5                 288.125      0.0998873114585876     0.00217820198688309                       0 
      -1.97997997997998                       0        1.22510302066803        41.6411018371582    -2.0094933419687E-11            254024.09375                101326.5                 288.125      0.0998873114585876     0.00217820565767124                       0 
      -1.97497497497497                       0        1.22510302066803        41.6411018371582   -1.52635838790264E-11            254024.09375                101326.5                 288.125      0.0998873114585876     0.00217820932845938                       0 
      -1.96996996996997                       0        1.22510302066803        41.6411018371582   -1.04322343383658E-11            254024.09375                101326.5                 288.125      0.0998873114585876     0.00217821299924753                       0 
      -1.96496496496496                       0        1.22510302066803        41.6411018371582   -5.60088479770525E-12            254024.09375                101326.5                 288.125      0.0998873114585876     0.00217821667003567                       0 
      -1.95995995995996                       0        1.22510302066803        41.6411018371582   -7.69535257044654E-13            254024.09375                101326.5                 288.125      0.0998873114585876     0.00217822034082382                       0 
      -1.95495495495495                       0        1.22510302066803        41.6411018371582    4.06181428361593E-12            254024.09375                101326.5                 288.125      0.0998873114585876     0.00217822401161196                       0 
      -1.94994994994995                       0        1.22510302066803        41.6411018371582    8.89316382427652E-12            254024.09375                101326.5                 288.125      0.0998873114585876     0.00217822768240011                       0 
      -1.94494494494494                       0        1.22510302066803        41.6411018371582    1.37245133649371E-11            254024.09375                101326.5                 288.125      0.0998873114585876     0.00217823135318825                       0 
      -1.93993993993994                       0        1.22510302066803        41.6411018371582    1.85558629055977E-11            254024.09375                101326.5                 288.125      0.0998873114585876      0.0021782350239764                       0 
      -1.93493493493493                       0        1.22510302066803        41.6411018371582    2.33872124462583E-11            254024.09375                101326.5                 288.125      0.0998873114585876     0.00217823869476454                       0 
      -1.92992992992993                       0        1.22510302066803        41.6411018371582    2.82185619869189E-11            254024.09375                101326.5                 288.125      0.0998873114585876     0.00217824236555269                       0 
      -1.92492492492492                       0        1.22510302066803        41.6411018371582    3.30499115275795E-11            254024.09375                101326.5                 288.125      0.0998873114585876     0.00217824603634083                       0 
      -1.91991991991992                       0        1.22510302066803        41.6411018371582    3.78812610682401E-11            254024.09375                101326.5                 288.125      0.0998873114585876     0.00217824970712898                       0 
      -1.91491491491491                       0        1.22510302066803        41.6411018371582    4.27126106089007E-11            254024.09375                101326.5                 288.125      0.0998873114585876     0.00217825337791713                       0 
      -1.90990990990991                       0        1.22510302066803        41.6411018371582    4.75439601495612E-11            254024.09375                101326.5                 288.125      0.0998873114585876     0.00217825704870527                       0 
       -1.9049049049049                       0        1.22510302066803        41.6411018371582    5.23753096902218E-11            254024.09375                101326.5                 288.125      0.0998873114585876     0.00217826071949342                       0 
       -1.8998998998999                       0        1.22510302066803        41.6411018371582    5.72066592308824E-11            254024.09375                101326.5                 288.125      0.0998873114585876     0.00217826439028156                       0 
      -1.89489489489489                       0        1.22510302066803        41.6411018371582     6.2038008771543E-11            254024.09375                101326.5                 288.125      0.0998873114585876     0.00217826806106971                       0 
      -1.88988988988989                       0        1.22510302066803        41.6411018371582    6.68693583122036E-11            254024.09375                101326.5                 288.125      0.0998873114585876     0.00217827173185785                       0 
      -1.88488488488488                       0        1.22510302066803        41.6411018371582    7.17007078528642E-11            254024.09375                101326.5                 288.125      0.0998873114585876       0.002178275402646                       0 
      -1.87987987987988                       0        1.22510302066803        41.6411018371582    7.65320573935248E-11            254024.09375                101326.5                 288.125      0.0998873114585876     0.00217827907343414                       0 
      -1.87487487487487                       0        1.22510302066803        41.6411018371582    8.13634069341854E-11            254024.09375                101326.5                 288.125      0.0998873114585876     0.00217828274422229                       0 
      -1.86986986986987                       0        1.22510302066803        41.6411018371582     8.6194756474846E-11            254024.09375                101326.5                 288.125      0.0998873114585876     0.00217828641501043                       0 
      -1.86486486486486                       0        1.22510302066803        41.6411018371582    9.10261060155066E-11            254024.09375                101326.5                 288.125      0.0998873114585876     0.00217829008579858                       0 
      -1.85985985985986                       0        1.22510302066803        41.6411018371582    9.58574555561672E-11            254024.09375                101326.5                 288.125      0.0998873114585876     0.00217829375658672                       0 
      -1.85485485485485                       0        1.22510302066803        41.6411018371582    1.00688805096828E-10            254024.09375                101326.5                 288.125      0.0998873114585876     0.00217829742737487                       0 
      -1.84984984984985                       0        1.22510302066803        41.6411018371582    1.05520154637488E-10            254024.09375                101326.5                 288.125      0.0998873114585876     0.00217830109816301                       0 
      -1.84484484484484                       0        1.22510302066803        41.6411018371582    1.10351504178149E-10            254024.09375                101326.5                 288.125      0.0998873114585876     0.00217830476895116                       0 
      -1.83983983983984                       0        1.22510302066803        41.6411018371582     1.1518285371881E-10            254024.09375                101326.5                 288.125      0.0998873114585876      0.0021783084397393                       0 
      -1.83483483483483                       0        1.22510302066803        41.6411018371582     1.2001420325947E-10            254024.09375                101326.5                 288.125      0.0998873114585876     0.00217831211052745                       0 
      -1.82982982982983                       0        1.22510302066803        41.6411018371582    1.24845552800131E-10            254024.09375                101326.5                 288.125      0.0998873114585876     0.00217831578131559                       0 
      -1.82482482482482                       0        1.22510302066803        41.6411018371582    1.29676902340791E-10            254024.09375                101326.5                 288.125      0.0998873114585876     0.00217831945210374                       0 
      -1.81981981981982                       0        1.22510302066803        41.6411018371582    1.34508251881452E-10            254024.09375                101326.5                 288.125      0.0998873114585876     0.00217832312289189                       0 
      -1.81481481481481                       0        1.22510302066803        41.6411018371582    1.39339601422112E-10            254024.09375                101326.5                 288.125      0.0998873114585876     0.00217832679368003                       0 
      -1.80980980980981                       0        1.22510302066803        41.6411018371582    1.44170950962773E-10            254024.09375                101326.5                 288.125      0.0998873114585876     0.00217833046446818                       0 
       -1.8048048048048                       0        1.22510302066803        41.6411018371582    1.48535315177838E-10            254024.09375                101326.5                 288.125      0.0998873114585876     0.00217833400899269                       0 
       -1.7997997997998                       0        1.22510302066803        41.6411018371582    1.49903520682065E-10            254024.09375                101326.5                 288.125      0.0998873114585876     0.00217833674341492                       0 
      -1.79479479479479                       0        1.22510302066803        41.6411018371582    1.51271726186293E-10            254024.09375                101326.5                 288.125      0.0998873114585876     0.00217833947783715                       0 
      -1.78978978978979                       0        1.22510302066803        41.6411018371582    1.52711293030286E-10            254024.09375                101326.5                 288.125      0.0998873114585876     0.00217834220916094                       0 
      -1.78478478478478                       0        1.22510302066803        41.6411018371582    1.58178231307508E-10            254024.09375                101326.5                 288.125      0.0998873114585876     0.00217834476562047                       0 
      -1.77977977977978                       0        1.22510302066803        41.6411018371582    1.63645169584731E-10            254024.09375                101326.5                 288.125      0.0998873114585876     0.00217834732208001                       0 
      -1.77477477477477                       0        1.22510302066803        41.6411018371582    1.69112107861953E-10            254024.09375                101326.5                 288.125      0.0998873114585876     0.00217834987853954                       0 
      -1.76976976976977                       0        1.22510302066803        41.6411018371582    1.74579046139176E-10            254024.09375                101326.5                 288.125      0.0998873114585876     0.00217835243499907                       0 
      -1.76476476476476                       0        1.22510302066803        41.6411018371582    1.80045984416398E-10            254024.09375                101326.5                 288.125      0.0998873114585876     0.00217835499145861                       0 
      -1.75975975975976                       0        1.22510302066803        41.6411018371582     1.8551292269362E-10            254024.09375                101326.5                 288.125      0.0998873114585876     0.00217835754791814                       0 
      -1.75475475475475                       0        1.22510302066803        41.6411018371582    1.90979860970843E-10            254024.09375                101326.5                 288.125      0.0998873114585876     0.00217836010437767                       0 
      -1.74974974974975                       0        1.22510302066803        41.6411018371582    1.96446799248065E-10            254024.09375                101326.5                 288.125      0.0998873114585876     0.00217836266083721                       0 
      -1.74474474474474                       0        1.22510302066803        41.6411018371582    2.01913737525288E-10            254024.09375                101326.5                 288.125      0.0998873114585876     0.00217836521729674                       0 
      -1.73973973973974                       0        1.22510302066803        41.6411018371582     2.0738067580251E-10            254024.09375                101326.5                 288.125      0.0998873114585876     0.00217836777375627                       0 
      -1.73473473473473                       0        1.22510302066803        41.6411018371582    2.12847614079733E-10            254024.09375                101326.5                 288.125      0.0998873114585876     0.00217837033021581                       0 
      -1.72972972972973                       0        1.22510302066803        41.6411018371582    2.18314552356955E-10            254024.09375                101326.5                 288.125      0.0998873114585876     0.00217837288667534                       0 
      -1.72472472472472                       0        1.22510302066803        41.6411018371582    2.23781490634178E-10            254024.09375                101326.5                 288.125      0.0998873114585876     0.00217837544313487                       0 
      -1.71971971971972                       0        1.22510302066803        41.6411018371582      2.292484289114E-10            254024.09375                101326.5                 288.125      0.0998873114585876     0.00217837799959441                       0 
      -1.71471471471471                       0        1.22510302066803        41.6411018371582    2.34715367188623E-10            254024.09375                101326.5                 288.125      0.0998873114585876     0.00217838055605394                       0 
      -1.70970970970971                       0        1.22510302066803        41.6411018371582    2.40182305465845E-10            254024.09375                101326.5                 288.125      0.0998873114585876     0.00217838311251347                       0 
       -1.7047047047047                       0        1.22510302066803        41.6411018371582    2.45649243743068E-10            254024.09375                101326.5                 288.125      0.0998873114585876     0.00217838566897301                       0 
       -1.6996996996997                       0        1.22510302066803        41.6411018371582     2.5111618202029E-10            254024.09375                101326.5                 288.125      0.0998873114585876     0.00217838822543254                       0 
      -1.69469469469469                       0        1.22510302066803        41.6411018371582    2.56583120297513E-10            254024.09375                101326.5                 288.125      0.0998873114585876     0.00217839078189207                       0 
      -1.68968968968969                       0        1.22510302066803        41.6411018371582    2.62050058574735E-10            254024.09375                101326.5                 288.125      0.0998873114585876     0.00217839333835161                       0 
      -1.68468468468468                       0        1.22510302066803        41.6411018371582    2.67516996851957E-10            254024.09375                101326.5                 288.125      0.0998873114585876     0.00217839589481114                       0 
      -1.67967967967968                       0        1.22510302066803        41.6411018371582     2.7298393512918E-10            254024.09375                101326.5                 288.125      0.0998873114585876     0.00217839845127067                       0 
      -1.67467467467467                       0        1.22510302066803        41.6411018371582    2.78450873406402E-10            254024.09375                101326.5                 288.125      0.0998873114585876     0.00217840100773021                       0 
      -1.66966966966967                       0        1.22510302066803        41.6411018371582    2.83917811683625E-10            254024.09375                101326.5                 288.125      0.0998873114585876     0.00217840356418974                       0 
      -1.66466466466466                       0        1.22510302066803        41.6411018371582    2.89384749960847E-10            254024.09375                101326.5                 288.125      0.0998873114585876     0.00217840612064927                       0 
      -1.65965965965966                       0        1.22510302066803        41.6411018371582     2.9485168823807E-10            254024.09375                101326.5                 288.125      0.0998873114585876     0.00217840867710881                       0 
      -1.65465465465465                       0        1.22510302066803        41.6411018371582    3.00318626515292E-10            254024.09375                101326.5                 288.125      0.0998873114585876     0.00217841123356834                       0 
      -1.64964964964965                       0        1.22510302066803        41.6411018371582    3.05785564792515E-10            254024.09375                101326.5                 288.125      0.0998873114585876     0.00217841379002787                       0 
      -1.64464464464464                       0        1.22510302066803        41.6411018371582    3.11252503069737E-10            254024.09375                101326.5                 288.125      0.0998873114585876     0.00217841634648741                       0 
      -1.63963963963964                       0        1.22510302066803        41.6411018371582     3.1671944134696E-10            254024.09375                101326.5                 288.125      0.0998873114585876     0.00217841890294694                       0 
      -1.63463463463463                       0        1.22510302066803        41.6411018371582    3.22186379624182E-10            254024.09375                101326.5                 288.125      0.0998873114585876     0.00217842145940647                       0 
      -1.62962962962963                       0        1.22510302066803        41.6411018371582    3.27653317901405E-10            254024.09375                101326.5                 288.125      0.0998873114585876     0.00217842401586601                       0 
      -1.62462462462462                       0        1.22510302066803        41.6411018371582    3.28289813505927E-10            254024.09375                101326.5                 288.125      0.0998873114585876     0.00217842723434088                       0 
      -1.61961961961962                       0        1.22510302066803        41.6411018371582    3.28202545070903E-10            254024.09375                101326.5                 288.125      0.0998873114585876      0.0021784305520081                       0 
      -1.61461461461461                       0        1.22510302066803        41.6411018371582    3.28115276635878E-10            254024.09375                101326.5                 288.125      0.0998873114585876     0.00217843386967531                       0 
      -1.60960960960961                       0        1.22510302066803        41.6411018371582    3.28028008200853E-10            254024.09375                101326.5                 288.125      0.0998873114585876     0.00217843718734252                       0 
       -1.6046046046046                       0        1.22510302066803        41.6411018371582     3.2731780756964E-10            254024.09375                101326.5                 288.125      0.0998873114585876     0.00217844025771863                       0 
       -1.5995995995996                       0        1.22510302066803        41.6411018371582    3.26494588893285E-10            254024.09375                101326.5                 288.125      0.0998873114585876     0.00217844328322893                       0 
      -1.59459459459459                       0        1.22510302066803        41.6411018371582     3.2567137021693E-10            254024.09375                101326.5                 288.125      0.0998873114585876     0.00217844630873922                       0 
      -1.58958958958959                       0        1.22510302066803        41.6411018371582    3.24848151540575E-10            254024.09375                101326.5                 288.125      0.0998873114585876     0.00217844933424952                       0 
      -1.58458458458458                       0        1.22510302066803        41.6411018371582    3.24024932864219E-10            254024.09375                101326.5                 288.125      0.0998873114585876     0.00217845235975982                       0 
      -1.57957957957958                       0        1.22510302066803        41.6411018371582    3.23201714187864E-10            254024.09375                101326.5                 288.125      0.0998873114585876     0.00217845538527011                       0 
      -1.57457457457457                       0        1.22510302066803        41.6411018371582    3.22378495511509E-10            254024.09375                101326.5                 288.125      0.0998873114585876     0.00217845841078041                       0 
      -1.56956956956957                       0        1.22510302066803        41.6411018371582    3.21555276835154E-10            254024.09375                101326.5                 288.125      0.0998873114585876     0.00217846143629071                       0 
      -1.56456456456456                       0        1.22510302066803        41.6411018371582    3.20732058158799E-10            254024.09375                101326.5                 288.125      0.0998873114585876       0.002178464461801                       0 
      -1.55955955955956                       0        1.22510302066803        41.6411018371582    3.19908839482444E-10            254024.09375                101326.5                 288.125      0.0998873114585876      0.0021784674873113                       0 
      -1.55455455455455                       0        1.22510302066803        41.6411018371582    3.19085620806089E-10            254024.09375                101326.5                 288.125      0.0998873114585876      0.0021784705128216                       0 
      -1.54954954954955                       0        1.22510302066803        41.6411018371582    3.18262402129733E-10            254024.09375                101326.5                 288.125      0.0998873114585876     0.00217847353833189                       0 
      -1.54454454454454                       0        1.22510302066803        41.6411018371582    3.17439183453378E-10            254024.09375                101326.5                 288.125      0.0998873114585876     0.00217847656384219                       0 
      -1.53953953953954                       0        1.22510302066803        41.6411018371582    3.16615964777023E-10            254024.09375                101326.5                 288.125      0.0998873114585876     0.00217847958935249                       0 
      -1.53453453453453                       0        1.22510302066803        41.6411018371582    3.15792746100668E-10            254024.09375                101326.5                 288.125      0.0998873114585876     0.00217848261486278                       0 
      -1.52952952952953                       0        1.22510302066803        41.6411018371582    3.14969527424313E-10            254024.09375                101326.5                 288.125      0.0998873114585876     0.00217848564037308                       0 
      -1.52452452452452                       0        1.22510302066803        41.6411018371582    3.14146308747958E-10            254024.09375                101326.5                 288.125      0.0998873114585876     0.00217848866588338                       0 
      -1.51951951951952                       0        1.22510302066803        41.6411018371582    3.13323090071602E-10            254024.09375                101326.5                 288.125      0.0998873114585876     0.00217849169139367                       0 
      -1.51451451451451                       0        1.22510302066803        41.6411018371582    3.12499871395247E-10            254024.09375                101326.5                 288.125      0.0998873114585876     0.00217849471690397                       0 
      -1.50950950950951                       0        1.22510302066803        41.6411018371582    3.11676652718892E-10            254024.09375                101326.5                 288.125      0.0998873114585876     0.00217849774241427                       0 
       -1.5045045045045                       0        1.22510302066803        41.6411018371582    3.10853434042537E-10            254024.09375                101326.5                 288.125      0.0998873114585876     0.00217850076792456                       0 
       -1.4994994994995                       0        1.22510302066803        41.6411018371582    3.10030215366182E-10            254024.09375                101326.5                 288.125      0.0998873114585876     0.00217850379343486                       0 
      -1.49449449449449                       0        1.22510302066803        41.6411018371582    3.09206996689827E-10            254024.09375                101326.5                 288.125      0.0998873114585876     0.00217850681894516                       0 
      -1.48948948948949                       0        1.22510302066803        41.6411018371582    3.08383778013472E-10            254024.09375                101326.5                 288.125      0.0998873114585876     0.00217850984445545                       0 
      -1.48448448448448                       0        1.22510302066803        41.6411018371582    3.07560559337116E-10            254024.09375                101326.5                 288.125      0.0998873114585876     0.00217851286996575                       0 
      -1.47947947947948                       0        1.22510302066803        41.6411018371582    3.06737340660761E-10            254024.09375                101326.5                 288.125      0.0998873114585876     0.00217851589547605                       0 
      -1.47447447447447                       0        1.22510302066803        41.6411018371582    3.05914121984406E-10            254024.09375                101326.5                 288.125      0.0998873114585876     0.00217851892098634                       0 
      -1.46946946946947                       0        1.22510302066803        41.6411018371582    3.05090903308051E-10            254024.09375                101326.5                 288.125      0.0998873114585876     0.00217852194649664                       0 
      -1.46446446446446                       0        1.22510302066803        41.6411018371582    3.03842825783433E-10            254024.09375                101326.5                 288.125      0.0998873114585876      0.0021785249763803                       0 
      -1.45945945945946                       0        1.22510302066803        41.6411018371582    2.96715217337672E-10            254024.09375                101326.5                 288.125      0.0998873114585876     0.00217852806678609                       0 
      -1.45445445445445                       0        1.22510302066803        41.6411018371582    2.89587608891912E-10            254024.09375                101326.5                 288.125      0.0998873114585876     0.00217853115719188                       0 
      -1.44944944944945                       0        1.22510302066803        41.6411018371582    2.80799537021284E-10            254024.09375                101326.5                 288.125      0.0998873114585876     0.00217853425556781                       0 
      -1.44444444444444                       0        1.22510302066803        41.6411018371582    2.67576077080808E-10            254024.09375                101326.5                 288.125      0.0998873114585876     0.00217853737523342                       0 