VARIABLES = "x"
 "y"
 "Density"
 "Momentum_x"
 "Momentum_y"
 "Energy"
 "Pressure"
 "Temperature"
 "Mach"
 "C<sub>p</sub>"
 "Roe_Dissipation"
ZONE
DT=(DOUBLE,DOUBLE,DOUBLE,DOUBLE,DOUBLE,DOUBLE,DOUBLE,DOUBLE,DOUBLE,DOUBLE,DOUBLE)
                     -2                       0        1.22509598731995        41.6650199890137    4.05351308074842E-11           254022.796875           101325.703125        288.124389648438      0.0999453663825989     0.00102003396023065                       0 
      -1.99499499499499                       0        1.22509598731995        41.6650199890137    4.85571163759663E-11           254022.796875           101325.703125        288.124389648438      0.0999453677566188     0.00102002447090549                       0 
      -1.98998998998999                       0        1.22509598731995        41.6650199890137    5.65791019444495E-11           254022.796875           101325.703125        288.124389648438      0.0999453691306387     0.00102001498158033                       0 
      -1.98498498498498                       0        1.22509598731995        41.6650199890137    6.46010875129318E-11           254022.796875           101325.703125        288.124389648438      0.0999453705046587     0.00102000549225518                       0 
      -1.97997997997998                       0        1.22509598731995        41.6650199890137    7.26230730814148E-11           254022.796875           101325.703125        288.124389648438      0.0999453718786786     0.00101999600293002                       0 
      -1.97497497497497                       0        1.22509598731995        41.6650199890137    8.06450586498978E-11           254022.796875           101325.703125        288.124389648438      0.0999453732526985     0.00101998651360487                       0 
      -1.96996996996997                       0        1.22509598731995        41.6650199890137    8.86670442183799E-11           254022.796875           101325.703125        288.124389648438      0.0999453746267185     0.00101997702427971                       0 
      -1.96496496496496                       0        1.22509598731995        41.6650199890137    9.66890297868629E-11           254022.796875           101325.703125        288.124389648438      0.0999453760007384     0.00101996753495455                       0 
      -1.95995995995996                       0        1.22509598731995        41.6650199890137    1.04711015355345E-10           254022.796875           101325.703125        288.124389648438      0.0999453773747583     0.00101995804562939                       0 
      -1.95495495495495                       0        1.22509598731995        41.6650199890137    1.12733000923827E-10           254022.796875           101325.703125        288.124389648438      0.0999453787487783     0.00101994855630424                       0 
      -1.94994994994995                       0        1.22509598731995        41.6650199890137     1.2075498649231E-10           254022.796875           101325.703125        288.124389648438      0.0999453801227982     0.00101993906697908                       0 
      -1.94494494494494                       0        1.22509598731995        41.6650199890137    1.13444419366951E-10           254022.796875           101325.703125        288.124389648438      0.0999453812837601     0.00101993003679911                       0 
      -1.93993993993994                       0        1.22509598731995        41.6650199890137    9.62762447402807E-11           254022.796875           101325.703125        288.124389648438      0.0999453812837601     0.00101992350868286                       0 
      -1.93493493493493                       0        1.22509598731995        41.6650199890137    7.91080701136123E-11           254022.796875           101325.703125        288.124389648438      0.0999453812837601     0.00101991698056661                       0 
      -1.92992992992993                       0        1.22509598731995        41.6650199890137    6.19398954869418E-11           254022.796875           101325.703125        288.124389648438      0.0999453812837601     0.00101991045245036                       0 
      -1.92492492492492                       0        1.22509598731995        41.6650199890137    4.47717208602738E-11           254022.796875           101325.703125        288.124389648438      0.0999453812837601     0.00101990392433411                       0 
      -1.91991991991992                       0        1.22509598731995        41.6650199890137    2.76035462336034E-11           254022.796875           101325.703125        288.124389648438      0.0999453812837601     0.00101989739621786                       0 
      -1.91491491491491                       0        1.22509598731995        41.6650199890137    1.04353716069354E-11           254022.796875           101325.703125        288.124389648438      0.0999453812837601     0.00101989086810161                       0 
      -1.90990990990991                       0        1.22509598731995        41.6650199890137   -6.73280301973424E-12           254022.796875           101325.703125        288.124389648438      0.0999453812837601     0.00101988433998536                       0 
       -1.9049049049049                       0        1.22509598731995        41.6650199890137   -2.39009776464039E-11           254022.796875           101325.703125        288.124389648438      0.0999453812837601     0.00101987781186911                       0 
       -1.8998998998999                       0        1.22509598731995        41.6650199890137   -4.10691522730735E-11           254022.796875           101325.703125        288.124389648438      0.0999453812837601     0.00101987128375286                       0 
      -1.89489489489489                       0        1.22509598731995        41.6650199890137   -5.82373268997464E-11           254022.796875           101325.703125        288.124389648438      0.0999453812837601     0.00101986475563661                       0 
      -1.88988988988989                       0        1.22509598731995        41.6650199890137   -9.07623536397934E-11           254022.796875           101325.703125        288.124389648438      0.0999453812837601     0.00101985744897215                       0 
      -1.88488488488488                       0        1.22509598731995        41.6650199890137   -1.34401060432431E-10           254022.796875           101325.703125        288.124389648438      0.0999453812837601     0.00101984957887609                       0 
      -1.87987987987988                       0        1.22509598731995        41.6650199890137   -1.78039767225075E-10           254022.796875           101325.703125        288.124389648438      0.0999453812837601     0.00101984170878004                       0 
      -1.87487487487487                       0        1.22509598731995        41.6650199890137   -2.21678474017716E-10           254022.796875           101325.703125        288.124389648438      0.0999453812837601     0.00101983383868398                       0 
      -1.86986986986987                       0        1.22509598731995        41.6650199890137   -2.65317180810359E-10           254022.796875           101325.703125        288.124389648438      0.0999453812837601     0.00101982596858793                       0 
      -1.86486486486486                       0        1.22509598731995        41.6650199890137   -3.08955887603002E-10           254022.796875           101325.703125        288.124389648438      0.0999453812837601     0.00101981809849188                       0 
      -1.85985985985986                       0        1.22509598731995        41.6650199890137   -3.52594594395644E-10           254022.796875           101325.703125        288.124389648438      0.0999453812837601     0.00101981022839582                       0 
      -1.85485485485485                       0        1.22509598731995        41.6650199890137   -3.96233301188284E-10           254022.796875           101325.703125        288.124389648438      0.0999453812837601     0.00101980235829977                       0 
      -1.84984984984985                       0        1.22509598731995        41.6650199890137   -4.39872007980926E-10           254022.796875           101325.703125        288.124389648438      0.0999453812837601     0.00101979448820371                       0 
      -1.84484484484484                       0        1.22509598731995        41.6650199890137   -4.83510714773568E-10           254022.796875           101325.703125        288.124389648438      0.0999453812837601     0.00101978661810766                       0 
      -1.83983983983984                       0        1.22509598731995        41.6650199890137   -5.27149421566209E-10           254022.796875           101325.703125        288.124389648438      0.0999453812837601      0.0010197787480116                       0 
      -1.83483483483483                       0        1.22509598731995        41.6650199890137   -5.45993701139113E-10           254022.796875           101325.703125        288.124389648438      0.0999453812837601     0.00101977178520115                       0 
      -1.82982982982983                       0        1.22509598731995        41.6650199890137   -5.73363232561408E-10           254022.796875           101325.703125        288.124389648438      0.0999453812837601     0.00101976531345385                       0 
      -1.82482482482482                       0        1.22509598731995        41.6650199890137   -6.00732763983704E-10           254022.796875           101325.703125        288.124389648438      0.0999453812837601     0.00101975884170654                       0 
      -1.81981981981982                       0        1.22509598731995        41.6650199890137   -6.28102295406001E-10           254022.796875           101325.703125        288.124389648438      0.0999453812837601     0.00101975236995923                       0 
      -1.81481481481481                       0        1.22509598731995        41.6650199890137   -6.55471826828297E-10           254022.796875           101325.703125        288.124389648438      0.0999453812837601     0.00101974589821193                       0 
      -1.80980980980981                       0        1.22509598731995        41.6650199890137   -6.82841358250593E-10           254022.796875           101325.703125        288.124389648438      0.0999453812837601     0.00101973942646462                       0 
       -1.8048048048048                       0        1.22509598731995        41.6650199890137   -7.10210889672889E-10           254022.796875           101325.703125        288.124389648438      0.0999453812837601     0.00101973295471731                       0 
       -1.7997997997998                       0        1.22509598731995        41.6650199890137   -7.37580421095186E-10           254022.796875           101325.703125        288.124389648438      0.0999453812837601     0.00101972648297001                       0 
      -1.79479479479479                       0        1.22509598731995        41.6650199890137   -7.64949952517483E-10           254022.796875           101325.703125        288.124389648438      0.0999453812837601      0.0010197200112227                       0 
      -1.78978978978979                       0        1.22509598731995        41.6650199890137   -7.92319483939779E-10           254022.796875           101325.703125        288.124389648438      0.0999453812837601     0.00101971353947539                       0 
      -1.78478478478478                       0        1.22509598731995        41.6650199890137   -8.19689015362075E-10           254022.796875           101325.703125        288.124389648438      0.0999453812837601     0.00101970706772809                       0 
      -1.77977977977978                       0        1.22509598731995        41.6650199890137   -8.43139995680505E-10           254022.796875           101325.703125        288.124389648438      0.0999453812837601     0.00101969997648855                       0 
      -1.77477477477477                       0        1.22509598731995        41.6650199890137   -8.64712389040824E-10           254022.796875           101325.703125        288.124389648438      0.0999453812837601     0.00101969258825913                       0 
      -1.76976976976977                       0        1.22509598731995        41.6650199890137   -8.86284782401144E-10           254022.796875           101325.703125        288.124389648438      0.0999453812837601     0.00101968520002972                       0 
      -1.76476476476476                       0        1.22509598731995        41.6650199890137   -9.07857175761464E-10           254022.796875           101325.703125        288.124389648438      0.0999453812837601      0.0010196778118003                       0 
      -1.75975975975976                       0        1.22509598731995        41.6650199890137   -9.29429569121782E-10           254022.796875           101325.703125        288.124389648438      0.0999453812837601     0.00101967042357089                       0 
      -1.75475475475475                       0        1.22509598731995        41.6650199890137   -9.51001962482102E-10           254022.796875           101325.703125        288.124389648438      0.0999453812837601     0.00101966303534147                       0 
      -1.74974974974975                       0        1.22509598731995        41.6650199890137   -9.72574355842421E-10           254022.796875           101325.703125        288.124389648438      0.0999453812837601     0.00101965564711206                       0 
      -1.74474474474474                       0        1.22509598731995        41.6650199890137   -9.94146749202741E-10           254022.796875           101325.703125        288.124389648438      0.0999453812837601     0.00101964825888264                       0 
      -1.73973973973974                       0        1.22509598731995        41.6650199890137   -1.01571914256306E-09           254022.796875           101325.703125        288.124389648438      0.0999453812837601     0.00101964087065323                       0 
      -1.73473473473473                       0        1.22509598731995        41.6650199890137   -1.03729153592338E-09           254022.796875           101325.703125        288.124389648438      0.0999453812837601     0.00101963348242381                       0 
      -1.72972972972973                       0        1.22509598731995        41.6650199890137    -1.0588639292837E-09           254022.796875           101325.703125        288.124389648438      0.0999453812837601      0.0010196260941944                       0 
      -1.72472472472472                       0        1.22509598731995        41.6650199890137   -1.04319542840492E-09           254022.796875           101325.703125        288.124389648438      0.0999453812837601       0.001019619083638                       0 
      -1.71971971971972                       0        1.22509598731995        41.6650199890137   -1.04460175497585E-09           254022.796875           101325.703125        288.124389648438      0.0999453812837601     0.00101961213920599                       0 
      -1.71471471471471                       0        1.22509598731995        41.6650199890137   -1.04600808154679E-09           254022.796875           101325.703125        288.124389648438      0.0999453812837601     0.00101960519477398                       0 
      -1.70970970970971                       0        1.22509598731995        41.6650199890137   -1.04741440811772E-09           254022.796875           101325.703125        288.124389648438      0.0999453812837601     0.00101959825034197                       0 
       -1.7047047047047                       0        1.22509598731995        41.6650199890137   -1.04882073468866E-09           254022.796875           101325.703125        288.124389648438      0.0999453812837601     0.00101959130590996                       0 
       -1.6996996996997                       0        1.22509598731995        41.6650199890137   -1.05022706125959E-09           254022.796875           101325.703125        288.124389648438      0.0999453812837601     0.00101958436147795                       0 
      -1.69469469469469                       0        1.22509598731995        41.6650199890137   -1.05163338783052E-09           254022.796875           101325.703125        288.124389648438      0.0999453812837601     0.00101957741704594                       0 
      -1.68968968968969                       0        1.22509598731995        41.6650199890137   -1.05303971440146E-09           254022.796875           101325.703125        288.124389648438      0.0999453812837601     0.00101957047261393                       0 
      -1.68468468468468                       0        1.22509598731995        41.6650199890137    -1.0544460409724E-09           254022.796875           101325.703125        288.124389648438      0.0999453812837601     0.00101956352818192                       0 
      -1.67967967967968                       0        1.22509598731995        41.6650199890137   -1.05585236754333E-09           254022.796875           101325.703125        288.124389648438      0.0999453812837601     0.00101955658374991                       0 
      -1.67467467467467                       0        1.22509598731995        41.6650199890137   -1.05725869411426E-09           254022.796875           101325.703125        288.124389648438      0.0999453812837601      0.0010195496393179                       0 
      -1.66966966966967                       0        1.22509598731995        41.6650199890137   -1.06493497514472E-09           254022.796875           101325.703125        288.124389648438      0.0999453812837601     0.00101954296049046                       0 
      -1.66466466466466                       0        1.22509598731995        41.6650199890137   -1.07646705290135E-09           254022.796875           101325.703125        288.124389648438      0.0999453812837601     0.00101953644500031                       0 
      -1.65965965965966                       0        1.22509598731995        41.6650199890137   -1.08799913065797E-09           254022.796875           101325.703125        288.124389648438      0.0999453812837601     0.00101952992951015                       0 
      -1.65465465465465                       0        1.22509598731995        41.6650199890137    -1.0995312084146E-09           254022.796875           101325.703125        288.124389648438      0.0999453812837601     0.00101952341401999                       0 
      -1.64964964964965                       0        1.22509598731995        41.6650199890137   -1.11106328617123E-09           254022.796875           101325.703125        288.124389648438      0.0999453812837601     0.00101951689852984                       0 
      -1.64464464464464                       0        1.22509598731995        41.6650199890137   -1.12259536392785E-09           254022.796875           101325.703125        288.124389648438      0.0999453812837601     0.00101951038303968                       0 
      -1.63963963963964                       0        1.22509598731995        41.6650199890137   -1.13412744168448E-09           254022.796875           101325.703125        288.124389648438      0.0999453812837601     0.00101950386754952                       0 
      -1.63463463463463                       0        1.22509598731995        41.6650199890137    -1.1456595194411E-09           254022.796875           101325.703125        288.124389648438      0.0999453812837601     0.00101949735205937                       0 
      -1.62962962962963                       0        1.22509598731995        41.6650199890137   -1.15719159719773E-09           254022.796875           101325.703125        288.124389648438      0.0999453812837601     0.00101949083656921                       0 
      -1.62462462462462                       0        1.22509598731995        41.6650199890137   -1.16872367495436E-09           254022.796875           101325.703125        288.124389648438      0.0999453812837601     0.00101948432107905                       0 
      -1.61961961961962                       0        1.22509598731995        41.6650199890137   -1.18025575271098E-09           254022.796875           101325.703125        288.124389648438      0.0999453812837601     0.00101947780558889                       0 
      -1.61461461461461                       0        1.22509598731995        41.6650199890137   -1.19178783046761E-09           254022.796875           101325.703125        288.124389648438      0.0999453812837601     0.00101947129009874                       0 
      -1.60960960960961                       0        1.22509598731995        41.6650199890137   -1.08784403504162E-09           254022.796875           101325.703125        288.124389648438      0.0999453812837601     0.00101946466697816                       0 
       -1.6046046046046                       0        1.22509598731995        41.6650199890137   -1.09081086233762E-09           254022.796875           101325.703125        288.124389648438      0.0999453812837601     0.00101945801851167                       0 
       -1.5995995995996                       0        1.22509598731995        41.6650199890137   -1.09377768963362E-09           254022.796875           101325.703125        288.124389648438      0.0999453812837601     0.00101945137004518                       0 
      -1.59459459459459                       0        1.22509598731995        41.6650199890137   -1.09674451692961E-09           254022.796875           101325.703125        288.124389648438      0.0999453812837601     0.00101944472157868                       0 
      -1.58958958958959                       0        1.22509598731995        41.6650199890137   -1.09971134422561E-09           254022.796875           101325.703125        288.124389648438      0.0999453812837601     0.00101943807311219                       0 
      -1.58458458458458                       0        1.22509598731995        41.6650199890137   -1.10267817152161E-09           254022.796875           101325.703125        288.124389648438      0.0999453812837601      0.0010194314246457                       0 
      -1.57957957957958                       0        1.22509598731995        41.6650199890137   -1.10564499881761E-09           254022.796875           101325.703125        288.124389648438      0.0999453812837601     0.00101942477617921                       0 
      -1.57457457457457                       0        1.22509598731995        41.6650199890137   -1.10861182611361E-09           254022.796875           101325.703125        288.124389648438      0.0999453812837601     0.00101941812771271                       0 
      -1.56956956956957                       0        1.22509598731995        41.6650199890137   -1.11157865340961E-09           254022.796875           101325.703125        288.124389648438      0.0999453812837601     0.00101941147924622                       0 
      -1.56456456456456                       0        1.22509598731995        41.6650199890137    -1.1145454807056E-09           254022.796875           101325.703125        288.124389648438      0.0999453812837601     0.00101940483077973                       0 
      -1.55955955955956                       0        1.22509598731995        41.6650199890137    -1.1175123080016E-09           254022.796875           101325.703125        288.124389648438      0.0999453812837601     0.00101939818231324                       0 
      -1.55455455455455                       0        1.22509598731995        41.6650199890137    -1.1226281969755E-09           254022.796875           101325.703125        288.124389648438      0.0999453812837601     0.00101939152183709                       0 
      -1.54954954954955                       0        1.22509598731995        41.6650199890137   -1.15348489882843E-09           254022.796875           101325.703125        288.124389648438      0.0999453812837601     0.00101938471751283                       0 
      -1.54454454454454                       0        1.22509598731995        41.6650199890137   -1.18434160068137E-09           254022.796875           101325.703125        288.124389648438      0.0999453812837601     0.00101937791318857                       0 
      -1.53953953953954                       0        1.22509598731995        41.6650199890137   -1.21519830253431E-09           254022.796875           101325.703125        288.124389648438      0.0999453812837601     0.00101937110886431                       0 
      -1.53453453453453                       0        1.22509598731995        41.6650199890137   -1.24605500438724E-09           254022.796875           101325.703125        288.124389648438      0.0999453812837601     0.00101936430454005                       0 
      -1.52952952952953                       0        1.22509598731995        41.6650199890137   -1.27691170624018E-09           254022.796875           101325.703125        288.124389648438      0.0999453812837601     0.00101935750021579                       0 
      -1.52452452452452                       0        1.22509598731995        41.6650199890137   -1.30776840809311E-09           254022.796875           101325.703125        288.124389648438      0.0999453812837601     0.00101935069589153                       0 
      -1.51951951951952                       0        1.22509598731995        41.6650199890137   -1.33862510994605E-09           254022.796875           101325.703125        288.124389648438      0.0999453812837601     0.00101934389156727                       0 
      -1.51451451451451                       0        1.22509598731995        41.6650199890137   -1.36948181179898E-09           254022.796875           101325.703125        288.124389648438      0.0999453812837601     0.00101933708724301                       0 
      -1.50950950950951                       0        1.22509598731995        41.6650199890137   -1.40033851365192E-09           254022.796875           101325.703125        288.124389648438      0.0999453812837601     0.00101933028291875                       0 
       -1.5045045045045                       0        1.22509598731995        41.6650199890137   -1.43119521550485E-09           254022.796875           101325.703125        288.124389648438      0.0999453812837601      0.0010193234785945                       0 
       -1.4994994994995                       0        1.22509598731995        41.6650199890137   -1.38738179642577E-09           254022.796875           101325.703125        288.124389648438      0.0999453812837601      0.0010193164878368                       0 
      -1.49449449449449                       0        1.22509598731995        41.6650199890137   -1.36094864036314E-09           254022.796875           101325.703125        288.124389648438      0.0999453812837601     0.00101930915043445                       0 
      -1.48948948948949                       0        1.22509598731995        41.6650199890137   -1.33451548430051E-09           254022.796875           101325.703125        288.124389648438      0.0999453812837601     0.00101930181303211                       0 
      -1.48448448448448                       0        1.22509598731995        41.6650199890137   -1.30808232823788E-09           254022.796875           101325.703125        288.124389648438      0.0999453812837601     0.00101929447562976                       0 
      -1.47947947947948                       0        1.22509598731995        41.6650199890137   -1.28164917217525E-09           254022.796875           101325.703125        288.124389648438      0.0999453812837601     0.00101928713822741                       0 
      -1.47447447447447                       0        1.22509598731995        41.6650199890137   -1.25521601611262E-09           254022.796875           101325.703125        288.124389648438      0.0999453812837601     0.00101927980082506                       0 
      -1.46946946946947                       0        1.22509598731995        41.6650199890137   -1.22878286004999E-09           254022.796875           101325.703125        288.124389648438      0.0999453812837601     0.00101927246342271                       0 
      -1.46446446446446                       0        1.22509598731995        41.6650199890137   -1.20234970398736E-09           254022.796875           101325.703125        288.124389648438      0.0999453812837601     0.00101926512602036                       0 
      -1.45945945945946                       0        1.22509598731995        41.6650199890137   -1.17591654792474E-09           254022.796875           101325.703125        288.124389648438      0.0999453812837601     0.00101925778861801                       0 
      -1.45445445445445                       0        1.22509598731995        41.6650199890137   -1.14948339186211E-09           254022.796875           101325.703125        288.124389648438      0.0999453812837601     0.00101925045121566                       0 
      -1.44944944944945                       0        1.22509598731995        41.6650199890137   -1.14575634470991E-09           254022.796875           101325.703125        288.124389648438      0.0999453812837601     0.00101924308660078                       0 
      -1.44444444444444                       0        1.22509598731995        41.6650199890137   -1.17817085481528E-09           254022.796875           101325.703125        288.124389648438      0.0999453812837601     0.00101923567867143                       0 