VARIABLES = "x"
 "y"
 "Density"
 "Momentum_x"
 "Momentum_y"
 "Energy"
 "Pressure"
 "Temperature"
 "Mach"
 "C<sub>p</sub>"
 "Roe_Dissipation"
ZONE
DT=(DOUBLE,DOUBLE,DOUBLE,DOUBLE,DOUBLE,DOUBLE,DOUBLE,DOUBLE,DOUBLE,DOUBLE,DOUBLE)
                     -2                       0        1.22509396076202        41.6715698242188    1.57686602664242E-09                254022.5                101325.5        288.124206542969      0.0999612808227539    0.000702717952663079                       0 
      -1.99499499499499                       0        1.22509396076202        41.6715698242188    -5.3554897471022E-09                254022.5                101325.5        288.124206542969      0.0999612808227539    0.000702749448228596                       0 
      -1.98998998998999                       0        1.22509396076202        41.6715698242188   -1.22878455208468E-08                254022.5                101325.5        288.124206542969      0.0999612808227539    0.000702780943794112                       0 
      -1.98498498498498                       0        1.22509396076202        41.6715698242188   -1.92202012945914E-08                254022.5                101325.5        288.124206542969      0.0999612808227539    0.000702812439359629                       0 
      -1.97997997997998                       0        1.22509396076202        41.6715698242188   -2.65870310858877E-08                254022.5                101325.5        288.124206542969      0.0999612808227539    0.000702835627656421                       0 
      -1.97497497497497                       0        1.22509396076202        41.6715698242188    -3.2017651780788E-08                254022.5                101325.5        288.124206542969      0.0999612808227539    0.000702854196360012                       0 
      -1.96996996996997                       0        1.22509396076202        41.6715698242188   -3.74482724756882E-08                254022.5                101325.5        288.124206542969      0.0999612808227539    0.000702872765063601                       0 
      -1.96496496496496                       0        1.22509396076202        41.6715698242188   -4.28788931705884E-08                254022.5                101325.5        288.124206542969      0.0999612808227539    0.000702891333767192                       0 
      -1.95995995995996                       0        1.22509396076202        41.6715698242188    -4.7561130837642E-08                254022.5                101325.5        288.124206542969      0.0999612808227539    0.000702911555910078                       0 
      -1.95495495495495                       0        1.22509396076202        41.6715698242188   -5.10421466147096E-08                254022.5                101325.5        288.124206542969      0.0999612808227539    0.000702934431971349                       0 
      -1.94994994994995                       0        1.22509396076202        41.6715698242188   -5.45231623917773E-08                254022.5                101325.5        288.124206542969      0.0999612808227539     0.00070295730803262                       0 
      -1.94494494494494                       0        1.22509396076202        41.6715698242188   -5.84852307567471E-08                254022.5                101325.5        288.124206542969      0.0999612808227539    0.000702980195240143                       0 
      -1.93993993993994                       0        1.22509396076202        41.6715698242188   -6.22432773976793E-08                254022.5                101325.5        288.124206542969      0.0999612808227539    0.000703002503162734                       0 
      -1.93493493493493                       0        1.22509396076202        41.6715698242188   -6.45402807413069E-08                254022.5                101325.5        288.124206542969      0.0999612808227539    0.000703023656092813                       0 
      -1.92992992992993                       0        1.22509396076202        41.6715698242188   -6.60206152532324E-08                254022.5                101325.5        288.124206542969      0.0999612808227539    0.000703044737600588                       0 
      -1.92492492492492                       0        1.22509396076202        41.6715698242188    -6.7500949765158E-08                254022.5                101325.5        288.124206542969      0.0999612808227539    0.000703065819108364                       0 
      -1.91991991991992                       0        1.22509396076202        41.6715698242188   -6.84388519603614E-08                254022.5                101325.5        288.124206542969      0.0999612808227539    0.000703087562094239                       0 
      -1.91491491491491                       0        1.22509396076202        41.6715698242188   -6.88219555333869E-08                254022.5                101325.5        288.124206542969      0.0999612808227539    0.000703109981638513                       0 
      -1.90990990990991                       0        1.22509396076202        41.6715698242188   -6.90642504695526E-08                254022.5                101325.5        288.124206542969      0.0999612808227539    0.000703132383792457                       0 
       -1.9049049049049                       0        1.22509396076202        41.6715698242188   -6.89817945035235E-08                254022.5                101325.5        288.124206542969      0.0999612808227539    0.000703154745838598                       0 
       -1.8998998998999                       0        1.22509396076202        41.6715698242188    -6.8827364390197E-08                254022.5                101325.5        288.124206542969      0.0999612808227539    0.000703176605174472                       0 
      -1.89489489489489                       0        1.22509396076202        41.6715698242188   -6.84100834486025E-08                254022.5                101325.5        288.124206542969      0.0999612808227539    0.000703198315765445                       0 
      -1.88988988988989                       0        1.22509396076202        41.6715698242188   -6.65053099997433E-08                254022.5                101325.5        288.124206542969      0.0999612808227539    0.000703220007226193                       0 
      -1.88488488488488                       0        1.22509396076202        41.6715698242188   -6.46861744872954E-08                254022.5                101325.5        288.124206542969      0.0999612808227539    0.000703241712593177                       0 
      -1.87987987987988                       0        1.22509396076202        41.6715698242188   -6.36172536276079E-08                254022.5                101325.5        288.124206542969      0.0999612808227539    0.000703263539783064                       0 
      -1.87487487487487                       0        1.22509396076202        41.6715698242188   -6.24738020553827E-08                254022.5                101325.5        288.124206542969      0.0999612808227539    0.000703285368311978                       0 
      -1.86986986986987                       0        1.22509396076202        41.6715698242188   -6.09984006797355E-08                254022.5                101325.5        288.124206542969      0.0999612808227539    0.000703307202804742                       0 
      -1.86486486486486                       0        1.22509396076202        41.6715698242188   -5.97478894078517E-08                254022.5                101325.5        288.124206542969      0.0999612808227539    0.000703328861012953                       0 
      -1.85985985985986                       0        1.22509396076202        41.6715698242188   -5.87939365937477E-08                254022.5                101325.5        288.124206542969      0.0999612808227539    0.000703350286757954                       0 
      -1.85485485485485                       0        1.22509396076202        41.6715698242188   -5.65367380841425E-08                254022.5                101325.5        288.124206542969      0.0999612808227539    0.000703371711800417                       0 
      -1.84984984984985                       0        1.22509396076202        41.6715698242188   -5.34860348762316E-08                254022.5                101325.5        288.124206542969      0.0999612808227539    0.000703393136415127                       0 
      -1.84484484484484                       0        1.22509396076202        41.6715698242188    -5.1458126805212E-08                254022.5                101325.5        288.124206542969      0.0999612808227539    0.000703414423978591                       0 
      -1.83983983983984                       0        1.22509396076202        41.6715698242188   -4.97670954222123E-08                254022.5                101325.5        288.124206542969      0.0999612808227539    0.000703435666401667                       0 
      -1.83483483483483                       0        1.22509396076202        41.6715698242188   -4.79759937755867E-08                254022.5                101325.5        288.124206542969      0.0999612808227539    0.000703456924801532                       0 
      -1.82982982982983                       0        1.22509396076202        41.6715698242188   -4.61908840146701E-08                254022.5                101325.5        288.124206542969      0.0999612808227539     0.00070347816908361                       0 
      -1.82482482482482                       0        1.22509396076202        41.6715698242188    -4.4587132743201E-08                254022.5                101325.5        288.124206542969      0.0999612808227539    0.000703499228600901                       0 
      -1.81981981981982                       0        1.22509396076202        41.6715698242188   -4.26329293638229E-08                254022.5                101325.5        288.124206542969      0.0999612808227539    0.000703520284544816                       0 
      -1.81481481481481                       0        1.22509396076202        41.6715698242188   -3.96608343829433E-08                254022.5                101325.5        288.124206542969      0.0999612808227539    0.000703541330109825                       0 
      -1.80980980980981                       0        1.22509396076202        41.6715698242188   -3.71425161705388E-08                254022.5                101325.5        288.124206542969      0.0999612808227539    0.000703562288769186                       0 
       -1.8048048048048                       0        1.22509396076202        41.6715698242188   -3.52442030997057E-08                254022.5                101325.5        288.124206542969      0.0999612808227539    0.000703583128687457                       0 
       -1.7997997997998                       0        1.22509396076202        41.6715698242188   -3.32220299365375E-08                254022.5                101325.5        288.124206542969      0.0999612808227539     0.00070360394798406                       0 
      -1.79479479479479                       0        1.22509396076202        41.6715698242188   -3.11092178564337E-08                254022.5                101325.5        288.124206542969      0.0999612808227539    0.000703624752190041                       0 
      -1.78978978978979                       0        1.22509396076202        41.6715698242188   -2.90602569577024E-08                254022.5                101325.5        288.124206542969      0.0999612808227539     0.00070364541871374                       0 
      -1.78478478478478                       0        1.22509396076202        41.6715698242188   -2.69865752336412E-08                254022.5                101325.5        288.124206542969      0.0999612808227539    0.000703666050187977                       0 
      -1.77977977977978                       0        1.22509396076202        41.6715698242188   -2.43194645371957E-08                254022.5                101325.5        288.124206542969      0.0999612808227539     0.00070368668996001                       0 
      -1.77477477477477                       0        1.22509396076202        41.6715698242188   -2.17940482391702E-08                254022.5                101325.5        288.124206542969      0.0999612808227539    0.000703707281299245                       0 
      -1.76976976976977                       0        1.22509396076202        41.6715698242188   -1.98633336519586E-08                254022.5                101325.5        288.124206542969      0.0999612808227539    0.000703727669362503                       0 
      -1.76476476476476                       0        1.22509396076202        41.6715698242188   -1.79482029402831E-08                254022.5                101325.5        288.124206542969      0.0999612808227539     0.00070374807323239                       0 
      -1.75975975975976                       0        1.22509396076202        41.6715698242188   -1.60740998274488E-08                254022.5                101325.5        288.124206542969      0.0999612808227539    0.000703768518716317                       0 
      -1.75475475475475                       0        1.22509396076202        41.6715698242188   -1.40592137791772E-08                254022.5                101325.5        288.124206542969      0.0999612808227539    0.000703788801433171                       0 
      -1.74974974974975                       0        1.22509396076202        41.6715698242188   -1.19544442148358E-08                254022.5                101325.5        288.124206542969      0.0999612808227539    0.000703808980914589                       0 
      -1.74474474474474                       0        1.22509396076202        41.6715698242188   -9.75872429119051E-09                254022.5                101325.5        288.124206542969      0.0999612808227539    0.000703829182899311                       0 
      -1.73973973973974                       0        1.22509396076202        41.6715698242188     -7.578356094208E-09                254022.5                101325.5        288.124206542969      0.0999612808227539     0.00070384937134958                       0 
      -1.73473473473473                       0        1.22509396076202        41.6715698242188   -5.71954041453832E-09                254022.5                101325.5        288.124206542969      0.0999612808227539      0.0007038692763114                       0 
      -1.72972972972973                       0        1.22509396076202        41.6715698242188   -3.85856742505177E-09                254022.5                101325.5        288.124206542969      0.0999612808227539    0.000703889180966564                       0 
      -1.72472472472472                       0        1.22509396076202        41.6715698242188   -1.91150815332368E-09                254022.5                101325.5        288.124206542969      0.0999612808227539    0.000703909073384783                       0 
      -1.71971971971972                       0        1.22509396076202        41.6715698242188    1.84315381716995E-10                254022.5                101325.5        288.124206542969      0.0999612808227539    0.000703928812879255                       0 
      -1.71471471471471                       0        1.22509396076202        41.6715698242188    2.43383035449585E-09                254022.5                101325.5        288.124206542969      0.0999612808227539     0.00070394839216023                       0 
      -1.70970970970971                       0        1.22509396076202        41.6715698242188    4.08565816440172E-09                254022.5                101325.5        288.124206542969      0.0999612808227539    0.000703967957106943                       0 
       -1.7047047047047                       0        1.22509396076202        41.6715698242188    5.73748597430759E-09                254022.5                101325.5        288.124206542969      0.0999612808227539    0.000703987522053656                       0 
       -1.6996996996997                       0        1.22509396076202        41.6715698242188    7.27801787254677E-09                254022.5                101325.5        288.124206542969      0.0999612808227539    0.000704006782179469                       0 
      -1.69469469469469                       0        1.22509396076202        41.6715698242188    8.81096119128515E-09                254022.5                101325.5        288.124206542969      0.0999612808227539     0.00070402602152143                       0 
      -1.68968968968969                       0        1.22509396076202        41.6715698242188    1.06839706500788E-08                254022.5                101325.5        288.124206542969      0.0999612808227539    0.000704045270226399                       0 
      -1.68468468468468                       0        1.22509396076202        41.6715698242188    1.27394148537296E-08                254022.5                101325.5        288.124206542969      0.0999612808227539    0.000704064389996392                       0 
      -1.67967967967968                       0        1.22509396076202        41.6715698242188    1.49189045851835E-08                254022.5                101325.5        288.124206542969      0.0999612808227539    0.000704083300899451                       0 
      -1.67467467467467                       0        1.22509396076202        41.6715698242188    1.57966287145184E-08                254022.5                101325.5        288.124206542969      0.0999612808227539    0.000704102236912615                       0 
      -1.66966966966967                       0        1.22509396076202        41.6715698242188    1.66743528438533E-08                254022.5                101325.5        288.124206542969      0.0999612808227539     0.00070412117292578                       0 
      -1.66466466466466                       0        1.22509396076202        41.6715698242188    1.76510100122491E-08                254022.5                101325.5        288.124206542969      0.0999612808227539    0.000704139836738804                       0 
      -1.65965965965966                       0        1.22509396076202        41.6715698242188    1.86472830770686E-08                254022.5                101325.5        288.124206542969      0.0999612808227539    0.000704158446581487                       0 
      -1.65465465465465                       0        1.22509396076202        41.6715698242188    1.97817407405668E-08                254022.5                101325.5        288.124206542969      0.0999612808227539     0.00070417705891257                       0 
      -1.64964964964965                       0        1.22509396076202        41.6715698242188    2.11063909566534E-08                254022.5                101325.5        288.124206542969      0.0999612808227539    0.000704195566974223                       0 
      -1.64464464464464                       0        1.22509396076202        41.6715698242188    2.25609631162684E-08                254022.5                101325.5        288.124206542969      0.0999612808227539     0.00070421380408545                       0 
      -1.63963963963964                       0        1.22509396076202        41.6715698242188    2.24710599214304E-08                254022.5                101325.5        288.124206542969      0.0999612808227539    0.000704232033779244                       0 
      -1.63463463463463                       0        1.22509396076202        41.6715698242188    2.23811567265924E-08                254022.5                101325.5        288.124206542969      0.0999612808227539    0.000704250263473037                       0 
      -1.62962962962963                       0        1.22509396076202        41.6715698242188    2.25759330960678E-08                254022.5                101325.5        288.124206542969      0.0999612808227539    0.000704268234081325                       0 
      -1.62462462462462                       0        1.22509396076202        41.6715698242188    2.28772115988521E-08                254022.5                101325.5        288.124206542969      0.0999612808227539    0.000704286107762532                       0 
      -1.61961961961962                       0        1.22509396076202        41.6715698242188    2.33855355745658E-08                254022.5                101325.5        288.124206542969      0.0999612808227539    0.000704303980881946                       0 
      -1.61461461461461                       0        1.22509396076202        41.6715698242188    2.44460829510398E-08                254022.5                101325.5        288.124206542969      0.0999612808227539    0.000704321792517312                       0 
      -1.60960960960961                       0        1.22509396076202        41.6715698242188    2.57222029639061E-08                254022.5                101325.5        288.124206542969      0.0999612808227539    0.000704339315392299                       0 
       -1.6046046046046                       0        1.22509396076202        41.6715698242188    2.50364341369622E-08                254022.5                101325.5        288.124206542969      0.0999612808227539    0.000704356855535299                       0 
       -1.5995995995996                       0        1.22509396076202        41.6715698242188    2.43506653100183E-08                254022.5                101325.5        288.124206542969      0.0999612808227539    0.000704374395678299                       0 
      -1.59459459459459                       0        1.22509396076202        41.6715698242188     2.4036270987838E-08                254022.5                101325.5        288.124206542969      0.0999612808227539    0.000704391694070522                       0 
      -1.58958958958959                       0        1.22509396076202        41.6715698242188    2.39549718870565E-08                254022.5                101325.5        288.124206542969      0.0999612808227539    0.000704408840726557                       0 
      -1.58458458458458                       0        1.22509396076202        41.6715698242188    2.38990439563286E-08                254022.5                101325.5        288.124206542969      0.0999612808227539    0.000704425988226352                       0 
      -1.57957957957958                       0        1.22509396076202        41.6715698242188     2.5152782775279E-08                254022.5                101325.5        288.124206542969      0.0999612808227539    0.000704443155308281                       0 
      -1.57457457457457                       0        1.22509396076202        41.6715698242188    2.66732641845057E-08                254022.5                101325.5        288.124206542969      0.0999612808227539    0.000704459947690409                       0 
      -1.56956956956957                       0        1.22509396076202        41.6715698242188    2.59149359743617E-08                254022.5                101325.5        288.124206542969      0.0999612808227539    0.000704476752779609                       0 
      -1.56456456456456                       0        1.22509396076202        41.6715698242188    2.51566077642178E-08                254022.5                101325.5        288.124206542969      0.0999612808227539    0.000704493557868808                       0 
      -1.55955955955956                       0        1.22509396076202        41.6715698242188    2.49117947149673E-08                254022.5                101325.5        288.124206542969      0.0999612808227539     0.00070451019088737                       0 
      -1.55455455455455                       0        1.22509396076202        41.6715698242188    2.51830497177445E-08                254022.5                101325.5        288.124206542969      0.0999612808227539    0.000704526650979861                       0 
      -1.54954954954955                       0        1.22509396076202        41.6715698242188    2.54543047205216E-08                254022.5                101325.5        288.124206542969      0.0999612808227539    0.000704543111072352                       0 
      -1.54454454454454                       0        1.22509396076202        41.6715698242188    2.68674841146233E-08                254022.5                101325.5        288.124206542969      0.0999612808227539    0.000704559557514651                       0 
      -1.53953953953954                       0        1.22509396076202        41.6715698242188    2.90321011390635E-08                254022.5                101325.5        288.124206542969      0.0999612808227539    0.000704575654264616                       0 
      -1.53453453453453                       0        1.22509396076202        41.6715698242188    2.89302443827531E-08                254022.5                101325.5        288.124206542969      0.0999612808227539    0.000704591684733468                       0 
      -1.52952952952953                       0        1.22509396076202        41.6715698242188    2.88283876264427E-08                254022.5                101325.5        288.124206542969      0.0999612808227539    0.000704607715202319                       0 
      -1.52452452452452                       0        1.22509396076202        41.6715698242188    2.92680451902267E-08                254022.5                101325.5        288.124206542969      0.0999612808227539    0.000704623606358294                       0 
      -1.51951951951952                       0        1.22509396076202        41.6715698242188    3.05601029181447E-08                254022.5                101325.5        288.124206542969      0.0999612808227539    0.000704639278221234                       0 
      -1.51451451451451                       0        1.22509396076202        41.6715698242188    3.18521606460627E-08                254022.5                101325.5        288.124206542969      0.0999612808227539    0.000704654950084173                       0 
      -1.50950950950951                       0        1.22509396076202        41.6715698242188    3.36841159027639E-08                254022.5                101325.5        288.124206542969      0.0999612808227539    0.000704670635544506                       0 
       -1.5045045045045                       0        1.22509396076202        41.6715698242188    3.67214976437116E-08                254022.5                101325.5        288.124206542969       0.099961282200866    0.000704686069144339                       0 
       -1.4994994994995                       0        1.22509396076202        41.6715698242188    3.81928274942674E-08                254022.5                101325.5        288.124206542969      0.0999612832173958      0.0007047014892845                       0 
      -1.49449449449449                       0        1.22509396076202        41.6715698242188    3.96641573448232E-08                254022.5                101325.5        288.124206542969      0.0999612842339256    0.000704716909424662                       0 
      -1.48948948948949                       0        1.22509396076202        41.6715698242188    4.15416691427446E-08                254022.5                101325.5        288.124206542969      0.0999612852508706    0.000704732209468206                       0 
      -1.48448448448448                       0        1.22509396076202        41.6715698242188    4.43967612968431E-08                254022.5                101325.5        288.124206542969      0.0999612862688147    0.000704747220468638                       0 
      -1.47947947947948                       0        1.22509396076202        41.6715698242188    4.72518534509418E-08                254022.5                101325.5        288.124206542969      0.0999612872867588     0.00070476223146907                       0 
      -1.47447447447447                       0        1.22509396076202        41.6715698242188    5.01479113496102E-08                254022.5                101325.5        288.124206542969      0.0999612882733345     0.00070477724319806                       0 
      -1.46946946946947                       0        1.22509396076202        41.6715698242188    5.40533284032372E-08                254022.5                101325.5        288.124206542969      0.0999612882733345    0.000704791972345321                       0 
      -1.46446446446446                       0        1.22509396076202        41.6715698242188    5.69461158862307E-08                254022.5                101325.5        288.124206542969      0.0999612882733345    0.000704806595537012                       0 
      -1.45945945945946                       0        1.22509396076202        41.6715698242188    5.98389033692241E-08                254022.5                101325.5        288.124206542969      0.0999612882733345    0.000704821218728703                       0 
      -1.45445445445445                       0        1.22509396076202        41.6715698242188    6.29288976481134E-08                254022.5                101325.5        288.124206542969      0.0999612882733345    0.000704835764650354                       0 
      -1.44944944944945                       0        1.22509396076202        41.6715698242188    6.67494349899544E-08                254022.5                101325.5        288.124206542969      0.0999612882733345    0.000704850024328867                       0 
      -1.44444444444444                       0        1.22509396076202        41.6715698242188    7.05699723317954E-08                254022.5                101325.5        288.124206542969      0.0999612882733345     0.00070486428400738                       0 