VARIABLES = "x"
 "y"
 "Density"
 "Momentum_x"
 "Momentum_y"
 "Energy"
 "Pressure"
 "Temperature"
 "Mach"
 "C<sub>p</sub>"
 "Roe_Dissipation"
ZONE
DT=(DOUBLE,DOUBLE,DOUBLE,DOUBLE,DOUBLE,DOUBLE,DOUBLE,DOUBLE,DOUBLE,DOUBLE,DOUBLE)
                     -2                       0        1.22509396076202        41.6699905395508    8.97687132961345E-12            254022.59375          101325.6015625        288.124206542969      0.0999574363231659    0.000779407506342977                       0 
      -1.99499499499499                       0        1.22509396076202        41.6699905395508    6.74948346586824E-11            254022.59375          101325.6015625        288.124206542969      0.0999574363231659    0.000779419593566372                       0 
      -1.98998998998999                       0        1.22509396076202        41.6699905395508    1.26012797987753E-10            254022.59375          101325.6015625        288.124206542969      0.0999574363231659    0.000779431680789768                       0 
      -1.98498498498498                       0        1.22509396076202        41.6699905395508     1.8453076131682E-10            254022.59375          101325.6015625        288.124206542969      0.0999574363231659    0.000779443768013163                       0 
      -1.97997997997998                       0        1.22509396076202        41.6699905395508     2.4304872464589E-10            254022.59375          101325.6015625        288.124206542969      0.0999574363231659    0.000779455855236558                       0 
      -1.97497497497497                       0        1.22509396076202        41.6699905395508    3.01566687974959E-10            254022.59375          101325.6015625        288.124206542969      0.0999574363231659    0.000779467942459953                       0 
      -1.96996996996997                       0        1.22509396076202        41.6699905395508    3.60084651304028E-10            254022.59375          101325.6015625        288.124206542969      0.0999574363231659    0.000779480029683348                       0 
      -1.96496496496496                       0        1.22509396076202        41.6699905395508    4.20942292793072E-10            254022.59375          101325.6015625        288.124206542969      0.0999574363231659    0.000779491275548538                       0 
      -1.95995995995996                       0        1.22509396076202        41.6699905395508    4.89062342132192E-10            254022.59375          101325.6015625        288.124206542969      0.0999574363231659    0.000779499909821015                       0 
      -1.95495495495495                       0        1.22509396076202        41.6699905395508    5.57182391471309E-10            254022.59375          101325.6015625        288.124206542969      0.0999574363231659    0.000779508544093492                       0 
      -1.94994994994995                       0        1.22509396076202        41.6699905395508    6.25302440810429E-10            254022.59375          101325.6015625        288.124206542969      0.0999574363231659    0.000779517178365969                       0 
      -1.94494494494494                       0        1.22509396076202        41.6699905395508    6.93422490149548E-10            254022.59375          101325.6015625        288.124206542969      0.0999574363231659    0.000779525812638446                       0 
      -1.93993993993994                       0        1.22509396076202        41.6699905395508    7.61542539488667E-10            254022.59375          101325.6015625        288.124206542969      0.0999574363231659    0.000779534446910923                       0 
      -1.93493493493493                       0        1.22509396076202        41.6699905395508    8.29662588827786E-10            254022.59375          101325.6015625        288.124206542969      0.0999574363231659      0.0007795430811834                       0 
      -1.92992992992993                       0        1.22509396076202        41.6699905395508    8.75920202001283E-10            254022.59375          101325.6015625        288.124206542969      0.0999574363231659    0.000779552203387217                       0 
      -1.92492492492492                       0        1.22509396076202        41.6699905395508    9.17405483188752E-10            254022.59375          101325.6015625        288.124206542969      0.0999574363231659    0.000779561894625423                       0 
      -1.91991991991992                       0        1.22509396076202        41.6699905395508     9.5889076437622E-10            254022.59375          101325.6015625        288.124206542969      0.0999574363231659    0.000779571585863629                       0 
      -1.91491491491491                       0        1.22509396076202        41.6699905395508    1.00037604556369E-09            254022.59375          101325.6015625        288.124206542969      0.0999574363231659    0.000779581277101836                       0 
      -1.90990990990991                       0        1.22509396076202        41.6699905395508    1.04186132675116E-09            254022.59375          101325.6015625        288.124206542969      0.0999574363231659    0.000779590968340042                       0 
       -1.9049049049049                       0        1.22509396076202        41.6699905395508    1.08334660793862E-09            254022.59375          101325.6015625        288.124206542969      0.0999574363231659    0.000779600659578248                       0 
       -1.8998998998999                       0        1.22509396076202        41.6699905395508    1.12483188912609E-09            254022.59375          101325.6015625        288.124206542969      0.0999574363231659    0.000779610350816454                       0 
      -1.89489489489489                       0        1.22509396076202        41.6699905395508    1.17325471018136E-09            254022.59375          101325.6015625        288.124206542969      0.0999574363231659    0.000779619712663497                       0 
      -1.88988988988989                       0        1.22509396076202        41.6699905395508    1.22493125604832E-09            254022.59375          101325.6015625        288.124206542969      0.0999574363231659    0.000779628920025202                       0 
      -1.88488488488488                       0        1.22509396076202        41.6699905395508    1.27660780191527E-09            254022.59375          101325.6015625        288.124206542969      0.0999574363231659    0.000779638127386907                       0 
      -1.87987987987988                       0        1.22509396076202        41.6699905395508    1.32828434778222E-09            254022.59375          101325.6015625        288.124206542969      0.0999574363231659    0.000779647334748611                       0 
      -1.87487487487487                       0        1.22509396076202        41.6699905395508    1.37996089364918E-09            254022.59375          101325.6015625        288.124206542969      0.0999574363231659    0.000779656542110316                       0 
      -1.86986986986987                       0        1.22509396076202        41.6699905395508    1.43163743951613E-09            254022.59375          101325.6015625        288.124206542969      0.0999574363231659    0.000779665749472021                       0 
      -1.86486486486486                       0        1.22509396076202        41.6699905395508    1.48331398538308E-09            254022.59375          101325.6015625        288.124206542969      0.0999574363231659    0.000779674956833725                       0 
      -1.85985985985986                       0        1.22509396076202        41.6699905395508    1.55428691032631E-09            254022.59375          101325.6015625        288.124206542969      0.0999574363231659    0.000779684397149171                       0 
      -1.85485485485485                       0        1.22509396076202        41.6699905395508    1.56606941653046E-09            254022.59375          101325.6015625        288.124206542969      0.0999574363231659    0.000779693867586382                       0 
      -1.84984984984985                       0        1.22509396076202        41.6699905395508    1.57785192273462E-09            254022.59375          101325.6015625        288.124206542969      0.0999574363231659    0.000779703338023593                       0 
      -1.84484484484484                       0        1.22509396076202        41.6699905395508    1.58963442893877E-09            254022.59375          101325.6015625        288.124206542969      0.0999574363231659    0.000779712808460803                       0 
      -1.83983983983984                       0        1.22509396076202        41.6699905395508    1.60141693514292E-09            254022.59375          101325.6015625        288.124206542969      0.0999574363231659    0.000779722278898014                       0 
      -1.83483483483483                       0        1.22509396076202        41.6699905395508    1.61319944134707E-09            254022.59375          101325.6015625        288.124206542969      0.0999574363231659    0.000779731749335224                       0 
      -1.82982982982983                       0        1.22509396076202        41.6699905395508     1.6263769360685E-09            254022.59375          101325.6015625        288.124206542969      0.0999574363231659    0.000779741195568147                       0 
      -1.82482482482482                       0        1.22509396076202        41.6699905395508    1.65000954940571E-09            254022.59375          101325.6015625        288.124206542969      0.0999574363231659    0.000779750460395488                       0 
      -1.81981981981982                       0        1.22509396076202        41.6699905395508    1.67364216274293E-09            254022.59375          101325.6015625        288.124206542969      0.0999574363231659     0.00077975972522283                       0 
      -1.81481481481481                       0        1.22509396076202        41.6699905395508    1.69727477608014E-09            254022.59375          101325.6015625        288.124206542969      0.0999574363231659    0.000779768990050172                       0 
      -1.80980980980981                       0        1.22509396076202        41.6699905395508    1.72090738941735E-09            254022.59375          101325.6015625        288.124206542969      0.0999574363231659    0.000779778254877513                       0 
       -1.8048048048048                       0        1.22509396076202        41.6699905395508    1.74454000275457E-09            254022.59375          101325.6015625        288.124206542969      0.0999574363231659    0.000779787519704855                       0 
       -1.7997997997998                       0        1.22509396076202        41.6699905395508    1.76817261609178E-09            254022.59375          101325.6015625        288.124206542969      0.0999574363231659    0.000779796784532197                       0 
      -1.79479479479479                       0        1.22509396076202        41.6699905395508    1.88380742010871E-09            254022.59375          101325.6015625        288.124206542969      0.0999574363231659    0.000779806052379248                       0 
      -1.78978978978979                       0        1.22509396076202        41.6699905395508    1.87037240130249E-09            254022.59375          101325.6015625        288.124206542969      0.0999574363231659    0.000779815327033754                       0 
      -1.78478478478478                       0        1.22509396076202        41.6699905395508    1.85693738249628E-09            254022.59375          101325.6015625        288.124206542969      0.0999574363231659     0.00077982460168826                       0 
      -1.77977977977978                       0        1.22509396076202        41.6699905395508    1.84350236369006E-09            254022.59375          101325.6015625        288.124206542969      0.0999574363231659    0.000779833876342766                       0 
      -1.77477477477477                       0        1.22509396076202        41.6699905395508    1.83006734488385E-09            254022.59375          101325.6015625        288.124206542969      0.0999574363231659    0.000779843150997272                       0 
      -1.76976976976977                       0        1.22509396076202        41.6699905395508    1.81663232607763E-09            254022.59375          101325.6015625        288.124206542969      0.0999574363231659    0.000779852425651779                       0 
      -1.76476476476476                       0        1.22509396076202        41.6699905395508    1.80319730727142E-09            254022.59375          101325.6015625        288.124206542969      0.0999574363231659    0.000779861700306284                       0 
      -1.75975975975976                       0        1.22509396076202        41.6699905395508    1.80095305436306E-09            254022.59375          101325.6015625        288.124206542969      0.0999574363231659    0.000779870927567639                       0 
      -1.75475475475475                       0        1.22509396076202        41.6699905395508    1.81118857413831E-09            254022.59375          101325.6015625        288.124206542969      0.0999574363231659     0.00077988010197687                       0 
      -1.74974974974975                       0        1.22509396076202        41.6699905395508    1.82142409391355E-09            254022.59375          101325.6015625        288.124206542969      0.0999574363231659      0.0007798892763861                       0 
      -1.74474474474474                       0        1.22509396076202        41.6699905395508    1.83165961368879E-09            254022.59375          101325.6015625        288.124206542969      0.0999574363231659     0.00077989845079533                       0 
      -1.73973973973974                       0        1.22509396076202        41.6699905395508    1.84189513346404E-09            254022.59375          101325.6015625        288.124206542969      0.0999574363231659     0.00077990762520456                       0 
      -1.73473473473473                       0        1.22509396076202        41.6699905395508    1.85213065323928E-09            254022.59375          101325.6015625        288.124206542969      0.0999574363231659     0.00077991679961379                       0 
      -1.72972972972973                       0        1.22509396076202        41.6699905395508    1.86236617301453E-09            254022.59375          101325.6015625        288.124206542969      0.0999574363231659     0.00077992597402302                       0 
      -1.72472472472472                       0        1.22509396076202        41.6699905395508    1.89176399994243E-09            254022.59375          101325.6015625        288.124206542969      0.0999574363231659    0.000779935261180454                       0 
      -1.71971971971972                       0        1.22509396076202        41.6699905395508    1.87037716586781E-09            254022.59375          101325.6015625        288.124206542969      0.0999574363231659    0.000779944603529654                       0 
      -1.71471471471471                       0        1.22509396076202        41.6699905395508    1.84899033179319E-09            254022.59375          101325.6015625        288.124206542969      0.0999574363231659    0.000779953945878854                       0 
      -1.70970970970971                       0        1.22509396076202        41.6699905395508    1.82760349771857E-09            254022.59375          101325.6015625        288.124206542969      0.0999574363231659    0.000779963288228054                       0 
       -1.7047047047047                       0        1.22509396076202        41.6699905395508    1.80621666364395E-09            254022.59375          101325.6015625        288.124206542969      0.0999574363231659    0.000779972630577255                       0 
       -1.6996996996997                       0        1.22509396076202        41.6699905395508    1.78482982956933E-09            254022.59375          101325.6015625        288.124206542969      0.0999574363231659    0.000779981972926455                       0 
      -1.69469469469469                       0        1.22509396076202        41.6699905395508    1.76344299549471E-09            254022.59375          101325.6015625        288.124206542969      0.0999574363231659    0.000779991315275655                       0 
      -1.68968968968969                       0        1.22509396076202        41.6699905395508    1.76253639149341E-09            254022.59375          101325.6015625        288.124206542969      0.0999574363231659    0.000780000678292894                       0 
      -1.68468468468468                       0        1.22509396076202        41.6699905395508    1.76377830239437E-09            254022.59375          101325.6015625        288.124206542969      0.0999574363231659    0.000780010043478349                       0 
      -1.67967967967968                       0        1.22509396076202        41.6699905395508    1.76502021329533E-09            254022.59375          101325.6015625        288.124206542969      0.0999574363231659    0.000780019408663805                       0 
      -1.67467467467467                       0        1.22509396076202        41.6699905395508    1.76626212419629E-09            254022.59375          101325.6015625        288.124206542969      0.0999574363231659    0.000780028773849261                       0 
      -1.66966966966967                       0        1.22509396076202        41.6699905395508    1.76750403509725E-09            254022.59375          101325.6015625        288.124206542969      0.0999574363231659    0.000780038139034717                       0 
      -1.66466466466466                       0        1.22509396076202        41.6699905395508    1.76874594599821E-09            254022.59375          101325.6015625        288.124206542969      0.0999574363231659    0.000780047504220173                       0 
      -1.65965965965966                       0        1.22509396076202        41.6699905395508    1.90343233135173E-09            254022.59375          101325.6015625        288.124206542969      0.0999574363231659    0.000780056864226623                       0 
      -1.65465465465465                       0        1.22509396076202        41.6699905395508    1.88242101584469E-09            254022.59375          101325.6015625        288.124206542969      0.0999574363231659    0.000780066207962608                       0 
      -1.64964964964965                       0        1.22509396076202        41.6699905395508    1.86140970033765E-09            254022.59375          101325.6015625        288.124206542969      0.0999574363231659    0.000780075551698593                       0 
      -1.64464464464464                       0        1.22509396076202        41.6699905395508    1.84039838483062E-09            254022.59375          101325.6015625        288.124206542969      0.0999574363231659    0.000780084895434578                       0 
      -1.63963963963964                       0        1.22509396076202        41.6699905395508    1.81938706932358E-09            254022.59375          101325.6015625        288.124206542969      0.0999574363231659    0.000780094239170562                       0 
      -1.63463463463463                       0        1.22509396076202        41.6699905395508    1.79837575381655E-09            254022.59375          101325.6015625        288.124206542969      0.0999574363231659    0.000780103582906547                       0 
      -1.62962962962963                       0        1.22509396076202        41.6699905395508     1.7773644383095E-09            254022.59375          101325.6015625        288.124206542969      0.0999574363231659    0.000780112926642532                       0 
      -1.62462462462462                       0        1.22509396076202        41.6699905395508    1.76771001370128E-09            254022.59375          101325.6015625        288.124206542969      0.0999574363231659     0.00078012218832896                       0 
      -1.61961961961962                       0        1.22509396076202        41.6699905395508    1.76618564829305E-09            254022.59375          101325.6015625        288.124206542969      0.0999574363231659     0.00078013139127856                       0 
      -1.61461461461461                       0        1.22509396076202        41.6699905395508    1.76466128288483E-09            254022.59375          101325.6015625        288.124206542969      0.0999574363231659     0.00078014059422816                       0 
      -1.60960960960961                       0        1.22509396076202        41.6699905395508     1.7631369174766E-09            254022.59375          101325.6015625        288.124206542969      0.0999574363231659     0.00078014979717776                       0 
       -1.6046046046046                       0        1.22509396076202        41.6699905395508    1.76161255206837E-09            254022.59375          101325.6015625        288.124206542969      0.0999574363231659    0.000780159000127359                       0 
       -1.5995995995996                       0        1.22509396076202        41.6699905395508    1.76008818666014E-09            254022.59375          101325.6015625        288.124206542969      0.0999574363231659    0.000780168203076959                       0 
      -1.59459459459459                       0        1.22509396076202        41.6699905395508    1.75856382125191E-09            254022.59375          101325.6015625        288.124206542969      0.0999574363231659    0.000780177406026559                       0 
      -1.58958958958959                       0        1.22509396076202        41.6699905395508    1.73011797072005E-09            254022.59375          101325.6015625        288.124206542969      0.0999574363231659    0.000780186399980536                       0 
      -1.58458458458458                       0        1.22509396076202        41.6699905395508    1.71502044913453E-09            254022.59375          101325.6015625        288.124206542969      0.0999574363231659    0.000780195359061305                       0 
      -1.57957957957958                       0        1.22509396076202        41.6699905395508    1.69992292754902E-09            254022.59375          101325.6015625        288.124206542969      0.0999574363231659    0.000780204318142075                       0 
      -1.57457457457457                       0        1.22509396076202        41.6699905395508     1.6848254059635E-09            254022.59375          101325.6015625        288.124206542969      0.0999574363231659    0.000780213277222844                       0 
      -1.56956956956957                       0        1.22509396076202        41.6699905395508    1.66972788437798E-09            254022.59375          101325.6015625        288.124206542969      0.0999574363231659    0.000780222236303613                       0 
      -1.56456456456456                       0        1.22509396076202        41.6699905395508    1.65463036279247E-09            254022.59375          101325.6015625        288.124206542969      0.0999574363231659    0.000780231195384383                       0 
      -1.55955955955956                       0        1.22509396076202        41.6699905395508    1.64343740534145E-09            254022.59375          101325.6015625        288.124206542969      0.0999574363231659    0.000780240143956339                       0 
      -1.55455455455455                       0        1.22509396076202        41.6699905395508    1.66643946651568E-09            254022.59375          101325.6015625        288.124206542969      0.0999574363231659    0.000780249000495223                       0 
      -1.54954954954955                       0        1.22509396076202        41.6699905395508    1.68944152768991E-09            254022.59375          101325.6015625        288.124206542969      0.0999574363231659    0.000780257857034107                       0 
      -1.54454454454454                       0        1.22509396076202        41.6699905395508    1.71244358886414E-09            254022.59375          101325.6015625        288.124206542969      0.0999574363231659    0.000780266713572991                       0 
      -1.53953953953954                       0        1.22509396076202        41.6699905395508    1.73544565003837E-09            254022.59375          101325.6015625        288.124206542969      0.0999574363231659    0.000780275570111874                       0 
      -1.53453453453453                       0        1.22509396076202        41.6699905395508     1.7584477112126E-09            254022.59375          101325.6015625        288.124206542969      0.0999574363231659    0.000780284426650758                       0 
      -1.52952952952953                       0        1.22509396076202        41.6699905395508    1.78144977238683E-09            254022.59375          101325.6015625        288.124206542969      0.0999574363231659    0.000780293283189642                       0 
      -1.52452452452452                       0        1.22509396076202        41.6699905395508    1.54362026503247E-09            254022.59375          101325.6015625        288.124206542969      0.0999574363231659    0.000780302202262753                       0 
      -1.51951951951952                       0        1.22509396076202        41.6699905395508    1.53610913781385E-09            254022.59375          101325.6015625        288.124206542969      0.0999574363231659    0.000780311240043216                       0 
      -1.51451451451451                       0        1.22509396076202        41.6699905395508    1.52859801059522E-09            254022.59375          101325.6015625        288.124206542969      0.0999574363231659    0.000780320277823678                       0 
      -1.50950950950951                       0        1.22509396076202        41.6699905395508     1.5210868833766E-09            254022.59375          101325.6015625        288.124206542969      0.0999574363231659    0.000780329315604141                       0 
       -1.5045045045045                       0        1.22509396076202        41.6699905395508    1.51357575615797E-09            254022.59375          101325.6015625        288.124206542969      0.0999574363231659    0.000780338353384603                       0 
       -1.4994994994995                       0        1.22509396076202        41.6699905395508    1.50606462893935E-09            254022.59375          101325.6015625        288.124206542969      0.0999574363231659    0.000780347391165066                       0 
      -1.49449449449449                       0        1.22509396076202        41.6699905395508    1.49855350172072E-09            254022.59375          101325.6015625        288.124206542969      0.0999574363231659    0.000780356428945528                       0 
      -1.48948948948949                       0        1.22509396076202        41.6699905395508    1.52737637296266E-09            254022.59375          101325.6015625        288.124206542969      0.0999574363231659    0.000780365429787243                       0 
      -1.48448448448448                       0        1.22509396076202        41.6699905395508    1.57825578731977E-09            254022.59375          101325.6015625        288.124206542969      0.0999574363231659    0.000780374408205303                       0 
      -1.47947947947948                       0        1.22509396076202        41.6699905395508    1.62913520167689E-09            254022.59375          101325.6015625        288.124206542969      0.0999574363231659    0.000780383386623362                       0 
      -1.47447447447447                       0        1.22509396076202        41.6699905395508      1.680014616034E-09            254022.59375          101325.6015625        288.124206542969      0.0999574363231659    0.000780392365041422                       0 
      -1.46946946946947                       0        1.22509396076202        41.6699905395508    1.73089403039112E-09            254022.59375          101325.6015625        288.124206542969      0.0999574363231659    0.000780401343459481                       0 
      -1.46446446446446                       0        1.22509396076202        41.6699905395508    1.78177344474823E-09            254022.59375          101325.6015625        288.124206542969      0.0999574363231659    0.000780410321877541                       0 
      -1.45945945945946                       0        1.22509396076202        41.6699905395508    1.78831762903131E-09            254022.59375          101325.6015625        288.124206542969      0.0999574363231659    0.000780419300744284                       0 
      -1.45445445445445                       0        1.22509396076202        41.6699905395508    1.85949238325311E-09            254022.59375          101325.6015625        288.124206542969      0.0999574363231659    0.000780428189976882                       0 
      -1.44944944944945                       0        1.22509396076202        41.6699905395508    1.87383036539353E-09            254022.59375          101325.6015625        288.124206542969      0.0999574363231659    0.000780437077558333                       0 
      -1.44444444444444                       0        1.22509396076202        41.6699905395508    1.88816834753394E-09            254022.59375          101325.6015625        288.124206542969      0.0999574363231659    0.000780445965139783                       0 