VARIABLES = "x"
 "y"
 "Density"
 "Momentum_x"
 "Momentum_y"
 "Energy"
 "Pressure"
 "Temperature"
 "Mach"
 "C<sub>p</sub>"
 "Roe_Dissipation"
ZONE
DT=(DOUBLE,DOUBLE,DOUBLE,DOUBLE,DOUBLE,DOUBLE,DOUBLE,DOUBLE,DOUBLE,DOUBLE,DOUBLE)
                     -2                       0        1.22509896755219        41.6534118652344   -1.80098824742458E-10            254023.40625          101326.1015625        288.124694824219      0.0999171882867813      0.0015822839923203                       0 
      -1.99499499499499                       0        1.22509896755219        41.6534118652344    -4.6995684956324E-10            254023.40625          101326.1015625        288.124694824219      0.0999171882867813     0.00158228945781392                       0 
      -1.98998998998999                       0        1.22509896755219        41.6534118652344   -7.59814874384023E-10            254023.40625          101326.1015625        288.124694824219      0.0999171882867813     0.00158229492330754                       0 
      -1.98498498498498                       0        1.22509896755219        41.6534118652344    -1.0496728992048E-09            254023.40625          101326.1015625        288.124694824219      0.0999171882867813     0.00158230038880116                       0 
      -1.97997997997998                       0        1.22509896755219        41.6534118652344   -1.33953092402559E-09            254023.40625          101326.1015625        288.124694824219      0.0999171882867813     0.00158230585429478                       0 
      -1.97497497497497                       0        1.22509896755219        41.6534118652344   -1.62938894884637E-09            254023.40625          101326.1015625        288.124694824219      0.0999171882867813      0.0015823113197884                       0 
      -1.96996996996997                       0        1.22509896755219        41.6534118652344   -1.91924697366715E-09            254023.40625          101326.1015625        288.124694824219      0.0999171882867813     0.00158231678528202                       0 
      -1.96496496496496                       0        1.22509896755219        41.6534118652344   -2.20910499848793E-09            254023.40625          101326.1015625        288.124694824219      0.0999171882867813     0.00158232225077564                       0 
      -1.95995995995996                       0        1.22509896755219        41.6534118652344   -2.49896302330871E-09            254023.40625          101326.1015625        288.124694824219      0.0999171882867813     0.00158232771626926                       0 
      -1.95495495495495                       0        1.22509896755219        41.6534118652344   -2.78882104812949E-09            254023.40625          101326.1015625        288.124694824219      0.0999171882867813     0.00158233318176288                       0 
      -1.94994994994995                       0        1.22509896755219        41.6534118652344   -3.07867907295028E-09            254023.40625          101326.1015625        288.124694824219      0.0999171882867813      0.0015823386472565                       0 
      -1.94494494494494                       0        1.22509896755219        41.6534118652344   -3.36853709777106E-09            254023.40625          101326.1015625        288.124694824219      0.0999171882867813     0.00158234411275012                       0 
      -1.93993993993994                       0        1.22509896755219        41.6534118652344   -3.65839512259184E-09            254023.40625          101326.1015625        288.124694824219      0.0999171882867813     0.00158234957824374                       0 
      -1.93493493493493                       0        1.22509896755219        41.6534118652344   -3.94825314741262E-09            254023.40625          101326.1015625        288.124694824219      0.0999171882867813     0.00158235504373736                       0 
      -1.92992992992993                       0        1.22509896755219        41.6534118652344    -4.2381111722334E-09            254023.40625          101326.1015625        288.124694824219      0.0999171882867813     0.00158236050923097                       0 
      -1.92492492492492                       0        1.22509896755219        41.6534118652344   -4.52796919705419E-09            254023.40625          101326.1015625        288.124694824219      0.0999171882867813     0.00158236597472459                       0 
      -1.91991991991992                       0        1.22509896755219        41.6534118652344   -4.81782722187497E-09            254023.40625          101326.1015625        288.124694824219      0.0999171882867813     0.00158237144021821                       0 
      -1.91491491491491                       0        1.22509896755219        41.6534118652344   -5.10768524669575E-09            254023.40625          101326.1015625        288.124694824219      0.0999171882867813     0.00158237690571183                       0 
      -1.90990990990991                       0        1.22509896755219        41.6534118652344   -5.39754327151653E-09            254023.40625          101326.1015625        288.124694824219      0.0999171882867813     0.00158238237120545                       0 
       -1.9049049049049                       0        1.22509896755219        41.6534118652344   -5.68740129633731E-09            254023.40625          101326.1015625        288.124694824219      0.0999171882867813     0.00158238783669907                       0 
       -1.8998998998999                       0        1.22509896755219        41.6534118652344   -5.97725932115809E-09            254023.40625          101326.1015625        288.124694824219      0.0999171882867813     0.00158239330219269                       0 
      -1.89489489489489                       0        1.22509896755219        41.6534118652344   -6.24496769546217E-09            254023.40625          101326.1015625        288.124694824219      0.0999171882867813     0.00158239867252965                       0 
      -1.88988988988989                       0        1.22509896755219        41.6534118652344   -6.51123736893513E-09            254023.40625          101326.1015625        288.124694824219      0.0999171882867813     0.00158240403668584                       0 
      -1.88488488488488                       0        1.22509896755219        41.6534118652344   -7.10758975566293E-09            254023.40625          101326.1015625        288.124694824219      0.0999171882867813     0.00158240810459619                       0 
      -1.87987987987988                       0        1.22509896755219        41.6534118652344   -7.50530773949905E-09            254023.40625          101326.1015625        288.124694824219      0.0999171882867813     0.00158241166146698                       0 
      -1.87487487487487                       0        1.22509896755219        41.6534118652344   -6.85783783178336E-09            254023.40625          101326.1015625        288.124694824219      0.0999171882867813     0.00158241549532882                       0 
      -1.86986986986987                       0        1.22509896755219        41.6534118652344   -6.21036792406767E-09            254023.40625          101326.1015625        288.124694824219      0.0999171882867813     0.00158241932919067                       0 
      -1.86486486486486                       0        1.22509896755219        41.6534118652344   -5.56289801635197E-09            254023.40625          101326.1015625        288.124694824219      0.0999171882867813     0.00158242316305252                       0 
      -1.85985985985986                       0        1.22509896755219        41.6534118652344   -4.91542810863628E-09            254023.40625          101326.1015625        288.124694824219      0.0999171882867813     0.00158242699691436                       0 
      -1.85485485485485                       0        1.22509896755219        41.6534118652344   -4.26795820092059E-09            254023.40625          101326.1015625        288.124694824219      0.0999171882867813     0.00158243083077621                       0 
      -1.84984984984985                       0        1.22509896755219        41.6534118652344   -3.62048829320489E-09            254023.40625          101326.1015625        288.124694824219      0.0999171882867813     0.00158243466463806                       0 
      -1.84484484484484                       0        1.22509896755219        41.6534118652344    -2.9730183854892E-09            254023.40625          101326.1015625        288.124694824219      0.0999171882867813      0.0015824384984999                       0 
      -1.83983983983984                       0        1.22509896755219        41.6534118652344   -2.32554847777351E-09            254023.40625          101326.1015625        288.124694824219      0.0999171882867813     0.00158244233236175                       0 
      -1.83483483483483                       0        1.22509896755219        41.6534118652344   -1.67807857005782E-09            254023.40625          101326.1015625        288.124694824219      0.0999171882867813      0.0015824461662236                       0 
      -1.82982982982983                       0        1.22509896755219        41.6534118652344   -1.03060866234212E-09            254023.40625          101326.1015625        288.124694824219      0.0999171882867813     0.00158245000008545                       0 
      -1.82482482482482                       0        1.22509896755219        41.6534118652344   -3.83138754626428E-10            254023.40625          101326.1015625        288.124694824219      0.0999171882867813     0.00158245383394729                       0 
      -1.81981981981982                       0        1.22509896755219        41.6534118652344    2.64331153089265E-10            254023.40625          101326.1015625        288.124694824219      0.0999171882867813     0.00158245766780914                       0 
      -1.81481481481481                       0        1.22509896755219        41.6534118652344    9.11801060804959E-10            254023.40625          101326.1015625        288.124694824219      0.0999171882867813     0.00158246150167099                       0 
      -1.80980980980981                       0        1.22509896755219        41.6534118652344    1.55927096852065E-09            254023.40625          101326.1015625        288.124694824219      0.0999171882867813     0.00158246533553283                       0 
       -1.8048048048048                       0        1.22509896755219        41.6534118652344    2.20674087623634E-09            254023.40625          101326.1015625        288.124694824219      0.0999171882867813     0.00158246916939468                       0 
       -1.7997997997998                       0        1.22509896755219        41.6534118652344    2.85421078395204E-09            254023.40625          101326.1015625        288.124694824219      0.0999171882867813     0.00158247300325653                       0 
      -1.79479479479479                       0        1.22509896755219        41.6534118652344    3.50168069166773E-09            254023.40625          101326.1015625        288.124694824219      0.0999171882867813     0.00158247683711837                       0 
      -1.78978978978979                       0        1.22509896755219        41.6534118652344    4.09846348369694E-09            254023.40625          101326.1015625        288.124694824219      0.0999171882867813     0.00158248235702226                       0 
      -1.78478478478478                       0        1.22509896755219        41.6534118652344    4.69095267563429E-09            254023.40625          101326.1015625        288.124694824219      0.0999171882867813     0.00158248801974726                       0 
      -1.77977977977978                       0        1.22509896755219        41.6534118652344    5.28344186757164E-09            254023.40625          101326.1015625        288.124694824219      0.0999171882867813     0.00158249368247226                       0 
      -1.77477477477477                       0        1.22509896755219        41.6534118652344    5.87593105950898E-09            254023.40625          101326.1015625        288.124694824219      0.0999171882867813     0.00158249934519726                       0 
      -1.76976976976977                       0        1.22509896755219        41.6534118652344    6.46842025144633E-09            254023.40625          101326.1015625        288.124694824219      0.0999171882867813     0.00158250500792226                       0 
      -1.76476476476476                       0        1.22509896755219        41.6534118652344    7.06090944338368E-09            254023.40625          101326.1015625        288.124694824219      0.0999171882867813     0.00158251067064726                       0 
      -1.75975975975976                       0        1.22509896755219        41.6534118652344    7.65339863532102E-09            254023.40625          101326.1015625        288.124694824219      0.0999171882867813     0.00158251633337226                       0 
      -1.75475475475475                       0        1.22509896755219        41.6534118652344    8.24588782725837E-09            254023.40625          101326.1015625        288.124694824219      0.0999171882867813     0.00158252199609726                       0 
      -1.74974974974975                       0        1.22509896755219        41.6534118652344    8.83837701919572E-09            254023.40625          101326.1015625        288.124694824219      0.0999171882867813     0.00158252765882226                       0 
      -1.74474474474474                       0        1.22509896755219        41.6534118652344    9.43086621113307E-09            254023.40625          101326.1015625        288.124694824219      0.0999171882867813     0.00158253332154726                       0 
      -1.73973973973974                       0        1.22509896755219        41.6534118652344    1.00233554030704E-08            254023.40625          101326.1015625        288.124694824219      0.0999171882867813     0.00158253898427226                       0 
      -1.73473473473473                       0        1.22509896755219        41.6534118652344    1.01957192415809E-08            254023.40625          101326.1015625        288.124694824219      0.0999171882867813     0.00158254432758785                       0 
      -1.72972972972973                       0        1.22509896755219        41.6534118652344    9.29158068559472E-09            254023.40625          101326.1015625        288.124694824219      0.0999171882867813     0.00158254885246912                       0 
      -1.72472472472472                       0        1.22509896755219        41.6534118652344    8.38744212960854E-09            254023.40625          101326.1015625        288.124694824219      0.0999171882867813      0.0015825533773504                       0 
      -1.71971971971972                       0        1.22509896755219        41.6534118652344    7.48330357362237E-09            254023.40625          101326.1015625        288.124694824219      0.0999171882867813     0.00158255790223167                       0 
      -1.71471471471471                       0        1.22509896755219        41.6534118652344     6.5791650176362E-09            254023.40625          101326.1015625        288.124694824219      0.0999171882867813     0.00158256242711294                       0 
      -1.70970970970971                       0        1.22509896755219        41.6534118652344    5.67502646165002E-09            254023.40625          101326.1015625        288.124694824219      0.0999171882867813     0.00158256695199422                       0 
       -1.7047047047047                       0        1.22509896755219        41.6534118652344    4.77088790566385E-09            254023.40625          101326.1015625        288.124694824219      0.0999171882867813     0.00158257147687549                       0 
       -1.6996996996997                       0        1.22509896755219        41.6534118652344    3.86674934967768E-09            254023.40625          101326.1015625        288.124694824219      0.0999171882867813     0.00158257600175677                       0 
      -1.69469469469469                       0        1.22509896755219        41.6534118652344     2.9626107936915E-09            254023.40625          101326.1015625        288.124694824219      0.0999171882867813     0.00158258052663804                       0 
      -1.68968968968969                       0        1.22509896755219        41.6534118652344    2.05847223770533E-09            254023.40625          101326.1015625        288.124694824219      0.0999171882867813     0.00158258505151931                       0 
      -1.68468468468468                       0        1.22509896755219        41.6534118652344    1.15433368171916E-09            254023.40625          101326.1015625        288.124694824219      0.0999171882867813     0.00158258957640059                       0 
      -1.67967967967968                       0        1.22509896755219        41.6534118652344    2.50195125732986E-10            254023.40625          101326.1015625        288.124694824219      0.0999171882867813     0.00158259410128186                       0 
      -1.67467467467467                       0        1.22509896755219        41.6534118652344   -2.91669325731689E-10            254023.40625          101326.1015625        288.124694824219      0.0999171882867813     0.00158259845404588                       0 
      -1.66966966966967                       0        1.22509896755219        41.6534118652344   -7.75025690650871E-10            254023.40625          101326.1015625        288.124694824219      0.0999171882867813     0.00158260277901258                       0 
      -1.66466466466466                       0        1.22509896755219        41.6534118652344   -1.25838205557005E-09            254023.40625          101326.1015625        288.124694824219      0.0999171882867813     0.00158260710397927                       0 
      -1.65965965965966                       0        1.22509896755219        41.6534118652344   -1.74173842048925E-09            254023.40625          101326.1015625        288.124694824219      0.0999171882867813     0.00158261142894597                       0 
      -1.65465465465465                       0        1.22509896755219        41.6534118652344   -2.22509478540842E-09            254023.40625          101326.1015625        288.124694824219      0.0999171882867813     0.00158261575391266                       0 
      -1.64964964964965                       0        1.22509896755219        41.6534118652344    -2.7084511503276E-09            254023.40625          101326.1015625        288.124694824219      0.0999171882867813     0.00158262007887936                       0 
      -1.64464464464464                       0        1.22509896755219        41.6534118652344   -3.19180751524678E-09            254023.40625          101326.1015625        288.124694824219      0.0999171882867813     0.00158262440384606                       0 
      -1.63963963963964                       0        1.22509896755219        41.6534118652344   -3.67516388016596E-09            254023.40625          101326.1015625        288.124694824219      0.0999171882867813     0.00158262872881275                       0 
      -1.63463463463463                       0        1.22509896755219        41.6534118652344   -4.15852024508516E-09            254023.40625          101326.1015625        288.124694824219      0.0999171882867813     0.00158263305377945                       0 
      -1.62962962962963                       0        1.22509896755219        41.6534118652344   -4.64187661000432E-09            254023.40625          101326.1015625        288.124694824219      0.0999171882867813     0.00158263737874614                       0 
      -1.62462462462462                       0        1.22509896755219        41.6534118652344    -5.1252329749235E-09            254023.40625          101326.1015625        288.124694824219      0.0999171882867813     0.00158264170371284                       0 
      -1.61961961961962                       0        1.22509896755219        41.6534118652344   -5.60858933984271E-09            254023.40625          101326.1015625        288.124694824219      0.0999171882867813     0.00158264602867953                       0 
      -1.61461461461461                       0        1.22509896755219        41.6534118652344   -6.09194570476187E-09            254023.40625          101326.1015625        288.124694824219      0.0999171882867813     0.00158265035364623                       0 
      -1.60960960960961                       0        1.22509896755219        41.6534118652344   -7.60653876995237E-09            254023.40625          101326.1015625        288.124694824219      0.0999171882867813     0.00158265490430254                       0 
       -1.6046046046046                       0        1.22509896755219        41.6534118652344   -1.10942201657685E-08            254023.40625          101326.1015625        288.124694824219      0.0999171882867813     0.00158265988677586                       0 
       -1.5995995995996                       0        1.22509896755219        41.6534118652344   -1.45819015615848E-08            254023.40625          101326.1015625        288.124694824219      0.0999171882867813     0.00158266486924919                       0 
      -1.59459459459459                       0        1.22509896755219        41.6534118652344   -1.80695829574013E-08            254023.40625          101326.1015625        288.124694824219      0.0999171882867813     0.00158266985172251                       0 
      -1.58958958958959                       0        1.22509896755219        41.6534118652344   -2.15572643532174E-08            254023.40625          101326.1015625        288.124694824219      0.0999171882867813     0.00158267483419583                       0 
      -1.58458458458458                       0        1.22509896755219        41.6534118652344   -2.50449457490339E-08            254023.40625          101326.1015625        288.124694824219      0.0999171882867813     0.00158267981666916                       0 
      -1.57957957957958                       0        1.22509896755219        41.6534118652344   -2.85326271448502E-08            254023.40625          101326.1015625        288.124694824219      0.0999171882867813     0.00158268479914248                       0 
      -1.57457457457457                       0        1.22509896755219        41.6534118652344   -3.20203085406663E-08            254023.40625          101326.1015625        288.124694824219      0.0999171882867813      0.0015826897816158                       0 
      -1.56956956956957                       0        1.22509896755219        41.6534118652344   -3.55079899364828E-08            254023.40625          101326.1015625        288.124694824219      0.0999171882867813     0.00158269476408912                       0 
      -1.56456456456456                       0        1.22509896755219        41.6534118652344   -3.99781537323349E-08            254023.40625          101326.1015625        288.124694824219      0.0999171882867813     0.00158269934354275                       0 
      -1.55955955955956                       0        1.22509896755219        41.6534118652344   -4.68517063971434E-08            254023.40625          101326.1015625        288.124694824219      0.0999171882867813     0.00158270293711299                       0 
      -1.55455455455455                       0        1.22509896755219        41.6534118652344   -5.37252590619516E-08            254023.40625          101326.1015625        288.124694824219      0.0999171882867813     0.00158270653068324                       0 
      -1.54954954954955                       0        1.22509896755219        41.6534118652344   -6.05988117267594E-08            254023.40625          101326.1015625        288.124694824219      0.0999171882867813     0.00158271012425348                       0 
      -1.54454454454454                       0        1.22509896755219        41.6534118652344   -6.74723643915679E-08            254023.40625          101326.1015625        288.124694824219      0.0999171882867813     0.00158271371782372                       0 
      -1.53953953953954                       0        1.22509896755219        41.6534118652344   -7.43459170563761E-08            254023.40625          101326.1015625        288.124694824219      0.0999171882867813     0.00158271731139397                       0 
      -1.53453453453453                       0        1.22509896755219        41.6534118652344   -8.12194697211843E-08            254023.40625          101326.1015625        288.124694824219      0.0999171882867813     0.00158272090496421                       0 
      -1.52952952952953                       0        1.22509896755219        41.6534118652344   -8.80930223859925E-08            254023.40625          101326.1015625        288.124694824219      0.0999171882867813     0.00158272449853446                       0 
      -1.52452452452452                       0        1.22509896755219        41.6534118652344   -9.49665750508003E-08            254023.40625          101326.1015625        288.124694824219      0.0999171882867813      0.0015827280921047                       0 
      -1.51951951951952                       0        1.22509896755219        41.6534118652344   -1.01840127715609E-07            254023.40625          101326.1015625        288.124694824219      0.0999171882867813     0.00158273168567495                       0 
      -1.51451451451451                       0        1.22509896755219        41.6534118652344   -1.08713680380417E-07            254023.40625          101326.1015625        288.124694824219      0.0999171882867813     0.00158273527924519                       0 
      -1.50950950950951                       0        1.22509896755219        41.6534118652344   -1.15587233045225E-07            254023.40625          101326.1015625        288.124694824219      0.0999171882867813     0.00158273887281544                       0 
       -1.5045045045045                       0        1.22509896755219        41.6534118652344    -1.1814505434708E-07            254023.40625          101326.1015625        288.124694824219      0.0999171882867813     0.00158274397665054                       0 
       -1.4994994994995                       0        1.22509896755219        41.6534118652344   -1.07782752505151E-07            254023.40625          101326.1015625        288.124694824219      0.0999171882867813     0.00158275360180692                       0 
      -1.49449449449449                       0        1.22509896755219        41.6534118652344   -9.74204506632216E-08            254023.40625          101326.1015625        288.124694824219      0.0999171882867813     0.00158276322696329                       0 
      -1.48948948948949                       0        1.22509896755219        41.6534118652344   -8.70581488212924E-08            254023.40625          101326.1015625        288.124694824219      0.0999171882867813     0.00158277285211966                       0 
      -1.48448448448448                       0        1.22509896755219        41.6534118652344   -7.66958469793637E-08            254023.40625          101326.1015625        288.124694824219      0.0999171882867813     0.00158278247727604                       0 
      -1.47947947947948                       0        1.22509896755219        41.6534118652344   -6.63335451374341E-08            254023.40625          101326.1015625        288.124694824219      0.0999171882867813     0.00158279210243241                       0 
      -1.47447447447447                       0        1.22509896755219        41.6534118652344    -5.5971243295505E-08            254023.40625          101326.1015625        288.124694824219      0.0999171882867813     0.00158280172758878                       0 
      -1.46946946946947                       0        1.22509896755219        41.6534118652344   -4.56089414535758E-08            254023.40625          101326.1015625        288.124694824219      0.0999171882867813     0.00158281135274516                       0 
      -1.46446446446446                       0        1.22509896755219        41.6534118652344   -3.13000256552603E-08            254023.40625          101326.1015625        288.124694824219      0.0999171882867813       0.001582820855641                       0 
      -1.45945945945946                       0        1.22509896755219        41.6534118652344   -1.41226378463821E-08            254023.40625          101326.1015625        288.124694824219      0.0999171882867813     0.00158283026967563                       0 
      -1.45445445445445                       0        1.22509896755219        41.6534118652344    3.05474996249626E-09            254023.40625          101326.1015625        288.124694824219      0.0999171882867813     0.00158283968371026                       0 
      -1.44944944944945                       0        1.22509896755219        41.6534118652344    2.02321377713746E-08            254023.40625          101326.1015625        288.124694824219      0.0999171882867813     0.00158284909774489                       0 
      -1.44444444444444                       0        1.22509896755219        41.6534118652344    3.74095255802529E-08            254023.40625          101326.1015625        288.124694824219      0.0999171882867813     0.00158285851177951                       0 