VARIABLES = "x"
 "y"
 "Density"
 "Momentum_x"
 "Momentum_y"
 "Energy"
 "Pressure"
 "Temperature"
 "Mach"
 "C<sub>p</sub>"
 "Roe_Dissipation"
ZONE
DT=(DOUBLE,DOUBLE,DOUBLE,DOUBLE,DOUBLE,DOUBLE,DOUBLE,DOUBLE,DOUBLE,DOUBLE,DOUBLE)
                     -2                       0        1.22509503364563        41.6691017150879    2.59286847548168E-09            254022.59375          101325.6015625        288.124298095703      0.0999552831053734    0.000822464702650905                       0 
      -1.99499499499499                       0        1.22509503364563        41.6691017150879    2.19046821109364E-09            254022.59375          101325.6015625        288.124298095703      0.0999552831053734    0.000822473441942815                       0 
      -1.98998998998999                       0        1.22509503364563        41.6691017150879    1.78806794670561E-09            254022.59375          101325.6015625        288.124298095703      0.0999552831053734    0.000822482181234726                       0 
      -1.98498498498498                       0        1.22509503364563        41.6691017150879    1.38566768231757E-09            254022.59375          101325.6015625        288.124298095703      0.0999552831053734    0.000822490920526636                       0 
      -1.97997997997998                       0        1.22509503364563        41.6691017150879     9.8326741792953E-10            254022.59375          101325.6015625        288.124298095703      0.0999552831053734    0.000822499659818546                       0 
      -1.97497497497497                       0        1.22509503364563        41.6691017150879    5.80867153541493E-10            254022.59375          101325.6015625        288.124298095703      0.0999552831053734    0.000822508399110457                       0 
      -1.96996996996997                       0        1.22509503364563        41.6691017150879    1.78466889153455E-10            254022.59375          101325.6015625        288.124298095703      0.0999552831053734    0.000822517138402367                       0 
      -1.96496496496496                       0        1.22509503364563        41.6691017150879   -2.23933375234582E-10            254022.59375          101325.6015625        288.124298095703      0.0999552831053734    0.000822525877694278                       0 
      -1.95995995995996                       0        1.22509503364563        41.6691017150879    -1.3117323498536E-09            254022.59375          101325.6015625        288.124298095703      0.0999552831053734    0.000822533981914753                       0 
      -1.95495495495495                       0        1.22509503364563        41.6691017150879   -2.20036906518168E-09            254022.59375          101325.6015625        288.124298095703      0.0999552831053734    0.000822540319163073                       0 
      -1.94994994994995                       0        1.22509503364563        41.6691017150879   -2.73049069561988E-09            254022.59375          101325.6015625        288.124298095703      0.0999552831053734    0.000822546644938772                       0 
      -1.94494494494494                       0        1.22509503364563        41.6691017150879   -3.26061232605809E-09            254022.59375          101325.6015625        288.124298095703      0.0999552831053734    0.000822552970714472                       0 
      -1.93993993993994                       0        1.22509503364563        41.6691017150879    -3.7907339564963E-09            254022.59375          101325.6015625        288.124298095703      0.0999552831053734    0.000822559296490171                       0 
      -1.93493493493493                       0        1.22509503364563        41.6691017150879    -4.3208555869345E-09            254022.59375          101325.6015625        288.124298095703      0.0999552831053734     0.00082256562226587                       0 
      -1.92992992992993                       0        1.22509503364563        41.6691017150879   -4.85097721737271E-09            254022.59375          101325.6015625        288.124298095703      0.0999552831053734    0.000822571948041569                       0 
      -1.92492492492492                       0        1.22509503364563        41.6691017150879   -5.38109884781092E-09            254022.59375          101325.6015625        288.124298095703      0.0999552831053734    0.000822578273817269                       0 
      -1.91991991991992                       0        1.22509503364563        41.6691017150879   -5.55208656846292E-09            254022.59375          101325.6015625        288.124298095703      0.0999552831053734    0.000822585214490545                       0 
      -1.91491491491491                       0        1.22509503364563        41.6691017150879   -5.54583134903058E-09            254022.59375          101325.6015625        288.124298095703      0.0999552831053734    0.000822592458633507                       0 
      -1.90990990990991                       0        1.22509503364563        41.6691017150879   -5.53957612959824E-09            254022.59375          101325.6015625        288.124298095703      0.0999552831053734    0.000822599702776468                       0 
       -1.9049049049049                       0        1.22509503364563        41.6691017150879    -5.5333209101659E-09            254022.59375          101325.6015625        288.124298095703      0.0999552831053734     0.00082260694691943                       0 
       -1.8998998998999                       0        1.22509503364563        41.6691017150879   -5.52706569073356E-09            254022.59375          101325.6015625        288.124298095703      0.0999552831053734    0.000822614191062391                       0 
      -1.89489489489489                       0        1.22509503364563        41.6691017150879   -5.52081047130121E-09            254022.59375          101325.6015625        288.124298095703      0.0999552831053734    0.000822621435205352                       0 
      -1.88988988988989                       0        1.22509503364563        41.6691017150879   -5.16417934652461E-09            254022.59375          101325.6015625        288.124298095703      0.0999552831053734    0.000822628769098943                       0 
      -1.88488488488488                       0        1.22509503364563        41.6691017150879   -4.33556734265573E-09            254022.59375          101325.6015625        288.124298095703      0.0999552831053734    0.000822636105501755                       0 
      -1.87987987987988                       0        1.22509503364563        41.6691017150879   -2.01450566811702E-09            254022.59375          101325.6015625        288.124298095703      0.0999552831053734    0.000822643079181876                       0 
      -1.87487487487487                       0        1.22509503364563        41.6691017150879   -5.82020166554981E-10            254022.59375          101325.6015625        288.124298095703      0.0999552831053734    0.000822650050802912                       0 
      -1.86986986986987                       0        1.22509503364563        41.6691017150879    3.68993486533853E-10            254022.59375          101325.6015625        288.124298095703      0.0999552831053734     0.00082265702130824                       0 
      -1.86486486486486                       0        1.22509503364563        41.6691017150879    1.32000713962269E-09            254022.59375          101325.6015625        288.124298095703      0.0999552831053734    0.000822663991813567                       0 
      -1.85985985985986                       0        1.22509503364563        41.6691017150879    2.27102079271152E-09            254022.59375          101325.6015625        288.124298095703      0.0999552831053734    0.000822670962318895                       0 
      -1.85485485485485                       0        1.22509503364563        41.6691017150879    3.22203444580035E-09            254022.59375          101325.6015625        288.124298095703      0.0999552831053734    0.000822677932824222                       0 
      -1.84984984984985                       0        1.22509503364563        41.6691017150879    4.17304809888918E-09            254022.59375          101325.6015625        288.124298095703      0.0999552831053734    0.000822684903329549                       0 
      -1.84484484484484                       0        1.22509503364563        41.6691017150879    4.97351016442881E-09            254022.59375          101325.6015625        288.124298095703      0.0999552831053734    0.000822691890836936                       0 
      -1.83983983983984                       0        1.22509503364563        41.6691017150879    5.66757557965767E-09            254022.59375          101325.6015625        288.124298095703      0.0999552831053734    0.000822698890359886                       0 
      -1.83483483483483                       0        1.22509503364563        41.6691017150879    6.36164099488653E-09            254022.59375          101325.6015625        288.124298095703      0.0999552831053734    0.000822705889882836                       0 
      -1.82982982982983                       0        1.22509503364563        41.6691017150879    7.05570641011539E-09            254022.59375          101325.6015625        288.124298095703      0.0999552831053734    0.000822712889405785                       0 
      -1.82482482482482                       0        1.22509503364563        41.6691017150879    7.74977182534424E-09            254022.59375          101325.6015625        288.124298095703      0.0999552831053734    0.000822719888928735                       0 
      -1.81981981981982                       0        1.22509503364563        41.6691017150879     8.4438372405731E-09            254022.59375          101325.6015625        288.124298095703      0.0999552831053734    0.000822726888451685                       0 
      -1.81481481481481                       0        1.22509503364563        41.6691017150879    9.21463926662747E-09            254022.59375          101325.6015625        288.124298095703      0.0999552831053734     0.00082273388163179                       0 
      -1.80980980980981                       0        1.22509503364563        41.6691017150879    1.07880308868326E-08            254022.59375          101325.6015625        288.124298095703      0.0999552831053734    0.000822740808471969                       0 
       -1.8048048048048                       0        1.22509503364563        41.6691017150879    1.12951038017117E-08            254022.59375          101325.6015625        288.124298095703      0.0999552831053734    0.000822747633582026                       0 
       -1.7997997997998                       0        1.22509503364563        41.6691017150879    1.11234447001332E-08            254022.59375          101325.6015625        288.124298095703      0.0999552831053734    0.000822754460354425                       0 
      -1.79479479479479                       0        1.22509503364563        41.6691017150879    1.09426641188784E-08            254022.59375          101325.6015625        288.124298095703      0.0999552831053734    0.000822761287149309                       0 
      -1.78978978978979                       0        1.22509503364563        41.6691017150879    1.07618835376236E-08            254022.59375          101325.6015625        288.124298095703      0.0999552831053734    0.000822768113944193                       0 
      -1.78478478478478                       0        1.22509503364563        41.6691017150879    1.05811029563689E-08            254022.59375          101325.6015625        288.124298095703      0.0999552831053734    0.000822774940739077                       0 
      -1.77977977977978                       0        1.22509503364563        41.6691017150879    1.04003223751141E-08            254022.59375          101325.6015625        288.124298095703      0.0999552831053734    0.000822781767533961                       0 
      -1.77477477477477                       0        1.22509503364563        41.6691017150879    1.02195417938594E-08            254022.59375          101325.6015625        288.124298095703      0.0999552831053734    0.000822788594328845                       0 
      -1.76976976976977                       0        1.22509503364563        41.6691017150879    9.83761260140545E-09            254022.59375          101325.6015625        288.124298095703      0.0999552831053734    0.000822795448359302                       0 
      -1.76476476476476                       0        1.22509503364563        41.6691017150879    9.19106395561618E-09            254022.59375          101325.6015625        288.124298095703      0.0999552831053734    0.000822802338219301                       0 
      -1.75975975975976                       0        1.22509503364563        41.6691017150879     8.5445153098269E-09            254022.59375          101325.6015625        288.124298095703      0.0999552831053734    0.000822809228079299                       0 
      -1.75475475475475                       0        1.22509503364563        41.6691017150879    7.89796666403763E-09            254022.59375          101325.6015625        288.124298095703      0.0999552831053734    0.000822816117939298                       0 
      -1.74974974974975                       0        1.22509503364563        41.6691017150879    7.25141801824835E-09            254022.59375          101325.6015625        288.124298095703      0.0999552831053734    0.000822823007799296                       0 
      -1.74474474474474                       0        1.22509503364563        41.6691017150879    6.60486937245908E-09            254022.59375          101325.6015625        288.124298095703      0.0999552831053734    0.000822829897659295                       0 
      -1.73973973973974                       0        1.22509503364563        41.6691017150879    5.95738229139315E-09            254022.59375          101325.6015625        288.124298095703      0.0999552831053734    0.000822836787097026                       0 
      -1.73473473473473                       0        1.22509503364563        41.6691017150879     5.1992501576733E-09            254022.59375          101325.6015625        288.124298095703      0.0999552831053734     0.00082284362674788                       0 
      -1.72972972972973                       0        1.22509503364563        41.6691017150879    4.30279059812706E-09            254022.59375          101325.6015625        288.124298095703      0.0999552831053734    0.000822850416198194                       0 
      -1.72472472472472                       0        1.22509503364563        41.6691017150879    3.42656458862086E-09            254022.59375          101325.6015625        288.124298095703      0.0999552831053734     0.00082285720868948                       0 
      -1.71971971971972                       0        1.22509503364563        41.6691017150879    2.59178302521331E-09            254022.59375          101325.6015625        288.124298095703      0.0999552831053734    0.000822864012244057                       0 
      -1.71471471471471                       0        1.22509503364563        41.6691017150879    1.75700146180575E-09            254022.59375          101325.6015625        288.124298095703      0.0999552831053734    0.000822870815798633                       0 
      -1.70970970970971                       0        1.22509503364563        41.6691017150879    9.22219898398201E-10            254022.59375          101325.6015625        288.124298095703      0.0999552831053734     0.00082287761935321                       0 
       -1.7047047047047                       0        1.22509503364563        41.6691017150879    8.74383349906485E-11            254022.59375          101325.6015625        288.124298095703      0.0999552831053734    0.000822884422907786                       0 
       -1.6996996996997                       0        1.22509503364563        41.6691017150879   -7.47343228416904E-10            254022.59375          101325.6015625        288.124298095703      0.0999552831053734    0.000822891226462363                       0 
      -1.69469469469469                       0        1.22509503364563        41.6691017150879   -1.45715973639582E-09            254022.59375          101325.6015625        288.124298095703      0.0999552831053734    0.000822898058419467                       0 
      -1.68968968968969                       0        1.22509503364563        41.6691017150879   -1.75873234708027E-09            254022.59375          101325.6015625        288.124298095703      0.0999552831053734    0.000822904983163778                       0 
      -1.68468468468468                       0        1.22509503364563        41.6691017150879   -2.06030495776472E-09            254022.59375          101325.6015625        288.124298095703      0.0999552831053734    0.000822911907908089                       0 
      -1.67967967967968                       0        1.22509503364563        41.6691017150879   -2.36187756844918E-09            254022.59375          101325.6015625        288.124298095703      0.0999552831053734      0.0008229188326524                       0 
      -1.67467467467467                       0        1.22509503364563        41.6691017150879   -2.66345017913363E-09            254022.59375          101325.6015625        288.124298095703      0.0999552831053734    0.000822925757396711                       0 
      -1.66966966966967                       0        1.22509503364563        41.6691017150879   -2.96502278981809E-09            254022.59375          101325.6015625        288.124298095703      0.0999552831053734    0.000822932682141022                       0 
      -1.66466466466466                       0        1.22509503364563        41.6691017150879    -3.0777089005852E-09            254022.59375          101325.6015625        288.124298095703      0.0999552831053734    0.000822939658497527                       0 
      -1.65965965965966                       0        1.22509503364563        41.6691017150879    -3.1602703314585E-09            254022.59375          101325.6015625        288.124298095703      0.0999552831053734    0.000822946643085433                       0 
      -1.65465465465465                       0        1.22509503364563        41.6691017150879   -2.71741408385142E-09            254022.59375          101325.6015625        288.124298095703      0.0999552831053734    0.000822953561248442                       0 
      -1.64964964964965                       0        1.22509503364563        41.6691017150879   -1.95190925111964E-09            254022.59375          101325.6015625        288.124298095703      0.0999552831053734    0.000822960438621238                       0 
      -1.64464464464464                       0        1.22509503364563        41.6691017150879   -1.19576213729967E-09            254022.59375          101325.6015625        288.124298095703      0.0999552831053734    0.000822967314735979                       0 
      -1.63963963963964                       0        1.22509503364563        41.6691017150879   -7.70295613288023E-10            254022.59375          101325.6015625        288.124298095703      0.0999552831053734     0.00082297414639394                       0 
      -1.63463463463463                       0        1.22509503364563        41.6691017150879   -3.44829089276353E-10            254022.59375          101325.6015625        288.124298095703      0.0999552831053734    0.000822980978051901                       0 
      -1.62962962962963                       0        1.22509503364563        41.6691017150879    8.06374347352783E-11            254022.59375          101325.6015625        288.124298095703      0.0999552831053734    0.000822987809709862                       0 
      -1.62462462462462                       0        1.22509503364563        41.6691017150879     5.0610395874693E-10            254022.59375          101325.6015625        288.124298095703      0.0999552831053734    0.000822994641367822                       0 
      -1.61961961961962                       0        1.22509503364563        41.6691017150879      9.315704827586E-10            254022.59375          101325.6015625        288.124298095703      0.0999552831053734    0.000823001473025783                       0 
      -1.61461461461461                       0        1.22509503364563        41.6691017150879    1.52495703619855E-09            254022.59375          101325.6015625        288.124298095703      0.0999552831053734    0.000823008398846868                       0 
      -1.60960960960961                       0        1.22509503364563        41.6691017150879    2.12418376291277E-09            254022.59375          101325.6015625        288.124298095703      0.0999552831053734    0.000823015327942899                       0 
       -1.6046046046046                       0        1.22509503364563        41.6691017150879    2.72341048962694E-09            254022.59375          101325.6015625        288.124298095703      0.0999552831053734    0.000823022257038929                       0 
       -1.5995995995996                       0        1.22509503364563        41.6691017150879    3.32263721634114E-09            254022.59375          101325.6015625        288.124298095703      0.0999552831053734     0.00082302918613496                       0 
      -1.59459459459459                       0        1.22509503364563        41.6691017150879    3.89793099276811E-09            254022.59375          101325.6015625        288.124298095703      0.0999552831053734    0.000823036117147429                       0 
      -1.58958958958959                       0        1.22509503364563        41.6691017150879    4.19476260506476E-09            254022.59375          101325.6015625        288.124298095703      0.0999552831053734    0.000823043070457853                       0 
      -1.58458458458458                       0        1.22509503364563        41.6691017150879    4.49159421736145E-09            254022.59375          101325.6015625        288.124298095703      0.0999552831053734    0.000823050023768276                       0 
      -1.57957957957958                       0        1.22509503364563        41.6691017150879    4.71389310114431E-09            254022.59375          101325.6015625        288.124298095703      0.0999552831053734    0.000823056873491179                       0 
      -1.57457457457457                       0        1.22509503364563        41.6691017150879    4.71893520173692E-09            254022.59375          101325.6015625        288.124298095703      0.0999552831053734    0.000823063421264965                       0 
      -1.56956956956957                       0        1.22509503364563        41.6691017150879    4.72397730232953E-09            254022.59375          101325.6015625        288.124298095703      0.0999552831053734    0.000823069969038752                       0 
      -1.56456456456456                       0        1.22509503364563        41.6691017150879    4.51230692842217E-09            254022.59375          101325.6015625        288.124298095703      0.0999552831053734    0.000823076537991866                       0 
      -1.55955955955956                       0        1.22509503364563        41.6691017150879    3.88521156741838E-09            254022.59375          101325.6015625        288.124298095703      0.0999552831053734    0.000823083147544496                       0 
      -1.55455455455455                       0        1.22509503364563        41.6691017150879    3.25811620641461E-09            254022.59375          101325.6015625        288.124298095703      0.0999552831053734    0.000823089757097125                       0 
      -1.54954954954955                       0        1.22509503364563        41.6691017150879    2.63102084541087E-09            254022.59375          101325.6015625        288.124298095703      0.0999552831053734    0.000823096366649755                       0 
      -1.54454454454454                       0        1.22509503364563        41.6691017150879    2.00392548440707E-09            254022.59375          101325.6015625        288.124298095703      0.0999552831053734    0.000823102976202385                       0 
      -1.53953953953954                       0        1.22509503364563        41.6691017150879    1.07286266371437E-09            254022.59375          101325.6015625        288.124298095703      0.0999552831053734    0.000823109522616322                       0 
      -1.53453453453453                       0        1.22509503364563        41.6691017150879   -2.49328177032666E-10            254022.59375          101325.6015625        288.124298095703      0.0999552831053734    0.000823115987786983                       0 
      -1.52952952952953                       0        1.22509503364563        41.6691017150879    -1.5715190177797E-09            254022.59375          101325.6015625        288.124298095703      0.0999552831053734    0.000823122452957644                       0 
      -1.52452452452452                       0        1.22509503364563        41.6691017150879   -2.89370985852668E-09            254022.59375          101325.6015625        288.124298095703      0.0999552831053734    0.000823128918128306                       0 
      -1.51951951951952                       0        1.22509503364563        41.6691017150879   -4.21590069927378E-09            254022.59375          101325.6015625        288.124298095703      0.0999552831053734    0.000823135383298967                       0 
      -1.51451451451451                       0        1.22509503364563        41.6691017150879   -5.03912078322122E-09            254022.59375          101325.6015625        288.124298095703      0.0999552831053734    0.000823141890312785                       0 
      -1.50950950950951                       0        1.22509503364563        41.6691017150879   -5.55781825713032E-09            254022.59375          101325.6015625        288.124298095703      0.0999552831053734    0.000823148422863546                       0 
       -1.5045045045045                       0        1.22509503364563        41.6691017150879   -6.07651573103943E-09            254022.59375          101325.6015625        288.124298095703      0.0999552831053734    0.000823154955414307                       0 
       -1.4994994994995                       0        1.22509503364563        41.6691017150879   -6.84521467258301E-09            254022.59375          101325.6015625        288.124298095703      0.0999552831053734     0.00082316164143166                       0 
      -1.49449449449449                       0        1.22509503364563        41.6691017150879   -7.70982155888328E-09            254022.59375          101325.6015625        288.124298095703      0.0999552831053734    0.000823168386323329                       0 
      -1.48948948948949                       0        1.22509503364563        41.6691017150879   -8.57442844518355E-09            254022.59375          101325.6015625        288.124298095703      0.0999552831053734    0.000823175131214998                       0 
      -1.48448448448448                       0        1.22509503364563        41.6691017150879   -9.28430975577756E-09            254022.59375          101325.6015625        288.124298095703      0.0999552831053734    0.000823181990069939                       0 
      -1.47947947947948                       0        1.22509503364563        41.6691017150879   -9.95869230042321E-09            254022.59375          101325.6015625        288.124298095703      0.0999552831053734     0.00082318887507153                       0 
      -1.47447447447447                       0        1.22509503364563        41.6691017150879   -1.06330748450688E-08            254022.59375          101325.6015625        288.124298095703      0.0999552831053734    0.000823195760073121                       0 
      -1.46946946946947                       0        1.22509503364563        41.6691017150879   -1.13074573897145E-08            254022.59375          101325.6015625        288.124298095703      0.0999552831053734    0.000823202645074712                       0 
      -1.46446446446446                       0        1.22509503364563        41.6691017150879   -1.20043768154459E-08            254022.59375          101325.6015625        288.124298095703      0.0999552831053734    0.000823209476180651                       0 
      -1.45945945945946                       0        1.22509503364563        41.6691017150879   -1.28197500481108E-08            254022.59375          101325.6015625        288.124298095703      0.0999552831053734     0.00082321602401114                       0 
      -1.45445445445445                       0        1.22509503364563        41.6691017150879   -1.36351232807757E-08            254022.59375          101325.6015625        288.124298095703      0.0999552831053734    0.000823222571841629                       0 
      -1.44944944944945                       0        1.22509503364563        41.6691017150879   -1.44504965134405E-08            254022.59375          101325.6015625        288.124298095703      0.0999552831053734    0.000823229119672117                       0 
      -1.44444444444444                       0        1.22509503364563        41.6691017150879   -1.52658697461054E-08            254022.59375          101325.6015625        288.124298095703      0.0999552831053734    0.000823235667502606                       0 