VARIABLES = "x"
 "y"
 "Density"
 "Momentum_x"
 "Momentum_y"
 "Energy"
 "Pressure"
 "Temperature"
 "Mach"
 "C<sub>p</sub>"
 "Roe_Dissipation"
ZONE
DT=(DOUBLE,DOUBLE,DOUBLE,DOUBLE,DOUBLE,DOUBLE,DOUBLE,DOUBLE,DOUBLE,DOUBLE,DOUBLE)
                     -2                       0        1.22509503364563        41.6673011779785   -2.78682799059737E-10           254022.703125          101325.6015625        288.124298095703      0.0999509021639824    0.000909873924683779                       0 
      -1.99499499499499                       0        1.22509503364563        41.6673011779785   -2.95939823331258E-10           254022.703125          101325.6015625        288.124298095703      0.0999509021639824    0.000909882815228852                       0 
      -1.98998998998999                       0        1.22509503364563        41.6673011779785   -3.13196847602779E-10           254022.703125          101325.6015625        288.124298095703      0.0999509021639824    0.000909891705773925                       0 
      -1.98498498498498                       0        1.22509503364563        41.6673011779785   -3.30453871874299E-10           254022.703125          101325.6015625        288.124298095703      0.0999509021639824    0.000909900596318997                       0 
      -1.97997997997998                       0        1.22509503364563        41.6673011779785    -3.4771089614582E-10           254022.703125          101325.6015625        288.124298095703      0.0999509021639824     0.00090990948686407                       0 
      -1.97497497497497                       0        1.22509503364563        41.6673011779785    -3.6496792041734E-10           254022.703125          101325.6015625        288.124298095703      0.0999509021639824    0.000909918377409143                       0 
      -1.96996996996997                       0        1.22509503364563        41.6673011779785   -3.82224944688861E-10           254022.703125          101325.6015625        288.124298095703      0.0999509021639824    0.000909927267954216                       0 
      -1.96496496496496                       0        1.22509503364563        41.6673011779785   -3.99481968960381E-10           254022.703125          101325.6015625        288.124298095703      0.0999509021639824    0.000909936158499288                       0 
      -1.95995995995996                       0        1.22509503364563        41.6673011779785   -4.16738993231903E-10           254022.703125          101325.6015625        288.124298095703      0.0999509021639824    0.000909945049044361                       0 
      -1.95495495495495                       0        1.22509503364563        41.6673011779785   -4.33996017503423E-10           254022.703125          101325.6015625        288.124298095703      0.0999509021639824    0.000909953939589434                       0 
      -1.94994994994995                       0        1.22509503364563        41.6673011779785    -4.5246345211676E-10           254022.703125          101325.6015625        288.124298095703      0.0999509021639824    0.000909962009393934                       0 
      -1.94494494494494                       0        1.22509503364563        41.6673011779785   -4.72637178365746E-10           254022.703125          101325.6015625        288.124298095703      0.0999509021639824    0.000909968922216604                       0 
      -1.93993993993994                       0        1.22509503364563        41.6673011779785   -4.92810904614732E-10           254022.703125          101325.6015625        288.124298095703      0.0999509021639824    0.000909975835039274                       0 
      -1.93493493493493                       0        1.22509503364563        41.6673011779785   -5.12984630863719E-10           254022.703125          101325.6015625        288.124298095703      0.0999509021639824    0.000909982747861945                       0 
      -1.92992992992993                       0        1.22509503364563        41.6673011779785   -5.33158357112706E-10           254022.703125          101325.6015625        288.124298095703      0.0999509021639824    0.000909989660684614                       0 
      -1.92492492492492                       0        1.22509503364563        41.6673011779785   -5.53332083361693E-10           254022.703125          101325.6015625        288.124298095703      0.0999509021639824    0.000909996573507285                       0 
      -1.91991991991992                       0        1.22509503364563        41.6673011779785   -5.73505809610679E-10           254022.703125          101325.6015625        288.124298095703      0.0999509021639824    0.000910003486329955                       0 
      -1.91491491491491                       0        1.22509503364563        41.6673011779785   -5.93679535859666E-10           254022.703125          101325.6015625        288.124298095703      0.0999509021639824    0.000910010399152625                       0 
      -1.90990990990991                       0        1.22509503364563        41.6673011779785   -6.13853262108653E-10           254022.703125          101325.6015625        288.124298095703      0.0999509021639824    0.000910017311975295                       0 
       -1.9049049049049                       0        1.22509503364563        41.6673011779785   -6.27932179716283E-10           254022.703125          101325.6015625        288.124298095703      0.0999509021639824    0.000910024268428238                       0 
       -1.8998998998999                       0        1.22509503364563        41.6673011779785    -5.8869263701594E-10           254022.703125          101325.6015625        288.124298095703      0.0999509021639824     0.00091003174409104                       0 
      -1.89489489489489                       0        1.22509503364563        41.6673011779785   -5.49453094315595E-10           254022.703125          101325.6015625        288.124298095703      0.0999509021639824    0.000910039219753841                       0 
      -1.88988988988989                       0        1.22509503364563        41.6673011779785    -5.1021355161525E-10           254022.703125          101325.6015625        288.124298095703      0.0999509021639824    0.000910046695416643                       0 
      -1.88488488488488                       0        1.22509503364563        41.6673011779785   -4.70974008914906E-10           254022.703125          101325.6015625        288.124298095703      0.0999509021639824    0.000910054171079444                       0 
      -1.87987987987988                       0        1.22509503364563        41.6673011779785   -4.31734466214561E-10           254022.703125          101325.6015625        288.124298095703      0.0999509021639824    0.000910061646742245                       0 
      -1.87487487487487                       0        1.22509503364563        41.6673011779785   -3.92494923514217E-10           254022.703125          101325.6015625        288.124298095703      0.0999509021639824    0.000910069122405047                       0 
      -1.86986986986987                       0        1.22509503364563        41.6673011779785   -3.53255380813872E-10           254022.703125          101325.6015625        288.124298095703      0.0999509021639824    0.000910076598067848                       0 
      -1.86486486486486                       0        1.22509503364563        41.6673011779785   -3.14015838113528E-10           254022.703125          101325.6015625        288.124298095703      0.0999509021639824     0.00091008407373065                       0 
      -1.85985985985986                       0        1.22509503364563        41.6673011779785   -2.75490478321454E-10           254022.703125          101325.6015625        288.124298095703      0.0999509021639824    0.000910091499816638                       0 
      -1.85485485485485                       0        1.22509503364563        41.6673011779785    -2.4343699394823E-10           254022.703125          101325.6015625        288.124298095703      0.0999509021639824    0.000910098476641025                       0 
      -1.84984984984985                       0        1.22509503364563        41.6673011779785   -2.11383509575007E-10           254022.703125          101325.6015625        288.124298095703      0.0999509021639824    0.000910105453465412                       0 
      -1.84484484484484                       0        1.22509503364563        41.6673011779785   -1.79330025201782E-10           254022.703125          101325.6015625        288.124298095703      0.0999509021639824    0.000910112430289799                       0 
      -1.83983983983984                       0        1.22509503364563        41.6673011779785   -1.47276540828559E-10           254022.703125          101325.6015625        288.124298095703      0.0999509021639824    0.000910119407114186                       0 
      -1.83483483483483                       0        1.22509503364563        41.6673011779785   -1.15223056455335E-10           254022.703125          101325.6015625        288.124298095703      0.0999509021639824    0.000910126383938573                       0 
      -1.82982982982983                       0        1.22509503364563        41.6673011779785   -8.31695720821114E-11           254022.703125          101325.6015625        288.124298095703      0.0999509021639824     0.00091013336076296                       0 
      -1.82482482482482                       0        1.22509503364563        41.6673011779785   -5.11160877088878E-11           254022.703125          101325.6015625        288.124298095703      0.0999509021639824    0.000910140337587347                       0 
      -1.81981981981982                       0        1.22509503364563        41.6673011779785   -1.90626033356631E-11           254022.703125          101325.6015625        288.124298095703      0.0999509021639824    0.000910147314411734                       0 
      -1.81481481481481                       0        1.22509503364563        41.6673011779785   -9.34229308334484E-11           254022.703125          101325.6015625        288.124298095703      0.0999509021639824    0.000910154311330444                       0 
      -1.80980980980981                       0        1.22509503364563        41.6673011779785    1.52611088534228E-11           254022.703125          101325.6015625        288.124298095703      0.0999509021639824    0.000910161761378324                       0 
       -1.8048048048048                       0        1.22509503364563        41.6673011779785    1.10544464800896E-10           254022.703125          101325.6015625        288.124298095703      0.0999509021639824    0.000910169219942892                       0 
       -1.7997997997998                       0        1.22509503364563        41.6673011779785     2.0582782074837E-10           254022.703125          101325.6015625        288.124298095703      0.0999509021639824     0.00091017667850746                       0 
      -1.79479479479479                       0        1.22509503364563        41.6673011779785    3.01111176695844E-10           254022.703125          101325.6015625        288.124298095703      0.0999509021639824    0.000910184137072027                       0 
      -1.78978978978979                       0        1.22509503364563        41.6673011779785    3.96394532643317E-10           254022.703125          101325.6015625        288.124298095703      0.0999509021639824    0.000910191595636595                       0 
      -1.78478478478478                       0        1.22509503364563        41.6673011779785    4.91677888590791E-10           254022.703125          101325.6015625        288.124298095703      0.0999509021639824    0.000910199054201162                       0 
      -1.77977977977978                       0        1.22509503364563        41.6673011779785    5.86961244538264E-10           254022.703125          101325.6015625        288.124298095703      0.0999509021639824     0.00091020651276573                       0 
      -1.77477477477477                       0        1.22509503364563        41.6673011779785    6.82244600485738E-10           254022.703125          101325.6015625        288.124298095703      0.0999509021639824    0.000910213971330298                       0 
      -1.76976976976977                       0        1.22509503364563        41.6673011779785    7.77527956433211E-10           254022.703125          101325.6015625        288.124298095703      0.0999509021639824    0.000910221429894865                       0 
      -1.76476476476476                       0        1.22509503364563        41.6673011779785    8.55011774000453E-10           254022.703125          101325.6015625        288.124298095703      0.0999509021639824    0.000910228640490084                       0 
      -1.75975975975976                       0        1.22509503364563        41.6673011779785    9.26468601968444E-10           254022.703125          101325.6015625        288.124298095703      0.0999509021639824    0.000910235767121961                       0 
      -1.75475475475475                       0        1.22509503364563        41.6673011779785    9.97925429936435E-10           254022.703125          101325.6015625        288.124298095703      0.0999509021639824     0.00091024289375384                       0 
      -1.74974974974975                       0        1.22509503364563        41.6673011779785    1.06938225790443E-09           254022.703125          101325.6015625        288.124298095703      0.0999509021639824    0.000910250020385718                       0 
      -1.74474474474474                       0        1.22509503364563        41.6673011779785    1.14083908587242E-09           254022.703125          101325.6015625        288.124298095703      0.0999509021639824    0.000910257147017596                       0 
      -1.73973973973974                       0        1.22509503364563        41.6673011779785    1.21229591384041E-09           254022.703125          101325.6015625        288.124298095703      0.0999509021639824    0.000910264273649474                       0 
      -1.73473473473473                       0        1.22509503364563        41.6673011779785     1.2837527418084E-09           254022.703125          101325.6015625        288.124298095703      0.0999509021639824    0.000910271400281352                       0 
      -1.72972972972973                       0        1.22509503364563        41.6673011779785    1.35520956977639E-09           254022.703125          101325.6015625        288.124298095703      0.0999509021639824     0.00091027852691323                       0 
      -1.72472472472472                       0        1.22509503364563        41.6673011779785    1.42666639774438E-09           254022.703125          101325.6015625        288.124298095703      0.0999509021639824    0.000910285653545108                       0 
      -1.71971971971972                       0        1.22509503364563        41.6673011779785    1.46085238685615E-09           254022.703125          101325.6015625        288.124298095703      0.0999509021639824     0.00091029276673433                       0 
      -1.71471471471471                       0        1.22509503364563        41.6673011779785     1.4315868641819E-09           254022.703125          101325.6015625        288.124298095703      0.0999509021639824    0.000910299868649752                       0 
      -1.70970970970971                       0        1.22509503364563        41.6673011779785    1.40232134150766E-09           254022.703125          101325.6015625        288.124298095703      0.0999509021639824    0.000910306970565174                       0 
       -1.7047047047047                       0        1.22509503364563        41.6673011779785    1.37305581883341E-09           254022.703125          101325.6015625        288.124298095703      0.0999509021639824    0.000910314072480596                       0 
       -1.6996996996997                       0        1.22509503364563        41.6673011779785    1.34379029615917E-09           254022.703125          101325.6015625        288.124298095703      0.0999509021639824    0.000910321174396018                       0 
      -1.69469469469469                       0        1.22509503364563        41.6673011779785    1.31452477348492E-09           254022.703125          101325.6015625        288.124298095703      0.0999509021639824     0.00091032827631144                       0 
      -1.68968968968969                       0        1.22509503364563        41.6673011779785    1.28525925081068E-09           254022.703125          101325.6015625        288.124298095703      0.0999509021639824    0.000910335378226862                       0 
      -1.68468468468468                       0        1.22509503364563        41.6673011779785    1.25599372813644E-09           254022.703125          101325.6015625        288.124298095703      0.0999509021639824    0.000910342480142284                       0 
      -1.67967967967968                       0        1.22509503364563        41.6673011779785    1.22672820546219E-09           254022.703125          101325.6015625        288.124298095703      0.0999509021639824    0.000910349582057706                       0 
      -1.67467467467467                       0        1.22509503364563        41.6673011779785    1.18230189402095E-09           254022.703125          101325.6015625        288.124298095703      0.0999509021639824    0.000910356719915698                       0 
      -1.66966966966967                       0        1.22509503364563        41.6673011779785    1.08117684758257E-09           254022.703125          101325.6015625        288.124298095703      0.0999509021639824    0.000910363992192703                       0 
      -1.66466466466466                       0        1.22509503364563        41.6673011779785     9.8005180114419E-10           254022.703125          101325.6015625        288.124298095703      0.0999509021639824    0.000910371264469707                       0 
      -1.65965965965966                       0        1.22509503364563        41.6673011779785    8.78926754705808E-10           254022.703125          101325.6015625        288.124298095703      0.0999509021639824    0.000910378536746711                       0 
      -1.65465465465465                       0        1.22509503364563        41.6673011779785    7.77801708267433E-10           254022.703125          101325.6015625        288.124298095703      0.0999509021639824    0.000910385809023716                       0 
      -1.64964964964965                       0        1.22509503364563        41.6673011779785    6.76676661829055E-10           254022.703125          101325.6015625        288.124298095703      0.0999509021639824     0.00091039308130072                       0 
      -1.64464464464464                       0        1.22509503364563        41.6673011779785    5.75551615390676E-10           254022.703125          101325.6015625        288.124298095703      0.0999509021639824    0.000910400353577725                       0 
      -1.63963963963964                       0        1.22509503364563        41.6673011779785    4.74426568952297E-10           254022.703125          101325.6015625        288.124298095703      0.0999509021639824    0.000910407625854729                       0 
      -1.63463463463463                       0        1.22509503364563        41.6673011779785    3.73301522513914E-10           254022.703125          101325.6015625        288.124298095703      0.0999509021639824    0.000910414898131733                       0 
      -1.62962962962963                       0        1.22509503364563        41.6673011779785     2.7217647607554E-10           254022.703125          101325.6015625        288.124298095703      0.0999509021639824    0.000910422170408738                       0 
      -1.62462462462462                       0        1.22509503364563        41.6673011779785      3.464860239876E-10           254022.703125          101325.6015625        288.124298095703      0.0999509021639824    0.000910429157665462                       0 
      -1.61961961961962                       0        1.22509503364563        41.6673011779785    4.56005747083496E-10           254022.703125          101325.6015625        288.124298095703      0.0999509021639824    0.000910436086428028                       0 
      -1.61461461461461                       0        1.22509503364563        41.6673011779785    5.65525470179382E-10           254022.703125          101325.6015625        288.124298095703      0.0999509021639824    0.000910443015190594                       0 
      -1.60960960960961                       0        1.22509503364563        41.6673011779785    6.75045193275277E-10           254022.703125          101325.6015625        288.124298095703      0.0999509021639824     0.00091044994395316                       0 
       -1.6046046046046                       0        1.22509503364563        41.6673011779785    7.84564916371163E-10           254022.703125          101325.6015625        288.124298095703      0.0999509021639824    0.000910456872715726                       0 
       -1.5995995995996                       0        1.22509503364563        41.6673011779785    8.94084639467054E-10           254022.703125          101325.6015625        288.124298095703      0.0999509021639824    0.000910463801478292                       0 
      -1.59459459459459                       0        1.22509503364563        41.6673011779785    1.00360436256295E-09           254022.703125          101325.6015625        288.124298095703      0.0999509021639824    0.000910470730240858                       0 
      -1.58958958958959                       0        1.22509503364563        41.6673011779785    1.11312408565884E-09           254022.703125          101325.6015625        288.124298095703      0.0999509021639824    0.000910477659003423                       0 
      -1.58458458458458                       0        1.22509503364563        41.6673011779785    1.22264380875473E-09           254022.703125          101325.6015625        288.124298095703      0.0999509021639824    0.000910484587765989                       0 
      -1.57957957957958                       0        1.22509503364563        41.6673011779785      1.404878464376E-09           254022.703125          101325.6015625        288.124298095703      0.0999509021639824    0.000910491469211427                       0 
      -1.57457457457457                       0        1.22509503364563        41.6673011779785    1.62044552119415E-09           254022.703125          101325.6015625        288.124298095703      0.0999509021639824    0.000910498328966772                       0 
      -1.56956956956957                       0        1.22509503364563        41.6673011779785    1.83601257801231E-09           254022.703125          101325.6015625        288.124298095703      0.0999509021639824    0.000910505188722118                       0 
      -1.56456456456456                       0        1.22509503364563        41.6673011779785    2.05157963483046E-09           254022.703125          101325.6015625        288.124298095703      0.0999509021639824    0.000910512048477464                       0 
      -1.55955955955956                       0        1.22509503364563        41.6673011779785    2.26714669164863E-09           254022.703125          101325.6015625        288.124298095703      0.0999509021639824     0.00091051890823281                       0 
      -1.55455455455455                       0        1.22509503364563        41.6673011779785    2.48271374846679E-09           254022.703125          101325.6015625        288.124298095703      0.0999509021639824    0.000910525767988156                       0 
      -1.54954954954955                       0        1.22509503364563        41.6673011779785    2.69828080528494E-09           254022.703125          101325.6015625        288.124298095703      0.0999509021639824    0.000910532627743501                       0 
      -1.54454454454454                       0        1.22509503364563        41.6673011779785    2.91384786210311E-09           254022.703125          101325.6015625        288.124298095703      0.0999509021639824    0.000910539487498847                       0 
      -1.53953953953954                       0        1.22509503364563        41.6673011779785    3.12941491892126E-09           254022.703125          101325.6015625        288.124298095703      0.0999509021639824    0.000910546347254193                       0 
      -1.53453453453453                       0        1.22509503364563        41.6673011779785    3.34067602452249E-09           254022.703125          101325.6015625        288.124298095703      0.0999509021639824    0.000910553313842705                       0 
      -1.52952952952953                       0        1.22509503364563        41.6673011779785    3.55792383071728E-09           254022.703125          101325.6015625        288.124298095703      0.0999509021639824     0.00091056037435676                       0 
      -1.52452452452452                       0        1.22509503364563        41.6673011779785    3.77517163691205E-09           254022.703125          101325.6015625        288.124298095703      0.0999509021639824    0.000910567434870815                       0 
      -1.51951951951952                       0        1.22509503364563        41.6673011779785    3.99241944310685E-09           254022.703125          101325.6015625        288.124298095703      0.0999509021639824    0.000910574495384871                       0 
      -1.51451451451451                       0        1.22509503364563        41.6673011779785    4.20966724930163E-09           254022.703125          101325.6015625        288.124298095703      0.0999509021639824    0.000910581555898926                       0 
      -1.50950950950951                       0        1.22509503364563        41.6673011779785    4.42691505549642E-09           254022.703125          101325.6015625        288.124298095703      0.0999509021639824    0.000910588616412981                       0 
       -1.5045045045045                       0        1.22509503364563        41.6673011779785     4.6441628616912E-09           254022.703125          101325.6015625        288.124298095703      0.0999509021639824    0.000910595676927036                       0 
       -1.4994994994995                       0        1.22509503364563        41.6673011779785    4.86141066788599E-09           254022.703125          101325.6015625        288.124298095703      0.0999509021639824    0.000910602737441092                       0 
      -1.49449449449449                       0        1.22509503364563        41.6673011779785    5.07865847408077E-09           254022.703125          101325.6015625        288.124298095703      0.0999509021639824    0.000910609797955147                       0 
      -1.48948948948949                       0        1.22509503364563        41.6673011779785    5.27599890852634E-09           254022.703125          101325.6015625        288.124298095703      0.0999509021639824    0.000910616816215829                       0 
      -1.48448448448448                       0        1.22509503364563        41.6673011779785    5.37755623289788E-09           254022.703125          101325.6015625        288.124298095703      0.0999509021639824    0.000910623631176973                       0 
      -1.47947947947948                       0        1.22509503364563        41.6673011779785    5.47911355726943E-09           254022.703125          101325.6015625        288.124298095703      0.0999509021639824    0.000910630446138117                       0 
      -1.47447447447447                       0        1.22509503364563        41.6673011779785    5.58067088164098E-09           254022.703125          101325.6015625        288.124298095703      0.0999509021639824    0.000910637261099261                       0 
      -1.46946946946947                       0        1.22509503364563        41.6673011779785    5.68222820601253E-09           254022.703125          101325.6015625        288.124298095703      0.0999509021639824    0.000910644076060405                       0 
      -1.46446446446446                       0        1.22509503364563        41.6673011779785    5.78378553038408E-09           254022.703125          101325.6015625        288.124298095703      0.0999509021639824    0.000910650891021548                       0 
      -1.45945945945946                       0        1.22509503364563        41.6673011779785    5.88534285475563E-09           254022.703125          101325.6015625        288.124298095703      0.0999509021639824    0.000910657705982692                       0 
      -1.45445445445445                       0        1.22509503364563        41.6673011779785    5.98690017912717E-09           254022.703125          101325.6015625        288.124298095703      0.0999509021639824    0.000910664520943836                       0 
      -1.44944944944945                       0        1.22509503364563        41.6673011779785    6.08845750349872E-09           254022.703125          101325.6015625        288.124298095703      0.0999509021639824    0.000910671335904979                       0 
      -1.44444444444444                       0        1.22509503364563        41.6673011779785    5.97195139069758E-09           254022.703125          101325.6015625        288.124298095703      0.0999509021639824     0.00091067816256792                       0 