TITLE = "SU2 Simulation"
VARIABLES = "Iteration","CL","CD","CSF","CMx","CMy","CMz","CFx","CFy","CFz","CL/CD","AoA","Custom_ObjFunc","Res_Flow[0]","Res_Flow[1]","Res_Flow[2]","Res_Flow[3]","Res_Flow[4]","Linear_Solver_Iterations","CFL_Number","Time(min)"
ZONE T= "Convergence history"
           0, 0.00000000e+00, 0.00000000e+00, 0.00000000e+00, 0.00000000e+00, 0.00000000e+00, 0.00000000e+00, 0.00000000e+00, 0.00000000e+00, 0.00000000e+00, 0.00000000e+00, 0.00000000e+00, 0.00000000e+00, -3.36372054e+00, -7.53956827e-01, -1.23735117e+01, 2.15574448e+00, 0.00000000e+00, 5.0000000000, 5.0000000000, 0.0001046000
           1, 0.00000000e+00, 0.00000000e+00, 0.00000000e+00, 0.00000000e+00, 0.00000000e+00, 0.00000000e+00, 0.00000000e+00, 0.00000000e+00, 0.00000000e+00, 0.00000000e+00, 0.00000000e+00, 0.00000000e+00, -3.70277963e+00, -1.07867418e+00, -2.79938981e+00, 1.83699723e+00, 0.00000000e+00, 5.0000000000, 5.0000000000, 0.0002033833
           2, 0.00000000e+00, 0.00000000e+00, 0.00000000e+00, 0.00000000e+00, 0.00000000e+00, 0.00000000e+00, 0.00000000e+00, 0.00000000e+00, 0.00000000e+00, 0.00000000e+00, 0.00000000e+00, 0.00000000e+00, -3.75654936e+00, -1.18304562e+00, -2.55934524e+00, 1.73109674e+00, 0.00000000e+00, 5.0000000000, 5.0000000000, 0.0002614000
           3, 0.00000000e+00, 0.00000000e+00, 0.00000000e+00, 0.00000000e+00, 0.00000000e+00, 0.00000000e+00, 0.00000000e+00, 0.00000000e+00, 0.00000000e+00, 0.00000000e+00, 0.00000000e+00, 0.00000000e+00, -3.72749890e+00, -1.18923764e+00, -2.40218918e+00, 1.72361144e+00, 0.00000000e+00, 5.0000000000, 5.0000000000, 0.0003193667
           4, 0.00000000e+00, 0.00000000e+00, 0.00000000e+00, 0.00000000e+00, 0.00000000e+00, 0.00000000e+00, 0.00000000e+00, 0.00000000e+00, 0.00000000e+00, 0.00000000e+00, 0.00000000e+00, 0.00000000e+00, -3.73776452e+00, -1.20900472e+00, -2.10002917e+00, 1.69721218e+00, 0.00000000e+00, 5.0000000000, 5.0000000000, 0.0003794500
           5, 0.00000000e+00, 0.00000000e+00, 0.00000000e+00, 0.00000000e+00, 0.00000000e+00, 0.00000000e+00, 0.00000000e+00, 0.00000000e+00, 0.00000000e+00, 0.00000000e+00, 0.00000000e+00, 0.00000000e+00, -3.77411618e+00, -1.24204826e+00, -1.92712473e+00, 1.65165519e+00, 0.00000000e+00, 5.0000000000, 5.0000000000, 0.0004475667
           6, 0.00000000e+00, 0.00000000e+00, 0.00000000e+00, 0.00000000e+00, 0.00000000e+00, 0.00000000e+00, 0.00000000e+00, 0.00000000e+00, 0.00000000e+00, 0.00000000e+00, 0.00000000e+00, 0.00000000e+00, -3.81344109e+00, -1.27819880e+00, -1.87135950e+00, 1.60805882e+00, 0.00000000e+00, 5.0000000000, 5.0000000000, 0.0005105500
           7, 0.00000000e+00, 0.00000000e+00, 0.00000000e+00, 0.00000000e+00, 0.00000000e+00, 0.00000000e+00, 0.00000000e+00, 0.00000000e+00, 0.00000000e+00, 0.00000000e+00, 0.00000000e+00, 0.00000000e+00, -3.84033104e+00, -1.30949923e+00, -1.90216362e+00, 1.58165434e+00, 0.00000000e+00, 5.0000000000, 5.0000000000, 0.0005701500
           8, 0.00000000e+00, 0.00000000e+00, 0.00000000e+00, 0.00000000e+00, 0.00000000e+00, 0.00000000e+00, 0.00000000e+00, 0.00000000e+00, 0.00000000e+00, 0.00000000e+00, 0.00000000e+00, 0.00000000e+00, -3.85417010e+00, -1.33124548e+00, -2.00171613e+00, 1.57081348e+00, 0.00000000e+00, 5.0000000000, 5.0000000000, 0.0006285000
           9, 0.00000000e+00, 0.00000000e+00, 0.00000000e+00, 0.00000000e+00, 0.00000000e+00, 0.00000000e+00, 0.00000000e+00, 0.00000000e+00, 0.00000000e+00, 0.00000000e+00, 0.00000000e+00, 0.00000000e+00, -3.86193422e+00, -1.34331685e+00, -2.15438106e+00, 1.56620741e+00, 0.00000000e+00, 5.0000000000, 5.0000000000, 0.0006884667
          10, 0.00000000e+00, 0.00000000e+00, 0.00000000e+00, 0.00000000e+00, 0.00000000e+00, 0.00000000e+00, 0.00000000e+00, 0.00000000e+00, 0.00000000e+00, 0.00000000e+00, 0.00000000e+00, 0.00000000e+00, -3.86844350e+00, -1.34822825e+00, -2.33150754e+00, 1.56221156e+00, 0.00000000e+00, 5.0000000000, 5.0000000000, 0.0007478667
          11, 0.00000000e+00, 0.00000000e+00, 0.00000000e+00, 0.00000000e+00, 0.00000000e+00, 0.00000000e+00, 0.00000000e+00, 0.00000000e+00, 0.00000000e+00, 0.00000000e+00, 0.00000000e+00, 0.00000000e+00, -3.87562711e+00, -1.34801067e+00, -2.48260970e+00, 1.55684689e+00, 0.00000000e+00, 5.0000000000, 5.0000000000, 0.0008051167
          12, 0.00000000e+00, 0.00000000e+00, 0.00000000e+00, 0.00000000e+00, 0.00000000e+00, 0.00000000e+00, 0.00000000e+00, 0.00000000e+00, 0.00000000e+00, 0.00000000e+00, 0.00000000e+00, 0.00000000e+00, -3.88518049e+00, -1.34316148e+00, -2.57937172e+00, 1.54837023e+00, 0.00000000e+00, 5.0000000000, 5.0000000000, 0.0008627333
          13, 0.00000000e+00, 0.00000000e+00, 0.00000000e+00, 0.00000000e+00, 0.00000000e+00, 0.00000000e+00, 0.00000000e+00, 0.00000000e+00, 0.00000000e+00, 0.00000000e+00, 0.00000000e+00, 0.00000000e+00, -3.89944117e+00, -1.33365746e+00, -2.63849797e+00, 1.53427867e+00, 0.00000000e+00, 5.0000000000, 5.0000000000, 0.0009206000
          14, 0.00000000e+00, 0.00000000e+00, 0.00000000e+00, 0.00000000e+00, 0.00000000e+00, 0.00000000e+00, 0.00000000e+00, 0.00000000e+00, 0.00000000e+00, 0.00000000e+00, 0.00000000e+00, 0.00000000e+00, -3.92058691e+00, -1.32036094e+00, -2.67102045e+00, 1.51218824e+00, 0.00000000e+00, 5.0000000000, 5.0000000000, 0.0009852833
          15, 0.00000000e+00, 0.00000000e+00, 0.00000000e+00, 0.00000000e+00, 0.00000000e+00, 0.00000000e+00, 0.00000000e+00, 0.00000000e+00, 0.00000000e+00, 0.00000000e+00, 0.00000000e+00, 0.00000000e+00, -3.94946436e+00, -1.30556031e+00, -2.68801478e+00, 1.48108083e+00, 0.00000000e+00, 5.0000000000, 5.0000000000, 0.0010482333
          16, 0.00000000e+00, 0.00000000e+00, 0.00000000e+00, 0.00000000e+00, 0.00000000e+00, 0.00000000e+00, 0.00000000e+00, 0.00000000e+00, 0.00000000e+00, 0.00000000e+00, 0.00000000e+00, 0.00000000e+00, -3.98425111e+00, -1.29249936e+00, -2.70882803e+00, 1.44285126e+00, 0.00000000e+00, 5.0000000000, 5.0000000000, 0.0011109500
          17, 0.00000000e+00, 0.00000000e+00, 0.00000000e+00, 0.00000000e+00, 0.00000000e+00, 0.00000000e+00, 0.00000000e+00, 0.00000000e+00, 0.00000000e+00, 0.00000000e+00, 0.00000000e+00, 0.00000000e+00, -4.01868781e+00, -1.28455903e+00, -2.74218585e+00, 1.40467486e+00, 0.00000000e+00, 5.0000000000, 5.0000000000, 0.0011696333
          18, 0.00000000e+00, 0.00000000e+00, 0.00000000e+00, 0.00000000e+00, 0.00000000e+00, 0.00000000e+00, 0.00000000e+00, 0.00000000e+00, 0.00000000e+00, 0.00000000e+00, 0.00000000e+00, 0.00000000e+00, -4.04134940e+00, -1.28471546e+00, -2.78096255e+00, 1.38042589e+00, 0.00000000e+00, 5.0000000000, 5.0000000000, 0.0012266333
          19, 0.00000000e+00, 0.00000000e+00, 0.00000000e+00, 0.00000000e+00, 0.00000000e+00, 0.00000000e+00, 0.00000000e+00, 0.00000000e+00, 0.00000000e+00, 0.00000000e+00, 0.00000000e+00, 0.00000000e+00, -4.04063981e+00, -1.29542996e+00, -2.81237555e+00, 1.38427037e+00, 0.00000000e+00, 5.0000000000, 5.0000000000, 0.0012834667
          20, 0.00000000e+00, 0.00000000e+00, 0.00000000e+00, 0.00000000e+00, 0.00000000e+00, 0.00000000e+00, 0.00000000e+00, 0.00000000e+00, 0.00000000e+00, 0.00000000e+00, 0.00000000e+00, 0.00000000e+00, -4.01511173e+00, -1.31884370e+00, -2.83320590e+00, 1.41671397e+00, 0.00000000e+00, 5.0000000000, 5.0000000000, 0.0013424000
          21, 0.00000000e+00, 0.00000000e+00, 0.00000000e+00, 0.00000000e+00, 0.00000000e+00, 0.00000000e+00, 0.00000000e+00, 0.00000000e+00, 0.00000000e+00, 0.00000000e+00, 0.00000000e+00, 0.00000000e+00, -3.97507063e+00, -1.35713766e+00, -2.85261182e+00, 1.46397153e+00, 0.00000000e+00, 5.0000000000, 5.0000000000, 0.0014036667
          22, 0.00000000e+00, 0.00000000e+00, 0.00000000e+00, 0.00000000e+00, 0.00000000e+00, 0.00000000e+00, 0.00000000e+00, 0.00000000e+00, 0.00000000e+00, 0.00000000e+00, 0.00000000e+00, 0.00000000e+00, -3.93284891e+00, -1.41303438e+00, -2.88091080e+00, 1.51169096e+00, 0.00000000e+00, 5.0000000000, 5.0000000000, 0.0014636833
          23, 0.00000000e+00, 0.00000000e+00, 0.00000000e+00, 0.00000000e+00, 0.00000000e+00, 0.00000000e+00, 0.00000000e+00, 0.00000000e+00, 0.00000000e+00, 0.00000000e+00, 0.00000000e+00, 0.00000000e+00, -3.89628489e+00, -1.49056283e+00, -2.92190178e+00, 1.55185926e+00, 0.00000000e+00, 5.0000000000, 5.0000000000, 0.0015265000
          24, 0.00000000e+00, 0.00000000e+00, 0.00000000e+00, 0.00000000e+00, 0.00000000e+00, 0.00000000e+00, 0.00000000e+00, 0.00000000e+00, 0.00000000e+00, 0.00000000e+00, 0.00000000e+00, 0.00000000e+00, -3.86879936e+00, -1.59634707e+00, -2.97122865e+00, 1.58148531e+00, 0.00000000e+00, 5.0000000000, 5.0000000000, 0.0015900333
          25, 0.00000000e+00, 0.00000000e+00, 0.00000000e+00, 0.00000000e+00, 0.00000000e+00, 0.00000000e+00, 0.00000000e+00, 0.00000000e+00, 0.00000000e+00, 0.00000000e+00, 0.00000000e+00, 0.00000000e+00, -3.85128197e+00, -1.74169128e+00, -3.01540200e+00, 1.60008658e+00, 0.00000000e+00, 5.0000000000, 5.0000000000, 0.0016567167
          26, 0.00000000e+00, 0.00000000e+00, 0.00000000e+00, 0.00000000e+00, 0.00000000e+00, 0.00000000e+00, 0.00000000e+00, 0.00000000e+00, 0.00000000e+00, 0.00000000e+00, 0.00000000e+00, 0.00000000e+00, -3.84343866e+00, -1.94044146e+00, -3.03513957e+00, 1.60821393e+00, 0.00000000e+00, 5.0000000000, 5.0000000000, 0.0017163500
          27, 0.00000000e+00, 0.00000000e+00, 0.00000000e+00, 0.00000000e+00, 0.00000000e+00, 0.00000000e+00, 0.00000000e+00, 0.00000000e+00, 0.00000000e+00, 0.00000000e+00, 0.00000000e+00, 0.00000000e+00, -3.84446716e+00, -2.12173425e+00, -3.02128674e+00, 1.60679208e+00, 0.00000000e+00, 5.0000000000, 5.0000000000, 0.0017726500
          28, 0.00000000e+00, 0.00000000e+00, 0.00000000e+00, 0.00000000e+00, 0.00000000e+00, 0.00000000e+00, 0.00000000e+00, 0.00000000e+00, 0.00000000e+00, 0.00000000e+00, 0.00000000e+00, 0.00000000e+00, -3.85335359e+00, -2.01413613e+00, -2.98538184e+00, 1.59685413e+00, 0.00000000e+00, 5.0000000000, 5.0000000000, 0.0018340167
          29, 0.00000000e+00, 0.00000000e+00, 0.00000000e+00, 0.00000000e+00, 0.00000000e+00, 0.00000000e+00, 0.00000000e+00, 0.00000000e+00, 0.00000000e+00, 0.00000000e+00, 0.00000000e+00, 0.00000000e+00, -3.86899991e+00, -1.83150598e+00, -2.94554481e+00, 1.57943490e+00, 0.00000000e+00, 5.0000000000, 5.0000000000, 0.0018905000
          30, 0.00000000e+00, 0.00000000e+00, 0.00000000e+00, 0.00000000e+00, 0.00000000e+00, 0.00000000e+00, 0.00000000e+00, 0.00000000e+00, 0.00000000e+00, 0.00000000e+00, 0.00000000e+00, 0.00000000e+00, -3.89029057e+00, -1.70025637e+00, -2.91311599e+00, 1.55551587e+00, 0.00000000e+00, 5.0000000000, 5.0000000000, 0.0019465167
          31, 0.00000000e+00, 0.00000000e+00, 0.00000000e+00, 0.00000000e+00, 0.00000000e+00, 0.00000000e+00, 0.00000000e+00, 0.00000000e+00, 0.00000000e+00, 0.00000000e+00, 0.00000000e+00, 0.00000000e+00, -3.91614828e+00, -1.60910263e+00, -2.89238228e+00, 1.52597725e+00, 0.00000000e+00, 5.0000000000, 5.0000000000, 0.0020081500
          32, 0.00000000e+00, 0.00000000e+00, 0.00000000e+00, 0.00000000e+00, 0.00000000e+00, 0.00000000e+00, 0.00000000e+00, 0.00000000e+00, 0.00000000e+00, 0.00000000e+00, 0.00000000e+00, 0.00000000e+00, -3.94559658e+00, -1.54443149e+00, -2.88384109e+00, 1.49154345e+00, 0.00000000e+00, 5.0000000000, 5.0000000000, 0.0020706667
          33, 0.00000000e+00, 0.00000000e+00, 0.00000000e+00, 0.00000000e+00, 0.00000000e+00, 0.00000000e+00, 0.00000000e+00, 0.00000000e+00, 0.00000000e+00, 0.00000000e+00, 0.00000000e+00, 0.00000000e+00, -3.97782549e+00, -1.49772276e+00, -2.88628979e+00, 1.45272670e+00, 0.00000000e+00, 5.0000000000, 5.0000000000, 0.0021350500
          34, 0.00000000e+00, 0.00000000e+00, 0.00000000e+00, 0.00000000e+00, 0.00000000e+00, 0.00000000e+00, 0.00000000e+00, 0.00000000e+00, 0.00000000e+00, 0.00000000e+00, 0.00000000e+00, 0.00000000e+00, -4.01224134e+00, -1.46351294e+00, -2.89772918e+00, 1.40978669e+00, 0.00000000e+00, 5.0000000000, 5.0000000000, 0.0022031333
          35, 0.00000000e+00, 0.00000000e+00, 0.00000000e+00, 0.00000000e+00, 0.00000000e+00, 0.00000000e+00, 0.00000000e+00, 0.00000000e+00, 0.00000000e+00, 0.00000000e+00, 0.00000000e+00, 0.00000000e+00, -4.04847172e+00, -1.43808640e+00, -2.91569912e+00, 1.36273715e+00, 0.00000000e+00, 5.0000000000, 5.0000000000, 0.0022612833
          36, 0.00000000e+00, 0.00000000e+00, 0.00000000e+00, 0.00000000e+00, 0.00000000e+00, 0.00000000e+00, 0.00000000e+00, 0.00000000e+00, 0.00000000e+00, 0.00000000e+00, 0.00000000e+00, 0.00000000e+00, -4.08629176e+00, -1.41883894e+00, -2.93744706e+00, 1.31145373e+00, 0.00000000e+00, 5.0000000000, 5.0000000000, 0.0023166500
          37, 0.00000000e+00, 0.00000000e+00, 0.00000000e+00, 0.00000000e+00, 0.00000000e+00, 0.00000000e+00, 0.00000000e+00, 0.00000000e+00, 0.00000000e+00, 0.00000000e+00, 0.00000000e+00, 0.00000000e+00, -4.12543383e+00, -1.40397489e+00, -2.96015413e+00, 1.25599270e+00, 0.00000000e+00, 5.0000000000, 5.0000000000, 0.0023768167
          38, 0.00000000e+00, 0.00000000e+00, 0.00000000e+00, 0.00000000e+00, 0.00000000e+00, 0.00000000e+00, 0.00000000e+00, 0.00000000e+00, 0.00000000e+00, 0.00000000e+00, 0.00000000e+00, 0.00000000e+00, -4.16523760e+00, -1.39234719e+00, -2.98131516e+00, 1.19735183e+00, 0.00000000e+00, 5.0000000000, 5.0000000000, 0.0024334500
          39, 0.00000000e+00, 0.00000000e+00, 0.00000000e+00, 0.00000000e+00, 0.00000000e+00, 0.00000000e+00, 0.00000000e+00, 0.00000000e+00, 0.00000000e+00, 0.00000000e+00, 0.00000000e+00, 0.00000000e+00, -4.20410685e+00, -1.38334229e+00, -2.99921502e+00, 1.13906583e+00, 0.00000000e+00, 5.0000000000, 5.0000000000, 0.0024886667
          40, 0.00000000e+00, 0.00000000e+00, 0.00000000e+00, 0.00000000e+00, 0.00000000e+00, 0.00000000e+00, 0.00000000e+00, 0.00000000e+00, 0.00000000e+00, 0.00000000e+00, 0.00000000e+00, 0.00000000e+00, -4.23885036e+00, -1.37676715e+00, -3.01329356e+00, 1.08969615e+00, 0.00000000e+00, 5.0000000000, 5.0000000000, 0.0025456333
          41, 0.00000000e+00, 0.00000000e+00, 0.00000000e+00, 0.00000000e+00, 0.00000000e+00, 0.00000000e+00, 0.00000000e+00, 0.00000000e+00, 0.00000000e+00, 0.00000000e+00, 0.00000000e+00, 0.00000000e+00, -4.26436979e+00, -1.37273152e+00, -3.02414730e+00, 1.06354348e+00, 0.00000000e+00, 5.0000000000, 5.0000000000, 0.0026121500
          42, 0.00000000e+00, 0.00000000e+00, 0.00000000e+00, 0.00000000e+00, 0.00000000e+00, 0.00000000e+00, 0.00000000e+00, 0.00000000e+00, 0.00000000e+00, 0.00000000e+00, 0.00000000e+00, 0.00000000e+00, -4.27474011e+00, -1.37153661e+00, -3.03310196e+00, 1.07279826e+00, 0.00000000e+00, 5.0000000000, 5.0000000000, 0.0026721500
          43, 0.00000000e+00, 0.00000000e+00, 0.00000000e+00, 0.00000000e+00, 0.00000000e+00, 0.00000000e+00, 0.00000000e+00, 0.00000000e+00, 0.00000000e+00, 0.00000000e+00, 0.00000000e+00, 0.00000000e+00, -4.26624349e+00, -1.37358276e+00, -3.04171437e+00, 1.11488773e+00, 0.00000000e+00, 5.0000000000, 5.0000000000, 0.0027295667
          44, 0.00000000e+00, 0.00000000e+00, 0.00000000e+00, 0.00000000e+00, 0.00000000e+00, 0.00000000e+00, 0.00000000e+00, 0.00000000e+00, 0.00000000e+00, 0.00000000e+00, 0.00000000e+00, 0.00000000e+00, -4.24015376e+00, -1.37930275e+00, -3.05147717e+00, 1.17508252e+00, 0.00000000e+00, 5.0000000000, 5.0000000000, 0.0027880667
          45, 0.00000000e+00, 0.00000000e+00, 0.00000000e+00, 0.00000000e+00, 0.00000000e+00, 0.00000000e+00, 0.00000000e+00, 0.00000000e+00, 0.00000000e+00, 0.00000000e+00, 0.00000000e+00, 0.00000000e+00, -4.20203742e+00, -1.38913854e+00, -3.06365340e+00, 1.23966282e+00, 0.00000000e+00, 5.0000000000, 5.0000000000, 0.0028468500
          46, 0.00000000e+00, 0.00000000e+00, 0.00000000e+00, 0.00000000e+00, 0.00000000e+00, 0.00000000e+00, 0.00000000e+00, 0.00000000e+00, 0.00000000e+00, 0.00000000e+00, 0.00000000e+00, 0.00000000e+00, -4.15841903e+00, -1.40354047e+00, -3.07918886e+00, 1.30107269e+00, 0.00000000e+00, 5.0000000000, 5.0000000000, 0.0029085333
          47, 0.00000000e+00, 0.00000000e+00, 0.00000000e+00, 0.00000000e+00, 0.00000000e+00, 0.00000000e+00, 0.00000000e+00, 0.00000000e+00, 0.00000000e+00, 0.00000000e+00, 0.00000000e+00, 0.00000000e+00, -4.11428445e+00, -1.42295358e+00, -3.09864045e+00, 1.35630616e+00, 0.00000000e+00, 5.0000000000, 5.0000000000, 0.0029745167
          48, 0.00000000e+00, 0.00000000e+00, 0.00000000e+00, 0.00000000e+00, 0.00000000e+00, 0.00000000e+00, 0.00000000e+00, 0.00000000e+00, 0.00000000e+00, 0.00000000e+00, 0.00000000e+00, 0.00000000e+00, -4.07264634e+00, -1.44784424e+00, -3.12208784e+00, 1.40457421e+00, 0.00000000e+00, 5.0000000000, 5.0000000000, 0.0030348333
          49, 0.00000000e+00, 0.00000000e+00, 0.00000000e+00, 0.00000000e+00, 0.00000000e+00, 0.00000000e+00, 0.00000000e+00, 0.00000000e+00, 0.00000000e+00, 0.00000000e+00, 0.00000000e+00, 0.00000000e+00, -4.03503463e+00, -1.47873772e+00, -3.14907849e+00, 1.44600130e+00, 0.00000000e+00, 5.0000000000, 5.0000000000, 0.0030986000
          50, 0.00000000e+00, 0.00000000e+00, 0.00000000e+00, 0.00000000e+00, 0.00000000e+00, 0.00000000e+00, 0.00000000e+00, 0.00000000e+00, 0.00000000e+00, 0.00000000e+00, 0.00000000e+00, 0.00000000e+00, -4.00207290e+00, -1.51626440e+00, -3.17856780e+00, 1.48104194e+00, 0.00000000e+00, 5.0000000000, 5.0000000000, 0.0031614000
          51, 0.00000000e+00, 0.00000000e+00, 0.00000000e+00, 0.00000000e+00, 0.00000000e+00, 0.00000000e+00, 0.00000000e+00, 0.00000000e+00, 0.00000000e+00, 0.00000000e+00, 0.00000000e+00, 0.00000000e+00, -3.97388814e+00, -1.56121845e+00, -3.20885620e+00, 1.51023816e+00, 0.00000000e+00, 5.0000000000, 5.0000000000, 0.0032239667
          52, 0.00000000e+00, 0.00000000e+00, 0.00000000e+00, 0.00000000e+00, 0.00000000e+00, 0.00000000e+00, 0.00000000e+00, 0.00000000e+00, 0.00000000e+00, 0.00000000e+00, 0.00000000e+00, 0.00000000e+00, -3.95035696e+00, -1.61462860e+00, -3.23761223e+00, 1.53412270e+00, 0.00000000e+00, 5.0000000000, 5.0000000000, 0.0032841833
          53, 0.00000000e+00, 0.00000000e+00, 0.00000000e+00, 0.00000000e+00, 0.00000000e+00, 0.00000000e+00, 0.00000000e+00, 0.00000000e+00, 0.00000000e+00, 0.00000000e+00, 0.00000000e+00, 0.00000000e+00, -3.93124409e+00, -1.67782560e+00, -3.26214654e+00, 1.55318184e+00, 0.00000000e+00, 5.0000000000, 5.0000000000, 0.0033428167
          54, 0.00000000e+00, 0.00000000e+00, 0.00000000e+00, 0.00000000e+00, 0.00000000e+00, 0.00000000e+00, 0.00000000e+00, 0.00000000e+00, 0.00000000e+00, 0.00000000e+00, 0.00000000e+00, 0.00000000e+00, -3.91627896e+00, -1.75243172e+00, -3.28004869e+00, 1.56784189e+00, 0.00000000e+00, 5.0000000000, 5.0000000000, 0.0033997000
          55, 0.00000000e+00, 0.00000000e+00, 0.00000000e+00, 0.00000000e+00, 0.00000000e+00, 0.00000000e+00, 0.00000000e+00, 0.00000000e+00, 0.00000000e+00, 0.00000000e+00, 0.00000000e+00, 0.00000000e+00, -3.90519843e+00, -1.83996554e+00, -3.29000370e+00, 1.57846476e+00, 0.00000000e+00, 5.0000000000, 5.0000000000, 0.0034633000
          56, 0.00000000e+00, 0.00000000e+00, 0.00000000e+00, 0.00000000e+00, 0.00000000e+00, 0.00000000e+00, 0.00000000e+00, 0.00000000e+00, 0.00000000e+00, 0.00000000e+00, 0.00000000e+00, 0.00000000e+00, -3.89777075e+00, -1.93988251e+00, -3.29226842e+00, 1.58534688e+00, 0.00000000e+00, 5.0000000000, 5.0000000000, 0.0035267333
          57, 0.00000000e+00, 0.00000000e+00, 0.00000000e+00, 0.00000000e+00, 0.00000000e+00, 0.00000000e+00, 0.00000000e+00, 0.00000000e+00, 0.00000000e+00, 0.00000000e+00, 0.00000000e+00, 0.00000000e+00, -3.89380896e+00, -2.04224797e+00, -3.28841847e+00, 1.58871950e+00, 0.00000000e+00, 5.0000000000, 5.0000000000, 0.0035892333
          58, 0.00000000e+00, 0.00000000e+00, 0.00000000e+00, 0.00000000e+00, 0.00000000e+00, 0.00000000e+00, 0.00000000e+00, 0.00000000e+00, 0.00000000e+00, 0.00000000e+00, 0.00000000e+00, 0.00000000e+00, -3.89317778e+00, -2.11167994e+00, -3.28057944e+00, 1.58875005e+00, 0.00000000e+00, 5.0000000000, 5.0000000000, 0.0036518333
          59, 0.00000000e+00, 0.00000000e+00, 0.00000000e+00, 0.00000000e+00, 0.00000000e+00, 0.00000000e+00, 0.00000000e+00, 0.00000000e+00, 0.00000000e+00, 0.00000000e+00, 0.00000000e+00, 0.00000000e+00, -3.89579609e+00, -2.10099185e+00, -3.27070131e+00, 1.58554437e+00, 0.00000000e+00, 5.0000000000, 5.0000000000, 0.0037106833
          60, 0.00000000e+00, 0.00000000e+00, 0.00000000e+00, 0.00000000e+00, 0.00000000e+00, 0.00000000e+00, 0.00000000e+00, 0.00000000e+00, 0.00000000e+00, 0.00000000e+00, 0.00000000e+00, 0.00000000e+00, -3.90163670e+00, -2.02533417e+00, -3.26020444e+00, 1.57914972e+00, 0.00000000e+00, 5.0000000000, 5.0000000000, 0.0037700500
          61, 0.00000000e+00, 0.00000000e+00, 0.00000000e+00, 0.00000000e+00, 0.00000000e+00, 0.00000000e+00, 0.00000000e+00, 0.00000000e+00, 0.00000000e+00, 0.00000000e+00, 0.00000000e+00, 0.00000000e+00, -3.91072445e+00, -1.93442737e+00, -3.24996434e+00, 1.56955812e+00, 0.00000000e+00, 5.0000000000, 5.0000000000, 0.0038314333
          62, 0.00000000e+00, 0.00000000e+00, 0.00000000e+00, 0.00000000e+00, 0.00000000e+00, 0.00000000e+00, 0.00000000e+00, 0.00000000e+00, 0.00000000e+00, 0.00000000e+00, 0.00000000e+00, 0.00000000e+00, -3.92313381e+00, -1.85166855e+00, -3.24046193e+00, 1.55670940e+00, 0.00000000e+00, 5.0000000000, 5.0000000000, 0.0038924333
          63, 0.00000000e+00, 0.00000000e+00, 0.00000000e+00, 0.00000000e+00, 0.00000000e+00, 0.00000000e+00, 0.00000000e+00, 0.00000000e+00, 0.00000000e+00, 0.00000000e+00, 0.00000000e+00, 0.00000000e+00, -3.93898753e+00, -1.78170053e+00, -3.23196027e+00, 1.54049291e+00, 0.00000000e+00, 5.0000000000, 5.0000000000, 0.0039484333
          64, 0.00000000e+00, 0.00000000e+00, 0.00000000e+00, 0.00000000e+00, 0.00000000e+00, 0.00000000e+00, 0.00000000e+00, 0.00000000e+00, 0.00000000e+00, 0.00000000e+00, 0.00000000e+00, 0.00000000e+00, -3.95845717e+00, -1.72369296e+00, -3.22463961e+00, 1.52074670e+00, 0.00000000e+00, 5.0000000000, 5.0000000000, 0.0040068500
          65, 0.00000000e+00, 0.00000000e+00, 0.00000000e+00, 0.00000000e+00, 0.00000000e+00, 0.00000000e+00, 0.00000000e+00, 0.00000000e+00, 0.00000000e+00, 0.00000000e+00, 0.00000000e+00, 0.00000000e+00, -3.98176718e+00, -1.67585071e+00, -3.21867192e+00, 1.49725291e+00, 0.00000000e+00, 5.0000000000, 5.0000000000, 0.0040721167
          66, 0.00000000e+00, 0.00000000e+00, 0.00000000e+00, 0.00000000e+00, 0.00000000e+00, 0.00000000e+00, 0.00000000e+00, 0.00000000e+00, 0.00000000e+00, 0.00000000e+00, 0.00000000e+00, 0.00000000e+00, -4.00920340e+00, -1.63650514e+00, -3.21424302e+00, 1.46972779e+00, 0.00000000e+00, 5.0000000000, 5.0000000000, 0.0041342333
          67, 0.00000000e+00, 0.00000000e+00, 0.00000000e+00, 0.00000000e+00, 0.00000000e+00, 0.00000000e+00, 0.00000000e+00, 0.00000000e+00, 0.00000000e+00, 0.00000000e+00, 0.00000000e+00, 0.00000000e+00, -4.04112728e+00, -1.60429452e+00, -3.21153956e+00, 1.43780438e+00, 0.00000000e+00, 5.0000000000, 5.0000000000, 0.0041977333
          68, 0.00000000e+00, 0.00000000e+00, 0.00000000e+00, 0.00000000e+00, 0.00000000e+00, 0.00000000e+00, 0.00000000e+00, 0.00000000e+00, 0.00000000e+00, 0.00000000e+00, 0.00000000e+00, 0.00000000e+00, -4.07799667e+00, -1.57813379e+00, -3.21072076e+00, 1.40100537e+00, 0.00000000e+00, 5.0000000000, 5.0000000000, 0.0042560333
          69, 0.00000000e+00, 0.00000000e+00, 0.00000000e+00, 0.00000000e+00, 0.00000000e+00, 0.00000000e+00, 0.00000000e+00, 0.00000000e+00, 0.00000000e+00, 0.00000000e+00, 0.00000000e+00, 0.00000000e+00, -4.12039307e+00, -1.55715152e+00, -3.21188978e+00, 1.35870259e+00, 0.00000000e+00, 5.0000000000, 5.0000000000, 0.0043183333
          70, 0.00000000e+00, 0.00000000e+00, 0.00000000e+00, 0.00000000e+00, 0.00000000e+00, 0.00000000e+00, 0.00000000e+00, 0.00000000e+00, 0.00000000e+00, 0.00000000e+00, 0.00000000e+00, 0.00000000e+00, -4.16905192e+00, -1.54063537e+00, -3.21507423e+00, 1.31005831e+00, 0.00000000e+00, 5.0000000000, 5.0000000000, 0.0043755167
          71, 0.00000000e+00, 0.00000000e+00, 0.00000000e+00, 0.00000000e+00, 0.00000000e+00, 0.00000000e+00, 0.00000000e+00, 0.00000000e+00, 0.00000000e+00, 0.00000000e+00, 0.00000000e+00, 0.00000000e+00, -4.22488190e+00, -1.52799290e+00, -3.22022030e+00, 1.25394319e+00, 0.00000000e+00, 5.0000000000, 5.0000000000, 0.0044318000
          72, 0.00000000e+00, 0.00000000e+00, 0.00000000e+00, 0.00000000e+00, 0.00000000e+00, 0.00000000e+00, 0.00000000e+00, 0.00000000e+00, 0.00000000e+00, 0.00000000e+00, 0.00000000e+00, 0.00000000e+00, -4.28892510e+00, -1.51872587e+00, -3.22720064e+00, 1.18883085e+00, 0.00000000e+00, 5.0000000000, 5.0000000000, 0.0044922333
          73, 0.00000000e+00, 0.00000000e+00, 0.00000000e+00, 0.00000000e+00, 0.00000000e+00, 0.00000000e+00, 0.00000000e+00, 0.00000000e+00, 0.00000000e+00, 0.00000000e+00, 0.00000000e+00, 0.00000000e+00, -4.36210298e+00, -1.51241500e+00, -3.23583469e+00, 1.11270170e+00, 0.00000000e+00, 5.0000000000, 5.0000000000, 0.0045547500
          74, 0.00000000e+00, 0.00000000e+00, 0.00000000e+00, 0.00000000e+00, 0.00000000e+00, 0.00000000e+00, 0.00000000e+00, 0.00000000e+00, 0.00000000e+00, 0.00000000e+00, 0.00000000e+00, 0.00000000e+00, -4.44426436e+00, -1.50871193e+00, -3.24591775e+00, 1.02314424e+00, 0.00000000e+00, 5.0000000000, 5.0000000000, 0.0046231167
          75, 0.00000000e+00, 0.00000000e+00, 0.00000000e+00, 0.00000000e+00, 0.00000000e+00, 0.00000000e+00, 0.00000000e+00, 0.00000000e+00, 0.00000000e+00, 0.00000000e+00, 0.00000000e+00, 0.00000000e+00, -4.53118981e+00, -1.50733571e+00, -3.25725339e+00, 9.18543967e-01, 0.00000000e+00, 5.0000000000, 5.0000000000, 0.0046858833
          76, 0.00000000e+00, 0.00000000e+00, 0.00000000e+00, 0.00000000e+00, 0.00000000e+00, 0.00000000e+00, 0.00000000e+00, 0.00000000e+00, 0.00000000e+00, 0.00000000e+00, 0.00000000e+00, 0.00000000e+00, -4.60747734e+00, -1.50807148e+00, -3.26968649e+00, 8.04146020e-01, 0.00000000e+00, 5.0000000000, 5.0000000000, 0.0047470667
          77, 0.00000000e+00, 0.00000000e+00, 0.00000000e+00, 0.00000000e+00, 0.00000000e+00, 0.00000000e+00, 0.00000000e+00, 0.00000000e+00, 0.00000000e+00, 0.00000000e+00, 0.00000000e+00, 0.00000000e+00, -4.64184573e+00, -1.51076928e+00, -3.28315655e+00, 7.12427877e-01, 0.00000000e+00, 5.0000000000, 5.0000000000, 0.0048059167
          78, 0.00000000e+00, 0.00000000e+00, 0.00000000e+00, 0.00000000e+00, 0.00000000e+00, 0.00000000e+00, 0.00000000e+00, 0.00000000e+00, 0.00000000e+00, 0.00000000e+00, 0.00000000e+00, 0.00000000e+00, -4.61378164e+00, -1.51534268e+00, -3.29777336e+00, 7.09523160e-01, 0.00000000e+00, 5.0000000000, 5.0000000000, 0.0048669167
          79, 0.00000000e+00, 0.00000000e+00, 0.00000000e+00, 0.00000000e+00, 0.00000000e+00, 0.00000000e+00, 0.00000000e+00, 0.00000000e+00, 0.00000000e+00, 0.00000000e+00, 0.00000000e+00, 0.00000000e+00, -4.54442140e+00, -1.52176460e+00, -3.31371333e+00, 7.93783489e-01, 0.00000000e+00, 5.0000000000, 5.0000000000, 0.0049244333
          80, 0.00000000e+00, 0.00000000e+00, 0.00000000e+00, 0.00000000e+00, 0.00000000e+00, 0.00000000e+00, 0.00000000e+00, 0.00000000e+00, 0.00000000e+00, 0.00000000e+00, 0.00000000e+00, 0.00000000e+00, -4.46488390e+00, -1.53006199e+00, -3.33126135e+00, 8.99044071e-01, 0.00000000e+00, 5.0000000000, 5.0000000000, 0.0049810167
          81, 0.00000000e+00, 0.00000000e+00, 0.00000000e+00, 0.00000000e+00, 0.00000000e+00, 0.00000000e+00, 0.00000000e+00, 0.00000000e+00, 0.00000000e+00, 0.00000000e+00, 0.00000000e+00, 0.00000000e+00, -4.39030058e+00, -1.54031063e+00, -3.35083422e+00, 9.94012629e-01, 0.00000000e+00, 5.0000000000, 5.0000000000, 0.0050582333
          82, 0.00000000e+00, 0.00000000e+00, 0.00000000e+00, 0.00000000e+00, 0.00000000e+00, 0.00000000e+00, 0.00000000e+00, 0.00000000e+00, 0.00000000e+00, 0.00000000e+00, 0.00000000e+00, 0.00000000e+00, -4.32476434e+00, -1.55262933e+00, -3.37292657e+00, 1.07382341e+00, 0.00000000e+00, 5.0000000000, 5.0000000000, 0.0051295667
          83, 0.00000000e+00, 0.00000000e+00, 0.00000000e+00, 0.00000000e+00, 0.00000000e+00, 0.00000000e+00, 0.00000000e+00, 0.00000000e+00, 0.00000000e+00, 0.00000000e+00, 0.00000000e+00, 0.00000000e+00, -4.26837026e+00, -1.56717552e+00, -3.39806914e+00, 1.14015448e+00, 0.00000000e+00, 5.0000000000, 5.0000000000, 0.0051970000
          84, 0.00000000e+00, 0.00000000e+00, 0.00000000e+00, 0.00000000e+00, 0.00000000e+00, 0.00000000e+00, 0.00000000e+00, 0.00000000e+00, 0.00000000e+00, 0.00000000e+00, 0.00000000e+00, 0.00000000e+00, -4.22015472e+00, -1.58414280e+00, -3.42677884e+00, 1.19542574e+00, 0.00000000e+00, 5.0000000000, 5.0000000000, 0.0052588833
          85, 0.00000000e+00, 0.00000000e+00, 0.00000000e+00, 0.00000000e+00, 0.00000000e+00, 0.00000000e+00, 0.00000000e+00, 0.00000000e+00, 0.00000000e+00, 0.00000000e+00, 0.00000000e+00, 0.00000000e+00, -4.17902809e+00, -1.60376177e+00, -3.45950581e+00, 1.24167153e+00, 0.00000000e+00, 5.0000000000, 5.0000000000, 0.0053171500
          86, 0.00000000e+00, 0.00000000e+00, 0.00000000e+00, 0.00000000e+00, 0.00000000e+00, 0.00000000e+00, 0.00000000e+00, 0.00000000e+00, 0.00000000e+00, 0.00000000e+00, 0.00000000e+00, 0.00000000e+00, -4.14402511e+00, -1.62630471e+00, -3.49657305e+00, 1.28044914e+00, 0.00000000e+00, 5.0000000000, 5.0000000000, 0.0053827833
          87, 0.00000000e+00, 0.00000000e+00, 0.00000000e+00, 0.00000000e+00, 0.00000000e+00, 0.00000000e+00, 0.00000000e+00, 0.00000000e+00, 0.00000000e+00, 0.00000000e+00, 0.00000000e+00, 0.00000000e+00, -4.11434641e+00, -1.65209480e+00, -3.53809045e+00, 1.31293270e+00, 0.00000000e+00, 5.0000000000, 5.0000000000, 0.0054505167
          88, 0.00000000e+00, 0.00000000e+00, 0.00000000e+00, 0.00000000e+00, 0.00000000e+00, 0.00000000e+00, 0.00000000e+00, 0.00000000e+00, 0.00000000e+00, 0.00000000e+00, 0.00000000e+00, 0.00000000e+00, -4.08934256e+00, -1.68152019e+00, -3.58380882e+00, 1.34001370e+00, 0.00000000e+00, 5.0000000000, 5.0000000000, 0.0055128500
          89, 0.00000000e+00, 0.00000000e+00, 0.00000000e+00, 0.00000000e+00, 0.00000000e+00, 0.00000000e+00, 0.00000000e+00, 0.00000000e+00, 0.00000000e+00, 0.00000000e+00, 0.00000000e+00, 0.00000000e+00, -4.06848715e+00, -1.71505348e+00, -3.63285676e+00, 1.36237785e+00, 0.00000000e+00, 5.0000000000, 5.0000000000, 0.0055772333