TITLE = "Visualization of the volumetric solution"
VARIABLES = "x","y","Density","Momentum_x","Momentum_y","Energy","Grid_Velocity_x","Grid_Velocity_y","Pressure","Temperature","Mach","C<sub>p</sub>","Roe_Dissipation"
ZONE NODES= 524, ELEMENTS= 946, DATAPACKING=POINT, ZONETYPE=FEQUADRILATERAL
9.569681e-02	4.103059e-02	1.228172e+00	6.197091e+01	-1.761295e+01	2.559045e+05	0.000000e+00	0.000000e+00	1.016859e+05	2.884243e+02	1.540749e-01	5.088101e-01	0.000000e+00	
9.801339e-02	4.074687e-02	1.228173e+00	6.197090e+01	-1.761439e+01	2.559047e+05	0.000000e+00	0.000000e+00	1.016860e+05	2.884244e+02	1.540758e-01	5.089134e-01	0.000000e+00	
9.692026e-02	4.141939e-02	1.228172e+00	6.197088e+01	-1.761372e+01	2.559046e+05	0.000000e+00	0.000000e+00	1.016859e+05	2.884243e+02	1.540753e-01	5.088791e-01	0.000000e+00	
9.569681e-02	4.250010e-02	1.228172e+00	6.197091e+01	-1.761289e+01	2.559045e+05	0.000000e+00	0.000000e+00	1.016859e+05	2.884243e+02	1.540749e-01	5.088167e-01	0.000000e+00	
9.813921e-02	4.215961e-02	1.228173e+00	6.197086e+01	-1.761445e+01	2.559047e+05	0.000000e+00	0.000000e+00	1.016860e+05	2.884244e+02	1.540757e-01	5.089258e-01	0.000000e+00	
9.933935e-02	4.110583e-02	1.228173e+00	6.197085e+01	-1.761507e+01	2.559048e+05	0.000000e+00	0.000000e+00	1.016860e+05	2.884244e+02	1.540760e-01	5.089600e-01	0.000000e+00	
9.690754e-02	4.301420e-02	1.228172e+00	6.197087e+01	-1.761368e+01	2.559046e+05	0.000000e+00	0.000000e+00	1.016859e+05	2.884243e+02	1.540753e-01	5.088791e-01	0.000000e+00	
9.569681e-02	4.386726e-02	1.228172e+00	6.197091e+01	-1.761289e+01	2.559045e+05	0.000000e+00	0.000000e+00	1.016859e+05	2.884243e+02	1.540749e-01	5.088226e-01	0.000000e+00	
9.810240e-02	4.366245e-02	1.228173e+00	6.197087e+01	-1.761441e+01	2.559047e+05	0.000000e+00	0.000000e+00	1.016860e+05	2.884244e+02	1.540757e-01	5.089320e-01	0.000000e+00	
9.950846e-02	4.292118e-02	1.228173e+00	6.197083e+01	-1.761514e+01	2.559048e+05	0.000000e+00	0.000000e+00	1.016860e+05	2.884244e+02	1.540760e-01	5.089841e-01	0.000000e+00	
1.011906e-01	4.182871e-02	1.228173e+00	6.197080e+01	-1.761584e+01	2.559049e+05	0.000000e+00	0.000000e+00	1.016860e+05	2.884244e+02	1.540764e-01	5.090300e-01	0.000000e+00	
9.689258e-02	4.443622e-02	1.228172e+00	6.197089e+01	-1.761366e+01	2.559046e+05	0.000000e+00	0.000000e+00	1.016859e+05	2.884243e+02	1.540753e-01	5.088833e-01	0.000000e+00	
9.569681e-02	4.516964e-02	1.228172e+00	6.197091e+01	-1.761289e+01	2.559045e+05	0.000000e+00	0.000000e+00	1.016859e+05	2.884243e+02	1.540749e-01	5.088222e-01	0.000000e+00	
9.803875e-02	4.507353e-02	1.228173e+00	6.197089e+01	-1.761436e+01	2.559047e+05	0.000000e+00	0.000000e+00	1.016860e+05	2.884244e+02	1.540757e-01	5.089301e-01	0.000000e+00	
9.914407e-02	4.430074e-02	1.228173e+00	6.197086e+01	-1.761495e+01	2.559048e+05	0.000000e+00	0.000000e+00	1.016860e+05	2.884244e+02	1.540760e-01	5.089757e-01	0.000000e+00	
1.007243e-01	4.427286e-02	1.228173e+00	6.197085e+01	-1.761564e+01	2.559049e+05	0.000000e+00	0.000000e+00	1.016860e+05	2.884244e+02	1.540764e-01	5.090252e-01	0.000000e+00	
1.037021e-01	4.184151e-02	1.228174e+00	6.197078e+01	-1.761664e+01	2.559050e+05	0.000000e+00	0.000000e+00	1.016861e+05	2.884245e+02	1.540768e-01	5.090954e-01	0.000000e+00	
9.686379e-02	4.579109e-02	1.228172e+00	6.197089e+01	-1.761364e+01	2.559046e+05	0.000000e+00	0.000000e+00	1.016859e+05	2.884243e+02	1.540753e-01	5.088845e-01	0.000000e+00	
1.025520e-01	4.355386e-02	1.228174e+00	6.197077e+01	-1.761630e+01	2.559050e+05	0.000000e+00	0.000000e+00	1.016861e+05	2.884245e+02	1.540766e-01	5.090792e-01	0.000000e+00	
9.569681e-02	4.643556e-02	1.228172e+00	6.197091e+01	-1.761288e+01	2.559045e+05	0.000000e+00	0.000000e+00	1.016859e+05	2.884243e+02	1.540749e-01	5.088215e-01	0.000000e+00	
9.802422e-02	4.651032e-02	1.228173e+00	6.197087e+01	-1.761435e+01	2.559047e+05	0.000000e+00	0.000000e+00	1.016860e+05	2.884244e+02	1.540757e-01	5.089325e-01	0.000000e+00	
9.930925e-02	4.574013e-02	1.228173e+00	6.197087e+01	-1.761503e+01	2.559048e+05	0.000000e+00	0.000000e+00	1.016860e+05	2.884244e+02	1.540761e-01	5.089811e-01	0.000000e+00	
1.026490e-01	4.568105e-02	1.228174e+00	6.197085e+01	-1.761627e+01	2.559050e+05	0.000000e+00	0.000000e+00	1.016861e+05	2.884245e+02	1.540767e-01	5.090778e-01	0.000000e+00	
1.046045e-01	4.428207e-02	1.228174e+00	6.197076e+01	-1.761687e+01	2.559051e+05	0.000000e+00	0.000000e+00	1.016861e+05	2.884245e+02	1.540769e-01	5.091258e-01	0.000000e+00	
1.065278e-01	4.226350e-02	1.228174e+00	6.197071e+01	-1.761734e+01	2.559051e+05	0.000000e+00	0.000000e+00	1.016861e+05	2.884245e+02	1.540770e-01	5.091585e-01	0.000000e+00	
9.683691e-02	4.710601e-02	1.228172e+00	6.197088e+01	-1.761362e+01	2.559046e+05	0.000000e+00	0.000000e+00	1.016859e+05	2.884243e+02	1.540752e-01	5.088836e-01	0.000000e+00	
1.007724e-01	4.679839e-02	1.228173e+00	6.197089e+01	-1.761564e+01	2.559049e+05	0.000000e+00	0.000000e+00	1.016860e+05	2.884244e+02	1.540765e-01	5.090319e-01	0.000000e+00	
9.569681e-02	4.767813e-02	1.228172e+00	6.197091e+01	-1.761287e+01	2.559045e+05	0.000000e+00	0.000000e+00	1.016859e+05	2.884243e+02	1.540749e-01	5.088190e-01	0.000000e+00	
9.793635e-02	4.787636e-02	1.228173e+00	6.197090e+01	-1.761432e+01	2.559047e+05	0.000000e+00	0.000000e+00	1.016860e+05	2.884244e+02	1.540757e-01	5.089331e-01	0.000000e+00	
9.924840e-02	4.749226e-02	1.228173e+00	6.197091e+01	-1.761502e+01	2.559048e+05	0.000000e+00	0.000000e+00	1.016860e+05	2.884244e+02	1.540761e-01	5.089863e-01	0.000000e+00	
1.024301e-01	4.805127e-02	1.228174e+00	6.197092e+01	-1.761617e+01	2.559050e+05	0.000000e+00	0.000000e+00	1.016861e+05	2.884245e+02	1.540768e-01	5.090781e-01	0.000000e+00	
1.046351e-01	4.695381e-02	1.228174e+00	6.197084e+01	-1.761682e+01	2.559051e+05	0.000000e+00	0.000000e+00	1.016861e+05	2.884245e+02	1.540770e-01	5.091304e-01	0.000000e+00	
1.074988e-01	4.555123e-02	1.228174e+00	6.197076e+01	-1.761756e+01	2.559052e+05	0.000000e+00	0.000000e+00	1.016862e+05	2.884245e+02	1.540772e-01	5.091960e-01	0.000000e+00	
1.099411e-01	4.269618e-02	1.228174e+00	6.197066e+01	-1.761807e+01	2.559053e+05	0.000000e+00	0.000000e+00	1.016862e+05	2.884245e+02	1.540773e-01	5.092254e-01	0.000000e+00	
9.680238e-02	4.837539e-02	1.228172e+00	6.197089e+01	-1.761359e+01	2.559046e+05	0.000000e+00	0.000000e+00	1.016859e+05	2.884243e+02	1.540753e-01	5.088796e-01	0.000000e+00	
1.003269e-01	4.901160e-02	1.228173e+00	6.197096e+01	-1.761549e+01	2.559049e+05	0.000000e+00	0.000000e+00	1.016860e+05	2.884244e+02	1.540765e-01	5.090228e-01	0.000000e+00	
9.569681e-02	4.890919e-02	1.228172e+00	6.197092e+01	-1.761286e+01	2.559045e+05	0.000000e+00	0.000000e+00	1.016859e+05	2.884243e+02	1.540749e-01	5.088150e-01	0.000000e+00	
9.785396e-02	4.912169e-02	1.228173e+00	6.197092e+01	-1.761430e+01	2.559047e+05	0.000000e+00	0.000000e+00	1.016860e+05	2.884244e+02	1.540757e-01	5.089234e-01	0.000000e+00	
9.889483e-02	4.867333e-02	1.228173e+00	6.197093e+01	-1.761489e+01	2.559048e+05	0.000000e+00	0.000000e+00	1.016860e+05	2.884244e+02	1.540761e-01	5.089735e-01	0.000000e+00	
1.041273e-01	4.949649e-02	1.228174e+00	6.197096e+01	-1.761668e+01	2.559051e+05	0.000000e+00	0.000000e+00	1.016861e+05	2.884245e+02	1.540772e-01	5.091224e-01	0.000000e+00	
1.020474e-01	5.045405e-02	1.228174e+00	6.197096e+01	-1.761604e+01	2.559050e+05	0.000000e+00	0.000000e+00	1.016861e+05	2.884245e+02	1.540768e-01	5.090660e-01	0.000000e+00	
1.065992e-01	4.873125e-02	1.228174e+00	6.197092e+01	-1.761732e+01	2.559052e+05	0.000000e+00	0.000000e+00	1.016861e+05	2.884245e+02	1.540775e-01	5.091755e-01	0.000000e+00	
1.107915e-01	4.576009e-02	1.228175e+00	6.197073e+01	-1.761827e+01	2.559053e+05	0.000000e+00	0.000000e+00	1.016862e+05	2.884246e+02	1.540776e-01	5.092573e-01	0.000000e+00	
1.140860e-01	4.391653e-02	1.228175e+00	6.197071e+01	-1.761883e+01	2.559054e+05	0.000000e+00	0.000000e+00	1.016862e+05	2.884246e+02	1.540779e-01	5.092991e-01	0.000000e+00	
9.676455e-02	4.959336e-02	1.228172e+00	6.197091e+01	-1.761358e+01	2.559046e+05	0.000000e+00	0.000000e+00	1.016859e+05	2.884243e+02	1.540753e-01	5.088744e-01	0.000000e+00	
9.899120e-02	4.995674e-02	1.228173e+00	6.197098e+01	-1.761495e+01	2.559048e+05	0.000000e+00	0.000000e+00	1.016860e+05	2.884244e+02	1.540762e-01	5.089790e-01	0.000000e+00	
1.000422e-01	5.143670e-02	1.228173e+00	6.197096e+01	-1.761537e+01	2.559049e+05	0.000000e+00	0.000000e+00	1.016860e+05	2.884244e+02	1.540764e-01	5.090127e-01	0.000000e+00	
1.095393e-01	4.839690e-02	1.228175e+00	6.197091e+01	-1.761799e+01	2.559053e+05	0.000000e+00	0.000000e+00	1.016862e+05	2.884245e+02	1.540779e-01	5.092334e-01	0.000000e+00	
9.569681e-02	5.013232e-02	1.228172e+00	6.197093e+01	-1.761286e+01	2.559045e+05	0.000000e+00	0.000000e+00	1.016859e+05	2.884243e+02	1.540749e-01	5.088084e-01	0.000000e+00	
9.778605e-02	5.029165e-02	1.228173e+00	6.197095e+01	-1.761429e+01	2.559047e+05	0.000000e+00	0.000000e+00	1.016860e+05	2.884244e+02	1.540758e-01	5.089213e-01	0.000000e+00	
1.055479e-01	5.116754e-02	1.228174e+00	6.197100e+01	-1.761709e+01	2.559051e+05	0.000000e+00	0.000000e+00	1.016861e+05	2.884245e+02	1.540775e-01	5.091572e-01	0.000000e+00	
1.035739e-01	5.139702e-02	1.228174e+00	6.197097e+01	-1.761653e+01	2.559050e+05	0.000000e+00	0.000000e+00	1.016861e+05	2.884245e+02	1.540772e-01	5.091032e-01	0.000000e+00	
1.020522e-01	5.273897e-02	1.228174e+00	6.197095e+01	-1.761607e+01	2.559050e+05	0.000000e+00	0.000000e+00	1.016861e+05	2.884244e+02	1.540768e-01	5.090664e-01	0.000000e+00	
1.082256e-01	5.104263e-02	1.228174e+00	6.197102e+01	-1.761771e+01	2.559052e+05	0.000000e+00	0.000000e+00	1.016862e+05	2.884245e+02	1.540779e-01	5.092121e-01	0.000000e+00	
1.128043e-01	4.811512e-02	1.228175e+00	6.197090e+01	-1.761868e+01	2.559054e+05	0.000000e+00	0.000000e+00	1.016862e+05	2.884246e+02	1.540782e-01	5.092901e-01	0.000000e+00	
1.188743e-01	4.416006e-02	1.228175e+00	6.197080e+01	-1.761957e+01	2.559055e+05	0.000000e+00	0.000000e+00	1.016863e+05	2.884246e+02	1.540785e-01	5.093649e-01	0.000000e+00	
9.673503e-02	5.077295e-02	1.228172e+00	6.197093e+01	-1.761358e+01	2.559046e+05	0.000000e+00	0.000000e+00	1.016859e+05	2.884243e+02	1.540753e-01	5.088675e-01	0.000000e+00	
9.866085e-02	5.096359e-02	1.228173e+00	6.197099e+01	-1.761483e+01	2.559048e+05	0.000000e+00	0.000000e+00	1.016860e+05	2.884244e+02	1.540762e-01	5.089660e-01	0.000000e+00	
1.111001e-01	5.108261e-02	1.228175e+00	6.197105e+01	-1.761836e+01	2.559054e+05	0.000000e+00	0.000000e+00	1.016862e+05	2.884246e+02	1.540784e-01	5.092655e-01	0.000000e+00	
1.167653e-01	4.820531e-02	1.228175e+00	6.197094e+01	-1.761935e+01	2.559055e+05	0.000000e+00	0.000000e+00	1.016863e+05	2.884246e+02	1.540787e-01	5.093523e-01	0.000000e+00	
9.569681e-02	5.134191e-02	1.228172e+00	6.197094e+01	-1.761287e+01	2.559045e+05	0.000000e+00	0.000000e+00	1.016859e+05	2.884243e+02	1.540750e-01	5.088036e-01	0.000000e+00	
9.771000e-02	5.137104e-02	1.228173e+00	6.197097e+01	-1.761427e+01	2.559047e+05	0.000000e+00	0.000000e+00	1.016860e+05	2.884244e+02	1.540758e-01	5.089091e-01	0.000000e+00	
9.865737e-02	5.183100e-02	1.228173e+00	6.197095e+01	-1.761482e+01	2.559048e+05	0.000000e+00	0.000000e+00	1.016860e+05	2.884244e+02	1.540761e-01	5.089553e-01	0.000000e+00	
1.043244e-01	5.313461e-02	1.228174e+00	6.197096e+01	-1.761677e+01	2.559051e+05	0.000000e+00	0.000000e+00	1.016861e+05	2.884245e+02	1.540773e-01	5.091209e-01	0.000000e+00	
1.067176e-01	5.333409e-02	1.228174e+00	6.197100e+01	-1.761741e+01	2.559052e+05	0.000000e+00	0.000000e+00	1.016861e+05	2.884245e+02	1.540777e-01	5.091787e-01	0.000000e+00	
1.001553e-01	5.364259e-02	1.228173e+00	6.197090e+01	-1.761547e+01	2.559049e+05	0.000000e+00	0.000000e+00	1.016860e+05	2.884244e+02	1.540764e-01	5.090083e-01	0.000000e+00	
1.094343e-01	5.349241e-02	1.228175e+00	6.197107e+01	-1.761804e+01	2.559053e+05	0.000000e+00	0.000000e+00	1.016862e+05	2.884245e+02	1.540782e-01	5.092318e-01	0.000000e+00	
1.145672e-01	5.150093e-02	1.228175e+00	6.197111e+01	-1.761902e+01	2.559055e+05	0.000000e+00	0.000000e+00	1.016863e+05	2.884246e+02	1.540789e-01	5.093253e-01	0.000000e+00	
1.210242e-01	4.833722e-02	1.228176e+00	6.197103e+01	-1.761998e+01	2.559056e+05	0.000000e+00	0.000000e+00	1.016863e+05	2.884246e+02	1.540793e-01	5.094025e-01	0.000000e+00	
1.234798e-01	4.418883e-02	1.228176e+00	6.197089e+01	-1.762020e+01	2.559056e+05	0.000000e+00	0.000000e+00	1.016863e+05	2.884247e+02	1.540791e-01	5.094161e-01	0.000000e+00	
9.672317e-02	5.193057e-02	1.228172e+00	6.197094e+01	-1.761360e+01	2.559046e+05	0.000000e+00	0.000000e+00	1.016859e+05	2.884243e+02	1.540754e-01	5.088627e-01	0.000000e+00	
9.894568e-02	5.285455e-02	1.228173e+00	6.197089e+01	-1.761495e+01	2.559048e+05	0.000000e+00	0.000000e+00	1.016860e+05	2.884244e+02	1.540761e-01	5.089646e-01	0.000000e+00	
1.013422e-01	5.472755e-02	1.228173e+00	6.197091e+01	-1.761586e+01	2.559049e+05	0.000000e+00	0.000000e+00	1.016861e+05	2.884244e+02	1.540766e-01	5.090431e-01	0.000000e+00	
1.030505e-01	5.482988e-02	1.228174e+00	6.197092e+01	-1.761641e+01	2.559050e+05	0.000000e+00	0.000000e+00	1.016861e+05	2.884245e+02	1.540770e-01	5.090855e-01	0.000000e+00	
1.123127e-01	5.400412e-02	1.228175e+00	6.197115e+01	-1.761866e+01	2.559054e+05	0.000000e+00	0.000000e+00	1.016862e+05	2.884246e+02	1.540788e-01	5.092847e-01	0.000000e+00	
1.182502e-01	5.292148e-02	1.228175e+00	6.197120e+01	-1.761962e+01	2.559056e+05	0.000000e+00	0.000000e+00	1.016863e+05	2.884246e+02	1.540795e-01	5.093762e-01	0.000000e+00	
9.569681e-02	5.253653e-02	1.228172e+00	6.197094e+01	-1.761288e+01	2.559045e+05	0.000000e+00	0.000000e+00	1.016859e+05	2.884243e+02	1.540750e-01	5.088002e-01	0.000000e+00	
9.775573e-02	5.245713e-02	1.228173e+00	6.197093e+01	-1.761431e+01	2.559047e+05	0.000000e+00	0.000000e+00	1.016860e+05	2.884244e+02	1.540758e-01	5.089080e-01	0.000000e+00	
1.052474e-01	5.525584e-02	1.228174e+00	6.197095e+01	-1.761708e+01	2.559051e+05	0.000000e+00	0.000000e+00	1.016861e+05	2.884245e+02	1.540774e-01	5.091441e-01	0.000000e+00	
1.076391e-01	5.576547e-02	1.228174e+00	6.197103e+01	-1.761772e+01	2.559052e+05	0.000000e+00	0.000000e+00	1.016862e+05	2.884245e+02	1.540780e-01	5.091965e-01	0.000000e+00	
9.979784e-02	5.587691e-02	1.228173e+00	6.197096e+01	-1.761531e+01	2.559048e+05	0.000000e+00	0.000000e+00	1.016860e+05	2.884244e+02	1.540764e-01	5.090004e-01	0.000000e+00	
9.887076e-02	5.445453e-02	1.228173e+00	6.197092e+01	-1.761494e+01	2.559048e+05	0.000000e+00	0.000000e+00	1.016860e+05	2.884244e+02	1.540761e-01	5.089655e-01	0.000000e+00	
1.104069e-01	5.639558e-02	1.228175e+00	6.197113e+01	-1.761833e+01	2.559053e+05	0.000000e+00	0.000000e+00	1.016862e+05	2.884246e+02	1.540786e-01	5.092494e-01	0.000000e+00	
1.150598e-01	5.449417e-02	1.228175e+00	6.197121e+01	-1.761915e+01	2.559055e+05	0.000000e+00	0.000000e+00	1.016863e+05	2.884246e+02	1.540792e-01	5.093354e-01	0.000000e+00	
1.258621e-01	4.857425e-02	1.228176e+00	6.197104e+01	-1.762053e+01	2.559057e+05	0.000000e+00	0.000000e+00	1.016863e+05	2.884247e+02	1.540796e-01	5.094579e-01	0.000000e+00	
1.283199e-01	4.387145e-02	1.228176e+00	6.197096e+01	-1.762074e+01	2.559058e+05	0.000000e+00	0.000000e+00	1.016864e+05	2.884247e+02	1.540795e-01	5.094852e-01	0.000000e+00	
9.672650e-02	5.310345e-02	1.228172e+00	6.197092e+01	-1.761361e+01	2.559046e+05	0.000000e+00	0.000000e+00	1.016859e+05	2.884243e+02	1.540753e-01	5.088623e-01	0.000000e+00	
9.777924e-02	5.367228e-02	1.228173e+00	6.197088e+01	-1.761431e+01	2.559047e+05	0.000000e+00	0.000000e+00	1.016860e+05	2.884244e+02	1.540757e-01	5.089117e-01	0.000000e+00	
1.016607e-01	5.660503e-02	1.228173e+00	6.197089e+01	-1.761596e+01	2.559049e+05	0.000000e+00	0.000000e+00	1.016861e+05	2.884244e+02	1.540766e-01	5.090550e-01	0.000000e+00	
1.037433e-01	5.702817e-02	1.228174e+00	6.197095e+01	-1.761668e+01	2.559050e+05	0.000000e+00	0.000000e+00	1.016861e+05	2.884245e+02	1.540772e-01	5.091068e-01	0.000000e+00	
1.132724e-01	5.711530e-02	1.228175e+00	6.197119e+01	-1.761891e+01	2.559054e+05	0.000000e+00	0.000000e+00	1.016862e+05	2.884246e+02	1.540790e-01	5.092974e-01	0.000000e+00	
1.235185e-01	5.359608e-02	1.228176e+00	6.197119e+01	-1.762024e+01	2.559057e+05	0.000000e+00	0.000000e+00	1.016863e+05	2.884247e+02	1.540798e-01	5.094335e-01	0.000000e+00	
9.569681e-02	5.372060e-02	1.228172e+00	6.197095e+01	-1.761287e+01	2.559044e+05	0.000000e+00	0.000000e+00	1.016859e+05	2.884243e+02	1.540750e-01	5.087982e-01	0.000000e+00	
1.059483e-01	5.767436e-02	1.228174e+00	6.197105e+01	-1.761736e+01	2.559052e+05	0.000000e+00	0.000000e+00	1.016861e+05	2.884245e+02	1.540778e-01	5.091597e-01	0.000000e+00	
1.083753e-01	5.853065e-02	1.228174e+00	6.197113e+01	-1.761795e+01	2.559053e+05	0.000000e+00	0.000000e+00	1.016862e+05	2.884245e+02	1.540784e-01	5.092118e-01	0.000000e+00	
1.002501e-01	5.820057e-02	1.228173e+00	6.197088e+01	-1.761543e+01	2.559048e+05	0.000000e+00	0.000000e+00	1.016860e+05	2.884244e+02	1.540763e-01	5.090026e-01	0.000000e+00	
9.853132e-02	5.549029e-02	1.228173e+00	6.197099e+01	-1.761478e+01	2.559047e+05	0.000000e+00	0.000000e+00	1.016860e+05	2.884244e+02	1.540762e-01	5.089532e-01	0.000000e+00	
9.769882e-02	5.488367e-02	1.228173e+00	6.197094e+01	-1.761426e+01	2.559047e+05	0.000000e+00	0.000000e+00	1.016860e+05	2.884244e+02	1.540758e-01	5.089071e-01	0.000000e+00	
1.110747e-01	5.944401e-02	1.228175e+00	6.197117e+01	-1.761853e+01	2.559054e+05	0.000000e+00	0.000000e+00	1.016862e+05	2.884246e+02	1.540788e-01	5.092620e-01	0.000000e+00	
1.207366e-01	5.811169e-02	1.228176e+00	6.197124e+01	-1.761993e+01	2.559056e+05	0.000000e+00	0.000000e+00	1.016863e+05	2.884246e+02	1.540797e-01	5.094092e-01	0.000000e+00	
1.167011e-01	5.777440e-02	1.228175e+00	6.197123e+01	-1.761942e+01	2.559055e+05	0.000000e+00	0.000000e+00	1.016863e+05	2.884246e+02	1.540794e-01	5.093537e-01	0.000000e+00	
1.309596e-01	4.864619e-02	1.228176e+00	6.197102e+01	-1.762102e+01	2.559058e+05	0.000000e+00	0.000000e+00	1.016864e+05	2.884247e+02	1.540798e-01	5.095165e-01	0.000000e+00	
1.286059e-01	5.383319e-02	1.228176e+00	6.197114e+01	-1.762076e+01	2.559058e+05	0.000000e+00	0.000000e+00	1.016864e+05	2.884247e+02	1.540800e-01	5.094885e-01	0.000000e+00	
1.333658e-01	4.373855e-02	1.228176e+00	6.197102e+01	-1.762125e+01	2.559059e+05	0.000000e+00	0.000000e+00	1.016864e+05	2.884247e+02	1.540799e-01	5.095405e-01	0.000000e+00	
9.671248e-02	5.428242e-02	1.228172e+00	6.197092e+01	-1.761358e+01	2.559046e+05	0.000000e+00	0.000000e+00	1.016859e+05	2.884243e+02	1.540753e-01	5.088601e-01	0.000000e+00	
1.022751e-01	5.846055e-02	1.228174e+00	6.197094e+01	-1.761624e+01	2.559050e+05	0.000000e+00	0.000000e+00	1.016861e+05	2.884245e+02	1.540769e-01	5.090704e-01	0.000000e+00	
9.884826e-02	5.726858e-02	1.228173e+00	6.197093e+01	-1.761487e+01	2.559047e+05	0.000000e+00	0.000000e+00	1.016860e+05	2.884244e+02	1.540761e-01	5.089501e-01	0.000000e+00	
9.852231e-02	5.631516e-02	1.228173e+00	6.197100e+01	-1.761476e+01	2.559047e+05	0.000000e+00	0.000000e+00	1.016860e+05	2.884244e+02	1.540762e-01	5.089409e-01	0.000000e+00	
1.043045e-01	5.917979e-02	1.228174e+00	6.197108e+01	-1.761695e+01	2.559051e+05	0.000000e+00	0.000000e+00	1.016861e+05	2.884245e+02	1.540776e-01	5.091218e-01	0.000000e+00	
1.142624e-01	6.056200e-02	1.228175e+00	6.197119e+01	-1.761910e+01	2.559055e+05	0.000000e+00	0.000000e+00	1.016862e+05	2.884246e+02	1.540791e-01	5.093168e-01	0.000000e+00	
1.263135e-01	5.953712e-02	1.228176e+00	6.197121e+01	-1.762048e+01	2.559058e+05	0.000000e+00	0.000000e+00	1.016864e+05	2.884247e+02	1.540799e-01	5.094696e-01	0.000000e+00	
9.569681e-02	5.489065e-02	1.228172e+00	6.197096e+01	-1.761286e+01	2.559044e+05	0.000000e+00	0.000000e+00	1.016859e+05	2.884243e+02	1.540750e-01	5.087936e-01	0.000000e+00	
1.064437e-01	6.022312e-02	1.228174e+00	6.197117e+01	-1.761754e+01	2.559052e+05	0.000000e+00	0.000000e+00	1.016861e+05	2.884245e+02	1.540782e-01	5.091710e-01	0.000000e+00	
1.087636e-01	6.139774e-02	1.228174e+00	6.197116e+01	-1.761805e+01	2.559053e+05	0.000000e+00	0.000000e+00	1.016862e+05	2.884245e+02	1.540785e-01	5.092169e-01	0.000000e+00	
1.013148e-01	5.959919e-02	1.228173e+00	6.197094e+01	-1.761594e+01	2.559049e+05	0.000000e+00	0.000000e+00	1.016860e+05	2.884244e+02	1.540768e-01	5.090407e-01	0.000000e+00	
9.876032e-02	5.845887e-02	1.228173e+00	6.197089e+01	-1.761481e+01	2.559047e+05	0.000000e+00	0.000000e+00	1.016860e+05	2.884244e+02	1.540760e-01	5.089433e-01	0.000000e+00	
9.762783e-02	5.594055e-02	1.228172e+00	6.197100e+01	-1.761424e+01	2.559046e+05	0.000000e+00	0.000000e+00	1.016859e+05	2.884244e+02	1.540759e-01	5.088943e-01	0.000000e+00	
9.668829e-02	5.543189e-02	1.228172e+00	6.197095e+01	-1.761355e+01	2.559046e+05	0.000000e+00	0.000000e+00	1.016859e+05	2.884243e+02	1.540754e-01	5.088524e-01	0.000000e+00	
1.114175e-01	6.248940e-02	1.228175e+00	6.197115e+01	-1.761862e+01	2.559054e+05	0.000000e+00	0.000000e+00	1.016862e+05	2.884246e+02	1.540788e-01	5.092683e-01	0.000000e+00	
1.223231e-01	6.213462e-02	1.228176e+00	6.197118e+01	-1.762008e+01	2.559057e+05	0.000000e+00	0.000000e+00	1.016863e+05	2.884247e+02	1.540797e-01	5.094234e-01	0.000000e+00	
1.179080e-01	6.199033e-02	1.228175e+00	6.197120e+01	-1.761962e+01	2.559056e+05	0.000000e+00	0.000000e+00	1.016863e+05	2.884246e+02	1.540794e-01	5.093699e-01	0.000000e+00	
1.359891e-01	4.847916e-02	1.228177e+00	6.197099e+01	-1.762151e+01	2.559060e+05	0.000000e+00	0.000000e+00	1.016864e+05	2.884247e+02	1.540800e-01	5.095794e-01	0.000000e+00	
1.336609e-01	5.333040e-02	1.228177e+00	6.197108e+01	-1.762124e+01	2.559059e+05	0.000000e+00	0.000000e+00	1.016864e+05	2.884247e+02	1.540801e-01	5.095494e-01	0.000000e+00	
1.315040e-01	5.850693e-02	1.228176e+00	6.197116e+01	-1.762101e+01	2.559059e+05	0.000000e+00	0.000000e+00	1.016864e+05	2.884247e+02	1.540801e-01	5.095249e-01	0.000000e+00	
1.383624e-01	4.368693e-02	1.228177e+00	6.197102e+01	-1.762173e+01	2.559060e+05	0.000000e+00	0.000000e+00	1.016864e+05	2.884248e+02	1.540802e-01	5.096012e-01	0.000000e+00	
1.001412e-01	6.005523e-02	1.228173e+00	6.197092e+01	-1.761546e+01	2.559048e+05	0.000000e+00	0.000000e+00	1.016860e+05	2.884244e+02	1.540764e-01	5.089950e-01	0.000000e+00	
1.027704e-01	6.034513e-02	1.228174e+00	6.197108e+01	-1.761652e+01	2.559050e+05	0.000000e+00	0.000000e+00	1.016861e+05	2.884245e+02	1.540774e-01	5.090776e-01	0.000000e+00	
9.768735e-02	5.696435e-02	1.228172e+00	6.197099e+01	-1.761429e+01	2.559046e+05	0.000000e+00	0.000000e+00	1.016859e+05	2.884244e+02	1.540759e-01	5.088930e-01	0.000000e+00	
9.901662e-02	5.945386e-02	1.228173e+00	6.197088e+01	-1.761489e+01	2.559047e+05	0.000000e+00	0.000000e+00	1.016860e+05	2.884244e+02	1.540760e-01	5.089503e-01	0.000000e+00	
9.774165e-02	5.804878e-02	1.228172e+00	6.197095e+01	-1.761432e+01	2.559046e+05	0.000000e+00	0.000000e+00	1.016859e+05	2.884244e+02	1.540759e-01	5.088986e-01	0.000000e+00	
1.046149e-01	6.137123e-02	1.228174e+00	6.197116e+01	-1.761709e+01	2.559051e+05	0.000000e+00	0.000000e+00	1.016861e+05	2.884245e+02	1.540779e-01	5.091273e-01	0.000000e+00	
1.141889e-01	6.381525e-02	1.228175e+00	6.197116e+01	-1.761913e+01	2.559055e+05	0.000000e+00	0.000000e+00	1.016862e+05	2.884246e+02	1.540791e-01	5.093166e-01	0.000000e+00	
1.254175e-01	6.493437e-02	1.228176e+00	6.197106e+01	-1.762035e+01	2.559057e+05	0.000000e+00	0.000000e+00	1.016863e+05	2.884247e+02	1.540795e-01	5.094599e-01	0.000000e+00	
1.304768e-01	6.387376e-02	1.228176e+00	6.197104e+01	-1.762085e+01	2.559058e+05	0.000000e+00	0.000000e+00	1.016864e+05	2.884247e+02	1.540798e-01	5.095142e-01	0.000000e+00	
9.569681e-02	5.604732e-02	1.228172e+00	6.197097e+01	-1.761287e+01	2.559044e+05	0.000000e+00	0.000000e+00	1.016859e+05	2.884243e+02	1.540750e-01	5.087876e-01	0.000000e+00	
1.065987e-01	6.250738e-02	1.228174e+00	6.197113e+01	-1.761757e+01	2.559052e+05	0.000000e+00	0.000000e+00	1.016861e+05	2.884245e+02	1.540781e-01	5.091687e-01	0.000000e+00	
1.089692e-01	6.426368e-02	1.228174e+00	6.197108e+01	-1.761811e+01	2.559053e+05	0.000000e+00	0.000000e+00	1.016862e+05	2.884245e+02	1.540783e-01	5.092139e-01	0.000000e+00	
1.013412e-01	6.120936e-02	1.228173e+00	6.197106e+01	-1.761604e+01	2.559049e+05	0.000000e+00	0.000000e+00	1.016860e+05	2.884244e+02	1.540771e-01	5.090319e-01	0.000000e+00	
9.778903e-02	5.916189e-02	1.228172e+00	6.197093e+01	-1.761430e+01	2.559046e+05	0.000000e+00	0.000000e+00	1.016859e+05	2.884244e+02	1.540758e-01	5.088920e-01	0.000000e+00	
9.668560e-02	5.654150e-02	1.228172e+00	6.197098e+01	-1.761359e+01	2.559045e+05	0.000000e+00	0.000000e+00	1.016859e+05	2.884243e+02	1.540755e-01	5.088469e-01	0.000000e+00	
1.115758e-01	6.488041e-02	1.228175e+00	6.197110e+01	-1.761868e+01	2.559054e+05	0.000000e+00	0.000000e+00	1.016862e+05	2.884246e+02	1.540787e-01	5.092664e-01	0.000000e+00	
1.208569e-01	6.621601e-02	1.228176e+00	6.197105e+01	-1.761990e+01	2.559056e+05	0.000000e+00	0.000000e+00	1.016863e+05	2.884246e+02	1.540793e-01	5.094034e-01	0.000000e+00	
1.167195e-01	6.665277e-02	1.228175e+00	6.197108e+01	-1.761945e+01	2.559055e+05	0.000000e+00	0.000000e+00	1.016863e+05	2.884246e+02	1.540791e-01	5.093515e-01	0.000000e+00	
1.409698e-01	4.834212e-02	1.228177e+00	6.197096e+01	-1.762197e+01	2.559061e+05	0.000000e+00	0.000000e+00	1.016865e+05	2.884248e+02	1.540802e-01	5.096394e-01	0.000000e+00	
1.386138e-01	5.294083e-02	1.228177e+00	6.197103e+01	-1.762172e+01	2.559060e+05	0.000000e+00	0.000000e+00	1.016865e+05	2.884248e+02	1.540802e-01	5.096098e-01	0.000000e+00	
1.363783e-01	5.754475e-02	1.228177e+00	6.197111e+01	-1.762147e+01	2.559060e+05	0.000000e+00	0.000000e+00	1.016864e+05	2.884247e+02	1.540803e-01	5.095837e-01	0.000000e+00	
1.346720e-01	6.152447e-02	1.228177e+00	6.197107e+01	-1.762125e+01	2.559059e+05	0.000000e+00	0.000000e+00	1.016864e+05	2.884247e+02	1.540800e-01	5.095577e-01	0.000000e+00	
1.433477e-01	4.367265e-02	1.228177e+00	6.197103e+01	-1.762217e+01	2.559061e+05	0.000000e+00	0.000000e+00	1.016865e+05	2.884248e+02	1.540805e-01	5.096647e-01	0.000000e+00	
1.000136e-01	6.171817e-02	1.228173e+00	6.197104e+01	-1.761548e+01	2.559048e+05	0.000000e+00	0.000000e+00	1.016860e+05	2.884244e+02	1.540767e-01	5.089855e-01	0.000000e+00	
9.890188e-02	6.087795e-02	1.228173e+00	6.197092e+01	-1.761487e+01	2.559047e+05	0.000000e+00	0.000000e+00	1.016860e+05	2.884244e+02	1.540761e-01	5.089435e-01	0.000000e+00	
1.027453e-01	6.226454e-02	1.228174e+00	6.197113e+01	-1.761658e+01	2.559050e+05	0.000000e+00	0.000000e+00	1.016861e+05	2.884245e+02	1.540776e-01	5.090763e-01	0.000000e+00	
9.670334e-02	5.764596e-02	1.228172e+00	6.197096e+01	-1.761363e+01	2.559045e+05	0.000000e+00	0.000000e+00	1.016859e+05	2.884243e+02	1.540755e-01	5.088440e-01	0.000000e+00	
9.780787e-02	6.033730e-02	1.228172e+00	6.197091e+01	-1.761427e+01	2.559046e+05	0.000000e+00	0.000000e+00	1.016859e+05	2.884244e+02	1.540757e-01	5.088937e-01	0.000000e+00	
9.672520e-02	5.876219e-02	1.228172e+00	6.197096e+01	-1.761363e+01	2.559045e+05	0.000000e+00	0.000000e+00	1.016859e+05	2.884243e+02	1.540755e-01	5.088425e-01	0.000000e+00	
1.043802e-01	6.339285e-02	1.228174e+00	6.197109e+01	-1.761705e+01	2.559051e+05	0.000000e+00	0.000000e+00	1.016861e+05	2.884245e+02	1.540778e-01	5.091156e-01	0.000000e+00	
1.132386e-01	6.712997e-02	1.228175e+00	6.197109e+01	-1.761899e+01	2.559054e+05	0.000000e+00	0.000000e+00	1.016862e+05	2.884246e+02	1.540789e-01	5.092927e-01	0.000000e+00	
1.280779e-01	6.852343e-02	1.228176e+00	6.197085e+01	-1.762055e+01	2.559058e+05	0.000000e+00	0.000000e+00	1.016864e+05	2.884247e+02	1.540791e-01	5.094916e-01	0.000000e+00	
1.237716e-01	7.088739e-02	1.228176e+00	6.197080e+01	-1.762012e+01	2.559057e+05	0.000000e+00	0.000000e+00	1.016863e+05	2.884247e+02	1.540788e-01	5.094364e-01	0.000000e+00	
1.364338e-01	6.609173e-02	1.228177e+00	6.197084e+01	-1.762136e+01	2.559059e+05	0.000000e+00	0.000000e+00	1.016864e+05	2.884247e+02	1.540796e-01	5.095806e-01	0.000000e+00	
9.569681e-02	5.719273e-02	1.228172e+00	6.197097e+01	-1.761288e+01	2.559044e+05	0.000000e+00	0.000000e+00	1.016859e+05	2.884243e+02	1.540751e-01	5.087837e-01	0.000000e+00	
1.061269e-01	6.504868e-02	1.228174e+00	6.197101e+01	-1.761749e+01	2.559051e+05	0.000000e+00	0.000000e+00	1.016861e+05	2.884245e+02	1.540778e-01	5.091543e-01	0.000000e+00	
1.103128e-01	6.713801e-02	1.228175e+00	6.197107e+01	-1.761847e+01	2.559053e+05	0.000000e+00	0.000000e+00	1.016862e+05	2.884245e+02	1.540785e-01	5.092395e-01	0.000000e+00	
1.010147e-01	6.292372e-02	1.228173e+00	6.197112e+01	-1.761596e+01	2.559049e+05	0.000000e+00	0.000000e+00	1.016860e+05	2.884244e+02	1.540772e-01	5.090215e-01	0.000000e+00	
9.673276e-02	5.990049e-02	1.228172e+00	6.197095e+01	-1.761363e+01	2.559045e+05	0.000000e+00	0.000000e+00	1.016859e+05	2.884243e+02	1.540754e-01	5.088425e-01	0.000000e+00	
1.322151e-01	6.965472e-02	1.228176e+00	6.197071e+01	-1.762091e+01	2.559059e+05	0.000000e+00	0.000000e+00	1.016864e+05	2.884247e+02	1.540790e-01	5.095350e-01	0.000000e+00	
1.189244e-01	7.056084e-02	1.228175e+00	6.197089e+01	-1.761965e+01	2.559056e+05	0.000000e+00	0.000000e+00	1.016863e+05	2.884246e+02	1.540788e-01	5.093756e-01	0.000000e+00	
1.150269e-01	7.024809e-02	1.228175e+00	6.197097e+01	-1.761922e+01	2.559055e+05	0.000000e+00	0.000000e+00	1.016862e+05	2.884246e+02	1.540787e-01	5.093205e-01	0.000000e+00	
1.459335e-01	4.824827e-02	1.228177e+00	6.197094e+01	-1.762240e+01	2.559062e+05	0.000000e+00	0.000000e+00	1.016865e+05	2.884248e+02	1.540804e-01	5.097006e-01	0.000000e+00	
1.435441e-01	5.275717e-02	1.228177e+00	6.197098e+01	-1.762217e+01	2.559061e+05	0.000000e+00	0.000000e+00	1.016865e+05	2.884248e+02	1.540803e-01	5.096700e-01	0.000000e+00	
1.411385e-01	5.728100e-02	1.228177e+00	6.197105e+01	-1.762191e+01	2.559061e+05	0.000000e+00	0.000000e+00	1.016865e+05	2.884248e+02	1.540803e-01	5.096461e-01	0.000000e+00	
1.387625e-01	6.157544e-02	1.228177e+00	6.197102e+01	-1.762164e+01	2.559060e+05	0.000000e+00	0.000000e+00	1.016865e+05	2.884248e+02	1.540801e-01	5.096134e-01	0.000000e+00	
1.483236e-01	4.367543e-02	1.228178e+00	6.197104e+01	-1.762260e+01	2.559062e+05	0.000000e+00	0.000000e+00	1.016865e+05	2.884248e+02	1.540807e-01	5.097247e-01	0.000000e+00	
1.076468e-01	6.710589e-02	1.228174e+00	6.197101e+01	-1.761789e+01	2.559052e+05	0.000000e+00	0.000000e+00	1.016862e+05	2.884245e+02	1.540781e-01	5.091860e-01	0.000000e+00	