TITLE = "Visualization of the volumetric solution"
VARIABLES = "x","y","Density","Momentum_x","Momentum_y","Energy","Grid_Velocity_x","Grid_Velocity_y","Pressure","Temperature","Mach","C<sub>p</sub>","Roe_Dissipation"
ZONE NODES= 19339, ELEMENTS= 37902, DATAPACKING=POINT, ZONETYPE=FEQUADRILATERAL
-1.500000e-01	1.000980e-03	1.221829e+00	6.196800e+01	8.564126e-05	2.539432e+05	0.000000e+00	-4.930000e+01	1.009487e+05	2.878198e+02	1.491241e-01	-5.305024e-01	0.000000e+00	
-1.487636e-01	8.666956e-04	1.221828e+00	6.196800e+01	9.220868e-05	2.539428e+05	0.000000e+00	-4.930000e+01	1.009486e+05	2.878197e+02	1.491243e-01	-5.307302e-01	0.000000e+00	
-1.492307e-01	1.589637e-03	1.221828e+00	6.196811e+01	1.053396e-04	2.539430e+05	0.000000e+00	-4.930000e+01	1.009486e+05	2.878197e+02	1.491245e-01	-5.306487e-01	0.000000e+00	
-1.500000e-01	2.001961e-03	1.221829e+00	6.196800e+01	3.219201e-05	2.539432e+05	0.000000e+00	-4.930000e+01	1.009487e+05	2.878198e+02	1.491241e-01	-5.305067e-01	0.000000e+00	
-1.483823e-01	1.747060e-03	1.221828e+00	6.196810e+01	1.305911e-04	2.539428e+05	0.000000e+00	-4.930000e+01	1.009485e+05	2.878197e+02	1.491246e-01	-5.307720e-01	0.000000e+00	
-1.476559e-01	8.324342e-04	1.221827e+00	6.196789e+01	-4.255600e-07	2.539426e+05	0.000000e+00	-4.930000e+01	1.009485e+05	2.878196e+02	1.491242e-01	-5.308746e-01	0.000000e+00	
-1.490834e-01	2.455188e-03	1.221828e+00	6.196812e+01	1.067169e-04	2.539430e+05	0.000000e+00	-4.930000e+01	1.009486e+05	2.878197e+02	1.491245e-01	-5.306735e-01	0.000000e+00	
-1.500000e-01	3.002941e-03	1.221829e+00	6.196803e+01	1.345352e-05	2.539432e+05	0.000000e+00	-4.930000e+01	1.009487e+05	2.878198e+02	1.491242e-01	-5.305148e-01	0.000000e+00	
-1.481172e-01	2.819883e-03	1.221827e+00	6.196821e+01	1.424777e-04	2.539427e+05	0.000000e+00	-4.930000e+01	1.009485e+05	2.878196e+02	1.491249e-01	-5.308218e-01	0.000000e+00	
-1.473155e-01	1.804797e-03	1.221827e+00	6.196810e+01	8.096940e-05	2.539425e+05	0.000000e+00	-4.930000e+01	1.009484e+05	2.878196e+02	1.491247e-01	-5.309301e-01	0.000000e+00	
-1.466254e-01	8.231228e-04	1.221826e+00	6.196777e+01	-1.505549e-04	2.539423e+05	0.000000e+00	-4.930000e+01	1.009484e+05	2.878195e+02	1.491240e-01	-5.310334e-01	0.000000e+00	
-1.490396e-01	3.401352e-03	1.221828e+00	6.196816e+01	5.745891e-05	2.539429e+05	0.000000e+00	-4.930000e+01	1.009486e+05	2.878197e+02	1.491246e-01	-5.306836e-01	0.000000e+00	
-1.500000e-01	4.003922e-03	1.221829e+00	6.196805e+01	-3.048520e-05	2.539432e+05	0.000000e+00	-4.930000e+01	1.009487e+05	2.878198e+02	1.491242e-01	-5.305175e-01	0.000000e+00	
-1.483296e-01	3.796999e-03	1.221827e+00	6.196824e+01	8.155645e-05	2.539428e+05	0.000000e+00	-4.930000e+01	1.009485e+05	2.878197e+02	1.491249e-01	-5.307898e-01	0.000000e+00	
-1.468843e-01	2.762434e-03	1.221826e+00	6.196825e+01	1.045813e-04	2.539424e+05	0.000000e+00	-4.930000e+01	1.009484e+05	2.878195e+02	1.491251e-01	-5.309948e-01	0.000000e+00	
-1.462407e-01	1.803389e-03	1.221826e+00	6.196799e+01	-9.003776e-05	2.539422e+05	0.000000e+00	-4.930000e+01	1.009483e+05	2.878195e+02	1.491246e-01	-5.310783e-01	0.000000e+00	
-1.456027e-01	8.163113e-04	1.221825e+00	6.196772e+01	-2.633816e-04	2.539420e+05	0.000000e+00	-4.930000e+01	1.009482e+05	2.878194e+02	1.491240e-01	-5.311815e-01	0.000000e+00	
-1.489817e-01	4.503637e-03	1.221828e+00	6.196810e+01	1.446719e-05	2.539429e+05	0.000000e+00	-4.930000e+01	1.009486e+05	2.878197e+02	1.491245e-01	-5.306897e-01	0.000000e+00	
-1.474418e-01	3.692315e-03	1.221827e+00	6.196827e+01	1.278372e-04	2.539425e+05	0.000000e+00	-4.930000e+01	1.009484e+05	2.878196e+02	1.491251e-01	-5.309105e-01	0.000000e+00	
-1.500000e-01	5.004902e-03	1.221829e+00	6.196801e+01	-2.103078e-05	2.539432e+05	0.000000e+00	-4.930000e+01	1.009487e+05	2.878198e+02	1.491241e-01	-5.305104e-01	0.000000e+00	
-1.479841e-01	4.547053e-03	1.221827e+00	6.196817e+01	7.204004e-05	2.539427e+05	0.000000e+00	-4.930000e+01	1.009485e+05	2.878196e+02	1.491248e-01	-5.308385e-01	0.000000e+00	
-1.458131e-01	2.751119e-03	1.221825e+00	6.196817e+01	-2.137318e-05	2.539421e+05	0.000000e+00	-4.930000e+01	1.009483e+05	2.878195e+02	1.491251e-01	-5.311417e-01	0.000000e+00	
-1.463906e-01	3.662066e-03	1.221826e+00	6.196832e+01	1.167549e-04	2.539423e+05	0.000000e+00	-4.930000e+01	1.009483e+05	2.878195e+02	1.491253e-01	-5.310621e-01	0.000000e+00	
-1.452083e-01	1.803890e-03	1.221825e+00	6.196790e+01	-2.294131e-04	2.539420e+05	0.000000e+00	-4.930000e+01	1.009482e+05	2.878194e+02	1.491245e-01	-5.312296e-01	0.000000e+00	
-1.445927e-01	8.132106e-04	1.221824e+00	6.196776e+01	-2.612669e-04	2.539418e+05	0.000000e+00	-4.930000e+01	1.009481e+05	2.878194e+02	1.491242e-01	-5.313200e-01	0.000000e+00	
-1.493063e-01	5.412121e-03	1.221828e+00	6.196806e+01	1.803102e-05	2.539430e+05	0.000000e+00	-4.930000e+01	1.009486e+05	2.878197e+02	1.491244e-01	-5.306455e-01	0.000000e+00	
-1.469501e-01	4.536686e-03	1.221826e+00	6.196826e+01	1.224054e-04	2.539424e+05	0.000000e+00	-4.930000e+01	1.009484e+05	2.878195e+02	1.491251e-01	-5.309847e-01	0.000000e+00	
-1.485033e-01	5.346560e-03	1.221828e+00	6.196806e+01	3.357069e-05	2.539428e+05	0.000000e+00	-4.930000e+01	1.009485e+05	2.878197e+02	1.491245e-01	-5.307616e-01	0.000000e+00	
-1.500000e-01	6.005882e-03	1.221829e+00	6.196801e+01	4.428119e-06	2.539432e+05	0.000000e+00	-4.930000e+01	1.009487e+05	2.878198e+02	1.491241e-01	-5.305073e-01	0.000000e+00	
-1.475065e-01	5.383207e-03	1.221827e+00	6.196814e+01	5.362258e-05	2.539425e+05	0.000000e+00	-4.930000e+01	1.009484e+05	2.878196e+02	1.491248e-01	-5.309063e-01	0.000000e+00	
-1.447894e-01	2.756131e-03	1.221824e+00	6.196808e+01	-1.618253e-04	2.539419e+05	0.000000e+00	-4.930000e+01	1.009482e+05	2.878194e+02	1.491250e-01	-5.312896e-01	0.000000e+00	
-1.453636e-01	3.660554e-03	1.221825e+00	6.196828e+01	2.694225e-05	2.539420e+05	0.000000e+00	-4.930000e+01	1.009482e+05	2.878194e+02	1.491254e-01	-5.312065e-01	0.000000e+00	
-1.459247e-01	4.536866e-03	1.221825e+00	6.196832e+01	1.195961e-04	2.539422e+05	0.000000e+00	-4.930000e+01	1.009483e+05	2.878195e+02	1.491254e-01	-5.311284e-01	0.000000e+00	
-1.441974e-01	1.809880e-03	1.221824e+00	6.196788e+01	-2.702578e-04	2.539417e+05	0.000000e+00	-4.930000e+01	1.009481e+05	2.878193e+02	1.491246e-01	-5.313738e-01	0.000000e+00	
-1.435894e-01	8.124175e-04	1.221823e+00	6.196789e+01	-1.754561e-04	2.539415e+05	0.000000e+00	-4.930000e+01	1.009480e+05	2.878193e+02	1.491247e-01	-5.314649e-01	0.000000e+00	
-1.491550e-01	6.228950e-03	1.221828e+00	6.196806e+01	3.904587e-05	2.539429e+05	0.000000e+00	-4.930000e+01	1.009486e+05	2.878197e+02	1.491244e-01	-5.306741e-01	0.000000e+00	
-1.464808e-01	5.396852e-03	1.221826e+00	6.196823e+01	8.869266e-05	2.539423e+05	0.000000e+00	-4.930000e+01	1.009483e+05	2.878195e+02	1.491251e-01	-5.310480e-01	0.000000e+00	
-1.481057e-01	6.234310e-03	1.221827e+00	6.196808e+01	3.464311e-05	2.539427e+05	0.000000e+00	-4.930000e+01	1.009485e+05	2.878196e+02	1.491246e-01	-5.308162e-01	0.000000e+00	
-1.500000e-01	7.006863e-03	1.221829e+00	6.196804e+01	3.741544e-05	2.539432e+05	0.000000e+00	-4.930000e+01	1.009487e+05	2.878198e+02	1.491242e-01	-5.305198e-01	0.000000e+00	
-1.470481e-01	6.253576e-03	1.221826e+00	6.196815e+01	2.520540e-05	2.539424e+05	0.000000e+00	-4.930000e+01	1.009484e+05	2.878196e+02	1.491249e-01	-5.309680e-01	0.000000e+00	
-1.437851e-01	2.770582e-03	1.221823e+00	6.196802e+01	-2.399619e-04	2.539416e+05	0.000000e+00	-4.930000e+01	1.009481e+05	2.878193e+02	1.491250e-01	-5.314313e-01	0.000000e+00	
-1.443563e-01	3.672619e-03	1.221824e+00	6.196819e+01	-9.753038e-05	2.539418e+05	0.000000e+00	-4.930000e+01	1.009481e+05	2.878193e+02	1.491253e-01	-5.313505e-01	0.000000e+00	
-1.449150e-01	4.547174e-03	1.221824e+00	6.196832e+01	5.814029e-05	2.539419e+05	0.000000e+00	-4.930000e+01	1.009482e+05	2.878194e+02	1.491255e-01	-5.312709e-01	0.000000e+00	
-1.454671e-01	5.409662e-03	1.221825e+00	6.196831e+01	1.032736e-04	2.539420e+05	0.000000e+00	-4.930000e+01	1.009482e+05	2.878194e+02	1.491255e-01	-5.311926e-01	0.000000e+00	
-1.431972e-01	1.822439e-03	1.221823e+00	6.196794e+01	-2.359811e-04	2.539415e+05	0.000000e+00	-4.930000e+01	1.009480e+05	2.878192e+02	1.491249e-01	-5.315156e-01	0.000000e+00	
-1.425907e-01	8.161420e-04	1.221822e+00	6.196803e+01	-9.630838e-05	2.539413e+05	0.000000e+00	-4.930000e+01	1.009479e+05	2.878192e+02	1.491251e-01	-5.316041e-01	0.000000e+00	
-1.488209e-01	7.092858e-03	1.221828e+00	6.196814e+01	4.765484e-05	2.539429e+05	0.000000e+00	-4.930000e+01	1.009486e+05	2.878197e+02	1.491246e-01	-5.307259e-01	0.000000e+00	
-1.460190e-01	6.269364e-03	1.221825e+00	6.196823e+01	5.731016e-05	2.539422e+05	0.000000e+00	-4.930000e+01	1.009483e+05	2.878195e+02	1.491252e-01	-5.311129e-01	0.000000e+00	
-1.476448e-01	7.115895e-03	1.221827e+00	6.196816e+01	2.223560e-05	2.539426e+05	0.000000e+00	-4.930000e+01	1.009485e+05	2.878196e+02	1.491248e-01	-5.308770e-01	0.000000e+00	
-1.493557e-01	7.999558e-03	1.221828e+00	6.196812e+01	2.159322e-05	2.539430e+05	0.000000e+00	-4.930000e+01	1.009486e+05	2.878197e+02	1.491245e-01	-5.306494e-01	0.000000e+00	
-1.465775e-01	7.130510e-03	1.221826e+00	6.196821e+01	1.619421e-05	2.539423e+05	0.000000e+00	-4.930000e+01	1.009484e+05	2.878195e+02	1.491251e-01	-5.310326e-01	0.000000e+00	
-1.427907e-01	2.795195e-03	1.221823e+00	6.196803e+01	-2.485919e-04	2.539414e+05	0.000000e+00	-4.930000e+01	1.009480e+05	2.878192e+02	1.491251e-01	-5.315729e-01	0.000000e+00	
-1.433595e-01	3.694508e-03	1.221823e+00	6.196812e+01	-1.913560e-04	2.539415e+05	0.000000e+00	-4.930000e+01	1.009480e+05	2.878193e+02	1.491253e-01	-5.314918e-01	0.000000e+00	
-1.439161e-01	4.565982e-03	1.221824e+00	6.196827e+01	-4.360654e-05	2.539417e+05	0.000000e+00	-4.930000e+01	1.009481e+05	2.878193e+02	1.491255e-01	-5.314132e-01	0.000000e+00	
-1.444651e-01	5.426818e-03	1.221824e+00	6.196834e+01	7.083999e-05	2.539418e+05	0.000000e+00	-4.930000e+01	1.009481e+05	2.878193e+02	1.491257e-01	-5.313348e-01	0.000000e+00	
-1.450101e-01	6.286202e-03	1.221825e+00	6.196831e+01	8.199640e-05	2.539419e+05	0.000000e+00	-4.930000e+01	1.009482e+05	2.878194e+02	1.491255e-01	-5.312571e-01	0.000000e+00	
-1.422055e-01	1.847645e-03	1.221822e+00	6.196805e+01	-1.751134e-04	2.539412e+05	0.000000e+00	-4.930000e+01	1.009479e+05	2.878192e+02	1.491253e-01	-5.316550e-01	0.000000e+00	
-1.415991e-01	8.334725e-04	1.221822e+00	6.196815e+01	-4.509457e-05	2.539411e+05	0.000000e+00	-4.930000e+01	1.009478e+05	2.878191e+02	1.491256e-01	-5.317456e-01	0.000000e+00	
-1.482453e-01	7.995130e-03	1.221827e+00	6.196819e+01	2.893707e-05	2.539427e+05	0.000000e+00	-4.930000e+01	1.009485e+05	2.878197e+02	1.491248e-01	-5.307930e-01	0.000000e+00	
-1.500000e-01	8.007843e-03	1.221829e+00	6.196803e+01	8.515000e-06	2.539432e+05	0.000000e+00	-4.930000e+01	1.009487e+05	2.878198e+02	1.491242e-01	-5.305138e-01	0.000000e+00	
-1.455538e-01	7.146208e-03	1.221825e+00	6.196826e+01	3.889022e-05	2.539421e+05	0.000000e+00	-4.930000e+01	1.009482e+05	2.878194e+02	1.491253e-01	-5.311785e-01	0.000000e+00	
-1.471403e-01	7.995749e-03	1.221826e+00	6.196824e+01	2.477650e-05	2.539425e+05	0.000000e+00	-4.930000e+01	1.009484e+05	2.878196e+02	1.491251e-01	-5.309531e-01	0.000000e+00	
-1.488335e-01	8.897149e-03	1.221828e+00	6.196820e+01	-2.034557e-05	2.539429e+05	0.000000e+00	-4.930000e+01	1.009486e+05	2.878197e+02	1.491248e-01	-5.307224e-01	0.000000e+00	
-1.500000e-01	9.008824e-03	1.221829e+00	6.196803e+01	-4.322436e-05	2.539432e+05	0.000000e+00	-4.930000e+01	1.009487e+05	2.878198e+02	1.491242e-01	-5.305199e-01	0.000000e+00	
-1.460963e-01	8.005988e-03	1.221826e+00	6.196827e+01	2.243172e-05	2.539422e+05	0.000000e+00	-4.930000e+01	1.009483e+05	2.878195e+02	1.491253e-01	-5.311002e-01	0.000000e+00	
-1.418055e-01	2.836052e-03	1.221822e+00	6.196809e+01	-2.130334e-04	2.539411e+05	0.000000e+00	-4.930000e+01	1.009479e+05	2.878191e+02	1.491254e-01	-5.317112e-01	0.000000e+00	
-1.423699e-01	3.727543e-03	1.221822e+00	6.196810e+01	-2.308235e-04	2.539413e+05	0.000000e+00	-4.930000e+01	1.009479e+05	2.878192e+02	1.491253e-01	-5.316321e-01	0.000000e+00	
-1.429233e-01	4.593627e-03	1.221823e+00	6.196820e+01	-1.377590e-04	2.539414e+05	0.000000e+00	-4.930000e+01	1.009480e+05	2.878192e+02	1.491255e-01	-5.315541e-01	0.000000e+00	
-1.434693e-01	5.450453e-03	1.221823e+00	6.196832e+01	-3.471344e-06	2.539415e+05	0.000000e+00	-4.930000e+01	1.009480e+05	2.878193e+02	1.491257e-01	-5.314768e-01	0.000000e+00	
-1.440106e-01	6.307131e-03	1.221824e+00	6.196836e+01	7.335387e-05	2.539417e+05	0.000000e+00	-4.930000e+01	1.009481e+05	2.878193e+02	1.491258e-01	-5.313998e-01	0.000000e+00	
-1.445487e-01	7.165212e-03	1.221824e+00	6.196833e+01	6.665252e-05	2.539418e+05	0.000000e+00	-4.930000e+01	1.009481e+05	2.878193e+02	1.491256e-01	-5.313229e-01	0.000000e+00	
-1.412274e-01	1.900645e-03	1.221821e+00	6.196816e+01	-1.196383e-04	2.539410e+05	0.000000e+00	-4.930000e+01	1.009478e+05	2.878191e+02	1.491256e-01	-5.317925e-01	0.000000e+00	
-1.406285e-01	8.954280e-04	1.221821e+00	6.196825e+01	-3.961163e-05	2.539408e+05	0.000000e+00	-4.930000e+01	1.009478e+05	2.878190e+02	1.491259e-01	-5.318769e-01	0.000000e+00	
-1.476952e-01	8.863252e-03	1.221827e+00	6.196825e+01	2.333250e-05	2.539426e+05	0.000000e+00	-4.930000e+01	1.009485e+05	2.878196e+02	1.491250e-01	-5.308703e-01	0.000000e+00	
-1.450832e-01	8.022427e-03	1.221825e+00	6.196830e+01	3.741764e-05	2.539419e+05	0.000000e+00	-4.930000e+01	1.009482e+05	2.878194e+02	1.491255e-01	-5.312465e-01	0.000000e+00	
-1.466347e-01	8.863509e-03	1.221826e+00	6.196830e+01	3.609941e-05	2.539423e+05	0.000000e+00	-4.930000e+01	1.009484e+05	2.878195e+02	1.491253e-01	-5.310254e-01	0.000000e+00	
-1.482066e-01	9.717369e-03	1.221827e+00	6.196816e+01	-2.925645e-05	2.539427e+05	0.000000e+00	-4.930000e+01	1.009485e+05	2.878196e+02	1.491247e-01	-5.308034e-01	0.000000e+00	
-1.491565e-01	9.747714e-03	1.221828e+00	6.196809e+01	-7.099173e-05	2.539430e+05	0.000000e+00	-4.930000e+01	1.009486e+05	2.878197e+02	1.491245e-01	-5.306687e-01	0.000000e+00	
-1.456136e-01	8.876237e-03	1.221825e+00	6.196832e+01	3.809718e-05	2.539421e+05	0.000000e+00	-4.930000e+01	1.009483e+05	2.878194e+02	1.491254e-01	-5.311701e-01	0.000000e+00	
-1.413884e-01	3.775179e-03	1.221821e+00	6.196812e+01	-2.145833e-04	2.539410e+05	0.000000e+00	-4.930000e+01	1.009478e+05	2.878191e+02	1.491255e-01	-5.317708e-01	0.000000e+00	
-1.408337e-01	2.903557e-03	1.221821e+00	6.196817e+01	-1.489879e-04	2.539409e+05	0.000000e+00	-4.930000e+01	1.009478e+05	2.878190e+02	1.491257e-01	-5.318478e-01	0.000000e+00	
-1.419360e-01	4.631352e-03	1.221822e+00	6.196816e+01	-1.925282e-04	2.539412e+05	0.000000e+00	-4.930000e+01	1.009479e+05	2.878191e+02	1.491255e-01	-5.316942e-01	0.000000e+00	
-1.424775e-01	5.481907e-03	1.221822e+00	6.196827e+01	-8.665713e-05	2.539413e+05	0.000000e+00	-4.930000e+01	1.009479e+05	2.878192e+02	1.491257e-01	-5.316180e-01	0.000000e+00	
-1.430149e-01	6.333984e-03	1.221823e+00	6.196836e+01	2.508863e-05	2.539414e+05	0.000000e+00	-4.930000e+01	1.009480e+05	2.878192e+02	1.491259e-01	-5.315419e-01	0.000000e+00	
-1.435496e-01	7.188796e-03	1.221823e+00	6.196838e+01	7.223932e-05	2.539416e+05	0.000000e+00	-4.930000e+01	1.009480e+05	2.878193e+02	1.491259e-01	-5.314659e-01	0.000000e+00	
-1.440811e-01	8.043661e-03	1.221824e+00	6.196835e+01	6.069883e-05	2.539417e+05	0.000000e+00	-4.930000e+01	1.009481e+05	2.878193e+02	1.491257e-01	-5.313900e-01	0.000000e+00	
-1.402761e-01	2.014125e-03	1.221820e+00	6.196824e+01	-6.760075e-05	2.539408e+05	0.000000e+00	-4.930000e+01	1.009477e+05	2.878190e+02	1.491259e-01	-5.319237e-01	0.000000e+00	
-1.397442e-01	1.148088e-03	1.221820e+00	6.196827e+01	-5.884471e-05	2.539406e+05	0.000000e+00	-4.930000e+01	1.009477e+05	2.878190e+02	1.491261e-01	-5.319967e-01	0.000000e+00	
-1.471594e-01	9.712720e-03	1.221826e+00	6.196824e+01	2.970879e-05	2.539425e+05	0.000000e+00	-4.930000e+01	1.009484e+05	2.878196e+02	1.491251e-01	-5.309514e-01	0.000000e+00	
-1.500000e-01	1.000980e-02	1.221829e+00	6.196800e+01	-3.825368e-05	2.539432e+05	0.000000e+00	-4.930000e+01	1.009487e+05	2.878198e+02	1.491241e-01	-5.305030e-01	0.000000e+00	
-1.446089e-01	8.895538e-03	1.221824e+00	6.196834e+01	4.600764e-05	2.539418e+05	0.000000e+00	-4.930000e+01	1.009482e+05	2.878194e+02	1.491256e-01	-5.313150e-01	0.000000e+00	
-1.461381e-01	9.723905e-03	1.221826e+00	6.196830e+01	4.507660e-05	2.539422e+05	0.000000e+00	-4.930000e+01	1.009483e+05	2.878195e+02	1.491253e-01	-5.310968e-01	0.000000e+00	
-1.392271e-01	6.765931e-04	1.221820e+00	6.196831e+01	-9.869377e-05	2.539405e+05	0.000000e+00	-4.930000e+01	1.009476e+05	2.878189e+02	1.491262e-01	-5.320748e-01	0.000000e+00	
-1.476708e-01	1.053842e-02	1.221827e+00	6.196809e+01	-3.780138e-05	2.539426e+05	0.000000e+00	-4.930000e+01	1.009485e+05	2.878196e+02	1.491246e-01	-5.308840e-01	0.000000e+00	
-1.486326e-01	1.050867e-02	1.221828e+00	6.196801e+01	-6.503061e-05	2.539428e+05	0.000000e+00	-4.930000e+01	1.009486e+05	2.878197e+02	1.491243e-01	-5.307424e-01	0.000000e+00	
-1.493758e-01	1.051341e-02	1.221828e+00	6.196803e+01	-5.313756e-05	2.539430e+05	0.000000e+00	-4.930000e+01	1.009486e+05	2.878197e+02	1.491243e-01	-5.306310e-01	0.000000e+00	
-1.451325e-01	9.742531e-03	1.221825e+00	6.196834e+01	5.102027e-05	2.539420e+05	0.000000e+00	-4.930000e+01	1.009482e+05	2.878194e+02	1.491256e-01	-5.312403e-01	0.000000e+00	
-1.404163e-01	3.838016e-03	1.221821e+00	6.196818e+01	-1.557389e-04	2.539408e+05	0.000000e+00	-4.930000e+01	1.009477e+05	2.878190e+02	1.491258e-01	-5.319089e-01	0.000000e+00	
-1.409551e-01	4.679301e-03	1.221821e+00	6.196816e+01	-1.941855e-04	2.539409e+05	0.000000e+00	-4.930000e+01	1.009478e+05	2.878191e+02	1.491257e-01	-5.318339e-01	0.000000e+00	
-1.398775e-01	2.997374e-03	1.221820e+00	6.196824e+01	-7.379161e-05	2.539406e+05	0.000000e+00	-4.930000e+01	1.009477e+05	2.878190e+02	1.491260e-01	-5.319849e-01	0.000000e+00	
-1.414903e-01	5.521379e-03	1.221821e+00	6.196822e+01	-1.467768e-04	2.539410e+05	0.000000e+00	-4.930000e+01	1.009478e+05	2.878191e+02	1.491257e-01	-5.317586e-01	0.000000e+00	
-1.420226e-01	6.367383e-03	1.221822e+00	6.196832e+01	-4.232048e-05	2.539412e+05	0.000000e+00	-4.930000e+01	1.009479e+05	2.878191e+02	1.491259e-01	-5.316835e-01	0.000000e+00	
-1.425530e-01	7.217576e-03	1.221822e+00	6.196839e+01	4.467878e-05	2.539413e+05	0.000000e+00	-4.930000e+01	1.009479e+05	2.878192e+02	1.491260e-01	-5.316083e-01	0.000000e+00	
-1.430818e-01	8.069228e-03	1.221823e+00	6.196840e+01	7.198391e-05	2.539414e+05	0.000000e+00	-4.930000e+01	1.009480e+05	2.878192e+02	1.491260e-01	-5.315332e-01	0.000000e+00	
-1.436083e-01	8.919076e-03	1.221823e+00	6.196838e+01	6.240952e-05	2.539416e+05	0.000000e+00	-4.930000e+01	1.009480e+05	2.878193e+02	1.491259e-01	-5.314582e-01	0.000000e+00	
-1.393508e-01	2.174480e-03	1.221820e+00	6.196828e+01	-4.140081e-05	2.539405e+05	0.000000e+00	-4.930000e+01	1.009476e+05	2.878189e+02	1.491262e-01	-5.320569e-01	0.000000e+00	
-1.388500e-01	1.436991e-03	1.221819e+00	6.196825e+01	-8.084937e-05	2.539404e+05	0.000000e+00	-4.930000e+01	1.009476e+05	2.878189e+02	1.491262e-01	-5.321326e-01	0.000000e+00	
-1.466589e-01	1.056081e-02	1.221826e+00	6.196818e+01	4.743615e-06	2.539423e+05	0.000000e+00	-4.930000e+01	1.009484e+05	2.878195e+02	1.491250e-01	-5.310223e-01	0.000000e+00	
-1.500000e-01	1.101078e-02	1.221829e+00	6.196800e+01	6.160761e-06	2.539433e+05	0.000000e+00	-4.930000e+01	1.009487e+05	2.878198e+02	1.491241e-01	-5.304972e-01	0.000000e+00	
-1.441321e-01	9.765154e-03	1.221824e+00	6.196837e+01	5.598949e-05	2.539417e+05	0.000000e+00	-4.930000e+01	1.009481e+05	2.878193e+02	1.491258e-01	-5.313839e-01	0.000000e+00	
-1.456535e-01	1.058322e-02	1.221825e+00	6.196827e+01	3.284567e-05	2.539421e+05	0.000000e+00	-4.930000e+01	1.009483e+05	2.878194e+02	1.491253e-01	-5.311668e-01	0.000000e+00	
-1.383967e-01	7.375468e-04	1.221819e+00	6.196832e+01	-9.660837e-05	2.539403e+05	0.000000e+00	-4.930000e+01	1.009475e+05	2.878188e+02	1.491264e-01	-5.322024e-01	0.000000e+00	
-1.482115e-01	1.134815e-02	1.221827e+00	6.196802e+01	-5.387233e-05	2.539427e+05	0.000000e+00	-4.930000e+01	1.009485e+05	2.878196e+02	1.491244e-01	-5.308008e-01	0.000000e+00	
-1.471894e-01	1.138711e-02	1.221826e+00	6.196807e+01	-6.658399e-05	2.539425e+05	0.000000e+00	-4.930000e+01	1.009484e+05	2.878196e+02	1.491247e-01	-5.309479e-01	0.000000e+00	
-1.491960e-01	1.129530e-02	1.221828e+00	6.196803e+01	-1.246572e-05	2.539430e+05	0.000000e+00	-4.930000e+01	1.009486e+05	2.878197e+02	1.491243e-01	-5.306630e-01	0.000000e+00	
-1.446538e-01	1.060679e-02	1.221824e+00	6.196834e+01	4.890966e-05	2.539418e+05	0.000000e+00	-4.930000e+01	1.009482e+05	2.878194e+02	1.491256e-01	-5.313093e-01	0.000000e+00	
-1.394524e-01	3.910037e-03	1.221820e+00	6.196825e+01	-8.419254e-05	2.539405e+05	0.000000e+00	-4.930000e+01	1.009476e+05	2.878189e+02	1.491261e-01	-5.320479e-01	0.000000e+00	
-1.399803e-01	4.734831e-03	1.221820e+00	6.196819e+01	-1.502232e-04	2.539407e+05	0.000000e+00	-4.930000e+01	1.009477e+05	2.878190e+02	1.491259e-01	-5.319735e-01	0.000000e+00	
-1.405083e-01	5.567344e-03	1.221821e+00	6.196820e+01	-1.638297e-04	2.539408e+05	0.000000e+00	-4.930000e+01	1.009477e+05	2.878190e+02	1.491258e-01	-5.318991e-01	0.000000e+00	
-1.389316e-01	3.099331e-03	1.221819e+00	6.196830e+01	-3.875080e-05	2.539404e+05	0.000000e+00	-4.930000e+01	1.009476e+05	2.878189e+02	1.491263e-01	-5.321225e-01	0.000000e+00	
-1.410348e-01	6.406523e-03	1.221821e+00	6.196828e+01	-1.011749e-04	2.539409e+05	0.000000e+00	-4.930000e+01	1.009478e+05	2.878191e+02	1.491259e-01	-5.318247e-01	0.000000e+00	
-1.415600e-01	7.251220e-03	1.221822e+00	6.196837e+01	-6.521098e-06	2.539411e+05	0.000000e+00	-4.930000e+01	1.009478e+05	2.878191e+02	1.491261e-01	-5.317503e-01	0.000000e+00	
-1.420848e-01	8.098691e-03	1.221822e+00	6.196842e+01	5.829763e-05	2.539412e+05	0.000000e+00	-4.930000e+01	1.009479e+05	2.878191e+02	1.491262e-01	-5.316758e-01	0.000000e+00	
-1.426089e-01	8.945757e-03	1.221822e+00	6.196842e+01	7.399658e-05	2.539413e+05	0.000000e+00	-4.930000e+01	1.009479e+05	2.878192e+02	1.491261e-01	-5.316014e-01	0.000000e+00	
-1.431322e-01	9.790277e-03	1.221823e+00	6.196841e+01	6.750179e-05	2.539415e+05	0.000000e+00	-4.930000e+01	1.009480e+05	2.878192e+02	1.491260e-01	-5.315270e-01	0.000000e+00	
-1.384267e-01	2.307186e-03	1.221819e+00	6.196829e+01	-6.579561e-05	2.539403e+05	0.000000e+00	-4.930000e+01	1.009475e+05	2.878188e+02	1.491263e-01	-5.321977e-01	0.000000e+00	
-1.379161e-01	1.532370e-03	1.221818e+00	6.196828e+01	-1.004467e-04	2.539401e+05	0.000000e+00	-4.930000e+01	1.009475e+05	2.878188e+02	1.491263e-01	-5.322759e-01	0.000000e+00	
-1.461772e-01	1.141731e-02	1.221826e+00	6.196816e+01	-2.883737e-05	2.539422e+05	0.000000e+00	-4.930000e+01	1.009483e+05	2.878195e+02	1.491250e-01	-5.310909e-01	0.000000e+00	
-1.500000e-01	1.201176e-02	1.221829e+00	6.196803e+01	4.634965e-05	2.539432e+05	0.000000e+00	-4.930000e+01	1.009487e+05	2.878198e+02	1.491242e-01	-5.305114e-01	0.000000e+00	
-1.436544e-01	1.063150e-02	1.221823e+00	6.196839e+01	5.938622e-05	2.539416e+05	0.000000e+00	-4.930000e+01	1.009481e+05	2.878193e+02	1.491259e-01	-5.314527e-01	0.000000e+00	
-1.451754e-01	1.144399e-02	1.221825e+00	6.196825e+01	6.782649e-06	2.539420e+05	0.000000e+00	-4.930000e+01	1.009482e+05	2.878194e+02	1.491253e-01	-5.312348e-01	0.000000e+00	
-1.374632e-01	7.794572e-04	1.221818e+00	6.196839e+01	-6.603403e-05	2.539400e+05	0.000000e+00	-4.930000e+01	1.009474e+05	2.878188e+02	1.491267e-01	-5.323441e-01	0.000000e+00	
-1.477501e-01	1.220953e-02	1.221827e+00	6.196808e+01	-4.930700e-05	2.539426e+05	0.000000e+00	-4.930000e+01	1.009485e+05	2.878196e+02	1.491246e-01	-5.308617e-01	0.000000e+00	
-1.488658e-01	1.215152e-02	1.221828e+00	6.196811e+01	1.091780e-05	2.539429e+05	0.000000e+00	-4.930000e+01	1.009486e+05	2.878197e+02	1.491245e-01	-5.307154e-01	0.000000e+00	
-1.467111e-01	1.224697e-02	1.221826e+00	6.196811e+01	-7.026937e-05	2.539423e+05	0.000000e+00	-4.930000e+01	1.009484e+05	2.878195e+02	1.491248e-01	-5.310147e-01	0.000000e+00	
-1.441764e-01	1.146949e-02	1.221824e+00	6.196833e+01	3.516019e-05	2.539417e+05	0.000000e+00	-4.930000e+01	1.009481e+05	2.878193e+02	1.491257e-01	-5.313780e-01	0.000000e+00	
-1.384911e-01	3.981217e-03	1.221819e+00	6.196831e+01	-4.635221e-05	2.539403e+05	0.000000e+00	-4.930000e+01	1.009475e+05	2.878188e+02	1.491263e-01	-5.321881e-01	0.000000e+00	
-1.390093e-01	4.792899e-03	1.221819e+00	6.196826e+01	-9.046786e-05	2.539404e+05	0.000000e+00	-4.930000e+01	1.009476e+05	2.878189e+02	1.491262e-01	-5.321140e-01	0.000000e+00	
-1.395306e-01	5.616719e-03	1.221820e+00	6.196822e+01	-1.386393e-04	2.539405e+05	0.000000e+00	-4.930000e+01	1.009476e+05	2.878189e+02	1.491260e-01	-5.320398e-01	0.000000e+00	
-1.400516e-01	6.449339e-03	1.221820e+00	6.196826e+01	-1.294821e-04	2.539407e+05	0.000000e+00	-4.930000e+01	1.009477e+05	2.878190e+02	1.491260e-01	-5.319659e-01	0.000000e+00	
-1.379865e-01	3.191607e-03	1.221818e+00	6.196833e+01	-5.811355e-05	2.539402e+05	0.000000e+00	-4.930000e+01	1.009475e+05	2.878188e+02	1.491265e-01	-5.322627e-01	0.000000e+00	
-1.405719e-01	7.288418e-03	1.221821e+00	6.196834e+01	-6.006869e-05	2.539408e+05	0.000000e+00	-4.930000e+01	1.009477e+05	2.878190e+02	1.491262e-01	-5.318920e-01	0.000000e+00	
-1.410921e-01	8.131200e-03	1.221821e+00	6.196842e+01	2.124814e-05	2.539409e+05	0.000000e+00	-4.930000e+01	1.009478e+05	2.878191e+02	1.491263e-01	-5.318180e-01	0.000000e+00	
-1.416126e-01	8.974808e-03	1.221822e+00	6.196845e+01	6.851193e-05	2.539411e+05	0.000000e+00	-4.930000e+01	1.009478e+05	2.878191e+02	1.491263e-01	-5.317440e-01	0.000000e+00	
-1.421335e-01	9.817114e-03	1.221822e+00	6.196845e+01	7.777533e-05	2.539412e+05	0.000000e+00	-4.930000e+01	1.009479e+05	2.878191e+02	1.491262e-01	-5.316701e-01	0.000000e+00	
-1.426547e-01	1.065715e-02	1.221822e+00	6.196843e+01	7.114451e-05	2.539413e+05	0.000000e+00	-4.930000e+01	1.009480e+05	2.878192e+02	1.491261e-01	-5.315958e-01	0.000000e+00	
-1.374633e-01	2.359578e-03	1.221818e+00	6.196830e+01	-1.000304e-04	2.539400e+05	0.000000e+00	-4.930000e+01	1.009474e+05	2.878188e+02	1.491264e-01	-5.323388e-01	0.000000e+00	
-1.369753e-01	1.585967e-03	1.221817e+00	6.196832e+01	-9.228975e-05	2.539399e+05	0.000000e+00	-4.930000e+01	1.009474e+05	2.878187e+02	1.491266e-01	-5.324113e-01	0.000000e+00	
-1.456998e-01	1.227747e-02	1.221825e+00	6.196816e+01	-5.098274e-05	2.539421e+05	0.000000e+00	-4.930000e+01	1.009483e+05	2.878194e+02	1.491251e-01	-5.311586e-01	0.000000e+00	
-1.493811e-01	1.301655e-02	1.221828e+00	6.196809e+01	2.714747e-05	2.539430e+05	0.000000e+00	-4.930000e+01	1.009486e+05	2.878197e+02	1.491244e-01	-5.306402e-01	0.000000e+00	
-1.431765e-01	1.149481e-02	1.221823e+00	6.196839e+01	5.490662e-05	2.539415e+05	0.000000e+00	-4.930000e+01	1.009480e+05	2.878192e+02	1.491259e-01	-5.315215e-01	0.000000e+00	
-1.446988e-01	1.230464e-02	1.221824e+00	6.196824e+01	-1.682936e-05	2.539418e+05	0.000000e+00	-4.930000e+01	1.009482e+05	2.878194e+02	1.491254e-01	-5.313030e-01	0.000000e+00	
-1.364915e-01	8.006150e-04	1.221817e+00	6.196847e+01	-3.280916e-05	2.539398e+05	0.000000e+00	-4.930000e+01	1.009473e+05	2.878187e+02	1.491270e-01	-5.324827e-01	0.000000e+00	
-1.483264e-01	1.304164e-02	1.221827e+00	6.196812e+01	1.064285e-05	2.539428e+05	0.000000e+00	-4.930000e+01	1.009485e+05	2.878197e+02	1.491246e-01	-5.307812e-01	0.000000e+00	
-1.472577e-01	1.307666e-02	1.221827e+00	6.196813e+01	-3.084813e-05	2.539425e+05	0.000000e+00	-4.930000e+01	1.009484e+05	2.878196e+02	1.491248e-01	-5.309354e-01	0.000000e+00	
-1.462293e-01	1.310881e-02	1.221826e+00	6.196814e+01	-6.245241e-05	2.539422e+05	0.000000e+00	-4.930000e+01	1.009483e+05	2.878195e+02	1.491249e-01	-5.310820e-01	0.000000e+00	
-1.500000e-01	1.301275e-02	1.221829e+00	6.196801e+01	1.456197e-05	2.539432e+05	0.000000e+00	-4.930000e+01	1.009487e+05	2.878198e+02	1.491241e-01	-5.305052e-01	0.000000e+00	
-1.436988e-01	1.233034e-02	1.221823e+00	6.196832e+01	1.728716e-05	2.539416e+05	0.000000e+00	-4.930000e+01	1.009481e+05	2.878193e+02	1.491257e-01	-5.314466e-01	0.000000e+00	
-1.380381e-01	4.848076e-03	1.221818e+00	6.196832e+01	-5.284136e-05	2.539402e+05	0.000000e+00	-4.930000e+01	1.009475e+05	2.878188e+02	1.491264e-01	-5.322552e-01	0.000000e+00	
-1.375231e-01	4.043822e-03	1.221818e+00	6.196834e+01	-5.447957e-05	2.539400e+05	0.000000e+00	-4.930000e+01	1.009474e+05	2.878188e+02	1.491265e-01	-5.323298e-01	0.000000e+00	
-1.385549e-01	5.665739e-03	1.221819e+00	6.196828e+01	-9.354888e-05	2.539403e+05	0.000000e+00	-4.930000e+01	1.009475e+05	2.878189e+02	1.491263e-01	-5.321809e-01	0.000000e+00	
-1.390718e-01	6.493087e-03	1.221819e+00	6.196827e+01	-1.216211e-04	2.539404e+05	0.000000e+00	-4.930000e+01	1.009476e+05	2.878189e+02	1.491262e-01	-5.321071e-01	0.000000e+00	
-1.395882e-01	7.327213e-03	1.221820e+00	6.196832e+01	-9.479536e-05	2.539406e+05	0.000000e+00	-4.930000e+01	1.009476e+05	2.878189e+02	1.491262e-01	-5.320335e-01	0.000000e+00	
-1.370041e-01	3.250214e-03	1.221818e+00	6.196833e+01	-9.248697e-05	2.539399e+05	0.000000e+00	-4.930000e+01	1.009474e+05	2.878187e+02	1.491266e-01	-5.324054e-01	0.000000e+00	
-1.401045e-01	8.165464e-03	1.221820e+00	6.196840e+01	-2.481926e-05	2.539407e+05	0.000000e+00	-4.930000e+01	1.009477e+05	2.878190e+02	1.491263e-01	-5.319599e-01	0.000000e+00	
-1.406212e-01	9.005382e-03	1.221821e+00	6.196846e+01	4.263218e-05	2.539408e+05	0.000000e+00	-4.930000e+01	1.009477e+05	2.878190e+02	1.491264e-01	-5.318863e-01	0.000000e+00	
-1.411387e-01	9.845073e-03	1.221821e+00	6.196848e+01	7.685630e-05	2.539410e+05	0.000000e+00	-4.930000e+01	1.009478e+05	2.878191e+02	1.491264e-01	-5.318127e-01	0.000000e+00	
-1.416573e-01	1.068348e-02	1.221822e+00	6.196847e+01	8.149199e-05	2.539411e+05	0.000000e+00	-4.930000e+01	1.009479e+05	2.878191e+02	1.491263e-01	-5.317388e-01	0.000000e+00	
-1.421772e-01	1.152028e-02	1.221822e+00	6.196844e+01	7.110817e-05	2.539412e+05	0.000000e+00	-4.930000e+01	1.009479e+05	2.878192e+02	1.491262e-01	-5.316647e-01	0.000000e+00	
-1.364993e-01	2.411234e-03	1.221817e+00	6.196833e+01	-1.062762e-04	2.539398e+05	0.000000e+00	-4.930000e+01	1.009473e+05	2.878187e+02	1.491267e-01	-5.324803e-01	0.000000e+00	
-1.360078e-01	1.611585e-03	1.221817e+00	6.196840e+01	-6.027135e-05	2.539397e+05	0.000000e+00	-4.930000e+01	1.009473e+05	2.878186e+02	1.491269e-01	-5.325515e-01	0.000000e+00	