TITLE = "SU2 Simulation"
VARIABLES = "Iteration","TotalPressureLoss_1","KineticEnergyLoss_1","EntropyGen_1","EulerianWork_1","PressureRatio_1","FlowAngleIn_1","FlowAngleOut_1","AbsFlowAngleIn_1","AbsFlowAngleOut_1","MassFlowIn_1","MassFlowOut_1","MachIn_1","MachOut_1","TotalEfficiency_1","TotalStaticEfficiency_1","TotalPressureLoss_2","KineticEnergyLoss_2","EntropyGen_2","EulerianWork_2","PressureRatio_2","FlowAngleIn_2","FlowAngleOut_2","AbsFlowAngleIn_2","AbsFlowAngleOut_2","MassFlowIn_2","MassFlowOut_2","MachIn_2","MachOut_2","TotalEfficiency_2","TotalStaticEfficiency_2","TotalPressureLoss_3","KineticEnergyLoss_3","EntropyGen_3","EulerianWork_3","PressureRatio_3","FlowAngleIn_3","FlowAngleOut_3","AbsFlowAngleIn_3","AbsFlowAngleOut_3","MassFlowIn_3","MassFlowOut_3","MachIn_3","MachOut_3","TotalEfficiency_3","TotalStaticEfficiency_3","TotalPressureLoss_4","KineticEnergyLoss_4","EntropyGen_4","EulerianWork_4","PressureRatio_4","FlowAngleIn_4","FlowAngleOut_4","AbsFlowAngleIn_4","AbsFlowAngleOut_4","MassFlowIn_4","MassFlowOut_4","MachIn_4","MachOut_4","TotalEfficiency_4","TotalStaticEfficiency_4","Res_Flow[0]","Res_Flow[1]","Res_Flow[2]","Res_Flow[3]","Res_Flow[4]","Linear_Solver_Iterations","CFL_Number","Time(min)"
ZONE T= "Convergence history"
           0, 0.0001219459, 0.0025569931, 0.0000048707, -5.5240117059, 0.9999985681, 48.0970933984, 48.0972614283, -0.0000000063, 0.0000000000, 54.1927479233, 54.1913341631, 0.1946515772, 0.1946492040, 0.0000000000, 0.0000000000, -0.2572831717, -0.0085195051, -0.0000069428, -185.6613410522, 1.0023359331, 0.0000000107, -0.0000394880, 0.0000000107, -0.0000394880, 54.1913337837, 53.4905207962, 0.1299999989, 0.1280215860, 0.0000000000, 0.0000000000, 0.0000000000, 0.0000000000, -0.0000020721, 0.0000000000, 0.9973128288, 0.0000000000, 0.0000000000, 0.0000000000, 0.0000000000, 54.1927479233, 53.4905207962, 0.0000000000, 0.0000000000, 0.9876319079, -0.2528594219, 0.0000000000, 0.0000000000, -0.0000020721, 0.0000000000, 0.9973128288, 0.0000000000, 0.0000000000, 0.0000000000, 0.0000000000, 54.1927479233, 53.4905207962, 0.0000000000, 0.0000000000, 0.9876319079, -0.2528594219, -3.17381012e+00, -7.01668827e-01, -1.36629071e+01, 2.26662968e+00, 0.00000000e+00, 5.0000000000, 8.0000000000, 0.0039696333
           1, 0.0001645394, 0.0046590981, 0.0000088938, -10.1432038626, 0.9999980679, 48.0970510747, 48.0972616036, 0.0000000166, -0.0000000001, 54.1937087678, 54.1913338734, 0.1946532601, 0.1946492034, 0.0000000000, 0.0000000000, -0.3818984689, -0.0015079427, -0.0000012249, -257.6774711930, 1.0031253181, 0.0000000414, -0.0001321638, 0.0000000414, -0.0001321638, 54.1913290197, 53.2587773603, 0.1299999855, 0.1273697293, 0.0000000000, 0.0000000000, 0.0000000000, 0.0000000000, 0.0000076689, 0.0000000000, 0.9964117580, 0.0000000000, 0.0000000000, 0.0000000000, 0.0000000000, 54.1937087678, 53.2587773603, 0.0000000000, 0.0000000000, 1.0342293590, -0.3930859954, 0.0000000000, 0.0000000000, 0.0000076689, 0.0000000000, 0.9964117580, 0.0000000000, 0.0000000000, 0.0000000000, 0.0000000000, 54.1937087678, 53.2587773603, 0.0000000000, 0.0000000000, 1.0342293590, -0.3930859954, -3.46078202e+00, -9.93006164e-01, -2.90172223e+00, 1.98250389e+00, 0.00000000e+00, 5.0000000000, 8.0000000000, 0.0077792833
           2, 0.0001786200, 0.0063902098, 0.0000122197, -13.9824409022, 0.9999979025, 48.0970482952, 48.0972638610, 0.0000000416, -0.0000000012, 54.1944336852, 54.1913301414, 0.1946545592, 0.1946491962, 0.0000000000, 0.0000000000, -0.4064191513, 0.0055715538, 0.0000045499, -275.7430976998, 1.0032626151, 0.0000000924, -0.0001822666, 0.0000000924, -0.0001822666, 54.1912998687, 53.2174667842, 0.1299999031, 0.1272552412, 0.0000000000, 0.0000000000, 0.0000000000, 0.0000000000, 0.0000167696, 0.0000000000, 0.9962548840, 0.0000000000, 0.0000000000, 0.0000000000, 0.0000000000, 54.1944336852, 53.2174667842, 0.0000000000, 0.0000000000, 1.0717043932, -0.4335332492, 0.0000000000, 0.0000000000, 0.0000167696, 0.0000000000, 0.9962548840, 0.0000000000, 0.0000000000, 0.0000000000, 0.0000000000, 54.1944336852, 53.2174667842, 0.0000000000, 0.0000000000, 1.0717043932, -0.4335332492, -3.59683628e+00, -1.12512796e+00, -2.76727539e+00, 1.84653295e+00, 0.00000000e+00, 5.0000000000, 8.0000000000, 0.0116365167
           3, 0.0001802270, 0.0078104568, 0.0000149570, -17.1519727833, 0.9999978837, 48.0970524295, 48.0972780310, 0.0000000625, -0.0000000071, 54.1950164393, 54.1913067138, 0.1946556100, 0.1946491505, 0.0000000000, 0.0000000000, -0.3967190255, 0.0083801207, 0.0000068672, -273.9660824836, 1.0032087026, 0.0000000977, -0.0001966767, 0.0000000977, -0.0001966767, 54.1911777550, 53.2312742195, 0.1299995582, 0.1272954445, 0.0000000000, 0.0000000000, 0.0000000000, 0.0000000000, 0.0000218242, 0.0000000000, 0.9963151911, 0.0000000000, 0.0000000000, 0.0000000000, 0.0000000000, 54.1950164393, 53.2312742195, 0.0000000000, 0.0000000000, 1.0948928689, -0.4324308204, 0.0000000000, 0.0000000000, 0.0000218242, 0.0000000000, 0.9963151911, 0.0000000000, 0.0000000000, 0.0000000000, 0.0000000000, 54.1950164393, 53.2312742195, 0.0000000000, 0.0000000000, 1.0948928689, -0.4324308204, -3.65503754e+00, -1.18598171e+00, -2.71729271e+00, 1.78708380e+00, 0.00000000e+00, 5.0000000000, 8.0000000000, 0.0154802500
           4, 0.0001587735, 0.0089665870, 0.0000171911, -19.7609449658, 0.9999981357, 48.0970551695, 48.0973387570, 0.0000000721, -0.0000000150, 54.1954935467, 54.1912063240, 0.1946564698, 0.1946489549, 0.0000000000, 0.0000000000, -0.3848619082, 0.0078112896, 0.0000064026, -267.8832348579, 1.0031417523, -0.0000001641, -0.0002082942, -0.0000001641, -0.0002082942, 54.1907808396, 53.2493460825, 0.1299984373, 0.1273466779, 0.0000000000, 0.0000000000, 0.0000000000, 0.0000000000, 0.0000235936, 0.0000000000, 0.9963900417, 0.0000000000, 0.0000000000, 0.0000000000, 0.0000000000, 54.1954935467, 53.2493460825, 0.0000000000, 0.0000000000, 1.1048082941, -0.4235514031, 0.0000000000, 0.0000000000, 0.0000235936, 0.0000000000, 0.9963900417, 0.0000000000, 0.0000000000, 0.0000000000, 0.0000000000, 54.1954935467, 53.2493460825, 0.0000000000, 0.0000000000, 1.1048082941, -0.4235514031, -3.69948632e+00, -1.23128555e+00, -2.76855215e+00, 1.74226552e+00, 0.00000000e+00, 5.0000000000, 8.0000000000, 0.0192931000
           5, 0.0000703633, 0.0098967901, 0.0000189922, -21.9336911532, 0.9999991739, 48.0970561434, 48.0975402964, 0.0000000759, 0.0000000081, 54.1958812610, 54.1908731721, 0.1946571671, 0.1946483057, 0.0000000000, 0.0000000000, -0.3779908194, 0.0057183634, 0.0000046793, -262.6198634718, 1.0031023206, -0.0000011761, -0.0002227851, -0.0000011761, -0.0002227851, 54.1897130875, 53.2597256592, 0.1299954218, 0.1273755295, 0.0000000000, 0.0000000000, 0.0000000000, 0.0000000000, 0.0000236716, 0.0000000000, 0.9964330110, 0.0000000000, 0.0000000000, 0.0000000000, 0.0000000000, 54.1958812610, 53.2597256592, 0.0000000000, 0.0000000000, 1.1065880648, -0.4173201019, 0.0000000000, 0.0000000000, 0.0000236716, 0.0000000000, 0.9964330110, 0.0000000000, 0.0000000000, 0.0000000000, 0.0000000000, 54.1958812610, 53.2597256592, 0.0000000000, 0.0000000000, 1.1065880648, -0.4173201019, -3.73419049e+00, -1.26496320e+00, -2.76815876e+00, 1.70727591e+00, 0.00000000e+00, 5.0000000000, 8.0000000000, 0.0231753333
           6, -0.0001850397, 0.0106333208, 0.0000204205, -23.8371157903, 1.0000021720, 48.0970563232, 48.0980932801, 0.0000000782, 0.0000000674, 54.1961907929, 54.1899590210, 0.1946577231, 0.1946465240, 0.0000000000, 0.0000000000, -0.3745706583, 0.0033769011, 0.0000027573, -258.7367451190, 1.0030823352, -0.0000037447, -0.0002301445, -0.0000037447, -0.0002301445, 54.1872413645, 53.2636379979, 0.1299884416, 0.1273858827, 0.0000000000, 0.0000000000, 0.0000000000, 0.0000000000, 0.0000231778, 0.0000000000, 0.9964528356, 0.0000000000, 0.0000000000, 0.0000000000, 0.0000000000, 54.1961907929, 53.2636379979, 0.0000000000, 0.0000000000, 1.1052434792, -0.4145775642, 0.0000000000, 0.0000000000, 0.0000231778, 0.0000000000, 0.9964528356, 0.0000000000, 0.0000000000, 0.0000000000, 0.0000000000, 54.1961907929, 53.2636379979, 0.0000000000, 0.0000000000, 1.1052434792, -0.4145775642, -3.75938513e+00, -1.28939017e+00, -2.73915056e+00, 1.68188309e+00, 0.00000000e+00, 5.0000000000, 8.0000000000, 0.0274620000
           7, -0.0007975435, 0.0112032516, 0.0000215266, -25.7145183249, 1.0000093548, 48.0970563150, 48.0993969006, 0.0000000803, 0.0000001605, 54.1964322135, 54.1878039684, 0.1946581566, 0.1946423227, 0.0000000000, 0.0000000000, -0.3716473757, 0.0013201729, 0.0000010757, -255.3377739806, 1.0030648191, -0.0000091084, -0.0002224182, -0.0000091084, -0.0002224182, 54.1821886928, 53.2644274241, 0.1299741724, 0.1273874578, 0.0000000000, 0.0000000000, 0.0000000000, 0.0000000000, 0.0000226023, 0.0000000000, 0.9964689083, 0.0000000000, 0.0000000000, 0.0000000000, 0.0000000000, 54.1964322135, 53.2644274241, 0.0000000000, 0.0000000000, 1.1035679413, -0.4138632934, 0.0000000000, 0.0000000000, 0.0000226023, 0.0000000000, 0.9964689083, 0.0000000000, 0.0000000000, 0.0000000000, 0.0000000000, 54.1964322135, 53.2644274241, 0.0000000000, 0.0000000000, 1.1035679413, -0.4138632934, -3.77900915e+00, -1.30866515e+00, -2.74518605e+00, 1.66225294e+00, 0.00000000e+00, 5.0000000000, 8.0000000000, 0.0313538833
           8, -0.0020822766, 0.0116302849, 0.0000223548, -27.9216466441, 1.0000243884, 48.0970563141, 48.1021068133, 0.0000000817, 0.0000002966, 54.1966150907, 54.1833245879, 0.1946584850, 0.1946335873, 0.0000000000, 0.0000000000, -0.3668517920, -0.0003927640, -0.0000003195, -251.3157234927, 1.0030357571, -0.0000190012, -0.0001990695, -0.0000190012, -0.0001990695, 54.1729002976, 53.2642988700, 0.1299479407, 0.1273865895, 0.0000000000, 0.0000000000, 0.0000000000, 0.0000000000, 0.0000220353, 0.0000000000, 0.9964985764, 0.0000000000, 0.0000000000, 0.0000000000, 0.0000000000, 54.1966150907, 53.2642988700, 0.0000000000, 0.0000000000, 1.1024548565, -0.4139011427, 0.0000000000, 0.0000000000, 0.0000220353, 0.0000000000, 0.9964985764, 0.0000000000, 0.0000000000, 0.0000000000, 0.0000000000, 54.1966150907, 53.2642988700, 0.0000000000, 0.0000000000, 1.1024548565, -0.4139011427, -3.79711853e+00, -1.32658558e+00, -2.78711450e+00, 1.64427791e+00, 0.00000000e+00, 5.0000000000, 8.0000000000, 0.0349791000
           9, -0.0045020464, 0.0119362446, 0.0000229462, -30.9468450987, 1.0000525852, 48.0970563376, 48.1071667234, 0.0000000818, 0.0000003653, 54.1967482471, 54.1749627115, 0.1946587241, 0.1946172737, 0.0000000000, 0.0000000000, -0.3585349087, -0.0018950383, -0.0000015392, -245.6945427281, 1.0029849099, -0.0000354179, -0.0001651821, -0.0000354179, -0.0001651821, 54.1573376145, 53.2641502198, 0.1299039874, 0.1273858209, 0.0000000000, 0.0000000000, 0.0000000000, 0.0000000000, 0.0000214070, 0.0000000000, 0.9965570044, 0.0000000000, 0.0000000000, 0.0000000000, 0.0000000000, 54.1967482471, 53.2641502198, 0.0000000000, 0.0000000000, 1.1018790407, -0.4140441093, 0.0000000000, 0.0000000000, 0.0000214070, 0.0000000000, 0.9965570044, 0.0000000000, 0.0000000000, 0.0000000000, 0.0000000000, 54.1967482471, 53.2641502198, 0.0000000000, 0.0000000000, 1.1018790407, -0.4140441093, -3.81691871e+00, -1.34623218e+00, -2.84266584e+00, 1.62466334e+00, 0.00000000e+00, 5.0000000000, 8.0000000000, 0.0395961333
          10, -0.0086648834, 0.0121424527, 0.0000233408, -35.3999042843, 1.0001007337, 48.0970563666, 48.1157677764, 0.0000000804, -0.0000000255, 54.1968395774, 54.1607550595, 0.1946588881, 0.1945895406, 0.0000000000, 0.0000000000, -0.3455554710, -0.0033391089, -0.0000027081, -237.6738122419, 1.0029043599, -0.0000600706, -0.0001276862, -0.0000600706, -0.0001276862, 54.1333287529, 53.2641537080, 0.1298361744, 0.1273856082, 0.0000000000, 0.0000000000, 0.0000000000, 0.0000000000, 0.0000206327, 0.0000000000, 0.9966593650, 0.0000000000, 0.0000000000, 0.0000000000, 0.0000000000, 54.1968395774, 53.2641537080, 0.0000000000, 0.0000000000, 1.1015794754, -0.4140881270, 0.0000000000, 0.0000000000, 0.0000206327, 0.0000000000, 0.9966593650, 0.0000000000, 0.0000000000, 0.0000000000, 0.0000000000, 54.1968395774, 53.2641537080, 0.0000000000, 0.0000000000, 1.1015794754, -0.4140881270, -3.84085085e+00, -1.36995138e+00, -2.89009730e+00, 1.60090881e+00, 0.00000000e+00, 5.0000000000, 8.0000000000, 0.0437318833
          11, -0.0152899261, 0.0122709342, 0.0000235804, -41.9598467245, 1.0001764377, 48.0970563902, 48.1292128186, 0.0000000778, -0.0000016481, 54.1968960618, 54.1385624833, 0.1946589895, 0.1945461892, 0.0000000000, 0.0000000000, -0.3272177213, -0.0048234939, -0.0000039062, -226.6474605031, 1.0027879127, -0.0000938717, -0.0000921417, -0.0000938717, -0.0000921417, 54.0989566710, 53.2642366341, 0.1297390765, 0.1273857112, 0.0000000000, 0.0000000000, 0.0000000000, 0.0000000000, 0.0000196742, 0.0000000000, 0.9968214938, 0.0000000000, 0.0000000000, 0.0000000000, 0.0000000000, 54.1968960618, 53.2642366341, 0.0000000000, 0.0000000000, 1.1013443311, -0.4140263490, 0.0000000000, 0.0000000000, 0.0000196742, 0.0000000000, 0.9968214938, 0.0000000000, 0.0000000000, 0.0000000000, 0.0000000000, 54.1968960618, 53.2642366341, 0.0000000000, 0.0000000000, 1.1013443311, -0.4140263490, -3.87057676e+00, -1.39934849e+00, -2.92586097e+00, 1.57132918e+00, 0.00000000e+00, 5.0000000000, 8.0000000000, 0.0475730000
          12, -0.0251439097, 0.0123449854, 0.0000237091, -51.2829392830, 1.0002869913, 48.0970564070, 48.1486885495, 0.0000000744, -0.0000056808, 54.1969238577, 54.1064541986, 0.1946590395, 0.1944834030, 0.0000000000, 0.0000000000, -0.3033726400, -0.0063768769, -0.0000051562, -212.2620630619, 1.0026316350, -0.0001367106, -0.0000614784, -0.0001367106, -0.0000614784, 54.0530132255, 53.2643136952, 0.1296092545, 0.1273858602, 0.0000000000, 0.0000000000, 0.0000000000, 0.0000000000, 0.0000185529, 0.0000000000, 0.9970584582, 0.0000000000, 0.0000000000, 0.0000000000, 0.0000000000, 54.1969238577, 53.2643136952, 0.0000000000, 0.0000000000, 1.1010654683, -0.4139010542, 0.0000000000, 0.0000000000, 0.0000185529, 0.0000000000, 0.9970584582, 0.0000000000, 0.0000000000, 0.0000000000, 0.0000000000, 54.1969238577, 53.2643136952, 0.0000000000, 0.0000000000, 1.1010654683, -0.4139010542, -3.90694664e+00, -1.43531101e+00, -2.96013078e+00, 1.53507742e+00, 0.00000000e+00, 5.0000000000, 8.0000000000, 0.0515024667
          13, -0.0389581125, 0.0123887357, 0.0000237735, -63.8869809782, 1.0004379964, 48.0970564197, 48.1749805946, 0.0000000705, -0.0000132515, 54.1969283974, 54.0631888835, 0.1946590476, 0.1943986680, 0.0000000000, 0.0000000000, -0.2745265292, -0.0079674528, -0.0000064321, -194.4879044627, 1.0024348294, -0.0001872588, -0.0000364481, -0.0001872588, -0.0000364481, 53.9954112827, 53.2643498008, 0.1294464015, 0.1273859341, 0.0000000000, 0.0000000000, 0.0000000000, 0.0000000000, 0.0000173413, 0.0000000000, 0.9973818373, 0.0000000000, 0.0000000000, 0.0000000000, 0.0000000000, 54.1969283974, 53.2643498008, 0.0000000000, 0.0000000000, 1.1007095533, -0.4137462334, 0.0000000000, 0.0000000000, 0.0000173413, 0.0000000000, 0.9973818373, 0.0000000000, 0.0000000000, 0.0000000000, 0.0000000000, 54.1969283974, 53.2643498008, 0.0000000000, 0.0000000000, 1.1007095533, -0.4137462334, -3.95010283e+00, -1.47815263e+00, -2.99969634e+00, 1.49203295e+00, 0.00000000e+00, 5.0000000000, 8.0000000000, 0.0550118833
          14, -0.0573428779, 0.0124255706, 0.0000238188, -80.0431494539, 1.0006321009, 48.0970564304, 48.2082005278, 0.0000000665, -0.0000242243, 54.1969144750, 54.0086769478, 0.1946590226, 0.1942916486, 0.0000000000, 0.0000000000, -0.2418163482, -0.0095218074, -0.0000076751, -173.6556332896, 1.0022006953, -0.0002425449, -0.0000166892, -0.0002425449, -0.0000166892, 53.9274454388, 53.2643501358, 0.1292540501, 0.1273859308, 0.0000000000, 0.0000000000, 0.0000000000, 0.0000000000, 0.0000161437, 0.0000000000, 0.9977969491, 0.0000000000, 0.0000000000, 0.0000000000, 0.0000000000, 54.1969144750, 53.2643501358, 0.0000000000, 0.0000000000, 1.1002801044, -0.4135780875, 0.0000000000, 0.0000000000, 0.0000161437, 0.0000000000, 0.9977969491, 0.0000000000, 0.0000000000, 0.0000000000, 0.0000000000, 54.1969144750, 53.2643501358, 0.0000000000, 0.0000000000, 1.1002801044, -0.4135780875, -3.99972756e+00, -1.52792384e+00, -3.04376533e+00, 1.44254982e+00, 0.00000000e+00, 5.0000000000, 8.0000000000, 0.0585018167
          15, -0.0807191518, 0.0124755438, 0.0000238846, -99.7111858033, 1.0008682858, 48.0970564403, 48.2476068023, 0.0000000626, -0.0000375039, 54.1968862958, 53.9442839657, 0.1946589720, 0.1941647407, 0.0000000000, 0.0000000000, -0.2068123564, -0.0109473891, -0.0000088117, -150.4260189601, 1.0019362147, -0.0002978748, -0.0000015680, -0.0002978748, -0.0000015680, 53.8518248967, 53.2643355582, 0.1290396258, 0.1273858975, 0.0000000000, 0.0000000000, 0.0000000000, 0.0000000000, 0.0000150728, 0.0000000000, 0.9983011856, 0.0000000000, 0.0000000000, 0.0000000000, 0.0000000000, 54.1968862958, 53.2643355582, 0.0000000000, 0.0000000000, 1.0997930348, -0.4134015185, 0.0000000000, 0.0000000000, 0.0000150728, 0.0000000000, 0.9983011856, 0.0000000000, 0.0000000000, 0.0000000000, 0.0000000000, 54.1968862958, 53.2643355582, 0.0000000000, 0.0000000000, 1.0997930348, -0.4134015185, -4.05533356e+00, -1.58485563e+00, -3.08888945e+00, 1.38716762e+00, 0.00000000e+00, 5.0000000000, 8.0000000000, 0.0622940833
          16, -0.1092699057, 0.0125526471, 0.0000239990, -122.5326980724, 1.0011418555, 48.0970564501, 48.2915560309, 0.0000000588, -0.0000528669, 54.1968475050, 53.8729127893, 0.1946589023, 0.1940231864, 0.0000000000, 0.0000000000, -0.1712108269, -0.0121553995, -0.0000097724, -125.6872962374, 1.0016511603, -0.0003478577, 0.0000093979, -0.0003478577, 0.0000093979, 53.7724582306, 53.2643260278, 0.1288137948, 0.1273858824, 0.0000000000, 0.0000000000, 0.0000000000, 0.0000000000, 0.0000142267, 0.0000000000, 0.9988838851, 0.0000000000, 0.0000000000, 0.0000000000, 0.0000000000, 54.1968475050, 53.2643260278, 0.0000000000, 0.0000000000, 1.0992656782, -0.4132177030, 0.0000000000, 0.0000000000, 0.0000142267, 0.0000000000, 0.9988838851, 0.0000000000, 0.0000000000, 0.0000000000, 0.0000000000, 54.1968475050, 53.2643260278, 0.0000000000, 0.0000000000, 1.0992656782, -0.4132177030, -4.11641927e+00, -1.64985992e+00, -3.13337222e+00, 1.32646786e+00, 0.00000000e+00, 5.0000000000, 8.0000000000, 0.0661436333
          17, -0.1429192892, 0.0126629026, 0.0000241755, -147.8873230272, 1.0014451634, 48.0970564596, 48.3376011305, 0.0000000554, -0.0000711328, 54.1968012320, 53.7988391408, 0.1946588192, 0.1938747158, 0.0000000000, 0.0000000000, -0.1365245000, -0.0130805368, -0.0000105065, -100.3998703743, 1.0013564298, -0.0003880222, 0.0000164450, -0.0003880222, 0.0000164450, 53.6940345236, 53.2643353731, 0.1285892431, 0.1273859183, 0.0000000000, 0.0000000000, 0.0000000000, 0.0000000000, 0.0000136690, 0.0000000000, 0.9995278260, 0.0000000000, 0.0000000000, 0.0000000000, 0.0000000000, 54.1968012320, 53.2643353731, 0.0000000000, 0.0000000000, 1.0987139222, -0.4130287330, 0.0000000000, 0.0000000000, 0.0000136690, 0.0000000000, 0.9995278260, 0.0000000000, 0.0000000000, 0.0000000000, 0.0000000000, 54.1968012320, 53.2643353731, 0.0000000000, 0.0000000000, 1.0987139222, -0.4130287330, -4.18230031e+00, -1.72503882e+00, -3.17731053e+00, 1.26127216e+00, 0.00000000e+00, 5.0000000000, 8.0000000000, 0.0696958000
          18, -0.1813657759, 0.0128036590, 0.0000244109, -175.0106144111, 1.0017690485, 48.0970564686, 48.3827484178, 0.0000000522, -0.0000941609, 54.1967501392, 53.7272800026, 0.1946587275, 0.1937286899, 0.0000000000, 0.0000000000, -0.1038580561, -0.0136940394, -0.0000109927, -75.4238347862, 1.0010621004, -0.0004157850, 0.0000196530, -0.0004157850, 0.0000196530, 53.6214972683, 53.2643739620, 0.1283791690, 0.1273860283, 0.0000000000, 0.0000000000, 0.0000000000, 0.0000000000, 0.0000134182, 0.0000000000, 1.0002122986, 0.0000000000, 0.0000000000, 0.0000000000, 0.0000000000, 54.1967501392, 53.2643739620, 0.0000000000, 0.0000000000, 1.0981522176, -0.4128395767, 0.0000000000, 0.0000000000, 0.0000134182, 0.0000000000, 1.0002122986, 0.0000000000, 0.0000000000, 0.0000000000, 0.0000000000, 54.1967501392, 53.2643739620, 0.0000000000, 0.0000000000, 1.0981522176, -0.4128395767, -4.25149439e+00, -1.81426148e+00, -3.21934616e+00, 1.19331021e+00, 0.00000000e+00, 5.0000000000, 8.0000000000, 0.0732579333
          19, -0.2241778368, 0.0129642874, 0.0000246871, -203.1426461000, 1.0021046093, 48.0970564769, 48.4238182599, 0.0000000493, -0.0001251877, 54.1966964630, 53.6637873323, 0.1946586311, 0.1935949396, 0.0000000000, 0.0000000000, -0.0738054311, -0.0140078290, -0.0000112411, -51.3697774118, 1.0007756727, -0.0004308496, 0.0000190860, -0.0004308496, 0.0000190860, 53.5595223547, 53.2644555728, 0.1281958123, 0.1273862419, 0.0000000000, 0.0000000000, 0.0000000000, 0.0000000000, 0.0000134460, 0.0000000000, 1.0009169400, 0.0000000000, 0.0000000000, 0.0000000000, 0.0000000000, 54.1966964630, 53.2644555728, 0.0000000000, 0.0000000000, 1.0975938446, -0.4126587260, 0.0000000000, 0.0000000000, 0.0000134460, 0.0000000000, 1.0009169400, 0.0000000000, 0.0000000000, 0.0000000000, 0.0000000000, 54.1966964630, 53.2644555728, 0.0000000000, 0.0000000000, 1.0975938446, -0.4126587260, -4.32065572e+00, -1.92393401e+00, -3.25384860e+00, 1.12634478e+00, 0.00000000e+00, 5.0000000000, 8.0000000000, 0.0769278500
          20, -0.2709432824, 0.0131282717, 0.0000249745, -231.6662214658, 1.0024448173, 48.0970564839, 48.4578231155, 0.0000000465, -0.0001688200, 54.1966420531, 53.6136112120, 0.1946585334, 0.1934825866, 0.0000000000, 0.0000000000, -0.0464592231, -0.0140697320, -0.0000112902, -28.5054488684, 1.0005008973, -0.0004354432, 0.0000148989, -0.0004354432, 0.0000148989, 53.5120949503, 53.2646065059, 0.1280492942, 0.1273866164, 0.0000000000, 0.0000000000, 0.0000000000, 0.0000000000, 0.0000136843, 0.0000000000, 1.0016252667, 0.0000000000, 0.0000000000, 0.0000000000, 0.0000000000, 54.1966420531, 53.2646065059, 0.0000000000, 0.0000000000, 1.0970508923, -0.4124987213, 0.0000000000, 0.0000000000, 0.0000136843, 0.0000000000, 1.0016252667, 0.0000000000, 0.0000000000, 0.0000000000, 0.0000000000, 54.1966420531, 53.2646065059, 0.0000000000, 0.0000000000, 1.0970508923, -0.4124987213, -4.38336441e+00, -2.06316565e+00, -3.27199487e+00, 1.06735339e+00, 0.00000000e+00, 5.0000000000, 8.0000000000, 0.0804163000
          21, -0.3214426683, 0.0132768626, 0.0000252392, -260.2000299956, 1.0027855480, 48.0970564895, 48.4822896465, 0.0000000439, -0.0002298691, 54.1965884160, 53.5811518706, 0.1946584371, 0.1933990778, 0.0000000000, 0.0000000000, -0.0214991235, -0.0139519988, -0.0000111971, -6.7340242281, 1.0002373951, -0.0004341281, 0.0000073827, -0.0004341281, 0.0000073827, 53.4822421481, 53.2648766440, 0.1279469280, 0.1273872637, 0.0000000000, 0.0000000000, 0.0000000000, 0.0000000000, 0.0000140421, 0.0000000000, 1.0023269931, 0.0000000000, 0.0000000000, 0.0000000000, 0.0000000000, 54.1965884160, 53.2648766440, 0.0000000000, 0.0000000000, 1.0965341186, -0.4123772041, 0.0000000000, 0.0000000000, 0.0000140421, 0.0000000000, 1.0023269931, 0.0000000000, 0.0000000000, 0.0000000000, 0.0000000000, 54.1965884160, 53.2648766440, 0.0000000000, 0.0000000000, 1.0965341186, -0.4123772041, -4.42994526e+00, -2.23150979e+00, -3.26807476e+00, 1.02637150e+00, 0.00000000e+00, 5.0000000000, 8.0000000000, 0.0840710167
          22, -0.3758229401, 0.0133923113, 0.0000254486, -288.6346893890, 1.0031259370, 48.0970564935, 48.4954897507, 0.0000000414, -0.0003122733, 54.1965367512, 53.5695581134, 0.1946583443, 0.1933495265, 0.0000000000, 0.0000000000, 0.0016736147, -0.0137370220, -0.0000110271, 14.3572732745, 0.9999810954, -0.0004325622, -0.0000030260, -0.0004325622, -0.0000030260, 53.4719255045, 53.2653531725, 0.1278930087, 0.1273883817, 0.0000000000, 0.0000000000, 0.0000000000, 0.0000000000, 0.0000144215, 0.0000000000, 1.0030189210, 0.0000000000, 0.0000000000, 0.0000000000, 0.0000000000, 54.1965367512, 53.2653531725, 0.0000000000, 0.0000000000, 1.0960526938, -0.4123186573, 0.0000000000, 0.0000000000, 0.0000144215, 0.0000000000, 1.0030189210, 0.0000000000, 0.0000000000, 0.0000000000, 0.0000000000, 54.1965367512, 53.2653531725, 0.0000000000, 0.0000000000, 1.0960526938, -0.4123186573, -4.45043608e+00, -2.32335338e+00, -3.24493345e+00, 1.01286921e+00, 0.00000000e+00, 5.0000000000, 8.0000000000, 0.0875863833
          23, -0.4347204310, 0.0134604320, 0.0000255764, -317.1047171632, 1.0034679783, 48.0970564958, 48.4965427751, 0.0000000388, -0.0004181840, 54.1964879856, 53.5805341972, 0.1946582567, 0.1933364579, 0.0000000000, 0.0000000000, 0.0237838489, -0.0135035749, -0.0000108425, 35.3949190244, 0.9997253224, -0.0004365827, -0.0000157547, -0.0004365827, -0.0000157547, 53.4820669291, 53.2661780054, 0.1278889981, 0.1273902957, 0.0000000000, 0.0000000000, 0.0000000000, 0.0000000000, 0.0000147338, 0.0000000000, 1.0037042102, 0.0000000000, 0.0000000000, 0.0000000000, 0.0000000000, 54.1964879856, 53.2661780054, 0.0000000000, 0.0000000000, 1.0956139827, -0.4123568559, 0.0000000000, 0.0000000000, 0.0000147338, 0.0000000000, 1.0037042102, 0.0000000000, 0.0000000000, 0.0000000000, 0.0000000000, 54.1964879856, 53.2661780054, 0.0000000000, 0.0000000000, 1.0956139827, -0.4123568559, -4.44042330e+00, -2.19203083e+00, -3.21095192e+00, 1.02983158e+00, 0.00000000e+00, 5.0000000000, 8.0000000000, 0.0913573833
          24, -0.4993049935, 0.0134720999, 0.0000256051, -345.9102241340, 1.0038155435, 48.0970564964, 48.4853949647, 0.0000000362, -0.0005470591, 54.1964428058, 53.6143470155, 0.1946581756, 0.1933599247, 0.0000000000, 0.0000000000, 0.0455350274, -0.0133160507, -0.0000106945, 57.0886988596, 0.9994622502, -0.0004518022, -0.0000301451, -0.0004518022, -0.0000301451, 53.5126589696, 53.2675696759, 0.1279339526, 0.1273935089, 0.0000000000, 0.0000000000, 0.0000000000, 0.0000000000, 0.0000149106, 0.0000000000, 1.0043903879, 0.0000000000, 0.0000000000, 0.0000000000, 0.0000000000, 54.1964428058, 53.2675696759, 0.0000000000, 0.0000000000, 1.0952233603, -0.4125378198, 0.0000000000, 0.0000000000, 0.0000149106, 0.0000000000, 1.0043903879, 0.0000000000, 0.0000000000, 0.0000000000, 0.0000000000, 54.1964428058, 53.2675696759, 0.0000000000, 0.0000000000, 1.0952233603, -0.4125378198, -4.40387381e+00, -2.01537167e+00, -3.17365955e+00, 1.07199134e+00, 0.00000000e+00, 5.0000000000, 8.0000000000, 0.0953950000
          25, -0.5712481991, 0.0134235257, 0.0000255268, -375.4133010796, 1.0041731237, 48.0970564957, 48.4627060869, 0.0000000336, -0.0006947962, 54.1964016883, 53.6699883106, 0.1946581017, 0.1934178877, 0.0000000000, 0.0000000000, 0.0674868502, -0.0132176321, -0.0000106174, 80.1005520187, 0.9991844067, -0.0004827114, -0.0000455095, -0.0004827114, -0.0000455095, 53.5629130921, 53.2698496508, 0.1280250486, 0.1273987652, 0.0000000000, 0.0000000000, 0.0000000000, 0.0000000000, 0.0000149094, 0.0000000000, 1.0050867320, 0.0000000000, 0.0000000000, 0.0000000000, 0.0000000000, 54.1964016883, 53.2698496508, 0.0000000000, 0.0000000000, 1.0948839940, -0.4129228508, 0.0000000000, 0.0000000000, 0.0000149094, 0.0000000000, 1.0050867320, 0.0000000000, 0.0000000000, 0.0000000000, 0.0000000000, 54.1964016883, 53.2698496508, 0.0000000000, 0.0000000000, 1.0948839940, -0.4129228508, -4.34960176e+00, -1.87140878e+00, -3.13730604e+00, 1.13015581e+00, 0.00000000e+00, 5.0000000000, 8.0000000000, 0.0990730833
          26, -0.6526432561, 0.0133155812, 0.0000253420, -405.9358352344, 1.0045446111, 48.0970564937, 48.4296818207, 0.0000000308, -0.0008531451, 54.1963649290, 53.7454331261, 0.1946580357, 0.1935067402, 0.0000000000, 0.0000000000, 0.0899745379, -0.0132276162, -0.0000106267, 104.9353556430, 0.9988859561, -0.0005318706, -0.0000611720, -0.0005318706, -0.0000611720, 53.6314129669, 53.2734719124, 0.1281580960, 0.1274071187, 0.0000000000, 0.0000000000, 0.0000000000, 0.0000000000, 0.0000147153, 0.0000000000, 1.0058016962, 0.0000000000, 0.0000000000, 0.0000000000, 0.0000000000, 54.1963649290, 53.2734719124, 0.0000000000, 0.0000000000, 1.0945964877, -0.4135911121, 0.0000000000, 0.0000000000, 0.0000147153, 0.0000000000, 1.0058016962, 0.0000000000, 0.0000000000, 0.0000000000, 0.0000000000, 54.1963649290, 53.2734719124, 0.0000000000, 0.0000000000, 1.0945964877, -0.4135911121, -4.28635920e+00, -1.75660405e+00, -3.10362256e+00, 1.19584987e+00, 0.00000000e+00, 5.0000000000, 8.0000000000, 0.1028410333
          27, -0.7459128495, 0.0131526437, 0.0000250575, -437.6799332604, 1.0049323654, 48.0970564908, 48.3878883184, 0.0000000280, -0.0010097217, 54.1963326702, 53.8379384055, 0.1946579778, 0.1936218676, 0.0000000000, 0.0000000000, 0.1130792801, -0.0133422755, -0.0000107197, 131.8682573883, 0.9985635798, -0.0005992433, -0.0000765005, -0.0005992433, -0.0000765005, 53.7162548123, 53.2790532964, 0.1283279775, 0.1274200067, 0.0000000000, 0.0000000000, 0.0000000000, 0.0000000000, 0.0000143378, 0.0000000000, 1.0065408931, 0.0000000000, 0.0000000000, 0.0000000000, 0.0000000000, 54.1963326702, 53.2790532964, 0.0000000000, 0.0000000000, 1.0943582972, -0.4146410951, 0.0000000000, 0.0000000000, 0.0000143378, 0.0000000000, 1.0065408931, 0.0000000000, 0.0000000000, 0.0000000000, 0.0000000000, 54.1963326702, 53.2790532964, 0.0000000000, 0.0000000000, 1.0943582972, -0.4146410951, -4.22063391e+00, -1.66238164e+00, -3.07308196e+00, 1.26302983e+00, 0.00000000e+00, 5.0000000000, 8.0000000000, 0.1068093667