/*--------------------------------*- C++ -*----------------------------------*\
  =========                 |
  \\      /  F ield         | OpenFOAM: The Open Source CFD Toolbox
   \\    /   O peration     | Website:  https://openfoam.org
    \\  /    A nd           | Version:  6
     \\/     M anipulation  |
\*---------------------------------------------------------------------------*/
FoamFile
{
    version     2.0;
    format      ascii;
    class       volScalarField;
    location    "200";
    object      p;
}
// * * * * * * * * * * * * * * * * * * * * * * * * * * * * * * * * * * * * * //

dimensions      [0 2 -2 0 0 0 0];

internalField   nonuniform List<scalar> 
4000
(
2.50006e-09
2.50075e-09
2.53358e-09
2.55326e-09
2.56315e-09
2.57721e-09
2.59234e-09
2.59019e-09
2.59703e-09
2.60888e-09
2.59976e-09
2.60262e-09
2.62083e-09
2.63602e-09
2.64907e-09
2.65573e-09
2.66043e-09
2.66951e-09
2.66794e-09
2.68783e-09
2.68973e-09
2.69585e-09
2.71092e-09
2.7311e-09
2.74742e-09
2.75641e-09
2.76792e-09
2.78958e-09
2.81505e-09
2.82801e-09
2.85653e-09
2.88124e-09
2.89461e-09
2.89576e-09
2.91569e-09
2.91494e-09
2.90656e-09
2.90894e-09
2.92519e-09
2.91596e-09
2.91488e-09
2.92392e-09
2.93194e-09
2.93772e-09
2.93385e-09
2.95299e-09
2.95686e-09
2.96207e-09
2.97235e-09
2.97988e-09
2.99617e-09
2.98954e-09
2.97994e-09
2.96887e-09
2.95984e-09
2.95809e-09
2.94636e-09
2.91729e-09
2.88664e-09
2.86577e-09
2.85156e-09
2.83527e-09
2.82537e-09
2.81343e-09
2.80547e-09
2.80022e-09
2.77711e-09
2.76623e-09
2.75973e-09
2.74934e-09
2.722e-09
2.69263e-09
2.67973e-09
2.66541e-09
2.64877e-09
2.6427e-09
2.63379e-09
2.63013e-09
2.62932e-09
2.62964e-09
2.62909e-09
2.62372e-09
2.6296e-09
2.64009e-09
2.64408e-09
2.63658e-09
2.63571e-09
2.63134e-09
2.62496e-09
2.62522e-09
2.62441e-09
2.62193e-09
2.61984e-09
2.59618e-09
2.57884e-09
2.56617e-09
2.55859e-09
2.56234e-09
2.56772e-09
2.59336e-09
2.60472e-09
2.60978e-09
2.61723e-09
2.63567e-09
2.66819e-09
2.69145e-09
2.68257e-09
2.67356e-09
2.67881e-09
2.68107e-09
2.66285e-09
2.65185e-09
2.65119e-09
2.63993e-09
2.61244e-09
2.59126e-09
2.58092e-09
2.56123e-09
2.54044e-09
2.5178e-09
2.51071e-09
2.50391e-09
2.49593e-09
2.47314e-09
2.43868e-09
2.41468e-09
2.38023e-09
2.34159e-09
2.29535e-09
2.24215e-09
2.20873e-09
2.19071e-09
2.157e-09
2.12804e-09
2.0907e-09
2.05511e-09
2.02e-09
1.98215e-09
1.94901e-09
1.91279e-09
1.88097e-09
1.84999e-09
1.81419e-09
1.77596e-09
1.74399e-09
1.70547e-09
1.66214e-09
1.62044e-09
1.5658e-09
1.52094e-09
1.47684e-09
1.42313e-09
1.37122e-09
1.32029e-09
1.27698e-09
1.22503e-09
1.17374e-09
1.12978e-09
1.09244e-09
1.06308e-09
1.02192e-09
9.84728e-10
9.69597e-10
9.54869e-10
9.36171e-10
9.04343e-10
8.95831e-10
8.98995e-10
8.80454e-10
8.72358e-10
8.55176e-10
8.18139e-10
7.84349e-10
7.61741e-10
7.3418e-10
7.02086e-10
6.77737e-10
6.61968e-10
6.34045e-10
6.115e-10
5.65647e-10
5.08343e-10
4.55626e-10
4.08996e-10
3.71449e-10
3.26364e-10
2.90667e-10
2.60093e-10
2.2541e-10
1.79911e-10
1.57131e-10
1.26635e-10
9.71779e-11
8.36751e-11
7.44856e-11
5.40109e-11
5.58449e-11
4.91047e-11
2.53736e-11
7.63949e-12
2.48799e-09
2.50222e-09
2.52918e-09
2.54021e-09
2.55277e-09
2.56438e-09
2.58049e-09
2.58861e-09
2.60495e-09
2.62166e-09
2.59976e-09
2.62311e-09
2.64844e-09
2.65422e-09
2.65078e-09
2.65079e-09
2.66499e-09
2.6815e-09
2.66578e-09
2.67565e-09
2.68987e-09
2.693e-09
2.7103e-09
2.73061e-09
2.74136e-09
2.74617e-09
2.75869e-09
2.79435e-09
2.81531e-09
2.82556e-09
2.85967e-09
2.87772e-09
2.89263e-09
2.92315e-09
2.92319e-09
2.91908e-09
2.92404e-09
2.92183e-09
2.92503e-09
2.9216e-09
2.90973e-09
2.90878e-09
2.91839e-09
2.9232e-09
2.93183e-09
2.94303e-09
2.959e-09
2.96925e-09
2.97586e-09
2.98424e-09
2.99528e-09
2.99481e-09
2.97905e-09
2.974e-09
2.9684e-09
2.9556e-09
2.93717e-09
2.92039e-09
2.88865e-09
2.86642e-09
2.84923e-09
2.83734e-09
2.82447e-09
2.813e-09
2.80475e-09
2.79257e-09
2.78797e-09
2.76808e-09
2.75487e-09
2.74623e-09
2.71759e-09
2.6943e-09
2.67953e-09
2.66047e-09
2.65275e-09
2.64206e-09
2.62806e-09
2.61038e-09
2.62777e-09
2.63358e-09
2.6317e-09
2.62296e-09
2.63044e-09
2.63388e-09
2.63636e-09
2.63273e-09
2.63642e-09
2.63065e-09
2.63554e-09
2.63715e-09
2.63379e-09
2.63252e-09
2.62496e-09
2.60732e-09
2.57708e-09
2.5622e-09
2.55344e-09
2.55808e-09
2.57377e-09
2.58906e-09
2.60223e-09
2.61858e-09
2.62225e-09
2.63575e-09
2.65802e-09
2.68212e-09
2.6823e-09
2.67318e-09
2.67242e-09
2.6762e-09
2.66861e-09
2.65527e-09
2.65358e-09
2.63829e-09
2.61242e-09
2.59501e-09
2.57944e-09
2.55488e-09
2.53107e-09
2.515e-09
2.52489e-09
2.51965e-09
2.50696e-09
2.48271e-09
2.43743e-09
2.4043e-09
2.37199e-09
2.32382e-09
2.28598e-09
2.23279e-09
2.19547e-09
2.17768e-09
2.14846e-09
2.11453e-09
2.08272e-09
2.05749e-09
2.01915e-09
1.97877e-09
1.94573e-09
1.91351e-09
1.87991e-09
1.85203e-09
1.81755e-09
1.77934e-09
1.73453e-09
1.68377e-09
1.64052e-09
1.59788e-09
1.5506e-09
1.50963e-09
1.45647e-09
1.40842e-09
1.35042e-09
1.30769e-09
1.25864e-09
1.21585e-09
1.17045e-09
1.13311e-09
1.0967e-09
1.06263e-09
1.02269e-09
9.81049e-10
9.61421e-10
9.48873e-10
9.26633e-10
8.924e-10
8.89929e-10
9.0041e-10
8.97254e-10
8.85728e-10
8.63024e-10
8.26997e-10
7.97187e-10
7.6277e-10
7.27925e-10
7.02436e-10
6.73088e-10
6.59973e-10
6.37877e-10
6.08185e-10
5.62804e-10
5.06262e-10
4.63809e-10
4.15709e-10
3.67013e-10
3.26907e-10
2.98486e-10
2.70235e-10
2.32701e-10
1.83582e-10
1.58519e-10
1.29425e-10
1.05663e-10
8.82256e-11
6.96039e-11
5.06891e-11
4.98258e-11
4.55768e-11
2.52965e-11
6.48205e-12
2.49155e-09
2.49666e-09
2.52221e-09
2.54127e-09
2.53886e-09
2.54606e-09
2.56947e-09
2.58286e-09
2.60219e-09
2.61328e-09
2.61963e-09
2.63913e-09
2.65009e-09
2.65088e-09
2.64985e-09
2.65259e-09
2.66263e-09
2.67131e-09
2.67304e-09
2.6859e-09
2.69183e-09
2.7094e-09
2.72921e-09
2.72808e-09
2.74317e-09
2.75106e-09
2.76232e-09
2.79504e-09
2.81699e-09
2.82834e-09
2.86615e-09
2.87512e-09
2.89838e-09
2.91894e-09
2.94329e-09
2.93954e-09
2.94024e-09
2.9382e-09
2.93342e-09
2.91281e-09
2.89588e-09
2.89753e-09
2.91262e-09
2.9132e-09
2.93282e-09
2.93656e-09
2.95746e-09
2.96895e-09
2.98125e-09
2.99077e-09
2.98639e-09
2.98174e-09
2.97833e-09
2.98007e-09
2.97341e-09
2.95272e-09
2.93613e-09
2.91279e-09
2.88616e-09
2.86534e-09
2.85402e-09
2.85118e-09
2.82984e-09
2.81094e-09
2.80362e-09
2.79609e-09
2.78663e-09
2.7703e-09
2.75601e-09
2.73454e-09
2.71095e-09
2.69509e-09
2.68044e-09
2.66325e-09
2.65631e-09
2.64413e-09
2.63598e-09
2.6184e-09
2.62671e-09
2.63602e-09
2.6283e-09
2.62345e-09
2.64528e-09
2.62811e-09
2.63468e-09
2.63811e-09
2.63569e-09
2.64196e-09
2.63225e-09
2.63929e-09
2.64451e-09
2.63064e-09
2.63579e-09
2.59886e-09
2.57378e-09
2.55557e-09
2.53691e-09
2.56176e-09
2.57649e-09
2.5926e-09
2.60755e-09
2.6263e-09
2.63975e-09
2.63243e-09
2.64607e-09
2.67539e-09
2.67512e-09
2.66987e-09
2.65994e-09
2.67246e-09
2.67805e-09
2.65715e-09
2.65084e-09
2.62971e-09
2.61387e-09
2.59521e-09
2.57138e-09
2.54066e-09
2.51636e-09
2.52799e-09
2.54058e-09
2.5355e-09
2.52003e-09
2.49476e-09
2.44637e-09
2.41059e-09
2.36663e-09
2.31955e-09
2.27199e-09
2.22655e-09
2.19439e-09
2.16085e-09
2.14075e-09
2.11185e-09
2.07793e-09
2.05361e-09
2.0334e-09
1.99491e-09
1.95637e-09
1.92193e-09
1.89221e-09
1.86127e-09
1.82088e-09
1.78002e-09
1.73059e-09
1.67481e-09
1.63189e-09
1.58268e-09
1.5326e-09
1.49506e-09
1.43844e-09
1.39299e-09
1.34216e-09
1.29695e-09
1.25318e-09
1.21148e-09
1.17265e-09
1.13424e-09
1.09678e-09
1.0662e-09
1.03509e-09
9.81642e-10
9.49124e-10
9.32235e-10
9.1231e-10
8.8862e-10
8.89004e-10
8.99436e-10
8.88937e-10
8.83545e-10
8.69906e-10
8.38105e-10
8.02218e-10
7.65972e-10
7.28438e-10
7.03201e-10
6.69543e-10
6.56122e-10
6.27162e-10
5.85966e-10
5.50737e-10
5.02566e-10
4.61501e-10
4.22922e-10
3.71316e-10
3.26799e-10
2.93859e-10
2.64843e-10
2.25782e-10
1.83586e-10
1.5184e-10
1.19302e-10
9.83261e-11
8.25904e-11
6.18583e-11
5.68586e-11
5.84035e-11
3.48607e-11
1.41019e-11
4.04842e-12
2.49343e-09
2.49839e-09
2.51376e-09
2.53325e-09
2.53735e-09
2.54507e-09
2.57064e-09
2.58813e-09
2.60628e-09
2.61892e-09
2.6267e-09
2.6446e-09
2.66116e-09
2.65249e-09
2.64914e-09
2.64801e-09
2.66631e-09
2.66713e-09
2.67212e-09
2.69546e-09
2.71145e-09
2.72762e-09
2.73825e-09
2.73144e-09
2.7509e-09
2.74883e-09
2.76563e-09
2.79631e-09
2.81307e-09
2.81999e-09
2.85895e-09
2.88942e-09
2.90676e-09
2.92495e-09
2.96783e-09
2.96535e-09
2.95507e-09
2.96019e-09
2.9514e-09
2.92471e-09
2.89957e-09
2.88867e-09
2.91097e-09
2.90686e-09
2.9326e-09
2.94632e-09
2.95271e-09
2.96869e-09
2.98779e-09
2.99793e-09
2.98159e-09
2.97918e-09
2.96965e-09
2.9851e-09
2.97637e-09
2.95829e-09
2.94227e-09
2.90678e-09
2.89084e-09
2.86649e-09
2.85259e-09
2.8513e-09
2.82614e-09
2.80842e-09
2.8072e-09
2.80478e-09
2.7923e-09
2.77243e-09
2.75675e-09
2.73214e-09
2.71275e-09
2.69554e-09
2.68259e-09
2.6688e-09
2.66148e-09
2.65209e-09
2.64535e-09
2.62837e-09
2.63871e-09
2.63383e-09
2.62094e-09
2.63536e-09
2.64912e-09
2.63767e-09
2.63091e-09
2.62854e-09
2.62782e-09
2.633e-09
2.62619e-09
2.63706e-09
2.63934e-09
2.63359e-09
2.62082e-09
2.59282e-09
2.56294e-09
2.5472e-09
2.53775e-09
2.54947e-09
2.57411e-09
2.59457e-09
2.61429e-09
2.63346e-09
2.63729e-09
2.62628e-09
2.64372e-09
2.66547e-09
2.66484e-09
2.66365e-09
2.65383e-09
2.65977e-09
2.66881e-09
2.65724e-09
2.64078e-09
2.62455e-09
2.61729e-09
2.58467e-09
2.55879e-09
2.54283e-09
2.5143e-09
2.52289e-09
2.54276e-09
2.53822e-09
2.51358e-09
2.49925e-09
2.45657e-09
2.41303e-09
2.36351e-09
2.31738e-09
2.26558e-09
2.22453e-09
2.1918e-09
2.15678e-09
2.13071e-09
2.09206e-09
2.05886e-09
2.04353e-09
2.03306e-09
2.0087e-09
1.96035e-09
1.92313e-09
1.89189e-09
1.87271e-09
1.82493e-09
1.78543e-09
1.72878e-09
1.68423e-09
1.63787e-09
1.57997e-09
1.52413e-09
1.47772e-09
1.42879e-09
1.38572e-09
1.33032e-09
1.28458e-09
1.24078e-09
1.20119e-09
1.16859e-09
1.13742e-09
1.09911e-09
1.05733e-09
1.01895e-09
9.76393e-10
9.44116e-10
9.28963e-10
9.10302e-10
9.0606e-10
8.91554e-10
8.89052e-10
8.82966e-10
8.69109e-10
8.61012e-10
8.37298e-10
7.96894e-10
7.66354e-10
7.28496e-10
7.05425e-10
6.75832e-10
6.49025e-10
6.13105e-10
5.81341e-10
5.52092e-10
5.12335e-10
4.72903e-10
4.30803e-10
3.80938e-10
3.37499e-10
2.98062e-10
2.66092e-10
2.23123e-10
1.82179e-10
1.47743e-10
1.21321e-10
1.06675e-10
8.77468e-11
7.77903e-11
7.41167e-11
5.75206e-11
4.4865e-11
3.15809e-11
1.57152e-11
2.48866e-09
2.48977e-09
2.50388e-09
2.52348e-09
2.54477e-09
2.55429e-09
2.57594e-09
2.58991e-09
2.6095e-09
2.6284e-09
2.63135e-09
2.64373e-09
2.66091e-09
2.64816e-09
2.64231e-09
2.65746e-09
2.66461e-09
2.66472e-09
2.67758e-09
2.70475e-09
2.73204e-09
2.73567e-09
2.75418e-09
2.75752e-09
2.76644e-09
2.77063e-09
2.76996e-09
2.7884e-09
2.8086e-09
2.82149e-09
2.85215e-09
2.88869e-09
2.91374e-09
2.93591e-09
2.96402e-09
2.97433e-09
2.96631e-09
2.97142e-09
2.96096e-09
2.92576e-09
2.90158e-09
2.89898e-09
2.91033e-09
2.91163e-09
2.92703e-09
2.94174e-09
2.95205e-09
2.96175e-09
2.9814e-09
3.00013e-09
2.9812e-09
2.97806e-09
2.9818e-09
2.98834e-09
2.98346e-09
2.96729e-09
2.94004e-09
2.91848e-09
2.89672e-09
2.86409e-09
2.85214e-09
2.86032e-09
2.83647e-09
2.81578e-09
2.81686e-09
2.81257e-09
2.80991e-09
2.77698e-09
2.75524e-09
2.73136e-09
2.70904e-09
2.7011e-09
2.69368e-09
2.68837e-09
2.67017e-09
2.6557e-09
2.64437e-09
2.6324e-09
2.62612e-09
2.6394e-09
2.6462e-09
2.63803e-09
2.63712e-09
2.63001e-09
2.63906e-09
2.62971e-09
2.62655e-09
2.61839e-09
2.62334e-09
2.6413e-09
2.62934e-09
2.61354e-09
2.61245e-09
2.58172e-09
2.5529e-09
2.54028e-09
2.55044e-09
2.55606e-09
2.57677e-09
2.60023e-09
2.62117e-09
2.63663e-09
2.64093e-09
2.63013e-09
2.64829e-09
2.66766e-09
2.65487e-09
2.63195e-09
2.64677e-09
2.66272e-09
2.65361e-09
2.63987e-09
2.61977e-09
2.61716e-09
2.6076e-09
2.58286e-09
2.56725e-09
2.55201e-09
2.53105e-09
2.5412e-09
2.54696e-09
2.53518e-09
2.51925e-09
2.51004e-09
2.46528e-09
2.41464e-09
2.36668e-09
2.32482e-09
2.27221e-09
2.22964e-09
2.19194e-09
2.15261e-09
2.11629e-09
2.08316e-09
2.05907e-09
2.03847e-09
2.0176e-09
1.99042e-09
1.95978e-09
1.92303e-09
1.89252e-09
1.87627e-09
1.84085e-09
1.79177e-09
1.74448e-09
1.69578e-09
1.65204e-09
1.59074e-09
1.53011e-09
1.47764e-09
1.43523e-09
1.38696e-09
1.32168e-09
1.27242e-09
1.23339e-09
1.19409e-09
1.1563e-09
1.13125e-09
1.09892e-09
1.06398e-09
1.01589e-09
9.73042e-10
9.45523e-10
9.29412e-10
9.12459e-10
9.02654e-10
8.93807e-10
8.84984e-10
8.72333e-10
8.66479e-10
8.47784e-10
8.15443e-10
7.84879e-10
7.58552e-10
7.30879e-10
6.9518e-10
6.65835e-10
6.43697e-10
6.03573e-10
5.77195e-10
5.31734e-10
5.00994e-10
4.68305e-10
4.325e-10
3.94245e-10
3.36861e-10
3.03112e-10
2.70736e-10
2.29581e-10
1.79994e-10
1.36841e-10
1.18807e-10
1.11418e-10
9.85376e-11
8.94972e-11
6.57003e-11
5.21252e-11
5.3916e-11
3.86374e-11
2.31459e-11
2.48263e-09
2.49417e-09
2.51623e-09
2.52377e-09
2.55069e-09
2.57403e-09
2.58842e-09
2.59598e-09
2.61944e-09
2.63175e-09
2.63257e-09
2.64767e-09
2.65126e-09
2.64519e-09
2.65067e-09
2.66778e-09
2.67236e-09
2.68308e-09
2.69399e-09
2.70896e-09
2.73364e-09
2.74662e-09
2.76001e-09
2.76683e-09
2.76811e-09
2.76629e-09
2.778e-09
2.79548e-09
2.81628e-09
2.83724e-09
2.86998e-09
2.90283e-09
2.92219e-09
2.93446e-09
2.95046e-09
2.96576e-09
2.96444e-09
2.96048e-09
2.95924e-09
2.94174e-09
2.91389e-09
2.90766e-09
2.92656e-09
2.91147e-09
2.92942e-09
2.94115e-09
2.95123e-09
2.96179e-09
2.97132e-09
2.98415e-09
2.96575e-09
2.9738e-09
2.97553e-09
2.97967e-09
2.97104e-09
2.95015e-09
2.93631e-09
2.92285e-09
2.89966e-09
2.87356e-09
2.85882e-09
2.84831e-09
2.83366e-09
2.81766e-09
2.81812e-09
2.81484e-09
2.80143e-09
2.77801e-09
2.75396e-09
2.72607e-09
2.70339e-09
2.70583e-09
2.69609e-09
2.6896e-09
2.67329e-09
2.66199e-09
2.65077e-09
2.64028e-09
2.64152e-09
2.65593e-09
2.66882e-09
2.64959e-09
2.63091e-09
2.63099e-09
2.62932e-09
2.6278e-09
2.62593e-09
2.61725e-09
2.62231e-09
2.63308e-09
2.61591e-09
2.61103e-09
2.60582e-09
2.5872e-09
2.56476e-09
2.55407e-09
2.55766e-09
2.5568e-09
2.57949e-09
2.59086e-09
2.60714e-09
2.61998e-09
2.63171e-09
2.63951e-09
2.62822e-09
2.6417e-09
2.64147e-09
2.62933e-09
2.64447e-09
2.6605e-09
2.64152e-09
2.63053e-09
2.61737e-09
2.60676e-09
2.60259e-09
2.58955e-09
2.57931e-09
2.5647e-09
2.5507e-09
2.55479e-09
2.5497e-09
2.53958e-09
2.51912e-09
2.49636e-09
2.45302e-09
2.40936e-09
2.36676e-09
2.31415e-09
2.27983e-09
2.23792e-09
2.18384e-09
2.14581e-09
2.11094e-09
2.07714e-09
2.05521e-09
2.03235e-09
2.00308e-09
1.96796e-09
1.95039e-09
1.92623e-09
1.91434e-09
1.8856e-09
1.85081e-09
1.80297e-09
1.75651e-09
1.71335e-09
1.66369e-09
1.59755e-09
1.54001e-09
1.48526e-09
1.43739e-09
1.38973e-09
1.32591e-09
1.27138e-09
1.22992e-09
1.20041e-09
1.16575e-09
1.12456e-09
1.09414e-09
1.05631e-09
1.01023e-09
9.76799e-10
9.54459e-10
9.31133e-10
9.10698e-10
9.05476e-10
8.94262e-10
8.82157e-10
8.65999e-10
8.56287e-10
8.45759e-10
8.05658e-10
7.85069e-10
7.5287e-10
7.23205e-10
6.90405e-10
6.61876e-10
6.30991e-10
5.98403e-10
5.64168e-10
5.20898e-10
4.86987e-10
4.56708e-10
4.23945e-10
3.89848e-10
3.39913e-10
3.06264e-10
2.67386e-10
2.31407e-10
1.74681e-10
1.32323e-10
1.12617e-10
1.08503e-10
9.90925e-11
8.31205e-11
6.92906e-11
5.37615e-11
5.43762e-11
4.05374e-11
1.51821e-11
2.48552e-09
2.49235e-09
2.51833e-09
2.52702e-09
2.54953e-09
2.58405e-09
2.59653e-09
2.60832e-09
2.62668e-09
2.63867e-09
2.62806e-09
2.64854e-09
2.65646e-09
2.65178e-09
2.65737e-09
2.67443e-09
2.69056e-09
2.69988e-09
2.71335e-09
2.72399e-09
2.73616e-09
2.74601e-09
2.75804e-09
2.76677e-09
2.7676e-09
2.76828e-09
2.79089e-09
2.8066e-09
2.82042e-09
2.85411e-09
2.87554e-09
2.90963e-09
2.93128e-09
2.93932e-09
2.94957e-09
2.96115e-09
2.96041e-09
2.95484e-09
2.94698e-09
2.92901e-09
2.90878e-09
2.92403e-09
2.93207e-09
2.92532e-09
2.93098e-09
2.94101e-09
2.9484e-09
2.96246e-09
2.97448e-09
2.98871e-09
2.96389e-09
2.97579e-09
2.96897e-09
2.97182e-09
2.97575e-09
2.94672e-09
2.92354e-09
2.91514e-09
2.90459e-09
2.86993e-09
2.85303e-09
2.85832e-09
2.83401e-09
2.80941e-09
2.8102e-09
2.82143e-09
2.80499e-09
2.77241e-09
2.74237e-09
2.72426e-09
2.70558e-09
2.70664e-09
2.69674e-09
2.68724e-09
2.67773e-09
2.6717e-09
2.66196e-09
2.64906e-09
2.6425e-09
2.6569e-09
2.6718e-09
2.65868e-09
2.64856e-09
2.6335e-09
2.62116e-09
2.62153e-09
2.62977e-09
2.62905e-09
2.62603e-09
2.62184e-09
2.62006e-09
2.61081e-09
2.60794e-09
2.59201e-09
2.57366e-09
2.57213e-09
2.55998e-09
2.56498e-09
2.57963e-09
2.58003e-09
2.59865e-09
2.60713e-09
2.6156e-09
2.6269e-09
2.62969e-09
2.64325e-09
2.63607e-09
2.62714e-09
2.64273e-09
2.64977e-09
2.63157e-09
2.62369e-09
2.62067e-09
2.61618e-09
2.61136e-09
2.60421e-09
2.59809e-09
2.5878e-09
2.57373e-09
2.5639e-09
2.55689e-09
2.54479e-09
2.52266e-09
2.49275e-09
2.44977e-09
2.40424e-09
2.36112e-09
2.31955e-09
2.28148e-09
2.23848e-09
2.18245e-09
2.14988e-09
2.11921e-09
2.08176e-09
2.05186e-09
2.01667e-09
1.98062e-09
1.95688e-09
1.95011e-09
1.93458e-09
1.92422e-09
1.88366e-09
1.85526e-09
1.81768e-09
1.76512e-09
1.71644e-09
1.66495e-09
1.61681e-09
1.55794e-09
1.49431e-09
1.442e-09
1.39231e-09
1.33551e-09
1.28585e-09
1.24285e-09
1.20282e-09
1.16164e-09
1.1267e-09
1.09346e-09
1.05169e-09
1.01874e-09
9.83335e-10
9.62349e-10
9.45437e-10
9.16161e-10
9.04741e-10
8.92307e-10
8.77749e-10
8.57911e-10
8.45795e-10
8.31994e-10
7.99913e-10
7.66124e-10
7.44359e-10
7.21423e-10
6.87947e-10
6.55325e-10
6.20094e-10
5.87191e-10
5.47236e-10
5.12532e-10
4.79027e-10
4.49802e-10
4.18984e-10
3.83137e-10
3.42842e-10
3.01951e-10
2.58303e-10
2.05533e-10
1.64646e-10
1.34839e-10
1.03763e-10
9.50653e-11
8.9476e-11
7.80413e-11
7.77303e-11
6.67599e-11
5.74434e-11
4.15562e-11
1.1936e-11
2.50385e-09
2.50961e-09
2.52332e-09
2.53845e-09
2.56777e-09
2.59015e-09
2.59615e-09
2.61187e-09
2.62986e-09
2.63799e-09
2.62888e-09
2.64943e-09
2.659e-09
2.65004e-09
2.66065e-09
2.67985e-09
2.70258e-09
2.71565e-09
2.72337e-09
2.73888e-09
2.74516e-09
2.74724e-09
2.76232e-09
2.78059e-09
2.77112e-09
2.77055e-09
2.78668e-09
2.81342e-09
2.84028e-09
2.85854e-09
2.87066e-09
2.90149e-09
2.93187e-09
2.95142e-09
2.95327e-09
2.96027e-09
2.95579e-09
2.94941e-09
2.9423e-09
2.91174e-09
2.90845e-09
2.92457e-09
2.93341e-09
2.92821e-09
2.93653e-09
2.94451e-09
2.95768e-09
2.97112e-09
2.97887e-09
2.97572e-09
2.96718e-09
2.96544e-09
2.96502e-09
2.96384e-09
2.95482e-09
2.93893e-09
2.91759e-09
2.90632e-09
2.89021e-09
2.86521e-09
2.84089e-09
2.84494e-09
2.84275e-09
2.82467e-09
2.80939e-09
2.80851e-09
2.79175e-09
2.76462e-09
2.73838e-09
2.71489e-09
2.70875e-09
2.70094e-09
2.70121e-09
2.69414e-09
2.68495e-09
2.68842e-09
2.65925e-09
2.65188e-09
2.65328e-09
2.66266e-09
2.6721e-09
2.66062e-09
2.65622e-09
2.63403e-09
2.62436e-09
2.62299e-09
2.62045e-09
2.62321e-09
2.62183e-09
2.62365e-09
2.61702e-09
2.61278e-09
2.59804e-09
2.57738e-09
2.58161e-09
2.58579e-09
2.56657e-09
2.56291e-09
2.55784e-09
2.57353e-09
2.58879e-09
2.5928e-09
2.59476e-09
2.60286e-09
2.6294e-09
2.63456e-09
2.63024e-09
2.63573e-09
2.63751e-09
2.64775e-09
2.63706e-09
2.62948e-09
2.64318e-09
2.62962e-09
2.62221e-09
2.61708e-09
2.60322e-09
2.60092e-09
2.58187e-09
2.56471e-09
2.55706e-09
2.53847e-09
2.51403e-09
2.48179e-09
2.44855e-09
2.40474e-09
2.37041e-09
2.32982e-09
2.28732e-09
2.24061e-09
2.19207e-09
2.15669e-09
2.12438e-09
2.07781e-09
2.05202e-09
2.00492e-09
1.96252e-09
1.95925e-09
1.9528e-09
1.95085e-09
1.91792e-09
1.87903e-09
1.86488e-09
1.83079e-09
1.7816e-09
1.7241e-09
1.66996e-09
1.62291e-09
1.567e-09
1.51883e-09
1.4579e-09
1.39626e-09
1.34957e-09
1.30375e-09
1.25263e-09
1.20547e-09
1.15966e-09
1.13005e-09
1.0986e-09
1.06047e-09
1.02266e-09
9.92097e-10
9.69636e-10
9.56578e-10
9.37422e-10
9.17304e-10
8.99297e-10
8.82781e-10
8.54482e-10
8.31912e-10
8.13911e-10
7.93408e-10
7.72177e-10
7.55051e-10
7.18296e-10
6.76726e-10
6.49452e-10
6.15688e-10
5.85976e-10
5.48563e-10
5.09717e-10
4.76656e-10
4.53813e-10
4.25056e-10
3.8693e-10
3.44733e-10
2.96957e-10
2.51048e-10
2.09785e-10
1.73434e-10
1.42156e-10
1.15112e-10
9.64016e-11
9.14562e-11
8.53311e-11
8.25223e-11
7.42885e-11
7.15178e-11
5.64161e-11
1.80893e-11
2.51489e-09
2.51277e-09
2.53044e-09
2.54806e-09
2.56366e-09
2.59307e-09
2.60222e-09
2.60358e-09
2.62089e-09
2.63351e-09
2.63784e-09
2.66554e-09
2.66937e-09
2.64962e-09
2.65294e-09
2.68131e-09
2.70617e-09
2.72266e-09
2.72185e-09
2.73397e-09
2.74308e-09
2.74972e-09
2.77185e-09
2.79604e-09
2.79107e-09
2.78604e-09
2.79453e-09
2.81934e-09
2.8384e-09
2.85273e-09
2.86296e-09
2.89539e-09
2.92756e-09
2.95348e-09
2.9644e-09
2.96447e-09
2.95091e-09
2.95591e-09
2.93619e-09
2.91176e-09
2.90119e-09
2.91484e-09
2.92429e-09
2.93087e-09
2.94917e-09
2.94945e-09
2.96466e-09
2.97434e-09
2.98195e-09
2.97831e-09
2.96069e-09
2.96652e-09
2.94549e-09
2.9392e-09
2.9332e-09
2.91653e-09
2.90189e-09
2.89946e-09
2.89135e-09
2.87857e-09
2.85209e-09
2.833e-09
2.84566e-09
2.84138e-09
2.80955e-09
2.79381e-09
2.78312e-09
2.76251e-09
2.73648e-09
2.7194e-09
2.70782e-09
2.69694e-09
2.69907e-09
2.69096e-09
2.68992e-09
2.68348e-09
2.66938e-09
2.65644e-09
2.65736e-09
2.66459e-09
2.6725e-09
2.65833e-09
2.6584e-09
2.65025e-09
2.63013e-09
2.61883e-09
2.61877e-09
2.62478e-09
2.63525e-09
2.62393e-09
2.60681e-09
2.60358e-09
2.58998e-09
2.57049e-09
2.56997e-09
2.57641e-09
2.56357e-09
2.56254e-09
2.55688e-09
2.5652e-09
2.57453e-09
2.59004e-09
2.58896e-09
2.59723e-09
2.63102e-09
2.64082e-09
2.63598e-09
2.63783e-09
2.64015e-09
2.65923e-09
2.64391e-09
2.64651e-09
2.66056e-09
2.64839e-09
2.64437e-09
2.63537e-09
2.61201e-09
2.59757e-09
2.58461e-09
2.56634e-09
2.55674e-09
2.54395e-09
2.51443e-09
2.48588e-09
2.45874e-09
2.42288e-09
2.39019e-09
2.35011e-09
2.30382e-09
2.25543e-09
2.20206e-09
2.16331e-09
2.13116e-09
2.09344e-09
2.04691e-09
2.00998e-09
1.98687e-09
1.97902e-09
1.96034e-09
1.93974e-09
1.91277e-09
1.8841e-09
1.86607e-09
1.83098e-09
1.77673e-09
1.7257e-09
1.6698e-09
1.61504e-09
1.58165e-09
1.52493e-09
1.46738e-09
1.41212e-09
1.35802e-09
1.31786e-09
1.26989e-09
1.21304e-09
1.16188e-09
1.12718e-09
1.09771e-09
1.05902e-09
1.02786e-09
1.00609e-09
9.778e-10
9.5955e-10
9.49136e-10
9.29693e-10
9.13521e-10
8.87801e-10
8.48856e-10
8.24926e-10
8.09727e-10
7.97362e-10
7.73804e-10
7.48909e-10
7.14476e-10
6.79266e-10
6.4076e-10
6.14012e-10
5.82417e-10
5.5145e-10
5.24749e-10
4.91658e-10
4.59392e-10
4.25617e-10
3.83843e-10
3.39092e-10
2.88714e-10
2.49934e-10
2.17464e-10
1.76129e-10
1.42082e-10
1.261e-10
1.04532e-10
9.26475e-11
8.3453e-11
7.9145e-11
7.65195e-11
7.32781e-11
5.03662e-11
1.47093e-11
2.52832e-09
2.52087e-09
2.54125e-09
2.56203e-09
2.57135e-09
2.58909e-09
2.60997e-09
2.60938e-09
2.62156e-09
2.63439e-09
2.64275e-09
2.65403e-09
2.66765e-09
2.65231e-09
2.65258e-09
2.69127e-09
2.7085e-09
2.71106e-09
2.72786e-09
2.74137e-09
2.74998e-09
2.75788e-09
2.7681e-09
2.79236e-09
2.79613e-09
2.79289e-09
2.79891e-09
2.8249e-09
2.84955e-09
2.84768e-09
2.8498e-09
2.88117e-09
2.92642e-09
2.95638e-09
2.9717e-09
2.96106e-09
2.94298e-09
2.94981e-09
2.94222e-09
2.8962e-09
2.8883e-09
2.90397e-09
2.91852e-09
2.93175e-09
2.94259e-09
2.96056e-09
2.96881e-09
2.9797e-09
2.98935e-09
2.98331e-09
2.96569e-09
2.95719e-09
2.94815e-09
2.93241e-09
2.92279e-09
2.90929e-09
2.89946e-09
2.89564e-09
2.8822e-09
2.86847e-09
2.85803e-09
2.84826e-09
2.84111e-09
2.82583e-09
2.80845e-09
2.79126e-09
2.77651e-09
2.75914e-09
2.73683e-09
2.72492e-09
2.7167e-09
2.70186e-09
2.70221e-09
2.68947e-09
2.67832e-09
2.6796e-09
2.67141e-09
2.66093e-09
2.64884e-09
2.65757e-09
2.66665e-09
2.66131e-09
2.65898e-09
2.65105e-09
2.63744e-09
2.63464e-09
2.62764e-09
2.62918e-09
2.62255e-09
2.62691e-09
2.60547e-09
2.58854e-09
2.57893e-09
2.57576e-09
2.57187e-09
2.56073e-09
2.55871e-09
2.55573e-09
2.54014e-09
2.55241e-09
2.57621e-09
2.58967e-09
2.60152e-09
2.60736e-09
2.63205e-09
2.64716e-09
2.64718e-09
2.64805e-09
2.65124e-09
2.6627e-09
2.66137e-09
2.66547e-09
2.66795e-09
2.65846e-09
2.65782e-09
2.6417e-09
2.61559e-09
2.6003e-09
2.56781e-09
2.56373e-09
2.56336e-09
2.54939e-09
2.50934e-09
2.49462e-09
2.46155e-09
2.43052e-09
2.39812e-09
2.35921e-09
2.30581e-09
2.2593e-09
2.22108e-09
2.18414e-09
2.14253e-09
2.10245e-09
2.06514e-09
2.03552e-09
2.00515e-09
1.98942e-09
1.95858e-09
1.93908e-09
1.91629e-09
1.88684e-09
1.8548e-09
1.81973e-09
1.77284e-09
1.71993e-09
1.66135e-09
1.61725e-09
1.58497e-09
1.53759e-09
1.48256e-09
1.42503e-09
1.37803e-09
1.33492e-09
1.28102e-09
1.2187e-09
1.16605e-09
1.13351e-09
1.09847e-09
1.06204e-09
1.02441e-09
1.01176e-09
9.86239e-10
9.67476e-10
9.6136e-10
9.36194e-10
9.11e-10
8.86855e-10
8.49342e-10
8.23626e-10
7.95511e-10
7.90399e-10
7.76207e-10
7.42729e-10
7.08687e-10
6.82996e-10
6.42879e-10
6.06752e-10
5.81167e-10
5.49243e-10
5.21942e-10
4.95514e-10
4.57991e-10
4.34762e-10
3.90808e-10
3.40483e-10
2.95245e-10
2.49273e-10
2.15716e-10
1.8129e-10
1.50148e-10
1.32892e-10
1.17528e-10
9.42567e-11
8.58404e-11
8.05775e-11
7.38773e-11
6.68738e-11
5.92544e-11
2.91601e-11
2.54918e-09
2.52363e-09
2.54732e-09
2.58557e-09
2.57512e-09
2.60597e-09
2.60902e-09
2.61003e-09
2.6244e-09
2.63336e-09
2.64132e-09
2.64845e-09
2.65967e-09
2.65452e-09
2.66178e-09
2.68929e-09
2.70954e-09
2.71301e-09
2.73037e-09
2.73772e-09
2.75639e-09
2.77025e-09
2.78012e-09
2.80096e-09
2.80194e-09
2.79094e-09
2.79276e-09
2.80889e-09
2.83572e-09
2.83853e-09
2.83559e-09
2.87433e-09
2.91875e-09
2.95354e-09
2.96724e-09
2.95152e-09
2.93586e-09
2.92834e-09
2.92295e-09
2.88875e-09
2.88692e-09
2.89218e-09
2.91139e-09
2.93327e-09
2.94357e-09
2.96168e-09
2.9607e-09
2.97168e-09
2.98881e-09
2.97888e-09
2.96637e-09
2.95621e-09
2.94744e-09
2.93791e-09
2.92541e-09
2.90968e-09
2.89971e-09
2.89608e-09
2.88514e-09
2.86497e-09
2.85479e-09
2.85358e-09
2.84773e-09
2.82989e-09
2.80716e-09
2.78716e-09
2.76171e-09
2.75001e-09
2.73256e-09
2.71422e-09
2.70897e-09
2.70171e-09
2.70207e-09
2.68953e-09
2.68569e-09
2.68681e-09
2.66789e-09
2.66016e-09
2.64647e-09
2.65277e-09
2.66738e-09
2.6624e-09
2.64885e-09
2.64467e-09
2.638e-09
2.64411e-09
2.64269e-09
2.61932e-09
2.60903e-09
2.61683e-09
2.60758e-09
2.59468e-09
2.57885e-09
2.57156e-09
2.56482e-09
2.56076e-09
2.54907e-09
2.54732e-09
2.54512e-09
2.5534e-09
2.58276e-09
2.59853e-09
2.60085e-09
2.60646e-09
2.62793e-09
2.65477e-09
2.66131e-09
2.66879e-09
2.65876e-09
2.6586e-09
2.67187e-09
2.68276e-09
2.67084e-09
2.65546e-09
2.65321e-09
2.64449e-09
2.62726e-09
2.60957e-09
2.56379e-09
2.55679e-09
2.55643e-09
2.54664e-09
2.52297e-09
2.4857e-09
2.45341e-09
2.43144e-09
2.40287e-09
2.36295e-09
2.32215e-09
2.27295e-09
2.23618e-09
2.20559e-09
2.16437e-09
2.11837e-09
2.0856e-09
2.0643e-09
2.03382e-09
2.00287e-09
1.96865e-09
1.93956e-09
1.90735e-09
1.87265e-09
1.84041e-09
1.81761e-09
1.77901e-09
1.72444e-09
1.66149e-09
1.61666e-09
1.58165e-09
1.53672e-09
1.48632e-09
1.42893e-09
1.38493e-09
1.34608e-09
1.27356e-09
1.21055e-09
1.17055e-09
1.13646e-09
1.10048e-09
1.06806e-09
1.03931e-09
1.0127e-09
9.97129e-10
9.61611e-10
9.43927e-10
9.29711e-10
9.06264e-10
8.78021e-10
8.53072e-10
8.31821e-10
7.98776e-10
7.851e-10
7.68447e-10
7.36124e-10
7.00005e-10
6.84435e-10
6.51008e-10
6.15974e-10
5.86219e-10
5.59578e-10
5.17446e-10
4.86854e-10
4.5538e-10
4.27039e-10
3.91686e-10
3.35031e-10
2.94801e-10
2.49598e-10
2.11572e-10
1.72057e-10
1.47735e-10
1.29018e-10
1.04507e-10
9.39252e-11
8.22241e-11
7.63929e-11
6.82919e-11
6.10442e-11
6.3504e-11
3.16962e-11
2.54801e-09
2.53683e-09
2.56137e-09
2.5928e-09
2.58625e-09
2.60088e-09
2.60685e-09
2.61719e-09
2.62239e-09
2.63228e-09
2.64257e-09
2.64911e-09
2.65535e-09
2.66809e-09
2.67878e-09
2.68928e-09
2.70211e-09
2.71354e-09
2.72945e-09
2.73999e-09
2.75795e-09
2.77575e-09
2.7731e-09
2.78477e-09
2.79062e-09
2.78799e-09
2.77915e-09
2.79489e-09
2.82977e-09
2.84879e-09
2.84134e-09
2.86823e-09
2.91082e-09
2.95012e-09
2.95085e-09
2.94715e-09
2.9316e-09
2.92396e-09
2.91337e-09
2.89557e-09
2.88559e-09
2.8917e-09
2.90353e-09
2.92505e-09
2.95984e-09
2.95811e-09
2.95288e-09
2.95931e-09
2.98202e-09
2.97495e-09
2.9543e-09
2.96309e-09
2.95671e-09
2.94921e-09
2.93746e-09
2.91506e-09
2.89896e-09
2.89933e-09
2.88674e-09
2.86284e-09
2.84715e-09
2.84233e-09
2.84551e-09
2.84149e-09
2.81106e-09
2.79201e-09
2.77134e-09
2.7468e-09
2.72264e-09
2.70542e-09
2.6945e-09
2.69454e-09
2.69216e-09
2.69071e-09
2.67846e-09
2.6766e-09
2.67031e-09
2.66016e-09
2.64416e-09
2.65923e-09
2.66303e-09
2.65152e-09
2.64652e-09
2.64957e-09
2.64301e-09
2.6392e-09
2.6253e-09
2.61792e-09
2.61014e-09
2.60741e-09
2.59924e-09
2.58039e-09
2.56539e-09
2.56132e-09
2.55723e-09
2.54191e-09
2.5382e-09
2.54901e-09
2.55625e-09
2.55196e-09
2.57275e-09
2.58851e-09
2.6081e-09
2.62253e-09
2.63869e-09
2.65256e-09
2.65726e-09
2.66964e-09
2.67121e-09
2.667e-09
2.67577e-09
2.67559e-09
2.66479e-09
2.67105e-09
2.66626e-09
2.64855e-09
2.6218e-09
2.60651e-09
2.57939e-09
2.56248e-09
2.54642e-09
2.53289e-09
2.50135e-09
2.48198e-09
2.45941e-09
2.431e-09
2.38857e-09
2.36371e-09
2.33062e-09
2.27637e-09
2.24709e-09
2.2196e-09
2.18298e-09
2.15121e-09
2.10701e-09
2.06894e-09
2.0431e-09
2.00679e-09
1.98107e-09
1.95388e-09
1.91083e-09
1.86848e-09
1.84062e-09
1.82443e-09
1.78132e-09
1.7271e-09
1.66807e-09
1.62586e-09
1.57777e-09
1.51903e-09
1.47912e-09
1.42501e-09
1.3787e-09
1.33882e-09
1.27646e-09
1.20984e-09
1.15893e-09
1.12523e-09
1.10215e-09
1.06998e-09
1.04844e-09
1.02235e-09
9.98172e-10
9.75083e-10
9.44248e-10
9.2901e-10
8.99256e-10
8.75673e-10
8.47743e-10
8.22778e-10
8.02664e-10
7.79835e-10
7.54578e-10
7.25967e-10
6.95242e-10
6.8345e-10
6.57616e-10
6.25437e-10
5.94622e-10
5.62703e-10
5.26819e-10
4.83799e-10
4.56938e-10
4.23256e-10
3.67634e-10
3.36505e-10
2.91817e-10
2.39285e-10
2.15905e-10
1.82431e-10
1.60822e-10
1.37815e-10
1.09724e-10
9.78502e-11
8.01218e-11
8.66837e-11
8.42258e-11
8.09227e-11
6.32489e-11
1.86401e-11
2.55248e-09
2.54671e-09
2.57304e-09
2.59178e-09
2.60213e-09
2.60419e-09
2.61389e-09
2.61973e-09
2.62206e-09
2.62934e-09
2.6328e-09
2.64469e-09
2.65198e-09
2.67575e-09
2.6831e-09
2.67804e-09
2.70417e-09
2.71985e-09
2.72194e-09
2.73143e-09
2.7466e-09
2.74421e-09
2.75733e-09
2.77523e-09
2.7726e-09
2.77276e-09
2.7707e-09
2.77723e-09
2.81538e-09
2.8384e-09
2.84375e-09
2.86734e-09
2.91362e-09
2.94994e-09
2.94094e-09
2.93231e-09
2.93891e-09
2.92904e-09
2.91027e-09
2.88208e-09
2.87374e-09
2.89914e-09
2.90675e-09
2.93868e-09
2.9618e-09
2.9557e-09
2.95089e-09
2.95995e-09
2.97603e-09
2.97433e-09
2.95219e-09
2.94954e-09
2.95907e-09
2.94967e-09
2.95325e-09
2.92641e-09
2.90324e-09
2.89157e-09
2.88622e-09
2.8683e-09
2.85582e-09
2.84223e-09