/*--------------------------------*- C++ -*----------------------------------*\
  =========                 |
  \\      /  F ield         | OpenFOAM: The Open Source CFD Toolbox
   \\    /   O peration     | Website:  https://openfoam.org
    \\  /    A nd           | Version:  6
     \\/     M anipulation  |
\*---------------------------------------------------------------------------*/
FoamFile
{
    version     2.0;
    format      ascii;
    class       surfaceScalarField;
    location    "200";
    object      phi;
}
// * * * * * * * * * * * * * * * * * * * * * * * * * * * * * * * * * * * * * //

dimensions      [0 3 -1 0 0 0 0];

internalField   nonuniform List<scalar> 
7780
(
2
9.13861e-17
2
5.93834e-17
2
2.81617e-16
2
4.4419e-16
2
3.34765e-16
2
3.14701e-16
2
2.97564e-16
2
-1.81998e-18
2
-4.41183e-19
2
1.13271e-17
2
4.01744e-16
2
1.87109e-16
2
-1.2046e-17
2
-4.21624e-17
2
1.57464e-16
2
2.66343e-16
2
1.47041e-16
2
1.10866e-16
2
5.80958e-17
2
1.84774e-16
2
4.23284e-17
2
1.92359e-16
2
1.3546e-16
2
7.93753e-17
2
2.02793e-16
2
1.37282e-16
2
1.45648e-16
2
1.90356e-16
2
1.18577e-16
2
7.0379e-17
2
8.15143e-17
2
2.69539e-16
2
1.49591e-16
2
-1.97251e-16
2
2.87567e-17
2
1.40852e-16
2
1.36398e-16
2
2.49922e-16
2
3.83405e-16
2
2.1797e-16
2
2.2653e-16
2
3.10497e-16
2
3.4976e-16
2
4.63581e-16
2
2.43361e-16
2
2.1861e-16
2
1.6002e-16
2
8.08683e-17
2
9.00106e-17
2
9.00507e-17
2
1.72267e-16
2
8.96255e-17
2
3.78836e-17
2
-5.21956e-17
2
-1.90746e-16
2
-3.20699e-17
2
8.97698e-17
2
5.28469e-17
2
3.65742e-17
2
7.57012e-17
2
1.13646e-16
2
2.04897e-17
2
2.23854e-16
2
1.99769e-16
2
1.73302e-16
2
1.99967e-16
2
-3.25817e-17
2
8.46173e-17
2
2.30927e-16
2
7.61198e-17
2
1.56035e-16
2
1.20326e-17
2
5.73571e-17
2
1.88324e-16
2
-6.12918e-17
2
3.27667e-17
2
6.38259e-17
2
1.57497e-16
2
8.36797e-17
2
-3.33605e-18
2
-1.55988e-16
2
-1.37733e-16
2
-1.51235e-16
2
-1.04039e-17
2
3.93185e-17
2
1.05396e-16
2
-4.03815e-17
2
5.34434e-17
2
-3.9488e-17
2
-4.04302e-17
2
-2.35305e-17
2
-8.87582e-17
2
4.18492e-17
2
8.2981e-17
2
1.90917e-16
2
7.86918e-17
2
2.03003e-17
2
4.56897e-17
2
-7.55692e-17
2
1.30452e-16
2
1.14519e-16
2
-7.53328e-17
2
-1.98659e-17
2
-9.93495e-17
2
3.36393e-17
2
1.20864e-16
2
9.9417e-17
2
5.81994e-17
2
2.37896e-17
2
-5.39736e-17
2
-2.14073e-16
2
-2.23236e-16
2
-1.59029e-16
2
-1.11528e-16
2
-1.47094e-16
2
-1.50448e-16
2
-1.1061e-16
2
2.33676e-17
2
8.96714e-17
2
-1.41029e-17
2
-7.29491e-17
2
-3.9389e-17
2
1.34478e-16
2
1.71449e-16
2
2.60114e-16
2
4.38394e-16
2
2.96349e-16
2
5.44185e-16
2
5.22521e-16
2
4.35182e-16
2
4.33848e-16
2
5.45907e-16
2
4.13915e-16
2
3.34116e-16
2
2.88819e-16
2
3.26377e-16
2
2.72055e-16
2
2.97659e-16
2
4.25843e-16
2
1.74829e-16
2
1.49413e-16
2
3.39096e-17
2
-1.74671e-17
2
5.98993e-18
2
2.10637e-16
2
2.52866e-16
2
2.08728e-16
2
3.19952e-16
2
3.32777e-16
2
2.74247e-16
2
2.89799e-16
2
1.87164e-16
2
2.81034e-16
2
1.2828e-16
2
3.59444e-16
2
2.52834e-16
2
1.66834e-16
2
1.32964e-16
2
-1.44885e-18
2
4.33365e-17
2
1.06872e-16
2
2.32338e-16
2
3.06789e-16
2
1.55245e-16
2
1.28225e-16
2
1.68319e-16
2
3.53332e-17
2
-3.69401e-17
2
-2.26809e-16
2
-4.10244e-16
2
-3.40433e-16
2
-3.29078e-16
2
-3.35814e-16
2
-4.46097e-17
2
-7.6927e-17
2
-1.53567e-16
2
-3.84702e-17
2
-6.50723e-17
2
-1.11071e-16
2
6.78958e-17
2
-4.82215e-17
2
-1.10102e-16
2
-2.48774e-16
2
-1.43831e-16
2
1.63943e-17
2
-1.48133e-16
2
-2.59119e-16
2
-3.19926e-16
2
-3.83961e-16
2
-3.57855e-16
2
-2.76382e-16
2
-3.04355e-16
2
-3.75712e-16
2
-3.03171e-16
2
-1.44796e-16
2
-1.36946e-16
2
-1.41909e-16
2
-1.50688e-16
2
-6.21751e-17
5.04057e-17
2
2.55949e-17
2
3.33157e-17
2
5.18116e-17
2
1.48118e-17
2
2.2242e-16
2
3.30693e-16
2
2.27638e-16
2
9.40013e-17
2
7.63841e-17
2
2.33277e-16
2
-2.65787e-17
2
9.44573e-17
2
2.29152e-16
2
2.10188e-16
2
1.18249e-17
2
8.97375e-19
2
5.94297e-17
2
1.23018e-16
2
1.16446e-16
2
1.34401e-16
2
2.91984e-16
2
3.74892e-17
2
-7.25003e-17
2
3.15162e-16
2
2.39168e-16
2
1.03113e-16
2
1.29284e-16
2
1.00322e-16
2
7.21164e-18
2
1.33853e-16
2
1.4998e-16
2
1.67638e-16
2
-1.42454e-16
2
3.10334e-17
2
-1.14803e-17
2
-9.41963e-17
2
1.41365e-17
2
7.75102e-17
2
1.84432e-16
2
4.01322e-16
2
3.45719e-16
2
2.48489e-16
2
1.51261e-16
2
3.26734e-16
2
2.00119e-16
2
1.4195e-16
2
2.29609e-16
2
1.68632e-16
2
-7.61753e-18
2
-3.01542e-17
2
2.88561e-17
2
6.70146e-17
2
7.0925e-17
2
-3.44882e-17
2
-1.82058e-16
2
-9.74828e-18
2
-5.7445e-17
2
-4.43983e-17
2
-7.14709e-17
2
8.89553e-17
2
1.83262e-16
2
2.1563e-16
2
2.04873e-16
2
1.57274e-16
2
7.66733e-17
2
-4.038e-17
2
9.0914e-17
2
4.34427e-17
2
2.82728e-17
2
2.69765e-16
2
3.52855e-16
2
1.95763e-16
2
1.27372e-16
2
-6.75355e-17
2
-4.108e-17
2
-6.83858e-17
2
-1.7691e-16
2
-1.14572e-16
2
4.63082e-17
2
1.51762e-16
2
2.6658e-16
2
1.95429e-16
2
-1.34373e-16
2
6.43669e-17
2
2.16015e-17
2
-6.64234e-17
2
8.36434e-17
2
-2.4373e-16
2
-3.36891e-17
2
-7.94552e-17
2
-8.77604e-17
2
1.59835e-16
2
1.24394e-17
2
1.41322e-16
2
2.52435e-16
2
3.10024e-16
2
4.56876e-16
2
3.12974e-16
2
2.19101e-16
2
1.65342e-16
2
8.84667e-17
2
-2.16306e-17
2
-1.73757e-16
2
4.0859e-17
2
1.42627e-16
2
2.84471e-16
2
2.13259e-16
2
1.3813e-16
2
2.59334e-16
2
2.06808e-16
2
-1.40334e-16
2
1.96999e-17
2
-9.47194e-18
2
8.33099e-17
2
-5.82585e-17
2
-9.24919e-17
2
-1.11659e-16
2
1.1102e-16
2
1.53378e-16
2
-5.78983e-17
2
-5.79569e-17
2
-6.44045e-17
2
-1.80064e-16
2
-8.15589e-17
2
1.86372e-16
2
3.01198e-16
2
3.27107e-16
2
3.6626e-16
2
4.09896e-16
2
4.41896e-16
2
4.7648e-16
2
3.67227e-16
2
3.52292e-16
2
1.50138e-16
2
2.12276e-16
2
1.27263e-16
2
2.31799e-17
2
1.89452e-16
2
1.43681e-16
2
1.23137e-16
2
-5.5713e-17
2
8.73458e-17
2
9.16759e-17
2
1.70585e-17
2
1.03299e-16
2
2.69416e-16
2
3.16363e-16
2
3.77494e-16
2
4.82157e-16
2
3.09347e-16
2
4.39274e-16
2
3.94341e-16
2
1.6194e-16
2
2.51772e-16
2
9.57386e-17
2
1.25203e-16
2
4.67371e-17
2
-6.43109e-17
2
-1.10397e-16
2
-3.2681e-17
2
-1.38501e-17
2
1.02194e-16
2
4.32393e-16
2
5.33053e-16
2
4.82777e-16
2
1.73147e-16
2
1.84022e-16
2
1.13571e-16
2
2.18899e-16
2
1.80793e-16
2
-5.63474e-17
2
-1.54953e-16
2
-1.17729e-16
2
-1.54369e-16
2
-9.77601e-17
2
-1.38046e-16
2
-1.1164e-16
2
-9.55852e-17
2
-2.31632e-17
2
1.08952e-16
2
2.65287e-17
2
-9.76555e-17
2
-4.47967e-17
2
-3.3503e-16
2
-3.9327e-16
2
-3.48673e-16
2
-2.90688e-16
2
-2.9516e-16
2
-1.40251e-16
2
-3.40663e-16
2
-2.27183e-16
2
-1.84756e-16
2
-2.3931e-16
2
-3.02507e-16
2
-2.21101e-16
2
-1.86396e-16
2
-3.25124e-16
2
-6.43558e-17
2
4.19112e-18
5.08291e-17
2
3.3474e-18
2
-3.0821e-17
2
3.54262e-17
2
2.75729e-17
2
7.23599e-17
2
6.75604e-17
2
1.69587e-16
2
1.30191e-16
2
6.45707e-17
2
6.39711e-17
2
9.55611e-18
2
9.10799e-17
2
-4.80767e-19
2
-1.24583e-17
2
-5.32356e-17
2
-1.7777e-16
2
-2.49247e-17
2
1.06283e-16
2
-4.77869e-17
2
-2.98878e-16
2
-2.46744e-16
2
-1.26464e-16
2
-1.07837e-17
2
4.30076e-17
2
1.88508e-16
2
3.52102e-16
2
1.77345e-16
2
1.20564e-16
2
1.52253e-16
2
2.32066e-16
2
1.40325e-16
2
-1.20565e-16
2
-8.97294e-17
2
-6.8739e-17
2
-2.30868e-16
2
-1.02233e-16
2
-4.35298e-17
2
-1.27369e-16
2
-7.05289e-17
2
9.10995e-17
2
1.54696e-16
2
2.79209e-16
2
1.58876e-16
2
9.57748e-17
2
6.82533e-17
2
5.77146e-17
2
4.5076e-17
2
3.65542e-17
2
-1.16133e-16
2
-1.41526e-16
2
7.86993e-17
2
1.0368e-16
2
1.7979e-16
2
-1.74457e-17
2
4.37956e-17
2
-1.32225e-16
2
-1.39956e-16
2
2.01353e-17
2
-1.08713e-17
2
9.38558e-17
2
1.12099e-16
2
2.99964e-16
2
2.44847e-16
2
1.90598e-16
2
2.33661e-17
2
-5.29681e-17
2
-6.68888e-17
2
-2.35642e-17
2
1.19175e-17
2
1.40031e-16
2
1.5097e-16
2
2.35415e-16
2
1.97347e-16
2
3.27676e-16
2
5.66635e-17
2
-9.84638e-17
2
-1.34239e-16
2
-1.3263e-16
2
-4.90105e-19
2
1.67825e-16
2
3.01001e-16
2
1.23287e-16
2
2.16073e-16
2
7.47517e-17
2
1.79401e-16
2
1.36339e-16
2
2.80412e-17
2
8.13802e-17
2
5.60774e-17
2
-3.60525e-17
2
7.98958e-17
2
-7.57117e-18
2
1.14008e-16
2
1.7855e-16
2
1.32039e-16
2
2.1827e-16
2
4.19085e-17
2
1.85417e-16
2
2.93884e-16
2
1.65724e-16
2
1.28114e-17
2
-1.26896e-17
2
1.17459e-16
2
3.03754e-16
2
1.87038e-16
2
1.53647e-16
2
2.15743e-16
2
3.40116e-16
2
2.14258e-16
2
1.88848e-16
2
2.07363e-16
2
-6.43996e-17
2
8.40585e-18
2
-4.6025e-18
2
-9.38588e-17
2
2.114e-17
2
2.03247e-16
2
-6.14854e-17
2
-3.77788e-17
2
-1.45996e-17
2
-1.71217e-16
2
-1.18077e-17
2
1.49604e-16
2
1.84134e-16
2
7.90611e-17
2
1.09411e-16
2
2.86831e-16
2
1.1888e-16
2
1.98676e-16
2
2.85113e-16
2
1.18764e-16
2
2.03235e-16
2
6.91944e-17
2
2.72205e-16
2
2.94724e-16
2
2.83301e-16
2
1.69521e-16
2
8.75171e-17
2
2.18511e-16
2
1.91874e-16
2
2.45427e-16
2
1.80235e-16
2
2.43235e-16
2
2.52319e-16
2
2.42857e-16
2
2.08427e-16
2
2.94208e-16
2
3.32398e-16
2
3.80198e-16
2
5.27436e-16
2
3.24845e-16
2
4.12996e-16
2
3.01563e-16
2
3.00466e-16
2
2.36057e-16
2
1.98248e-16
2
9.58406e-17
2
-1.18717e-16
2
-1.63249e-16
2
-2.79353e-17
2
1.24466e-16
2
1.33537e-16
2
1.52078e-16
2
3.26724e-16
2
3.79423e-16
2
9.57555e-17
2
2.07268e-16
2
3.92439e-16
2
1.95908e-16
2
3.39349e-16
2
3.16189e-16
2
1.98548e-16
2
1.17354e-16
2
-8.19028e-18
2
-2.79318e-17
2
-2.30145e-16
2
-1.30934e-16
2
4.24183e-18
2
1.21134e-16
2
9.14387e-17
2
-3.10026e-16
2
-2.69822e-16
2
-3.62522e-16
2
-2.41273e-16
2
-3.10886e-16
2
-4.66843e-16
2
-2.17402e-16
2
-3.04069e-17
2
-2.17046e-18
2
-1.86998e-16
2
-2.82083e-16
2
-3.81458e-16
2
-5.48835e-16
2
-4.81831e-16
2
-3.87561e-16
2
-2.93979e-16
2
-2.72274e-18
2
-2.36371e-16
2
-3.97099e-16
-3.27978e-16
2
4.58373e-17
2
9.89375e-17
2
1.50763e-16
2
1.56584e-16
2
-1.08138e-17
2
5.86269e-17
2
1.20572e-16
2
2.05202e-16
2
9.789e-17
2
5.2657e-17
2
7.35093e-17
2
1.78281e-17
2
-1.50147e-16
2
-1.26706e-17
2
8.81363e-17
2
-1.31879e-16
2
-6.92875e-17
2
6.17674e-17
2
-1.43512e-16
2
-2.15255e-16
2
-1.44122e-16
2
6.66795e-17
2
-2.72875e-17
2
-5.63027e-17
2
-5.20991e-17
2
-4.19771e-17
2
8.05926e-17
2
1.02074e-16
2
2.06114e-16
2
2.84458e-17
2
1.96029e-16
2
7.06328e-17
2
-3.74721e-18
2
1.97534e-17
2
5.533e-17
2
-5.96993e-17
2
1.00457e-16
2
-3.10316e-17
2
2.99999e-17
2
2.50348e-16
2
3.7995e-16
2
1.8514e-16
2
2.18032e-16
2
-1.84492e-18
2
4.35125e-17
2
5.15774e-17
2
5.52042e-17
2
1.44228e-16
2
1.08034e-16
2
-2.36842e-17
2
-6.83832e-17
2
1.64108e-17
2
-5.10323e-17
2
6.99987e-17
2
-8.28647e-17
2
-4.23685e-17
2
1.2543e-17
2
-1.5915e-16
2
-1.33601e-16
2
9.90317e-17
2
2.07112e-16
2
4.60023e-17
2
-1.42193e-16
2
-1.08223e-16
2
-1.2172e-16
2
-1.67117e-16
2
-2.19726e-16
2
-2.54306e-17
2
-2.96711e-17
2
7.43341e-17
2
2.45437e-16
2
2.62619e-16
2
7.63359e-17
2
-2.68975e-16
2
3.06567e-17
2
1.88155e-16
2
1.85722e-16
2
1.2739e-16
2
2.98744e-16
2
1.10768e-16
2
9.56878e-18
2
1.00429e-16
2
3.13535e-16
2
2.35402e-16
2
1.11678e-16
2
1.2026e-16
2
1.11026e-17
2
2.09888e-16
2
-8.48252e-17
2
-9.03159e-17
2
1.34623e-16
2
1.87048e-16
2
-7.70981e-18
2
-9.01026e-17
2
-6.73062e-17
2
-1.10977e-16
2
-2.91021e-16
2
-3.07058e-16
2
-3.44719e-16
2
-3.20366e-16
2
-2.18615e-16
2
-1.37527e-16
2
-1.52905e-16
2
-1.08372e-16
2
1.10687e-16
2
-6.67357e-18
2
1.97832e-16
2
3.98025e-16
2
7.5176e-17
2
-2.25286e-16
2
1.22584e-17
2
-1.83986e-17
2
1.45373e-16
2
-7.17988e-17
2
-2.30426e-18
2
2.81027e-17
2
-7.01606e-17
2
-1.56063e-16
2
-2.07378e-16
2
-2.19633e-16
2
-1.08136e-16
2
1.04275e-17
2
8.59716e-17
2
-4.19895e-17
2
1.03923e-16
2
1.78606e-16
2
1.19565e-16
2
1.1286e-16
2
4.98919e-17
2
-8.83089e-17
2
7.52941e-17
2
-2.7235e-17
2
8.54602e-17
2
1.5928e-16
2
3.37075e-16
2
4.8604e-16
2
6.00862e-16
2
5.01337e-16
2
3.27908e-16
2
4.63822e-16
2
4.0411e-16
2
2.73545e-16
2
2.30536e-16
2
2.77588e-16
2
1.54155e-16
2
1.69247e-16
2
1.02886e-16
2
2.24962e-16
2
1.8166e-16
2
2.11827e-16
2
2.82826e-16
2
2.17394e-16
2
4.36771e-16
2
5.24806e-16
2
4.46637e-16
2
4.60863e-16
2
3.98187e-16
2
2.71097e-16
2
2.01684e-16
2
1.43122e-16
2
1.41559e-16
2
1.49086e-16
2
1.47176e-16
2
1.81133e-16
2
8.6953e-17
2
3.75396e-16
2
2.31385e-16
2
2.53799e-16
2
2.86524e-16
2
1.59838e-16
2
2.80586e-16
2
4.13316e-16
2
3.10187e-16
2
2.9403e-16
2
7.87355e-17
2
1.79722e-16
2
1.13391e-16
2
9.62902e-17
2
-2.43832e-17
2
-1.1458e-16
2
2.22664e-16
2
-2.78421e-17
2
-1.16018e-16
2
-1.39871e-16
2
-2.63759e-16
2
-2.06629e-16
2
-2.4561e-16
2
-2.20604e-16
2
-2.38865e-16
2
-1.75136e-16
2
-1.87221e-16
2
-2.54098e-16
2
-3.32588e-16
2
-4.28022e-16
2
-3.50611e-16
2
-2.03911e-16
2
-1.37377e-16
2
-1.18129e-16
2
-1.58883e-16
-1.64063e-16
2
8.75084e-18
2
-7.30146e-17
2
-2.01872e-16
2
-8.3126e-17
2
-4.55981e-17
2
-1.41943e-16
2
6.18148e-17
2
2.92449e-17
2
1.31397e-16
2
1.02935e-16
2
-3.21239e-17
2
-2.08106e-16
2
-5.02791e-17
2
-2.30733e-17
2
-7.87967e-17
2
-4.67451e-17
2
-1.83353e-16
2
-2.23252e-16
2
6.12955e-17
2
1.42823e-16
2
1.64529e-16
2
4.5811e-17
2
2.20319e-16
2
1.37127e-16
2
1.36486e-16
2
2.1607e-16
2
1.01919e-16
2
2.22247e-17
2
1.2409e-17
2
-1.34612e-16
2
-2.80776e-16
2
-2.48011e-16
2
2.5802e-17
2
2.3486e-16
2
3.0932e-16
2
1.96043e-16
2
1.22097e-16
2
3.26706e-16
2
2.71637e-16
2
-4.6049e-17
2
-1.266e-16
2
1.98888e-16
2
1.18523e-16
2
2.20007e-16
2
1.81006e-16
2
1.26544e-16
2
9.12965e-17
2
6.92804e-17
2
1.3055e-16
2
1.3735e-16
2
2.06064e-16
2
1.23216e-16
2
8.79285e-17
2
1.14817e-16
2
1.89717e-16
2
1.13242e-16
2
5.41632e-17
2
-7.1613e-17
2
9.35071e-17
2
-7.8268e-17
2
-1.53231e-16
2
-2.05269e-17
2
-1.18873e-16
2
-2.1081e-16
2
-1.1481e-16
2
-9.211e-17
2
-6.21844e-17
2
-8.60331e-17
2
-5.53779e-17
2
1.10662e-17
2
1.86723e-17
2
-2.60156e-17
2
5.78897e-17
2
2.00073e-16
2
1.1149e-16
2
1.89398e-17
2
3.41566e-17
2
-1.87485e-17
2
-6.79243e-17
2
-2.14662e-16
2
-2.494e-16
2
1.39031e-17
2
2.3829e-16
2
2.54344e-16
2
2.17754e-16
2
1.35293e-16
2
1.31288e-16
2
-9.25983e-18
2
-7.2479e-17
2
1.29493e-16
2
1.18338e-16
2
-6.71777e-17
2
-6.38201e-17
2
-2.38437e-16
2
-3.69311e-16
2
-4.48723e-16
2
-4.61421e-16
2
-3.43987e-16
2
-2.55229e-16
2
-1.22873e-16
2
-1.1824e-16
2
4.87993e-17
2
1.23957e-16
2
-1.34326e-16
2
1.01121e-16
2
2.44229e-16
2
1.34088e-17
2
-1.67181e-16
2
-2.49957e-18
2
-4.50624e-17
2
-1.10834e-16
2
-1.2491e-17
2
-1.99521e-16
2
-8.3317e-17
2
-1.14043e-17
2
-1.3261e-16
2
-1.72772e-16
2
-3.74194e-17
2
-9.68283e-17
2
-8.92787e-17
2
6.38687e-17
2
1.11089e-16
2
1.92747e-16
2
3.74835e-16
2
2.85158e-16
2
1.9995e-17
2
-7.73249e-17
2
1.54069e-16
2
-1.59118e-17
2
-1.85766e-16
2
-7.20047e-17
2
-1.82452e-17
2
7.03851e-17
2
1.49873e-16
2
1.56408e-16
2
1.39653e-16
2
3.42739e-16
2
4.3052e-16
2
2.47996e-16
2
1.23086e-16
2
-1.16315e-16
2
1.08234e-17
2
1.89297e-16
2
2.23096e-16
2
1.53593e-16
2
1.74251e-17
2
3.12295e-17
2
9.10894e-17
2
2.41067e-16
2
2.01847e-16
2
2.89278e-16
2
1.03554e-16
2
1.54764e-16
2
2.59179e-16
2
3.42904e-16
2
1.81648e-16
2
1.93933e-16
2
4.18947e-16
2
4.29992e-16
2
2.60014e-16
2
2.12321e-16
2
2.06746e-16
2
1.97262e-16
2
3.01355e-16
2
4.02169e-16
2
2.80211e-16
2
2.19769e-16
2
2.05539e-16
2
2.34126e-16
2
2.09532e-16
2
2.25518e-16
2
3.8294e-16
2
2.32799e-16
2
2.42229e-16
2
1.75656e-16
2
2.34712e-16
2
2.17196e-16
2
2.12359e-16
2
1.90642e-16
2
1.41828e-16
2
4.10594e-17
2
2.81131e-17
2
-1.93428e-17
2
-8.70781e-17
2
-1.81407e-16
2
1.02675e-17
2
-8.74493e-17
2
-1.12053e-16
2
-2.61225e-16
2
-1.91561e-16
2
-1.27355e-16
2
-2.42259e-16
2
-2.5442e-16
2
-1.35484e-16
2
-2.88848e-16
2
-3.94962e-16
2
-2.63595e-16
2
-1.3052e-16
2
3.52696e-17
-1.77911e-17
2
-1.10646e-16
2
-7.19641e-17
2
-1.5199e-16
2
-1.59404e-16
2
-8.85294e-18
2
-1.75257e-16
2
-1.44856e-16
2
-1.40805e-16
2
-9.44077e-17
2
-8.09743e-17
2
7.22386e-17
2
-1.89173e-16
2
-2.14842e-16
2
-1.16468e-16
2
-5.35953e-17
2
8.27876e-17
2
-2.81221e-17
2
-7.18716e-17
2
-3.70325e-17
2
2.03588e-16
2
2.4176e-16
2
2.56887e-16
2
2.88712e-16
2
2.73086e-16
2
2.75485e-16
2
1.62177e-16
2
1.42169e-17
2
-1.11822e-16
2
-6.83706e-17
2
-2.1555e-16
2
-3.52367e-16
2
-1.67323e-16
2
-2.32079e-16
2
-7.71667e-17
2
1.38788e-16
2
1.36374e-16
2
-3.69198e-17
2
1.23818e-16
2
3.37945e-16
2
2.3219e-16
2
2.26981e-16
2
-4.77139e-17
2
2.06527e-16
2
8.70812e-17
2
3.10345e-16
2
2.29637e-16
2
1.57634e-16
2
-1.1804e-17
2
-4.89648e-17
2
-3.5489e-17
2
-1.00741e-16
2
-1.19503e-16
2
-3.65263e-17
2
-8.14472e-17
2
-1.03173e-16
2
9.49312e-18
2
2.13761e-16
2
2.50889e-16
2
-5.30795e-17
2
-6.27862e-17
2
2.20196e-17
2
-3.47415e-16
2
-2.80271e-16
2
-2.41543e-16
2
-2.64343e-16
2
-3.36703e-16
2
-1.14274e-16
2
-1.32169e-16
2
-9.24442e-18
2
2.28814e-17
2
-1.3205e-16
2
-6.66087e-17
2
-1.33071e-17
2
-3.60403e-17
2
-1.12585e-17
2
1.9402e-17
2
1.66538e-16
2
1.15883e-16
2
6.1642e-17
2
9.09493e-17
2
-2.39387e-17
2
-7.0238e-17
2
-1.95297e-16
2
1.69622e-16
2
1.73649e-16
2
2.7679e-16
2
8.30504e-17
2
-1.88865e-17
2
2.51836e-17
2
5.57632e-17
2
-2.25346e-16
2
-1.88825e-16
2
-6.33623e-17
2
-1.12251e-16
2
-3.17187e-16
2
-4.13792e-16
2
-2.46783e-16
2
-2.76765e-16
2
-1.38571e-16
2
-2.33941e-17
2
-7.09741e-17
2
-8.12525e-17
2
1.96877e-16
2
1.50743e-16
2
-1.38976e-16
2
-1.02498e-16
2
7.95451e-17
2
1.31078e-16
2
-1.63996e-17
2
1.36387e-16
2
7.07409e-17
2
9.46382e-17
2
-8.87501e-17
2
-1.54897e-16
2
-6.0145e-17
2
-1.13255e-16
2
-1.61001e-16
2
-2.69364e-16
2
-1.48478e-16
2
1.22878e-17
2
7.51582e-17
2
-9.20233e-17
2
1.33837e-17
2
8.48899e-17
2
4.50868e-17
2
-2.92102e-17
2
-6.09649e-19
2
-2.1997e-16
2
-4.71411e-17
2
-4.39446e-17
2
-5.77703e-17
2
-8.89271e-17
2
4.50012e-18
2
1.93657e-16
2
8.99334e-17
2
2.39799e-16
2
3.51936e-16
2
2.97216e-16
2
5.90537e-17
2
-1.40238e-16
2
-1.08726e-16
2
1.58103e-16
2
1.75624e-16
2
2.34669e-16
2
2.22463e-16
2
2.20467e-16
2
3.17977e-16
2
2.12117e-16
2
6.78404e-18
2
1.04104e-16
2
1.13515e-16
2
2.25073e-16
2
1.34059e-16
2
-3.55958e-17
2
-1.74259e-17
2
9.28237e-17
2
1.72365e-16
2
2.8018e-16
2
2.56108e-16
2
1.92188e-16
2
1.14655e-16
2
1.26252e-16
2
6.74353e-17
2
1.96527e-18
2
1.16218e-16
2
1.49992e-16
2
1.66759e-16
2
2.12433e-16
2
2.74816e-16
2
2.53568e-16
2
4.4913e-16
2
2.11118e-16
2
4.66471e-16
2
2.74097e-16
2
1.4839e-16
2
2.86341e-16
2
2.94492e-16
2
3.32956e-16
2
3.48006e-16
2
4.48641e-16
2
2.38997e-16
2
2.02439e-16
2
1.08393e-16
2
2.54984e-18
2
-5.6493e-18
2
-4.96616e-17
2
-5.04954e-17
2
9.98664e-17
2
2.75304e-16
2
9.26663e-17
2
-4.75065e-17
2
7.87132e-17
2
1.30329e-16
2
-1.85872e-18
2
-1.42971e-16
2
-3.04597e-16
2
-3.97082e-16
2
-1.62477e-16
2
-7.66889e-18
8.503e-17
2
-3.02122e-16
2
-2.75439e-16
2
-2.55361e-16
2
-2.3626e-16
2
-3.71247e-16
2
-2.06717e-16
2
-9.71352e-17
2
-2.0228e-16
2
-1.63986e-16
2
-2.32202e-16
2
-2.50252e-16
2
2.87953e-17
2
-4.82792e-17
2
-1.3222e-16
2
-1.02349e-16
2
-1.72172e-17
2
1.70167e-17
2
1.07062e-17
2
9.69912e-17
2
1.20357e-16
2
1.49484e-16
2
1.63391e-16
2
6.6685e-17
2
-4.56265e-17
2
9.82625e-17
2
1.57784e-16
2
2.922e-16
2
1.17223e-16
2
-2.29404e-16
2
-1.52362e-16
2
8.48241e-17
2
-1.18408e-16
2
-1.03257e-16
2
-3.45291e-16
2
-1.3366e-16
2
-2.33053e-17
2
1.30213e-16
2
4.24269e-17
2
-3.69039e-17
2
1.51508e-16
2
-7.24581e-17
2
-1.63874e-17
2
2.97916e-17
2
3.05946e-16
2
1.72382e-16
2
2.18837e-16
2
2.11458e-16
2
1.4057e-16
2
5.99419e-17
2
2.51952e-16
2
-2.85961e-17
2
-1.36332e-17
2
-2.01197e-17
2
1.27922e-16
2
2.84246e-16
2
2.28911e-16
2
8.25375e-17
2
2.6081e-17
2
-1.17449e-18
2
-1.0375e-16
2
-1.65114e-16
2
-2.47277e-16
2
-4.268e-16
2
-5.80478e-16
2
-3.92639e-16
2
-7.75572e-17
2
-2.09922e-17
2
6.40289e-17
2
1.89502e-17
2
1.32134e-16
2
-7.44509e-17
2
-6.82611e-17
2
-1.01306e-16
2
-1.50049e-17
2
1.09393e-16
2
9.26684e-17
2
3.64864e-16
2
2.20523e-16
2
5.43813e-17
2
1.32358e-16
2
1.35432e-16
2
1.66262e-16
2
1.30468e-16
2
-6.72886e-17
2
7.15905e-17
2
5.60711e-17
2
3.04805e-16
2
1.2848e-16
2
1.35768e-16
2
-7.47482e-17
2
-5.9351e-17
2
-1.09218e-17
2
1.74902e-17
2
8.99451e-17
2
-1.10695e-16
2
-2.8741e-16
2
-2.54572e-16
2
-5.88562e-17
2
5.94438e-17
2
-2.1355e-16
2
-6.46484e-17
2
-3.45636e-17
2
4.10291e-17
2
1.44481e-16
2
-3.53025e-17
2
1.19018e-16
2
6.47306e-17
2
-5.01711e-17
2
4.28375e-17
2
-7.06298e-17
2
-4.16514e-17
2
-2.05188e-16
2
-3.22843e-16
2
-3.96434e-17
2
2.31962e-17
2
-4.82591e-17
2
4.82962e-17
2
-1.86077e-16
2
-1.3048e-16
2
-5.46688e-17
2
2.70232e-19
2
5.65851e-17
2
-1.11161e-18
2
5.67402e-17
2
-9.44522e-17
2
-1.50778e-16
2
-1.90763e-16
2
-1.93464e-16
2
-1.31801e-16
2
7.19775e-18
2
-1.71986e-16
2
-1.7659e-17
2
1.40364e-16
2
1.77536e-16
2
8.50242e-18
2
1.1766e-16
2
2.43704e-16
2
-7.49864e-17
2
-4.41944e-18
2
-9.11554e-17
2
2.333e-16
2
2.15812e-16
2
2.97847e-17
2
1.2587e-16
2
2.2998e-16
2
2.46473e-16
2
2.59342e-16
2
2.37998e-16
2
2.17637e-16
2
-1.74741e-17
2
-2.02946e-16
2
-7.61175e-17
2
4.93541e-18
2
-1.31966e-16
2
-1.89332e-17
2
7.04588e-17
2
5.87489e-17
2
6.11016e-17
2
3.88652e-17
2
2.67321e-17
2
1.66865e-16
2
2.86415e-17
2
-1.28782e-16
2
-1.44549e-16
2
-2.10069e-16
2
-4.33711e-18
2
7.01357e-17
2
1.19144e-16
2
3.32475e-16
2
4.90011e-16
2
5.16682e-16
2
3.35282e-16
2
1.07786e-16
2
1.07629e-16
2
1.87704e-16
2
2.80222e-16
2
1.66279e-16
2
2.36227e-16
2
1.8906e-16
2
1.77391e-17
2
7.83257e-17
2
2.21493e-16
2
1.72014e-16
2
-6.25043e-17
2
1.04557e-16
2
6.18499e-17
2
1.95652e-16
2
1.32171e-16
2
8.43196e-17
2
1.07017e-17
2
-3.87854e-17
2
-8.41051e-17
2
8.50261e-17
2
-1.74511e-17
2
-1.41898e-16
2
-1.17983e-16
2
-1.1963e-16
2
-2.8248e-16
2
-1.9615e-16
3.19882e-17
2
-2.94074e-16
2
-3.35135e-16
2
-2.12011e-16
2
-1.52033e-16
2
4.25934e-17
2
-3.70137e-17
2
-1.17116e-16
2
1.4743e-16
2
2.26345e-17
2
-1.17069e-17
2
-4.45233e-17
2
-3.37863e-16
2
-2.48838e-16
2
-9.32869e-17
2
-9.6122e-17
2
-5.81262e-17
2
7.03818e-17
2
5.32622e-17
2
-4.22224e-17
2
2.51771e-17
2
9.44748e-17
2
1.59764e-16
2
1.89078e-16
2
1.28431e-16
2
1.18047e-17
2
5.12051e-17
2
5.11514e-17
2
7.63269e-17
2
1.41536e-16
2
-7.64278e-18
2
-1.62065e-16
2
-9.66419e-17
2
-1.04579e-16
2
-2.00036e-16
2
-2.84126e-16
2
-1.53487e-16
2
1.36973e-16
2
2.30487e-17
2
4.12565e-17
2
-1.59236e-16
2
-6.28334e-17
2
9.28554e-17
2
1.16597e-16
2
-5.67593e-17
2
-2.22816e-16
2
1.66363e-16
2
1.75446e-16
2
1.93016e-16
2
2.40301e-16
2
7.60014e-17
2
8.73146e-17
2
4.52535e-17
2
2.27371e-16
2
2.50047e-16
2
3.1511e-16
2
3.87898e-16
2
2.41441e-16
2
1.38699e-16
2
1.27318e-18
2
-3.03606e-16
2
-4.06311e-16
2
-1.61663e-16
2
-4.16035e-16
2
-5.17163e-16
2
-1.68005e-16
2
-8.04449e-17
2
-1.15069e-16
2
-1.97434e-16
2
-2.0189e-16
2
-4.07419e-16
2
-2.56967e-16
2
-6.60893e-17
2
-3.12442e-17
2
2.4345e-16
2
1.73547e-16
2
2.17042e-16
2
3.38913e-17
2
2.29885e-16
2
1.86573e-16
2
2.32498e-16
2
2.77077e-16
2
5.88114e-17
2
6.52346e-17
2
-1.37607e-16
2
1.69817e-17
2
9.07734e-17
2
-2.52429e-17
2
-1.80801e-18
2
-1.16477e-16
2
-9.51303e-18
2
5.0815e-17
2
1.25988e-16
2
1.4821e-16
2
8.52798e-17
2
-1.55511e-17
2
1.59638e-17
2
-3.06512e-17
2
-1.79969e-16
2
-2.27304e-16
2
-5.24522e-17
2
1.28431e-17
2
-8.95085e-17
2
-1.02662e-16
2
-1.21865e-16
2
-4.61322e-17
2
-1.57068e-17
2
-6.04737e-18
2
-7.2723e-17
2
-1.28183e-16
2
-8.63569e-17
2
-4.51491e-17
2
-1.93031e-16
2
-1.22365e-16
2
-1.40593e-16
2
-1.17079e-16
2
-2.32283e-17
2
-6.51627e-17
2
2.28429e-16
2
4.0006e-17
2
5.65352e-17
2
2.87195e-17
2
1.59167e-17
2
-6.02636e-18
2
-1.81261e-16
2
-3.23857e-16
2
-3.18259e-16
2
-4.21669e-16
2
-6.29365e-16
2
-6.02936e-16
2
-5.3148e-16
2
-1.91943e-16
2
1.35962e-17
2
-5.39962e-17
2
-3.59276e-17
2
1.7822e-16
2
7.50566e-17
2
-2.96289e-16
2
-2.60906e-16
2
-1.91388e-16
2
1.93309e-16
2
2.52399e-16
2
1.14511e-16
2
1.10873e-16
2
1.89965e-17
2
2.70125e-16
2
3.37699e-16
2
2.32851e-16
2
2.26115e-16
2
7.04821e-17
2
1.47172e-16
2
4.87573e-17
2
8.43285e-18
2
-5.2103e-17
2
-1.43642e-16
2
-9.47264e-17
2
1.06198e-16
2
2.81683e-16
2
1.9253e-16
2
1.58573e-16
2
9.49092e-17
2
3.58982e-18
2
-4.26693e-17
2
2.84899e-18
2
8.4773e-17
2
-1.23397e-17
2
-8.22381e-17
2
-1.09494e-16
2
1.60012e-16
2
3.67396e-16
2
3.24866e-16
2
2.33863e-16
2
2.76803e-16
2
2.49406e-16
2
2.13255e-16
2
1.8332e-16
2
-7.14656e-18
2
1.38938e-16
2
9.78261e-17
2
-2.64122e-17
2
3.15584e-17
2
2.41369e-17
2
-1.92938e-16
2
-2.32538e-16
2
1.58628e-16
2
1.7747e-16
2
2.32122e-16
2
3.43817e-16
2
2.70393e-16
2
4.13328e-17
2
6.91105e-17
2
1.47015e-16
2
6.56821e-17
2
7.92557e-17
2
1.59878e-16
2
2.54333e-16
2
3.06205e-16
2
8.92873e-17
2
5.57936e-17
2
1.75416e-16
2.11318e-16
2
-2.87084e-16
2
-2.87728e-16
2
-2.33078e-16
2
-2.6948e-16
2
-2.48415e-16
2
2.43778e-17
2
-1.78691e-16
2
-5.71634e-17
2
7.60524e-18
2
1.02085e-16
2
-1.27871e-16
2
4.01636e-17
2
-3.72255e-17
2
-1.95487e-16
2
-2.18003e-16
2
-2.09982e-16
2
-1.10871e-16
2
4.59191e-17
2
-4.51988e-17
2
-9.6984e-17
2
-1.12068e-16
2
-1.99835e-17
2
1.95135e-16
2
2.34646e-16
2
1.14515e-16
2
4.39847e-17
2
-1.70293e-16
2
-6.66602e-17
2
-1.3675e-16
2
-1.25907e-16
2
-1.10453e-16
2
2.00249e-17
2
-8.08969e-17
2
-4.02839e-17
2
-2.29441e-16
2
1.75883e-17
2
5.66874e-17
2
-8.78481e-17
2
-3.62218e-16
2
-1.08043e-16
2
7.61851e-17
2
7.44161e-17
2
7.27478e-17
2
4.22886e-17
2
1.8677e-16
2
-1.08633e-16
2
2.21129e-19
2
3.65063e-17
2
4.56478e-17
2
3.33751e-17
2
1.00693e-16
2
1.95804e-16
2
6.33308e-17
2
1.98246e-16
2
2.01403e-16
2
1.17621e-16
2
1.86486e-16
2
1.35611e-16
2
6.82093e-17
2
4.79047e-17
2
-6.48019e-17
2
-3.41887e-16
2
-1.18904e-16
2
5.98233e-18
2
-2.60007e-16
2
-2.35396e-16
2
-1.09609e-16
2
-7.52311e-17
2
-9.7705e-17
2
-2.63542e-16
2
-3.44399e-16
2
-2.33985e-16
2
-1.32489e-16
2
-1.23955e-17
2
2.05921e-16
2
1.95053e-16
2
1.67772e-16
2
4.24316e-17
2
2.3214e-16
2
3.37033e-16
2
2.79202e-16
2
1.89494e-16
2
1.98191e-16
2
2.27438e-16
2
5.12519e-17
2
-1.92014e-16
2
-9.11898e-17
2
-1.4841e-16
2
1.20471e-16
2
-2.8822e-17
2
6.14582e-17
2
1.88339e-16
2
2.05595e-16
2
6.47392e-17
2
-1.45349e-17
2
3.45706e-16
2
2.06498e-16
2
-9.21733e-18
2
9.65528e-17
2
6.35587e-17
2
-1.03388e-17
2
2.28565e-17
2
-3.31971e-16
2
-1.63979e-16
2
1.77608e-16
2
1.67104e-16
2
-7.37854e-17
2
-1.59859e-16
2
-9.57144e-17
2
1.29402e-16
2
-3.54813e-17
2
-3.37469e-17
2
5.30077e-17
2
2.57596e-16
2
1.71893e-16
2
1.22857e-16
2
-3.54361e-17
2
-2.66705e-18
2
2.09184e-16
2
1.19674e-16
2
-2.19243e-18
2
-6.60964e-17
2
-1.27215e-17
2
-3.6293e-16
2
-4.3194e-16
2
-3.49488e-16
2
-4.02628e-16
2
-3.72368e-16
2
-2.66385e-16
2
-1.29912e-16
2
-3.12487e-16
2
-3.36408e-16
2
-3.26592e-16
2
-3.38735e-16
2
-3.45027e-16
2
-3.4692e-16
2
-3.57127e-16
2
-3.654e-16
2
-3.13013e-17
2
-7.04483e-18
2
5.43158e-17
2
2.54882e-17
2
1.1625e-16
2
2.21081e-16
2
1.50785e-16
2
1.7596e-16
2
2.77365e-16
2
1.11351e-17
2
-1.79044e-17
2
-4.81973e-17
2
1.33266e-16
2
1.0204e-16
2
-1.09364e-16
2
4.0835e-17
2
3.68566e-17
2
8.66926e-17
2
2.49805e-16
2
3.05264e-16
2
3.5611e-16
2
2.52694e-16
2
2.50976e-16
2
1.37543e-16
2
1.28405e-16
2
4.21387e-17
2
7.01367e-17
2
2.15812e-16
2
2.70751e-16
2
2.2078e-16
2
1.83397e-16
2
2.50771e-16
2
2.82053e-16
2
2.41147e-16
2
6.79817e-17
2
3.42763e-17
2
3.10314e-17
2
-1.04803e-16
2
-2.39547e-18
2
6.57215e-17
2
8.91537e-17
2
1.58305e-17
2
7.32937e-17
2
7.22438e-17
2
2.64749e-16
2
2.04726e-16
2
1.90267e-16
2
2.84809e-16
2
1.68833e-16
2
1.04201e-16
2
1.57004e-16
2
1.10957e-16
2
-2.3224e-17
2
2.49547e-17
2
-8.41084e-17
2
2.30091e-16
2
2.35833e-16
2
9.36577e-17
2
1.66776e-16
2
2.63164e-16
2
1.26124e-16
8.97701e-17
2
-3.00794e-16
2
-2.20648e-16
2
-2.14986e-16
2
-4.68788e-16
2
-2.38953e-16
2
-3.52663e-16
2
-1.3934e-16
2
-2.20765e-16
2
-4.98796e-17
2
9.72436e-17
2
-5.09469e-17
2
8.96946e-17
2
1.92222e-16
2
5.05868e-17
2
-6.56662e-17
2
-9.54327e-17
2
-1.55959e-16
2
1.94731e-17
2
6.69005e-18
2
-9.93378e-17
2
-1.01231e-16
2
-2.03082e-16
2
-2.79837e-16
2
-2.20157e-16
2
-1.30605e-16
2
-7.05343e-17
2
-4.45811e-17
2
3.1776e-17
2
4.30446e-17
2
-1.00581e-16
2
-8.75078e-17
2
-1.21345e-16
2
-2.22642e-16
2
-1.44226e-16
2
-1.02918e-16
2
2.21318e-17
2
-1.66475e-16
2
-2.70093e-17
2
2.62031e-18
2
3.51655e-17
2
-1.10899e-16
2
4.75995e-17
2
1.62726e-17
2
-5.15004e-17
2
7.14277e-17
2
4.4795e-18
2
2.5421e-16
2
2.33966e-16
2
7.20493e-17
2
1.55544e-16
2
2.44662e-16
2
2.99575e-16
2
2.24387e-16
2
7.09514e-17
2
-8.4867e-18
2
-1.8068e-17
2
2.04132e-17
2
2.33798e-17
2
1.31616e-17
2
-3.77747e-17
2
-1.46762e-16
2
-1.46566e-16
2
-7.68599e-17
2
-1.17287e-17
2
-6.43357e-18
2
-4.34056e-17
2
3.96079e-17
2
-2.77463e-16
2
-2.65679e-16
2
-8.96965e-17
2
-8.4712e-17
2
-2.54137e-16
2
-8.24849e-17
2
-1.72464e-16
2
-2.17653e-16
2
-1.47103e-16
2
5.55581e-17
2
9.33229e-17
2
5.93512e-17
2
1.06006e-16
2
2.32722e-16
2
1.90639e-16
2
2.51719e-16
2
2.50246e-16
2
-1.25379e-17
2
-8.54393e-17
2
-1.54534e-16
2
1.93023e-16
2
1.57971e-16
2
2.4771e-16
2
1.56766e-16
2
6.48299e-17
2
9.88332e-17
2
1.61252e-16
2
3.03684e-16
2
1.17075e-16
2
3.35687e-16
2
2.05811e-16
2
-4.92286e-17
2
-3.56617e-17
2
1.89827e-17
2
-1.21423e-16
2
5.06746e-17
2
2.51564e-16
2
1.59329e-16
2
-9.22986e-17
2
-6.25167e-18
2
-9.05439e-17
2
6.51994e-17
2
1.28525e-16
2
3.77337e-17
2
-4.67674e-17
2
1.57637e-16
2
1.69295e-16
2
1.58524e-16
2
-5.81766e-17
2
-2.09232e-16
2
-2.05415e-16
2
3.69025e-17
2
4.95034e-17
2
1.53755e-16
2
9.86397e-17
2
-3.02067e-16
2
8.9724e-17
2
4.28445e-17
2
-2.26213e-16
2
-3.51439e-16
2
-3.13287e-16
2
-5.1784e-16
2
-4.6003e-16
2
-3.89825e-16
2
-4.13773e-16
2
-4.26545e-16
2
-3.72078e-16
2
-4.44037e-16
2
-7.51165e-16
2
-6.82793e-16
2
-5.54674e-16
2
-3.21384e-16
2
-1.30493e-16
2
3.9845e-17
2
7.69562e-17
2
7.70571e-18
2
-6.72899e-17
2
-3.13855e-16
2
-2.5951e-16
2
-3.52276e-17
2
1.07141e-16
2
2.00757e-17
2
-5.18381e-17
2
-9.45982e-17
2
-1.01861e-16
2
-8.90955e-17
2
-9.04049e-17
2
1.27683e-16
2
3.168e-16
2
1.95454e-16
2
3.11987e-16
2
2.30491e-16
2
2.61959e-16
2
1.25041e-16
2
1.65908e-16
2
2.0162e-16
2
3.28213e-16
2
4.37104e-16
2
1.53304e-16
2
2.87814e-16
2
2.65282e-16
2
-7.374e-17
2
-1.68361e-16
2
9.22489e-17
2
-1.04745e-17
2
-1.0962e-16
2
1.28396e-18
2
2.56298e-17
2
-3.91114e-18
2
-9.07133e-17
2
-2.17521e-16
2
-1.00898e-16
2
-1.05507e-16
2
1.97064e-16
2
2.0362e-16
2
1.58868e-16
2
2.13732e-16
2
1.9324e-16
2
2.4456e-16
2
1.02354e-16
2
7.5143e-17
2
9.89396e-17
2
3.85832e-16
2
2.5351e-16
2
2.33365e-16
2
2.90231e-16
2
2.26761e-16
2
3.78322e-16
2
2.67756e-16
2
2.93265e-16
2
2.9259e-16
2
2.86566e-16
3.07842e-16
2
-8.88066e-18
2
-1.75904e-16
2
-3.46913e-16
2
-1.72273e-16
2
-1.61498e-16
2
-4.43742e-17
2
-5.54552e-17
2
-1.63853e-16
2
-5.53515e-17
2
-6.54958e-17
2
1.80212e-16
2
1.42961e-16
2
1.16574e-16
2
4.92718e-17
2
6.15476e-18
2
-2.3863e-17
2
1.20529e-16
2
-1.90788e-17
2
-1.50309e-17
2
4.35532e-18
2
-4.02173e-17
2
-1.11872e-16
2
-4.73677e-17
2
7.3196e-17
2
-4.40604e-17
2
-3.13541e-16
2
-1.82607e-16
2
-8.3104e-17
2
-9.61626e-17
2
-2.2731e-16
2
-3.53779e-16
2
-2.14279e-16
2
-2.48614e-17
2
-1.69526e-16
2
-1.28101e-18
2
-8.1899e-17
2
-1.73936e-16
2
-2.1964e-16
2
-1.18992e-16
2
-2.76942e-16
2
-1.91033e-16
2
-2.18238e-16
2
-6.86341e-17
2
2.13761e-17
2
-3.21356e-16
2
-6.85508e-17
2
3.38652e-17
2
1.50092e-16
2
3.11302e-16
2