/*--------------------------------*- C++ -*----------------------------------*\
  =========                 |
  \\      /  F ield         | OpenFOAM: The Open Source CFD Toolbox
   \\    /   O peration     | Website:  https://openfoam.org
    \\  /    A nd           | Version:  6
     \\/     M anipulation  |
\*---------------------------------------------------------------------------*/
FoamFile
{
    version     2.0;
    format      ascii;
    class       volVectorField;
    location    "200";
    object      U;
}
// * * * * * * * * * * * * * * * * * * * * * * * * * * * * * * * * * * * * * //

dimensions      [0 1 -1 0 0 0 0];

internalField   nonuniform List<vector> 
4000
(
(400 4.47464e-14 0)
(400 5.98992e-14 0)
(400 5.05958e-14 0)
(400 4.56717e-14 0)
(400 4.90656e-14 0)
(400 6.04796e-14 0)
(400 6.61188e-14 0)
(400 9.07729e-14 0)
(400 1.03344e-13 0)
(400 1.00197e-13 0)
(400 1.04066e-13 0)
(400 1.00646e-13 0)
(400 6.78142e-14 0)
(400 5.24725e-14 0)
(400 4.72619e-14 0)
(400 3.35166e-14 0)
(400 1.10872e-14 0)
(400 -2.89546e-14 0)
(400 -3.22724e-14 0)
(400 -3.21486e-14 0)
(400 -4.06282e-14 0)
(400 -2.90698e-14 0)
(400 -1.35161e-14 0)
(400 -4.83183e-15 0)
(400 1.34375e-14 0)
(400 2.43713e-14 0)
(400 2.90219e-14 0)
(400 1.9704e-14 0)
(400 1.05718e-14 0)
(400 1.22224e-14 0)
(400 7.49643e-15 0)
(400 1.18527e-14 0)
(400 3.19025e-14 0)
(400 3.32953e-14 0)
(400 5.09448e-14 0)
(400 6.99694e-14 0)
(400 5.98376e-14 0)
(400 5.61231e-14 0)
(400 5.27958e-14 0)
(400 2.87247e-14 0)
(400 2.80898e-14 0)
(400 3.61662e-14 0)
(400 4.2118e-14 0)
(400 4.53542e-14 0)
(400 4.11587e-14 0)
(400 4.54757e-14 0)
(400 5.53311e-14 0)
(400 5.08976e-14 0)
(400 3.78671e-14 0)
(400 2.55951e-14 0)
(400 2.43981e-14 0)
(400 1.9533e-14 0)
(400 1.97445e-14 0)
(400 1.21254e-14 0)
(400 5.64854e-15 0)
(400 2.20703e-14 0)
(400 2.67011e-14 0)
(400 1.69372e-14 0)
(400 1.72737e-14 0)
(400 7.08744e-15 0)
(400 2.70993e-15 0)
(400 9.5572e-15 0)
(400 2.04891e-14 0)
(400 2.60105e-14 0)
(400 2.15182e-14 0)
(400 2.63272e-14 0)
(400 1.83086e-14 0)
(400 1.64046e-14 0)
(400 9.97481e-15 0)
(400 -1.35214e-14 0)
(400 -1.94483e-14 0)
(400 -1.63137e-14 0)
(400 -1.65637e-14 0)
(400 -1.0608e-14 0)
(400 -1.34235e-14 0)
(400 -1.55856e-14 0)
(400 -2.22137e-14 0)
(400 -1.48903e-14 0)
(400 -2.66911e-14 0)
(400 -3.77206e-14 0)
(400 -4.5808e-14 0)
(400 -3.37113e-14 0)
(400 -1.7483e-14 0)
(400 -4.21458e-15 0)
(400 7.00918e-15 0)
(400 2.28098e-14 0)
(400 3.43097e-14 0)
(400 4.04235e-14 0)
(400 3.2419e-14 0)
(400 2.40687e-14 0)
(400 1.09363e-14 0)
(400 5.88976e-16 0)
(400 -1.01664e-14 0)
(400 -2.27426e-14 0)
(400 -3.13818e-14 0)
(400 -4.27329e-14 0)
(400 -3.02283e-14 0)
(400 -3.21969e-15 0)
(400 1.89127e-14 0)
(400 2.41061e-14 0)
(400 8.78462e-15 0)
(400 -8.35241e-15 0)
(400 -8.11466e-15 0)
(400 -4.92761e-15 0)
(400 4.15548e-15 0)
(400 4.39319e-15 0)
(400 -5.92563e-15 0)
(400 -1.82218e-14 0)
(400 -1.66125e-14 0)
(400 -2.62367e-14 0)
(400 -5.26633e-14 0)
(400 -5.42911e-14 0)
(400 -4.98384e-14 0)
(400 -4.28004e-14 0)
(400 -3.0328e-14 0)
(400 -1.66325e-14 0)
(400 -1.7309e-14 0)
(400 -1.5287e-14 0)
(400 -3.50204e-15 0)
(400 4.3123e-15 0)
(400 7.59664e-15 0)
(400 2.10631e-15 0)
(400 -6.32101e-15 0)
(400 -1.59572e-14 0)
(400 -1.46332e-14 0)
(400 -2.00115e-14 0)
(400 -1.48236e-14 0)
(400 -3.58719e-15 0)
(400 -5.96022e-15 0)
(400 -4.46119e-15 0)
(400 5.98099e-15 0)
(400 7.90176e-15 0)
(400 3.28469e-15 0)
(400 8.20205e-16 0)
(400 3.07707e-15 0)
(400 -6.76636e-15 0)
(400 -8.14707e-15 0)
(400 -1.19682e-14 0)
(400 -2.05726e-14 0)
(400 -4.10778e-14 0)
(400 -5.20614e-14 0)
(400 -4.7625e-14 0)
(400 -4.97475e-14 0)
(400 -6.26461e-14 0)
(400 -6.67891e-14 0)
(400 -5.23595e-14 0)
(400 -3.59513e-14 0)
(400 -2.66571e-14 0)
(400 -9.28063e-15 0)
(400 -2.62726e-15 0)
(400 5.24817e-15 0)
(400 1.32739e-14 0)
(400 1.87117e-14 0)
(400 1.85093e-14 0)
(400 3.02942e-14 0)
(400 3.01866e-14 0)
(400 3.78868e-14 0)
(400 2.75725e-14 0)
(400 1.49489e-14 0)
(400 1.27853e-14 0)
(400 1.37169e-14 0)
(400 1.28297e-14 0)
(400 -2.68401e-15 0)
(400 -1.74294e-14 0)
(400 -1.52779e-14 0)
(400 -6.40678e-15 0)
(400 -1.23479e-14 0)
(400 -3.07613e-14 0)
(400 -4.98908e-14 0)
(400 -6.56181e-14 0)
(400 -7.23353e-14 0)
(400 -6.96072e-14 0)
(400 -6.22552e-14 0)
(400 -5.49005e-14 0)
(400 -5.21387e-14 0)
(400 -3.58619e-14 0)
(400 -1.08153e-14 0)
(400 1.02589e-15 0)
(400 1.86657e-16 0)
(400 -1.34216e-14 0)
(400 -1.80047e-14 0)
(400 -2.22024e-14 0)
(400 -2.81386e-14 0)
(400 -3.77595e-14 0)
(400 -4.80078e-14 0)
(400 -6.35091e-14 0)
(400 -8.58667e-14 0)
(400 -1.02993e-13 0)
(400 -1.11193e-13 0)
(400 -1.01568e-13 0)
(400 -9.33141e-14 0)
(400 -8.65758e-14 0)
(400 -8.22743e-14 0)
(400 -7.77942e-14 0)
(400 -7.60935e-14 0)
(400 -6.91421e-14 0)
(400 -6.39554e-14 0)
(400 -4.78664e-14 0)
(400 -2.60782e-14 0)
(400 -1.06156e-14 0)
(400 9.98554e-15 0)
(400 1.38433e-14 0)
(400 2.55733e-14 0)
(400 2.74503e-14 0)
(400 3.74421e-14 0)
(400 5.5445e-14 0)
(400 6.77757e-14 0)
(400 7.62024e-14 0)
(400 8.96705e-14 0)
(400 1.06881e-13 0)
(400 1.0024e-13 0)
(400 6.54755e-14 0)
(400 3.66383e-14 0)
(400 2.41028e-14 0)
(400 2.8875e-14 0)
(400 3.86188e-14 0)
(400 3.86738e-14 0)
(400 4.01495e-14 0)
(400 3.66193e-14 0)
(400 4.07792e-14 0)
(400 3.57725e-14 0)
(400 1.6306e-14 0)
(400 -6.13836e-15 0)
(400 -1.97295e-15 0)
(400 -5.298e-15 0)
(400 -4.70189e-15 0)
(400 6.00563e-15 0)
(400 4.13671e-15 0)
(400 8.12192e-15 0)
(400 2.18899e-14 0)
(400 2.29907e-14 0)
(400 4.00786e-14 0)
(400 4.64132e-14 0)
(400 4.70622e-14 0)
(400 4.80743e-14 0)
(400 5.01385e-14 0)
(400 4.09831e-14 0)
(400 2.77579e-14 0)
(400 2.5164e-14 0)
(400 2.10318e-14 0)
(400 2.72906e-14 0)
(400 4.28099e-14 0)
(400 5.10358e-14 0)
(400 6.43138e-14 0)
(400 4.31564e-14 0)
(400 5.11402e-14 0)
(400 4.49482e-14 0)
(400 2.65795e-14 0)
(400 9.85536e-15 0)
(400 -8.43898e-15 0)
(400 -7.74724e-15 0)
(400 -1.3097e-14 0)
(400 -2.17791e-14 0)
(400 -4.14955e-14 0)
(400 -5.48714e-14 0)
(400 -3.92518e-14 0)
(400 -2.35437e-14 0)
(400 -1.23489e-14 0)
(400 -2.22083e-15 0)
(400 9.10053e-15 0)
(400 1.16968e-14 0)
(400 -2.59636e-15 0)
(400 -2.95592e-15 0)
(400 -3.46711e-15 0)
(400 -6.06583e-15 0)
(400 -1.80831e-15 0)
(400 -8.70332e-15 0)
(400 -9.56167e-15 0)
(400 -7.91221e-15 0)
(400 2.27835e-15 0)
(400 5.95659e-15 0)
(400 -9.30867e-15 0)
(400 -1.49953e-14 0)
(400 -1.79925e-14 0)
(400 -3.05182e-14 0)
(400 -3.1556e-14 0)
(400 -3.39876e-14 0)
(400 -1.55083e-14 0)
(400 -8.29293e-15 0)
(400 -1.73464e-14 0)
(400 -2.35822e-14 0)
(400 -2.74445e-14 0)
(400 -4.70579e-14 0)
(400 -3.01292e-14 0)
(400 -2.19118e-14 0)
(400 -2.55099e-14 0)
(400 -2.67882e-14 0)
(400 -3.42225e-14 0)
(400 -2.71203e-14 0)
(400 -2.71723e-14 0)
(400 -3.09369e-14 0)
(400 -2.18331e-14 0)
(400 -2.7572e-14 0)
(400 -2.36978e-14 0)
(400 -2.05523e-14 0)
(400 -1.97125e-14 0)
(400 -4.76539e-15 0)
(400 -1.5178e-14 0)
(400 -3.03504e-14 0)
(400 -2.48341e-14 0)
(400 -2.61352e-14 0)
(400 -4.13201e-14 0)
(400 -5.98091e-14 0)
(400 -4.99757e-14 0)
(400 -2.03279e-14 0)
(400 -5.08024e-15 0)
(400 -1.04871e-14 0)
(400 -1.96314e-14 0)
(400 -8.31909e-15 0)
(400 -8.9199e-15 0)
(400 -2.96169e-14 0)
(400 -2.90974e-14 0)
(400 -2.93001e-14 0)
(400 -1.80022e-14 0)
(400 -2.12204e-14 0)
(400 -2.34575e-14 0)
(400 -5.99648e-15 0)
(400 2.77216e-14 0)
(400 6.15756e-14 0)
(400 6.34766e-14 0)
(400 5.53078e-14 0)
(400 4.6448e-14 0)
(400 4.66391e-14 0)
(400 4.87543e-14 0)
(400 5.7565e-14 0)
(400 6.32596e-14 0)
(400 7.17057e-14 0)
(400 9.03649e-14 0)
(400 9.92179e-14 0)
(400 9.60377e-14 0)
(400 8.74262e-14 0)
(400 9.2312e-14 0)
(400 8.22281e-14 0)
(400 7.79985e-14 0)
(400 8.34838e-14 0)
(400 8.19016e-14 0)
(400 6.88601e-14 0)
(400 5.72151e-14 0)
(400 3.92731e-14 0)
(400 1.4654e-14 0)
(400 -3.61639e-15 0)
(400 -1.44956e-14 0)
(400 -2.12496e-14 0)
(400 -2.5993e-14 0)
(400 -1.63206e-14 0)
(400 5.71599e-16 0)
(400 1.18815e-14 0)
(400 2.92709e-14 0)
(400 3.21015e-14 0)
(400 2.13476e-14 0)
(400 3.06197e-14 0)
(400 2.98945e-14 0)
(400 3.61888e-14 0)
(400 4.36558e-14 0)
(400 5.51769e-14 0)
(400 5.42152e-14 0)
(400 4.29148e-14 0)
(400 3.21376e-14 0)
(400 3.10378e-14 0)
(400 3.85018e-14 0)
(400 2.69627e-14 0)
(400 2.4984e-14 0)
(400 3.0193e-14 0)
(400 2.367e-14 0)
(400 2.12445e-14 0)
(400 1.63732e-14 0)
(400 1.29362e-14 0)
(400 5.0787e-15 0)
(400 -1.15219e-14 0)
(400 -2.86931e-14 0)
(400 -3.93186e-14 0)
(400 -4.97107e-14 0)
(400 -5.85552e-14 0)
(400 -5.92767e-14 0)
(400 -5.8674e-14 0)
(400 -6.77835e-14 0)
(400 -6.33781e-14 0)
(400 -6.34848e-14 0)
(400 -6.24567e-14 0)
(400 -4.35979e-14 0)
(400 -4.44012e-14 0)
(400 -4.97115e-14 0)
(400 -6.3359e-14 0)
(400 -8.6151e-14 0)
(400 -8.9179e-14 0)
(400 -9.44082e-14 0)
(400 -9.9686e-14 0)
(400 -1.04672e-13 0)
(400 -1.05806e-13 0)
(400 -1.14743e-13 0)
(400 -1.09082e-13 0)
(400 -1.00845e-13 0)
(400 -9.65942e-14 0)
(400 -8.17808e-14 0)
(400 -4.86826e-14 0)
(400 -3.90306e-14 0)
(400 -3.23043e-14 0)
(400 -2.04716e-15 0)
(400 1.95387e-14 0)
(400 2.96259e-14 0)
(400 -8.755e-15 0)
(400 -9.36133e-15 0)
(400 7.60431e-15 0)
(400 1.63297e-14 0)
(400 3.66962e-14 0)
(400 5.64296e-14 0)
(400 6.36624e-14 0)
(400 6.19351e-14 0)
(400 6.59965e-14 0)
(400 7.81057e-14 0)
(400 5.13314e-14 0)
(400 3.23134e-14 0)
(400 1.18896e-14 0)
(400 3.64006e-15 0)
(400 -2.16839e-15 0)
(400 4.46186e-15 0)
(400 1.17495e-14 0)
(400 3.26028e-14 0)
(400 3.1517e-14 0)
(400 2.57173e-14 0)
(400 2.83239e-14 0)
(400 1.2156e-14 0)
(400 4.71002e-15 0)
(400 2.52883e-14 0)
(400 2.17475e-14 0)
(400 2.0423e-14 0)
(400 1.20016e-14 0)
(400 1.30207e-14 0)
(400 2.42463e-14 0)
(400 4.03872e-14 0)
(400 4.3744e-14 0)
(400 3.68322e-14 0)
(400 3.90399e-14 0)
(400 7.13569e-14 0)
(400 5.48294e-14 0)
(400 3.66862e-14 0)
(400 3.35794e-14 0)
(400 1.63668e-14 0)
(400 6.3375e-15 0)
(400 9.19145e-15 0)
(400 1.01026e-14 0)
(400 1.98514e-14 0)
(400 1.57016e-14 0)
(400 2.61226e-14 0)
(400 1.64063e-14 0)
(400 6.27575e-15 0)
(400 7.08318e-15 0)
(400 2.96917e-16 0)
(400 -1.694e-14 0)
(400 -2.85514e-14 0)
(400 -1.09912e-14 0)
(400 4.75092e-15 0)
(400 1.2177e-14 0)
(400 -6.9312e-15 0)
(400 -1.59033e-14 0)
(400 -1.64624e-14 0)
(400 -1.84997e-14 0)
(400 6.22478e-15 0)
(400 1.63284e-14 0)
(400 3.0363e-14 0)
(400 3.53511e-14 0)
(400 2.21517e-14 0)
(400 1.22115e-14 0)
(400 1.07991e-14 0)
(400 5.86254e-15 0)
(400 -1.86873e-15 0)
(400 3.71354e-15 0)
(400 6.66289e-15 0)
(400 1.02216e-14 0)
(400 2.95933e-14 0)
(400 2.95559e-14 0)
(400 2.03125e-14 0)
(400 1.10795e-14 0)
(400 -3.49503e-15 0)
(400 -1.57528e-14 0)
(400 -1.87403e-14 0)
(400 -2.06485e-14 0)
(400 -1.70133e-14 0)
(400 -7.9502e-15 0)
(400 6.27071e-15 0)
(400 2.41138e-14 0)
(400 4.67109e-15 0)
(400 -2.34268e-14 0)
(400 -3.39111e-14 0)
(400 -3.65014e-14 0)
(400 -4.1242e-14 0)
(400 -3.74831e-14 0)
(400 -4.18648e-14 0)
(400 -2.16612e-14 0)
(400 -1.06055e-14 0)
(400 -5.95532e-16 0)
(400 9.03896e-15 0)
(400 2.08071e-14 0)
(400 4.39752e-14 0)
(400 5.98968e-14 0)
(400 7.16837e-14 0)
(400 7.95659e-14 0)
(400 8.16999e-14 0)
(400 7.02162e-14 0)
(400 5.20684e-14 0)
(400 3.42849e-14 0)
(400 2.1629e-14 0)
(400 1.08803e-14 0)
(400 2.18655e-14 0)
(400 2.59189e-14 0)
(400 3.27872e-14 0)
(400 3.73001e-14 0)
(400 2.89577e-14 0)
(400 2.65746e-14 0)
(400 2.3294e-14 0)
(400 2.80124e-15 0)
(400 -1.4869e-14 0)
(400 -1.47187e-14 0)
(400 -1.07845e-14 0)
(400 -2.83327e-14 0)
(400 -2.3146e-14 0)
(400 -5.44939e-15 0)
(400 3.08387e-15 0)
(400 2.45261e-14 0)
(400 2.48726e-14 0)
(400 2.21439e-14 0)
(400 2.10053e-14 0)
(400 3.26281e-14 0)
(400 3.59406e-14 0)
(400 2.74865e-14 0)
(400 1.76896e-14 0)
(400 1.83729e-14 0)
(400 1.17156e-14 0)
(400 2.66243e-14 0)
(400 2.0415e-14 0)
(400 -2.8945e-15 0)
(400 -7.38585e-15 0)
(400 -1.36203e-14 0)
(400 -4.76014e-15 0)
(400 1.51254e-14 0)
(400 3.16934e-14 0)
(400 2.559e-14 0)
(400 2.84105e-15 0)
(400 -8.17624e-15 0)
(400 -1.50276e-14 0)
(400 -2.05798e-14 0)
(400 -3.24704e-14 0)
(400 -3.13707e-14 0)
(400 -2.89317e-14 0)
(400 -1.15711e-14 0)
(400 -6.22411e-15 0)
(400 -9.8871e-15 0)
(400 -7.4226e-15 0)
(400 -3.17331e-15 0)
(400 7.48192e-16 0)
(400 1.33346e-16 0)
(400 -8.81342e-15 0)
(400 -2.15832e-14 0)
(400 -2.04143e-14 0)
(400 -2.29357e-14 0)
(400 -1.95705e-14 0)
(400 -2.87509e-14 0)
(400 -3.59678e-14 0)
(400 -2.31405e-14 0)
(400 6.71226e-15 0)
(400 2.90046e-14 0)
(400 4.63355e-14 0)
(400 7.16595e-14 0)
(400 8.64567e-14 0)
(400 8.65902e-14 0)
(400 5.42517e-14 0)
(400 4.92861e-14 0)
(400 5.0764e-14 0)
(400 4.93933e-14 0)
(400 4.79751e-14 0)
(400 2.40854e-14 0)
(400 -7.90033e-15 0)
(400 -2.1104e-14 0)
(400 -3.57022e-14 0)
(400 -4.38994e-14 0)
(400 -5.42652e-14 0)
(400 -6.02671e-14 0)
(400 -5.87898e-14 0)
(400 -4.56866e-14 0)
(400 -3.44106e-14 0)
(400 -3.84231e-14 0)
(400 -4.88971e-14 0)
(400 -6.36934e-14 0)
(400 -8.487e-14 0)
(400 -9.90638e-14 0)
(400 -1.03631e-13 0)
(400 -9.42676e-14 0)
(400 -9.11506e-14 0)
(400 -9.17873e-14 0)
(400 -1.06726e-13 0)
(400 -9.95205e-14 0)
(400 -9.08468e-14 0)
(400 -8.24179e-14 0)
(400 -5.87421e-14 0)
(400 -4.27905e-14 0)
(400 -5.40946e-14 0)
(400 -5.52898e-14 0)
(400 -4.68094e-14 0)
(400 -4.17709e-14 0)
(400 -3.86001e-14 0)
(400 2.70509e-15 0)
(400 8.39632e-15 0)
(400 2.959e-14 0)
(400 5.50943e-14 0)
(400 5.95551e-14 0)
(400 6.4418e-14 0)
(400 6.65044e-14 0)
(400 5.94623e-14 0)
(400 4.99164e-14 0)
(400 3.4436e-14 0)
(400 2.09026e-14 0)
(400 1.23567e-14 0)
(400 -5.20902e-15 0)
(400 -7.47871e-17 0)
(400 9.27393e-15 0)
(400 7.60784e-15 0)
(400 1.87126e-14 0)
(400 3.27672e-14 0)
(400 3.6326e-14 0)
(400 4.59323e-14 0)
(400 4.37354e-14 0)
(400 5.23259e-14 0)
(400 5.43924e-14 0)
(400 4.7534e-14 0)
(400 4.03441e-14 0)
(400 2.58496e-14 0)
(400 1.58266e-14 0)
(400 2.42776e-14 0)
(400 3.49073e-14 0)
(400 4.02605e-14 0)
(400 5.76721e-14 0)
(400 4.66415e-14 0)
(400 4.6657e-14 0)
(400 4.83984e-14 0)
(400 4.90538e-14 0)
(400 3.88997e-14 0)
(400 3.58649e-14 0)
(400 2.06665e-14 0)
(400 1.55088e-14 0)
(400 1.70424e-14 0)
(400 7.26661e-15 0)
(400 -6.00256e-15 0)
(400 -1.39394e-14 0)
(400 -1.91895e-14 0)
(400 -1.1335e-14 0)
(400 -1.92258e-14 0)
(400 -1.74031e-14 0)
(400 -1.1471e-14 0)
(400 -1.4044e-14 0)
(400 -2.09286e-14 0)
(400 -7.47654e-15 0)
(400 2.97616e-15 0)
(400 4.16653e-15 0)
(400 -6.78634e-16 0)
(400 -6.69698e-15 0)
(400 -1.56914e-14 0)
(400 -6.80924e-15 0)
(400 3.10086e-15 0)
(400 9.98399e-15 0)
(400 2.91943e-14 0)
(400 3.89929e-14 0)
(400 2.62306e-14 0)
(400 9.81114e-15 0)
(400 2.55473e-15 0)
(400 -1.08511e-14 0)
(400 -2.07751e-14 0)
(400 -3.56341e-14 0)
(400 -3.09579e-14 0)
(400 -1.91753e-14 0)
(400 -1.70694e-15 0)
(400 1.0278e-14 0)
(400 9.29728e-15 0)
(400 -1.908e-15 0)
(400 -2.01649e-14 0)
(400 -2.08467e-14 0)
(400 -1.88459e-14 0)
(400 -1.25999e-14 0)
(400 -9.6641e-15 0)
(400 1.00876e-14 0)
(400 1.89375e-14 0)
(400 8.30346e-15 0)
(400 -7.8061e-15 0)
(400 -4.57605e-15 0)
(400 -2.54507e-14 0)
(400 -5.16001e-14 0)
(400 -6.68705e-14 0)
(400 -7.75398e-14 0)
(400 -6.42047e-14 0)
(400 -6.92994e-14 0)
(400 -7.63506e-14 0)
(400 -6.46988e-14 0)
(400 -6.06028e-14 0)
(400 -4.81027e-14 0)
(400 -4.07117e-14 0)
(400 -2.78329e-14 0)
(400 -1.60025e-14 0)
(400 -3.36206e-14 0)
(400 -1.70286e-14 0)
(400 -8.72202e-15 0)
(400 -1.25899e-14 0)
(400 -2.1179e-14 0)
(400 -2.54571e-14 0)
(400 -1.9597e-14 0)
(400 -1.53877e-14 0)
(400 -3.0513e-14 0)
(400 -3.99207e-14 0)
(400 -3.04414e-14 0)
(400 -1.00236e-14 0)
(400 -2.53532e-14 0)
(400 -3.17264e-14 0)
(400 -1.70484e-14 0)
(400 -1.65817e-14 0)
(400 9.26326e-15 0)
(400 1.30598e-14 0)
(400 1.98779e-14 0)
(400 3.84278e-14 0)
(400 4.53458e-14 0)
(400 3.58254e-14 0)
(400 3.67138e-14 0)
(400 4.30757e-14 0)
(400 5.97138e-14 0)
(400 8.59849e-14 0)
(400 1.05222e-13 0)
(400 9.85725e-14 0)
(400 8.43266e-14 0)
(400 8.01348e-14 0)
(400 7.30671e-14 0)
(400 5.67319e-14 0)
(400 5.26205e-14 0)
(400 4.36059e-14 0)
(400 3.82866e-14 0)
(400 3.67115e-14 0)
(400 5.58182e-14 0)
(400 8.8482e-14 0)
(400 1.03931e-13 0)
(400 1.07725e-13 0)
(400 1.10663e-13 0)
(400 1.06393e-13 0)
(400 1.01296e-13 0)
(400 1.00971e-13 0)
(400 1.02296e-13 0)
(400 9.02936e-14 0)
(400 7.74962e-14 0)
(400 7.38055e-14 0)
(400 6.89049e-14 0)
(400 5.92864e-14 0)
(400 4.38136e-14 0)
(400 3.2018e-14 0)
(400 2.27731e-14 0)
(400 2.98037e-14 0)
(400 1.61874e-14 0)
(400 4.3116e-15 0)
(400 4.46559e-15 0)
(400 5.08638e-15 0)
(400 -1.29919e-15 0)
(400 -6.79398e-15 0)
(400 -1.07747e-14 0)
(400 -2.2775e-14 0)
(400 -3.19476e-14 0)
(400 -3.27241e-14 0)
(400 -1.25759e-14 0)
(400 -2.01105e-15 0)
(400 7.01826e-15 0)
(400 1.74432e-14 0)
(400 1.99398e-14 0)
(400 4.45113e-15 0)
(400 -5.40778e-15 0)
(400 2.15442e-15 0)
(400 5.35846e-15 0)
(400 1.11733e-14 0)
(400 1.70456e-14 0)
(400 1.8423e-14 0)
(400 1.47774e-14 0)
(400 5.69865e-15 0)
(400 -1.35489e-14 0)
(400 -1.5986e-14 0)
(400 -2.27997e-14 0)
(400 -2.58659e-14 0)
(400 -1.84523e-14 0)
(400 -2.48543e-14 0)
(400 -1.39814e-14 0)
(400 -1.68001e-14 0)
(400 -2.05176e-14 0)
(400 -2.10931e-14 0)
(400 -3.95414e-14 0)
(400 -3.63594e-14 0)
(400 -3.13545e-14 0)
(400 -3.58175e-14 0)
(400 -4.96345e-14 0)
(400 -5.6548e-14 0)
(400 -4.31856e-14 0)
(400 -3.7572e-14 0)
(400 -3.68355e-14 0)
(400 -2.63637e-14 0)
(400 -2.83999e-14 0)
(400 -1.44791e-14 0)
(400 1.16454e-14 0)
(400 -8.62748e-16 0)
(400 -1.51956e-14 0)
(400 -2.08001e-14 0)
(400 1.44809e-14 0)
(400 2.41716e-14 0)
(400 2.96513e-14 0)
(400 5.4693e-14 0)
(400 5.67188e-14 0)
(400 4.57715e-14 0)
(400 4.42073e-14 0)
(400 4.32403e-14 0)
(400 3.00029e-14 0)
(400 1.00926e-14 0)
(400 -3.30994e-15 0)
(400 -9.53766e-15 0)
(400 1.0238e-14 0)
(400 3.33138e-14 0)
(400 4.28918e-14 0)
(400 2.81581e-14 0)
(400 3.67146e-14 0)
(400 4.29317e-14 0)
(400 4.16993e-14 0)
(400 5.14153e-14 0)
(400 5.40334e-14 0)
(400 5.83341e-14 0)
(400 5.78078e-14 0)
(400 3.64377e-14 0)
(400 3.54883e-14 0)
(400 3.1132e-14 0)
(400 2.44602e-14 0)
(400 3.15684e-14 0)
(400 3.53133e-14 0)
(400 2.14517e-14 0)
(400 2.34242e-14 0)
(400 2.40983e-14 0)
(400 2.45761e-14 0)
(400 1.96879e-14 0)
(400 3.95401e-14 0)
(400 4.49698e-14 0)
(400 4.56764e-14 0)
(400 5.37157e-14 0)
(400 5.23317e-14 0)
(400 3.99027e-14 0)
(400 3.35356e-14 0)
(400 1.67628e-14 0)
(400 -7.23274e-15 0)
(400 -2.0155e-14 0)
(400 -2.41084e-14 0)
(400 -2.75889e-14 0)
(400 -3.59805e-14 0)
(400 -4.17876e-14 0)
(400 -3.99687e-14 0)
(400 -3.91277e-14 0)
(400 -2.85148e-14 0)
(400 -2.91224e-14 0)
(400 -4.25634e-14 0)
(400 -4.12027e-14 0)
(400 -4.0416e-14 0)
(400 -3.07943e-14 0)
(400 -1.89779e-14 0)
(400 -2.85234e-14 0)
(400 -2.40552e-14 0)
(400 -2.48412e-14 0)
(400 -3.12489e-14 0)
(400 -3.09083e-14 0)
(400 -3.96487e-14 0)
(400 -4.24023e-14 0)
(400 -4.54005e-14 0)
(400 -4.80054e-14 0)
(400 -4.6175e-14 0)
(400 -4.00879e-14 0)
(400 -2.63117e-14 0)
(400 -3.33751e-15 0)
(400 2.33743e-14 0)
(400 2.34246e-14 0)
(400 1.99223e-14 0)
(400 1.39914e-14 0)
(400 2.25218e-14 0)
(400 2.66153e-14 0)
(400 3.44764e-14 0)
(400 3.39668e-14 0)
(400 4.61082e-14 0)
(400 3.68585e-14 0)
(400 4.16743e-15 0)
(400 4.28409e-15 0)
(400 2.68903e-14 0)
(400 2.13495e-14 0)
(400 4.5835e-15 0)
(400 -1.41202e-14 0)
(400 -3.18344e-14 0)
(400 -3.29469e-14 0)
(400 -4.54625e-14 0)
(400 -5.17857e-14 0)
(400 -4.69653e-14 0)
(400 -4.776e-14 0)
(400 -5.29135e-14 0)
(400 -6.07622e-14 0)
(400 -6.79188e-14 0)
(400 -7.39533e-14 0)
(400 -8.8144e-14 0)
(400 -8.38199e-14 0)
(400 -7.91971e-14 0)
(400 -6.75804e-14 0)
(400 -5.75583e-14 0)
(400 -4.27555e-14 0)
(400 -4.19289e-14 0)
(400 -6.53382e-14 0)
(400 -5.81354e-14 0)
(400 -5.60999e-14 0)
(400 -5.51301e-14 0)
(400 -3.76195e-14 0)
(400 -4.93441e-14 0)
(400 -7.19011e-14 0)
(400 -5.18087e-14 0)
(400 -3.05547e-14 0)
(400 -8.89532e-15 0)
(400 1.34625e-14 0)
(400 4.12907e-14 0)
(400 4.90498e-14 0)
(400 4.53571e-14 0)
(400 4.47954e-14 0)
(400 2.57828e-14 0)
(400 1.17637e-14 0)
(400 2.41599e-14 0)
(400 3.54494e-14 0)
(400 3.30412e-14 0)
(400 3.04485e-14 0)
(400 2.27216e-14 0)
(400 1.33459e-14 0)
(400 3.94723e-15 0)
(400 5.23947e-15 0)
(400 -1.96043e-14 0)
(400 -3.41224e-14 0)
(400 -1.46589e-14 0)
(400 4.22832e-15 0)
(400 3.77424e-14 0)
(400 6.1287e-14 0)
(400 6.30364e-14 0)
(400 6.39803e-14 0)
(400 8.2123e-14 0)
(400 1.09913e-13 0)
(400 1.10763e-13 0)
(400 1.07271e-13 0)
(400 8.55302e-14 0)
(400 8.8094e-14 0)
(400 7.60472e-14 0)
(400 6.7371e-14 0)
(400 4.82439e-14 0)
(400 3.38403e-14 0)
(400 2.71457e-14 0)
(400 2.81313e-14 0)
(400 2.03896e-14 0)
(400 1.6477e-14 0)
(400 9.86756e-15 0)
(400 7.98439e-15 0)
(400 2.36611e-14 0)
(400 3.95078e-14 0)
(400 4.57669e-14 0)
(400 3.80829e-14 0)
(400 3.48898e-14 0)
(400 4.35457e-14 0)
(400 3.59246e-14 0)
(400 2.1844e-14 0)
(400 2.71754e-14 0)
(400 2.94113e-14 0)
(400 2.2248e-14 0)
(400 2.56242e-14 0)
(400 2.7988e-14 0)
(400 2.68731e-14 0)
(400 1.39095e-14 0)
(400 1.32033e-14 0)
(400 2.1797e-14 0)
(400 2.62283e-14 0)
(400 3.48631e-14 0)
(400 5.37101e-14 0)
(400 4.01521e-14 0)
(400 3.22237e-14 0)
(400 1.63036e-14 0)
(400 1.36382e-14 0)
(400 1.51875e-15 0)
(400 -5.1503e-15 0)
(400 -1.69411e-14 0)
(400 -2.3842e-14 0)
(400 -1.43385e-14 0)
(400 -1.31234e-14 0)
(400 -9.20298e-15 0)
(400 -7.0262e-15 0)
(400 -1.55985e-14 0)
(400 -1.31907e-14 0)
(400 -2.54483e-14 0)
(400 -2.8171e-14 0)
(400 -4.19417e-14 0)
(400 -3.88656e-14 0)
(400 -3.1451e-14 0)
(400 -3.15755e-14 0)
(400 -3.64933e-14 0)
(400 -5.02225e-14 0)
(400 -5.45392e-14 0)
(400 -3.68202e-14 0)
(400 -1.68164e-14 0)
(400 -1.9366e-14 0)
(400 -3.18212e-14 0)
(400 -4.07022e-14 0)
(400 6.68784e-15 0)
(400 1.36438e-14 0)
(400 1.02402e-14 0)
(400 2.63066e-14 0)
(400 4.12304e-14 0)
(400 2.45787e-14 0)
(400 2.09645e-14 0)
(400 1.18028e-14 0)
(400 7.45727e-16 0)
(400 -1.16972e-14 0)
(400 -1.08952e-14 0)
(400 -1.41437e-14 0)
(400 1.12478e-14 0)
(400 2.96841e-14 0)
(400 3.48092e-14 0)
(400 3.82812e-14 0)
(400 3.27677e-14 0)
(400 2.89691e-14 0)
(400 2.37053e-14 0)
(400 2.343e-14 0)
(400 3.19696e-14 0)
(400 3.38253e-14 0)
(400 4.35646e-14 0)
(400 4.06527e-14 0)
(400 4.63292e-14 0)
(400 5.26728e-14 0)
(400 2.89498e-14 0)
(400 1.16958e-14 0)
(400 9.04229e-15 0)
(400 -1.73371e-14 0)
(400 -2.30583e-14 0)
(400 -1.70387e-14 0)
(400 -1.61909e-14 0)
(400 -1.01337e-14 0)
(400 2.65819e-15 0)
(400 8.49656e-15 0)
(400 1.41082e-14 0)
(400 3.73607e-14 0)
(400 4.594e-14 0)
(400 3.50473e-14 0)
(400 3.83689e-14 0)
(400 2.62072e-14 0)
(400 1.09319e-14 0)
(400 -2.73948e-15 0)
(400 -1.06044e-14 0)
(400 -2.2905e-14 0)
(400 -3.00469e-14 0)
(400 -4.21725e-14 0)
(400 -4.58356e-14 0)
(400 -4.89555e-14 0)
(400 -4.59483e-14 0)
(400 -5.96747e-14 0)
(400 -5.91481e-14 0)
(400 -5.06219e-14 0)
(400 -5.11153e-14 0)
(400 -3.72672e-14 0)
(400 -2.80057e-14 0)
(400 -3.99259e-14 0)
(400 -6.40477e-14 0)
(400 -8.15047e-14 0)
(400 -8.92883e-14 0)
(400 -9.27014e-14 0)
(400 -8.82288e-14 0)
(400 -7.81192e-14 0)
(400 -6.50194e-14 0)
(400 -7.13273e-14 0)
(400 -5.98086e-14 0)
(400 -5.10373e-14 0)
(400 -2.83143e-14 0)
(400 -1.34631e-14 0)
(400 -2.86166e-16 0)
(400 1.0384e-14 0)
(400 2.4154e-14 0)
(400 4.06194e-14 0)
(400 4.78044e-14 0)
(400 4.92406e-14 0)
(400 4.74611e-14 0)
(400 3.96155e-14 0)
(400 3.41961e-14 0)
(400 3.30547e-14 0)
(400 3.01483e-14 0)
(400 3.20984e-14 0)
(400 3.111e-14 0)
(400 2.60174e-14 0)
(400 3.18816e-14 0)
(400 2.81383e-14 0)
(400 7.61215e-15 0)
(400 -1.93538e-14 0)
(400 -3.39412e-14 0)
(400 -2.37025e-14 0)
(400 -2.5304e-14 0)
(400 -2.32699e-14 0)
(400 -1.52671e-14 0)
(400 -2.64129e-14 0)
(400 -4.0891e-14 0)
(400 -5.9305e-14 0)
(400 -5.17365e-14 0)
(400 -5.0919e-14 0)
(400 -5.48078e-14 0)
(400 -4.37872e-14 0)
(400 -3.18527e-14 0)
(400 -5.92331e-15 0)
(400 8.69833e-15 0)
(400 -1.30726e-14 0)
(400 -7.77055e-15 0)
(400 8.08772e-15 0)
(400 1.32909e-14 0)
(400 4.83508e-15 0)
(400 -1.83433e-15 0)
(400 -1.07108e-15 0)
(400 1.40724e-14 0)
(400 3.30991e-14 0)
(400 3.49345e-14 0)
(400 5.24828e-14 0)
(400 6.73416e-14 0)
(400 6.247e-14 0)
(400 5.59598e-14 0)
(400 4.80002e-14 0)
(400 2.60924e-14 0)
(400 1.76678e-14 0)
(400 1.42907e-14 0)
(400 3.35566e-15 0)
(400 -2.39818e-15 0)
(400 5.19926e-15 0)
(400 4.12001e-15 0)
(400 4.92191e-15 0)
(400 1.37336e-14 0)
(400 2.67466e-14 0)
(400 2.12815e-14 0)
(400 1.49429e-14 0)
(400 3.48806e-14 0)
(400 4.68986e-14 0)
(400 4.98817e-14 0)
(400 4.5277e-14 0)
(400 3.78266e-14 0)
(400 5.03561e-14 0)
(400 7.6858e-14 0)
(400 9.56627e-14 0)
(400 9.60718e-14 0)
(400 9.22544e-14 0)
(400 7.72118e-14 0)
(400 9.4492e-14 0)
(400 9.59495e-14 0)
(400 7.6843e-14 0)
(400 6.04074e-14 0)
(400 4.87438e-14 0)
(400 5.26603e-14 0)
(400 3.95917e-14 0)
(400 2.01577e-14 0)
(400 1.02395e-14 0)
(400 9.19668e-15 0)
(400 9.16481e-15 0)
(400 3.00349e-15 0)
(400 -8.66456e-16 0)
(400 4.00619e-16 0)
(400 -7.88408e-19 0)
(400 4.33406e-15 0)
(400 1.4938e-14 0)
(400 1.56527e-14 0)
(400 2.66524e-14 0)
(400 3.09624e-14 0)
(400 2.84887e-14 0)
(400 1.73538e-14 0)
(400 7.1868e-15 0)
(400 5.11846e-15 0)
(400 -3.99039e-15 0)
(400 -1.06785e-14 0)
(400 -1.22178e-14 0)
(400 -6.59149e-15 0)
(400 5.65554e-15 0)
(400 1.18071e-14 0)
(400 9.55029e-15 0)
(400 1.22025e-14 0)
(400 8.46877e-15 0)
(400 8.42513e-15 0)
(400 6.70868e-15 0)
(400 -4.40567e-15 0)
(400 -6.75095e-16 0)
(400 -9.14034e-15 0)
(400 -9.22476e-15 0)
(400 -2.18341e-14 0)
(400 -2.02123e-14 0)
(400 -1.72662e-14 0)
(400 -1.04697e-14 0)
(400 4.4946e-15 0)
(400 -1.25361e-15 0)
(400 -9.61585e-15 0)
(400 -6.39089e-15 0)
(400 6.77403e-15 0)
(400 1.03655e-14 0)
(400 -4.68752e-15 0)
(400 -6.88375e-15 0)
(400 -6.16187e-15 0)
(400 -1.44995e-14 0)
(400 -1.2526e-14 0)
(400 -1.92336e-14 0)
(400 -1.71432e-14 0)
(400 -2.48778e-15 0)
(400 -2.66567e-15 0)
(400 1.97844e-16 0)
(400 -2.20572e-14 0)
(400 -2.73138e-14 0)
(400 -2.17679e-14 0)
(400 -2.10496e-14 0)
(400 -2.61158e-14 0)
(400 -3.1904e-14 0)
(400 -2.83863e-14 0)
(400 -3.71715e-14 0)
(400 -3.75287e-14 0)
(400 -3.20788e-14 0)
(400 -1.11337e-14 0)
(400 -2.50338e-16 0)
(400 2.80148e-15 0)
(400 1.4021e-14 0)
(400 2.44123e-14 0)
(400 3.56469e-14 0)
(400 2.70377e-14 0)
(400 2.01304e-14 0)
(400 1.59118e-14 0)
(400 1.6081e-15 0)
(400 -1.07304e-15 0)
(400 1.06018e-14 0)
(400 2.39632e-14 0)
(400 2.63621e-14 0)
(400 3.70939e-14 0)
(400 3.46364e-14 0)
(400 2.10306e-14 0)
(400 -6.74194e-15 0)
(400 -3.53263e-14 0)
(400 -5.49562e-14 0)
(400 -5.00732e-14 0)
(400 -4.06083e-14 0)
(400 -3.76488e-14 0)
(400 -3.84046e-14 0)
(400 -2.58713e-14 0)
(400 -1.94941e-14 0)
(400 -1.27744e-14 0)
(400 -3.36607e-15 0)
(400 9.16879e-15 0)
(400 3.72013e-14 0)
(400 4.31842e-14 0)
(400 3.49911e-14 0)
(400 4.66395e-14 0)
(400 3.74311e-14 0)
(400 2.92299e-14 0)
(400 2.1714e-14 0)
(400 1.07343e-14 0)
(400 -3.09336e-15 0)
(400 -1.14562e-14 0)
(400 -5.79414e-15 0)
(400 -2.10509e-14 0)
(400 -1.78121e-14 0)
(400 -1.41373e-14 0)
(400 -8.5114e-15 0)
(400 -4.79891e-15 0)
(400 -1.15617e-14 0)
(400 -1.36254e-14 0)
(400 -2.01816e-14 0)
(400 -3.31672e-14 0)
(400 -3.84505e-14 0)
(400 -3.07136e-14 0)
(400 -3.71618e-14 0)
(400 -4.566e-14 0)
(400 -4.82255e-14 0)
(400 -2.59679e-14 0)
(400 -9.76014e-15 0)
(400 1.74664e-15 0)
(400 1.09649e-14 0)
(400 2.44681e-14 0)
(400 3.27226e-14 0)
(400 2.35901e-14 0)
(400 4.28727e-14 0)
(400 5.60623e-14 0)
(400 7.44452e-14 0)
(400 8.7568e-14 0)
(400 7.69306e-14 0)
(400 7.8726e-14 0)
(400 6.59514e-14 0)
(400 5.79713e-14 0)
(400 5.82603e-14 0)
(400 6.03671e-14 0)
(400 5.69358e-14 0)
(400 3.30695e-14 0)
(400 3.241e-14 0)
(400 3.4227e-14 0)
(400 2.86126e-14 0)
(400 1.87042e-14 0)
(400 -5.98054e-15 0)
(400 -2.07545e-14 0)
(400 -2.72498e-14 0)
(400 -3.5371e-14 0)
(400 -3.56346e-14 0)
(400 -2.61369e-14 0)
(400 -1.56111e-14 0)
(400 -3.18877e-14 0)
(400 -5.80348e-14 0)
(400 -5.66369e-14 0)
(400 -6.2933e-14 0)
(400 -4.92051e-14 0)
(400 -4.60252e-14 0)
(400 -3.88241e-14 0)
(400 -2.27899e-14 0)
(400 4.21474e-15 0)
(400 2.39434e-14 0)
(400 6.35501e-15 0)
(400 1.08556e-14 0)
(400 1.77723e-14 0)
(400 9.34184e-16 0)
(400 4.70225e-16 0)
(400 1.2641e-14 0)
(400 1.84945e-14 0)
(400 2.83689e-14 0)
(400 1.9191e-14 0)
(400 1.96422e-14 0)
(400 1.81412e-14 0)
(400 4.8604e-15 0)
(400 -1.63215e-15 0)
(400 -1.93265e-14 0)
(400 -2.50982e-14 0)
(400 -2.04072e-14 0)
(400 -2.54317e-14 0)
(400 -2.49708e-14 0)
(400 -1.67865e-14 0)
(400 -8.11219e-16 0)
(400 3.42991e-15 0)
(400 1.73636e-14 0)
(400 2.80516e-14 0)
(400 2.60991e-14 0)
(400 3.75369e-14 0)
(400 4.53873e-14 0)
(400 4.37744e-14 0)
(400 4.52336e-14 0)
(400 3.47388e-14 0)
(400 2.17997e-14 0)
(400 5.56308e-15 0)
(400 2.38011e-14 0)
(400 5.36784e-14 0)
(400 4.99763e-14 0)
(400 5.08037e-14 0)
(400 3.88668e-14 0)
(400 6.08242e-14 0)
(400 8.86923e-14 0)
(400 9.44218e-14 0)
(400 8.98622e-14 0)
(400 7.97435e-14 0)
(400 8.27339e-14 0)
(400 9.17612e-14 0)
(400 7.63642e-14 0)
(400 6.0978e-14 0)
(400 4.1064e-14 0)
(400 3.90866e-14 0)
(400 5.85484e-14 0)
(400 4.87553e-14 0)
(400 2.69563e-14 0)
(400 2.36828e-14 0)
(400 3.6827e-14 0)
(400 5.96533e-14 0)
(400 6.54153e-14 0)
(400 6.56682e-14 0)
(400 6.7607e-14 0)
(400 6.09299e-14 0)
(400 4.94761e-14 0)
(400 4.62062e-14 0)
(400 3.93977e-14 0)
(400 3.09052e-14 0)
(400 3.42354e-14 0)
(400 3.5522e-14 0)
(400 3.85856e-14 0)
(400 4.96522e-14 0)
(400 6.46152e-14 0)
(400 8.31354e-14 0)
(400 7.62882e-14 0)
(400 8.18315e-14 0)
(400 6.80734e-14 0)
(400 6.45958e-14 0)
(400 7.02311e-14 0)
(400 6.63061e-14 0)
(400 6.38466e-14 0)
(400 5.1137e-14 0)
(400 4.33531e-14 0)
(400 3.79458e-14 0)
(400 3.73481e-14 0)
(400 2.60043e-14 0)
(400 1.96341e-14 0)
(400 2.94143e-14 0)
(400 2.42678e-14 0)
(400 3.26092e-14 0)
(400 4.24607e-14 0)
(400 5.63685e-14 0)
(400 4.56107e-14 0)
(400 2.86651e-14 0)
(400 2.37963e-14 0)
(400 3.14487e-14 0)
(400 3.13588e-14 0)
(400 3.08565e-14 0)
(400 2.85467e-14 0)
(400 2.42417e-14 0)
(400 2.57548e-14 0)
(400 2.2257e-14 0)
(400 2.02154e-14 0)
(400 -3.00628e-14 0)
(400 -3.23799e-14 0)
(400 -2.19782e-14 0)
(400 -2.54308e-14 0)
(400 -2.73037e-14 0)
(400 -2.83821e-14 0)
(400 -3.00451e-14 0)
(400 -2.26219e-14 0)
(400 -1.60467e-14 0)
(400 -2.1839e-15 0)
(400 -2.78287e-16 0)
(400 -8.49833e-15 0)
(400 -1.51657e-14 0)
(400 -3.81899e-15 0)
(400 1.69293e-14 0)
(400 3.2038e-14 0)
(400 3.51688e-14 0)
(400 2.2958e-14 0)
(400 2.91904e-14 0)
(400 3.85625e-14 0)
(400 5.04955e-14 0)
(400 6.42387e-14 0)
(400 6.51518e-14 0)
(400 4.88734e-14 0)
(400 3.94399e-14 0)
(400 2.96682e-14 0)
(400 2.66898e-14 0)
(400 3.05465e-15 0)
(400 -3.0635e-14 0)
(400 -4.11159e-14 0)
(400 -4.11118e-14 0)
(400 -3.66667e-14 0)
(400 -2.96341e-14 0)
(400 -3.38613e-14 0)
(400 -2.96885e-14 0)
(400 -2.02479e-14 0)
(400 -1.06518e-14 0)
(400 -3.15611e-14 0)
(400 -3.56611e-14 0)
(400 -2.51658e-14 0)
(400 -1.72278e-14 0)
(400 2.43215e-15 0)