 VARIABLES = "X",  "Y"
 ZONE N=        4881 , E=        9176 , F=FEPOINT, ET=QUADRILATERAL
       -2.0000000000       -0.1329130000
       -1.9789841941       -0.1249458374
       -1.9598545215       -0.1365043854
       -2.0000000000       -0.1087470000
       -1.9578481278       -0.1134360964
       -1.9786512654       -0.0993875087
       -1.9371599646       -0.1306651958
       -2.0000000000       -0.0845810000
       -1.9575049205       -0.0885120417
       -1.9368653108       -0.1027553493
       -1.9785858068       -0.0743480678
       -1.9158834278       -0.1151200945
       -1.9147428802       -0.1373418725
       -2.0000000000       -0.0604150000
       -1.9365038818       -0.0768590633
       -1.9574448415       -0.0631514693
       -1.9156729674       -0.0898635631
       -1.9786460551       -0.0494923379
       -1.8947203183       -0.1279473643
       -1.8941498694       -0.1031019147
       -2.0000000000       -0.0362490000
       -1.9153507343       -0.0644309126
       -1.9363667255       -0.0512239879
       -1.9574747019       -0.0378852055
       -1.8942172501       -0.0773655427
       -1.8737128019       -0.1403369805
       -1.9787103472       -0.0247666184
       -1.8727202861       -0.1157439880
       -1.8726260305       -0.0907127072
       -2.0000000000       -0.0120830000
       -1.9152383819       -0.0388296279
       -1.8941069795       -0.0518505470
       -1.9363560276       -0.0257457429
       -1.9575272454       -0.0127723209
       -1.8728950426       -0.0647594289
       -1.8507335886       -0.1287594900
       -1.9787507098       -0.0001203129
       -1.8511668220       -0.1034943047
       -1.8513831253       -0.0780117676
       -2.0000000000        0.0120830000
       -1.9152531009       -0.0132864559
       -1.8941004593       -0.0262545704
       -1.8729257585       -0.0391816912
       -1.9364082342       -0.0003821993
       -1.9575753318        0.0122868722
       -1.8517127521       -0.0520181767
       -1.8273046671       -0.1402943038
       -1.8294031111       -0.1156250050
       -1.9787590020        0.0245371589
       -1.8300784896       -0.0905430828
       -1.8302976593       -0.0650780043
       -2.0000000000        0.0362490000
       -1.9153470742        0.0122328429
       -1.8941833720       -0.0006976891
       -1.8730092937       -0.0136304394
       -1.8518188768       -0.0264904918
       -1.9364899282        0.0250211810
       -1.9575986156        0.0374518655
       -1.8306015905       -0.0392450269
       -1.8074057894       -0.1277083469
       -1.8087544235       -0.1026877149
       -1.9787206171        0.0492982090
       -1.8090851865       -0.0775790904
       -1.8092313533       -0.0521760570
       -2.0000000000        0.0604150000
       -1.8943413194        0.0249029330
       -1.9154979228        0.0378742611
       -1.8731633608        0.0118920407
       -1.8519708179       -0.0010410277
       -1.8307563270       -0.0138457645
       -1.9365865817        0.0506227955
       -1.9575844806        0.0628247521
       -1.8095067164       -0.0265366335
       -1.7876719473       -0.1370311809
       -1.7877539922       -0.1140582898
       -1.7878697133       -0.0898952710
       -1.9786445894        0.0742114899
       -1.7879984464       -0.0647986262
       -1.7881430563       -0.0393786611
       -2.0000000000        0.0845810000
       -1.8945596198        0.0506399953
       -1.8733891729        0.0374867798
       -1.9157073414        0.0636782668
       -1.8521949123        0.0243839979
       -1.8309689868        0.0114569136
       -1.8097090490       -0.0012753257
       -1.9367186397        0.0764593597
       -1.9575667889        0.0883292523
       -1.7884078050       -0.0138902571
       -1.7679916797       -0.1276793203
       -1.7668502212       -0.1027051828
       -1.7667555014       -0.0775759004
       -1.9786515207        0.0993044739
       -1.7668728938       -0.0521266512
       -1.7670458182       -0.0266135519
       -1.7479645283       -0.1402669881
       -2.0000000000        0.1087470000
       -1.8948080731        0.0764096639
       -1.8736633136        0.0631813679
       -1.8524980916        0.0498543539
       -1.9160103265        0.0894035397
       -1.8312663080        0.0366962009
       -1.8099794348        0.0238506497
       -1.7886581457        0.0112586598
       -1.9369591292        0.1026065145
       -1.9577137969        0.1133421129
       -1.7673040649       -0.0012331663
       -1.7460786621       -0.1156416156
       -1.7456160618       -0.0905619139
       -1.7456213875       -0.0650226911
       -1.9789348399        0.1249035680
       -1.7457648606       -0.0393521004
       -1.7459606209       -0.0137879561
       -1.7246675074       -0.1287405279
       -2.0000000000        0.1329130000
       -1.8738776953        0.0888813495
       -1.8949963467        0.1019266260
       -1.8528136046        0.0754084820
       -1.8316281371        0.0619137281
       -1.9163748783        0.1143371573
       -1.8103152605        0.0488624440
       -1.7889449256        0.0362647380
       -1.7675685128        0.0239100590
       -1.9373204962        0.1300531746
       -1.9598284978        0.1361792621
       -1.7461970528        0.0115851683
       -1.7243858649       -0.1035362382
       -1.7243355165       -0.0779887265
       -1.7244405499       -0.0522059705
       -1.9750101690        0.1570790000
       -1.7246127906       -0.0264340410
       -1.7248176904       -0.0008256340
       -1.7015470827       -0.1403348274
       -1.7026977054       -0.1157853805
       -2.0000000000        0.1570790000
       -1.8739466102        0.1142661690
       -1.8530065508        0.1009724340
       -1.8952390797        0.1271227209
       -1.8320136997        0.0869582726
       -1.8107577595        0.0735755883
       -1.9149804395        0.1367672277
       -1.7893331412        0.0609565405
       -1.7679071491        0.0487927649
       -1.7464987293        0.0367262312
       -1.9500203380        0.1570790000
       -1.7250639309        0.0245795857
       -1.7029201303       -0.0907515082
       -1.7030714551       -0.0650920966
       -1.7032500912       -0.0392066568
       -1.9250305070        0.1570790000
       -1.7034419759       -0.0133832609
       -1.7036413335        0.0122853519
       -1.6806661327       -0.1279450354
       -1.6812859193       -0.1032299697
       -1.8526282768        0.1266792552
       -1.8743073846        0.1396237965
       -1.8320955060        0.1117098847
       -1.9000406760        0.1570790000
       -1.8111775714        0.0978490412
       -1.7898168921        0.0851859707
       -1.7683517959        0.0733417400
       -1.7469374635        0.0616503488
       -1.7254064646        0.0497466228
       -1.7038649927        0.0377943763
       -1.6816039789       -0.0779201334
       -1.6818575922       -0.0520747222
       -1.6820740068       -0.0261094985
       -1.6822608282       -0.0002349461
       -1.6824222916        0.0255441033
       -1.6605540747       -0.1372823795
       -1.6594674524       -0.1153609658
       -1.6600312785       -0.0907306968
       -1.8500610140        0.1570790000
       -1.8309811029        0.1357984608
       -1.8750508450        0.1570790000
       -1.8109184076        0.1216369548
       -1.7903378097        0.1090052822
       -1.7689761987        0.0971861174
       -1.7476671613        0.0866360948
       -1.7259980490        0.0745583855
       -1.7041818466        0.0630717787
       -1.6825734816        0.0512621406
       -1.6604387251       -0.0650128911
       -1.6607165688       -0.0389810215
       -1.6609193157       -0.0129704607
       -1.6610653903        0.0129546515
       -1.6611518016        0.0388709147
       -1.6382421432       -0.1308931190
       -1.6387496526       -0.1040163554
       -1.6391254238       -0.0780133075
       -1.8250711830        0.1570790000
       -1.8106496292        0.1414637040
       -1.7881114382        0.1353609240
       -1.7714972607        0.1186057729
       -1.7488462259        0.1129356605
       -1.7271087119        0.0987055940
       -1.7047944349        0.0878894318
       -1.6827996890        0.0768998349
       -1.6611682549        0.0648260503
       -1.6394065648       -0.0519403123
       -1.6396164806       -0.0258512393
       -1.6397620963        0.0001364045
       -1.6398352914        0.0260761901
       -1.6398099205        0.0520836672
       -1.6177258412       -0.1152390572
       -1.6157405749       -0.1372159308
       -1.6179628437       -0.0905653107
       -1.6181652481       -0.0648232669
       -1.8000813520        0.1570790000
       -1.7623398761        0.1370577881
       -1.7269969974        0.1196144581
       -1.7065889656        0.1128167639
       -1.6834726255        0.1022668462
       -1.6611134185        0.0906954795
       -1.6396388264        0.0782366813
       -1.6183532181       -0.0387808878
       -1.6184947579       -0.0127793018
       -1.6185635102        0.0131097501
       -1.7750915210        0.1570790000
       -1.7376790373        0.1375234153
       -1.6185213545        0.0389770393
       -1.6182858875        0.0649237406
       -1.5966358096       -0.1029097130
       -1.5963253533       -0.1277388306
       -1.5969022181       -0.0775613709
       -1.5971010985       -0.0516928633
       -1.7501016900        0.1570790000
       -1.7130824418        0.1372409474
       -1.6863059701        0.1328865709
       -1.6607763354        0.1165005855
       -1.6392382348        0.1047544104
       -1.6176797685        0.0909638496
       -1.5753112527       -0.1401184035
       -1.5972487725       -0.0257107631
       -1.5973250319        0.0001448729
       -1.5972913698        0.0258646426
       -1.7251118590        0.1570790000
       -1.5970683028        0.0515336890
       -1.5964423200        0.0772599522
       -1.5754791561       -0.1152440379
       -1.5756656236       -0.0902282442
       -1.5758515230       -0.0645856910
       -1.5760082218       -0.0386458908
       -1.7001220280        0.1570790000
       -1.6623907494        0.1390344364
       -1.6386731671        0.1315081171
       -1.6165229896        0.1165275122
       -1.5947628275        0.1033812528
       -1.5544461913       -0.1276561230
       -1.5761042964       -0.0127677631
       -1.5761024537        0.0129055634
       -1.5759480948        0.0383831189
       -1.6751321970        0.1570790000
       -1.5755423521        0.0636676049
       -1.5746446989        0.0887346782
       -1.5544963950       -0.1028374390
       -1.5546109059       -0.0774819656
       -1.5547639836       -0.0516134482
       -1.5548824420       -0.0256667644
       -1.6501423660        0.1570790000
       -1.6149795119        0.1389210815
       -1.5903182473        0.1319637946
       -1.5723149356        0.1136094176
       -1.5348954310       -0.1370751192
       -1.5332075454       -0.1150882727
       -1.5549236990        0.0000836944
       -1.5548434266        0.0255784486
       -1.5545857279        0.0507992716
       -1.6251525349        0.1570790000
       -1.5540976335        0.0755818560
       -1.5534266137        0.0994765191
       -1.5333422287       -0.0904036198
       -1.5335133890       -0.0646398605
       -1.5336489179       -0.0386109918
       -1.5337308827       -0.0127113968
       -1.6001627039        0.1570790000
       -1.5639823822        0.1361729793
       -1.5527137450        0.1199536319
       -1.5124716429       -0.1306673440
       -1.5123434017       -0.1037744045
       -1.5337294022        0.0129310621
       -1.5336067943        0.0383356557
       -1.5333423378        0.0634918447
       -1.5751728729        0.1570790000
       -1.5330446802        0.0882530175
       -1.5337357120        0.1131187796
       -1.5123454143       -0.0777206115
       -1.5124210997       -0.0516090997
       -1.5125096773       -0.0255558018
       -1.5125666737        0.0002643287
       -1.5391017981        0.1366871481
       -1.4914382243       -0.1150298092
       -1.4900767947       -0.1370211080
       -1.4912268593       -0.0903371616
       -1.5125596439        0.0258611659
       -1.5124769266        0.0513181103
       -1.5123859152        0.0767095708
       -1.5501830419        0.1570790000
       -1.5125803564        0.1019924838
       -1.5136345341        0.1325894807
       -1.4911858628       -0.0645273034
       -1.4912496013       -0.0384391777
       -1.4913344038       -0.0124728370
       -1.4913993461        0.0132759973
       -1.5251932109        0.1570790000
       -1.4697612780       -0.1027625432
       -1.4700465393       -0.1275565096
       -1.4698050840       -0.0773187274
       -1.4914273339        0.0388836943
       -1.4914273324        0.0644069929
       -1.4914346008        0.0897428405
       -1.4911311714        0.1151976488
       -1.5002033799        0.1570790000
       -1.4699122505       -0.0513273697
       -1.4700285445       -0.0252718456
       -1.4490263372       -0.1400197569
       -1.4701338150        0.0006027002
       -1.4702242636        0.0263152158
       -1.4905088652        0.1385908966
       -1.4482765558       -0.0900888265
       -1.4481617340       -0.1152653423
       -1.4484867525       -0.0642193088
       -1.4703077409        0.0519490861
       -1.4703976500        0.0774947659
       -1.4704486147        0.1030116239
       -1.4706713085        0.1282313814
       -1.4752135489        0.1570790000
       -1.4486584434       -0.0381219258
       -1.4487900285       -0.0121364276
       -1.4260058121       -0.1281957003
       -1.4488976866        0.0136672751
       -1.4490048339        0.0393750322
       -1.4270086060       -0.0770824165
       -1.4266031651       -0.1028625332
       -1.4272555518       -0.0510017994
       -1.4491407791        0.0650222095
       -1.4493317230        0.0905247556
       -1.4496454410        0.1156445020
       -1.4500374868        0.1404627704
       -1.4274079792       -0.0249321198
       -1.4275040863        0.0009641632
       -1.4026236263       -0.1398258575
       -1.4047415520       -0.1149563638
       -1.4275799187        0.0267338014
       -1.4276846645        0.0524548981
       -1.4502237179        0.1570790000
       -1.4055275870       -0.0896921213
       -1.4058606751       -0.0638259896
       -1.4060260881       -0.0377671741
       -1.4278816774        0.0780590292
       -1.4282589999        0.1033067072
       -1.4287761619        0.1282986012
       -1.4252338869        0.1570790000
       -1.4060979250       -0.0117959540
       -1.4061120663        0.0140356905
       -1.3826935296       -0.1269400469
       -1.3840948852       -0.1018990936
       -1.4061260787        0.0398109808
       -1.4062248038        0.0655466013
       -1.3844946996       -0.0764781449
       -1.3846611259       -0.0506077181
       -1.3847112863       -0.0246256549
       -1.4064893416        0.0910600298
       -1.4069884122        0.1157493583
       -1.4093317033        0.1378297247
       -1.3846621622        0.0012624037
       -1.3845591089        0.0270715400
       -1.3628811730       -0.1363510554
       -1.3630268602       -0.1132716521
       -1.3631723853       -0.0889295183
       -1.3845143830        0.0528687861
       -1.3846955918        0.0786411961
       -1.4002440559        0.1570790000
       -1.3632989192       -0.0634504104
       -1.3633441844       -0.0375455485
       -1.3632621007       -0.0116191343
       -1.3852739219        0.1044987630
       -1.3863647713        0.1315642426
       -1.3630518681        0.0142183973
       -1.3627973623        0.0400127050
       -1.3431451507       -0.1269291931
       -1.3420444520       -0.1018388729
       -1.3419475999       -0.0764360015
       -1.3627063223        0.0657602253
       -1.3630612049        0.0912906523
       -1.3752542249        0.1570790000
       -1.3419781212       -0.0505938981
       -1.3419084909       -0.0246426277
       -1.3231079122       -0.1397495890
       -1.3416647594        0.0012193533
       -1.3640671378        0.1159914684
       -1.3638027847        0.1379389253
       -1.3412384122        0.0270081477
       -1.3407481155        0.0527762515
       -1.3211297883       -0.1147951850
       -1.3206435415       -0.0895526107
       -1.3205989452       -0.0637506309
       -1.3405448538        0.0784462167
       -1.3409156230        0.1038745740
       -1.3502643939        0.1570790000
       -1.3205603194       -0.0377886169
       -1.3203710259       -0.0119415889
       -1.2994632392       -0.1278844020
       -1.3199516764        0.0137821081
       -1.3424720795        0.1289297130
       -1.3192114574        0.0395049308
       -1.3182836261        0.0653135557
       -1.2991536773       -0.1025358609
       -1.2991356630       -0.0768333020
       -1.2991598160       -0.0509332084
       -1.3180046386        0.0910997851
       -1.3180762619        0.1172422264
       -1.3213153324        0.1415718678
       -1.2990646317       -0.0251473593
       -1.2987880510        0.0003703126
       -1.2762274845       -0.1395627007
       -1.2770691204       -0.1146172392
       -1.2982045140        0.0258381740
       -1.3252745629        0.1570790000
       -1.2969453481        0.0514502484
       -1.2953667162        0.0774458290
       -1.2774373687       -0.0894667555
       -1.2776240953       -0.0638438535
       -1.2777004105       -0.0382203923
       -1.2945982473        0.1046415606
       -1.2925613484        0.1329972642
       -1.3002847319        0.1570790000
       -1.2775181235       -0.0128738165
       -1.2772289204        0.0119852488
       -1.2541721773       -0.1264743591
       -1.2553882430       -0.1014308271
       -1.2763878599        0.0370050154
       -1.2734935334        0.0622422696
       -1.2669265433        0.0914507087
       -1.2558645870       -0.0762361574
       -1.2561876754       -0.0509940993
       -1.2563660937       -0.0258718864
       -1.2736451094        0.1156474229
       -1.2642316403        0.1351558207
       -1.2752949009        0.1570790000
       -1.2557396871       -0.0009798396
       -1.2559981567        0.0225356865
       -1.2313075914       -0.1353977980
       -1.2331501899       -0.1119926041
       -1.2338724446       -0.0878484004
       -1.2548200824        0.0463695124
       -1.2479440003        0.0709089121
       -1.2516452832        0.1136293997
       -1.2343986412       -0.0632234937
       -1.2349977788       -0.0385892923
       -1.2355974526       -0.0141333270
       -1.2503050699        0.1570790000
       -1.2388393519        0.0929123780
       -1.2328903160        0.0112365844
       -1.2388498233        0.0322666266
       -1.2104745078       -0.1405579471
       -1.2104721515       -0.1220126786
       -1.2117110171       -0.0990027810
       -1.2123650504       -0.0749167294
       -1.2315330796        0.0523627055
       -1.2383238310        0.1354563186
       -1.2232526096        0.0734472972
       -1.2259191006        0.1147176026
       -1.2131501304       -0.0506743339
       -1.2140195299       -0.0264375187
       -1.2159044579       -0.0049896064
       -1.2253152389        0.1570790000
       -1.2126034117        0.0944637549
       -1.2181468939        0.0325212730
       -1.1889033751       -0.1348687353
       -1.1898487354       -0.1108004534
       -1.1907394819       -0.0868426878
       -1.1909579133       -0.0624162626
       -1.2051818367        0.0123520663
       -1.2082821312        0.0536045021
       -1.2133435064        0.1359670636
       -1.1982219584        0.0746569573
       -1.2006075903        0.1156356001
       -1.1918294363       -0.0374674443
       -1.1922844979       -0.0099583515
       -1.2003254079        0.1570790000
       -1.1871020262        0.0955102290
       -1.1943952442        0.0332979408
       -1.1653572132       -0.1406304614
       -1.1671537145       -0.1215742654
       -1.1692301559       -0.0986996024
       -1.1695786634       -0.0751603332
       -1.1653271327       -0.0485688432
       -1.1811843083        0.0127678323
       -1.1840054741        0.0545969481
       -1.1880607410        0.1365764949
       -1.1732213945        0.0756876353
       -1.1751891343        0.1164551830
       -1.1734217886       -0.0256167697
       -1.1666452387       -0.0061007887
       -1.1753355769        0.1570790000
       -1.1618437157        0.0964914268
       -1.1702637528        0.0344779835
       -1.1454576443       -0.1349439112
       -1.1427835381       -0.1096876906
       -1.1514441782       -0.0879706583
       -1.1462660398       -0.0673755443
       -1.1521271913       -0.0264688734
       -1.1563937660        0.0147736839
       -1.1593850413        0.0558160829
       -1.1629060463        0.1370457795
       -1.1482422446        0.0768669563
       -1.1500528084        0.1172220807
       -1.1385243856       -0.0460351141
       -1.1420653104       -0.0048442172
       -1.1503457459        0.1570790000
       -1.1368204870        0.0975660806
       -1.1455786386        0.0360434197
       -1.1244331524       -0.1274946483
       -1.1311172800       -0.0870896994
       -1.1227319849       -0.0651965927
       -1.1278856739       -0.0246180188
       -1.1315828346        0.0163848552
       -1.1345372500        0.0572616220
       -1.1380044698        0.1374454545
       -1.1232917841        0.0782670431
       -1.1252846885        0.1180379866
       -1.1082449890       -0.1408881025
       -1.1176234376       -0.1056565534
       -1.1133673470       -0.0439309863
       -1.1174229778       -0.0032342988
       -1.1253559149        0.1570790000
       -1.1119940941        0.0988605633
       -1.1207347483        0.0376472079
       -1.1016463393       -0.1219237713
       -1.1078878949       -0.0842132023
       -1.0983777801       -0.0630380258
       -1.1030957185       -0.0227552071
       -1.1067826300        0.0180142318
       -1.1096430654        0.0589001588
       -1.1134884074        0.1379204840
       -1.0983902489        0.0800120938
       -1.1009234236        0.1191100985
       -1.0874335658       -0.1392470796
       -1.0929886353       -0.1022636033
       -1.0884794097       -0.0420537765
       -1.0926354224       -0.0015925307
       -1.1003660839        0.1570790000
       -1.0872388190        0.1007280717
       -1.0959281158        0.0393290789
       -1.0779039330       -0.1200313315
       -1.0834284703       -0.0818611319
       -1.0736391513       -0.0612057425
       -1.0782507308       -0.0210950994
       -1.0820418787        0.0196124816
       -1.0848657823        0.0607745957
       -1.0899809899        0.1386825066
       -1.0736061404        0.0823368489
       -1.0772916417        0.1209484292
       -1.0638584486       -0.1383422719
       -1.0684580783       -0.1004095967
       -1.0636358666       -0.0404712040
       -1.0678932564       -0.0000845307
       -1.0753762529        0.1570790000
       -1.0626326765        0.1038138771
       -1.0713178366        0.0410105868
       -1.0537526820       -0.1190081470
       -1.0587435654       -0.0802364114
       -1.0488732431       -0.0597764567
       -1.0534899680       -0.0196688020
       -1.0574652499        0.0210718200
       -1.0604443483        0.0627168893
       -1.0690678220        0.1402953533
       -1.0494117177        0.0847773156
       -1.0546388492        0.1268376271
       -1.0395186542       -0.1378394284
       -1.0439218749       -0.0992417552
       -1.0388948136       -0.0391632344
       -1.0432767707        0.0012512998
       -1.0503864219        0.1570790000
       -1.0372497343        0.1075655439
       -1.0470057619        0.0424526455
       -1.0293117561       -0.1183023185
       -1.0340776013       -0.0790624465
       -1.0241874225       -0.0586345485
       -1.0288477248       -0.0184235077
       -1.0330389192        0.0223492975
       -1.0366864651        0.0638601162
       -1.0264165768        0.0846134010
       -1.0321731478        0.1353403686
       -1.0148642741       -0.1375218701
       -1.0193411328       -0.0983895474
       -1.0142549671       -0.0380302256
       -1.0187640430        0.0024809278
       -1.0154415377        0.1007972812
       -1.0130406367        0.1213388418
       -1.0228887952        0.0435250043
       -1.0046963336       -0.1177654248
       -1.0094425295       -0.0781334677
       -0.9995578767       -0.0576464266
       -1.0042905298       -0.0172548209
       -1.0087165497        0.0235450965
       -1.0126744774        0.0645825079
       -1.0253965909        0.1570790000
       -1.0028112670        0.0847720297
       -1.0124604036        0.1399778412
       -0.9900754650       -0.1372921640
       -0.9947052019       -0.0976967490
       -0.9896700049       -0.0369601916
       -0.9943427485        0.0037085215
       -0.9944718818        0.1072981319
       -0.9894224830        0.1321925762
       -0.9985885218        0.0448413937
       -0.9799781091       -0.1173185259
       -0.9848021804       -0.0773176787
       -0.9749413778       -0.0567043399
       -0.9798043644       -0.0160789510
       -0.9843380753        0.0249956936
       -0.9889908018        0.0659706973
       -1.0004067599        0.1570790000
       -0.9794033237        0.0883004997
       -0.9754169289        0.1570790000
       -0.9652194067       -0.1371009015
       -0.9700130346       -0.0970708722
       -0.9651262405       -0.0358805479
       -0.9699136306        0.0051094980
       -0.9711592652        0.1113574761
       -0.9617544724        0.1334563713
       -0.9748551448        0.0462966921
       -0.9551931947       -0.1169035553
       -0.9601369484       -0.0765250646
       -0.9503385342       -0.0557441370
       -0.9553217192       -0.0147838838
       -0.9604959544        0.0263485415
       -0.9651038815        0.0684812053
       -0.9559182267        0.0910507275
       -0.9504270979        0.1570790000
       -0.9403243160       -0.1369162005
       -0.9452766617       -0.0964472893
       -0.9405900380       -0.0347060703
       -0.9459393425        0.0063565028
       -0.9467462931        0.1131887661
       -0.9365290700        0.1342317853
       -0.9507647998        0.0483390009
       -0.9303676238       -0.1164781643
       -0.9354676599       -0.0757042799
       -0.9257487501       -0.0547004568
       -0.9312222074       -0.0136261838
       -0.9362498193        0.0281465148
       -0.9413267005        0.0706648444
       -0.9320717511        0.0928620022
       -0.9254372669        0.1570790000
       -0.9154071236       -0.1367162293
       -0.9205289818       -0.0957906159
       -0.9163812004       -0.0336333437
       -0.9215680912        0.0080152262
       -0.9224694383        0.1144243942
       -0.9119309349        0.1351410966
       -0.9267591478        0.0502696636
       -0.9055309399       -0.1160203961
       -0.9108163412       -0.0748115487
       -0.9014377167       -0.0537286368
       -0.9067571822       -0.0120659904
       -0.9120746744        0.0299672224
       -0.9174681231        0.0724738014
       -0.9081417046        0.0943770960
       -0.9004474358        0.1570790000
       -0.8904842327       -0.1364876492
       -0.8957991944       -0.0950774782
       -0.8918422787       -0.0321729465
       -0.8972774950        0.0097762289
       -0.8984211152        0.1156399862
       -0.8877796885        0.1362491865
       -0.9027678843        0.0521268902
       -0.8807069943       -0.1155175677
       -0.8863935072       -0.0739745233
       -0.8768245243       -0.0523990930
       -0.8823882730       -0.0103679057
       -0.8879667757        0.0318770559
       -0.8935443684        0.0742688575
       -0.8842573867        0.0960375893
       -0.8754576048        0.1570790000
       -0.8655702525       -0.1362125900
       -0.8712431796       -0.0944119108
       -0.8674075273       -0.0305707511
       -0.8730912556        0.0116947653
       -0.8747515977        0.1171287484
       -0.8645092776        0.1376979179
       -0.8787647050        0.0541706006
       -0.8560020677       -0.1150425387
       -0.8616874433       -0.0728228859
       -0.8523145628       -0.0509439510
       -0.8581415677       -0.0084987614
       -0.8639058513        0.0340510038
       -0.8696013276        0.0764418738
       -0.8604639220        0.0983433828
       -0.8504677738        0.1570790000
       -0.8407312272       -0.1359025619
       -0.8464242282       -0.0934754182
       -0.8430980141       -0.0288073101
       -0.8489837943        0.0138720572
       -0.8515663595        0.1194348760
       -0.8437740188        0.1398224795
       -0.8547915609        0.0566653548
       -0.8310832372       -0.1143203343
       -0.8370834070       -0.0715680374
       -0.8279312393       -0.0493425774
       -0.8339798318       -0.0063966877
       -0.8399131470        0.0366007230
       -0.8457521777        0.0794069493
       -0.8369479368        0.1022236687
       -0.8254779428        0.1570790000
       -0.8158528684       -0.1352793016
       -0.8217219749       -0.0924403995
       -0.8188755866       -0.0268283981
       -0.8249401006        0.0163444352
       -0.8292363546        0.1255466930
       -0.8309548018        0.0596913266
       -0.8063268622       -0.1134418914
       -0.8126218590       -0.0701713077
       -0.8036535264       -0.0475246223
       -0.8098703239       -0.0040384509
       -0.8160135295        0.0394782527
       -0.8222364832        0.0830855452
       -0.8141423310        0.1067403381
       -0.8071999610        0.1306601819
       -0.7910913277       -0.1344003605
       -0.7972001669       -0.0912408531
       -0.7947146782       -0.0245913866
       -0.8009374819        0.0190625129
       -0.8004881118        0.1570790000
       -0.8073059662        0.0629888255
       -0.7817670787       -0.1123639369
       -0.7883138894       -0.0685305978