/*--------------------------------*- C++ -*----------------------------------*\
  =========                 |
  \\      /  F ield         | OpenFOAM: The Open Source CFD Toolbox
   \\    /   O peration     | Website:  https://openfoam.org
    \\  /    A nd           | Version:  6
     \\/     M anipulation  |
\*---------------------------------------------------------------------------*/
FoamFile
{
    version     2.0;
    format      ascii;
    class       volScalarField;
    location    "150";
    object      p;
}
// * * * * * * * * * * * * * * * * * * * * * * * * * * * * * * * * * * * * * //

dimensions      [0 2 -2 0 0 0 0];

internalField   nonuniform List<scalar> 
4000
(
-1.63018e-09
-1.61685e-09
-1.58031e-09
-1.56658e-09
-1.55916e-09
-1.54121e-09
-1.53501e-09
-1.53588e-09
-1.52722e-09
-1.52359e-09
-1.53326e-09
-1.52541e-09
-1.51081e-09
-1.51475e-09
-1.52647e-09
-1.52792e-09
-1.50369e-09
-1.48274e-09
-1.48924e-09
-1.46973e-09
-1.45176e-09
-1.45698e-09
-1.44343e-09
-1.42712e-09
-1.4164e-09
-1.39446e-09
-1.39577e-09
-1.37217e-09
-1.35891e-09
-1.36379e-09
-1.35508e-09
-1.35195e-09
-1.34143e-09
-1.34472e-09
-1.33223e-09
-1.31175e-09
-1.29668e-09
-1.27304e-09
-1.2433e-09
-1.2318e-09
-1.20473e-09
-1.1871e-09
-1.16669e-09
-1.15189e-09
-1.13774e-09
-1.12992e-09
-1.13369e-09
-1.13779e-09
-1.13834e-09
-1.14417e-09
-1.15205e-09
-1.16534e-09
-1.17331e-09
-1.17224e-09
-1.17143e-09
-1.16139e-09
-1.1448e-09
-1.12274e-09
-1.11042e-09
-1.09315e-09
-1.08024e-09
-1.07362e-09
-1.07327e-09
-1.07249e-09
-1.0639e-09
-1.05149e-09
-1.04269e-09
-1.04171e-09
-1.04012e-09
-1.03192e-09
-1.03039e-09
-1.04858e-09
-1.06153e-09
-1.05199e-09
-1.03117e-09
-1.04748e-09
-1.05118e-09
-1.05639e-09
-1.05703e-09
-1.05229e-09
-1.04321e-09
-1.01614e-09
-9.87235e-10
-9.91182e-10
-9.96029e-10
-9.74778e-10
-9.6475e-10
-9.63656e-10
-9.651e-10
-9.68378e-10
-9.64521e-10
-9.47494e-10
-9.48117e-10
-9.51364e-10
-9.49855e-10
-9.61234e-10
-9.6217e-10
-9.80373e-10
-9.81644e-10
-9.70073e-10
-9.68842e-10
-9.65856e-10
-9.69778e-10
-9.68985e-10
-9.69198e-10
-9.56627e-10
-9.36993e-10
-9.27038e-10
-9.05797e-10
-8.82988e-10
-8.62181e-10
-8.45967e-10
-8.40063e-10
-8.28322e-10
-8.19081e-10
-8.02217e-10
-7.79503e-10
-7.65342e-10
-7.5019e-10
-7.35919e-10
-7.19107e-10
-7.12846e-10
-7.0219e-10
-6.95795e-10
-7.04854e-10
-7.1504e-10
-7.17997e-10
-7.02456e-10
-6.88055e-10
-6.65587e-10
-6.52806e-10
-6.2364e-10
-5.91378e-10
-5.72862e-10
-5.40895e-10
-5.26997e-10
-4.97513e-10
-4.69908e-10
-4.407e-10
-4.06272e-10
-3.81319e-10
-3.5948e-10
-3.38855e-10
-3.07365e-10
-2.68379e-10
-2.36119e-10
-1.97722e-10
-1.5651e-10
-1.36343e-10
-1.07959e-10
-8.49936e-11
-4.78899e-11
-2.84169e-11
-1.32958e-11
3.35569e-12
2.26129e-11
2.53247e-11
2.5194e-11
4.18965e-11
6.35199e-11
7.08518e-11
7.04098e-11
7.65292e-11
8.11118e-11
8.61886e-11
8.59227e-11
8.90625e-11
8.30006e-11
8.38759e-11
7.80487e-11
6.25357e-11
4.84434e-11
4.26827e-11
1.31091e-11
-2.9e-13
-2.49748e-11
-3.75736e-11
-4.07287e-11
-4.50196e-11
-3.01799e-11
-1.30255e-11
6.26356e-12
2.03752e-11
2.35929e-11
2.56658e-11
3.22892e-11
3.80539e-11
4.87092e-11
5.36246e-11
5.16844e-11
6.27659e-11
5.23026e-11
4.37367e-11
4.48004e-11
3.27101e-11
2.64601e-11
2.83286e-11
3.12797e-11
1.90625e-11
1.20441e-11
-1.63914e-09
-1.61529e-09
-1.58391e-09
-1.56122e-09
-1.54968e-09
-1.53626e-09
-1.52744e-09
-1.52234e-09
-1.51058e-09
-1.50303e-09
-1.52042e-09
-1.51597e-09
-1.49676e-09
-1.50029e-09
-1.51233e-09
-1.52295e-09
-1.50608e-09
-1.49487e-09
-1.49869e-09
-1.49015e-09
-1.47485e-09
-1.4742e-09
-1.45304e-09
-1.43322e-09
-1.42401e-09
-1.40471e-09
-1.39824e-09
-1.38192e-09
-1.36976e-09
-1.36572e-09
-1.36045e-09
-1.34967e-09
-1.34535e-09
-1.33343e-09
-1.32355e-09
-1.31417e-09
-1.28365e-09
-1.26094e-09
-1.23958e-09
-1.22574e-09
-1.20113e-09
-1.17506e-09
-1.15307e-09
-1.13884e-09
-1.12843e-09
-1.12544e-09
-1.12702e-09
-1.13387e-09
-1.13743e-09
-1.15024e-09
-1.16075e-09
-1.17382e-09
-1.18352e-09
-1.18412e-09
-1.16931e-09
-1.15514e-09
-1.14297e-09
-1.12802e-09
-1.11613e-09
-1.10016e-09
-1.08341e-09
-1.06785e-09
-1.0638e-09
-1.06408e-09
-1.05995e-09
-1.05379e-09
-1.04251e-09
-1.03731e-09
-1.04165e-09
-1.03946e-09
-1.04466e-09
-1.05102e-09
-1.05733e-09
-1.05513e-09
-1.03905e-09
-1.04771e-09
-1.05924e-09
-1.06669e-09
-1.05755e-09
-1.0454e-09
-1.04763e-09
-1.03101e-09
-1.00086e-09
-9.97188e-10
-9.87513e-10
-9.73409e-10
-9.63868e-10
-9.54502e-10
-9.55673e-10
-9.50859e-10
-9.59812e-10
-9.56829e-10
-9.46494e-10
-9.47768e-10
-9.53926e-10
-9.64537e-10
-9.57875e-10
-9.8573e-10
-9.87071e-10
-9.8211e-10
-9.75324e-10
-9.65315e-10
-9.6881e-10
-9.78799e-10
-9.68161e-10
-9.48886e-10
-9.33908e-10
-9.26858e-10
-9.11731e-10
-8.82284e-10
-8.6795e-10
-8.58173e-10
-8.50679e-10
-8.39643e-10
-8.28656e-10
-8.11914e-10
-7.88023e-10
-7.71737e-10
-7.59339e-10
-7.37115e-10
-7.10714e-10
-7.03771e-10
-7.07868e-10
-7.01319e-10
-7.19773e-10
-7.27501e-10
-7.2516e-10
-7.11851e-10
-6.90308e-10
-6.76307e-10
-6.56532e-10
-6.18491e-10
-5.84676e-10
-5.8651e-10
-5.65195e-10
-5.3989e-10
-5.07211e-10
-4.8273e-10
-4.50478e-10
-4.14268e-10
-3.84635e-10
-3.73035e-10
-3.55073e-10
-3.18881e-10
-2.75372e-10
-2.43514e-10
-2.12657e-10
-1.71487e-10
-1.34994e-10
-1.00229e-10
-6.99964e-11
-3.92264e-11
-2.21289e-11
5.93027e-13
1.58619e-11
3.39843e-11
2.77772e-11
2.80744e-11
4.03746e-11
5.6549e-11
6.1399e-11
6.46577e-11
7.48229e-11
8.51734e-11
9.37472e-11
8.78532e-11
9.78439e-11
9.92976e-11
9.54924e-11
8.84119e-11
6.69578e-11
5.222e-11
4.02022e-11
2.45349e-11
1.02068e-11
-1.66558e-11
-4.7976e-11
-5.78722e-11
-4.67504e-11
-2.99688e-11
-2.3568e-11
-1.79203e-11
1.36424e-11
2.74346e-11
3.12721e-11
2.84934e-11
3.44716e-11
5.37653e-11
5.72706e-11
4.82586e-11
5.07928e-11
5.90932e-11
5.71832e-11
4.99007e-11
3.35418e-11
2.67579e-11
4.09644e-11
3.67479e-11
1.94052e-11
8.69308e-12
-1.62136e-09
-1.61191e-09
-1.58975e-09
-1.57471e-09
-1.56087e-09
-1.54269e-09
-1.5233e-09
-1.51789e-09
-1.50349e-09
-1.49397e-09
-1.50408e-09
-1.50315e-09
-1.47697e-09
-1.49497e-09
-1.51732e-09
-1.50967e-09
-1.50458e-09
-1.50553e-09
-1.50124e-09
-1.50359e-09
-1.49094e-09
-1.4778e-09
-1.46242e-09
-1.4447e-09
-1.41999e-09
-1.40051e-09
-1.40039e-09
-1.38586e-09
-1.36921e-09
-1.361e-09
-1.36062e-09
-1.34403e-09
-1.33388e-09
-1.32271e-09
-1.30028e-09
-1.30524e-09
-1.28152e-09
-1.24881e-09
-1.22572e-09
-1.21055e-09
-1.17681e-09
-1.15055e-09
-1.13885e-09
-1.13342e-09
-1.12232e-09
-1.13533e-09
-1.13371e-09
-1.1392e-09
-1.1459e-09
-1.16144e-09
-1.18994e-09
-1.2003e-09
-1.19894e-09
-1.18385e-09
-1.16555e-09
-1.15313e-09
-1.14339e-09
-1.12838e-09
-1.11765e-09
-1.09914e-09
-1.08189e-09
-1.0605e-09
-1.0557e-09
-1.05558e-09
-1.05565e-09
-1.04239e-09
-1.03391e-09
-1.03811e-09
-1.03797e-09
-1.04144e-09
-1.04451e-09
-1.0476e-09
-1.05168e-09
-1.0573e-09
-1.05441e-09
-1.05182e-09
-1.05533e-09
-1.07279e-09
-1.06352e-09
-1.05171e-09
-1.04243e-09
-1.03431e-09
-1.00528e-09
-9.96866e-10
-9.80127e-10
-9.67208e-10
-9.49787e-10
-9.52501e-10
-9.65759e-10
-9.53693e-10
-9.52469e-10
-9.59785e-10
-9.52029e-10
-9.68191e-10
-9.65931e-10
-9.74788e-10
-9.72481e-10
-9.8132e-10
-1.00143e-09
-9.92138e-10
-9.83636e-10
-9.75469e-10
-9.7097e-10
-9.89039e-10
-9.69208e-10
-9.36528e-10
-9.30341e-10
-9.30912e-10
-9.10029e-10
-8.80396e-10
-8.70458e-10
-8.70094e-10
-8.54249e-10
-8.42356e-10
-8.27344e-10
-8.14101e-10
-8.01086e-10
-7.74101e-10
-7.54421e-10
-7.33291e-10
-7.11952e-10
-7.06156e-10
-7.07396e-10
-7.12111e-10
-7.29948e-10
-7.34119e-10
-7.25674e-10
-7.06103e-10
-6.95123e-10
-6.81928e-10
-6.47351e-10
-6.26615e-10
-5.84177e-10
-5.74213e-10
-5.70098e-10
-5.53597e-10
-5.12258e-10
-4.8222e-10
-4.55963e-10
-4.24472e-10
-4.13967e-10
-3.82646e-10
-3.52127e-10
-3.2679e-10
-2.83145e-10
-2.40971e-10
-2.10366e-10
-1.86961e-10
-1.5037e-10
-1.08918e-10
-6.13409e-11
-3.82706e-11
-2.43897e-11
5.60892e-12
1.73293e-11
2.38731e-11
2.67917e-11
2.56487e-11
3.98683e-11
5.33245e-11
5.98234e-11
6.1503e-11
7.48763e-11
9.13707e-11
1.04219e-10
9.6123e-11
1.07314e-10
1.11937e-10
1.1542e-10
1.03235e-10
6.55961e-11
5.15379e-11
3.94401e-11
3.22563e-11
2.5671e-11
-1.2337e-11
-3.92708e-11
-6.30283e-11
-5.57965e-11
-5.03106e-11
-4.38284e-11
-2.24561e-11
8.55835e-12
2.67904e-11
3.19819e-11
2.04714e-11
2.41025e-11
4.67731e-11
4.5798e-11
4.93211e-11
6.15961e-11
5.9793e-11
5.53288e-11
5.3032e-11
4.53463e-11
4.96977e-11
4.83458e-11
3.09952e-11
1.15634e-11
-4.27279e-12
-1.61176e-09
-1.60524e-09
-1.59216e-09
-1.57716e-09
-1.56004e-09
-1.54746e-09
-1.52895e-09
-1.5148e-09
-1.50032e-09
-1.49001e-09
-1.49749e-09
-1.4956e-09
-1.47371e-09
-1.49192e-09
-1.5081e-09
-1.5029e-09
-1.49116e-09
-1.50221e-09
-1.50407e-09
-1.4949e-09
-1.48769e-09
-1.47686e-09
-1.47021e-09
-1.46899e-09
-1.43968e-09
-1.41761e-09
-1.39895e-09
-1.37343e-09
-1.36726e-09
-1.36105e-09
-1.35274e-09
-1.33065e-09
-1.32343e-09
-1.31654e-09
-1.28249e-09
-1.28988e-09
-1.28273e-09
-1.24845e-09
-1.21153e-09
-1.18353e-09
-1.17111e-09
-1.1593e-09
-1.14192e-09
-1.13929e-09
-1.12364e-09
-1.1476e-09
-1.14542e-09
-1.15048e-09
-1.1653e-09
-1.17474e-09
-1.19324e-09
-1.21143e-09
-1.20609e-09
-1.17677e-09
-1.16816e-09
-1.15722e-09
-1.14873e-09
-1.13954e-09
-1.11904e-09
-1.10821e-09
-1.0888e-09
-1.05911e-09
-1.05482e-09
-1.03884e-09
-1.03708e-09
-1.02757e-09
-1.03869e-09
-1.04268e-09
-1.04329e-09
-1.04414e-09
-1.04227e-09
-1.04317e-09
-1.05607e-09
-1.06189e-09
-1.05868e-09
-1.05536e-09
-1.05831e-09
-1.07488e-09
-1.0594e-09
-1.06491e-09
-1.04565e-09
-1.02219e-09
-9.95986e-10
-9.85722e-10
-9.73622e-10
-9.67296e-10
-9.61642e-10
-9.67021e-10
-9.73602e-10
-9.62236e-10
-9.5883e-10
-9.53871e-10
-9.60105e-10
-9.67891e-10
-9.74329e-10
-9.81289e-10
-9.7485e-10
-9.87503e-10
-1.00281e-09
-9.95088e-10
-9.90235e-10
-9.85672e-10
-9.96798e-10
-9.80943e-10
-9.52811e-10
-9.34721e-10
-9.24246e-10
-9.2817e-10
-8.99651e-10
-8.76982e-10
-8.75882e-10
-8.86559e-10
-8.67822e-10
-8.47177e-10
-8.30844e-10
-8.15458e-10
-7.96188e-10
-7.80579e-10
-7.53619e-10
-7.34602e-10
-7.24958e-10
-7.13672e-10
-7.06619e-10
-7.12397e-10
-7.26166e-10
-7.3241e-10
-7.30426e-10
-7.15788e-10
-7.0249e-10
-6.85422e-10
-6.59962e-10
-6.32335e-10
-6.0106e-10
-5.69288e-10
-5.57171e-10
-5.47863e-10
-5.23761e-10
-4.95445e-10
-4.63859e-10
-4.36058e-10
-4.09938e-10
-3.82212e-10
-3.55584e-10
-3.31942e-10
-2.78714e-10
-2.44127e-10
-2.1455e-10
-1.90461e-10
-1.55586e-10
-1.11897e-10
-6.70709e-11
-5.00701e-11
-1.5246e-11
-1.14402e-13
1.65985e-11
2.5741e-11
4.08866e-11
2.31652e-11
4.75404e-11
7.11607e-11
6.51496e-11
6.29999e-11
7.98841e-11
1.02552e-10
1.10992e-10
1.10332e-10
1.22265e-10
1.1313e-10
1.16604e-10
9.71297e-11
6.11228e-11
5.53336e-11
4.49914e-11
3.6063e-11
3.2067e-11
2.56374e-12
-2.67611e-11
-5.45566e-11
-5.47755e-11
-5.61492e-11
-5.1155e-11
-2.94698e-11
5.49957e-12
4.64691e-12
1.13e-11
1.46528e-11
2.44815e-11
3.63108e-11
4.14563e-11
4.21942e-11
4.38965e-11
4.72568e-11
4.96375e-11
4.19413e-11
5.02321e-11
4.54035e-11
3.60017e-11
2.0706e-11
1.05289e-11
4.93389e-12
-1.60885e-09
-1.60514e-09
-1.59346e-09
-1.57845e-09
-1.54967e-09
-1.53436e-09
-1.52519e-09
-1.51615e-09
-1.50621e-09
-1.49609e-09
-1.49791e-09
-1.4872e-09
-1.47744e-09
-1.49035e-09
-1.50422e-09
-1.48583e-09
-1.47436e-09
-1.48541e-09
-1.49097e-09
-1.50302e-09
-1.48166e-09
-1.47285e-09
-1.47317e-09
-1.46609e-09
-1.44642e-09
-1.42535e-09
-1.41032e-09
-1.38845e-09
-1.37653e-09
-1.37384e-09
-1.36362e-09
-1.33103e-09
-1.31817e-09
-1.29767e-09
-1.28079e-09
-1.27861e-09
-1.2656e-09
-1.2341e-09
-1.20634e-09
-1.18589e-09
-1.17286e-09
-1.15922e-09
-1.14435e-09
-1.13699e-09
-1.14096e-09
-1.14474e-09
-1.15761e-09
-1.17362e-09
-1.17969e-09
-1.18994e-09
-1.20171e-09
-1.20559e-09
-1.19343e-09
-1.17547e-09
-1.16087e-09
-1.15497e-09
-1.15458e-09
-1.14007e-09
-1.12217e-09
-1.10986e-09
-1.07666e-09
-1.04561e-09
-1.04635e-09
-1.04154e-09
-1.03335e-09
-1.02673e-09
-1.03628e-09
-1.04447e-09
-1.05074e-09
-1.04281e-09
-1.03352e-09
-1.04079e-09
-1.05542e-09
-1.06908e-09
-1.05728e-09
-1.04482e-09
-1.05791e-09
-1.06766e-09
-1.0689e-09
-1.05445e-09
-1.03545e-09
-1.02376e-09
-1.00161e-09
-9.955e-10
-9.75827e-10
-9.67412e-10
-9.87299e-10
-9.84522e-10
-9.8172e-10
-9.69365e-10
-9.65596e-10
-9.53899e-10
-9.48123e-10
-9.67384e-10
-9.84109e-10
-9.92508e-10
-9.81822e-10
-9.9367e-10
-1.01474e-09
-1.00313e-09
-9.97453e-10
-9.87738e-10
-9.85604e-10
-9.82036e-10
-9.42775e-10
-9.21177e-10
-9.1814e-10
-9.23864e-10
-9.00515e-10
-8.76619e-10
-8.67845e-10
-8.80113e-10
-8.72417e-10
-8.44807e-10
-8.30525e-10
-8.15882e-10
-8.02312e-10
-7.76804e-10
-7.55836e-10
-7.30268e-10
-7.24528e-10
-7.21105e-10
-7.14614e-10
-7.08376e-10
-7.19925e-10
-7.25333e-10
-7.2334e-10
-7.15608e-10
-7.10529e-10
-6.92443e-10
-6.59939e-10
-6.2847e-10
-5.98254e-10
-5.664e-10
-5.43301e-10
-5.26106e-10
-5.16499e-10
-5.03447e-10
-4.62482e-10
-4.23847e-10
-3.92748e-10
-3.73554e-10
-3.50906e-10
-3.29594e-10
-2.92089e-10
-2.45051e-10
-2.23039e-10
-1.97318e-10
-1.66034e-10
-1.34429e-10
-7.77167e-11
-5.16136e-11
-3.34841e-11
-1.3902e-11
2.18818e-11
2.49382e-11
2.67351e-11
2.75545e-11
4.37705e-11
7.58477e-11
7.4e-11
7.18553e-11
9.28927e-11
1.10664e-10
1.33497e-10
1.40191e-10
1.27735e-10
1.25229e-10
1.13436e-10
9.72916e-11
6.39803e-11
4.94415e-11
4.13026e-11
4.99709e-11
4.05489e-11
5.17022e-12
-2.4069e-11
-3.41525e-11
-5.71926e-11
-4.93455e-11
-4.58668e-11
-3.1398e-11
-1.49825e-11
-1.17126e-11
1.27926e-11
1.04034e-11
1.16688e-11
3.54647e-11
3.78832e-11
3.81673e-11
3.12091e-11
2.97592e-11
4.29406e-11
4.19891e-11
4.86727e-11
3.26277e-11
2.07236e-11
2.65957e-11
1.25164e-11
1.30395e-11
-1.60954e-09
-1.59784e-09
-1.57696e-09
-1.5645e-09
-1.5426e-09
-1.52823e-09
-1.52447e-09
-1.52326e-09
-1.50109e-09
-1.49059e-09
-1.48639e-09
-1.47323e-09
-1.46974e-09
-1.48606e-09
-1.49745e-09
-1.48888e-09
-1.48327e-09
-1.483e-09
-1.48517e-09
-1.49098e-09
-1.47715e-09
-1.46892e-09
-1.46017e-09
-1.45795e-09
-1.44652e-09
-1.43678e-09
-1.42876e-09
-1.40348e-09
-1.39105e-09
-1.38867e-09
-1.36591e-09
-1.35075e-09
-1.32367e-09
-1.29876e-09
-1.28163e-09
-1.26804e-09
-1.24909e-09
-1.22728e-09
-1.20858e-09
-1.19917e-09
-1.18758e-09
-1.16979e-09
-1.15682e-09
-1.15451e-09
-1.16382e-09
-1.15742e-09
-1.17283e-09
-1.18311e-09
-1.18801e-09
-1.19292e-09
-1.20748e-09
-1.19553e-09
-1.18655e-09
-1.16713e-09
-1.15727e-09
-1.15965e-09
-1.15372e-09
-1.13414e-09
-1.11275e-09
-1.10215e-09
-1.07693e-09
-1.04897e-09
-1.04224e-09
-1.03539e-09
-1.028e-09
-1.02701e-09
-1.03487e-09
-1.05479e-09
-1.06271e-09
-1.05194e-09
-1.04067e-09
-1.04719e-09
-1.04972e-09
-1.0515e-09
-1.04483e-09
-1.03894e-09
-1.05439e-09
-1.06168e-09
-1.06197e-09
-1.05427e-09
-1.03048e-09
-1.01542e-09
-1.00634e-09
-9.97912e-10
-9.87278e-10
-9.85148e-10
-9.96364e-10
-9.90548e-10
-9.87879e-10
-9.75668e-10
-9.75311e-10
-9.7067e-10
-9.59773e-10
-9.58833e-10
-9.7203e-10
-9.82573e-10
-9.80411e-10
-1.00677e-09
-1.01458e-09
-1.01267e-09
-1.00439e-09
-9.85571e-10
-9.72337e-10
-9.59475e-10
-9.37108e-10
-9.22284e-10
-9.18544e-10
-9.22532e-10
-9.04038e-10
-8.83065e-10
-8.75033e-10
-8.72739e-10
-8.57028e-10
-8.40898e-10
-8.23405e-10
-8.06734e-10
-7.91779e-10
-7.77085e-10
-7.51471e-10
-7.1767e-10
-7.15097e-10
-7.25915e-10
-7.25694e-10
-7.17399e-10
-7.26395e-10
-7.28791e-10
-7.25359e-10
-7.16512e-10
-7.02183e-10
-6.76945e-10
-6.38317e-10
-6.10463e-10
-5.86236e-10
-5.47283e-10
-5.18072e-10
-5.12315e-10
-5.07454e-10
-4.90992e-10
-4.61933e-10
-4.16018e-10
-3.7972e-10
-3.66101e-10
-3.43303e-10
-3.27248e-10
-2.93998e-10
-2.53223e-10
-2.14911e-10
-1.96456e-10
-1.7253e-10
-1.4351e-10
-1.07163e-10
-7.7578e-11
-4.34771e-11
-1.74058e-11
1.09104e-11
2.4365e-11
3.12197e-11
2.60663e-11
4.34171e-11
7.49295e-11
7.17995e-11
8.44131e-11
1.06545e-10
1.29996e-10
1.51365e-10
1.44896e-10
1.38613e-10
1.22953e-10
1.10113e-10
9.16983e-11
6.81907e-11
5.10815e-11
4.87315e-11
4.4573e-11
2.50092e-11
6.54737e-12
-1.15385e-11
-3.00866e-11
-4.27138e-11
-3.87158e-11
-4.26831e-11
-3.0259e-11
-1.62633e-11
6.20096e-12
1.85014e-11
1.85251e-11
1.40702e-11
2.80637e-11
3.26339e-11
3.9845e-11
3.58623e-11
3.65674e-11
2.77601e-11
2.36552e-11
3.93292e-11
1.7268e-11
8.11652e-12
1.78816e-11
1.41138e-11
1.21542e-11
-1.60843e-09
-1.59806e-09
-1.56627e-09
-1.56314e-09
-1.54197e-09
-1.5257e-09
-1.51907e-09
-1.51586e-09
-1.50992e-09
-1.48607e-09
-1.47965e-09
-1.46931e-09
-1.46643e-09
-1.48649e-09
-1.50082e-09
-1.48004e-09
-1.47297e-09
-1.47934e-09
-1.47994e-09
-1.46882e-09
-1.47089e-09
-1.46835e-09
-1.46601e-09
-1.46131e-09
-1.44518e-09
-1.4467e-09
-1.42828e-09
-1.41691e-09
-1.40401e-09
-1.38962e-09
-1.37761e-09
-1.35148e-09
-1.3246e-09
-1.30104e-09
-1.27714e-09
-1.26462e-09
-1.24548e-09
-1.22137e-09
-1.20844e-09
-1.2046e-09
-1.2189e-09
-1.19486e-09
-1.17655e-09
-1.17159e-09
-1.17528e-09
-1.1652e-09
-1.1795e-09
-1.18942e-09
-1.19019e-09
-1.18577e-09
-1.20542e-09
-1.19053e-09
-1.17608e-09
-1.15462e-09
-1.14671e-09
-1.15532e-09
-1.14608e-09
-1.12952e-09
-1.10868e-09
-1.10871e-09
-1.08531e-09
-1.04424e-09
-1.04041e-09
-1.04837e-09
-1.04551e-09
-1.04271e-09
-1.04249e-09
-1.061e-09
-1.06969e-09
-1.06231e-09
-1.05903e-09
-1.0527e-09
-1.0427e-09
-1.04022e-09
-1.03885e-09
-1.03344e-09
-1.03643e-09
-1.05816e-09
-1.06491e-09
-1.05156e-09
-1.02793e-09
-1.01692e-09
-1.01114e-09
-1.00482e-09
-9.99814e-10
-1.00395e-09
-1.00476e-09
-9.93288e-10
-9.8898e-10
-9.84856e-10
-9.87226e-10
-9.81654e-10
-9.769e-10
-9.62836e-10
-9.73604e-10
-9.70707e-10
-9.88616e-10
-9.99891e-10
-1.00708e-09
-1.01036e-09
-9.97261e-10
-9.74084e-10
-9.54241e-10
-9.45687e-10
-9.34344e-10
-9.16528e-10
-9.16263e-10
-9.24062e-10
-9.06472e-10
-8.88786e-10
-8.85766e-10
-8.75968e-10
-8.49112e-10
-8.27599e-10
-8.03705e-10
-7.93559e-10
-7.8793e-10
-7.58614e-10
-7.41344e-10
-7.16841e-10
-7.05337e-10
-7.29471e-10
-7.45185e-10
-7.30795e-10
-7.23592e-10
-7.26604e-10
-7.28615e-10
-7.10316e-10
-6.84734e-10
-6.44518e-10
-6.26706e-10
-5.98719e-10
-5.62175e-10
-5.21303e-10
-5.05108e-10
-5.00432e-10
-5.05013e-10
-4.83567e-10
-4.4928e-10
-4.08137e-10
-3.71654e-10
-3.67105e-10
-3.42213e-10
-3.25954e-10
-3.06525e-10
-2.62667e-10
-2.21181e-10
-1.80808e-10
-1.70326e-10
-1.50117e-10
-1.12468e-10
-8.92031e-11
-5.8314e-11
-2.15609e-11
5.88224e-12
1.36726e-11
1.36251e-11
3.57282e-11
4.99155e-11
7.62536e-11
8.90652e-11
1.04905e-10
1.25397e-10
1.44054e-10
1.49263e-10
1.42958e-10
1.33776e-10
1.17301e-10
1.18746e-10
9.50249e-11
7.66324e-11
6.48205e-11
6.42415e-11
4.927e-11
2.32656e-11
1.60433e-11
-1.06452e-11
-2.36443e-11
-3.07684e-11
-2.60351e-11
-1.31978e-11
-8.54678e-12
-1.11385e-11
5.77259e-12
9.46686e-12
1.91775e-11
2.23515e-11
2.42261e-11
3.32536e-11
3.47513e-11
3.33315e-11
3.18431e-11
2.04709e-11
1.20882e-11
1.30891e-11
-2.83927e-12
3.63965e-12
1.93213e-11
1.21725e-11
5.14415e-12
-1.59231e-09
-1.57867e-09
-1.56904e-09
-1.55485e-09
-1.5411e-09
-1.52193e-09
-1.52552e-09
-1.52776e-09
-1.5161e-09
-1.50267e-09
-1.49279e-09
-1.47396e-09
-1.48219e-09
-1.50833e-09
-1.49248e-09
-1.48027e-09
-1.47457e-09
-1.46851e-09
-1.47569e-09
-1.47313e-09
-1.46847e-09
-1.4769e-09
-1.48089e-09
-1.44718e-09
-1.44216e-09
-1.45369e-09
-1.43791e-09
-1.40827e-09
-1.39068e-09
-1.37729e-09
-1.36937e-09
-1.3551e-09
-1.32732e-09
-1.30176e-09
-1.28403e-09
-1.26773e-09
-1.24855e-09
-1.23075e-09
-1.22696e-09
-1.21599e-09
-1.22308e-09
-1.21486e-09
-1.19584e-09
-1.18284e-09
-1.18081e-09
-1.17124e-09
-1.18192e-09
-1.18736e-09
-1.19285e-09
-1.19189e-09
-1.18985e-09
-1.18495e-09
-1.17016e-09
-1.1509e-09
-1.16378e-09
-1.15307e-09
-1.13943e-09
-1.12939e-09
-1.11934e-09
-1.10858e-09
-1.09605e-09
-1.06832e-09
-1.05783e-09
-1.06762e-09
-1.06963e-09
-1.05823e-09
-1.06268e-09
-1.06481e-09
-1.07306e-09
-1.07538e-09
-1.05194e-09
-1.05129e-09
-1.04564e-09
-1.03881e-09
-1.03066e-09
-1.01548e-09
-1.03674e-09
-1.04753e-09
-1.05374e-09
-1.04883e-09
-1.03179e-09
-1.02426e-09
-1.01908e-09
-1.021e-09
-1.01087e-09
-1.00889e-09
-1.00755e-09
-1.00205e-09
-9.92925e-10
-1.00027e-09
-1.00262e-09
-9.9876e-10
-9.85934e-10
-9.83685e-10
-9.76969e-10
-9.80665e-10
-9.96147e-10
-9.96379e-10
-9.98089e-10
-9.89006e-10
-9.78217e-10
-9.66939e-10
-9.54039e-10
-9.53714e-10
-9.29266e-10
-9.16919e-10
-9.20293e-10
-9.15587e-10
-9.08343e-10
-8.85406e-10
-8.82888e-10
-8.83769e-10
-8.49976e-10
-8.27675e-10
-7.9345e-10
-7.75058e-10
-7.81976e-10
-7.51215e-10
-7.3364e-10
-7.11345e-10
-7.03252e-10
-7.37699e-10
-7.40829e-10
-7.48083e-10
-7.34478e-10
-7.29371e-10
-7.23591e-10
-6.95795e-10
-6.57898e-10
-6.25625e-10
-6.11212e-10
-5.95179e-10
-5.45244e-10
-5.1316e-10
-4.90229e-10
-4.87878e-10
-4.87014e-10
-4.62822e-10
-4.28521e-10
-3.8591e-10
-3.63131e-10
-3.67799e-10
-3.36403e-10
-3.24941e-10
-3.03853e-10
-2.71393e-10
-2.39032e-10
-1.84629e-10
-1.54844e-10
-1.41188e-10
-1.31774e-10
-9.96836e-11
-6.1405e-11
-2.77098e-11
7.78775e-12
9.34596e-12
1.14723e-11
3.92205e-11
6.58434e-11
8.57186e-11
9.4273e-11
1.03305e-10
1.25049e-10
1.48028e-10
1.49231e-10
1.26669e-10
1.16116e-10
1.12279e-10
1.14261e-10
1.06662e-10
7.6314e-11
6.68487e-11
6.00515e-11
5.35305e-11
3.02615e-11
2.24157e-11
4.32126e-12
-2.426e-11
-1.73887e-11
-2.99808e-12
2.76003e-12
4.85956e-12
2.18643e-12
7.46146e-12
1.54883e-11
1.82752e-11
1.2479e-11
1.34331e-11
2.47259e-11
2.97941e-11
2.54686e-11
1.99567e-11
8.5258e-12
8.03382e-12
4.0417e-12
-1.448e-12
-2.28387e-12
4.83752e-12
1.19124e-11
1.22081e-11
-1.58856e-09
-1.58734e-09
-1.57071e-09
-1.55536e-09
-1.53971e-09
-1.52224e-09
-1.52233e-09
-1.52427e-09
-1.5141e-09
-1.50793e-09
-1.49188e-09
-1.47629e-09
-1.48949e-09
-1.50308e-09
-1.49943e-09
-1.48706e-09
-1.47874e-09
-1.47532e-09
-1.485e-09
-1.48468e-09
-1.47839e-09
-1.48186e-09
-1.47394e-09
-1.4429e-09
-1.43532e-09
-1.43636e-09
-1.41984e-09
-1.392e-09
-1.37765e-09
-1.36837e-09
-1.36386e-09
-1.34645e-09
-1.318e-09
-1.2913e-09
-1.27029e-09
-1.26309e-09
-1.26195e-09
-1.24123e-09
-1.23677e-09
-1.23379e-09
-1.24122e-09
-1.22963e-09
-1.20464e-09
-1.19051e-09
-1.18677e-09
-1.18228e-09
-1.17637e-09
-1.18065e-09
-1.16797e-09
-1.1776e-09
-1.18658e-09
-1.16832e-09
-1.17069e-09
-1.16084e-09
-1.15501e-09
-1.14937e-09
-1.14614e-09
-1.13373e-09
-1.12947e-09
-1.11128e-09
-1.10327e-09
-1.0913e-09
-1.08619e-09
-1.08878e-09
-1.08342e-09
-1.0751e-09
-1.07332e-09
-1.06945e-09
-1.0808e-09
-1.06385e-09
-1.05145e-09
-1.04978e-09
-1.04343e-09
-1.0336e-09
-1.0273e-09
-1.02084e-09
-1.02875e-09
-1.04138e-09
-1.05106e-09
-1.04411e-09
-1.02289e-09
-1.03701e-09
-1.03382e-09
-1.0285e-09
-1.02406e-09
-1.01645e-09
-1.01123e-09
-1.01579e-09
-1.00412e-09
-1.01248e-09
-1.02053e-09
-1.01282e-09
-9.92163e-10
-9.81242e-10
-9.79488e-10
-9.64649e-10
-9.87718e-10
-9.89375e-10
-9.85758e-10
-9.74925e-10
-9.76049e-10
-9.64252e-10
-9.63702e-10
-9.56215e-10
-9.31955e-10
-9.23143e-10
-9.15994e-10
-9.13028e-10
-8.91354e-10
-8.78299e-10
-8.74148e-10
-8.66718e-10
-8.46955e-10
-8.2482e-10
-7.93467e-10
-7.70884e-10
-7.60888e-10
-7.36802e-10
-7.23602e-10
-7.1478e-10
-7.18616e-10
-7.30605e-10
-7.46017e-10
-7.49264e-10
-7.57016e-10
-7.28608e-10
-6.97499e-10
-6.70604e-10
-6.39661e-10
-6.19497e-10
-6.01993e-10
-5.85952e-10
-5.49149e-10
-5.18317e-10
-4.87132e-10
-4.76868e-10
-4.66424e-10
-4.42747e-10
-4.13222e-10
-3.66853e-10
-3.53046e-10
-3.48447e-10
-3.34606e-10
-3.30666e-10
-3.13429e-10
-2.78049e-10
-2.45272e-10
-2.03131e-10
-1.6457e-10
-1.54051e-10
-1.3739e-10
-1.10302e-10
-7.4307e-11
-3.71316e-11
5.99753e-12
2.68676e-11
2.85499e-11
3.79501e-11
6.93524e-11
8.51108e-11
1.04728e-10
1.13328e-10
1.28182e-10
1.3668e-10
1.3001e-10
1.19575e-10
1.03638e-10
1.02336e-10
1.08158e-10
9.6613e-11
7.56211e-11
7.3635e-11
7.15126e-11
6.46975e-11
4.35242e-11
1.9285e-11
7.41635e-12
-1.02726e-12
-1.21548e-11
-3.01819e-12
9.36985e-13
6.8647e-12
1.29041e-11
9.03781e-12
1.72068e-11
1.65342e-11
1.48272e-11
1.88806e-11
2.9177e-11
3.21546e-11
2.75761e-11
2.40034e-11
2.3188e-11
1.85457e-11
9.17546e-12
1.50583e-11
9.36106e-13
-5.10002e-12
-3.21959e-13
5.1918e-13
-1.58539e-09
-1.59111e-09
-1.56476e-09
-1.54906e-09
-1.53963e-09
-1.52522e-09
-1.52559e-09
-1.52715e-09
-1.52347e-09
-1.50851e-09
-1.49567e-09
-1.48637e-09
-1.48477e-09
-1.49889e-09
-1.50592e-09
-1.49221e-09
-1.49247e-09
-1.50017e-09
-1.48119e-09
-1.47597e-09
-1.47768e-09
-1.48321e-09
-1.47605e-09
-1.44522e-09
-1.42497e-09
-1.42105e-09
-1.4043e-09
-1.38555e-09
-1.36883e-09
-1.35913e-09
-1.3589e-09
-1.34266e-09
-1.29946e-09
-1.27228e-09
-1.26555e-09
-1.26619e-09
-1.2648e-09
-1.2507e-09
-1.24936e-09
-1.25793e-09
-1.25097e-09
-1.23062e-09
-1.21022e-09
-1.19854e-09
-1.18638e-09
-1.17704e-09
-1.17257e-09
-1.17985e-09
-1.16662e-09
-1.15881e-09
-1.16299e-09
-1.17041e-09
-1.16862e-09
-1.15829e-09
-1.15126e-09
-1.14579e-09
-1.14242e-09
-1.13482e-09
-1.13015e-09
-1.12555e-09
-1.10608e-09
-1.09949e-09
-1.09753e-09
-1.09857e-09
-1.08695e-09
-1.07355e-09
-1.06503e-09
-1.06377e-09
-1.07453e-09
-1.05883e-09
-1.03827e-09
-1.04146e-09
-1.03548e-09
-1.03633e-09
-1.03829e-09
-1.02828e-09
-1.03444e-09
-1.04547e-09
-1.04423e-09
-1.05233e-09
-1.03391e-09
-1.02697e-09
-1.02374e-09
-1.02864e-09
-1.02348e-09
-1.01836e-09
-1.00972e-09
-1.01988e-09
-1.01909e-09
-1.01175e-09
-1.01837e-09
-1.02274e-09
-1.00521e-09
-9.89609e-10
-9.84819e-10
-9.81622e-10
-9.85214e-10
-9.81491e-10
-9.96772e-10
-9.85194e-10
-9.86452e-10
-9.71415e-10
-9.59995e-10
-9.44052e-10
-9.36938e-10
-9.18826e-10
-9.05081e-10
-8.89599e-10
-8.76055e-10
-8.72145e-10
-8.58749e-10
-8.49185e-10
-8.32396e-10
-8.13025e-10
-7.88644e-10
-7.65782e-10
-7.53644e-10
-7.3156e-10
-7.22849e-10
-7.29128e-10
-7.35051e-10
-7.33068e-10
-7.4633e-10
-7.59441e-10
-7.46421e-10
-7.32609e-10
-6.95079e-10
-6.52026e-10
-6.41763e-10
-6.19876e-10
-5.91607e-10
-5.78315e-10
-5.56553e-10
-5.25004e-10
-4.86635e-10
-4.72602e-10
-4.56661e-10
-4.27707e-10
-3.86254e-10
-3.5506e-10
-3.49743e-10
-3.43843e-10
-3.32975e-10
-3.27142e-10
-3.11224e-10
-2.86064e-10
-2.59655e-10
-2.07005e-10
-1.74756e-10
-1.58385e-10
-1.43176e-10
-1.16774e-10
-7.15759e-11
-2.30213e-11
6.93072e-12
1.92057e-11
3.72788e-11
5.80501e-11
8.04635e-11
8.59312e-11
1.09905e-10
1.1669e-10
1.24651e-10
1.21575e-10
1.12737e-10
1.09217e-10
9.53099e-11
8.79065e-11
9.12895e-11
8.4383e-11
7.15077e-11
7.27031e-11
7.90815e-11
6.77105e-11
4.84595e-11
2.25171e-11
1.28333e-11
4.72622e-12
-3.44061e-13
-8.44775e-13
2.41022e-12
1.47268e-11
1.76023e-11
1.98358e-11
1.80073e-11
1.37173e-11
2.30632e-11
3.34376e-11
4.32351e-11
4.88941e-11
3.05939e-11
2.92307e-11
2.50667e-11
1.17881e-11
1.57769e-11
9.15608e-12
1.04035e-11
6.8842e-12
5.29833e-12
1.29269e-11
-1.57532e-09
-1.60108e-09
-1.56512e-09
-1.53492e-09
-1.54981e-09
-1.52785e-09
-1.52861e-09
-1.53296e-09
-1.532e-09
-1.51234e-09
-1.50849e-09
-1.49931e-09
-1.47654e-09
-1.49104e-09
-1.5048e-09
-1.49274e-09
-1.49713e-09
-1.50037e-09
-1.48428e-09
-1.48149e-09
-1.4695e-09
-1.47777e-09
-1.47553e-09
-1.44272e-09
-1.41705e-09
-1.41691e-09
-1.40849e-09
-1.39162e-09
-1.36017e-09
-1.35539e-09
-1.35347e-09
-1.3312e-09
-1.30346e-09
-1.2723e-09
-1.26525e-09
-1.26267e-09
-1.27648e-09
-1.27211e-09
-1.26003e-09
-1.26193e-09
-1.25152e-09
-1.24577e-09
-1.21649e-09
-1.20216e-09
-1.18318e-09
-1.17122e-09
-1.17626e-09
-1.17739e-09
-1.16929e-09
-1.16384e-09
-1.15848e-09
-1.16353e-09
-1.15644e-09
-1.14719e-09
-1.13939e-09
-1.14348e-09
-1.14957e-09
-1.13069e-09
-1.1275e-09
-1.13097e-09
-1.12229e-09
-1.11658e-09
-1.09738e-09
-1.08695e-09
-1.08223e-09
-1.06683e-09
-1.0562e-09
-1.05419e-09
-1.0605e-09
-1.05195e-09
-1.0313e-09
-1.03939e-09
-1.05195e-09
-1.05477e-09
-1.04591e-09
-1.03366e-09
-1.03918e-09
-1.03522e-09
-1.0353e-09
-1.03951e-09
-1.03906e-09
-1.03723e-09
-1.03432e-09
-1.03051e-09
-1.01916e-09
-1.00818e-09
-1.00977e-09
-1.01644e-09
-1.02644e-09
-1.02393e-09
-1.01731e-09
-1.01031e-09
-1.01024e-09
-1.00547e-09
-9.96696e-10
-9.86213e-10
-9.78045e-10
-9.86509e-10
-1.00345e-09
-9.93914e-10
-9.83242e-10
-9.68635e-10
-9.54546e-10
-9.43519e-10
-9.27429e-10
-9.1174e-10
-8.95994e-10
-8.78414e-10
-8.67859e-10
-8.55125e-10
-8.42858e-10
-8.48146e-10
-8.31874e-10
-8.11324e-10
-7.8572e-10
-7.61818e-10
-7.48528e-10
-7.37372e-10
-7.29319e-10
-7.29022e-10
-7.34387e-10
-7.27388e-10
-7.33563e-10
-7.38875e-10
-7.26929e-10
-7.19502e-10
-6.91503e-10
-6.66871e-10
-6.45705e-10
-6.20277e-10
-5.97982e-10
-5.9047e-10
-5.63859e-10
-5.21994e-10
-4.90676e-10
-4.79708e-10
-4.42622e-10
-4.07093e-10
-3.68837e-10
-3.49695e-10
-3.43317e-10
-3.43504e-10
-3.24872e-10
-3.12749e-10
-2.90701e-10
-2.85574e-10
-2.69333e-10
-2.1068e-10
-1.78328e-10
-1.50269e-10
-1.41398e-10
-1.12232e-10
-6.9554e-11
-2.81201e-11
1.62301e-11
2.26898e-11
3.61448e-11
7.04651e-11
8.68758e-11
8.96863e-11
1.04283e-10
1.10831e-10
1.24587e-10
1.19576e-10
1.05091e-10
9.32127e-11
8.18669e-11
8.57672e-11
8.42802e-11
8.23355e-11
6.45304e-11
6.52747e-11
7.56727e-11
7.03576e-11
4.73445e-11
2.03042e-11
7.02403e-12
-4.36065e-12
6.06822e-12
1.09924e-11
1.2692e-12
4.69153e-12
1.52122e-11
2.10304e-11
2.16111e-11
2.21431e-11
3.86089e-11
4.66543e-11
5.08974e-11
4.81654e-11
3.56785e-11
4.29313e-11
3.23514e-11
2.50307e-11
2.18596e-11
5.50525e-12
9.36279e-12
1.13317e-11
1.06269e-11
4.75915e-12
-1.58331e-09
-1.59295e-09
-1.56913e-09
-1.53521e-09
-1.54206e-09
-1.53561e-09
-1.54128e-09
-1.54364e-09
-1.53689e-09
-1.51784e-09
-1.51073e-09
-1.50287e-09
-1.48248e-09
-1.48402e-09
-1.49512e-09
-1.50625e-09
-1.50824e-09
-1.51516e-09
-1.49699e-09
-1.47565e-09
-1.46694e-09
-1.46432e-09
-1.46695e-09
-1.44581e-09
-1.40958e-09
-1.40771e-09
-1.41044e-09
-1.38909e-09
-1.35833e-09
-1.34035e-09
-1.34289e-09
-1.32618e-09
-1.30735e-09
-1.28778e-09
-1.28538e-09
-1.27369e-09
-1.28104e-09
-1.28288e-09
-1.27599e-09
-1.26374e-09
-1.2553e-09
-1.24715e-09
-1.22441e-09
-1.20169e-09
-1.17839e-09
-1.1741e-09
-1.16502e-09
-1.16581e-09
-1.15481e-09
-1.15252e-09
-1.16102e-09
-1.14258e-09
-1.13971e-09
-1.14366e-09
-1.14365e-09
-1.14887e-09
-1.15869e-09
-1.14016e-09
-1.1208e-09
-1.13259e-09
-1.1295e-09
-1.10702e-09
-1.08856e-09
-1.08868e-09
-1.0889e-09
-1.07381e-09
-1.05104e-09
-1.05274e-09
-1.05213e-09
-1.05086e-09
-1.04063e-09
-1.04242e-09
-1.05895e-09
-1.06224e-09
-1.04607e-09
-1.03683e-09
-1.03134e-09
-1.03074e-09
-1.04028e-09
-1.0299e-09
-1.03221e-09
-1.03631e-09
-1.02834e-09
-1.01322e-09
-1.01191e-09
-1.00553e-09
-1.00324e-09
-1.01014e-09
-1.02485e-09
-1.02786e-09
-1.02129e-09
-1.02148e-09
-1.0155e-09
-1.00297e-09
-1.00217e-09
-1.0001e-09
-9.90406e-10
-9.93016e-10
-9.97645e-10
-9.96781e-10
-9.90392e-10
-9.70561e-10
-9.52955e-10
-9.31837e-10
-9.12338e-10
-8.88297e-10
-8.93847e-10