/*--------------------------------*- C++ -*----------------------------------*\
  =========                 |
  \\      /  F ield         | OpenFOAM: The Open Source CFD Toolbox
   \\    /   O peration     | Website:  https://openfoam.org
    \\  /    A nd           | Version:  6
     \\/     M anipulation  |
\*---------------------------------------------------------------------------*/
FoamFile
{
    version     2.0;
    format      ascii;
    class       surfaceScalarField;
    location    "150";
    object      phi;
}
// * * * * * * * * * * * * * * * * * * * * * * * * * * * * * * * * * * * * * //

dimensions      [0 3 -1 0 0 0 0];

internalField   nonuniform List<scalar> 
7780
(
2
3.60584e-17
2
6.14026e-18
2
1.73049e-16
2
1.46928e-16
2
1.07261e-16
2
1.27188e-16
2
2.00467e-16
2
5.28027e-17
2
1.03138e-16
2
8.65696e-17
2
1.42174e-16
2
1.79153e-16
2
1.90241e-16
2
7.19013e-17
2
-5.54122e-18
2
8.19951e-17
2
9.62413e-17
2
1.521e-16
2
8.47337e-17
2
1.22733e-16
2
3.26654e-16
2
2.67803e-16
2
1.90516e-16
2
1.94861e-16
2
3.10475e-16
2
4.31689e-16
2
3.8118e-16
2
4.47386e-16
2
3.96069e-16
2
3.29146e-16
2
3.91084e-16
2
2.50105e-16
2
2.00184e-16
2
1.05752e-16
2
7.94798e-17
2
1.66693e-16
2
-9.37315e-17
2
5.70777e-17
2
1.49434e-16
2
3.14786e-18
2
-8.04916e-17
2
-1.67113e-16
2
-2.51876e-16
2
-2.47549e-16
2
-1.15127e-16
2
-7.15307e-17
2
-7.17363e-17
2
-4.79689e-17
2
3.86376e-17
2
-4.26627e-17
2
-1.25353e-17
2
1.04632e-16
2
1.43809e-16
2
1.40422e-16
2
-1.58861e-18
2
-8.99771e-17
2
-5.53206e-17
2
-3.65234e-17
2
6.77081e-18
2
-5.51477e-18
2
-1.10857e-16
2
-1.08005e-16
2
-2.0543e-16
2
-2.01287e-16
2
-6.79963e-17
2
3.33717e-17
2
5.67424e-17
2
2.42562e-17
2
1.31213e-16
2
1.48095e-16
2
2.14769e-16
2
1.31922e-16
2
-1.42405e-17
2
3.66826e-17
2
1.06131e-16
2
1.6712e-16
2
3.37875e-16
2
1.29667e-16
2
1.30474e-16
2
1.69698e-16
2
1.79778e-16
2
2.54051e-16
2
2.44745e-16
2
2.28207e-16
2
1.61289e-16
2
1.26582e-16
2
5.78804e-17
2
-6.99274e-17
2
-1.07252e-16
2
-3.19764e-16
2
-1.16709e-16
2
-5.73961e-17
2
-4.54258e-17
2
-8.66972e-17
2
-3.1179e-17
2
-1.6328e-16
2
-1.94146e-16
2
-5.51854e-17
2
-3.39992e-17
2
2.05878e-16
2
2.90916e-16
2
2.92593e-16
2
1.99995e-16
2
2.88363e-16
2
1.02119e-16
2
-2.67916e-17
2
2.67009e-17
2
6.42317e-17
2
8.4235e-17
2
-2.39736e-16
2
-1.03105e-16
2
5.30998e-17
2
2.96979e-17
2
8.91377e-17
2
1.16608e-16
2
2.01481e-16
2
2.67757e-16
2
3.13338e-16
2
3.7939e-16
2
1.76613e-16
2
1.28405e-16
2
1.59782e-16
2
3.23328e-16
2
3.55245e-16
2
2.49056e-16
2
1.88344e-16
2
1.72034e-16
2
2.55707e-16
2
2.62794e-16
2
3.63356e-16
2
2.82498e-16
2
2.97778e-16
2
3.02416e-16
2
4.72056e-16
2
5.43043e-16
2
4.36657e-16
2
4.99948e-16
2
3.8942e-16
2
3.81614e-16
2
2.10105e-16
2
6.6727e-17
2
-7.19778e-18
2
-8.98701e-17
2
5.90789e-17
2
-9.43223e-18
2
-8.49207e-17
2
1.12436e-17
2
-6.22479e-17
2
-3.67227e-16
2
-2.1907e-16
2
-4.61389e-16
2
-4.64573e-16
2
-4.65763e-16
2
-4.31624e-16
2
-4.69103e-16
2
-4.78094e-16
2
-4.2742e-16
2
-3.8725e-16
2
-2.7451e-16
2
-2.47514e-16
2
-2.62588e-16
2
-2.23666e-16
2
-1.90131e-16
2
-9.18767e-17
2
-7.08753e-17
2
4.23379e-18
2
-2.2839e-17
2
-1.39808e-16
2
2.07961e-17
2
-1.05816e-17
2
9.5221e-17
2
1.84774e-16
2
2.80126e-16
2
-3.08776e-17
2
-4.50476e-17
2
-8.51579e-17
2
3.60801e-17
2
2.10435e-16
2
5.26602e-17
2
1.22295e-17
2
8.65315e-17
2
2.74616e-16
2
1.46759e-16
2
-9.4913e-17
2
-1.12217e-16
2
-7.86475e-18
2
1.30767e-16
2
8.70231e-17
2
6.08096e-17
2
1.84087e-16
2
3.19308e-16
2
1.89235e-16
2
1.04488e-16
2
1.14672e-16
2
2.0886e-16
2
3.11671e-16
2
9.70862e-17
2
2.01714e-16
2
1.8769e-16
1.80424e-16
2
-2.38785e-16
2
-1.40856e-16
2
-8.60754e-17
2
3.03609e-17
2
2.13119e-16
2
1.8852e-16
2
2.46797e-16
2
2.86558e-16
2
2.63221e-16
2
1.46225e-16
2
5.7209e-17
2
1.90234e-16
2
-7.20228e-17
2
6.12144e-17
2
1.98963e-16
2
9.27817e-17
2
1.558e-16
2
2.64259e-16
2
3.54301e-16
2
4.97849e-16
2
3.12583e-16
2
2.22836e-16
2
2.45644e-16
2
2.36209e-16
2
1.93184e-16
2
2.07506e-16
2
3.73512e-16
2
2.94219e-16
2
2.795e-16
2
2.0966e-16
2
4.49373e-16
2
2.54187e-16
2
1.91756e-16
2
2.047e-16
2
2.63514e-17
2
1.65795e-16
2
2.47737e-16
2
7.97239e-17
2
-3.02002e-17
2
-8.89646e-17
2
-3.37435e-16
2
-3.99379e-16
2
-4.08947e-16
2
-2.87578e-16
2
-2.53793e-16
2
4.86038e-17
2
1.08133e-17
2
5.52605e-17
2
1.05376e-16
2
1.37462e-16
2
2.59473e-16
2
3.71315e-16
2
3.64623e-16
2
7.83547e-17
2
-3.52861e-17
2
-2.86264e-17
2
-7.35312e-17
2
-2.20146e-16
2
-1.31054e-16
2
-1.25061e-16
2
-5.2494e-17
2
-1.70025e-16
2
-2.62486e-16
2
-1.87309e-16
2
-4.17304e-17
2
-9.83624e-17
2
-1.40236e-16
2
8.77389e-17
2
-1.76962e-16
2
3.89704e-17
2
1.26668e-16
2
7.32397e-17
2
2.38738e-17
2
6.74862e-17
2
2.05642e-16
2
2.29545e-16
2
5.64294e-17
2
6.95869e-17
2
7.81322e-17
2
1.46068e-16
2
7.86896e-17
2
1.91462e-16
2
1.61733e-16
2
5.23043e-17
2
1.911e-17
2
4.21666e-17
2
-1.36722e-16
2
-8.44114e-17
2
4.97632e-17
2
-3.44874e-17
2
-8.54476e-17
2
1.25412e-17
2
9.17539e-17
2
2.01734e-16
2
1.86155e-16
2
2.35614e-16
2
1.85225e-16
2
-5.17662e-17
2
2.01858e-16
2
2.48326e-16
2
2.3803e-16
2
2.0471e-16
2
1.31878e-16
2
2.04416e-16
2
1.37788e-16
2
-5.58393e-17
2
2.01603e-17
2
7.74142e-17
2
5.71253e-17
2
-1.71969e-18
2
5.27626e-17
2
1.35112e-16
2
1.13134e-16
2
1.62648e-17
2
7.03099e-17
2
1.60546e-16
2
1.01889e-16
2
1.60953e-16
2
2.17387e-16
2
2.6368e-16
2
2.18052e-16
2
3.79293e-16
2
3.45233e-16
2
4.04066e-16
2
3.1e-16
2
2.70868e-16
2
2.44073e-16
2
2.51259e-16
2
2.54628e-16
2
5.21531e-16
2
4.08788e-16
2
4.65798e-16
2
4.31765e-16
2
2.11781e-16
2
3.38618e-16
2
4.25607e-16
2
2.95598e-16
2
2.15934e-16
2
1.97533e-16
2
3.18333e-16
2
4.86683e-16
2
2.90141e-16
2
1.97958e-16
2
2.22657e-16
2
7.15419e-17
2
-4.4779e-17
2
8.48488e-18
2
2.68714e-17
2
-2.90437e-17
2
-1.35471e-16
2
-2.87932e-16
2
-2.6663e-16
2
-1.60597e-16
2
-4.26715e-16
2
-2.51588e-16
2
-1.37874e-16
2
-2.75793e-16
2
-2.92543e-16
2
-2.71006e-16
2
-1.17157e-16
2
-2.57887e-16
2
-1.36887e-16
2
-2.69168e-16
2
-1.04699e-16
2
-5.29118e-17
2
-7.64385e-17
2
-1.8014e-16
2
-4.06548e-17
2
-3.13565e-17
2
-1.38119e-16
2
1.26917e-17
2
4.14026e-17
2
-1.34915e-16
2
-1.06265e-16
2
-1.09014e-16
2
-2.18744e-16
2
-1.77439e-16
2
1.5582e-16
2
1.67551e-16
2
2.24674e-16
2
5.8511e-17
2
-1.71385e-16
2
-4.20725e-17
2
-1.87259e-17
2
-7.58081e-17
2
6.60546e-17
2
1.48783e-16
2
2.94543e-16
2
3.33388e-16
2
2.83683e-16
2
2.91044e-17
2
1.61032e-16
2
2.75889e-16
2
2.92338e-16
2
2.279e-16
2
-2.33099e-17
2
1.26183e-16
2
2.73788e-16
2
2.84966e-16
3.97423e-16
2
-1.69887e-16
2
-2.00326e-16
2
-1.01384e-16
2
1.16274e-18
2
1.04255e-16
2
2.08547e-16
2
2.13163e-16
2
1.27944e-16
2
5.08851e-17
2
1.52711e-16
2
1.60984e-16
2
1.12261e-16
2
1.71698e-16
2
1.28295e-16
2
1.02651e-16
2
2.30623e-16
2
1.2173e-16
2
3.27781e-16
2
3.77662e-16
2
2.41522e-16
2
1.86076e-16
2
8.28838e-17
2
4.65833e-17
2
3.75027e-16
2
4.26302e-16
2
3.10265e-16
2
1.19997e-16
2
9.82633e-17
2
1.81296e-16
2
2.72106e-16
2
1.66216e-17
2
9.89315e-17
2
1.57142e-16
2
7.0051e-17
2
8.3941e-17
2
-1.9322e-17
2
5.18735e-17
2
5.10419e-17
2
-2.28208e-16
2
-4.19088e-16
2
-1.62194e-16
2
6.062e-18
2
5.59575e-17
2
-7.80913e-18
2
-3.51391e-17
2
4.84203e-17
2
8.69519e-17
2
1.88507e-16
2
2.38554e-16
2
2.29019e-16
2
1.33821e-16
2
1.42327e-16
2
1.93642e-16
2
7.18835e-17
2
1.47989e-16
2
4.14453e-17
2
-2.0733e-17
2
1.71662e-16
2
1.02787e-16
2
7.95002e-17
2
9.37664e-17
2
1.21731e-16
2
1.5844e-17
2
-2.91252e-16
2
-2.60916e-16
2
-1.98265e-16
2
8.62902e-17
2
-4.86103e-17
2
1.09714e-16
2
1.27684e-16
2
1.22196e-16
2
5.92922e-17
2
6.41893e-17
2
1.15904e-16
2
8.70196e-17
2
-5.27358e-17
2
-1.45713e-17
2
9.08511e-17
2
-8.44571e-17
2
1.8215e-16
2
1.03253e-16
2
-1.45244e-16
2
-2.04275e-16
2
-2.14545e-16
2
-1.88087e-16
2
-2.59381e-16
2
-3.41007e-17
2
-4.51421e-17
2
-3.15599e-17
2
1.25539e-16
2
5.7489e-17
2
4.89033e-17
2
1.29524e-16
2
7.63948e-17
2
1.8663e-16
2
1.34427e-16
2
1.68626e-16
2
2.0167e-16
2
1.65567e-16
2
2.45529e-16
2
2.48205e-16
2
2.01183e-16
2
3.72256e-16
2
1.43951e-16
2
1.77948e-16
2
1.15357e-16
2
-1.8025e-17
2
1.42574e-16
2
-5.20496e-17
2
1.37034e-16
2
1.73436e-16
2
3.69858e-16
2
2.26551e-16
2
2.45344e-16
2
7.37163e-17
2
-6.75112e-17
2
2.08739e-17
2
6.44482e-17
2
1.08361e-16
2
1.44391e-16
2
2.74914e-16
2
2.88481e-16
2
2.68869e-16
2
1.59355e-16
2
2.4448e-16
2
2.47378e-16
2
2.34345e-16
2
2.01733e-16
2
3.9398e-16
2
5.22852e-16
2
7.34051e-16
2
7.43636e-16
2
6.58627e-16
2
3.20942e-16
2
1.68301e-16
2
1.30076e-16
2
3.9249e-16
2
3.66984e-16
2
2.64597e-16
2
2.70567e-16
2
2.0588e-16
2
2.32482e-16
2
1.74856e-16
2
1.42075e-16
2
7.45494e-17
2
2.51146e-16
2
1.55808e-16
2
-1.88403e-17
2
1.5202e-17
2
-3.22584e-17
2
2.33265e-17
2
1.21907e-16
2
-2.64835e-16
2
-6.92193e-17
2
-1.61207e-16
2
-1.53437e-16
2
-2.64272e-16
2
-1.59806e-16
2
-3.44127e-16
2
-4.92741e-16
2
-2.12969e-16
2
-2.06667e-16
2
-1.6882e-16
2
-2.85094e-16
2
-2.99448e-16
2
-4.09397e-16
2
-2.16129e-16
2
-1.03608e-16
2
-4.03701e-17
2
2.02233e-16
2
1.70921e-16
2
-1.27609e-16
2
-1.12506e-16
2
-9.02549e-17
2
-4.51262e-17
2
-2.09871e-17
2
-1.88626e-17
2
-1.94634e-16
2
-8.12179e-17
2
-1.4164e-17
2
4.28917e-17
2
5.9371e-18
2
-6.90473e-17
2
2.67138e-16
2
3.02335e-16
2
2.18983e-16
2
1.2061e-16
2
1.00487e-16
2
2.11902e-16
2
2.73696e-16
2
5.50646e-16
2
4.50672e-16
2
2.97893e-16
2
4.68155e-16
2
2.83724e-16
2
3.4193e-16
2
4.27342e-16
2
4.30793e-16
2
3.36628e-16
2.08187e-16
2
-9.99655e-17
2
-8.0272e-17
2
-1.64548e-17
2
-3.32381e-17
2
-6.32645e-18
2
-4.79157e-17
2
-2.79979e-17
2
2.89246e-17
2
2.01017e-16
2
2.33461e-16
2
2.52356e-16
2
-7.52365e-17
2
7.68503e-17
2
5.88982e-17
2
1.23649e-16
2
-8.18155e-17
2
9.27455e-17
2
5.48647e-17
2
9.10454e-17
2
3.68637e-16
2
2.38615e-16
2
8.45727e-17
2
2.02335e-16
2
1.56551e-16
2
1.39825e-16
2
2.36024e-16
2
2.42446e-16
2
3.34411e-16
2
3.27457e-16
2
3.33059e-16
2
3.04027e-16
2
4.93805e-17
2
-3.21623e-17
2
-1.01627e-16
2
2.59184e-16
2
1.36428e-16
2
6.46519e-17
2
-7.36269e-17
2
-1.81819e-17
2
-1.4787e-16
2
-1.10467e-16
2
-1.74656e-16
2
-1.61321e-16
2
-6.72879e-17
2
1.68741e-16
2
-2.44566e-16
2
1.1431e-16
2
3.45717e-16
2
3.1179e-16
2
2.63397e-16
2
1.76309e-16
2
1.85296e-16
2
-1.08827e-17
2
1.80078e-16
2
5.1982e-17
2
3.43647e-17
2
1.45686e-16
2
1.8913e-16
2
1.29598e-16
2
1.11795e-16
2
6.49327e-18
2
-3.44513e-17
2
3.75362e-17
2
1.16261e-16
2
-6.56541e-17
2
2.42216e-18
2
-2.56665e-17
2
7.0853e-17
2
3.08897e-16
2
1.60443e-16
2
4.8616e-18
2
5.97833e-17
2
1.69533e-16
2
3.63231e-16
2
1.41816e-16
2
2.099e-17
2
-4.01342e-17
2
-1.85404e-16
2
-7.88766e-17
2
-2.86952e-16
2
-1.79822e-16
2
-1.80316e-16
2
-4.25448e-17
2
4.56424e-17
2
-1.54214e-16
2
-1.98257e-16
2
4.5998e-17
2
-1.714e-17
2
-7.5461e-17
2
-1.04619e-16
2
8.35231e-18
2
-6.5904e-17
2
-5.2582e-17
2
9.21547e-17
2
2.25417e-16
2
2.46326e-16
2
2.07051e-16
2
1.7225e-16
2
3.03462e-16
2
2.5194e-16
2
2.52762e-16
2
2.13491e-16
2
5.96216e-17
2
5.61821e-17
2
-2.19604e-16
2
-1.17742e-16
2
7.32988e-17
2
-7.89222e-19
2
2.22835e-16
2
3.2224e-16
2
1.25549e-16
2
1.06165e-16
2
1.66844e-16
2
1.70899e-16
2
9.26707e-17
2
6.31542e-17
2
8.3274e-17
2
1.06778e-16
2
9.62173e-17
2
1.02083e-16
2
1.44291e-16
2
2.73091e-16
2
2.44592e-16
2
1.52918e-16
2
1.94349e-16
2
2.30799e-16
2
2.43693e-16
2
3.74585e-16
2
4.93082e-16
2
6.18861e-16
2
6.14756e-16
2
5.1444e-16
2
5.59028e-16
2
4.139e-16
2
1.50938e-16
2
-4.41116e-17
2
-1.46027e-17
2
1.31276e-16
2
9.63358e-17
2
9.85297e-17
2
4.23956e-17
2
9.0615e-17
2
9.43097e-17
2
1.71282e-17
2
2.08697e-16
2
1.99655e-16
2
3.02875e-16
2
2.07735e-16
2
1.49792e-16
2
3.9843e-16
2
2.79757e-16
2
4.25569e-17
2
1.51977e-16
2
9.70755e-17
2
-9.1172e-17
2
2.59846e-17
2
8.15149e-17
2
-3.83611e-17
2
3.01827e-17
2
-4.52869e-17
2
-1.32376e-16
2
-1.82733e-16
2
-2.23424e-16
2
-3.48643e-16
2
-5.2897e-16
2
-4.82284e-16
2
-1.68899e-16
2
-3.13911e-16
2
-2.47549e-16
2
-1.64879e-16
2
-1.75242e-16
2
-5.96438e-17
2
-1.60759e-17
2
-1.43842e-16
2
-1.98125e-18
2
1.0354e-16
2
1.75149e-16
2
-6.69869e-18
2
1.47809e-16
2
1.03977e-16
2
2.60773e-17
2
1.53265e-16
2
3.96013e-16
2
3.72527e-16
2
1.84746e-16
2
2.35232e-16
2
3.78894e-16
2
2.17662e-16
2
2.50173e-16
2
2.60788e-16
2
2.95096e-16
2
5.61982e-16
2
3.91259e-16
2
2.39927e-16
2
2.73153e-16
2
2.9297e-16
2
5.57574e-16
2
2.74264e-16
2
4.52309e-16
3.45026e-16
2
-6.46626e-17
2
-7.81898e-17
2
-1.56121e-16
2
-1.08155e-16
2
-9.90108e-17
2
2.49425e-19
2
-7.38328e-17
2
2.26923e-17
2
-1.10679e-16
2
-6.72558e-17
2
-1.81852e-16
2
-2.10824e-16
2
-2.23298e-16
2
-1.17134e-16
2
-1.21548e-16
2
6.70792e-17
2
1.62111e-16
2
8.71002e-17
2
9.47406e-18
2
-3.43686e-17
2
2.00579e-16
2
2.7308e-16
2
1.25579e-16
2
1.98859e-17
2
5.24711e-17
2
1.0765e-16
2
1.67447e-16
2
6.8994e-17
2
1.69589e-16
2
2.69498e-16
2
6.15468e-17
2
4.12087e-16
2
1.66863e-16
2
1.52896e-16
2
-8.23269e-17
2
1.18e-17
2
-6.69592e-18
2
7.88152e-17
2
8.89823e-17
2
9.98762e-17
2
4.77499e-17
2
-3.03056e-18
2
-7.31018e-17
2
4.6614e-17
2
1.14298e-16
2
9.79411e-17
2
1.77552e-16
2
1.34445e-16
2
2.0961e-16
2
1.15772e-16
2
2.88441e-16
2
1.52589e-16
2
1.80943e-16
2
5.6647e-17
2
1.38408e-16
2
2.24102e-16
2
1.83061e-16
2
4.55252e-17
2
-8.5162e-17
2
2.48991e-17
2
1.09515e-16
2
6.42147e-17
2
-1.90507e-17
2
-2.24557e-17
2
-6.42214e-17
2
-6.30467e-17
2
-2.20927e-16
2
3.66032e-17
2
1.30082e-16
2
1.48672e-16
2
2.22774e-16
2
3.88602e-16
2
1.32185e-16
2
-1.10681e-17
2
8.28111e-17
2
7.88338e-17
2
1.45919e-16
2
2.62722e-17
2
-3.11789e-17
2
-7.05805e-17
2
-2.47524e-16
2
-1.79353e-16
2
-1.45798e-16
2
-2.16482e-16
2
-2.0151e-16
2
6.4005e-17
2
1.98468e-17
2
-4.21599e-17
2
-7.97785e-17
2
-2.31785e-17
2
1.21349e-17
2
2.97498e-16
2
8.85758e-17
2
-2.59447e-17
2
-1.20549e-16
2
-8.36278e-17
2
-4.30102e-18
2
2.11538e-16
2
1.74283e-16
2
1.80742e-16
2
2.58296e-16
2
5.9003e-17
2
1.52469e-17
2
-9.14189e-17
2
-2.98944e-17
2
7.7011e-17
2
2.0042e-18
2
2.65424e-17
2
1.35266e-16
2
2.1773e-16
2
2.73366e-16
2
8.82816e-17
2
1.37742e-16
2
1.01375e-16
2
9.5219e-17
2
7.8348e-17
2
1.16868e-16
2
1.89592e-16
2
9.6111e-17
2
-3.70075e-17
2
-2.00162e-17
2
5.90945e-18
2
2.31528e-16
2
3.14039e-16
2
3.84578e-16
2
4.85029e-16
2
4.40057e-16
2
4.31691e-16
2
3.72561e-16
2
1.92163e-16
2
-7.06902e-17
2
-1.71432e-17
2
9.5721e-17
2
5.92556e-17
2
-7.79819e-17
2
2.89982e-17
2
-1.05526e-17
2
1.03596e-16
2
2.37662e-16
2
2.50321e-16
2
1.23224e-16
2
9.36948e-17
2
1.23664e-16
2
1.91235e-16
2
9.2011e-17
2
3.43661e-16
2
1.17203e-16
2
2.71104e-16
2
3.73878e-16
2
2.69045e-16
2
5.08987e-16
2
4.28647e-16
2
1.63476e-16
2
1.63854e-16
2
2.75785e-16
2
9.15773e-17
2
1.18383e-17
2
1.30634e-16
2
3.51743e-17
2
4.93613e-17
2
7.08514e-17
2
-2.5583e-16
2
-2.42424e-16
2
-2.87627e-16
2
-2.82473e-16
2
-2.43673e-16
2
-5.01376e-16
2
-4.48513e-16
2
-4.56962e-16
2
-3.82896e-16
2
-4.32063e-16
2
-3.1601e-16
2
-3.12313e-16
2
-7.07032e-17
2
-2.30396e-17
2
9.59193e-18
2
-7.75801e-17
2
6.62691e-17
2
-1.2345e-17
2
5.92696e-17
2
1.30325e-16
2
1.12052e-16
2
1.93573e-16
2
4.68878e-17
2
1.56162e-16
2
1.35658e-16
2
9.94039e-17
2
1.89237e-16
2
1.68971e-16
2
6.43312e-17
2
-1.12938e-17
2
-1.79999e-16
2
3.3416e-16
2
3.73731e-16
2
3.08045e-16
2
5.17248e-16
2
4.33368e-16
2
3.77162e-16
2
2.25747e-16
4.24094e-16
2
-2.4869e-17
2
-7.89483e-17
2
-2.54463e-16
2
-7.06658e-17
2
-1.52597e-16
2
-1.72453e-16
2
-1.32305e-16
2
-1.42749e-16
2
1.50743e-16
2
-1.55476e-16
2
-1.78559e-16
2
-2.14653e-16
2
-2.00763e-16
2
-6.02901e-17
2
5.31844e-17
2
-2.13291e-16
2
-3.16201e-16
2
-3.03994e-16
2
-1.30658e-16
2
-3.3857e-16
2
-1.39749e-16
2
1.9411e-16
2
3.69575e-16
2
2.98887e-16
2
1.08327e-16
2
2.48908e-16
2
6.31026e-17
2
2.32772e-16
2
1.62094e-16
2
8.33449e-17
2
2.50729e-16
2
1.08003e-16
2
1.76797e-16
2
1.69935e-16
2
1.47274e-16
2
2.34603e-16
2
1.78469e-16
2
-3.30377e-17
2
-1.17155e-16
2
9.43718e-17
2
2.87781e-16
2
1.48472e-16
2
1.67071e-16
2
1.61998e-16
2
4.33449e-17
2
1.19032e-16
2
2.21313e-16
2
1.36501e-16
2
1.48399e-16
2
7.56583e-17
2
1.78122e-16
2
2.41144e-16
2
4.99002e-17
2
1.19874e-16
2
1.75792e-16
2
1.22352e-16
2
-1.79672e-16
2
-1.05294e-16
2
-5.2157e-17
2
6.36567e-17
2
8.56778e-17
2
-1.57686e-16
2
-2.16675e-18
2
6.48302e-17
2
7.61502e-17
2
1.88717e-16
2
1.52867e-16
2
2.48767e-16
2
1.59403e-16
2
1.01234e-16
2
3.33587e-16
2
1.59759e-16
2
1.72549e-16
2
1.63698e-16
2
7.04714e-17
2
5.09028e-17
2
-1.95684e-17
2
2.04352e-16
2
8.5359e-17
2
-8.47767e-17
2
-6.39464e-17
2
-5.45018e-17
2
-4.23799e-17
2
-2.388e-17
2
2.26626e-17
2
1.0863e-16
2
-3.36487e-17
2
-2.11931e-16
2
-1.51511e-16
2
9.09531e-17
2
-6.38148e-17
2
-1.7009e-16
2
9.06047e-17
2
3.39115e-17
2
1.41716e-16
2
-1.00101e-16
2
1.5765e-16
2
3.37907e-17
2
-5.88107e-17
2
6.88665e-17
2
3.10254e-18
2
4.74383e-17
2
-9.44074e-17
2
4.15587e-17
2
2.40801e-16
2
5.15126e-17
2
-9.28099e-17
2
-5.96494e-18
2
2.8121e-17
2
1.34594e-16
2
7.58227e-17
2
7.05679e-17
2
-1.5823e-17
2
-7.70251e-17
2
-1.14337e-16
2
-3.17558e-17
2
5.1252e-17
2
-1.03002e-16
2
9.87606e-17
2
6.46442e-17
2
-1.7938e-16
2
8.02595e-17
2
3.797e-16
2
3.37629e-16
2
3.60026e-16
2
2.86061e-16
2
4.73569e-16
2
3.96995e-16
2
3.14573e-16
2
-8.18751e-17
2
4.49288e-17
2
2.40625e-18
2
-8.35413e-17
2
-5.76387e-17
2
8.72663e-17
2
1.28587e-17
2
3.46595e-17
2
1.28082e-16
2
1.37049e-16
2
1.10371e-16
2
2.11202e-16
2
1.67562e-16
2
1.65226e-16
2
1.85125e-16
2
1.97287e-16
2
1.2222e-17
2
2.0791e-16
2
1.74209e-16
2
3.03667e-16
2
1.72631e-16
2
1.13731e-16
2
2.82308e-16
2
4.96538e-16
2
2.05458e-16
2
2.32487e-16
2
2.56979e-16
2
3.49184e-16
2
1.9717e-16
2
2.33346e-16
2
-1.62831e-17
2
-2.95905e-17
2
7.09033e-17
2
-2.04916e-16
2
-2.3563e-16
2
-9.55296e-17
2
-2.80052e-16
2
-3.9593e-16
2
-4.31467e-16
2
-4.9473e-16
2
-5.08147e-16
2
-5.06803e-16
2
-3.51987e-16
2
-2.51544e-16
2
-4.95988e-17
2
1.38215e-16
2
8.66115e-18
2
-7.93102e-17
2
-1.27488e-16
2
4.9513e-17
2
-8.24489e-17
2
-1.93619e-16
2
-5.30384e-17
2
1.65368e-16
2
2.61754e-16
2
3.36058e-16
2
1.23296e-16
2
-1.24477e-16
2
1.93741e-17
2
-1.34537e-16
2
7.69176e-19
2
-7.46404e-17
2
-5.66706e-17
2
4.45174e-17
2
2.67118e-16
2
5.7275e-16
2
6.11327e-16
2
3.2068e-16
2
1.32961e-16
2
1.64543e-16
1.56375e-16
2
-1.71625e-16
2
-3.44593e-16
2
-1.49638e-16
2
-2.98319e-16
2
-1.06372e-16
2
-7.46524e-17
2
-4.40958e-17
2
1.64416e-17
2
-1.78059e-16
2
6.13673e-17
2
-6.3118e-18
2
-1.00489e-16
2
8.52554e-17
2
1.75768e-16
2
-1.83135e-16
2
-1.52178e-16
2
-2.47121e-16
2
-2.38289e-16
2
-2.57333e-16
2
-6.93126e-17
2
-6.47978e-17
2
1.67759e-16
2
3.28251e-16
2
2.03436e-17
2
1.7169e-16
2
1.77953e-16
2
2.92487e-16
2
9.42378e-17
2
-5.18532e-18
2
-2.78492e-18
2
-1.27431e-16
2
1.70028e-17
2
2.12344e-16
2
2.61273e-16
2
3.07888e-16
2
2.22577e-16
2
1.44399e-16
2
2.35778e-16
2
3.2866e-16
2
1.17792e-16
2
6.68593e-17
2
1.38343e-16
2
1.01991e-17
2
-1.46437e-16
2
9.46284e-17
2
5.16535e-17
2
-4.20689e-17
2
5.41189e-17
2
1.95694e-16
2
3.30245e-16
2
1.17067e-16
2
1.92727e-16
2
1.28608e-16
2
1.9642e-16
2
3.96193e-16
2
2.74224e-16
2
1.31019e-16
2
-7.10615e-17
2
7.56122e-17
2
-4.76141e-17
2
3.25223e-17
2
2.63026e-16
2
1.47015e-16
2
3.26226e-16
2
2.14685e-16
2
5.84172e-17
2
2.89705e-16
2
1.40542e-16
2
1.28068e-16
2
2.84888e-16
2
-4.05166e-17
2
5.19268e-17
2
1.56583e-16
2
-1.2563e-16
2
-8.86148e-17
2
-1.14756e-16
2
2.05724e-16
2
1.40689e-16
2
2.1412e-16
2
1.39333e-16
2
1.63587e-16
2
8.41905e-17
2
1.46828e-16
2
1.75323e-16
2
2.60483e-16
2
2.2669e-17
2
-1.24385e-16
2
-5.42006e-17
2
-2.97892e-16
2
-1.01611e-16
2
-2.96805e-17
2
9.50476e-17
2
8.38119e-18
2
3.35494e-16
2
1.87471e-16
2
2.76985e-16
2
2.42211e-16
2
1.4668e-16
2
-9.74218e-17
2
-2.91861e-16
2
-3.58048e-16
2
-1.86572e-16
2
-6.54098e-17
2
8.20103e-17
2
1.21549e-17
2
7.8186e-17
2
1.5958e-16
2
6.73758e-17
2
5.73484e-17
2
-1.12977e-16
2
-1.8605e-17
2
8.95902e-17
2
1.13288e-16
2
3.88729e-17
2
-1.13889e-16
2
-2.42579e-16
2
1.0577e-16
2
3.46424e-17
2
-1.54953e-16
2
-5.65194e-17
2
2.7017e-17
2
2.23079e-16
2
-1.00284e-17
2
2.76738e-16
2
2.77379e-16
2
2.43797e-16
2
2.21693e-16
2
2.06537e-16
2
-3.53179e-18
2
1.12938e-16
2
1.05382e-16
2
1.90331e-16
2
4.41311e-17
2
1.7027e-16
2
1.10238e-16
2
-3.8798e-17
2
-2.53973e-17
2
5.93363e-17
2
2.08981e-17
2
-1.29606e-16
2
6.19201e-18
2
2.52335e-16
2
1.54062e-16
2
1.35612e-16
2
1.87829e-16
2
2.59346e-16
2
3.78154e-16
2
1.4762e-16
2
-7.40079e-17
2
1.38032e-16
2
3.76367e-16
2
4.70243e-16
2
3.1353e-16
2
3.74466e-16
2
1.77904e-16
2
3.33589e-16
2
3.661e-16
2
2.18498e-16
2
7.50733e-17
2
7.95813e-17
2
-2.50022e-17
2
1.84768e-16
2
2.18895e-16
2
9.77851e-17
2
-9.45376e-17
2
-6.02496e-17
2
-1.234e-16
2
-2.76487e-16
2
-1.25908e-16
2
-2.70142e-16
2
-2.0817e-16
2
-1.17109e-16
2
-1.165e-17
2
-9.89905e-17
2
-1.73365e-16
2
-1.51872e-16
2
-1.16746e-16
2
6.45391e-17
2
-7.49702e-17
2
-1.53724e-16
2
-2.58872e-16
2
-1.45883e-16
2
-1.62234e-16
2
-1.13056e-16
2
-1.76453e-16
2
-1.85069e-16
2
-8.87752e-17
2
-5.0371e-17
2
-5.47614e-17
2
-1.05091e-16
2
-4.96146e-17
2
1.27461e-16
2
1.57211e-16
2
1.49374e-16
2
3.00002e-16
2
1.95116e-16
2
2.44647e-16
2
3.55208e-16
2
2.98375e-16
2.57131e-16
2
-2.00256e-17
2
7.00512e-17
2
8.08107e-19
2
-1.13742e-16
2
-2.30784e-16
2
-2.85517e-16
2
-2.31826e-16
2
-2.93476e-16
2
-2.75513e-16
2
-8.69605e-17
2
-1.0733e-16
2
-9.41033e-17
2
-1.95776e-16
2
-3.47097e-16
2
-2.80787e-16
2
-2.7726e-16
2
-1.76925e-16
2
-1.28988e-16
2
2.2254e-17
2
6.37494e-18
2
1.38895e-16
2
1.56982e-16
2
8.86395e-17
2
-6.93113e-17
2
-2.08251e-16
2
-1.8417e-16
2
-2.18131e-16
2
-3.31395e-16
2
-3.06407e-16
2
-3.69602e-16
2
-2.36038e-16
2
-1.08951e-16
2
-5.38568e-17
2
-6.12255e-17
2
-1.46172e-16
2
-8.8282e-17
2
1.27862e-16
2
1.20769e-16
2
1.92518e-16
2
3.70951e-16
2
2.35595e-16
2
7.7264e-17
2
-6.93662e-17
2
4.59175e-17
2
2.4024e-17
2
9.02784e-17
2
-1.92814e-17
2
-4.28128e-17
2
-1.50819e-16
2
7.21055e-17
2
2.2666e-16
2
-5.19041e-17
2
1.8198e-16
2
2.29248e-16
2
5.73595e-17
2
-1.77273e-17
2
8.67308e-17
2
1.73057e-16
2
1.01569e-16
2
5.74915e-17
2
-3.40609e-17
2
1.76966e-16
2
3.71894e-16
2
3.57641e-16
2
3.04261e-16
2
2.99177e-16
2
1.81944e-16
2
2.39118e-17
2
2.43138e-16
2
-5.45088e-17
2
-5.53584e-17
2
-3.23537e-17
2
2.45785e-17
2
8.42845e-17
2
1.17994e-16
2
6.77218e-17
2
1.68492e-16
2
1.17027e-16
2
2.68001e-16
2
1.92177e-16
2
9.6978e-18
2
1.1101e-16
2
2.51422e-16
2
2.47323e-16
2
2.85723e-16
2
2.29688e-16
2
1.40081e-16
2
1.53836e-16
2
1.48507e-16
2
1.10535e-17
2
1.22285e-16
2
1.73407e-16
2
1.03827e-16
2
-1.38373e-16
2
5.54956e-17
2
-1.14789e-16
2
-2.39429e-17
2
-6.00629e-17
2
-1.44694e-16
2
-2.59525e-16
2
-2.6595e-16
2
-2.00437e-16
2
1.20251e-16
2
-7.75071e-17
2
-1.36293e-17
2
5.68989e-17
2
1.18966e-17
2
4.20178e-18
2
-2.21543e-16
2
-1.26612e-16
2
-8.06344e-17
2
-1.61856e-16
2
-2.65539e-17
2
-1.12342e-16
2
-1.45895e-16
2
-1.28449e-16
2
-3.64058e-16
2
-2.281e-16
2
-2.12286e-16
2
-7.02337e-17
2
1.98855e-16
2
-1.06706e-16
2
9.8277e-17
2
2.04359e-16
2
3.47644e-16
2
1.55547e-16
2
-8.59018e-17
2
-2.28705e-16
2
-1.68886e-16
2
5.35455e-17
2
1.35566e-16
2
1.68005e-16
2
3.16616e-16
2
1.63012e-16
2
1.09221e-16
2
9.62444e-17
2
5.82189e-17
2
-3.4107e-17
2
-2.60366e-17
2
-1.60945e-16
2
-2.3829e-16
2
-2.22517e-16
2
-3.46771e-17
2
6.22988e-17
2
1.45245e-16
2
1.09748e-16
2
1.00767e-16
2
3.76928e-16
2
3.39598e-16
2
3.81446e-16
2
4.02848e-16
2
3.53266e-16
2
3.75335e-16
2
3.24873e-16
2
1.63717e-16
2
3.25726e-17
2
6.28449e-17
2
1.68187e-16
2
1.25695e-16
2
2.52312e-16
2
4.01958e-17
2
-6.27546e-17
2
4.38352e-17
2
4.21013e-17
2
8.41087e-17
2
1.56468e-17
2
-6.44556e-17
2
-1.68493e-16
2
-3.16823e-16
2
-1.71988e-16
2
-5.97373e-17
2
-7.64527e-17
2
-1.22949e-16
2
-2.82076e-16
2
-3.40319e-16
2
-2.34717e-16
2
-2.24789e-16
2
-4.09828e-16
2
-2.91789e-16
2
-2.02245e-16
2
-7.85519e-17
2
-1.11183e-16
2
-2.99003e-16
2
-2.47844e-16
2
-2.82467e-16
2
-3.14707e-16
2
-2.51901e-16
2
-3.39924e-16
2
-2.66083e-16
2
-2.07988e-16
2
-1.10873e-16
2
-5.37715e-18
2
-1.60025e-16
2
-1.58286e-16
2
-1.54044e-16
2
-3.41537e-17
2
2.08079e-16
2
3.68399e-16
2
4.1587e-16
1.96801e-16
2
-1.24755e-17
2
-1.27662e-18
2
-9.9616e-17
2
-1.88768e-16
2
-1.99195e-16
2
-2.00286e-16
2
-1.55707e-16
2
-2.53111e-16
2
-1.07329e-16
2
-8.22194e-17
2
-2.14021e-17
2
-8.94371e-17
2
-3.20896e-16
2
-3.57609e-16
2
-1.89899e-16
2
-2.06027e-16
2
-8.29575e-17
2
1.04412e-16
2
-8.78144e-17
2
-8.96791e-17
2
-2.08058e-16
2
-2.47442e-16
2
-7.10032e-17
2
-6.659e-17
2
-2.30268e-16
2
-3.91926e-16
2
-5.21242e-16
2
-2.59513e-16
2
-3.0338e-16
2
-2.90398e-16
2
-2.01861e-16
2
-9.55736e-17
2
-2.3344e-16
2
-1.75337e-16
2
-7.60273e-17
2
-9.5953e-18
2
-9.87057e-17
2
5.50055e-17
2
2.67126e-17
2
1.48383e-16
2
-1.97053e-17
2
-1.46195e-18
2
1.09258e-16
2
2.01599e-17
2
-1.25292e-16
2
-5.62051e-17
2
-6.63848e-17
2
-3.36665e-17
2
-2.28423e-17
2
-1.43663e-16
2
-1.23001e-16
2
1.73747e-16
2
1.20102e-16
2
8.92815e-17
2
6.64567e-17
2
-6.9182e-18
2
8.284e-17
2
1.30345e-16
2
1.43498e-16
2
2.04407e-16
2
9.93021e-17
2
1.73429e-16
2
2.86262e-16
2
2.39266e-16
2
2.35863e-16
2
1.66023e-16
2
2.13948e-17
2
-4.03189e-18
2
-1.35838e-16
2
7.94933e-17
2
-1.5855e-17
2
-1.14942e-16
2
-6.91582e-17
2
1.76308e-18
2
5.15393e-17
2
2.04667e-16
2
1.73121e-16
2
2.55565e-16
2
-3.36534e-17
2
2.09987e-16
2
3.25705e-16
2
-1.02902e-18
2
-1.4721e-16
2
5.47618e-17
2
2.02344e-16
2
3.03492e-16
2
2.22401e-16
2
3.79745e-16
2
3.5492e-16
2
-4.15207e-17
2
-5.81433e-17
2
2.8854e-17
2
-3.736e-17
2
-1.1401e-17
2
-1.26662e-16
2
1.72437e-16
2
-1.11932e-16
2
-1.59416e-16
2
-1.49885e-17
2
-1.52266e-16
2
-1.12246e-16
2
1.54253e-17
2
-1.07362e-16
2
-8.00109e-17
2
-4.69783e-17
2
-5.12769e-17
2
2.04389e-17
2
-1.12042e-16
2
-4.16256e-17
2
-1.53107e-16
2
-1.71334e-16
2
-1.84811e-16
2
-2.36221e-16
2
-1.46242e-16
2
-8.74172e-17
2
-1.24306e-16
2
-2.89741e-16
2
-2.65775e-16
2
-2.00859e-16
2
-1.50375e-17
2
1.01433e-16
2
-7.04495e-17
2
-1.07746e-16
2
1.9536e-16
2
-7.75898e-18
2
1.61798e-16
2
-2.04958e-17
2
-2.22141e-16
2
1.82641e-16
2
2.43786e-16
2
1.81889e-16
2
1.8724e-16
2
2.10733e-16
2
1.85788e-16
2
7.51295e-17
2
1.52734e-16
2
1.60762e-16
2
-1.44224e-16
2
-2.785e-16
2
-7.31857e-17
2
8.12279e-17
2
3.10553e-17
2
7.73008e-17
2
3.22009e-17
2
2.67715e-16
2
1.13039e-16
2
1.32058e-16
2
1.93914e-16
2
2.09244e-16
2
2.91976e-16
2
7.95869e-17
2
2.96329e-16
2
1.47774e-16
2
3.55768e-17
2
2.05477e-16
2
4.24702e-16
2
2.59787e-16
2
1.08515e-16
2
2.02285e-16
2
1.33676e-16
2
2.90717e-17
2
-4.31347e-17
2
-5.49811e-18
2
1.78195e-16
2
3.0374e-16
2
1.13932e-16
2
1.35713e-16
2
1.4672e-16
2
3.27707e-17
2
-2.04393e-17
2
-2.10206e-17
2
1.29376e-17
2
-5.34246e-17
2
-1.02069e-16
2
-2.03923e-16
2
-1.16454e-16
2
-2.29414e-16
2
-3.19555e-16
2
-4.07436e-16
2
-2.95119e-16
2
-2.31599e-16
2
-3.36428e-16
2
-2.10207e-16
2
-2.70303e-16
2
-1.58939e-16
2
-1.2062e-16
2
-1.66763e-16
2
-2.73043e-16
2
-3.07011e-16
2
-4.0646e-16
2
-1.68991e-16
2
-9.65267e-17
2
8.73077e-17
2
1.81459e-16
2
-1.27326e-16
2
-7.59019e-17
2
-2.90334e-16
2
-2.37666e-16
2
-1.96371e-16
-2.44706e-16
2
-8.51371e-17
2
6.47028e-17
2
-9.67468e-17
2
-3.70549e-16
2
-1.18465e-16
2
-2.02482e-16
2
-2.23179e-16
2
-2.52684e-16
2
-1.81577e-16
2
-1.01179e-16
2
7.27548e-17
2
1.64102e-16
2
6.13875e-18
2
-2.03739e-16
2
-3.13296e-16
2
-3.35603e-16
2
-2.1683e-16
2
-2.19611e-16
2
-1.21853e-16
2
-9.07197e-17
2
-3.16176e-16
2
-3.20288e-16
2
-3.62217e-16
2
-1.90937e-16
2
-1.85323e-16
2
-6.64115e-17
2
-5.56906e-17
2
-8.69888e-17
2
-2.55535e-16
2
-1.11069e-16
2
-8.04078e-17
2
-1.65955e-16
2
-8.0097e-18
2
-1.29949e-16
2
-1.35063e-16
2
-2.10277e-16
2
-5.77922e-17
2
-8.49337e-17
2
-1.69386e-16
2
-1.72077e-16
2
-1.23567e-16
2
1.80299e-16
2
-1.02914e-17
2
2.25489e-18
2
-6.48087e-17
2
-1.73416e-16
2
-1.2032e-16
2
-3.34213e-17
2
1.08442e-16
2
1.71188e-16
2
5.21273e-17
2
-1.30939e-16
2
-9.51817e-17
2
-9.09728e-17
2
-3.36634e-16
2
-1.29091e-16
2
7.20748e-17
2
3.4415e-18
2
5.88323e-17
2
4.52035e-17
2
3.20634e-16
2
4.33625e-16
2
1.82335e-16
2
-7.19206e-17
2
6.70658e-17
2
3.49407e-17
2
-1.75827e-16
2
-3.02792e-16
2
-3.06754e-16
2
-2.44408e-16
2
-2.58903e-16
2
-1.16779e-16
2
6.85916e-17
2
1.77669e-16
2
1.54712e-16
2
1.69108e-16
2
1.62396e-16
2
-1.01499e-16
2
3.69603e-18
2
-1.11843e-16
2
4.86976e-17
2
3.61705e-16
2
2.63525e-16
2
1.91902e-16
2
-5.19174e-17
2
-8.20575e-17
2
2.72437e-16
2
2.19401e-16
2
4.28372e-16
2
3.6779e-16
2
1.21192e-16
2
-2.4046e-16
2
-2.54238e-17
2
-1.6642e-17
2
-7.67584e-17
2
-1.94108e-16
2
-3.7723e-16
2
-2.56554e-16
2
-2.94779e-16
2
-1.88982e-16
2
-1.39856e-16
2
-1.63402e-16
2
-2.09354e-16
2
-2.11987e-16
2
-1.63602e-16
2
2.38696e-17
2
-6.45065e-18
2
-9.6441e-17
2
-1.43376e-16
2
-2.39771e-16
2
-3.18304e-16
2
-1.4466e-16
2
-8.85425e-17
2
-7.39193e-17
2
-1.62894e-16
2
-2.75077e-16
2
-2.41679e-16
2
-1.21905e-16
2
-1.8071e-16
2
-2.31035e-16
2
-1.33109e-16
2
-2.4035e-16
2
-2.67481e-16
2
-2.82057e-16
2
-2.37007e-16
2
-2.47714e-16
2
-1.89118e-16
2
1.67963e-16
2
6.7541e-17
2
7.76443e-17
2
1.34693e-16
2
1.7508e-16
2
2.16243e-16
2
2.59312e-16
2
2.25688e-16
2
1.89828e-16
2
-1.96901e-17
2
-5.93447e-17
2
-6.76401e-17
2
9.3704e-17
2
1.13203e-16
2
1.2108e-16
2
1.42173e-16
2
7.1437e-17
2
-1.74692e-16
2
5.66488e-17
2
1.93812e-16
2
4.47779e-17
2
1.0013e-16
2
-2.77589e-17
2
2.69969e-16
2
1.13172e-16
2
3.00445e-16
2
3.71559e-16
2
2.2964e-16
2
3.00258e-16
2
3.54798e-16
2
1.92355e-16
2
1.30293e-16
2
1.65759e-16
2
2.35427e-16
2
1.30637e-16
2
3.88582e-17
2
-3.9918e-17
2
1.31006e-17
2
2.45117e-16
2
1.92281e-16
2
6.16026e-17
2
6.1518e-17
2
-8.77087e-19
2
8.31668e-17
2
8.73358e-17
2
-5.38246e-17
2
-1.17943e-16
2
-3.74997e-17
2
-6.23101e-17
2
-4.50774e-17
2
-1.21392e-16
2
-2.1263e-16
2
-2.08517e-16
2
-1.2493e-16
2
-6.29371e-17
2
-1.64479e-16
2
-2.65586e-16
2
-3.98445e-16
2
-1.72078e-16
2
-1.92016e-16
2
-2.50619e-16
2
-2.13215e-16
2
-6.3105e-17
2
-6.41538e-17
2
-8.72158e-17
2
-8.95256e-17
2
-1.42924e-16
2
-1.29613e-16
2
-1.59886e-16
2
-1.79318e-16
2
-1.9569e-16
2
-2.45734e-16
9.44523e-18
2
1.08493e-16
2
-1.5171e-16
2
-3.9703e-17
2
2.63993e-17
2
-2.61455e-16
2
-1.93894e-16
2
-2.1988e-16
2
-1.17093e-16
2
-8.644e-17
2
-1.14416e-16
2
-9.05042e-17
2
1.49302e-19
2
7.26067e-17
2
-3.93388e-17
2
-1.33662e-16
2
1.17259e-16
2
1.85389e-17
2
7.31124e-17
2
-6.60204e-17
2
-2.76719e-16
2
-1.84124e-16
2
-2.15222e-16
2
-2.58941e-16
2
-1.41052e-16
2
-2.34941e-16
2
-3.87966e-16
2
-2.74652e-16
2
-2.24393e-16
2
-7.40161e-17
2
-2.67774e-16
2
-1.40466e-16
2
-2.3727e-16
2
-1.01946e-16
2
7.92734e-18
2
2.11615e-17
2
-9.23569e-17
2
-1.57152e-16
2
-3.63456e-17
2
6.21686e-18
2
-1.76191e-16
2
-8.94381e-17
2
-7.49062e-17
2
7.59679e-17
2
-6.39292e-18
2
-4.94363e-17
2
3.29709e-17
2
-1.86658e-16
2
-1.28352e-16
2
-1.33254e-16
2
-1.57883e-16
2
-1.06786e-16
2