/*--------------------------------*- C++ -*----------------------------------*\
  =========                 |
  \\      /  F ield         | OpenFOAM: The Open Source CFD Toolbox
   \\    /   O peration     | Website:  https://openfoam.org
    \\  /    A nd           | Version:  6
     \\/     M anipulation  |
\*---------------------------------------------------------------------------*/
FoamFile
{
    version     2.0;
    format      ascii;
    class       volVectorField;
    location    "150";
    object      U;
}
// * * * * * * * * * * * * * * * * * * * * * * * * * * * * * * * * * * * * * //

dimensions      [0 1 -1 0 0 0 0];

internalField   nonuniform List<vector> 
4000
(
(400 4.59188e-14 0)
(400 5.41493e-14 0)
(400 5.36618e-14 0)
(400 4.51511e-14 0)
(400 4.78922e-14 0)
(400 5.02075e-14 0)
(400 4.34636e-14 0)
(400 4.47583e-14 0)
(400 4.17947e-14 0)
(400 2.56309e-14 0)
(400 1.91571e-14 0)
(400 1.84901e-14 0)
(400 7.15452e-15 0)
(400 -7.72453e-15 0)
(400 -1.66745e-14 0)
(400 -1.81414e-14 0)
(400 -2.35021e-14 0)
(400 -4.05307e-14 0)
(400 -3.91287e-14 0)
(400 -2.74898e-14 0)
(400 7.60199e-15 0)
(400 3.70774e-14 0)
(400 5.33866e-14 0)
(400 7.46599e-14 0)
(400 9.74132e-14 0)
(400 1.04142e-13 0)
(400 9.76819e-14 0)
(400 9.90417e-14 0)
(400 1.12316e-13 0)
(400 1.08903e-13 0)
(400 9.77976e-14 0)
(400 7.99132e-14 0)
(400 7.3526e-14 0)
(400 6.34607e-14 0)
(400 4.70238e-14 0)
(400 4.73424e-14 0)
(400 2.14187e-14 0)
(400 1.02456e-14 0)
(400 -2.42942e-16 0)
(400 -7.31589e-15 0)
(400 7.75903e-16 0)
(400 5.11759e-16 0)
(400 -8.05674e-15 0)
(400 -1.27965e-14 0)
(400 -1.53309e-14 0)
(400 -1.32244e-14 0)
(400 -1.47874e-14 0)
(400 -2.0612e-14 0)
(400 -2.83776e-14 0)
(400 -3.12792e-14 0)
(400 -2.71645e-14 0)
(400 -2.70384e-14 0)
(400 -2.22968e-14 0)
(400 -1.62962e-14 0)
(400 -2.67291e-14 0)
(400 -3.85616e-14 0)
(400 -5.9497e-14 0)
(400 -7.06077e-14 0)
(400 -6.02355e-14 0)
(400 -4.55231e-14 0)
(400 -2.79317e-14 0)
(400 -1.62759e-14 0)
(400 -1.35386e-14 0)
(400 -1.00161e-14 0)
(400 6.10184e-15 0)
(400 3.13145e-14 0)
(400 4.40534e-14 0)
(400 3.77197e-14 0)
(400 1.86633e-14 0)
(400 6.25811e-15 0)
(400 8.58717e-15 0)
(400 1.18708e-14 0)
(400 6.57991e-15 0)
(400 3.74836e-15 0)
(400 -6.48577e-16 0)
(400 -1.95747e-15 0)
(400 -4.87452e-15 0)
(400 -3.45499e-15 0)
(400 7.71574e-15 0)
(400 9.27301e-15 0)
(400 2.13452e-14 0)
(400 3.93639e-14 0)
(400 3.81036e-14 0)
(400 2.31857e-14 0)
(400 1.24955e-14 0)
(400 9.03095e-15 0)
(400 -2.64213e-15 0)
(400 -8.71402e-15 0)
(400 -2.20612e-14 0)
(400 -4.14861e-14 0)
(400 -3.94469e-14 0)
(400 -3.36286e-14 0)
(400 -3.63491e-14 0)
(400 -4.53502e-14 0)
(400 -4.77074e-14 0)
(400 -2.95246e-14 0)
(400 -3.73678e-14 0)
(400 -1.71133e-14 0)
(400 2.89922e-15 0)
(400 2.6787e-14 0)
(400 4.68848e-14 0)
(400 4.33205e-14 0)
(400 3.49309e-14 0)
(400 4.46742e-14 0)
(400 3.59707e-14 0)
(400 1.59749e-14 0)
(400 1.01026e-14 0)
(400 7.11721e-15 0)
(400 -6.19369e-16 0)
(400 -1.79589e-14 0)
(400 -2.06689e-14 0)
(400 -1.2918e-14 0)
(400 2.75712e-15 0)
(400 1.20942e-14 0)
(400 2.18356e-14 0)
(400 3.6132e-14 0)
(400 3.58156e-14 0)
(400 4.45852e-14 0)
(400 4.79558e-14 0)
(400 4.41249e-14 0)
(400 2.47004e-14 0)
(400 9.08724e-15 0)
(400 -4.34111e-15 0)
(400 -2.2814e-14 0)
(400 -2.05748e-14 0)
(400 -7.75696e-15 0)
(400 8.37739e-15 0)
(400 1.84323e-14 0)
(400 2.85189e-14 0)
(400 3.99181e-14 0)
(400 4.502e-14 0)
(400 3.45497e-14 0)
(400 1.10517e-14 0)
(400 1.33091e-14 0)
(400 2.33146e-14 0)
(400 2.55971e-14 0)
(400 1.47239e-14 0)
(400 6.83255e-15 0)
(400 -1.34487e-14 0)
(400 -2.84417e-14 0)
(400 -3.87752e-14 0)
(400 -3.26899e-14 0)
(400 -4.19656e-15 0)
(400 2.31145e-15 0)
(400 2.92563e-15 0)
(400 1.44109e-14 0)
(400 1.62606e-14 0)
(400 1.92945e-15 0)
(400 -2.31818e-15 0)
(400 -2.32983e-14 0)
(400 -3.59652e-14 0)
(400 -4.00753e-14 0)
(400 -5.34193e-14 0)
(400 -7.32675e-14 0)
(400 -8.59827e-14 0)
(400 -9.77231e-14 0)
(400 -9.52534e-14 0)
(400 -8.11788e-14 0)
(400 -6.0405e-14 0)
(400 -1.95484e-14 0)
(400 -2.42155e-15 0)
(400 4.17736e-15 0)
(400 1.27264e-14 0)
(400 3.07852e-14 0)
(400 4.09979e-14 0)
(400 5.08977e-14 0)
(400 5.13265e-14 0)
(400 4.7646e-14 0)
(400 4.95361e-14 0)
(400 4.70885e-14 0)
(400 3.03396e-14 0)
(400 1.96862e-14 0)
(400 3.08002e-15 0)
(400 -1.42505e-14 0)
(400 -3.39671e-14 0)
(400 -6.23793e-14 0)
(400 -5.12012e-14 0)
(400 -1.72052e-14 0)
(400 -1.18575e-14 0)
(400 -1.32086e-14 0)
(400 -7.99458e-15 0)
(400 1.492e-14 0)
(400 2.13562e-14 0)
(400 7.20756e-15 0)
(400 -2.55044e-16 0)
(400 7.69307e-15 0)
(400 1.64028e-14 0)
(400 2.1137e-14 0)
(400 2.68911e-14 0)
(400 6.02083e-14 0)
(400 8.29925e-14 0)
(400 6.42588e-14 0)
(400 3.28361e-14 0)
(400 3.12905e-14 0)
(400 4.54193e-14 0)
(400 3.73117e-14 0)
(400 1.46329e-15 0)
(400 -1.4248e-14 0)
(400 -1.1678e-14 0)
(400 -6.83087e-15 0)
(400 -8.62174e-15 0)
(400 -6.63012e-15 0)
(400 1.34908e-14 0)
(400 3.25251e-14 0)
(400 4.52771e-14 0)
(400 6.00811e-14 0)
(400 6.34934e-14 0)
(400 5.61015e-14 0)
(400 4.46062e-14 0)
(400 2.64364e-14 0)
(400 1.50776e-14 0)
(400 1.04867e-14 0)
(400 -1.67494e-14 0)
(400 -2.54618e-14 0)
(400 -2.24567e-14 0)
(400 -3.28293e-14 0)
(400 -2.59546e-14 0)
(400 1.58201e-15 0)
(400 8.30825e-15 0)
(400 3.23469e-14 0)
(400 5.94205e-14 0)
(400 6.88561e-14 0)
(400 8.30036e-14 0)
(400 1.02138e-13 0)
(400 1.08588e-13 0)
(400 1.15722e-13 0)
(400 1.15193e-13 0)
(400 1.20308e-13 0)
(400 1.23588e-13 0)
(400 1.15574e-13 0)
(400 1.17803e-13 0)
(400 9.98891e-14 0)
(400 9.79804e-14 0)
(400 8.33196e-14 0)
(400 5.55612e-14 0)
(400 6.08585e-14 0)
(400 5.16695e-14 0)
(400 3.61001e-14 0)
(400 2.82481e-14 0)
(400 1.48336e-14 0)
(400 -4.80018e-15 0)
(400 -2.80537e-14 0)
(400 -3.75873e-14 0)
(400 -3.36178e-14 0)
(400 -3.28235e-14 0)
(400 -1.87613e-14 0)
(400 -2.10168e-14 0)
(400 -2.28619e-14 0)
(400 -2.58178e-14 0)
(400 -2.6833e-14 0)
(400 -2.20359e-15 0)
(400 1.66695e-14 0)
(400 1.87334e-14 0)
(400 8.8001e-15 0)
(400 -1.06321e-14 0)
(400 -2.97906e-14 0)
(400 -4.25036e-14 0)
(400 -4.456e-14 0)
(400 -3.85454e-14 0)
(400 -3.33802e-14 0)
(400 -2.68219e-14 0)
(400 -2.97826e-14 0)
(400 -2.84366e-14 0)
(400 -1.67271e-14 0)
(400 5.36783e-16 0)
(400 4.41057e-15 0)
(400 3.3374e-15 0)
(400 4.06042e-15 0)
(400 1.40889e-15 0)
(400 1.79634e-14 0)
(400 3.66318e-14 0)
(400 3.38733e-14 0)
(400 2.03404e-14 0)
(400 2.46855e-14 0)
(400 4.65319e-14 0)
(400 3.92332e-14 0)
(400 2.51525e-14 0)
(400 3.15694e-14 0)
(400 3.91133e-14 0)
(400 3.58273e-14 0)
(400 2.69343e-14 0)
(400 4.22644e-14 0)
(400 5.64763e-14 0)
(400 6.11716e-14 0)
(400 4.19876e-14 0)
(400 2.82622e-14 0)
(400 5.12995e-15 0)
(400 -7.7864e-15 0)
(400 -5.96918e-15 0)
(400 -2.244e-14 0)
(400 -3.34795e-14 0)
(400 -2.42917e-14 0)
(400 -2.93465e-14 0)
(400 -2.45382e-14 0)
(400 -2.20594e-14 0)
(400 -2.15572e-14 0)
(400 -1.92012e-14 0)
(400 -2.38036e-14 0)
(400 -3.72692e-15 0)
(400 1.36868e-14 0)
(400 1.44469e-14 0)
(400 6.06446e-15 0)
(400 -1.06523e-14 0)
(400 7.04906e-16 0)
(400 -7.25906e-15 0)
(400 -2.87256e-14 0)
(400 -3.0707e-14 0)
(400 -2.78252e-14 0)
(400 -2.9948e-14 0)
(400 -3.83353e-14 0)
(400 -2.65342e-14 0)
(400 -4.80263e-15 0)
(400 1.92003e-16 0)
(400 1.00311e-14 0)
(400 1.85192e-14 0)
(400 2.70386e-14 0)
(400 4.60044e-14 0)
(400 5.47596e-14 0)
(400 5.60528e-14 0)
(400 5.04641e-14 0)
(400 4.71843e-14 0)
(400 4.42659e-14 0)
(400 4.45214e-14 0)
(400 4.63152e-14 0)
(400 5.23084e-14 0)
(400 6.03924e-14 0)
(400 6.14613e-14 0)
(400 6.13699e-14 0)
(400 6.74347e-14 0)
(400 8.76157e-14 0)
(400 7.65161e-14 0)
(400 7.90785e-14 0)
(400 6.40691e-14 0)
(400 5.22611e-14 0)
(400 6.89093e-14 0)
(400 7.46955e-14 0)
(400 6.12926e-14 0)
(400 4.09151e-14 0)
(400 2.37605e-14 0)
(400 5.72413e-15 0)
(400 3.1154e-15 0)
(400 -7.00274e-15 0)
(400 -1.94186e-14 0)
(400 -2.13476e-14 0)
(400 -3.13144e-14 0)
(400 -4.59611e-14 0)
(400 -5.2879e-14 0)
(400 -4.34313e-14 0)
(400 -4.20512e-14 0)
(400 -4.36207e-14 0)
(400 -7.52166e-14 0)
(400 -7.95571e-14 0)
(400 -7.54275e-14 0)
(400 -8.91313e-14 0)
(400 -9.5177e-14 0)
(400 -9.36126e-14 0)
(400 -9.45339e-14 0)
(400 -9.16402e-14 0)
(400 -8.54152e-14 0)
(400 -6.96656e-14 0)
(400 -4.85902e-14 0)
(400 -1.92694e-14 0)
(400 4.18134e-15 0)
(400 1.87339e-14 0)
(400 1.43472e-14 0)
(400 1.86192e-14 0)
(400 2.05454e-14 0)
(400 1.66094e-14 0)
(400 4.76469e-15 0)
(400 -6.43238e-15 0)
(400 9.49232e-15 0)
(400 1.39534e-14 0)
(400 2.13194e-14 0)
(400 6.96982e-15 0)
(400 -1.40703e-14 0)
(400 -2.40456e-14 0)
(400 -1.73047e-14 0)
(400 -8.04436e-16 0)
(400 -1.56784e-14 0)
(400 -1.966e-14 0)
(400 -9.84132e-15 0)
(400 5.97492e-15 0)
(400 7.93761e-15 0)
(400 -5.09027e-15 0)
(400 -1.25391e-14 0)
(400 6.86878e-15 0)
(400 2.83972e-14 0)
(400 3.08013e-14 0)
(400 3.78252e-14 0)
(400 4.15142e-14 0)
(400 4.74323e-14 0)
(400 5.25298e-14 0)
(400 5.57568e-14 0)
(400 6.45748e-14 0)
(400 6.87181e-14 0)
(400 5.80404e-14 0)
(400 4.75788e-14 0)
(400 5.13653e-14 0)
(400 5.28401e-14 0)
(400 6.55189e-14 0)
(400 -3.18414e-14 0)
(400 -3.66343e-14 0)
(400 -1.79065e-14 0)
(400 1.32832e-14 0)
(400 3.58806e-14 0)
(400 5.45701e-14 0)
(400 6.21043e-14 0)
(400 5.69134e-14 0)
(400 5.14083e-14 0)
(400 4.83735e-14 0)
(400 3.47812e-14 0)
(400 2.37256e-14 0)
(400 6.9811e-15 0)
(400 1.28991e-14 0)
(400 2.43955e-14 0)
(400 1.42618e-14 0)
(400 6.83204e-15 0)
(400 2.32025e-14 0)
(400 2.45287e-14 0)
(400 1.30672e-14 0)
(400 9.48893e-15 0)
(400 3.09388e-15 0)
(400 1.80832e-14 0)
(400 5.8889e-14 0)
(400 7.15473e-14 0)
(400 8.34081e-14 0)
(400 8.67738e-14 0)
(400 7.97298e-14 0)
(400 8.18277e-14 0)
(400 8.03597e-14 0)
(400 7.51121e-14 0)
(400 5.94403e-14 0)
(400 4.53304e-14 0)
(400 4.06238e-14 0)
(400 1.11982e-14 0)
(400 -2.45642e-15 0)
(400 7.55579e-15 0)
(400 2.81648e-16 0)
(400 -2.19641e-14 0)
(400 -5.46937e-14 0)
(400 -7.12842e-14 0)
(400 -7.54853e-14 0)
(400 -7.83603e-14 0)
(400 -6.83789e-14 0)
(400 -6.62392e-14 0)
(400 -3.81074e-14 0)
(400 -2.41962e-14 0)
(400 -1.47405e-14 0)
(400 -6.66403e-16 0)
(400 3.11013e-15 0)
(400 1.63672e-14 0)
(400 4.09814e-14 0)
(400 4.81241e-14 0)
(400 1.91277e-14 0)
(400 3.57084e-15 0)
(400 -9.63109e-15 0)
(400 -1.66187e-14 0)
(400 -1.18915e-14 0)
(400 -1.55496e-14 0)
(400 -1.06136e-14 0)
(400 -3.3958e-15 0)
(400 -1.26719e-14 0)
(400 -1.52509e-14 0)
(400 -2.34864e-14 0)
(400 -2.47239e-14 0)
(400 -3.93699e-14 0)
(400 -3.46182e-14 0)
(400 -2.66598e-14 0)
(400 -2.08508e-14 0)
(400 -6.25115e-15 0)
(400 -7.42868e-15 0)
(400 -1.96719e-14 0)
(400 -2.39402e-14 0)
(400 -2.08185e-14 0)
(400 -5.61069e-15 0)
(400 -2.59659e-15 0)
(400 -5.81587e-15 0)
(400 3.93247e-15 0)
(400 7.76331e-15 0)
(400 3.83189e-14 0)
(400 3.47256e-14 0)
(400 1.94279e-14 0)
(400 1.03122e-14 0)
(400 1.17708e-16 0)
(400 -1.09005e-14 0)
(400 -1.70035e-14 0)
(400 -2.19344e-14 0)
(400 -1.16814e-14 0)
(400 8.62416e-15 0)
(400 1.96103e-14 0)
(400 1.45687e-14 0)
(400 7.31675e-15 0)
(400 1.40734e-14 0)
(400 2.44782e-14 0)
(400 3.33009e-14 0)
(400 3.53815e-14 0)
(400 3.95699e-14 0)
(400 2.94434e-14 0)
(400 3.92235e-14 0)
(400 3.80824e-14 0)
(400 3.32926e-14 0)
(400 3.76947e-14 0)
(400 5.95511e-14 0)
(400 5.55262e-14 0)
(400 3.50896e-14 0)
(400 1.85948e-14 0)
(400 1.59699e-14 0)
(400 2.42853e-14 0)
(400 7.93068e-15 0)
(400 -1.364e-15 0)
(400 -3.69802e-15 0)
(400 1.20641e-14 0)
(400 9.44908e-15 0)
(400 7.04968e-16 0)
(400 -1.2397e-14 0)
(400 -2.0282e-14 0)
(400 -1.67466e-14 0)
(400 -4.65297e-15 0)
(400 -6.93184e-15 0)
(400 -9.67965e-15 0)
(400 6.73145e-15 0)
(400 1.75589e-14 0)
(400 7.46483e-15 0)
(400 1.08116e-14 0)
(400 1.24928e-14 0)
(400 1.3506e-14 0)
(400 1.81271e-14 0)
(400 2.73152e-14 0)
(400 5.21077e-14 0)
(400 7.05359e-14 0)
(400 6.70483e-14 0)
(400 6.90077e-14 0)
(400 7.24424e-14 0)
(400 4.1713e-14 0)
(400 2.89119e-14 0)
(400 2.93933e-14 0)
(400 3.31735e-14 0)
(400 2.48758e-14 0)
(400 2.02775e-14 0)
(400 3.02824e-14 0)
(400 4.26108e-14 0)
(400 3.42621e-14 0)
(400 1.67324e-14 0)
(400 1.55181e-14 0)
(400 5.42135e-15 0)
(400 -4.52938e-15 0)
(400 -2.23792e-14 0)
(400 -2.20306e-14 0)
(400 -1.06253e-14 0)
(400 -3.09376e-15 0)
(400 -6.89674e-15 0)
(400 5.00932e-15 0)
(400 -7.51325e-15 0)
(400 -4.41863e-15 0)
(400 -1.29942e-15 0)
(400 7.09847e-15 0)
(400 -1.28975e-14 0)
(400 -5.77414e-15 0)
(400 -1.02787e-14 0)
(400 -1.89021e-14 0)
(400 -1.54206e-14 0)
(400 -8.62416e-15 0)
(400 -6.6338e-15 0)
(400 -9.98051e-15 0)
(400 -1.09973e-14 0)
(400 -1.62887e-14 0)
(400 -2.11964e-14 0)
(400 -1.86747e-14 0)
(400 -3.39174e-14 0)
(400 -4.25844e-14 0)
(400 -4.17327e-14 0)
(400 -5.21591e-14 0)
(400 -5.22129e-14 0)
(400 -4.95768e-14 0)
(400 -5.84466e-14 0)
(400 -6.44846e-14 0)
(400 -7.43806e-14 0)
(400 -7.3129e-14 0)
(400 -6.95506e-14 0)
(400 -5.42191e-14 0)
(400 -4.07479e-14 0)
(400 -3.95005e-14 0)
(400 -3.3678e-14 0)
(400 -1.29899e-14 0)
(400 -1.13189e-15 0)
(400 7.77868e-15 0)
(400 1.32689e-14 0)
(400 3.19305e-14 0)
(400 5.02377e-14 0)
(400 5.3461e-14 0)
(400 5.42819e-14 0)
(400 6.15167e-14 0)
(400 6.91542e-14 0)
(400 8.09883e-14 0)
(400 5.94816e-14 0)
(400 3.86975e-14 0)
(400 4.53988e-14 0)
(400 5.88667e-14 0)
(400 6.29738e-14 0)
(400 6.37892e-14 0)
(400 -1.29691e-14 0)
(400 -1.21255e-14 0)
(400 2.67481e-15 0)
(400 1.87595e-14 0)
(400 1.75405e-14 0)
(400 1.37e-14 0)
(400 1.98399e-14 0)
(400 2.33799e-14 0)
(400 3.42049e-14 0)
(400 4.33948e-14 0)
(400 3.70613e-14 0)
(400 2.03077e-14 0)
(400 3.33142e-14 0)
(400 3.79495e-14 0)
(400 3.86081e-14 0)
(400 2.90611e-14 0)
(400 1.29382e-14 0)
(400 2.89983e-15 0)
(400 -1.5879e-15 0)
(400 4.19928e-18 0)
(400 -1.53322e-14 0)
(400 -2.25741e-14 0)
(400 -4.87534e-15 0)
(400 1.7078e-14 0)
(400 3.30482e-14 0)
(400 4.73075e-14 0)
(400 4.79726e-14 0)
(400 4.58182e-14 0)
(400 4.77414e-14 0)
(400 5.62317e-14 0)
(400 5.69059e-14 0)
(400 5.2639e-14 0)
(400 5.212e-14 0)
(400 4.52287e-14 0)
(400 4.5013e-14 0)
(400 2.14554e-14 0)
(400 1.2089e-14 0)
(400 -7.97246e-16 0)
(400 -2.10951e-14 0)
(400 -4.48986e-14 0)
(400 -4.03623e-14 0)
(400 -3.24353e-14 0)
(400 -3.28629e-14 0)
(400 -3.91039e-14 0)
(400 -2.87412e-14 0)
(400 -2.91815e-14 0)
(400 -3.6828e-15 0)
(400 2.16341e-14 0)
(400 3.69779e-14 0)
(400 4.6815e-14 0)
(400 4.32248e-14 0)
(400 4.25491e-14 0)
(400 3.37559e-14 0)
(400 2.30029e-14 0)
(400 9.95711e-15 0)
(400 4.33117e-15 0)
(400 1.63022e-14 0)
(400 2.8477e-14 0)
(400 2.57638e-14 0)
(400 3.57443e-14 0)
(400 3.0242e-14 0)
(400 1.22679e-14 0)
(400 -2.98379e-16 0)
(400 -1.2286e-14 0)
(400 -2.32158e-14 0)
(400 -2.43522e-14 0)
(400 -1.2927e-14 0)
(400 -2.98985e-15 0)
(400 1.61778e-14 0)
(400 1.47536e-14 0)
(400 1.49767e-15 0)
(400 -5.07524e-15 0)
(400 -1.3216e-15 0)
(400 5.71238e-15 0)
(400 -3.80207e-15 0)
(400 -1.66564e-14 0)
(400 -1.17649e-14 0)
(400 -1.57578e-14 0)
(400 -5.81222e-15 0)
(400 6.00714e-15 0)
(400 2.69742e-15 0)
(400 -8.89606e-15 0)
(400 -8.26955e-15 0)
(400 -1.07428e-14 0)
(400 -2.35941e-14 0)
(400 -3.11668e-14 0)
(400 4.07728e-15 0)
(400 2.55272e-14 0)
(400 3.34813e-14 0)
(400 4.37695e-14 0)
(400 5.21734e-14 0)
(400 4.17226e-14 0)
(400 3.3757e-14 0)
(400 2.39717e-14 0)
(400 3.23173e-14 0)
(400 3.71631e-14 0)
(400 3.53465e-14 0)
(400 3.68036e-14 0)
(400 3.94509e-14 0)
(400 3.53075e-14 0)
(400 3.16994e-14 0)
(400 2.79905e-14 0)
(400 3.48306e-14 0)
(400 2.52172e-14 0)
(400 1.66855e-15 0)
(400 -3.5608e-15 0)
(400 -5.48155e-15 0)
(400 -1.79987e-15 0)
(400 -1.82686e-15 0)
(400 -1.17788e-15 0)
(400 -1.1647e-14 0)
(400 -7.07036e-15 0)
(400 5.12229e-15 0)
(400 5.29321e-16 0)
(400 -8.5677e-15 0)
(400 -9.42258e-15 0)
(400 -4.85644e-15 0)
(400 -2.86095e-16 0)
(400 4.63807e-15 0)
(400 6.00668e-15 0)
(400 2.46146e-14 0)
(400 4.21314e-14 0)
(400 4.68175e-14 0)
(400 4.63424e-14 0)
(400 4.91394e-14 0)
(400 5.19345e-14 0)
(400 6.36055e-14 0)
(400 9.21018e-14 0)
(400 1.2835e-13 0)
(400 1.50333e-13 0)
(400 1.60037e-13 0)
(400 1.43736e-13 0)
(400 1.39673e-13 0)
(400 1.15499e-13 0)
(400 8.05009e-14 0)
(400 4.79617e-14 0)
(400 5.04563e-14 0)
(400 6.53033e-14 0)
(400 6.51915e-14 0)
(400 6.24243e-14 0)
(400 3.46689e-14 0)
(400 1.881e-14 0)
(400 7.12581e-15 0)
(400 1.08381e-15 0)
(400 5.43459e-15 0)
(400 -3.12906e-15 0)
(400 -1.27813e-14 0)
(400 -2.78292e-14 0)
(400 -3.06129e-14 0)
(400 -2.14846e-14 0)
(400 -2.89574e-14 0)
(400 -4.00335e-14 0)
(400 -4.75736e-14 0)
(400 -3.19647e-14 0)
(400 -4.3741e-14 0)
(400 -4.53201e-14 0)
(400 -4.82765e-14 0)
(400 -4.93221e-14 0)
(400 -4.8731e-14 0)
(400 -6.24514e-14 0)
(400 -6.28785e-14 0)
(400 -6.38597e-14 0)
(400 -6.98492e-14 0)
(400 -7.05831e-14 0)
(400 -6.62244e-14 0)
(400 -7.31262e-14 0)
(400 -6.1403e-14 0)
(400 -5.85251e-14 0)
(400 -3.81958e-14 0)
(400 -2.0116e-14 0)
(400 -1.86208e-14 0)
(400 -1.03905e-14 0)
(400 3.64336e-15 0)
(400 3.22224e-15 0)
(400 1.0937e-14 0)
(400 9.8752e-15 0)
(400 5.19898e-15 0)
(400 -1.80998e-14 0)
(400 -2.174e-15 0)
(400 2.4169e-15 0)
(400 4.66418e-15 0)
(400 9.56237e-15 0)
(400 2.58967e-14 0)
(400 5.61707e-14 0)
(400 5.92683e-14 0)
(400 5.48152e-14 0)
(400 5.29239e-14 0)
(400 5.33915e-14 0)
(400 5.84813e-14 0)
(400 6.33653e-14 0)
(400 8.60522e-14 0)
(400 9.94175e-14 0)
(400 9.2562e-14 0)
(400 9.61879e-14 0)
(400 8.32564e-14 0)
(400 9.67043e-14 0)
(400 1.20031e-13 0)
(400 1.12405e-13 0)
(400 1.07805e-13 0)
(400 8.10745e-14 0)
(400 4.13705e-16 0)
(400 2.29795e-15 0)
(400 -4.03419e-15 0)
(400 -5.49529e-15 0)
(400 -1.12785e-14 0)
(400 -2.29025e-14 0)
(400 -2.09987e-14 0)
(400 -1.88998e-16 0)
(400 9.43022e-15 0)
(400 1.72041e-14 0)
(400 8.40656e-15 0)
(400 -9.9545e-15 0)
(400 3.82618e-15 0)
(400 1.72017e-14 0)
(400 2.54202e-14 0)
(400 2.84346e-14 0)
(400 3.57022e-14 0)
(400 2.36415e-14 0)
(400 1.67897e-14 0)
(400 2.84115e-14 0)
(400 2.18291e-14 0)
(400 1.18835e-14 0)
(400 -2.20959e-15 0)
(400 -2.45011e-14 0)
(400 -2.89031e-14 0)
(400 -2.3223e-14 0)
(400 -9.21439e-15 0)
(400 7.3443e-15 0)
(400 1.8847e-14 0)
(400 3.38744e-14 0)
(400 3.46341e-14 0)
(400 5.34987e-14 0)
(400 5.50009e-14 0)
(400 4.74077e-14 0)
(400 6.31239e-14 0)
(400 5.12642e-14 0)
(400 1.48783e-14 0)
(400 -1.70197e-14 0)
(400 -3.4498e-14 0)
(400 -3.32429e-14 0)
(400 -2.89334e-14 0)
(400 -3.27122e-14 0)
(400 -2.622e-14 0)
(400 -1.8764e-14 0)
(400 1.0477e-14 0)
(400 4.61359e-15 0)
(400 3.13048e-14 0)
(400 5.45542e-14 0)
(400 6.44917e-14 0)
(400 7.42465e-14 0)
(400 8.97679e-14 0)
(400 7.10272e-14 0)
(400 5.22218e-14 0)
(400 5.03949e-14 0)
(400 4.57244e-14 0)
(400 5.43236e-14 0)
(400 6.34564e-14 0)
(400 5.8523e-14 0)
(400 5.3397e-14 0)
(400 4.99538e-14 0)
(400 3.27718e-14 0)
(400 1.75608e-14 0)
(400 3.01857e-16 0)
(400 -1.06079e-14 0)
(400 -2.76117e-14 0)
(400 -2.77004e-14 0)
(400 -2.87519e-14 0)
(400 -4.95928e-15 0)
(400 1.78182e-14 0)
(400 2.12096e-14 0)
(400 1.91073e-14 0)
(400 2.5803e-14 0)
(400 1.75463e-14 0)
(400 7.62741e-15 0)
(400 -9.25641e-15 0)
(400 -2.75859e-14 0)
(400 -2.91636e-14 0)
(400 -4.24354e-14 0)
(400 -3.37938e-14 0)
(400 -3.98056e-14 0)
(400 -4.53635e-14 0)
(400 -4.36753e-14 0)
(400 -3.04316e-14 0)
(400 -2.54992e-14 0)
(400 -2.08078e-14 0)
(400 -8.63898e-15 0)
(400 1.53701e-14 0)
(400 2.52005e-14 0)
(400 3.01757e-14 0)
(400 3.88992e-14 0)
(400 5.22716e-14 0)
(400 6.36233e-14 0)
(400 5.49728e-14 0)
(400 4.29159e-14 0)
(400 3.70166e-14 0)
(400 3.23645e-14 0)
(400 2.9238e-14 0)
(400 4.11801e-14 0)
(400 3.98001e-14 0)
(400 4.44231e-14 0)
(400 4.99515e-14 0)
(400 4.10534e-14 0)
(400 1.32714e-14 0)
(400 -3.17917e-15 0)
(400 -3.95902e-15 0)
(400 2.79566e-15 0)
(400 8.91992e-15 0)
(400 1.36657e-14 0)
(400 3.08101e-14 0)
(400 3.80022e-14 0)
(400 3.05464e-14 0)
(400 1.40789e-14 0)
(400 7.03516e-15 0)
(400 3.62793e-15 0)
(400 -1.5759e-16 0)
(400 -5.70315e-15 0)
(400 -5.35447e-15 0)
(400 -5.21695e-15 0)
(400 -3.43621e-15 0)
(400 -1.17934e-14 0)
(400 -1.07294e-14 0)
(400 1.30403e-14 0)
(400 4.34157e-14 0)
(400 5.93756e-14 0)
(400 7.4795e-14 0)
(400 8.35792e-14 0)
(400 8.70013e-14 0)
(400 9.83611e-14 0)
(400 1.08752e-13 0)
(400 1.10008e-13 0)
(400 9.57543e-14 0)
(400 8.53439e-14 0)
(400 8.22561e-14 0)
(400 6.63052e-14 0)
(400 3.53639e-14 0)
(400 1.30244e-14 0)
(400 1.33699e-14 0)
(400 2.93314e-14 0)
(400 4.50804e-14 0)
(400 3.7302e-14 0)
(400 1.25893e-14 0)
(400 4.5032e-15 0)
(400 -3.51166e-15 0)
(400 -5.66747e-15 0)
(400 1.78002e-14 0)
(400 3.1649e-14 0)
(400 2.58275e-14 0)
(400 2.60104e-14 0)
(400 3.29718e-14 0)
(400 4.94213e-14 0)
(400 6.68027e-14 0)
(400 6.67273e-14 0)
(400 7.99336e-14 0)
(400 8.76405e-14 0)
(400 8.04007e-14 0)
(400 6.74572e-14 0)
(400 6.5175e-14 0)
(400 4.94234e-14 0)
(400 4.28327e-14 0)
(400 3.09159e-14 0)
(400 2.03165e-14 0)
(400 1.11784e-15 0)
(400 -1.36653e-14 0)
(400 -2.95945e-14 0)
(400 -5.85633e-14 0)
(400 -8.2313e-14 0)
(400 -9.28656e-14 0)
(400 -9.86526e-14 0)
(400 -8.10224e-14 0)
(400 -6.19802e-14 0)
(400 -5.80233e-14 0)
(400 -3.69177e-14 0)
(400 -2.52613e-14 0)
(400 -1.8201e-14 0)
(400 7.45932e-15 0)
(400 1.88159e-14 0)
(400 1.1891e-14 0)
(400 -6.57454e-15 0)
(400 -8.93537e-15 0)
(400 -1.75985e-14 0)
(400 -1.68489e-14 0)
(400 -8.06701e-15 0)
(400 1.85172e-14 0)
(400 1.19072e-14 0)
(400 2.64073e-15 0)
(400 -1.62654e-15 0)
(400 7.34646e-15 0)
(400 1.01008e-14 0)
(400 1.38675e-14 0)
(400 9.36769e-15 0)
(400 1.38305e-14 0)
(400 2.43714e-14 0)
(400 4.44617e-14 0)
(400 5.40828e-14 0)
(400 5.85439e-14 0)
(400 8.1399e-14 0)
(400 1.00673e-13 0)
(400 9.24561e-14 0)
(400 8.56553e-14 0)
(400 7.06542e-14 0)
(400 1.74615e-15 0)
(400 1.59376e-15 0)
(400 -1.91377e-14 0)
(400 -2.34901e-14 0)
(400 -2.2699e-14 0)
(400 -1.92627e-14 0)
(400 -1.72669e-14 0)
(400 -9.50621e-15 0)
(400 -1.46612e-15 0)
(400 -1.258e-14 0)
(400 -2.65255e-14 0)
(400 -3.70355e-14 0)
(400 -3.65768e-14 0)
(400 -2.71512e-14 0)
(400 -2.43319e-14 0)
(400 -2.61126e-14 0)
(400 -1.62595e-14 0)
(400 -5.09851e-15 0)
(400 4.74129e-15 0)
(400 -1.31317e-14 0)
(400 -5.34161e-17 0)
(400 4.45619e-15 0)
(400 -1.18736e-14 0)
(400 -2.8255e-14 0)
(400 -3.87582e-14 0)
(400 -2.60472e-14 0)
(400 -2.22413e-14 0)
(400 -8.38562e-16 0)
(400 2.21614e-14 0)
(400 3.08296e-14 0)
(400 3.64032e-14 0)
(400 5.05998e-14 0)
(400 4.64695e-14 0)
(400 4.794e-14 0)
(400 4.90268e-14 0)
(400 4.3522e-14 0)
(400 1.64689e-14 0)
(400 -1.07605e-14 0)
(400 -2.50825e-14 0)
(400 -2.51744e-14 0)
(400 -4.63754e-15 0)
(400 2.32836e-15 0)
(400 1.05258e-14 0)
(400 2.32334e-14 0)
(400 3.67627e-14 0)
(400 4.05683e-14 0)
(400 4.67404e-14 0)
(400 4.77815e-14 0)
(400 5.27166e-14 0)
(400 4.69014e-14 0)
(400 6.02448e-14 0)
(400 4.83032e-14 0)
(400 3.6303e-14 0)
(400 2.43392e-14 0)
(400 1.63556e-14 0)
(400 1.6826e-14 0)
(400 4.72706e-15 0)
(400 -3.39202e-15 0)
(400 -1.74991e-14 0)
(400 -2.12364e-14 0)
(400 -2.15245e-14 0)
(400 -3.28097e-14 0)
(400 -4.43886e-14 0)
(400 -4.8555e-14 0)
(400 -4.92396e-14 0)
(400 -4.32269e-14 0)
(400 -4.4721e-14 0)
(400 -2.65799e-14 0)
(400 -1.27385e-14 0)
(400 6.59627e-15 0)
(400 3.8643e-14 0)
(400 5.13359e-14 0)
(400 3.93762e-14 0)
(400 1.49989e-14 0)
(400 5.38156e-15 0)
(400 5.22792e-15 0)
(400 -8.35653e-15 0)
(400 -1.76685e-14 0)
(400 -2.7693e-14 0)
(400 -3.12281e-14 0)
(400 -3.36355e-14 0)
(400 -3.70454e-14 0)
(400 -3.08726e-14 0)
(400 -2.99595e-14 0)
(400 -1.21556e-14 0)
(400 2.03259e-14 0)
(400 2.18533e-14 0)
(400 1.72222e-14 0)
(400 1.66106e-14 0)
(400 2.1675e-14 0)
(400 2.77721e-14 0)
(400 4.78094e-14 0)
(400 7.28116e-14 0)
(400 6.64909e-14 0)
(400 5.5445e-14 0)
(400 2.94735e-14 0)
(400 3.91927e-14 0)
(400 4.34279e-14 0)
(400 3.17154e-14 0)
(400 4.22985e-14 0)
(400 4.61868e-14 0)
(400 3.92428e-14 0)
(400 1.96525e-14 0)
(400 -5.39906e-15 0)
(400 -7.24423e-15 0)
(400 -1.3288e-14 0)
(400 -1.08783e-14 0)
(400 5.69911e-16 0)
(400 1.39364e-14 0)
(400 2.92893e-14 0)
(400 5.07382e-14 0)
(400 5.52982e-14 0)
(400 4.356e-14 0)
(400 4.01518e-14 0)
(400 2.87344e-14 0)
(400 2.1292e-14 0)
(400 2.06187e-14 0)
(400 1.43619e-14 0)
(400 1.30095e-14 0)
(400 1.0071e-14 0)
(400 4.67299e-15 0)
(400 3.24883e-14 0)
(400 7.84017e-14 0)
(400 1.0519e-13 0)
(400 1.1159e-13 0)
(400 1.14078e-13 0)
(400 1.22983e-13 0)
(400 1.19006e-13 0)
(400 9.33174e-14 0)
(400 4.65904e-14 0)
(400 3.55842e-14 0)
(400 3.63199e-14 0)
(400 3.08316e-14 0)
(400 1.12079e-14 0)
(400 -6.804e-15 0)
(400 -1.32317e-14 0)
(400 -2.90666e-16 0)
(400 5.74883e-15 0)
(400 1.16134e-14 0)
(400 8.72883e-15 0)
(400 -7.74143e-15 0)
(400 -1.16814e-14 0)
(400 -1.51652e-14 0)
(400 -1.76216e-14 0)
(400 -8.46183e-16 0)
(400 2.77394e-14 0)
(400 3.55963e-14 0)
(400 2.05636e-14 0)
(400 1.50607e-14 0)
(400 1.43207e-14 0)
(400 4.30326e-14 0)
(400 7.0453e-14 0)
(400 7.82451e-14 0)
(400 6.63707e-14 0)
(400 6.91234e-14 0)
(400 6.23974e-14 0)
(400 6.6033e-14 0)
(400 4.57732e-14 0)
(400 2.55789e-14 0)
(400 1.59094e-14 0)
(400 -1.40074e-15 0)
(400 -4.07135e-14 0)
(400 -7.35241e-14 0)
(400 -1.0309e-13 0)
(400 -1.22083e-13 0)
(400 -1.35153e-13 0)
(400 -1.47681e-13 0)
(400 -1.32382e-13 0)
(400 -1.26138e-13 0)
(400 -1.02924e-13 0)
(400 -8.8439e-14 0)
(400 -7.50513e-14 0)
(400 -7.65294e-14 0)
(400 -5.33674e-14 0)
(400 -1.75505e-14 0)
(400 -1.51424e-14 0)
(400 -9.46692e-15 0)
(400 1.19048e-14 0)
(400 1.54461e-14 0)
(400 1.95617e-14 0)
(400 1.29832e-14 0)
(400 1.39283e-14 0)
(400 2.94371e-14 0)
(400 1.59042e-14 0)
(400 2.02304e-14 0)
(400 3.12922e-15 0)
(400 -1.48969e-14 0)
(400 -3.97063e-15 0)
(400 -4.42987e-15 0)
(400 -7.24641e-16 0)
(400 -2.8333e-15 0)
(400 2.61395e-15 0)
(400 3.696e-14 0)
(400 6.04089e-14 0)
(400 8.25114e-14 0)
(400 9.72778e-14 0)
(400 8.85839e-14 0)
(400 8.4701e-14 0)
(400 8.33902e-14 0)
(400 9.39053e-14 0)
(400 -2.08492e-14 0)
(400 -4.07523e-14 0)
(400 -4.23312e-14 0)
(400 -4.67794e-14 0)
(400 -4.38558e-14 0)
(400 -4.89604e-14 0)
(400 -4.72148e-14 0)
(400 -4.47131e-14 0)
(400 -3.48224e-14 0)
(400 -3.16014e-14 0)
(400 -3.21591e-14 0)
(400 -3.6428e-14 0)
(400 -2.60344e-14 0)
(400 -9.67825e-15 0)
(400 -2.97252e-14 0)
(400 -4.54995e-14 0)
(400 -4.46383e-14 0)
(400 -3.82767e-14 0)
(400 -2.48496e-14 0)
(400 -2.04419e-14 0)
(400 -1.0401e-15 0)
(400 2.87657e-14 0)
(400 5.53286e-14 0)
(400 3.67305e-14 0)
(400 2.94847e-14 0)
(400 4.46767e-14 0)
(400 4.88084e-14 0)
(400 4.96071e-14 0)
(400 4.55288e-14 0)
(400 3.20039e-14 0)
(400 3.73986e-14 0)
(400 4.63975e-14 0)
(400 5.25517e-14 0)
(400 4.78622e-14 0)
(400 3.9157e-14 0)
(400 2.4695e-14 0)
(400 5.83239e-15 0)
(400 -1.02877e-14 0)
(400 -1.19337e-14 0)
(400 -2.30809e-14 0)
(400 -1.93622e-14 0)
(400 -6.51473e-15 0)
(400 6.38967e-15 0)
(400 1.66378e-14 0)
(400 2.20071e-14 0)
(400 2.56411e-14 0)
(400 2.99915e-14 0)
(400 3.45766e-14 0)
(400 4.55404e-14 0)
(400 5.38228e-14 0)
(400 4.64354e-14 0)
(400 4.97466e-14 0)
(400 4.35525e-14 0)
(400 3.8105e-14 0)
(400 4.78654e-14 0)
(400 3.0455e-14 0)
(400 2.41281e-15 0)
(400 -6.23169e-15 0)
(400 -2.22216e-15 0)
(400 -7.24301e-15 0)
(400 -1.83278e-15 0)
(400 -1.50156e-15 0)
(400 -9.29574e-15 0)
(400 -3.62299e-15 0)
(400 9.45091e-15 0)
(400 2.00251e-14 0)
(400 3.09763e-14 0)
(400 2.01407e-14 0)
(400 1.30943e-14 0)
(400 2.6807e-14 0)
(400 2.9297e-14 0)
(400 3.07161e-14 0)
(400 2.97364e-14 0)
(400 2.11564e-14 0)
(400 2.35281e-14 0)
(400 1.76262e-14 0)
(400 1.57314e-14 0)
(400 5.73128e-15 0)
(400 -8.65532e-15 0)
(400 -2.22258e-14 0)
(400 -2.62878e-14 0)
(400 -2.71391e-14 0)
(400 -2.59958e-14 0)
(400 -1.7969e-14 0)
(400 -1.39259e-14 0)
(400 -1.51239e-14 0)
(400 -2.48465e-14 0)
(400 -2.68337e-14 0)
(400 -3.1991e-14 0)
(400 -1.28711e-14 0)
(400 -1.26786e-15 0)
(400 1.92703e-14 0)
(400 4.19474e-14 0)
(400 6.34672e-14 0)
(400 5.8346e-14 0)
(400 4.74705e-14 0)
(400 6.14253e-14 0)
(400 4.24982e-14 0)
(400 2.67259e-14 0)
(400 1.5638e-14 0)
(400 4.96287e-15 0)
(400 7.54137e-15 0)
(400 5.89882e-15 0)
(400 1.58753e-14 0)
(400 9.23356e-15 0)
(400 -4.68263e-15 0)
(400 -7.50428e-15 0)
(400 -1.6919e-14 0)
(400 -1.31456e-14 0)
(400 -8.49822e-15 0)
(400 7.57028e-15 0)
(400 3.15692e-14 0)
(400 3.49308e-14 0)
(400 3.33588e-14 0)
(400 1.90258e-14 0)
(400 1.05178e-14 0)
(400 2.61024e-14 0)
(400 8.78237e-15 0)
(400 7.72295e-16 0)
(400 3.19944e-15 0)
(400 -1.34303e-15 0)
(400 2.31974e-14 0)
(400 4.26351e-14 0)
(400 8.27168e-14 0)
(400 9.38031e-14 0)
(400 1.00602e-13 0)
(400 1.15888e-13 0)
(400 1.08963e-13 0)
(400 7.66842e-14 0)
(400 4.14589e-14 0)
(400 4.04125e-14 0)
(400 5.30816e-14 0)
(400 3.75592e-14 0)
(400 3.14385e-14 0)
(400 2.56602e-14 0)
(400 2.42203e-14 0)
(400 3.80959e-14 0)
(400 4.0503e-14 0)
(400 2.66709e-14 0)
(400 1.37695e-14 0)
(400 1.46656e-14 0)
(400 2.37304e-14 0)
(400 1.58447e-14 0)
(400 1.0126e-14 0)
(400 1.36863e-14 0)
(400 3.01559e-14 0)
(400 6.36093e-14 0)
(400 5.04669e-14 0)
(400 3.24337e-14 0)
(400 3.11758e-14 0)
(400 6.09209e-14 0)
(400 8.38763e-14 0)
(400 9.06027e-14 0)
(400 8.67761e-14 0)
(400 8.34079e-14 0)
(400 9.79611e-14 0)
(400 1.19057e-13 0)
(400 1.03649e-13 0)
(400 7.99559e-14 0)
(400 7.08428e-14 0)
(400 5.55544e-14 0)
(400 3.89882e-14 0)
(400 6.32671e-15 0)
(400 -2.96959e-14 0)
(400 -4.99021e-14 0)
(400 -5.32357e-14 0)
(400 -4.18434e-14 0)
(400 -3.09638e-14 0)
(400 -2.6441e-14 0)
(400 -2.97146e-14 0)
(400 -9.86546e-15 0)
(400 4.97363e-15 0)
(400 1.6857e-14 0)
(400 2.6596e-14 0)
(400 3.61026e-14 0)
(400 3.10212e-14 0)
(400 3.21681e-14 0)
(400 5.1427e-14 0)
(400 4.73747e-14 0)
(400 3.05444e-14 0)
(400 7.79371e-15 0)
(400 -3.28767e-15 0)
(400 -1.17437e-14 0)
(400 -1.54739e-14 0)
(400 -2.49465e-14 0)
(400 -4.23009e-14 0)
(400 -5.51191e-14 0)
(400 -5.18655e-14 0)
(400 -5.76167e-14 0)
(400 -5.11153e-14 0)
(400 -4.05335e-14 0)
(400 -2.01821e-14 0)
(400 -1.10195e-16 0)
(400 1.10085e-14 0)
(400 3.63689e-14 0)
(400 3.2514e-14 0)
(400 2.27528e-14 0)
(400 2.46394e-14 0)
(400 1.7851e-14 0)
(400 6.38019e-15 0)
(400 -2.54118e-14 0)
(400 -4.06691e-14 0)
(400 -3.80484e-14 0)
(400 -5.09799e-14 0)
(400 -5.30074e-14 0)
(400 -6.12047e-14 0)
(400 -6.37439e-14 0)
(400 -6.46987e-14 0)
(400 -7.08541e-14 0)
(400 -5.51608e-14 0)
(400 -6.1442e-14 0)
(400 -7.29473e-14 0)
(400 -6.31963e-14 0)
(400 -5.84149e-14 0)
(400 -6.75368e-14 0)
(400 -5.45778e-14 0)
(400 -3.98719e-14 0)
(400 -3.64663e-14 0)
(400 -2.322e-14 0)
(400 5.21384e-15 0)
(400 2.31568e-14 0)
(400 4.44514e-14 0)
(400 5.31608e-14 0)
(400 3.0106e-14 0)
(400 2.93162e-14 0)
(400 2.86546e-14 0)
(400 2.97511e-14 0)
(400 1.12303e-14 0)
(400 -2.39165e-15 0)
(400 -7.65306e-15 0)
(400 -1.20932e-16 0)
(400 1.70848e-14 0)
(400 2.40352e-14 0)
(400 1.51808e-14 0)
(400 1.48689e-15 0)
(400 -1.06314e-14 0)
(400 -5.55632e-15 0)
(400 -3.75261e-15 0)
(400 -1.95995e-15 0)
(400 -1.11964e-14 0)
(400 -3.02487e-14 0)
(400 -2.79811e-14 0)
(400 -2.15941e-14 0)
(400 -1.05064e-14 0)