/*--------------------------------*- C++ -*----------------------------------*\
  =========                 |
  \\      /  F ield         | OpenFOAM: The Open Source CFD Toolbox
   \\    /   O peration     | Website:  https://openfoam.org
    \\  /    A nd           | Version:  6
     \\/     M anipulation  |
\*---------------------------------------------------------------------------*/
FoamFile
{
    version     2.0;
    format      ascii;
    class       surfaceScalarField;
    location    "160";
    object      phi;
}
// * * * * * * * * * * * * * * * * * * * * * * * * * * * * * * * * * * * * * //

dimensions      [0 3 -1 0 0 0 0];

internalField   nonuniform List<scalar> 
7780
(
2
8.305e-17
2
7.80831e-17
2
2.08616e-17
2
4.43376e-17
2
6.79404e-17
2
9.77616e-17
2
2.58651e-16
2
2.1647e-16
2
3.69354e-16
2
2.55573e-16
2
2.92724e-16
2
3.28939e-16
2
4.05083e-16
2
1.47316e-16
2
1.33454e-17
2
-1.60377e-16
2
-1.06224e-16
2
-1.13268e-16
2
-9.28519e-17
2
-6.05046e-17
2
-4.9211e-18
2
3.20339e-17
2
2.51454e-16
2
3.46938e-16
2
2.48003e-16
2
1.47673e-16
2
1.08e-16
2
2.78421e-16
2
3.84895e-16
2
3.54018e-16
2
3.08076e-16
2
4.54024e-17
2
9.55813e-17
2
-4.77334e-17
2
7.39939e-18
2
3.76433e-17
2
-3.54489e-17
2
-9.97147e-17
2
-8.96445e-17
2
-2.39465e-16
2
-1.39212e-16
2
-4.09161e-17
2
-7.37648e-18
2
7.60632e-18
2
-3.58937e-17
2
1.15532e-16
2
1.72549e-16
2
1.60419e-16
2
2.43326e-16
2
1.79041e-16
2
9.72243e-17
2
1.20023e-16
2
1.34492e-16
2
8.99829e-17
2
1.77477e-17
2
9.73289e-17
2
1.21375e-16
2
2.54812e-16
2
2.19983e-16
2
-1.82299e-18
2
6.30939e-17
2
7.85881e-17
2
-1.16506e-16
2
-2.89624e-16
2
-7.89978e-17
2
3.11317e-17
2
7.99096e-18
2
-1.44938e-16
2
-1.07234e-16
2
-2.16597e-16
2
-1.61238e-16
2
-1.52517e-17
2
-1.2531e-16
2
-2.41756e-16
2
-1.02298e-16
2
-1.55753e-16
2
-1.77706e-16
2
4.22784e-17
2
-5.04745e-17
2
-2.09521e-16
2
-2.51879e-16
2
-3.20518e-16
2
-4.09841e-16
2
-1.73008e-16
2
2.00574e-16
2
1.84366e-16
2
2.20564e-16
2
2.84519e-16
2
5.64377e-17
2
6.13464e-17
2
5.18423e-17
2
1.53279e-16
2
1.5183e-16
2
8.02812e-17
2
3.2697e-16
2
3.85177e-16
2
3.27726e-16
2
3.17744e-16
2
2.85406e-16
2
3.999e-16
2
4.38419e-16
2
4.57659e-16
2
3.99581e-16
2
3.14277e-16
2
2.88096e-16
2
2.88385e-16
2
7.39454e-17
2
1.25611e-16
2
-1.22319e-16
2
-2.45942e-16
2
-2.00431e-16
2
-8.40967e-17
2
5.56613e-17
2
-1.63693e-17
2
-1.86579e-16
2
-3.52355e-16
2
-3.13208e-17
2
9.27452e-17
2
1.71159e-16
2
1.01632e-16
2
7.42008e-17
2
1.42948e-17
2
4.06509e-17
2
-1.7219e-16
2
-1.3659e-16
2
-8.33314e-17
2
-5.57069e-17
2
-1.12126e-16
2
-1.76996e-16
2
7.23475e-17
2
1.54467e-17
2
-2.35039e-17
2
-5.61982e-17
2
4.18374e-17
2
3.57946e-17
2
1.61801e-17
2
1.68363e-16
2
2.5296e-16
2
1.51432e-16
2
-1.17075e-16
2
-2.19178e-16
2
2.29785e-17
2
3.95285e-17
2
1.44193e-16
2
2.23529e-16
2
2.82529e-16
2
2.74289e-16
2
2.53253e-16
2
4.08686e-16
2
2.37824e-16
2
2.22384e-16
2
2.81911e-16
2
3.74771e-16
2
3.51956e-16
2
3.10707e-16
2
3.74715e-16
2
2.2537e-16
2
1.87576e-16
2
2.58802e-16
2
2.25013e-16
2
3.37036e-16
2
3.66838e-16
2
6.0641e-16
2
5.20945e-16
2
2.74687e-16
2
9.38957e-17
2
-5.55706e-18
2
-2.05204e-17
2
-2.07532e-17
2
-1.83119e-16
2
-2.17115e-16
2
-2.19947e-16
2
-2.00863e-16
2
-1.1827e-16
2
-2.92289e-17
2
-3.39527e-16
2
-4.51405e-16
2
-4.05453e-16
2
-3.35812e-16
2
-2.48574e-16
2
-2.49379e-16
2
-3.0995e-16
2
-3.64897e-16
2
-1.67235e-16
2
-1.60734e-16
2
-2.41775e-16
2
-3.34122e-16
2
-3.0458e-16
2
-2.96514e-16
2
-1.84541e-16
2
-1.28382e-17
2
-1.82062e-17
2
-9.93511e-17
2
-6.91587e-17
2
-7.81645e-17
2
-9.77444e-17
2
-1.65867e-17
2
-1.28631e-17
2
-1.05573e-16
-1.81771e-16
2
-5.14351e-17
2
3.30024e-17
2
-1.27722e-16
2
1.41385e-17
2
1.53072e-16
2
1.66041e-16
2
1.34174e-16
2
1.29977e-16
2
1.91792e-16
2
3.31738e-16
2
9.95096e-17
2
2.39908e-16
2
6.52752e-17
2
2.83061e-17
2
-1.18196e-16
2
-1.52474e-16
2
-2.39902e-17
2
2.13501e-16
2
1.08499e-16
2
7.78598e-18
2
1.53349e-16
2
9.51366e-17
2
7.6338e-17
2
3.54662e-16
2
3.8334e-16
2
4.93616e-16
2
3.13627e-16
2
1.64699e-16
2
1.89751e-17
2
-1.10211e-17
2
1.75641e-17
2
8.11712e-17
2
-1.5308e-17
2
1.37382e-16
2
4.72387e-17
2
1.237e-16
2
2.06046e-17
2
8.61283e-18
2
1.33892e-16
2
1.171e-16
2
2.01709e-16
2
1.39609e-16
2
6.28679e-17
2
1.80072e-16
2
4.09411e-17
2
1.15355e-16
2
1.49709e-16
2
1.07319e-16
2
-3.96786e-17
2
-1.50146e-16
2
-1.24799e-16
2
-2.38131e-17
2
1.38759e-16
2
1.11021e-16
2
7.78121e-17
2
1.43453e-16
2
-2.61259e-17
2
1.63432e-17
2
9.45052e-17
2
1.06308e-16
2
1.95739e-16
2
2.25124e-16
2
-3.40601e-17
2
-8.82191e-17
2
3.56939e-17
2
-5.07201e-17
2
-2.23769e-16
2
-2.01918e-16
2
-4.29146e-16
2
-1.33603e-16
2
-1.38659e-16
2
-2.45728e-16
2
-3.1792e-16
2
-3.19994e-16
2
-3.82354e-16
2
-2.77311e-16
2
-2.25637e-16
2
-2.84203e-16
2
8.92661e-17
2
2.2406e-16
2
-4.33892e-17
2
-1.15543e-16
2
-1.83279e-16
2
2.29715e-17
2
8.35197e-17
2
9.60678e-17
2
2.23815e-17
2
1.10868e-16
2
3.20039e-16
2
5.85212e-17
2
-4.28657e-17
2
1.51728e-16
2
1.6527e-16
2
3.15266e-16
2
2.39222e-16
2
2.66868e-16
2
3.09336e-16
2
3.12945e-16
2
3.46841e-16
2
2.66537e-16
2
1.44423e-16
2
1.63204e-16
2
1.80711e-16
2
1.25278e-16
2
1.0931e-16
2
1.04409e-16
2
1.13627e-16
2
-6.64279e-17
2
-2.28636e-17
2
-1.92814e-16
2
-2.01146e-16
2
-2.03634e-16
2
-2.63703e-16
2
-1.51122e-16
2
-1.05023e-16
2
-3.00377e-16
2
-2.38867e-16
2
-1.1696e-17
2
1.59671e-16
2
7.15523e-17
2
3.86946e-17
2
1.27404e-16
2
-5.39733e-17
2
-3.95012e-17
2
-3.04716e-18
2
1.56778e-16
2
1.22931e-16
2
-1.50086e-17
2
3.36092e-17
2
2.06649e-16
2
1.67561e-18
2
9.39719e-17
2
-1.07859e-17
2
1.1261e-16
2
1.37464e-16
2
1.84637e-16
2
2.75382e-16
2
3.2521e-16
2
5.1776e-17
2
2.5869e-18
2
1.78219e-17
2
1.5205e-16
2
2.26619e-17
2
1.8585e-16
2
1.99554e-16
2
2.45336e-16
2
2.43873e-16
2
2.55419e-16
2
3.52863e-16
2
4.85392e-16
2
3.9056e-16
2
3.70448e-16
2
2.7896e-16
2
4.35639e-16
2
4.26645e-16
2
1.6407e-16
2
3.54722e-16
2
2.97948e-16
2
3.11491e-16
2
3.17983e-16
2
2.71264e-16
2
2.91905e-16
2
2.32032e-16
2
3.77529e-16
2
2.63806e-16
2
2.02196e-16
2
1.43075e-16
2
7.06785e-17
2
-1.13085e-16
2
2.41828e-17
2
-1.77675e-17
2
3.42031e-17
2
1.02876e-16
2
-5.04934e-17
2
-2.80441e-16
2
-1.70832e-16
2
-3.69049e-16
2
-6.46896e-16
2
-6.36066e-16
2
-5.44271e-16
2
-1.6838e-16
2
-1.13931e-16
2
-2.87841e-16
2
-2.48566e-17
2
-1.17705e-16
2
1.10422e-17
2
3.34551e-17
2
4.74272e-17
2
-2.03808e-16
2
-3.66668e-16
2
-3.0041e-16
2
-1.42905e-16
2
-1.32573e-16
2
-1.16612e-16
2
-7.38264e-17
2
1.65339e-16
2
2.71626e-16
2
-4.08242e-18
2
-1.42732e-16
-3.56961e-16
2
-9.89986e-17
2
-1.92445e-16
2
-9.597e-18
2
-1.81736e-16
2
-1.53439e-16
2
-4.079e-18
2
6.36835e-17
2
8.58398e-17
2
6.25748e-17
2
-5.53899e-17
2
-9.35904e-18
2
2.64614e-17
2
4.6445e-17
2
2.6636e-17
2
7.95212e-17
2
1.77425e-16
2
3.58787e-17
2
1.51216e-17
2
2.20789e-16
2
2.27591e-16
2
5.48415e-17
2
1.34519e-16
2
1.19e-16
2
1.98163e-16
2
3.5269e-16
2
2.6864e-16
2
1.86521e-16
2
2.12862e-16
2
1.18189e-16
2
8.21347e-17
2
1.04738e-16
2
1.77607e-16
2
-9.60471e-18
2
1.20401e-16
2
2.99311e-16
2
-4.72735e-17
2
-1.69394e-17
2
-6.50829e-18
2
3.62146e-17
2
2.73536e-16
2
1.47121e-16
2
2.29405e-16
2
2.85341e-16
2
1.28353e-16
2
-1.16334e-16
2
1.26652e-16
2
1.34201e-16
2
7.66908e-17
2
-5.63347e-17
2
-3.51781e-16
2
-5.48528e-17
2
1.06131e-16
2
1.26565e-16
2
-1.08962e-17
2
-2.65211e-18
2
-7.36212e-17
2
-7.04594e-17
2
2.3693e-17
2
-9.62288e-17
2
6.14222e-17
2
-1.00053e-16
2
-2.70216e-16
2
-1.25397e-16
2
1.60968e-17
2
-8.74945e-17
2
-3.19535e-17
2
-8.67966e-17
2
-2.73265e-16
2
-1.60798e-16
2
-3.05352e-17
2
1.14692e-16
2
2.60827e-17
2
-3.23444e-17
2
-1.20139e-16
2
-9.16631e-17
2
-1.91542e-16
2
-7.28677e-17
2
-8.19145e-17
2
-3.96872e-16
2
-2.34866e-16
2
-7.74843e-17
2
5.7967e-18
2
1.76853e-16
2
-6.77323e-17
2
1.45764e-17
2
-1.12554e-17
2
-7.08604e-17
2
1.1217e-16
2
-4.52576e-17
2
1.31062e-16
2
2.76202e-16
2
2.00586e-16
2
3.77737e-16
2
2.86218e-16
2
4.47955e-16
2
5.62296e-16
2
3.48441e-16
2
2.38948e-16
2
9.57907e-17
2
1.4332e-16
2
1.75735e-16
2
-1.67294e-17
2
6.8888e-17
2
-1.03299e-16
2
-1.35503e-16
2
1.10882e-17
2
8.58735e-17
2
8.15863e-17
2
-9.3673e-17
2
-1.43369e-16
2
8.62507e-18
2
-3.89227e-17
2
-1.01016e-16
2
-8.72917e-17
2
-1.785e-16
2
9.08832e-18
2
-9.38664e-18
2
-6.62473e-18
2
-7.53175e-17
2
3.15134e-17
2
7.24689e-17
2
2.11941e-16
2
1.45453e-16
2
1.13501e-16
2
1.19113e-16
2
2.32187e-16
2
2.03929e-17
2
2.83987e-17
2
-1.70828e-16
2
-1.06263e-16
2
1.61292e-16
2
1.67359e-17
2
2.01112e-16
2
2.03223e-16
2
2.08346e-16
2
2.00844e-16
2
2.07734e-16
2
1.17479e-16
2
8.51258e-17
2
3.79563e-17
2
1.0519e-16
2
-3.473e-17
2
1.03343e-16
2
3.26555e-17
2
1.74352e-16
2
2.20268e-16
2
2.54918e-16
2
2.98854e-16
2
3.28615e-16
2
4.18438e-16
2
3.14924e-16
2
4.28947e-16
2
3.09065e-16
2
2.10604e-16
2
3.33526e-16
2
3.74557e-16
2
2.60761e-16
2
3.30736e-16
2
3.31437e-16
2
3.94105e-16
2
4.73226e-16
2
2.66614e-16
2
2.35056e-16
2
1.4653e-16
2
2.17368e-16
2
2.55361e-16
2
2.36521e-16
2
2.03077e-16
2
1.68798e-16
2
1.07934e-16
2
2.16378e-16
2
-5.87806e-17
2
-6.78845e-17
2
5.09251e-17
2
-7.93837e-17
2
-2.13544e-16
2
-2.55986e-16
2
-1.58797e-16
2
-2.1117e-16
2
-2.92892e-16
2
-2.16271e-16
2
-3.91414e-16
2
-2.47166e-16
2
-1.97681e-16
2
-2.533e-16
2
-1.893e-16
2
-2.38176e-16
2
-4.31821e-16
2
-1.31901e-16
2
-2.62285e-16
2
-4.30809e-16
2
-4.59072e-16
2
-4.06108e-16
2
-1.21326e-16
2
-7.75543e-17
2
-6.21562e-17
2
-1.46658e-16
2
-1.71625e-16
2
-2.82224e-16
-1.76207e-16
2
7.51282e-17
2
9.09477e-17
2
1.06102e-16
2
1.77453e-16
2
8.92546e-17
2
-6.53818e-18
2
1.5867e-16
2
2.30884e-16
2
1.61421e-16
2
-9.99751e-17
2
-9.29657e-17
2
-1.29409e-16
2
1.76332e-16
2
1.15699e-16
2
-8.47012e-17
2
-7.012e-17
2
3.8797e-17
2
6.48592e-17
2
3.41687e-17
2
1.53181e-16
2
1.95532e-16
2
2.71738e-16
2
5.37234e-17
2
-3.38537e-17
2
8.45886e-17
2
1.06225e-16
2
8.64203e-17
2
2.19467e-17
2
2.22507e-16
2
1.42624e-16
2
3.73708e-17
2
-1.15869e-16
2
2.99317e-17
2
-1.47348e-17
2
4.9167e-17
2
3.09665e-16
2
1.03268e-16
2
8.98704e-17
2
2.82486e-16
2
2.77875e-16
2
2.62414e-16
2
2.94409e-16
2
2.03616e-16
2
1.16318e-16
2
4.04747e-17
2
-8.54562e-17
2
1.67922e-16
2
3.88622e-17
2
-2.19586e-17
2
1.40123e-16
2
1.87665e-16
2
3.18228e-16
2
1.702e-16
2
1.13951e-16
2
3.34679e-17
2
-2.49527e-16
2
-4.57382e-17
2
-1.32511e-16
2
-4.49614e-17
2
-8.04762e-19
2
3.87699e-17
2
-1.97393e-16
2
-1.08511e-16
2
-2.78082e-17
2
4.72348e-17
2
4.8368e-17
2
-2.24828e-16
2
-1.21787e-16
2
8.2303e-17
2
4.25851e-17
2
1.28025e-16
2
2.49684e-16
2
2.52744e-16
2
-1.94412e-17
2
-9.13948e-17
2
9.595e-17
2
7.47718e-17
2
-1.9253e-16
2
-8.18658e-17
2
-2.12734e-16
2
-6.55105e-17
2
2.69538e-17
2
7.31696e-17
2
2.74514e-16
2
-1.0871e-16
2
-1.93302e-16
2
-4.96232e-17
2
-1.0132e-16
2
-6.28977e-18
2
7.87334e-17
2
1.99649e-16
2
2.71405e-16
2
3.09873e-16
2
3.42906e-16
2
1.82283e-16
2
2.2738e-16
2
2.10232e-16
2
1.49383e-16
2
9.20301e-17
2
5.29495e-17
2
5.02946e-17
2
8.24484e-17
2
-5.80022e-17
2
1.60026e-16
2
1.18929e-16
2
-1.66804e-16
2
1.37718e-17
2
2.118e-16
2
3.32167e-16
2
2.62147e-16
2
3.45007e-17
2
-1.17748e-16
2
5.55901e-17
2
-1.02336e-17
2
-4.25355e-17
2
2.39443e-17
2
6.07486e-17
2
1.92591e-17
2
-3.63079e-17
2
8.46666e-17
2
1.61092e-16
2
1.7811e-16
2
3.65767e-16
2
3.56922e-16
2
2.40096e-16
2
-9.83894e-17
2
-9.16433e-17
2
-3.38689e-16
2
-4.604e-17
2
-6.77343e-17
2
-7.09351e-17
2
6.00789e-17
2
1.35799e-16
2
1.49956e-16
2
1.96844e-16
2
1.06042e-16
2
6.68186e-17
2
4.292e-17
2
3.41749e-17
2
-9.08e-18
2
-2.92631e-17
2
-7.40114e-17
2
-7.91337e-17
2
1.57708e-16
2
2.20087e-16
2
1.45511e-16
2
2.27622e-16
2
3.65165e-16
2
2.9579e-16
2
5.07347e-16
2
4.13499e-16
2
2.26697e-16
2
3.79906e-16
2
3.51163e-16
2
4.22867e-16
2
3.54119e-16
2
4.02906e-16
2
3.68204e-16
2
3.41823e-16
2
1.00813e-16
2
7.76236e-17
2
8.86482e-17
2
2.17922e-17
2
-3.8837e-18
2
-4.32389e-17
2
2.13169e-17
2
1.49483e-17
2
6.29841e-17
2
1.53782e-16
2
-5.64413e-17
2
-1.95931e-16
2
-1.35504e-16
2
-8.75604e-17
2
-2.64581e-16
2
-1.03188e-16
2
-1.84178e-16
2
-1.58291e-16
2
-2.49982e-16
2
-8.03517e-17
2
-6.23238e-17
2
-1.53891e-16
2
2.53248e-17
2
-1.14514e-16
2
-4.10953e-16
2
-5.12048e-16
2
-2.68484e-16
2
-4.12536e-16
2
-5.34261e-16
2
-4.47322e-16
2
-4.90669e-16
2
-2.91099e-16
2
-4.22062e-16
2
-3.31321e-16
2
-1.20019e-16
2
-5.32092e-17
2
-1.99608e-16
2
-9.14089e-17
2
-1.07817e-16
2
-4.73907e-17
-2.16076e-16
2
1.37507e-16
2
1.47597e-16
2
-2.89241e-17
2
-1.01304e-16
2
9.53191e-17
2
1.90563e-16
2
5.67993e-17
2
2.19655e-17
2
1.58094e-16
2
1.18348e-16
2
-6.29758e-17
2
-4.00802e-17
2
-7.11427e-17
2
-2.78573e-17
2
7.7167e-17
2
9.90399e-17
2
1.45095e-16
2
1.51703e-16
2
1.20632e-16
2
1.55013e-16
2
2.40035e-16
2
1.87549e-16
2
2.01815e-16
2
-2.84737e-19
2
3.33317e-17
2
1.03703e-16
2
1.42633e-16
2
1.22273e-16
2
2.54921e-16
2
1.88134e-16
2
-1.27979e-16
2
-5.04036e-17
2
9.77925e-18
2
1.78119e-17
2
-3.34556e-17
2
1.21925e-16
2
3.89685e-16
2
3.74467e-16
2
2.52765e-16
2
2.01412e-16
2
2.4228e-16
2
-2.81851e-17
2
5.47334e-17
2
-2.2009e-17
2
6.52867e-17
2
5.84751e-17
2
2.5013e-17
2
1.50254e-16
2
1.28828e-17
2
1.9114e-16
2
1.97239e-16
2
2.01738e-16
2
1.80502e-16
2
-4.92443e-17
2
-5.59191e-17
2
1.89871e-16
2
1.06541e-16
2
2.46063e-16
2
2.93353e-16
2
2.18663e-16
2
1.73084e-16
2
1.0171e-16
2
3.72978e-17
2
6.9391e-18
2
-1.28895e-16
2
1.05575e-16
2
2.99012e-16
2
2.41032e-17
2
4.53229e-17
2
-4.2645e-17
2
3.00424e-17
2
5.64896e-17
2
2.75866e-16
2
1.90397e-16
2
-3.35418e-17
2
6.21361e-17
2
-1.73057e-16
2
-6.14457e-17
2
-1.02934e-16
2
-8.66659e-17
2
8.03887e-19
2
1.76305e-16
2
3.16054e-16
2
2.29637e-16
2
2.39097e-16
2
2.46532e-16
2
1.53429e-16
2
2.92855e-16
2
3.2832e-16
2
2.48719e-16
2
4.63164e-16
2
2.10021e-16
2
1.09698e-16
2
7.29027e-17
2
1.7498e-16
2
-8.72809e-17
2
3.52985e-17
2
3.04716e-17
2
9.72623e-18
2
-1.93816e-17
2
-5.03739e-18
2
1.38254e-17
2
5.62736e-17
2
-3.6725e-18
2
-6.7285e-17
2
1.60417e-16
2
-3.78069e-18
2
7.8477e-17
2
1.44845e-16
2
2.79289e-16
2
2.91132e-16
2
3.15623e-16
2
6.2868e-17
2
6.71333e-17
2
4.99122e-17
2
6.16638e-17
2
6.13533e-17
2
1.47699e-17
2
-7.57487e-17
2
-1.66105e-16
2
-1.88157e-17
2
1.0477e-16
2
-7.22436e-19
2
-1.21481e-16
2
1.21774e-16
2
1.14613e-16
2
1.50269e-16
2
2.27787e-16
2
4.75696e-17
2
-1.7135e-17
2
7.59418e-17
2
1.09784e-16
2
1.1261e-16
2
3.45804e-17
2
-1.82293e-16
2
-9.46418e-17
2
-1.26209e-16
2
-1.062e-16
2
2.20583e-17
2
-2.72054e-17
2
-7.41921e-17
2
-6.39761e-17
2
-7.91054e-18
2
7.22248e-18
2
-7.44755e-17
2
2.63121e-16
2
1.04224e-16
2
2.41771e-16
2
1.13514e-16
2
1.28765e-16
2
2.52237e-16
2
1.99827e-16
2
3.48013e-16
2
4.64294e-16
2
1.79115e-16
2
1.92047e-16
2
1.36553e-16
2
2.63072e-16
2
1.05827e-16
2
8.17411e-17
2
1.29111e-16
2
-1.17568e-17
2
-2.18255e-16
2
-1.92666e-17
2
8.91698e-17
2
-8.12603e-17
2
-9.14654e-17
2
4.53429e-17
2
8.20877e-17
2
-2.82151e-16
2
-3.50726e-16
2
-1.82499e-16
2
1.42445e-17
2
-7.50202e-17
2
1.25733e-16
2
1.05334e-16
2
-7.40508e-17
2
7.47925e-17
2
-2.53619e-17
2
2.80336e-17
2
-1.14178e-16
2
1.47152e-16
2
7.34747e-17
2
-3.84129e-16
2
-2.61869e-16
2
-4.15378e-16
2
-2.37267e-16
2
-1.37862e-16
2
-2.6083e-16
2
-1.10021e-16
2
-3.39274e-16
2
-2.03592e-16
2
-3.66473e-16
2
-4.12252e-16
2
-2.63262e-16
2
-1.65831e-16
2
-3.21948e-16
2
-9.08577e-17
2
-4.8323e-17
1.03832e-17
2
1.02873e-16
2
-1.00027e-16
2
-3.37744e-17
2
1.08014e-16
2
5.34722e-17
2
-5.89473e-17
2
-3.76956e-17
2
2.741e-17
2
6.61203e-18
2
1.04266e-16
2
2.02592e-16
2
1.19671e-16
2
1.01952e-16
2
1.79611e-16
2
3.11856e-16
2
2.28867e-16
2
2.20771e-16
2
1.66515e-16
2
4.86419e-17
2
1.45489e-17
2
-7.61619e-17
2
-3.22827e-17
2
2.35349e-17
2
1.49394e-16
2
-6.47293e-18
2
1.4933e-16
2
1.41491e-16
2
8.68287e-17
2
2.29926e-17
2
-7.36717e-17
2
1.13532e-16
2
-3.6703e-17
2
-9.32585e-17
2
7.42009e-17
2
1.00827e-16
2
1.07639e-16
2
3.48338e-16
2
1.90246e-16
2
2.41345e-17
2
3.0566e-18
2
1.61905e-16
2
1.71581e-16
2
2.40794e-17
2
6.37912e-17
2
9.23261e-17
2
8.32988e-17
2
2.38838e-17
2
-6.13751e-17
2
1.25052e-16
2
1.55016e-17
2
2.33985e-16
2
1.96915e-16
2
2.37815e-16
2
1.86186e-16
2
2.19706e-16
2
2.43537e-16
2
1.50009e-16
2
-4.18921e-17
2
-2.04148e-17
2
1.07302e-16
2
1.21777e-17
2
6.32297e-17
2
2.2244e-16
2
2.34494e-16
2
3.12402e-16
2
-7.06973e-17
2
1.37551e-16
2
3.85495e-16
2
1.05502e-16
2
1.35907e-16
2
-4.19338e-17
2
6.47573e-17
2
1.31325e-16
2
2.83592e-17
2
2.35796e-17
2
-2.17825e-16
2
9.49558e-18
2
1.66968e-16
2
2.42013e-16
2
3.406e-16
2
4.32458e-16
2
3.85767e-16
2
3.32823e-16
2
4.76656e-17
2
1.91215e-16
2
2.8991e-16
2
3.78797e-16
2
1.82003e-16
2
1.74981e-16
2
4.06522e-16
2
1.43626e-16
2
3.16188e-16
2
1.76096e-16
2
-2.61817e-18
2
1.18113e-16
2
8.08461e-17
2
2.39025e-17
2
-5.41321e-17
2
-1.7787e-17
2
-5.11558e-18
2
2.40221e-17
2
3.14691e-17
2
2.96605e-16
2
2.5999e-16
2
3.23561e-16
2
2.63716e-16
2
3.51047e-16
2
2.42427e-16
2
2.33251e-16
2
2.65872e-16
2
2.66973e-16
2
3.11247e-16
2
2.28617e-16
2
2.5733e-16
2
5.45244e-17
2
8.99646e-17
2
8.4175e-17
2
1.89541e-17
2
-3.11043e-17
2
-9.77656e-17
2
-8.2757e-17
2
-1.17768e-16
2
1.29618e-16
2
2.0533e-16
2
9.80574e-17
2
1.69684e-16
2
1.66834e-16
2
3.35527e-16
2
2.69135e-16
2
1.69704e-16
2
1.21172e-16
2
-7.23702e-17
2
-5.15651e-17
2
-3.05985e-17
2
6.15984e-17
2
-8.43118e-17
2
-1.79758e-16
2
-1.77272e-16
2
-1.20105e-16
2
1.58918e-17
2
-7.43175e-17
2
1.11448e-16
2
1.9288e-16
2
-4.21211e-17
2
1.84032e-16
2
1.36294e-17
2
1.62458e-16
2
3.63961e-17
2
-2.15252e-17
2
-1.41179e-16
2
-5.04123e-18
2
1.4351e-16
2
4.71636e-17
2
-2.12075e-16
2
-1.33925e-16
2
-1.91892e-17
2
-2.16875e-17
2
-2.24913e-16
2
-1.09701e-16
2
1.23565e-16
2
4.89602e-17
2
3.0814e-17
2
3.49017e-17
2
7.64112e-17
2
7.79119e-17
2
1.73624e-16
2
2.14901e-16
2
1.04358e-16
2
-1.48924e-16
2
-3.45002e-17
2
-3.72938e-18
2
5.93178e-17
2
2.04778e-16
2
2.08133e-16
2
1.22153e-16
2
4.68951e-17
2
1.42441e-16
2
2.01869e-16
2
2.51028e-16
2
2.05201e-16
2
2.01369e-16
2
-5.77683e-17
2
2.38839e-17
2
-9.72033e-17
2
-1.92604e-16
2
-8.50692e-17
2
-1.61305e-17
2
2.25157e-17
2
2.87109e-17
2
1.16034e-16
2
1.37385e-16
2
-4.32649e-17
2
-2.36363e-17
2
-1.97309e-16
2
-2.60375e-16
2
-4.0756e-16
2
-3.72073e-16
2
-5.00176e-16
2
-2.97838e-16
-1.53749e-16
2
-4.68682e-17
2
-1.71013e-16
2
-3.99417e-17
2
-7.14555e-17
2
-7.93882e-17
2
-1.82689e-16
2
-8.76556e-17
2
-2.43829e-16
2
-1.94245e-16
2
1.80098e-16
2
1.90153e-16
2
1.00437e-16
2
1.35125e-16
2
2.75955e-16
2
1.63838e-16
2
1.8161e-16
2
1.97398e-16
2
4.53658e-17
2
1.07857e-16
2
1.05277e-16
2
1.64296e-16
2
2.68161e-17
2
6.70687e-17
2
-9.56498e-18
2
6.21302e-17
2
-1.02378e-16
2
-6.95243e-18
2
-4.52879e-17
2
-2.35176e-16
2
-1.64905e-16
2
-1.18537e-16
2
-6.94741e-17
2
1.02662e-16
2
-4.42605e-17
2
-9.0363e-17
2
-1.05105e-16
2
-1.45282e-16
2
5.77014e-17
2
1.00766e-16
2
1.40236e-16
2
-1.13405e-16
2
8.69853e-17
2
1.87381e-16
2
1.14782e-16
2
1.39606e-16
2
2.7331e-17
2
-4.98333e-17
2
-8.69917e-17
2
2.16264e-16
2
5.04251e-16
2
1.62683e-16
2
2.10623e-16
2
4.3641e-17
2
3.34872e-16
2
4.99492e-16
2
3.3366e-16
2
1.77361e-16
2
2.06829e-16
2
3.6573e-16
2
1.28948e-16
2
8.61657e-17
2
3.35733e-16
2
1.80343e-16
2
9.25306e-17
2
-2.51663e-17
2
6.89415e-18
2
2.86462e-16
2
2.13951e-16
2
1.43644e-16
2
2.21156e-16
2
-1.79764e-16
2
-3.19528e-17
2
-3.81927e-17
2
8.04116e-17
2
1.26425e-16
2
1.69129e-16
2
3.20653e-16
2
1.9164e-16
2
2.42668e-16
2
3.5217e-16
2
5.79871e-16
2
5.6282e-16
2
5.54805e-16
2
3.98848e-16
2
3.76504e-16
2
3.79112e-16
2
2.83843e-16
2
2.91306e-16
2
2.2552e-16
2
1.79003e-16
2
2.14685e-16
2
2.66893e-16
2
3.01744e-16
2
4.40234e-16
2
1.45699e-16
2
2.11281e-16
2
2.86227e-17
2
6.41843e-17
2
-9.14655e-17
2
-1.08785e-16
2
-2.95132e-17
2
1.97524e-16
2
2.75241e-16
2
2.39053e-16
2
2.24429e-16
2
9.11286e-17
2
3.39279e-16
2
1.92501e-16
2
2.44422e-16
2
2.27984e-16
2
1.01698e-16
2
3.49405e-16
2
2.02793e-16
2
2.11037e-16
2
1.3841e-16
2
1.06018e-16
2
1.70083e-16
2
-1.25952e-17
2
8.23391e-17
2
-1.15388e-16
2
-7.70886e-17
2
-9.3047e-17
2
-4.49013e-17
2
1.33316e-16
2
2.43899e-16
2
2.63906e-16
2
2.78285e-16
2
3.56536e-16
2
2.25418e-16
2
7.42829e-17
2
3.57771e-17
2
1.3661e-16
2
-3.77123e-17
2
9.20362e-17
2
1.0034e-16
2
1.46593e-17
2
-1.31404e-16
2
-1.75641e-16
2
-2.44017e-16
2
-1.54355e-16
2
1.62916e-16
2
4.28967e-17
2
2.19359e-16
2
2.33793e-16
2
-2.75764e-17
2
-3.59359e-18
2
8.58873e-17
2
2.2773e-16
2
-8.97363e-18
2
-1.43153e-16
2
-1.80398e-16
2
-1.11022e-16
2
-1.72998e-16
2
-2.62807e-16
2
-2.59623e-16
2
-2.90091e-16
2
-2.11051e-16
2
-8.51774e-18
2
6.80554e-17
2
2.02823e-17
2
-6.17526e-17
2
7.08764e-17
2
1.77361e-16
2
1.05294e-16
2
-3.38132e-18
2
2.29719e-17
2
1.44775e-16
2
1.5526e-16
2
5.37012e-18
2
2.27417e-16
2
1.83176e-16
2
1.23992e-16
2
3.90515e-18
2
4.57816e-17
2
1.68418e-16
2
4.07054e-16
2
5.09335e-16
2
3.47324e-16
2
2.04467e-16
2
3.52195e-16
2
2.35879e-16
2
1.90155e-16
2
7.74884e-17
2
8.14106e-17
2
-2.94447e-18
2
4.90036e-17
2
9.73046e-18
2
7.40847e-17
2
-4.26999e-18
2
1.10565e-16
2
1.84254e-16
2
2.68129e-16
2
1.72011e-16
2
-9.46465e-17
2
-2.77357e-16
2
-1.56507e-16
2
-2.95338e-16
2
-1.8318e-16
2
-2.94909e-16
-2.84054e-16
2
7.63528e-17
2
2.05459e-16
2
1.39197e-16
2
8.70696e-17
2
1.13264e-17
2
-8.62875e-17
2
-2.8624e-16
2
-2.94253e-16
2
-2.98153e-16
2
-2.23427e-16
2
-7.12928e-17
2
-1.80196e-17
2
5.44023e-17
2
1.03046e-16
2
1.94015e-16
2
6.48826e-17
2
-1.65703e-16
2
-3.4152e-17
2
7.60571e-17
2
3.86594e-16
2
3.34977e-16
2
1.52244e-16
2
7.42758e-17
2
1.76007e-17
2
-9.50578e-17
2
-1.60652e-16
2
-7.28034e-17
2
-9.71015e-17
2
-2.43218e-16
2
-7.9913e-17
2
-2.08904e-16
2
-1.14787e-16
2
-7.11249e-17
2
-3.19991e-17
2
-3.58313e-17
2
-5.68911e-17
2
-2.07951e-16
2
-1.62932e-16
2
-1.13841e-16
2
-2.08402e-16
2
4.51258e-17
2
9.76291e-17
2
3.49716e-17
2
5.99478e-17
2
-2.65975e-18
2
2.92441e-17
2
-1.10219e-16
2
1.624e-16
2
8.77039e-17
2
-2.56494e-17
2
2.12638e-16
2
2.52238e-17
2
2.271e-16
2
1.51283e-16
2
1.72965e-16
2
2.4376e-16
2
3.36373e-16
2
2.28961e-16
2
1.66107e-16
2
2.24825e-16
2
2.7104e-16
2
9.16636e-17
2
4.52681e-17
2
3.2012e-17
2
2.73868e-17
2
2.41545e-16
2
1.70939e-16
2
2.46655e-16
2
3.10355e-16
2
5.25108e-17
2
2.43694e-16
2
-4.54869e-17
2
-8.38077e-17
2
8.12044e-17
2
1.94208e-16
2
4.48968e-16
2
1.56281e-16
2
2.0627e-16
2
3.54506e-16
2
3.91868e-16
2
1.43514e-16
2
3.1344e-16
2
1.13059e-16
2
3.87415e-16
2
3.28654e-16
2
2.84845e-16
2
2.86622e-16
2
1.99965e-16
2
3.29643e-17
2
1.43691e-16
2
8.48897e-17
2
1.19367e-17
2
1.0237e-16
2
8.26813e-17
2
1.66253e-16
2
1.0819e-16
2
1.75293e-16
2
2.1409e-16
2
-9.08023e-18
2
-1.69123e-17
2
1.31803e-16
2
3.80285e-16
2
1.80825e-16
2
-4.16155e-17
2
4.09733e-18
2
3.76454e-16
2
2.84743e-16
2
3.10817e-16
2
2.05152e-16
2
1.57415e-16
2
3.94414e-16
2
3.00807e-16
2
3.54517e-16
2
8.33363e-17
2
4.66015e-17
2
-5.80805e-17
2
9.19958e-17
2
2.02013e-16
2
1.45075e-16
2
9.44294e-17
2
-3.81223e-17
2
-1.27205e-16
2
1.01461e-17
2
6.38307e-17
2
3.62442e-16
2
1.60793e-16
2
6.44325e-17
2
-1.01727e-16
2
-8.42025e-17
2
6.29734e-17
2
7.91133e-17
2
1.35716e-16
2
1.2132e-16
2
-9.173e-17
2
-2.12921e-16
2
-2.1604e-16
2
-1.39373e-16
2
-1.02398e-16
2
-2.08802e-17
2
-1.23134e-16
2
-4.38603e-17
2
4.56266e-17
2
-8.28716e-17
2
-1.23246e-16
2
-6.48218e-17
2
-1.52033e-17
2
-4.76038e-18
2
-1.16967e-16
2
-9.30928e-17
2
-1.38181e-16
2
-3.52531e-16
2
-2.34408e-16
2
-3.76078e-16
2
-2.71454e-16
2
-1.74721e-16
2
-1.00542e-16
2
7.70884e-18
2
-1.54851e-17
2
1.51378e-17
2
5.10918e-17
2
1.31359e-16
2
1.5016e-16
2
1.09389e-16
2
2.83044e-16
2
3.24562e-16
2
2.55958e-16
2
1.22304e-16
2
-1.37486e-16
2
2.14983e-16
2
2.92331e-16
2
3.4133e-16
2
2.05407e-16
2
6.17942e-17
2
1.95273e-16
2
1.53152e-16
2
1.5048e-16
2
2.87789e-16
2
4.2455e-16
2
2.70467e-16
2
3.39497e-16
2
5.90534e-16
2
4.27217e-16
2
3.53284e-16
2
1.45097e-16
2
2.45223e-16
2
5.86365e-17
2
8.61606e-17
2
-7.42428e-18
2
-4.49993e-17
2
-5.89375e-17
2
5.01329e-17
2
1.15164e-16
2
1.06304e-16
2
6.89333e-17
2
3.5212e-17
2
-7.4087e-17
2
8.04672e-18
2
-1.01369e-16
2
-2.83115e-17
5.49103e-18
2
2.74914e-17
2
9.02381e-17
2
1.06818e-16
2
1.82505e-17
2
-1.2278e-16
2
-8.65145e-17
2
6.65124e-17
2
1.38518e-17
2
-1.33556e-16
2
-3.29309e-16
2
-1.51923e-16
2
-3.0765e-17
2
1.07102e-17
2
-9.22066e-17
2
-3.86989e-17
2
-9.18618e-17
2
-8.12071e-17
2
-1.65131e-16
2
1.53838e-16
2
7.14864e-17
2
9.55938e-17
2
3.87326e-17
2
-8.52501e-17
2
-2.39912e-17
2
5.37124e-17
2
2.89269e-18
2
1.79881e-17
2
-6.77045e-17
2
-1.03649e-16
2
-1.17625e-16
2
-2.44357e-17
2
3.95947e-17
2
-3.93551e-17
2
-1.81369e-16
2
-1.17082e-16
2
-6.06184e-17
2
-2.03743e-16
2
-2.10421e-16
2
-1.23782e-17
2
1.49251e-16
2
5.84985e-19
2
-1.35623e-16
2
-8.9132e-17
2
-2.26585e-16
2
-5.42263e-17
2
-5.96461e-17
2
-8.28196e-18
2
4.1052e-17
2
1.42053e-16
2
8.35266e-17
2
-1.11156e-16
2
-4.84202e-17
2
1.70625e-16
2
2.59757e-16
2
1.62244e-16
2
5.79835e-17
2
2.04082e-16
2
2.39323e-16
2
2.52147e-16
2
1.14779e-16
2
1.40404e-16
2
1.91151e-16
2
2.22751e-16
2
2.63942e-16
2
2.38212e-16
2
2.60683e-16
2
2.22422e-16
2
1.66577e-16
2
3.23833e-16
2
4.07408e-16
2
3.22757e-16
2
1.37532e-16
2
1.42929e-16
2
1.8037e-16
2
2.43338e-16
2
9.65614e-17
2
1.00686e-16
2
1.48852e-16
2
1.89008e-16
2
3.82271e-16
2
2.08389e-16
2
1.69052e-17
2
1.65735e-16
2
3.38505e-16
2
2.20847e-16
2
1.51321e-16
2
1.05349e-16
2
-1.52449e-16
2
1.45107e-16
2
2.87579e-17
2
2.02271e-16
2
2.02807e-16
2
1.24847e-16
2
1.42262e-16
2
-7.59272e-17
2
-7.2135e-17
2
-1.09094e-16
2
-1.92286e-16
2
-1.09454e-17
2
4.04115e-17
2
2.56397e-16
2
4.69573e-17
2
1.47598e-17
2
1.99361e-16
2
2.66635e-16
2
1.53344e-16
2
3.73831e-17
2
7.94687e-17
2
6.89751e-17
2
2.32243e-16
2
1.15689e-16
2
1.07665e-17
2
-1.01854e-16
2
1.3222e-16
2
1.08732e-16
2
9.34479e-17
2
-1.29318e-16
2
-4.89206e-17
2
-8.67329e-17
2
9.57513e-17
2
9.08012e-18
2
2.96139e-17
2
2.20469e-16
2
1.71801e-16
2
3.42377e-17
2
2.01466e-16
2
2.05292e-16
2
3.98447e-17
2
-1.45416e-16
2
1.77023e-16
2
1.05027e-16
2
-7.33735e-17
2
-1.23561e-16
2
-1.33674e-16
2
-1.07874e-16
2
-3.50564e-17
2
-2.04349e-17
2
5.58778e-17
2
-3.32295e-17
2
2.01308e-16
2
9.80786e-17
2
1.4295e-16
2
3.57573e-18
2
-5.05126e-17
2
-4.59201e-17
2
-4.2433e-17
2
3.80867e-18
2
-1.95693e-16
2
-1.65334e-16
2
-2.54972e-16
2
-2.70568e-16
2
-4.04645e-16
2
-2.53614e-16
2
-1.80251e-16
2
5.16751e-17
2
7.50179e-17
2
-7.76352e-17
2
1.11629e-17
2
6.82568e-17
2
1.75541e-16
2
-1.80519e-17
2
2.46653e-16
2
3.24105e-16
2
2.76547e-16
2
3.44895e-16
2
1.70198e-16
2
2.22975e-16
2
2.97687e-16
2
3.01786e-16
2
3.74834e-16
2
2.22963e-16
2
2.53465e-16
2
2.72252e-16
2
1.25473e-16
2
1.05195e-16
2
2.7401e-16
2
2.08406e-16
2
1.19389e-16
2
2.81682e-16
2
3.2152e-16
2
2.2079e-16
2
3.07509e-16
2
4.19197e-16
2
3.40419e-16
2
3.10386e-16
2
2.93198e-16
2
2.80386e-16
2
2.78141e-16
2
3.22572e-16
2
1.69745e-16
2
5.35799e-17
2
3.033e-17
2
-5.3395e-18
2
1.46097e-16
2
3.39844e-16
2
3.34425e-16
2
2.09478e-16
2
1.29286e-16
2
2.46137e-17
3.2683e-17
2
-8.78844e-17
2
7.91418e-17
2
6.00703e-17
2
-1.00578e-16
2
-7.11337e-18
2
-4.17645e-17
2
-2.09901e-16
2
-1.38051e-16
2
4.46609e-17
2
-3.20234e-18
2
-2.07875e-16
2
-1.47444e-17
2
1.45016e-17
2
-5.52084e-17
2
-2.44897e-16
2
-7.53513e-18
2
3.10369e-17
2
1.63741e-16
2
2.18351e-17
2
-4.66331e-18
2
-1.10443e-16
2
-7.99039e-17
2
-6.97482e-18
2
-8.50719e-17
2
-1.53506e-16
2
4.93825e-17
2
-2.02596e-16
2
-1.41872e-16
2
-7.01244e-17
2
-2.95632e-16
2
-1.87054e-16
2
-4.61065e-17
2
6.87346e-17
2
2.83588e-16
2
1.33796e-16
2
4.57316e-17
2
1.77046e-17
2
-5.99935e-17
2
9.4995e-17
2
-1.07967e-16
2
-1.3245e-16
2
-1.26647e-16
2
1.07373e-17
2
1.10123e-16
2
8.20912e-17
2
-1.95477e-16
2
-2.70935e-16
2
-1.07967e-16
2
-6.59514e-17
2
-9.32048e-17
2
-2.09182e-16
2
-1.70777e-16
2
-1.69117e-16
2
1.10445e-16
2
1.03414e-16
2
1.31061e-17
2
1.44258e-16
2
2.42744e-16
2
5.71846e-17
2
2.2235e-16
2
3.08303e-16
2
2.79926e-16
2
2.86994e-16
2
3.63758e-16
2
1.91732e-16
2
2.01276e-16
2
1.75725e-16
2
2.6927e-16
2
3.83939e-16
2
1.44601e-16
2
1.34892e-16
2
9.64957e-17
2
-3.69107e-17
2
-8.75891e-17
2
1.36865e-16
2
1.13413e-16
2
-5.99707e-18
2
5.7454e-17
2
-9.18402e-17
2
-1.27207e-16
2
-1.38437e-16
2
-8.10562e-17
2
-4.44011e-18
2
-1.62586e-16
2
-3.40227e-17
2
-2.94597e-17
2
-2.07442e-16
2
-9.59528e-17
2
-1.37138e-16
2
2.89117e-18
2
-8.58367e-17
2
-2.54212e-17
2
-4.40452e-17
2
-6.73792e-17
2
-4.53533e-17
2
-1.80874e-16
2
-2.88514e-16
2
-2.25409e-16
2
-1.08914e-16
2
5.13149e-17
2
-7.5013e-17
2
-2.466e-17
2
9.20219e-17
2
1.93705e-16
2
3.14872e-16
2
2.55493e-16
2
-1.53368e-17
2
-5.80748e-17
2
-9.30663e-17
2
-1.64392e-16
2
-1.22485e-16
2
-2.19625e-16
2
1.05031e-17
2
3.14099e-17
2
3.14683e-16
2
2.0423e-16
2
1.42379e-17
2
7.76293e-18
2
-1.98092e-17
2
-1.28297e-17
2
-2.20844e-17
2
-1.28739e-18
2
-1.64005e-16
2
-9.22575e-17
2
-1.94283e-16
2
-4.37367e-17
2
6.65713e-17
2
1.89223e-16
2
2.78508e-16
2
-9.12096e-17
2
-1.46349e-16
2
-3.02419e-16
2
-2.68574e-16
2
-1.6726e-16
2
-8.12664e-17
2
1.42583e-16
2
5.43609e-18
2
-9.65872e-17
2
-6.23776e-17
2
-1.58094e-17
2
3.14869e-17
2
-1.0868e-16
2
-9.33314e-18
2
-1.86993e-17
2
-5.85095e-17
2
-1.37095e-16
2
-2.4281e-16
2
-1.32204e-16
2
-2.21777e-16
2
-4.45097e-16
2
-3.8289e-16
2
-2.39542e-16
2
7.92914e-17
2
1.4359e-16
2
-4.52102e-17
2
-1.54094e-16
2
-8.08265e-17
2
-3.54578e-17
2
3.89206e-18
2
1.29852e-16
2
2.20669e-16
2
3.42563e-17
2
1.36541e-16
2
5.76873e-17
2
8.91238e-17
2
2.97188e-16
2
2.44994e-16
2
3.44018e-16
2
3.49054e-16
2
2.66301e-16
2
3.64728e-16
2
2.63799e-16
2
1.63763e-16
2
3.78822e-16
2
2.37884e-16
2
1.38076e-16
2
1.41503e-16
2
9.81485e-17
2
1.33198e-16
2
7.64929e-17
2
2.24695e-16
2
2.1762e-16
2
2.05398e-16
2
3.97892e-16
2
2.86086e-16
2
3.64092e-16
2
3.56935e-16
2
4.51843e-16
2
3.64772e-16
2
3.22251e-16
2
3.70425e-16
2
2.74853e-16
2
4.10081e-16
2
3.68247e-16
2
2.24862e-16
2
2.80414e-16
2
2.39375e-16
2
1.56203e-16
2
1.54e-16
-4.99997e-17
2
8.02268e-17
2
6.55025e-17
2
1.52206e-16
2
1.28652e-17
2
-3.67673e-17
2
-3.9476e-17
2
-1.3813e-16
2
-8.44492e-17
2
-9.75612e-17
2
-1.02972e-16
2
2.84006e-17
2
-2.14188e-17
2
-7.03959e-17
2
-9.52378e-17
2
-4.57208e-17
2
-2.89109e-17
2
1.723e-16
2
3.87579e-16
2
2.65303e-16
2
5.78505e-17
2
3.74962e-17
2
-1.37271e-16
2
-6.89471e-18
2
-6.57906e-18
2
-1.28801e-16
2
-2.4361e-16
2
-2.04052e-16
2
-1.81201e-16
2
-1.7497e-16
2
-2.49837e-16
2
-1.84424e-16
2
-1.77168e-18
2
9.69077e-17
2
4.30758e-17
2
-4.55306e-17
2
-2.10655e-16
2
6.52396e-17
2
1.26395e-16
2
-1.07235e-16
2
5.91642e-17
2
-7.1978e-17
2
2.13284e-17
2
2.72885e-17
2
2.11273e-17
2
-5.62394e-17
2
-1.42177e-17
2
-1.83799e-16
2
-1.31537e-16
2
-2.53575e-16
2
-1.39725e-16
2
6.36963e-17
2
-1.14622e-16
2
-1.23809e-16
2
-6.31138e-17
2