/*--------------------------------*- C++ -*----------------------------------*\
  =========                 |
  \\      /  F ield         | OpenFOAM: The Open Source CFD Toolbox
   \\    /   O peration     | Website:  https://openfoam.org
    \\  /    A nd           | Version:  6
     \\/     M anipulation  |
\*---------------------------------------------------------------------------*/
FoamFile
{
    version     2.0;
    format      ascii;
    class       volVectorField;
    location    "130";
    object      U;
}
// * * * * * * * * * * * * * * * * * * * * * * * * * * * * * * * * * * * * * //

dimensions      [0 1 -1 0 0 0 0];

internalField   nonuniform List<vector> 
4000
(
(400 3.26001e-14 0)
(400 3.45002e-14 0)
(400 1.82176e-14 0)
(400 1.81003e-15 0)
(400 -4.51249e-15 0)
(400 -9.33054e-15 0)
(400 -7.53203e-15 0)
(400 2.09505e-14 0)
(400 2.66988e-14 0)
(400 2.76816e-14 0)
(400 3.4246e-14 0)
(400 3.68511e-14 0)
(400 1.24671e-14 0)
(400 1.1002e-14 0)
(400 2.09986e-14 0)
(400 2.83629e-14 0)
(400 2.8494e-14 0)
(400 1.10558e-14 0)
(400 1.17851e-14 0)
(400 5.87773e-15 0)
(400 1.69581e-14 0)
(400 2.5158e-14 0)
(400 3.71008e-14 0)
(400 3.4055e-14 0)
(400 4.44825e-14 0)
(400 5.18714e-14 0)
(400 5.47064e-14 0)
(400 4.85031e-14 0)
(400 4.15926e-14 0)
(400 3.76782e-14 0)
(400 2.95569e-14 0)
(400 3.23894e-14 0)
(400 4.48656e-14 0)
(400 3.84381e-14 0)
(400 3.70542e-14 0)
(400 4.67747e-14 0)
(400 4.72817e-14 0)
(400 4.51653e-14 0)
(400 4.25008e-14 0)
(400 3.26845e-14 0)
(400 3.70747e-14 0)
(400 2.75352e-14 0)
(400 5.86715e-15 0)
(400 4.36612e-15 0)
(400 4.14733e-15 0)
(400 -5.98929e-15 0)
(400 -8.24667e-15 0)
(400 -1.79768e-14 0)
(400 -2.30319e-14 0)
(400 -7.52724e-15 0)
(400 -6.46232e-15 0)
(400 -1.38688e-14 0)
(400 -1.97265e-14 0)
(400 -2.96748e-14 0)
(400 -4.26709e-14 0)
(400 -4.47179e-14 0)
(400 -3.82804e-14 0)
(400 -4.33422e-14 0)
(400 -4.45611e-14 0)
(400 -3.37887e-14 0)
(400 -1.3199e-14 0)
(400 1.06243e-14 0)
(400 2.62814e-14 0)
(400 3.2349e-14 0)
(400 3.62301e-14 0)
(400 4.92567e-14 0)
(400 4.54956e-14 0)
(400 4.38657e-14 0)
(400 4.91557e-14 0)
(400 5.39925e-14 0)
(400 6.40454e-14 0)
(400 7.36877e-14 0)
(400 7.77722e-14 0)
(400 9.24878e-14 0)
(400 9.81106e-14 0)
(400 9.11735e-14 0)
(400 8.14999e-14 0)
(400 7.316e-14 0)
(400 6.92055e-14 0)
(400 6.65714e-14 0)
(400 7.57162e-14 0)
(400 8.24937e-14 0)
(400 7.14355e-14 0)
(400 6.50908e-14 0)
(400 3.9268e-14 0)
(400 2.9137e-14 0)
(400 3.51867e-14 0)
(400 3.03606e-14 0)
(400 2.93302e-14 0)
(400 2.08836e-14 0)
(400 1.61873e-14 0)
(400 2.85978e-14 0)
(400 2.77539e-14 0)
(400 4.73479e-15 0)
(400 4.29642e-15 0)
(400 1.70663e-15 0)
(400 -1.65968e-14 0)
(400 -1.1268e-14 0)
(400 3.30015e-15 0)
(400 1.61897e-14 0)
(400 7.9428e-16 0)
(400 -2.12103e-14 0)
(400 -2.57846e-14 0)
(400 -3.20389e-14 0)
(400 -3.93568e-14 0)
(400 -4.33338e-14 0)
(400 -2.78336e-14 0)
(400 -2.89752e-14 0)
(400 -3.93308e-14 0)
(400 -5.23967e-14 0)
(400 -3.71519e-14 0)
(400 -9.42762e-15 0)
(400 4.25969e-15 0)
(400 -8.57077e-16 0)
(400 8.23691e-15 0)
(400 3.14451e-14 0)
(400 4.34974e-14 0)
(400 4.02785e-14 0)
(400 4.08897e-14 0)
(400 4.47838e-14 0)
(400 4.34128e-14 0)
(400 3.55131e-14 0)
(400 3.54128e-14 0)
(400 3.41019e-14 0)
(400 4.15397e-14 0)
(400 5.7776e-14 0)
(400 5.66787e-14 0)
(400 5.6844e-14 0)
(400 5.10535e-14 0)
(400 6.60449e-14 0)
(400 7.7044e-14 0)
(400 8.68043e-14 0)
(400 6.14068e-14 0)
(400 4.70839e-14 0)
(400 3.47971e-14 0)
(400 2.56949e-14 0)
(400 2.39163e-14 0)
(400 2.40557e-14 0)
(400 1.2684e-14 0)
(400 -1.41789e-15 0)
(400 -7.82672e-15 0)
(400 -7.28477e-15 0)
(400 1.19412e-14 0)
(400 4.13684e-15 0)
(400 -8.74439e-15 0)
(400 3.51144e-15 0)
(400 2.99605e-14 0)
(400 2.98509e-14 0)
(400 3.9396e-14 0)
(400 3.77932e-14 0)
(400 4.08141e-14 0)
(400 4.91874e-14 0)
(400 6.7672e-14 0)
(400 7.13553e-14 0)
(400 6.4913e-14 0)
(400 5.88003e-14 0)
(400 4.75125e-14 0)
(400 2.77579e-14 0)
(400 7.67721e-15 0)
(400 5.20534e-15 0)
(400 -4.22637e-15 0)
(400 9.21425e-16 0)
(400 7.44709e-15 0)
(400 6.95957e-15 0)
(400 -1.15067e-15 0)
(400 -1.50132e-14 0)
(400 -1.48207e-14 0)
(400 -7.02579e-15 0)
(400 -9.43717e-15 0)
(400 -9.81678e-15 0)
(400 -1.29361e-14 0)
(400 -1.66911e-14 0)
(400 -1.51571e-14 0)
(400 -2.68989e-14 0)
(400 -4.33664e-14 0)
(400 -5.65933e-14 0)
(400 -4.01035e-14 0)
(400 -2.66787e-14 0)
(400 -3.40996e-14 0)
(400 -3.93601e-14 0)
(400 -4.25546e-14 0)
(400 -4.21962e-14 0)
(400 -3.76407e-14 0)
(400 -2.44901e-14 0)
(400 -1.467e-14 0)
(400 1.16528e-15 0)
(400 7.73205e-15 0)
(400 5.75684e-15 0)
(400 1.67247e-15 0)
(400 -1.38919e-15 0)
(400 8.34327e-15 0)
(400 -3.55133e-15 0)
(400 -3.37337e-14 0)
(400 -5.49848e-14 0)
(400 -5.88832e-14 0)
(400 -6.20272e-14 0)
(400 -5.98159e-14 0)
(400 -5.83272e-14 0)
(400 -5.12829e-14 0)
(400 -4.52639e-14 0)
(400 -4.34984e-15 0)
(400 -1.5722e-14 0)
(400 -1.82693e-14 0)
(400 -1.11496e-14 0)
(400 -9.36153e-15 0)
(400 -3.77388e-15 0)
(400 3.79187e-15 0)
(400 5.28765e-15 0)
(400 2.14944e-14 0)
(400 3.42778e-14 0)
(400 3.9793e-14 0)
(400 4.09782e-14 0)
(400 4.81296e-14 0)
(400 4.61922e-14 0)
(400 3.93978e-14 0)
(400 2.60957e-14 0)
(400 2.48717e-14 0)
(400 3.60674e-14 0)
(400 4.18517e-14 0)
(400 5.02258e-14 0)
(400 6.22973e-14 0)
(400 5.39739e-14 0)
(400 4.98997e-14 0)
(400 6.47309e-14 0)
(400 5.86433e-14 0)
(400 4.56812e-14 0)
(400 3.94494e-14 0)
(400 4.16883e-14 0)
(400 4.08213e-14 0)
(400 3.86356e-14 0)
(400 5.09519e-14 0)
(400 6.24849e-14 0)
(400 6.44505e-14 0)
(400 5.28143e-14 0)
(400 4.57108e-14 0)
(400 5.26532e-14 0)
(400 5.4052e-14 0)
(400 5.57445e-14 0)
(400 4.57628e-14 0)
(400 2.52674e-14 0)
(400 1.80476e-14 0)
(400 1.28657e-14 0)
(400 -9.81912e-15 0)
(400 -1.71787e-14 0)
(400 -2.15962e-14 0)
(400 -2.37007e-14 0)
(400 -2.9492e-14 0)
(400 -2.77191e-14 0)
(400 -1.46795e-14 0)
(400 -1.50985e-14 0)
(400 -2.09283e-14 0)
(400 -2.4487e-14 0)
(400 -1.96928e-14 0)
(400 -7.36163e-15 0)
(400 -1.19288e-14 0)
(400 -1.02185e-14 0)
(400 5.06824e-15 0)
(400 1.27068e-14 0)
(400 1.6633e-14 0)
(400 1.26166e-14 0)
(400 3.61007e-14 0)
(400 6.62358e-14 0)
(400 6.58129e-14 0)
(400 5.72173e-14 0)
(400 6.8123e-14 0)
(400 6.30277e-14 0)
(400 4.81125e-14 0)
(400 3.39393e-14 0)
(400 3.7621e-14 0)
(400 5.96139e-14 0)
(400 6.85165e-14 0)
(400 6.06418e-14 0)
(400 4.96453e-14 0)
(400 4.38526e-14 0)
(400 4.74692e-14 0)
(400 3.23083e-14 0)
(400 2.34739e-14 0)
(400 3.07957e-14 0)
(400 2.76417e-14 0)
(400 2.32482e-14 0)
(400 2.72001e-14 0)
(400 4.31063e-14 0)
(400 5.71222e-14 0)
(400 7.0498e-14 0)
(400 5.772e-14 0)
(400 6.54237e-14 0)
(400 6.7247e-14 0)
(400 5.46039e-14 0)
(400 6.756e-14 0)
(400 5.7852e-14 0)
(400 4.11371e-14 0)
(400 4.70602e-14 0)
(400 4.90501e-14 0)
(400 4.35929e-14 0)
(400 3.50272e-14 0)
(400 1.91359e-14 0)
(400 -4.59785e-15 0)
(400 -2.73712e-14 0)
(400 -3.25375e-14 0)
(400 -3.63138e-14 0)
(400 -4.64715e-14 0)
(400 -4.38358e-14 0)
(400 -4.49224e-14 0)
(400 -3.81563e-14 0)
(400 -4.0921e-14 0)
(400 -5.1644e-14 0)
(400 -4.73885e-14 0)
(400 -4.42939e-14 0)
(400 -3.89358e-14 0)
(400 -4.02404e-14 0)
(400 -4.04997e-14 0)
(400 -3.6492e-14 0)
(400 -3.65744e-14 0)
(400 -1.66099e-14 0)
(400 -1.11586e-14 0)
(400 -1.91049e-14 0)
(400 -5.0781e-15 0)
(400 -6.23555e-15 0)
(400 -1.60484e-15 0)
(400 2.13657e-14 0)
(400 4.01191e-14 0)
(400 4.93063e-14 0)
(400 3.64579e-14 0)
(400 2.64732e-14 0)
(400 2.67204e-14 0)
(400 2.82052e-14 0)
(400 1.76593e-14 0)
(400 5.63695e-16 0)
(400 9.95429e-15 0)
(400 4.6237e-14 0)
(400 7.317e-14 0)
(400 8.79742e-14 0)
(400 7.60215e-14 0)
(400 5.76524e-14 0)
(400 5.78334e-14 0)
(400 6.67296e-14 0)
(400 6.45449e-14 0)
(400 6.17105e-14 0)
(400 6.14322e-14 0)
(400 5.56782e-14 0)
(400 7.38506e-14 0)
(400 7.91406e-14 0)
(400 6.8818e-14 0)
(400 6.73604e-14 0)
(400 7.28792e-14 0)
(400 7.75936e-14 0)
(400 7.78991e-14 0)
(400 8.59364e-14 0)
(400 9.71028e-14 0)
(400 9.66761e-14 0)
(400 9.24797e-14 0)
(400 9.4091e-14 0)
(400 1.14973e-13 0)
(400 1.05952e-13 0)
(400 9.55716e-14 0)
(400 8.4348e-14 0)
(400 5.84982e-14 0)
(400 5.0901e-14 0)
(400 6.43714e-14 0)
(400 6.14431e-14 0)
(400 5.57065e-14 0)
(400 6.14445e-14 0)
(400 6.86297e-14 0)
(400 8.32903e-14 0)
(400 6.44176e-14 0)
(400 5.06128e-14 0)
(400 3.95215e-14 0)
(400 2.90139e-14 0)
(400 1.85169e-14 0)
(400 1.78302e-14 0)
(400 1.00446e-14 0)
(400 1.51055e-14 0)
(400 2.07418e-14 0)
(400 3.98176e-15 0)
(400 -1.54938e-14 0)
(400 -2.79789e-14 0)
(400 -2.90563e-14 0)
(400 -1.32829e-14 0)
(400 -2.29869e-14 0)
(400 -1.49579e-14 0)
(400 -1.44446e-14 0)
(400 -2.12204e-14 0)
(400 -1.46649e-14 0)
(400 -8.01137e-15 0)
(400 -1.97735e-14 0)
(400 -1.90865e-14 0)
(400 -1.98662e-14 0)
(400 -1.88059e-14 0)
(400 -2.01207e-14 0)
(400 -2.20025e-14 0)
(400 -2.47887e-14 0)
(400 -4.01869e-14 0)
(400 -7.23622e-14 0)
(400 -1.01969e-13 0)
(400 -1.14025e-13 0)
(400 -1.14882e-13 0)
(400 -9.80871e-14 0)
(400 -9.97847e-14 0)
(400 -9.34053e-14 0)
(400 -8.41718e-14 0)
(400 -3.22766e-14 0)
(400 -4.69499e-14 0)
(400 -4.10059e-14 0)
(400 -3.90893e-14 0)
(400 -3.31029e-14 0)
(400 -2.17698e-14 0)
(400 -1.76679e-14 0)
(400 -1.904e-14 0)
(400 2.67237e-15 0)
(400 9.25513e-15 0)
(400 7.61493e-15 0)
(400 4.30086e-15 0)
(400 5.2435e-15 0)
(400 8.3397e-15 0)
(400 1.93728e-14 0)
(400 2.22742e-14 0)
(400 2.85327e-14 0)
(400 5.36765e-14 0)
(400 5.60805e-14 0)
(400 5.34907e-14 0)
(400 4.04117e-14 0)
(400 2.96356e-14 0)
(400 3.05917e-14 0)
(400 6.50972e-14 0)
(400 6.44663e-14 0)
(400 6.58658e-14 0)
(400 6.62492e-14 0)
(400 6.27714e-14 0)
(400 6.27539e-14 0)
(400 6.15799e-14 0)
(400 6.80341e-14 0)
(400 5.49627e-14 0)
(400 3.85294e-14 0)
(400 6.35938e-14 0)
(400 5.60489e-14 0)
(400 5.74102e-14 0)
(400 5.42869e-14 0)
(400 5.21563e-14 0)
(400 3.69844e-14 0)
(400 1.35672e-14 0)
(400 -2.52505e-14 0)
(400 -4.70601e-14 0)
(400 -6.20152e-14 0)
(400 -6.98011e-14 0)
(400 -7.77813e-14 0)
(400 -7.147e-14 0)
(400 -6.92429e-14 0)
(400 -6.17494e-14 0)
(400 -4.45021e-14 0)
(400 -6.37555e-14 0)
(400 -5.88378e-14 0)
(400 -3.68007e-14 0)
(400 -2.69779e-14 0)
(400 -2.83322e-14 0)
(400 -2.99488e-14 0)
(400 -1.08051e-14 0)
(400 -3.23933e-15 0)
(400 1.18984e-14 0)
(400 1.10692e-14 0)
(400 7.08518e-15 0)
(400 1.24999e-14 0)
(400 1.75035e-14 0)
(400 3.28705e-14 0)
(400 3.17569e-14 0)
(400 3.65998e-14 0)
(400 2.2005e-14 0)
(400 9.59865e-15 0)
(400 1.17695e-14 0)
(400 2.15502e-14 0)
(400 3.49722e-14 0)
(400 3.85762e-14 0)
(400 3.20933e-14 0)
(400 2.697e-14 0)
(400 1.56717e-14 0)
(400 1.50762e-14 0)
(400 1.19689e-14 0)
(400 1.38229e-14 0)
(400 2.35959e-14 0)
(400 3.31998e-14 0)
(400 5.43547e-14 0)
(400 6.34114e-14 0)
(400 4.09146e-14 0)
(400 4.57315e-14 0)
(400 4.92775e-14 0)
(400 6.20481e-14 0)
(400 7.75623e-14 0)
(400 7.21341e-14 0)
(400 8.26622e-14 0)
(400 8.58996e-14 0)
(400 8.05767e-14 0)
(400 6.78782e-14 0)
(400 4.51359e-14 0)
(400 4.29582e-14 0)
(400 4.47197e-14 0)
(400 3.19847e-14 0)
(400 1.33896e-14 0)
(400 -2.0822e-14 0)
(400 -4.1176e-14 0)
(400 -5.22657e-14 0)
(400 -6.30406e-14 0)
(400 -5.3403e-14 0)
(400 -4.25196e-14 0)
(400 -2.96671e-14 0)
(400 -3.67999e-14 0)
(400 -4.12687e-14 0)
(400 -3.34192e-14 0)
(400 -2.66826e-14 0)
(400 -2.41504e-14 0)
(400 -2.41182e-14 0)
(400 -1.41553e-14 0)
(400 -2.46461e-14 0)
(400 -3.50961e-14 0)
(400 -3.13717e-14 0)
(400 -2.25635e-14 0)
(400 -1.98973e-14 0)
(400 -2.89106e-14 0)
(400 -1.47276e-14 0)
(400 1.49381e-14 0)
(400 1.34441e-14 0)
(400 2.64186e-14 0)
(400 4.62972e-14 0)
(400 6.21198e-14 0)
(400 4.01137e-14 0)
(400 2.36124e-14 0)
(400 7.18836e-15 0)
(400 -1.63285e-14 0)
(400 -3.81963e-14 0)
(400 -5.03883e-14 0)
(400 -4.29806e-14 0)
(400 -2.59604e-14 0)
(400 -1.16456e-14 0)
(400 -2.62064e-15 0)
(400 1.67884e-14 0)
(400 -7.84812e-15 0)
(400 -1.03959e-14 0)
(400 3.27605e-15 0)
(400 2.35194e-14 0)
(400 3.59462e-14 0)
(400 3.21781e-14 0)
(400 3.95601e-14 0)
(400 4.81214e-14 0)
(400 5.07486e-14 0)
(400 3.44676e-14 0)
(400 3.49704e-14 0)
(400 4.05904e-14 0)
(400 3.65234e-14 0)
(400 3.21011e-14 0)
(400 5.05423e-14 0)
(400 5.60386e-14 0)
(400 6.36341e-14 0)
(400 6.6765e-14 0)
(400 6.75104e-14 0)
(400 6.51141e-14 0)
(400 6.28221e-14 0)
(400 5.94201e-14 0)
(400 5.59604e-14 0)
(400 4.26505e-14 0)
(400 2.80477e-14 0)
(400 2.58659e-14 0)
(400 2.82544e-14 0)
(400 2.74337e-14 0)
(400 1.58469e-14 0)
(400 5.64246e-15 0)
(400 1.42993e-14 0)
(400 8.61334e-15 0)
(400 -6.8088e-15 0)
(400 -2.23038e-14 0)
(400 -2.81805e-14 0)
(400 -2.36658e-14 0)
(400 -1.64544e-14 0)
(400 -8.75118e-15 0)
(400 3.42607e-15 0)
(400 8.44577e-15 0)
(400 7.10586e-15 0)
(400 1.44192e-14 0)
(400 1.19431e-14 0)
(400 -1.35775e-14 0)
(400 -8.3737e-15 0)
(400 1.35824e-15 0)
(400 3.01718e-15 0)
(400 7.21181e-15 0)
(400 9.77955e-15 0)
(400 1.43919e-14 0)
(400 1.69518e-14 0)
(400 1.59497e-14 0)
(400 1.99376e-14 0)
(400 1.65727e-14 0)
(400 1.24259e-14 0)
(400 1.63908e-14 0)
(400 1.26906e-14 0)
(400 2.6768e-14 0)
(400 2.40846e-14 0)
(400 5.57057e-15 0)
(400 -1.36136e-14 0)
(400 -3.31789e-14 0)
(400 -3.20947e-14 0)
(400 -3.24951e-14 0)
(400 -2.92723e-14 0)
(400 -2.45952e-14 0)
(400 -2.63139e-14 0)
(400 -2.16806e-14 0)
(400 -3.739e-14 0)
(400 -3.50549e-14 0)
(400 -3.50064e-14 0)
(400 -3.63018e-14 0)
(400 -4.49001e-14 0)
(400 -4.9016e-14 0)
(400 -3.9108e-14 0)
(400 -2.31142e-14 0)
(400 -1.32218e-14 0)
(400 -3.4582e-15 0)
(400 9.36803e-16 0)
(400 8.1085e-15 0)
(400 2.92038e-14 0)
(400 5.4357e-14 0)
(400 5.39578e-14 0)
(400 5.06091e-14 0)
(400 6.13955e-14 0)
(400 5.42712e-14 0)
(400 5.79156e-14 0)
(400 5.63604e-14 0)
(400 4.82975e-14 0)
(400 4.60808e-14 0)
(400 5.06701e-14 0)
(400 4.54474e-14 0)
(400 4.47168e-14 0)
(400 3.92849e-14 0)
(400 2.93156e-14 0)
(400 2.71941e-14 0)
(400 2.3078e-14 0)
(400 2.85295e-14 0)
(400 5.95214e-15 0)
(400 -5.68085e-15 0)
(400 1.10829e-14 0)
(400 1.13597e-14 0)
(400 5.11542e-16 0)
(400 6.71675e-17 0)
(400 1.24056e-15 0)
(400 6.92692e-15 0)
(400 6.2586e-15 0)
(400 -1.50693e-14 0)
(400 -2.88048e-14 0)
(400 -2.78235e-14 0)
(400 -2.45385e-14 0)
(400 -2.85603e-14 0)
(400 -3.80576e-14 0)
(400 -4.33265e-14 0)
(400 -3.64354e-14 0)
(400 -2.9642e-14 0)
(400 -4.09763e-14 0)
(400 -4.38196e-14 0)
(400 -4.60909e-14 0)
(400 -4.30588e-14 0)
(400 -5.09605e-14 0)
(400 -5.53006e-14 0)
(400 -5.31105e-14 0)
(400 -3.17376e-14 0)
(400 -9.31299e-15 0)
(400 9.58531e-16 0)
(400 1.57279e-14 0)
(400 1.2562e-14 0)
(400 7.96366e-16 0)
(400 1.72014e-14 0)
(400 3.11239e-14 0)
(400 3.26083e-14 0)
(400 2.98921e-14 0)
(400 1.3253e-14 0)
(400 7.91505e-15 0)
(400 1.76855e-14 0)
(400 1.37224e-14 0)
(400 1.19355e-14 0)
(400 2.25966e-14 0)
(400 1.93386e-14 0)
(400 1.52015e-14 0)
(400 6.88493e-15 0)
(400 -5.39522e-15 0)
(400 2.47502e-16 0)
(400 1.03698e-15 0)
(400 2.11357e-14 0)
(400 3.57211e-14 0)
(400 4.10077e-14 0)
(400 3.68428e-14 0)
(400 2.98613e-14 0)
(400 2.61217e-14 0)
(400 2.96993e-14 0)
(400 3.58014e-14 0)
(400 5.0917e-14 0)
(400 7.34881e-14 0)
(400 6.65232e-14 0)
(400 5.61238e-14 0)
(400 5.16176e-14 0)
(400 2.67074e-14 0)
(400 3.0211e-15 0)
(400 -1.26192e-14 0)
(400 -2.8655e-14 0)
(400 -3.37282e-14 0)
(400 -5.46782e-14 0)
(400 -7.01775e-14 0)
(400 -8.21992e-14 0)
(400 -8.83058e-14 0)
(400 -7.54228e-14 0)
(400 -6.55602e-14 0)
(400 -6.14319e-14 0)
(400 -5.87563e-14 0)
(400 -5.41969e-14 0)
(400 -4.60221e-14 0)
(400 -3.36279e-14 0)
(400 -3.14187e-14 0)
(400 -3.30043e-14 0)
(400 -3.32068e-14 0)
(400 -2.62536e-14 0)
(400 -2.89751e-14 0)
(400 -1.19144e-14 0)
(400 -9.51228e-15 0)
(400 -1.50102e-15 0)
(400 1.08597e-14 0)
(400 2.82626e-14 0)
(400 4.13681e-14 0)
(400 6.61855e-14 0)
(400 7.55599e-14 0)
(400 8.76981e-14 0)
(400 8.08856e-14 0)
(400 7.78791e-14 0)
(400 5.74178e-14 0)
(400 2.5176e-14 0)
(400 -5.06306e-15 0)
(400 -3.24233e-14 0)
(400 -3.37069e-14 0)
(400 -2.97432e-14 0)
(400 -3.01255e-14 0)
(400 -1.66923e-14 0)
(400 -4.96399e-15 0)
(400 8.33865e-15 0)
(400 1.26604e-14 0)
(400 1.61487e-14 0)
(400 1.7932e-14 0)
(400 3.48235e-14 0)
(400 5.26288e-14 0)
(400 5.82345e-14 0)
(400 6.52953e-14 0)
(400 4.9611e-14 0)
(400 3.43452e-14 0)
(400 3.27141e-14 0)
(400 2.98708e-14 0)
(400 2.94884e-14 0)
(400 2.33738e-14 0)
(400 3.03359e-14 0)
(400 3.21567e-14 0)
(400 3.45234e-14 0)
(400 4.73954e-14 0)
(400 5.88383e-14 0)
(400 6.34289e-14 0)
(400 6.38056e-14 0)
(400 7.65953e-14 0)
(400 8.07944e-14 0)
(400 8.1418e-14 0)
(400 8.13358e-14 0)
(400 6.2781e-14 0)
(400 3.9748e-14 0)
(400 3.50321e-14 0)
(400 3.08908e-14 0)
(400 3.34411e-15 0)
(400 -2.36813e-14 0)
(400 -2.87273e-14 0)
(400 -2.69568e-14 0)
(400 -3.85513e-14 0)
(400 -4.44266e-14 0)
(400 -4.24656e-14 0)
(400 -3.31166e-14 0)
(400 -3.37463e-14 0)
(400 -2.25478e-14 0)
(400 -1.19313e-14 0)
(400 5.80477e-15 0)
(400 3.28936e-14 0)
(400 3.04981e-14 0)
(400 2.08451e-14 0)
(400 9.42884e-15 0)
(400 6.74617e-15 0)
(400 3.22878e-14 0)
(400 4.63123e-14 0)
(400 4.6885e-14 0)
(400 3.62774e-14 0)
(400 2.03202e-14 0)
(400 2.74274e-14 0)
(400 2.42986e-14 0)
(400 1.20274e-14 0)
(400 -1.50838e-15 0)
(400 -2.68342e-14 0)
(400 -4.00378e-14 0)
(400 -4.89363e-14 0)
(400 -4.21417e-14 0)
(400 -4.14516e-14 0)
(400 -3.95139e-14 0)
(400 -4.52908e-14 0)
(400 -5.4609e-14 0)
(400 -5.16422e-14 0)
(400 -4.89884e-14 0)
(400 -4.98516e-14 0)
(400 -6.97852e-14 0)
(400 -8.36009e-14 0)
(400 -8.07693e-15 0)
(400 -1.97232e-14 0)
(400 -3.89147e-14 0)
(400 -3.50817e-14 0)
(400 -2.86309e-14 0)
(400 -3.34874e-14 0)
(400 -3.9582e-14 0)
(400 -3.25641e-14 0)
(400 -3.02502e-14 0)
(400 -3.00256e-14 0)
(400 -2.05302e-14 0)
(400 -1.71287e-14 0)
(400 4.48365e-16 0)
(400 2.5568e-14 0)
(400 4.69468e-14 0)
(400 5.1478e-14 0)
(400 6.66519e-14 0)
(400 6.98028e-14 0)
(400 7.01268e-14 0)
(400 8.84489e-14 0)
(400 9.57006e-14 0)
(400 9.24629e-14 0)
(400 7.29696e-14 0)
(400 4.26889e-14 0)
(400 2.74419e-14 0)
(400 8.68228e-15 0)
(400 -9.15561e-15 0)
(400 -1.16154e-14 0)
(400 -6.5324e-15 0)
(400 -8.46589e-15 0)
(400 -9.39038e-15 0)
(400 -8.253e-15 0)
(400 -6.03121e-15 0)
(400 -1.98957e-14 0)
(400 -1.29058e-14 0)
(400 -3.58475e-14 0)
(400 -4.91396e-14 0)
(400 -5.49758e-14 0)
(400 -4.4145e-14 0)
(400 -3.55172e-14 0)
(400 -9.16095e-15 0)
(400 -4.3055e-15 0)
(400 1.19155e-16 0)
(400 3.46897e-15 0)
(400 7.47956e-15 0)
(400 9.56378e-16 0)
(400 -6.23177e-15 0)
(400 -1.1059e-14 0)
(400 -2.43526e-14 0)
(400 -2.66801e-14 0)
(400 -3.30776e-14 0)
(400 -5.00739e-14 0)
(400 -5.51797e-14 0)
(400 -4.63607e-14 0)
(400 -3.76905e-14 0)
(400 -3.84819e-14 0)
(400 -3.254e-15 0)
(400 9.74212e-15 0)
(400 2.07953e-14 0)
(400 3.89468e-14 0)
(400 4.09984e-14 0)
(400 4.28715e-14 0)
(400 3.24621e-14 0)
(400 2.1727e-14 0)
(400 2.51293e-15 0)
(400 3.05527e-15 0)
(400 2.57561e-15 0)
(400 5.36541e-15 0)
(400 3.05691e-15 0)
(400 2.95549e-15 0)
(400 1.03754e-14 0)
(400 1.62495e-14 0)
(400 1.19507e-14 0)
(400 1.48563e-14 0)
(400 1.92131e-14 0)
(400 2.49113e-14 0)
(400 3.57041e-14 0)
(400 3.55378e-14 0)
(400 3.77658e-14 0)
(400 2.15377e-14 0)
(400 6.58331e-15 0)
(400 1.59836e-14 0)
(400 5.18523e-15 0)
(400 -8.00473e-15 0)
(400 -1.28985e-14 0)
(400 -2.11731e-14 0)
(400 -1.64572e-14 0)
(400 -1.39264e-14 0)
(400 -1.53283e-14 0)
(400 -1.46001e-14 0)
(400 -1.50168e-14 0)
(400 -1.83649e-14 0)
(400 -4.0943e-14 0)
(400 -4.94294e-14 0)
(400 -4.95085e-14 0)
(400 -5.69872e-14 0)
(400 -5.58839e-14 0)
(400 -4.93502e-14 0)
(400 -5.81075e-14 0)
(400 -4.47469e-14 0)
(400 -3.05027e-14 0)
(400 -2.62705e-14 0)
(400 -2.7168e-14 0)
(400 -2.43542e-14 0)
(400 -1.97212e-14 0)
(400 -2.61896e-14 0)
(400 -1.80482e-14 0)
(400 -9.72356e-15 0)
(400 -1.67991e-15 0)
(400 1.69949e-15 0)
(400 1.66266e-14 0)
(400 2.07476e-14 0)
(400 3.03118e-14 0)
(400 4.46772e-14 0)
(400 3.82013e-14 0)
(400 4.04919e-14 0)
(400 4.39039e-14 0)
(400 4.04957e-14 0)
(400 6.57079e-14 0)
(400 6.75838e-14 0)
(400 5.68063e-14 0)
(400 2.79569e-14 0)
(400 1.99521e-14 0)
(400 5.38061e-15 0)
(400 -1.32399e-14 0)
(400 -3.35973e-14 0)
(400 -4.29279e-14 0)
(400 -4.52585e-14 0)
(400 -4.34629e-14 0)
(400 -4.80742e-14 0)
(400 -4.30537e-14 0)
(400 -2.68242e-14 0)
(400 -3.48564e-14 0)
(400 -8.52918e-15 0)
(400 -2.9461e-15 0)
(400 -4.02204e-16 0)
(400 2.85432e-15 0)
(400 1.31752e-14 0)
(400 2.98173e-14 0)
(400 4.01064e-14 0)
(400 3.98034e-14 0)
(400 2.07897e-14 0)
(400 7.51275e-15 0)
(400 2.77397e-15 0)
(400 1.38503e-14 0)
(400 9.06353e-15 0)
(400 -4.27042e-15 0)
(400 -1.88562e-14 0)
(400 -2.84165e-14 0)
(400 -1.98786e-14 0)
(400 -1.53202e-14 0)
(400 -1.30795e-14 0)
(400 -5.70978e-15 0)
(400 2.73551e-14 0)
(400 4.81175e-14 0)
(400 5.84961e-14 0)
(400 7.19343e-14 0)
(400 7.43343e-14 0)
(400 6.75014e-14 0)
(400 6.03544e-14 0)
(400 6.14852e-14 0)
(400 3.71107e-14 0)
(400 1.49621e-14 0)
(400 2.45861e-15 0)
(400 -1.23001e-14 0)
(400 -3.10963e-14 0)
(400 -3.38012e-14 0)
(400 -3.25012e-14 0)
(400 -1.71677e-14 0)
(400 -1.96278e-15 0)
(400 9.71969e-15 0)
(400 2.36738e-14 0)
(400 3.50616e-14 0)
(400 5.98839e-14 0)
(400 6.0122e-14 0)
(400 4.92684e-14 0)
(400 4.2634e-14 0)
(400 4.07554e-14 0)
(400 5.66116e-14 0)
(400 6.55834e-14 0)
(400 7.84148e-14 0)
(400 8.09575e-14 0)
(400 9.27606e-14 0)
(400 9.28002e-14 0)
(400 8.61194e-14 0)
(400 8.58457e-14 0)
(400 7.46226e-14 0)
(400 6.49274e-14 0)
(400 5.98738e-14 0)
(400 5.54058e-14 0)
(400 4.22936e-14 0)
(400 3.34648e-14 0)
(400 3.21736e-14 0)
(400 2.22849e-14 0)
(400 2.98303e-15 0)
(400 -1.19568e-15 0)
(400 -8.98691e-15 0)
(400 -2.65153e-14 0)
(400 -4.88068e-14 0)
(400 -5.48844e-14 0)
(400 7.20118e-16 0)
(400 -1.21384e-14 0)
(400 -3.09859e-14 0)
(400 -3.96716e-14 0)
(400 -4.08101e-14 0)
(400 -1.98712e-14 0)
(400 -1.81691e-14 0)
(400 -2.43133e-14 0)
(400 -3.20832e-14 0)
(400 -4.88023e-14 0)
(400 -4.26338e-14 0)
(400 -2.91106e-14 0)
(400 -1.88029e-15 0)
(400 1.04509e-14 0)
(400 2.44639e-14 0)
(400 5.05838e-14 0)
(400 6.70215e-14 0)
(400 7.21118e-14 0)
(400 8.02525e-14 0)
(400 7.87767e-14 0)
(400 6.85512e-14 0)
(400 6.67917e-14 0)
(400 5.57945e-14 0)
(400 2.52989e-14 0)
(400 -2.86925e-15 0)
(400 -2.05411e-14 0)
(400 -3.88785e-14 0)
(400 -3.6972e-14 0)
(400 -1.80264e-14 0)
(400 -1.60804e-14 0)
(400 -1.20944e-14 0)
(400 -9.55173e-15 0)
(400 -1.60116e-14 0)
(400 -1.99567e-14 0)
(400 -1.76353e-14 0)
(400 -2.73957e-14 0)
(400 -4.43204e-14 0)
(400 -5.32731e-14 0)
(400 -5.07339e-14 0)
(400 -5.68617e-14 0)
(400 -4.00405e-14 0)
(400 -2.24753e-14 0)
(400 -1.66098e-14 0)
(400 -1.08559e-14 0)
(400 -1.18775e-14 0)
(400 -1.96761e-15 0)
(400 2.9252e-15 0)
(400 -7.69718e-15 0)
(400 -3.30332e-14 0)
(400 -3.99174e-14 0)
(400 -3.50338e-14 0)
(400 -4.98225e-14 0)
(400 -4.67799e-14 0)
(400 -2.8705e-14 0)
(400 -1.31149e-14 0)
(400 7.30803e-16 0)
(400 1.46028e-14 0)
(400 1.70956e-14 0)
(400 1.30174e-14 0)
(400 2.41154e-14 0)
(400 2.68087e-14 0)
(400 1.50872e-14 0)
(400 1.24903e-16 0)
(400 -6.63767e-15 0)
(400 -1.98088e-14 0)
(400 -3.95588e-14 0)
(400 -4.14991e-14 0)
(400 -2.90907e-14 0)
(400 -1.61622e-14 0)
(400 -1.11219e-14 0)
(400 1.60714e-16 0)
(400 -6.73876e-15 0)
(400 -1.05527e-14 0)
(400 4.79242e-15 0)
(400 1.85907e-14 0)
(400 3.64176e-14 0)
(400 3.38092e-14 0)
(400 3.14453e-14 0)
(400 1.7593e-14 0)
(400 3.61668e-15 0)
(400 7.73977e-16 0)
(400 -6.7753e-15 0)
(400 -2.15438e-14 0)
(400 -4.44957e-14 0)
(400 -5.93987e-14 0)
(400 -5.12874e-14 0)
(400 -5.32071e-14 0)
(400 -6.32718e-14 0)
(400 -7.50259e-14 0)
(400 -7.21215e-14 0)
(400 -6.69509e-14 0)
(400 -6.07194e-14 0)
(400 -5.26198e-14 0)
(400 -5.65424e-14 0)
(400 -5.05138e-14 0)
(400 -7.42792e-14 0)
(400 -7.21403e-14 0)
(400 -5.89996e-14 0)
(400 -6.40358e-14 0)
(400 -5.30719e-14 0)
(400 -4.41291e-14 0)
(400 -2.77317e-14 0)
(400 -1.72374e-14 0)
(400 -1.82584e-14 0)
(400 -1.37765e-14 0)
(400 -1.57003e-14 0)
(400 -1.43301e-14 0)
(400 -4.65893e-15 0)
(400 3.43978e-15 0)
(400 1.32508e-14 0)
(400 1.71853e-14 0)
(400 1.55132e-14 0)
(400 1.32733e-14 0)
(400 2.62713e-14 0)
(400 2.72666e-14 0)
(400 2.11351e-14 0)
(400 1.49873e-14 0)
(400 3.00264e-14 0)
(400 2.9896e-14 0)
(400 2.25198e-14 0)
(400 1.33657e-15 0)
(400 -1.72037e-14 0)
(400 -4.15248e-14 0)
(400 -5.79617e-14 0)
(400 -6.39517e-14 0)
(400 -5.95461e-14 0)
(400 -4.18089e-14 0)
(400 -3.78149e-14 0)
(400 -5.13562e-14 0)
(400 -5.65814e-14 0)
(400 -5.04021e-14 0)
(400 -4.27313e-14 0)
(400 -3.66335e-14 0)
(400 -2.63907e-14 0)
(400 -2.35715e-14 0)
(400 -2.58246e-14 0)
(400 -2.28915e-14 0)
(400 -1.01848e-14 0)
(400 1.25478e-14 0)
(400 2.5194e-14 0)
(400 2.87649e-14 0)
(400 3.84844e-14 0)
(400 3.5004e-14 0)
(400 1.88891e-14 0)
(400 1.73022e-14 0)
(400 9.84314e-15 0)
(400 -1.34894e-14 0)
(400 -2.40878e-14 0)
(400 -3.36011e-14 0)
(400 -2.36103e-14 0)
(400 -1.43896e-14 0)
(400 -1.29496e-14 0)
(400 -1.34792e-14 0)
(400 -2.80683e-15 0)
(400 8.20132e-15 0)
(400 1.95538e-14 0)
(400 3.32712e-14 0)
(400 3.93167e-14 0)
(400 3.97261e-14 0)
(400 3.25733e-14 0)
(400 1.74781e-14 0)
(400 4.04736e-15 0)
(400 -1.10038e-14 0)
(400 -2.18325e-14 0)
(400 -1.84302e-14 0)
(400 -2.41456e-14 0)
(400 -3.08622e-14 0)
(400 -2.85024e-14 0)
(400 -1.86768e-14 0)
(400 7.64884e-15 0)
(400 1.90717e-14 0)
(400 1.85653e-14 0)
(400 9.31589e-15 0)
(400 1.39251e-14 0)
(400 3.61302e-14 0)
(400 2.43514e-14 0)
(400 1.75611e-14 0)
(400 2.49381e-14 0)
(400 2.53398e-14 0)
(400 1.23012e-14 0)
(400 1.04413e-14 0)
(400 2.04484e-14 0)
(400 2.80643e-14 0)
(400 1.79102e-14 0)
(400 2.92069e-14 0)
(400 3.37321e-14 0)
(400 3.11845e-14 0)
(400 4.06864e-14 0)
(400 5.57044e-14 0)
(400 5.97205e-14 0)
(400 6.08586e-14 0)
(400 5.69705e-14 0)
(400 4.41449e-14 0)
(400 3.62849e-14 0)
(400 2.51363e-14 0)
(400 -1.70207e-14 0)
(400 -5.00639e-14 0)
(400 -6.60356e-14 0)
(400 -6.25225e-14 0)
(400 -4.92242e-14 0)
(400 -4.76857e-15 0)
(400 -2.62864e-14 0)
(400 -2.00482e-14 0)
(400 -2.30643e-14 0)
(400 -4.08657e-14 0)
(400 -4.47531e-14 0)
(400 -3.71578e-14 0)
(400 -3.85612e-14 0)
(400 -4.94034e-14 0)
(400 -3.91021e-14 0)
(400 -3.07967e-14 0)
(400 -1.70406e-14 0)
(400 2.17052e-14 0)
(400 5.17632e-14 0)
(400 5.94315e-14 0)
(400 6.74976e-14 0)
(400 7.12758e-14 0)
(400 7.42771e-14 0)
(400 7.36397e-14 0)
(400 6.56689e-14 0)
(400 5.63016e-14 0)
(400 3.92835e-14 0)
(400 2.66917e-14 0)
(400 -1.02654e-14 0)
(400 -4.63991e-14 0)
(400 -5.70989e-14 0)
(400 -6.35729e-14 0)
(400 -6.35591e-14 0)
(400 -6.46496e-14 0)
(400 -7.03649e-14 0)
(400 -5.4946e-14 0)
(400 -5.20814e-14 0)
(400 -5.80301e-14 0)
(400 -6.5531e-14 0)
(400 -5.20128e-14 0)
(400 -3.89887e-14 0)
(400 -3.596e-14 0)
(400 -3.36533e-14 0)
(400 -3.27563e-14 0)
(400 -2.2032e-14 0)
(400 -1.28921e-14 0)
(400 2.14025e-15 0)
(400 9.23303e-15 0)
(400 1.24375e-14 0)
(400 2.43854e-14 0)
(400 4.21359e-14 0)
(400 4.62256e-14 0)
(400 4.53043e-14 0)
(400 3.16091e-14 0)
(400 3.64931e-14 0)
(400 4.16485e-14 0)
(400 3.90397e-14 0)
(400 3.56042e-14 0)
(400 3.85896e-14 0)
(400 4.80962e-14 0)
(400 3.82269e-14 0)
(400 9.48108e-15 0)
(400 -8.31617e-15 0)
(400 1.00371e-16 0)
(400 9.8682e-15 0)
(400 -2.36728e-15 0)
(400 -2.20495e-14 0)
(400 -3.25774e-14 0)
(400 -3.07406e-14 0)
(400 -2.55976e-14 0)
(400 -3.33634e-14 0)
(400 -2.74065e-14 0)
(400 -1.66112e-14 0)
(400 -5.03374e-15 0)
(400 1.85354e-14 0)
(400 1.70074e-14 0)
(400 1.89978e-14 0)
(400 1.87123e-14 0)
(400 2.67565e-14 0)
(400 2.92046e-14 0)
(400 2.50534e-14 0)
(400 3.76924e-14 0)
(400 2.18423e-14 0)
(400 -2.2255e-15 0)
(400 -1.32082e-14 0)
(400 -2.34942e-14 0)
(400 -2.36922e-14 0)
(400 -3.51618e-14 0)
(400 -3.75712e-14 0)
(400 -5.38222e-14 0)
(400 -5.99003e-14 0)
(400 -5.93849e-14 0)
(400 -5.86968e-14 0)
(400 -5.8753e-14 0)
(400 -5.54611e-14 0)
(400 -5.31737e-14 0)
(400 -4.31539e-14 0)
(400 -2.66387e-14 0)
(400 -1.01363e-14 0)
(400 -1.56416e-14 0)
(400 -3.64155e-14 0)
(400 -2.16373e-14 0)
(400 -2.95231e-14 0)
(400 -2.18422e-14 0)
(400 -3.0937e-14 0)
(400 -4.06552e-14 0)
(400 -2.72633e-14 0)
(400 -2.23076e-14 0)
(400 -4.90659e-15 0)
(400 7.54263e-15 0)
(400 1.3748e-14 0)
(400 1.32032e-14 0)
(400 8.46104e-15 0)
(400 8.50859e-15 0)
(400 -1.3204e-15 0)
(400 -1.92753e-14 0)
(400 -1.53502e-14 0)
(400 -7.9551e-15 0)
(400 4.39985e-15 0)
(400 2.18469e-14 0)
(400 2.76669e-14 0)
(400 4.52157e-14 0)
(400 5.36236e-14 0)
(400 4.48039e-14 0)
(400 2.79031e-14 0)
(400 9.07552e-15 0)
(400 1.45876e-14 0)
(400 7.20085e-15 0)
(400 7.80822e-15 0)
(400 7.07415e-15 0)
(400 1.2639e-14 0)
(400 2.10648e-14 0)
(400 1.66531e-14 0)
(400 -2.0144e-15 0)
(400 -2.37262e-14 0)
(400 -2.53969e-14 0)
(400 -3.25463e-14 0)
(400 -3.18973e-14 0)
(400 -4.17382e-14 0)
(400 -4.10745e-14 0)
(400 -3.04237e-14 0)
(400 -1.35748e-14 0)
(400 -9.82506e-15 0)
(400 9.20763e-16 0)
(400 -3.10295e-15 0)
(400 -6.1099e-15 0)
(400 2.1164e-14 0)
(400 3.14381e-14 0)
(400 2.23432e-14 0)
(400 5.0186e-15 0)
(400 -1.03774e-14 0)
(400 -2.05294e-14 0)
(400 -3.81231e-14 0)
(400 -4.6839e-14 0)
(400 -5.46789e-14 0)
(400 -4.23658e-14 0)
(400 -2.75111e-14 0)
(400 -2.42132e-14 0)
(400 -3.93515e-14 0)
(400 -5.25951e-14 0)
(400 -4.50695e-14 0)
(400 -2.90144e-14 0)
(400 -2.44019e-14 0)
(400 -1.92896e-14 0)
(400 -1.48259e-14 0)
(400 -2.81798e-14 0)
(400 -2.53448e-14 0)
(400 -2.07776e-14 0)
(400 -3.86891e-14 0)
(400 -1.84948e-14 0)
(400 1.24914e-14 0)
(400 1.77644e-14 0)
(400 2.31005e-14 0)
(400 1.73473e-14 0)
(400 2.13055e-14 0)
(400 2.52923e-14 0)
(400 1.83177e-14 0)
(400 1.35288e-14 0)
(400 1.41136e-14 0)
(400 2.33171e-14 0)
(400 3.63791e-14 0)
(400 5.13672e-14 0)
(400 5.86682e-14 0)
(400 5.18754e-14 0)
(400 5.12737e-14 0)
(400 5.22654e-14 0)
(400 5.14504e-14 0)
(400 4.31067e-14 0)
(400 3.93168e-14 0)
(400 5.51809e-14 0)
(400 5.37291e-14 0)
(400 6.50602e-14 0)
(400 8.15592e-14 0)
(400 9.20266e-14 0)
(400 9.99338e-14 0)
(400 1.09113e-13 0)
(400 1.218e-13 0)
(400 1.26394e-13 0)
(400 1.13016e-13 0)
(400 1.05967e-13 0)
(400 5.94034e-14 0)
(400 1.55429e-14 0)
(400 9.80632e-15 0)
(400 -6.78496e-15 0)
(400 -1.51247e-14 0)
(400 1.8296e-15 0)
(400 9.50958e-15 0)
(400 2.19783e-14 0)
(400 1.4008e-14 0)
(400 5.4885e-15 0)
(400 -2.30943e-14 0)
(400 -3.4904e-14 0)
(400 -3.2904e-14 0)
(400 -2.67324e-14 0)
(400 -9.54131e-15 0)
(400 -8.80592e-15 0)
(400 -4.90384e-15 0)
(400 8.24745e-15 0)
(400 2.92069e-14 0)
(400 2.33899e-14 0)
(400 1.94045e-14 0)
(400 2.23273e-14 0)
(400 1.17471e-14 0)
(400 1.60623e-14 0)
(400 2.3861e-14 0)
(400 1.79422e-14 0)
(400 9.46075e-15 0)
(400 -5.0623e-15 0)
(400 -3.92962e-14 0)
(400 -5.86647e-14 0)
(400 -6.50184e-14 0)
(400 -6.39824e-14 0)
(400 -6.33699e-14 0)
(400 -7.16958e-14 0)
(400 -6.40022e-14 0)
(400 -5.63005e-14 0)
(400 -4.51803e-14 0)
(400 -3.58383e-14 0)
(400 -4.72078e-14 0)
(400 -4.92969e-14 0)
(400 -4.64625e-14 0)
(400 -3.00547e-14 0)
(400 -2.93552e-14 0)
(400 -4.25342e-14 0)
(400 -4.28533e-14 0)
(400 -4.6087e-14 0)