 VARIABLES = "X",  "Y"
 ZONE N=        3600 , E=        3481 , F=FEPOINT, ET=QUADRILATERAL
        1.0000000000        1.2500000000
        1.0000000000        1.2076271186
        1.0338983051        1.2076271186
        1.0338983051        1.2500000000
        1.0000000000        1.1652542373
        1.0338983051        1.1652542373
        1.0000000000        1.1228813559
        1.0338983051        1.1228813559
        1.0000000000        1.0805084746
        1.0338983051        1.0805084746
        1.0000000000        1.0381355932
        1.0338983051        1.0381355932
        1.0000000000        0.9957627119
        1.0338983051        0.9957627119
        1.0000000000        0.9533898305
        1.0338983051        0.9533898305
        1.0000000000        0.9110169492
        1.0338983051        0.9110169492
        1.0000000000        0.8686440678
        1.0338983051        0.8686440678
        1.0000000000        0.8262711864
        1.0338983051        0.8262711864
        1.0000000000        0.7838983051
        1.0338983051        0.7838983051
        1.0000000000        0.7415254237
        1.0338983051        0.7415254237
        1.0000000000        0.6991525424
        1.0338983051        0.6991525424
        1.0000000000        0.6567796610
        1.0338983051        0.6567796610
        1.0000000000        0.6144067797
        1.0338983051        0.6144067797
        1.0000000000        0.5720338983
        1.0338983051        0.5720338983
        1.0000000000        0.5296610169
        1.0338983051        0.5296610169
        1.0000000000        0.4872881356
        1.0338983051        0.4872881356
        1.0000000000        0.4449152542
        1.0338983051        0.4449152542
        1.0000000000        0.4025423729
        1.0338983051        0.4025423729
        1.0000000000        0.3601694915
        1.0338983051        0.3601694915
        1.0000000000        0.3177966102
        1.0338983051        0.3177966102
        1.0000000000        0.2754237288
        1.0338983051        0.2754237288
        1.0000000000        0.2330508475
        1.0338983051        0.2330508475
        1.0000000000        0.1906779661
        1.0338983051        0.1906779661
        1.0000000000        0.1483050847
        1.0338983051        0.1483050847
        1.0000000000        0.1059322034
        1.0338983051        0.1059322034
        1.0000000000        0.0635593220
        1.0338983051        0.0635593220
        1.0000000000        0.0211864407
        1.0338983051        0.0211864407
        1.0000000000       -0.0211864407
        1.0338983051       -0.0211864407
        1.0000000000       -0.0635593220
        1.0338983051       -0.0635593220
        1.0000000000       -0.1059322034
        1.0338983051       -0.1059322034
        1.0000000000       -0.1483050847
        1.0338983051       -0.1483050847
        1.0000000000       -0.1906779661
        1.0338983051       -0.1906779661
        1.0000000000       -0.2330508475
        1.0338983051       -0.2330508475
        1.0000000000       -0.2754237288
        1.0338983051       -0.2754237288
        1.0000000000       -0.3177966102
        1.0338983051       -0.3177966102
        1.0000000000       -0.3601694915
        1.0338983051       -0.3601694915
        1.0000000000       -0.4025423729
        1.0338983051       -0.4025423729
        1.0000000000       -0.4449152542
        1.0338983051       -0.4449152542
        1.0000000000       -0.4872881356
        1.0338983051       -0.4872881356
        1.0000000000       -0.5296610169
        1.0338983051       -0.5296610169
        1.0000000000       -0.5720338983
        1.0338983051       -0.5720338983
        1.0000000000       -0.6144067797
        1.0338983051       -0.6144067797
        1.0000000000       -0.6567796610
        1.0338983051       -0.6567796610
        1.0000000000       -0.6991525424
        1.0338983051       -0.6991525424
        1.0000000000       -0.7415254237
        1.0338983051       -0.7415254237
        1.0000000000       -0.7838983051
        1.0338983051       -0.7838983051
        1.0000000000       -0.8262711864
        1.0338983051       -0.8262711864
        1.0000000000       -0.8686440678
        1.0338983051       -0.8686440678
        1.0000000000       -0.9110169492
        1.0338983051       -0.9110169492
        1.0000000000       -0.9533898305
        1.0338983051       -0.9533898305
        1.0000000000       -0.9957627119
        1.0338983051       -0.9957627119
        1.0000000000       -1.0381355932
        1.0338983051       -1.0381355932
        1.0000000000       -1.0805084746
        1.0338983051       -1.0805084746
        1.0000000000       -1.1228813559
        1.0338983051       -1.1228813559
        1.0000000000       -1.1652542373
        1.0338983051       -1.1652542373
        1.0000000000       -1.2076271186
        1.0338983051       -1.2076271186
        1.0677966102        1.2076271186
        1.0677966102        1.2500000000
        1.0677966102        1.1652542373
        1.0677966102        1.1228813559
        1.0677966102        1.0805084746
        1.0677966102        1.0381355932
        1.0677966102        0.9957627119
        1.0677966102        0.9533898305
        1.0677966102        0.9110169492
        1.0677966102        0.8686440678
        1.0677966102        0.8262711864
        1.0677966102        0.7838983051
        1.0677966102        0.7415254237
        1.0677966102        0.6991525424
        1.0677966102        0.6567796610
        1.0677966102        0.6144067797
        1.0677966102        0.5720338983
        1.0677966102        0.5296610169
        1.0677966102        0.4872881356
        1.0677966102        0.4449152542
        1.0677966102        0.4025423729
        1.0677966102        0.3601694915
        1.0677966102        0.3177966102
        1.0677966102        0.2754237288
        1.0677966102        0.2330508475
        1.0677966102        0.1906779661
        1.0677966102        0.1483050847
        1.0677966102        0.1059322034
        1.0677966102        0.0635593220
        1.0677966102        0.0211864407
        1.0677966102       -0.0211864407
        1.0677966102       -0.0635593220
        1.0677966102       -0.1059322034
        1.0677966102       -0.1483050847
        1.0677966102       -0.1906779661
        1.0677966102       -0.2330508475
        1.0677966102       -0.2754237288
        1.0677966102       -0.3177966102
        1.0677966102       -0.3601694915
        1.0677966102       -0.4025423729
        1.0677966102       -0.4449152542
        1.0677966102       -0.4872881356
        1.0677966102       -0.5296610169
        1.0677966102       -0.5720338983
        1.0677966102       -0.6144067797
        1.0677966102       -0.6567796610
        1.0677966102       -0.6991525424
        1.0677966102       -0.7415254237
        1.0677966102       -0.7838983051
        1.0677966102       -0.8262711864
        1.0677966102       -0.8686440678
        1.0677966102       -0.9110169492
        1.0677966102       -0.9533898305
        1.0677966102       -0.9957627119
        1.0677966102       -1.0381355932
        1.0677966102       -1.0805084746
        1.0677966102       -1.1228813559
        1.0677966102       -1.1652542373
        1.0677966102       -1.2076271186
        1.1016949153        1.2076271186
        1.1016949153        1.2500000000
        1.1016949153        1.1652542373
        1.1016949153        1.1228813559
        1.1016949153        1.0805084746
        1.1016949153        1.0381355932
        1.1016949153        0.9957627119
        1.1016949153        0.9533898305
        1.1016949153        0.9110169492
        1.1016949153        0.8686440678
        1.1016949153        0.8262711864
        1.1016949153        0.7838983051
        1.1016949153        0.7415254237
        1.1016949153        0.6991525424
        1.1016949153        0.6567796610
        1.1016949153        0.6144067797
        1.1016949153        0.5720338983
        1.1016949153        0.5296610169
        1.1016949153        0.4872881356
        1.1016949153        0.4449152542
        1.1016949153        0.4025423729
        1.1016949153        0.3601694915
        1.1016949153        0.3177966102
        1.1016949153        0.2754237288
        1.1016949153        0.2330508475
        1.1016949153        0.1906779661
        1.1016949153        0.1483050847
        1.1016949153        0.1059322034
        1.1016949153        0.0635593220
        1.1016949153        0.0211864407
        1.1016949153       -0.0211864407
        1.1016949153       -0.0635593220
        1.1016949153       -0.1059322034
        1.1016949153       -0.1483050847
        1.1016949153       -0.1906779661
        1.1016949153       -0.2330508475
        1.1016949153       -0.2754237288
        1.1016949153       -0.3177966102
        1.1016949153       -0.3601694915
        1.1016949153       -0.4025423729
        1.1016949153       -0.4449152542
        1.1016949153       -0.4872881356
        1.1016949153       -0.5296610169
        1.1016949153       -0.5720338983
        1.1016949153       -0.6144067797
        1.1016949153       -0.6567796610
        1.1016949153       -0.6991525424
        1.1016949153       -0.7415254237
        1.1016949153       -0.7838983051
        1.1016949153       -0.8262711864
        1.1016949153       -0.8686440678
        1.1016949153       -0.9110169492
        1.1016949153       -0.9533898305
        1.1016949153       -0.9957627119
        1.1016949153       -1.0381355932
        1.1016949153       -1.0805084746
        1.1016949153       -1.1228813559
        1.1016949153       -1.1652542373
        1.1016949153       -1.2076271186
        1.1355932203        1.2076271186
        1.1355932203        1.2500000000
        1.1355932203        1.1652542373
        1.1355932203        1.1228813559
        1.1355932203        1.0805084746
        1.1355932203        1.0381355932
        1.1355932203        0.9957627119
        1.1355932203        0.9533898305
        1.1355932203        0.9110169492
        1.1355932203        0.8686440678
        1.1355932203        0.8262711864
        1.1355932203        0.7838983051
        1.1355932203        0.7415254237
        1.1355932203        0.6991525424
        1.1355932203        0.6567796610
        1.1355932203        0.6144067797
        1.1355932203        0.5720338983
        1.1355932203        0.5296610169
        1.1355932203        0.4872881356
        1.1355932203        0.4449152542
        1.1355932203        0.4025423729
        1.1355932203        0.3601694915
        1.1355932203        0.3177966102
        1.1355932203        0.2754237288
        1.1355932203        0.2330508475
        1.1355932203        0.1906779661
        1.1355932203        0.1483050847
        1.1355932203        0.1059322034
        1.1355932203        0.0635593220
        1.1355932203        0.0211864407
        1.1355932203       -0.0211864407
        1.1355932203       -0.0635593220
        1.1355932203       -0.1059322034
        1.1355932203       -0.1483050847
        1.1355932203       -0.1906779661
        1.1355932203       -0.2330508475
        1.1355932203       -0.2754237288
        1.1355932203       -0.3177966102
        1.1355932203       -0.3601694915
        1.1355932203       -0.4025423729
        1.1355932203       -0.4449152542
        1.1355932203       -0.4872881356
        1.1355932203       -0.5296610169
        1.1355932203       -0.5720338983
        1.1355932203       -0.6144067797
        1.1355932203       -0.6567796610
        1.1355932203       -0.6991525424
        1.1355932203       -0.7415254237
        1.1355932203       -0.7838983051
        1.1355932203       -0.8262711864
        1.1355932203       -0.8686440678
        1.1355932203       -0.9110169492
        1.1355932203       -0.9533898305
        1.1355932203       -0.9957627119
        1.1355932203       -1.0381355932
        1.1355932203       -1.0805084746
        1.1355932203       -1.1228813559
        1.1355932203       -1.1652542373
        1.1355932203       -1.2076271186
        1.1694915254        1.2076271186
        1.1694915254        1.2500000000
        1.1694915254        1.1652542373
        1.1694915254        1.1228813559
        1.1694915254        1.0805084746
        1.1694915254        1.0381355932
        1.1694915254        0.9957627119
        1.1694915254        0.9533898305
        1.1694915254        0.9110169492
        1.1694915254        0.8686440678
        1.1694915254        0.8262711864
        1.1694915254        0.7838983051
        1.1694915254        0.7415254237
        1.1694915254        0.6991525424
        1.1694915254        0.6567796610
        1.1694915254        0.6144067797
        1.1694915254        0.5720338983
        1.1694915254        0.5296610169
        1.1694915254        0.4872881356
        1.1694915254        0.4449152542
        1.1694915254        0.4025423729
        1.1694915254        0.3601694915
        1.1694915254        0.3177966102
        1.1694915254        0.2754237288
        1.1694915254        0.2330508475
        1.1694915254        0.1906779661
        1.1694915254        0.1483050847
        1.1694915254        0.1059322034
        1.1694915254        0.0635593220
        1.1694915254        0.0211864407
        1.1694915254       -0.0211864407
        1.1694915254       -0.0635593220
        1.1694915254       -0.1059322034
        1.1694915254       -0.1483050847
        1.1694915254       -0.1906779661
        1.1694915254       -0.2330508475
        1.1694915254       -0.2754237288
        1.1694915254       -0.3177966102
        1.1694915254       -0.3601694915
        1.1694915254       -0.4025423729
        1.1694915254       -0.4449152542
        1.1694915254       -0.4872881356
        1.1694915254       -0.5296610169
        1.1694915254       -0.5720338983
        1.1694915254       -0.6144067797
        1.1694915254       -0.6567796610
        1.1694915254       -0.6991525424
        1.1694915254       -0.7415254237
        1.1694915254       -0.7838983051
        1.1694915254       -0.8262711864
        1.1694915254       -0.8686440678
        1.1694915254       -0.9110169492
        1.1694915254       -0.9533898305
        1.1694915254       -0.9957627119
        1.1694915254       -1.0381355932
        1.1694915254       -1.0805084746
        1.1694915254       -1.1228813559
        1.1694915254       -1.1652542373
        1.1694915254       -1.2076271186
        1.2033898305        1.2076271186
        1.2033898305        1.2500000000
        1.2033898305        1.1652542373
        1.2033898305        1.1228813559
        1.2033898305        1.0805084746
        1.2033898305        1.0381355932
        1.2033898305        0.9957627119
        1.2033898305        0.9533898305
        1.2033898305        0.9110169492
        1.2033898305        0.8686440678
        1.2033898305        0.8262711864
        1.2033898305        0.7838983051
        1.2033898305        0.7415254237
        1.2033898305        0.6991525424
        1.2033898305        0.6567796610
        1.2033898305        0.6144067797
        1.2033898305        0.5720338983
        1.2033898305        0.5296610169
        1.2033898305        0.4872881356
        1.2033898305        0.4449152542
        1.2033898305        0.4025423729
        1.2033898305        0.3601694915
        1.2033898305        0.3177966102
        1.2033898305        0.2754237288
        1.2033898305        0.2330508475
        1.2033898305        0.1906779661
        1.2033898305        0.1483050847
        1.2033898305        0.1059322034
        1.2033898305        0.0635593220
        1.2033898305        0.0211864407
        1.2033898305       -0.0211864407
        1.2033898305       -0.0635593220
        1.2033898305       -0.1059322034
        1.2033898305       -0.1483050847
        1.2033898305       -0.1906779661
        1.2033898305       -0.2330508475
        1.2033898305       -0.2754237288
        1.2033898305       -0.3177966102
        1.2033898305       -0.3601694915
        1.2033898305       -0.4025423729
        1.2033898305       -0.4449152542
        1.2033898305       -0.4872881356
        1.2033898305       -0.5296610169
        1.2033898305       -0.5720338983
        1.2033898305       -0.6144067797
        1.2033898305       -0.6567796610
        1.2033898305       -0.6991525424
        1.2033898305       -0.7415254237
        1.2033898305       -0.7838983051
        1.2033898305       -0.8262711864
        1.2033898305       -0.8686440678
        1.2033898305       -0.9110169492
        1.2033898305       -0.9533898305
        1.2033898305       -0.9957627119
        1.2033898305       -1.0381355932
        1.2033898305       -1.0805084746
        1.2033898305       -1.1228813559
        1.2033898305       -1.1652542373
        1.2033898305       -1.2076271186
        1.2372881356        1.2076271186
        1.2372881356        1.2500000000
        1.2372881356        1.1652542373
        1.2372881356        1.1228813559
        1.2372881356        1.0805084746
        1.2372881356        1.0381355932
        1.2372881356        0.9957627119
        1.2372881356        0.9533898305
        1.2372881356        0.9110169492
        1.2372881356        0.8686440678
        1.2372881356        0.8262711864
        1.2372881356        0.7838983051
        1.2372881356        0.7415254237
        1.2372881356        0.6991525424
        1.2372881356        0.6567796610
        1.2372881356        0.6144067797
        1.2372881356        0.5720338983
        1.2372881356        0.5296610169
        1.2372881356        0.4872881356
        1.2372881356        0.4449152542
        1.2372881356        0.4025423729
        1.2372881356        0.3601694915
        1.2372881356        0.3177966102
        1.2372881356        0.2754237288
        1.2372881356        0.2330508475
        1.2372881356        0.1906779661
        1.2372881356        0.1483050847
        1.2372881356        0.1059322034
        1.2372881356        0.0635593220
        1.2372881356        0.0211864407
        1.2372881356       -0.0211864407
        1.2372881356       -0.0635593220
        1.2372881356       -0.1059322034
        1.2372881356       -0.1483050847
        1.2372881356       -0.1906779661
        1.2372881356       -0.2330508475
        1.2372881356       -0.2754237288
        1.2372881356       -0.3177966102
        1.2372881356       -0.3601694915
        1.2372881356       -0.4025423729
        1.2372881356       -0.4449152542
        1.2372881356       -0.4872881356
        1.2372881356       -0.5296610169
        1.2372881356       -0.5720338983
        1.2372881356       -0.6144067797
        1.2372881356       -0.6567796610
        1.2372881356       -0.6991525424
        1.2372881356       -0.7415254237
        1.2372881356       -0.7838983051
        1.2372881356       -0.8262711864
        1.2372881356       -0.8686440678
        1.2372881356       -0.9110169492
        1.2372881356       -0.9533898305
        1.2372881356       -0.9957627119
        1.2372881356       -1.0381355932
        1.2372881356       -1.0805084746
        1.2372881356       -1.1228813559
        1.2372881356       -1.1652542373
        1.2372881356       -1.2076271186
        1.2711864407        1.2076271186
        1.2711864407        1.2500000000
        1.2711864407        1.1652542373
        1.2711864407        1.1228813559
        1.2711864407        1.0805084746
        1.2711864407        1.0381355932
        1.2711864407        0.9957627119
        1.2711864407        0.9533898305
        1.2711864407        0.9110169492
        1.2711864407        0.8686440678
        1.2711864407        0.8262711864
        1.2711864407        0.7838983051
        1.2711864407        0.7415254237
        1.2711864407        0.6991525424
        1.2711864407        0.6567796610
        1.2711864407        0.6144067797
        1.2711864407        0.5720338983
        1.2711864407        0.5296610169
        1.2711864407        0.4872881356
        1.2711864407        0.4449152542
        1.2711864407        0.4025423729
        1.2711864407        0.3601694915
        1.2711864407        0.3177966102
        1.2711864407        0.2754237288
        1.2711864407        0.2330508475
        1.2711864407        0.1906779661
        1.2711864407        0.1483050847
        1.2711864407        0.1059322034
        1.2711864407        0.0635593220
        1.2711864407        0.0211864407
        1.2711864407       -0.0211864407
        1.2711864407       -0.0635593220
        1.2711864407       -0.1059322034
        1.2711864407       -0.1483050847
        1.2711864407       -0.1906779661
        1.2711864407       -0.2330508475
        1.2711864407       -0.2754237288
        1.2711864407       -0.3177966102
        1.2711864407       -0.3601694915
        1.2711864407       -0.4025423729
        1.2711864407       -0.4449152542
        1.2711864407       -0.4872881356
        1.2711864407       -0.5296610169
        1.2711864407       -0.5720338983
        1.2711864407       -0.6144067797
        1.2711864407       -0.6567796610
        1.2711864407       -0.6991525424
        1.2711864407       -0.7415254237
        1.2711864407       -0.7838983051
        1.2711864407       -0.8262711864
        1.2711864407       -0.8686440678
        1.2711864407       -0.9110169492
        1.2711864407       -0.9533898305
        1.2711864407       -0.9957627119
        1.2711864407       -1.0381355932
        1.2711864407       -1.0805084746
        1.2711864407       -1.1228813559
        1.2711864407       -1.1652542373
        1.2711864407       -1.2076271186
        1.3050847458        1.2076271186
        1.3050847458        1.2500000000
        1.3050847458        1.1652542373
        1.3050847458        1.1228813559
        1.3050847458        1.0805084746
        1.3050847458        1.0381355932
        1.3050847458        0.9957627119
        1.3050847458        0.9533898305
        1.3050847458        0.9110169492
        1.3050847458        0.8686440678
        1.3050847458        0.8262711864
        1.3050847458        0.7838983051
        1.3050847458        0.7415254237
        1.3050847458        0.6991525424
        1.3050847458        0.6567796610
        1.3050847458        0.6144067797
        1.3050847458        0.5720338983
        1.3050847458        0.5296610169
        1.3050847458        0.4872881356
        1.3050847458        0.4449152542
        1.3050847458        0.4025423729
        1.3050847458        0.3601694915
        1.3050847458        0.3177966102
        1.3050847458        0.2754237288
        1.3050847458        0.2330508475
        1.3050847458        0.1906779661
        1.3050847458        0.1483050847
        1.3050847458        0.1059322034
        1.3050847458        0.0635593220
        1.3050847458        0.0211864407
        1.3050847458       -0.0211864407
        1.3050847458       -0.0635593220
        1.3050847458       -0.1059322034
        1.3050847458       -0.1483050847
        1.3050847458       -0.1906779661
        1.3050847458       -0.2330508475
        1.3050847458       -0.2754237288
        1.3050847458       -0.3177966102
        1.3050847458       -0.3601694915
        1.3050847458       -0.4025423729
        1.3050847458       -0.4449152542
        1.3050847458       -0.4872881356
        1.3050847458       -0.5296610169
        1.3050847458       -0.5720338983
        1.3050847458       -0.6144067797
        1.3050847458       -0.6567796610
        1.3050847458       -0.6991525424
        1.3050847458       -0.7415254237
        1.3050847458       -0.7838983051
        1.3050847458       -0.8262711864
        1.3050847458       -0.8686440678
        1.3050847458       -0.9110169492
        1.3050847458       -0.9533898305
        1.3050847458       -0.9957627119
        1.3050847458       -1.0381355932
        1.3050847458       -1.0805084746
        1.3050847458       -1.1228813559
        1.3050847458       -1.1652542373
        1.3050847458       -1.2076271186
        1.3389830508        1.2076271186
        1.3389830508        1.2500000000
        1.3389830508        1.1652542373
        1.3389830508        1.1228813559
        1.3389830508        1.0805084746
        1.3389830508        1.0381355932
        1.3389830508        0.9957627119
        1.3389830508        0.9533898305
        1.3389830508        0.9110169492
        1.3389830508        0.8686440678
        1.3389830508        0.8262711864
        1.3389830508        0.7838983051
        1.3389830508        0.7415254237
        1.3389830508        0.6991525424
        1.3389830508        0.6567796610
        1.3389830508        0.6144067797
        1.3389830508        0.5720338983
        1.3389830508        0.5296610169
        1.3389830508        0.4872881356
        1.3389830508        0.4449152542
        1.3389830508        0.4025423729
        1.3389830508        0.3601694915
        1.3389830508        0.3177966102
        1.3389830508        0.2754237288
        1.3389830508        0.2330508475
        1.3389830508        0.1906779661
        1.3389830508        0.1483050847
        1.3389830508        0.1059322034
        1.3389830508        0.0635593220
        1.3389830508        0.0211864407
        1.3389830508       -0.0211864407
        1.3389830508       -0.0635593220
        1.3389830508       -0.1059322034
        1.3389830508       -0.1483050847
        1.3389830508       -0.1906779661
        1.3389830508       -0.2330508475
        1.3389830508       -0.2754237288
        1.3389830508       -0.3177966102
        1.3389830508       -0.3601694915
        1.3389830508       -0.4025423729
        1.3389830508       -0.4449152542
        1.3389830508       -0.4872881356
        1.3389830508       -0.5296610169
        1.3389830508       -0.5720338983
        1.3389830508       -0.6144067797
        1.3389830508       -0.6567796610
        1.3389830508       -0.6991525424
        1.3389830508       -0.7415254237
        1.3389830508       -0.7838983051
        1.3389830508       -0.8262711864
        1.3389830508       -0.8686440678
        1.3389830508       -0.9110169492
        1.3389830508       -0.9533898305
        1.3389830508       -0.9957627119
        1.3389830508       -1.0381355932
        1.3389830508       -1.0805084746
        1.3389830508       -1.1228813559
        1.3389830508       -1.1652542373
        1.3389830508       -1.2076271186
        1.3728813559        1.2076271186
        1.3728813559        1.2500000000
        1.3728813559        1.1652542373
        1.3728813559        1.1228813559
        1.3728813559        1.0805084746
        1.3728813559        1.0381355932
        1.3728813559        0.9957627119
        1.3728813559        0.9533898305
        1.3728813559        0.9110169492
        1.3728813559        0.8686440678
        1.3728813559        0.8262711864
        1.3728813559        0.7838983051
        1.3728813559        0.7415254237
        1.3728813559        0.6991525424
        1.3728813559        0.6567796610
        1.3728813559        0.6144067797
        1.3728813559        0.5720338983
        1.3728813559        0.5296610169
        1.3728813559        0.4872881356
        1.3728813559        0.4449152542
        1.3728813559        0.4025423729
        1.3728813559        0.3601694915
        1.3728813559        0.3177966102
        1.3728813559        0.2754237288
        1.3728813559        0.2330508475
        1.3728813559        0.1906779661
        1.3728813559        0.1483050847
        1.3728813559        0.1059322034
        1.3728813559        0.0635593220
        1.3728813559        0.0211864407
        1.3728813559       -0.0211864407
        1.3728813559       -0.0635593220
        1.3728813559       -0.1059322034
        1.3728813559       -0.1483050847
        1.3728813559       -0.1906779661
        1.3728813559       -0.2330508475
        1.3728813559       -0.2754237288
        1.3728813559       -0.3177966102
        1.3728813559       -0.3601694915
        1.3728813559       -0.4025423729
        1.3728813559       -0.4449152542
        1.3728813559       -0.4872881356
        1.3728813559       -0.5296610169
        1.3728813559       -0.5720338983
        1.3728813559       -0.6144067797
        1.3728813559       -0.6567796610
        1.3728813559       -0.6991525424
        1.3728813559       -0.7415254237
        1.3728813559       -0.7838983051
        1.3728813559       -0.8262711864
        1.3728813559       -0.8686440678
        1.3728813559       -0.9110169492
        1.3728813559       -0.9533898305
        1.3728813559       -0.9957627119
        1.3728813559       -1.0381355932
        1.3728813559       -1.0805084746
        1.3728813559       -1.1228813559
        1.3728813559       -1.1652542373
        1.3728813559       -1.2076271186
        1.4067796610        1.2076271186
        1.4067796610        1.2500000000
        1.4067796610        1.1652542373
        1.4067796610        1.1228813559
        1.4067796610        1.0805084746
        1.4067796610        1.0381355932
        1.4067796610        0.9957627119
        1.4067796610        0.9533898305
        1.4067796610        0.9110169492
        1.4067796610        0.8686440678
        1.4067796610        0.8262711864
        1.4067796610        0.7838983051
        1.4067796610        0.7415254237
        1.4067796610        0.6991525424
        1.4067796610        0.6567796610
        1.4067796610        0.6144067797
        1.4067796610        0.5720338983
        1.4067796610        0.5296610169
        1.4067796610        0.4872881356
        1.4067796610        0.4449152542
        1.4067796610        0.4025423729