 VARIABLES = "X",  "Y"
 ZONE N=         601 , E=        1098 , F=FEPOINT, ET=TRIANGLE
        0.0000000000        0.0000000000
       -0.1500000000        0.0000000000
        0.0000000000        0.0510500000
       -0.1500000000        0.0510500000
       -0.0039473684        0.0000000000
       -0.0078947368        0.0000000000
       -0.0118421053        0.0000000000
       -0.0157894737        0.0000000000
       -0.0197368421        0.0000000000
       -0.0236842105        0.0000000000
       -0.0276315789        0.0000000000
       -0.0315789474        0.0000000000
       -0.0355263158        0.0000000000
       -0.0394736842        0.0000000000
       -0.0434210526        0.0000000000
       -0.0473684211        0.0000000000
       -0.0513157895        0.0000000000
       -0.0552631579        0.0000000000
       -0.0592105263        0.0000000000
       -0.0631578947        0.0000000000
       -0.0671052632        0.0000000000
       -0.0710526316        0.0000000000
       -0.0750000000        0.0000000000
       -0.0789473684        0.0000000000
       -0.0828947368        0.0000000000
       -0.0868421053        0.0000000000
       -0.0907894737        0.0000000000
       -0.0947368421        0.0000000000
       -0.0986842105        0.0000000000
       -0.1026315789        0.0000000000
       -0.1065789474        0.0000000000
       -0.1105263158        0.0000000000
       -0.1144736842        0.0000000000
       -0.1184210526        0.0000000000
       -0.1223684211        0.0000000000
       -0.1263157895        0.0000000000
       -0.1302631579        0.0000000000
       -0.1342105263        0.0000000000
       -0.1381578947        0.0000000000
       -0.1421052632        0.0000000000
       -0.1460526316        0.0000000000
        0.0000000000        0.0471230769
        0.0000000000        0.0431961538
        0.0000000000        0.0392692308
        0.0000000000        0.0353423077
        0.0000000000        0.0314153846
        0.0000000000        0.0274884615
        0.0000000000        0.0235615385
        0.0000000000        0.0196346154
        0.0000000000        0.0157076923
        0.0000000000        0.0117807692
        0.0000000000        0.0078538462
        0.0000000000        0.0039269231
       -0.1460526316        0.0510500000
       -0.1421052632        0.0510500000
       -0.1381578947        0.0510500000
       -0.1342105263        0.0510500000
       -0.1302631579        0.0510500000
       -0.1263157895        0.0510500000
       -0.1223684211        0.0510500000
       -0.1184210526        0.0510500000
       -0.1144736842        0.0510500000
       -0.1105263158        0.0510500000
       -0.1065789474        0.0510500000
       -0.1026315789        0.0510500000
       -0.0986842105        0.0510500000
       -0.0947368421        0.0510500000
       -0.0907894737        0.0510500000
       -0.0868421053        0.0510500000
       -0.0828947368        0.0510500000
       -0.0789473684        0.0510500000
       -0.0750000000        0.0510500000
       -0.0710526316        0.0510500000
       -0.0671052632        0.0510500000
       -0.0631578947        0.0510500000
       -0.0592105263        0.0510500000
       -0.0552631579        0.0510500000
       -0.0513157895        0.0510500000
       -0.0473684211        0.0510500000
       -0.0434210526        0.0510500000
       -0.0394736842        0.0510500000
       -0.0355263158        0.0510500000
       -0.0315789474        0.0510500000
       -0.0276315789        0.0510500000
       -0.0236842105        0.0510500000
       -0.0197368421        0.0510500000
       -0.0157894737        0.0510500000
       -0.0118421053        0.0510500000
       -0.0078947368        0.0510500000
       -0.0039473684        0.0510500000
       -0.1500000000        0.0039269231
       -0.1500000000        0.0078538462
       -0.1500000000        0.0117807692
       -0.1500000000        0.0157076923
       -0.1500000000        0.0196346154
       -0.1500000000        0.0235615385
       -0.1500000000        0.0274884615
       -0.1500000000        0.0314153846
       -0.1500000000        0.0353423077
       -0.1500000000        0.0392692308
       -0.1500000000        0.0431961538
       -0.1500000000        0.0471230769
       -0.0102970737        0.0484107440
       -0.1027218488        0.0021702762
       -0.0649492951        0.0023185784
       -0.1064726814        0.0040782204
       -0.1104896755        0.0021674860
       -0.1099299783        0.0065994158
       -0.1135515018        0.0041996894
       -0.1164254512        0.0029024194
       -0.1131280186        0.0089113650
       -0.1192547581        0.0042100705
       -0.1163677274        0.0067691086
       -0.1163159743        0.0111614349
       -0.1195545917        0.0089223570
       -0.1224145812        0.0021669744
       -0.1228172946        0.0066108146
       -0.1196215415        0.0133094885
       -0.1229601748        0.0111284415
       -0.1263412796        0.0040719019
       -0.1263779582        0.0088579213
       -0.1229989232        0.0154196862
       -0.1263893520        0.0174939593
       -0.1263911223        0.0132943039
       -0.1302071089        0.0021480292
       -0.1299276759        0.0065759270
       -0.1298296142        0.0111073485
       -0.1335240986        0.0041102734
       -0.1332901796        0.0088377114
       -0.1332048726        0.0132835432
       -0.1297911007        0.0154190428
       -0.1297712130        0.0195366559
       -0.1331447693        0.0215539094
       -0.1331653005        0.0174991075
       -0.1465564245        0.0046402959
       -0.1437232711        0.0027564265
       -0.1364716205        0.0026461752
       -0.1400848831        0.0033376895
       -0.1433797056        0.0066948969
       -0.1466217558        0.0092871752
       -0.1366598279        0.0065078927
       -0.1399938283        0.0087353214
       -0.1433036105        0.0112071978
       -0.1366055217        0.0110713649
       -0.1399390891        0.0132863862
       -0.1466185529        0.0135159980
       -0.1466094160        0.0215663018
       -0.1466144272        0.0175841737
       -0.1432737973        0.0154782990
       -0.1365573046        0.0154148252
       -0.1432610724        0.0195641025
       -0.1399081461        0.0175103403
       -0.1365295291        0.0195446943
       -0.1365148361        0.0235529591
       -0.1398918342        0.0215617300
       -0.1398843724        0.0255387724
       -0.1432548379        0.0235518946
       -0.1466199973        0.0255229170
       -0.1432549578        0.0275136682
       -0.1466283796        0.0294740341
       -0.0828310051        0.0021819640
       -0.0825677061        0.0065476559
       -0.0963783175        0.0484461481
       -0.1161642451        0.0484189903
       -0.0417486483        0.0027203103
       -0.0789583250        0.0040985555
       -0.0749942551        0.0022209215
       -0.0682430530        0.0031549228
       -0.0716713191        0.0043435190
       -0.0453712292        0.0033536519
       -0.0490080753        0.0027193731
       -0.0790063415        0.0088099824
       -0.0419617860        0.0064338531
       -0.0621425066        0.0031156223
       -0.0552715564        0.0022624964
       -0.0519046650        0.0041759952
       -0.0753816891        0.0066318493
       -0.0755629054        0.0110797449
       -0.0621003214        0.0071282914
       -0.0652572098        0.0055036185
       -0.0685780586        0.0071345892
       -0.0720419271        0.0089975441
       -0.0722041386        0.0132699903
       -0.0756654191        0.0193699132
       -0.0621222317        0.0112653628
       -0.0653989680        0.0093155173
       -0.0687756192        0.0112781225
       -0.0688675449        0.0153657773
       -0.0354647694        0.0022127477
       -0.0105308118        0.0453281548
       -0.0068207908        0.0479359153
       -0.0654817671        0.0133574575
       -0.0655177167        0.0173773108
       -0.0588622179        0.0466417977
       -0.0621437507        0.0153457389
       -0.0587404299        0.0292184865
       -0.0621279376        0.0272470442
       -0.0621491093        0.0193491399
       -0.0588459998        0.0043732306
       -0.0587757896        0.0089864967
       -0.0553723138        0.0066387968
       -0.0553986198        0.0110386324
       -0.0587751925        0.0132360053
       -0.0587755966        0.0173203367
       -0.0587684175        0.0213101220
       -0.0030936612        0.0294074955
       -0.0070318456        0.0272995722
       -0.0030951122        0.0254713218
       -0.0487160792        0.0064536764
       -0.0520168180        0.0087641679
       -0.0520284782        0.0131013924
       -0.0554015754        0.0152411521
       -0.0587558923        0.0252597946
       -0.0553825264        0.0232693316
       -0.0553945520        0.0192956903
       -0.0520214400        0.0172485041
       -0.0520091289        0.0212679844
       -0.0519950146        0.0252286702
       -0.0419347615        0.0108628422
       -0.0453236835        0.0085523664
       -0.0486715843        0.0108915467
       -0.0452913291        0.0130140827
       -0.0486529501        0.0151576319
       -0.0486371070        0.0192472800
       -0.0283242134        0.0231668443
       -0.0317042196        0.0251563518
       -0.0030967907        0.0215333138
       -0.0030892775        0.0333579517
       -0.0070167984        0.0312496908
       -0.0553681335        0.0272212463
       -0.0519803765        0.0291904215
       -0.0486078840        0.0271899698
       -0.0486220149        0.0232352668
       -0.0387974396        0.0041413032
       -0.0385997069        0.0086983626
       -0.0352205156        0.0065055538
       -0.0419016511        0.0151281504
       -0.0385358086        0.0130336920
       -0.0351485396        0.0109049272
       -0.0317169739        0.0211936846
       -0.0283331220        0.0191891931
       -0.0385061334        0.0171874826
       -0.0351098303        0.0192044870
       -0.0452679449        0.0171999268
       -0.0452497404        0.0212339678
       -0.0452347365        0.0251990861
       -0.0485956715        0.0311695415
       -0.0452235676        0.0291586984
       -0.0418784013        0.0192193636
       -0.0418612115        0.0232088696
       -0.0418486346        0.0271653325
       -0.0384871278        0.0212125987
       -0.0350959769        0.0231882611
       -0.0384725892        0.0251773021
       -0.0384634181        0.0291448349
       -0.0350830291        0.0271482083
       -0.0316882715        0.0291299810
       -0.0031039382        0.0175757505
       -0.0108259040        0.0291699072
       -0.0351246414        0.0151314995
       -0.0317236185        0.0171782134
       -0.0317169072        0.0130419059
       -0.0283258168        0.0151296002
       -0.0249457371        0.0171708649
       -0.0276675007        0.0022262348
       -0.0316202526        0.0040965008
       -0.0316851445        0.0087159463
       -0.0282755881        0.0109234833
       -0.0249329015        0.0130576872
       -0.0215617604        0.0151345242
       -0.0215384804        0.0191811564
       -0.0249381586        0.0211762856
       -0.0249220580        0.0251334532
       -0.0032472819        0.0461961906
       -0.0069152645        0.0435681840
       -0.0215185926        0.0231527085
       -0.0214952799        0.0271024032
       -0.0281109951        0.0065369623
       -0.0248540907        0.0087812467
       -0.0033813388        0.0048661078
       -0.0245416361        0.0042351642
       -0.0031908937        0.0094302288
       -0.0215937257        0.0109650434
       -0.0216839509        0.0029869561
       -0.0216371439        0.0067056734
       -0.0076322064        0.0024011394
       -0.0156882118        0.0022538558
       -0.0114923669        0.0042118649
       -0.0073579086        0.0068479691
       -0.0187723575        0.0042438791
       -0.0150476970        0.0065854575
       -0.0111595555        0.0088601650
       -0.0031270123        0.0135668727
       -0.0071813142        0.0112242125
       -0.0183414944        0.0087945940
       -0.0147442296        0.0109723274
       -0.0109841998        0.0131671438
       -0.0070961393        0.0153773133
       -0.0070593156        0.0193994953
       -0.0070429351        0.0233594541
       -0.0108466676        0.0252255399
       -0.0108670891        0.0212754574
       -0.0181782934        0.0130686991
       -0.0109034022        0.0172767790
       -0.0146097500        0.0151684550
       -0.0181082750        0.0171781710
       -0.0145505260        0.0192188662
       -0.0180735970        0.0211805532
       -0.0145207047        0.0231894908
       -0.0180493502        0.0251331061
       -0.0144970560        0.0271336014
       -0.0180201113        0.0290840930
       -0.0030926054        0.0414823560
       -0.0030824114        0.0373520696
       -0.0069908151        0.0352420801
       -0.0107920189        0.0331438920
       -0.0144635457        0.0310927763
       -0.0214571467        0.0310811805
       -0.0179687443        0.0330779783
       -0.0144026777        0.0351055085
       -0.0069527733        0.0393248919
       -0.0107326685        0.0371827525
       -0.0106416893        0.0413007659
       -0.0142953882        0.0392052256
       -0.0178710779        0.0371564905
       -0.0213835836        0.0351458953
       -0.0283072037        0.0271248102
       -0.0248961690        0.0290987359
       -0.0276448444        0.0489194011
       -0.0282803002        0.0311267376
       -0.0248489355        0.0331355109
       -0.0247559285        0.0373260826
       -0.0141344239        0.0434316974
       -0.0176983291        0.0413246111
       -0.0212427876        0.0393525722
       -0.0139997978        0.0474217861
       -0.0174780469        0.0483608948
       -0.0174171444        0.0453933408
       -0.0207043938        0.0479463825
       -0.0210010962        0.0437044850
       -0.0242174497        0.0467217252
       -0.0245743630        0.0417755638
       -0.0279745155        0.0442745731
       -0.0281444902        0.0396110647
       -0.0282331259        0.0352544477
       -0.0316692772        0.0331884503
       -0.0350741941        0.0311501066
       -0.0350778426        0.0352762671
       -0.0454043414        0.0484924465
       -0.0384674005        0.0331818799
       -0.0418442970        0.0311485664
       -0.0316464058        0.0374302340
       -0.0452202710        0.0331686947
       -0.0418594560        0.0352197326
       -0.0355071915        0.0489146933
       -0.0315929102        0.0469601570
       -0.0316200143        0.0419703359
       -0.0351140389        0.0396287137
       -0.0385044050        0.0373705622
       -0.0423404296        0.0479807666
       -0.0484105384        0.0479789480
       -0.0352281691        0.0442830208
       -0.0389268230        0.0467296865
       -0.0386197380        0.0418111886
       -0.0420608993        0.0437749958
       -0.0453311585        0.0455334177
       -0.0419175933        0.0394322229
       -0.0452687977        0.0414799343
       -0.0485342444        0.0437656603
       -0.0621420736        0.0233032972
       -0.0552743232        0.0488322997
       -0.0517442103        0.0466810625
       -0.0553048618        0.0441786421
       -0.0519019388        0.0417864245
       -0.0452324836        0.0372781956
       -0.0485741487        0.0394336292
       -0.0485860675        0.0352330600
       -0.0722674540        0.0173658078
       -0.0722828910        0.0213603991
       -0.0688990759        0.0193730495
       -0.0655241701        0.0213454087
       -0.0655150605        0.0252871587
       -0.0621087325        0.0312238359
       -0.0654963640        0.0292394929
       -0.0519458328        0.0373787289
       -0.0756645471        0.0233476939
       -0.0689003519        0.0233288115
       -0.0722760418        0.0253123663
       -0.0688863225        0.0272733471
       -0.0722558403        0.0292738402
       -0.0620849396        0.0352860746
       -0.0688588035        0.0312509463
       -0.0654661779        0.0332458980
       -0.0654163535        0.0373484832
       -0.0756406332        0.0153059121
       -0.0790415445        0.0131869364
       -0.0861608208        0.0041253479
       -0.0859479850        0.0087696269
       -0.0824865671        0.0110147431
       -0.0824611294        0.0152823581
       -0.0790556271        0.0173468787
       -0.0790538142        0.0213716182
       -0.0756511420        0.0273041652
       -0.0790283259        0.0293116045
       -0.0790432838        0.0253374391
       -0.0891105720        0.0026778132
       -0.0893154727        0.0064635980
       -0.0892800920        0.0109626371
       -0.0824471630        0.0193754964
       -0.0858772222        0.0131619706
       -0.0858255051        0.0213885237
       -0.0858450812        0.0173477482
       -0.0927296540        0.0033240844
       -0.0926737084        0.0086146397
       -0.0926347034        0.0131359689
       -0.0892422740        0.0152728955
       -0.0892171756        0.0193880777
       -0.0519652405        0.0332146319
       -0.0553526292        0.0312078928
       -0.0587237477        0.0332421872
       -0.0553366973        0.0352997930
       -0.0553210640        0.0395913314
       -0.0587111698        0.0374052823
       -0.0587262409        0.0418057165
       -0.0620635294        0.0394849934
       -0.0620827295        0.0438323926
       -0.0622707555        0.0476410292
       -0.0651399917        0.0483964281
       -0.0653338556        0.0415340295
       -0.0651821575        0.0455398645
       -0.0681881115        0.0479495402
       -0.0716287131        0.0467267923
       -0.0685108462        0.0438061872
       -0.0687063581        0.0395053620
       -0.0688072430        0.0353133442
       -0.0721409861        0.0374728398
       -0.0719807300        0.0418745251
       -0.0824341129        0.0233682170
       -0.0722175389        0.0333028540
       -0.0756274863        0.0313012103
       -0.0755858932        0.0354145438
       -0.0891109901        0.0484411803
       -0.0892907536        0.0445372871
       -0.0861582135        0.0469585432
       -0.0828547597        0.0489347818
       -0.0964021862        0.0026648266
       -0.0960764256        0.0064734691
       -0.0960235236        0.0109786304
       -0.0959968032        0.0152938340
       -0.0993060479        0.0041218011
       -0.0993949041        0.0087920644
       -0.0993886166        0.0131974103
       -0.1028496575        0.0065453826
       -0.1028081991        0.0110514039
       -0.1027702084        0.0153392880
       -0.1027414815        0.0194447009
       -0.1063333593        0.0088110291
       -0.1062034268        0.0132391824
       -0.1061444913        0.0174267625
       -0.1061132985        0.0214668409
       -0.1027218831        0.0234434737
       -0.0750193862        0.0488955940
       -0.0789470431        0.0469788572
       -0.0926075846        0.0173568070
       -0.0993673833        0.0173921367
       -0.0993488268        0.0214376570
       -0.0959765903        0.0194119743
       -0.0959604920        0.0234159203
       -0.0753456256        0.0443318387
       -0.0755061219        0.0397359178
       -0.0789634614        0.0420884945
       -0.0790099840        0.0333669132
       -0.0789877561        0.0375937273
       -0.0925881610        0.0214093404
       -0.0891996206        0.0233907002
       -0.0858108561        0.0253628075
       -0.0824213378        0.0273338497
       -0.0824115648        0.0313436159
       -0.0825440666        0.0444338336
       -0.0824116220        0.0354807999
       -0.0824391934        0.0398339692
       -0.0925734611        0.0253882494
       -0.0891871786        0.0273620169
       -0.0859112636        0.0421552817
       -0.0858279084        0.0376578032
       -0.0858010557        0.0293444707
       -0.0858019560        0.0334123918
       -0.0892343943        0.0399200109
       -0.0891943959        0.0355337796
       -0.0927261632        0.0477717122
       -0.0960355518        0.0445403239
       -0.0926335676        0.0423365312
       -0.1026370772        0.0489070796
       -0.0992281050        0.0469399152
       -0.0993336942        0.0254138268
       -0.0959476146        0.0273874262
       -0.0891825941        0.0313796563
       -0.1060939345        0.0254404466
       -0.1027064096        0.0274117721
       -0.1060770941        0.0294204287
       -0.1026919996        0.0314222522
       -0.1060567887        0.0469368037
       -0.0925638014        0.0293735389
       -0.0925639880        0.0334495770
       -0.0993210732        0.0293954020
       -0.0959396209        0.0314040047
       -0.0925834009        0.0377223343
       -0.0959417307        0.0355547116
       -0.0993119601        0.0334603581
       -0.0959637280        0.0399335441
       -0.0993085231        0.0376963190
       -0.1060576123        0.0334829503
       -0.1026776888        0.0355558228
       -0.0993058050        0.0421725413
       -0.1026496540        0.0444451839
       -0.1026634872        0.0398913885
       -0.1060325111        0.0377140633
       -0.1060070446        0.0421818633
       -0.1088993553        0.0484340756
       -0.1125541348        0.0477604936
       -0.1092633970        0.0445482964
       -0.1096954633        0.0110820700
       -0.1095601165        0.0153753915
       -0.1095085163        0.0194749697
       -0.1094826694        0.0234709733
       -0.1094643619        0.0274389688
       -0.1094437852        0.0314520509
       -0.1129881729        0.0132749618
       -0.1129018168        0.0174592684
       -0.1128705870        0.0214946513
       -0.1128516477        0.0254671825
       -0.1128327142        0.0294484574
       -0.1162945127        0.0153999997
       -0.1162528995        0.0195022559
       -0.1162367852        0.0234967001
       -0.1162211820        0.0274640877
       -0.1161986651        0.0314760604
       -0.1128045955        0.0335176195
       -0.1094132780        0.0355959189
       -0.1093629056        0.0399617441
       -0.1126782551        0.0423650542
       -0.1160079234        0.0445566368
       -0.1191287120        0.0469515348
       -0.1224155429        0.0489132236
       -0.1127569795        0.0377761694
       -0.1160914695        0.0399788161
       -0.1193996898        0.0422099777
       -0.1227489684        0.0444779256
       -0.1263234388        0.0469946098
       -0.1196421479        0.0174723502
       -0.1196182493        0.0215182763
       -0.1196073806        0.0254909663
       -0.1195914970        0.0294693611
       -0.1161592893        0.0356174961
       -0.1195638391        0.0335279933
       -0.1230139701        0.0195126036
       -0.1229914097        0.0235191540
       -0.1229808729        0.0274859889
       -0.1229650211        0.0314915595
       -0.1195102250        0.0377520748
       -0.1229371818        0.0356146787
       -0.1263909586        0.0215303390
       -0.1263669513        0.0255134001
       -0.1263579245        0.0294902606
       -0.1263487513        0.0335419319
       -0.1228807028        0.0399356008
       -0.1263310346        0.0422012526
       -0.1263395694        0.0377522701
       -0.1302291928        0.0489082012
       -0.1299055091        0.0444804677
       -0.1297660382        0.0235328811
       -0.1297438218        0.0275086852
       -0.1297413405        0.0315134647
       -0.1297507352        0.0356330124
       -0.1297894007        0.0399472578
       -0.1331394375        0.0255272259
       -0.1331229544        0.0295128909
       -0.1331321964        0.0335664461
       -0.1335163052        0.0469404276
       -0.1332613780        0.0422195068
       -0.1331677735        0.0377789311
       -0.1364798470        0.0483863379
       -0.1366452992        0.0445413393
       -0.1365127946        0.0275195839
       -0.1365044343        0.0315326812
       -0.1365261575        0.0356577052
       -0.1365770764        0.0399918894
       -0.1465982491        0.0463487170
       -0.1437433780        0.0482552295
       -0.1398870380        0.0295128339
       -0.1398870793        0.0335663291
       -0.1399187197        0.0377807988
       -0.1400893542        0.0476896931
       -0.1399819974        0.0423157164
       -0.1433918160        0.0443328477
       -0.1432624852        0.0315000930
       -0.1432684197        0.0355839670
       -0.1433053236        0.0398412475
       -0.1466387599        0.0334561651
       -0.1466569653        0.0417332777
       -0.1466421170        0.0375195440
 
         2        41        91
        91        41       135
       135        41       136
        91       135        92
        41        40       136
       136       139       135
       135       140        92
        40       138       136
       139       140       135
       136       138       139
        92       140        93
        40        39       138
       139       143       140
       139       138       142
       140       146        93
       138        39       137
       143       146       140
       142       143       139
       138       141       142
        93       146        94
        39        38       137
       138       137       141
       146       143       149
       143       142       145
       142       141       144
        94       146       148
        38       128       137
       137       128       141
       143       145       149
       146       149       148
       142       144       145
       141       129       144
        94       148        95
        38       125       128
       128       129       141
       145       152       149
       149       151       148
       145       144       150
       129       130       144
        95       148       147
       125       126       128
        38        37       125
       128       126       129
       149       152       151
       150       152       145
       148       151       147
       150       144       130
       130       129       127
        95       147        96
       126       125       120
        37        36       125
       126       127       129
       155       151       152
       152       150       153
       151       157       147
       150       130       134
       130       127       131
       147       158        96
       125        36       120
       126       120       121
       121       127       126
       153       155       152
       155       157       151
       153       150       134
       157       158       147
       130       131       134
       124       131       127
        96       158        97
       120        36       116
       121       120       117
       124       127       121
       155       153       154
       155       156       157
       153       134       133
       157       159       158
       134       131       132
       123       131       124
       158       160        97
       116        36        35
       120       116       117
       121       117       119
       124       121       119
       153       133       154
       155       154       156
       157       156       159
       132       133       134
       159       160       158
       132       131       123
       124       122       123
        97       160        98
       116        35        34
       117       116       112
       119       117       115
       124       119       122
       133       576       154
       154       584       156
       156       590       159
       571       133       132
       159       596       160
       132       123       562
       122       556       123
       160       599        98
       112       116        34
       117       112       115
       119       115       118
       118       122       119
       576       584       154
       571       576       133
       584       590       156
       590       596       159
       132       562       571
       596       599       160
       123       556       562
       556       122       550
        98       599        99
       112        34       110
       115       112       113
       114       118       115
       550       122       118
       584       576       577
       576       571       572
       584       585       590
       591       596       590
       571       562       563
       597       599       596
       562       556       557
       556       550       551
       599       601        99
       110        34        33
       113       112       110
       115       113       114
       533       118       114
       550       118       533
       576       572       577
       584       577       585
       571       563       572
       590       585       591
       596       591       597
       557       563       562
       599       597       601
       551       557       556
       534       551       550
        99       601       100
       110        33       109
       109       113       110
       111       114       113
       533       114       528
       550       533       534
       572       573       577
       577       578       585
       563       564       572
       585       586       591
       591       592       597
       558       563       557
       597       598       601
       552       557       551
       535       551       534
       100       601       600
       109        33       107
       111       113       109
       528       114       111
       533       528       529
       529       534       533
       577       573       578
       564       573       572
       585       578       586
       564       563       558
       591       586       592
       597       592       598
       557       552       558