TITLE = "Visualization of the volumetric solution"
VARIABLES = "x","y","Density","Momentum_x","Momentum_y","Energy","Pressure","Temperature","Mach","C<sub>p</sub>","Roe_Dissipation"
ZONE NODES= 77, ELEMENTS= 110, DATAPACKING=POINT, ZONETYPE=FEQUADRILATERAL
1.000000e+00	-5.235967e-02	1.225044e+00	4.165342e+01	3.644208e+00	2.540136e+05	1.013200e+05	2.881202e+02	1.003042e-01	-7.048417e-03	0.000000e+00	
1.086988e+00	-4.721092e-02	1.225044e+00	4.165342e+01	3.644211e+00	2.540136e+05	1.013200e+05	2.881203e+02	1.003042e-01	-7.050039e-03	0.000000e+00	
1.179383e+00	-5.878889e-02	1.225044e+00	4.165342e+01	3.644208e+00	2.540136e+05	1.013200e+05	2.881203e+02	1.003042e-01	-7.051116e-03	0.000000e+00	
1.000000e+00	5.235967e-02	1.225044e+00	4.165340e+01	3.644206e+00	2.540136e+05	1.013200e+05	2.881203e+02	1.003041e-01	-7.052432e-03	0.000000e+00	
1.137515e+00	5.996090e-02	1.225044e+00	4.165341e+01	3.644211e+00	2.540136e+05	1.013200e+05	2.881203e+02	1.003041e-01	-7.050743e-03	0.000000e+00	
1.291288e+00	-6.023656e-02	1.225044e+00	4.165341e+01	3.644209e+00	2.540136e+05	1.013200e+05	2.881203e+02	1.003041e-01	-7.050828e-03	0.000000e+00	
1.258130e+00	5.603493e-02	1.225044e+00	4.165341e+01	3.644210e+00	2.540136e+05	1.013200e+05	2.881203e+02	1.003041e-01	-7.051232e-03	0.000000e+00	
1.111111e+00	1.570790e-01	1.225044e+00	4.165341e+01	3.644204e+00	2.540136e+05	1.013200e+05	2.881203e+02	1.003041e-01	-7.051846e-03	0.000000e+00	
1.222222e+00	1.570790e-01	1.225044e+00	4.165341e+01	3.644208e+00	2.540136e+05	1.013200e+05	2.881203e+02	1.003041e-01	-7.050827e-03	0.000000e+00	
1.000000e+00	1.570790e-01	1.225044e+00	4.165341e+01	3.644204e+00	2.540136e+05	1.013200e+05	2.881203e+02	1.003041e-01	-7.053703e-03	0.000000e+00	
1.371663e+00	5.644918e-02	1.225044e+00	4.165341e+01	3.644210e+00	2.540136e+05	1.013200e+05	2.881203e+02	1.003041e-01	-7.050824e-03	0.000000e+00	
1.403572e+00	-5.899344e-02	1.225044e+00	4.165341e+01	3.644209e+00	2.540136e+05	1.013200e+05	2.881203e+02	1.003041e-01	-7.050917e-03	0.000000e+00	
1.333333e+00	1.570790e-01	1.225044e+00	4.165341e+01	3.644209e+00	2.540136e+05	1.013200e+05	2.881203e+02	1.003041e-01	-7.051021e-03	0.000000e+00	
1.484011e+00	5.814669e-02	1.225044e+00	4.165341e+01	3.644209e+00	2.540136e+05	1.013200e+05	2.881203e+02	1.003041e-01	-7.050837e-03	0.000000e+00	
1.444444e+00	1.570790e-01	1.225044e+00	4.165341e+01	3.644209e+00	2.540136e+05	1.013200e+05	2.881203e+02	1.003041e-01	-7.050795e-03	0.000000e+00	
1.515695e+00	-5.704872e-02	1.225044e+00	4.165341e+01	3.644210e+00	2.540136e+05	1.013200e+05	2.881203e+02	1.003041e-01	-7.050746e-03	0.000000e+00	
1.555556e+00	1.570790e-01	1.225044e+00	4.165341e+01	3.644210e+00	2.540136e+05	1.013200e+05	2.881203e+02	1.003041e-01	-7.050760e-03	0.000000e+00	
1.596091e+00	6.018756e-02	1.225044e+00	4.165341e+01	3.644210e+00	2.540136e+05	1.013200e+05	2.881203e+02	1.003041e-01	-7.050697e-03	0.000000e+00	
1.627753e+00	-5.491572e-02	1.225044e+00	4.165341e+01	3.644210e+00	2.540136e+05	1.013200e+05	2.881203e+02	1.003041e-01	-7.050691e-03	0.000000e+00	
1.666667e+00	1.570790e-01	1.225044e+00	4.165341e+01	3.644210e+00	2.540136e+05	1.013200e+05	2.881203e+02	1.003041e-01	-7.050640e-03	0.000000e+00	
1.708083e+00	6.230307e-02	1.225044e+00	4.165341e+01	3.644210e+00	2.540136e+05	1.013200e+05	2.881203e+02	1.003041e-01	-7.050621e-03	0.000000e+00	
1.739798e+00	-5.273971e-02	1.225044e+00	4.165341e+01	3.644210e+00	2.540136e+05	1.013200e+05	2.881203e+02	1.003041e-01	-7.050581e-03	0.000000e+00	
1.777778e+00	1.570790e-01	1.225044e+00	4.165341e+01	3.644210e+00	2.540136e+05	1.013200e+05	2.881203e+02	1.003041e-01	-7.050560e-03	0.000000e+00	
1.820018e+00	6.440726e-02	1.225044e+00	4.165341e+01	3.644210e+00	2.540136e+05	1.013200e+05	2.881203e+02	1.003041e-01	-7.050521e-03	0.000000e+00	
1.851815e+00	-5.058615e-02	1.225044e+00	4.165341e+01	3.644210e+00	2.540136e+05	1.013200e+05	2.881203e+02	1.003041e-01	-7.050494e-03	0.000000e+00	
1.888889e+00	1.570790e-01	1.225044e+00	4.165341e+01	3.644210e+00	2.540136e+05	1.013200e+05	2.881203e+02	1.003041e-01	-7.050462e-03	0.000000e+00	
1.931845e+00	6.643335e-02	1.225044e+00	4.165341e+01	3.644210e+00	2.540136e+05	1.013200e+05	2.881203e+02	1.003041e-01	-7.050431e-03	0.000000e+00	
1.963671e+00	-4.856252e-02	1.225044e+00	4.165341e+01	3.644210e+00	2.540136e+05	1.013200e+05	2.881203e+02	1.003041e-01	-7.050398e-03	0.000000e+00	
2.000000e+00	1.570790e-01	1.225044e+00	4.165341e+01	3.644210e+00	2.540136e+05	1.013200e+05	2.881203e+02	1.003041e-01	-7.050372e-03	0.000000e+00	
2.043312e+00	6.820365e-02	1.225044e+00	4.165341e+01	3.644210e+00	2.540136e+05	1.013200e+05	2.881203e+02	1.003041e-01	-7.050337e-03	0.000000e+00	
2.074848e+00	-4.700480e-02	1.225044e+00	4.165341e+01	3.644211e+00	2.540136e+05	1.013200e+05	2.881203e+02	1.003041e-01	-7.050307e-03	0.000000e+00	
2.111111e+00	1.570790e-01	1.225044e+00	4.165341e+01	3.644211e+00	2.540136e+05	1.013200e+05	2.881203e+02	1.003041e-01	-7.050278e-03	0.000000e+00	
2.153392e+00	6.904689e-02	1.225044e+00	4.165341e+01	3.644211e+00	2.540136e+05	1.013200e+05	2.881203e+02	1.003041e-01	-7.050246e-03	0.000000e+00	
2.183586e+00	-4.695902e-02	1.225044e+00	4.165341e+01	3.644211e+00	2.540136e+05	1.013200e+05	2.881203e+02	1.003041e-01	-7.050217e-03	0.000000e+00	
2.222222e+00	1.570790e-01	1.225044e+00	4.165341e+01	3.644211e+00	2.540136e+05	1.013200e+05	2.881203e+02	1.003041e-01	-7.050184e-03	0.000000e+00	
2.257636e+00	6.601696e-02	1.225044e+00	4.165341e+01	3.644211e+00	2.540136e+05	1.013200e+05	2.881203e+02	1.003041e-01	-7.050157e-03	0.000000e+00	
2.285304e+00	-5.067714e-02	1.225044e+00	4.165341e+01	3.644211e+00	2.540136e+05	1.013200e+05	2.881203e+02	1.003041e-01	-7.050126e-03	0.000000e+00	
2.333333e+00	1.570790e-01	1.225044e+00	4.165341e+01	3.644211e+00	2.540136e+05	1.013200e+05	2.881203e+02	1.003041e-01	-7.050085e-03	0.000000e+00	
2.333098e+00	4.308302e-02	1.225044e+00	4.165341e+01	3.644211e+00	2.540136e+05	1.013200e+05	2.881203e+02	1.003041e-01	-7.050088e-03	0.000000e+00	
2.382090e+00	-5.138834e-02	1.225044e+00	4.165341e+01	3.644211e+00	2.540136e+05	1.013200e+05	2.881203e+02	1.003041e-01	-7.050043e-03	0.000000e+00	
2.408868e+00	6.670571e-02	1.225044e+00	4.165341e+01	3.644211e+00	2.540136e+05	1.013200e+05	2.881203e+02	1.003041e-01	-7.050019e-03	0.000000e+00	
2.483110e+00	-4.470033e-02	1.225044e+00	4.165341e+01	3.644211e+00	2.540136e+05	1.013200e+05	2.881203e+02	1.003041e-01	-7.049953e-03	0.000000e+00	
2.444444e+00	1.570790e-01	1.225044e+00	4.165341e+01	3.644211e+00	2.540136e+05	1.013200e+05	2.881203e+02	1.003041e-01	-7.049986e-03	0.000000e+00	
2.512584e+00	7.256909e-02	1.225044e+00	4.165341e+01	3.644212e+00	2.540136e+05	1.013200e+05	2.881203e+02	1.003041e-01	-7.049930e-03	0.000000e+00	
2.590629e+00	-4.068245e-02	1.225044e+00	4.165341e+01	3.644212e+00	2.540136e+05	1.013200e+05	2.881203e+02	1.003041e-01	-7.049863e-03	0.000000e+00	
2.555556e+00	1.570790e-01	1.225044e+00	4.165341e+01	3.644212e+00	2.540136e+05	1.013200e+05	2.881203e+02	1.003041e-01	-7.049893e-03	0.000000e+00	
2.620906e+00	7.527763e-02	1.225044e+00	4.165341e+01	3.644212e+00	2.540136e+05	1.013200e+05	2.881203e+02	1.003041e-01	-7.049840e-03	0.000000e+00	
2.699014e+00	-3.657392e-02	1.225044e+00	4.165341e+01	3.644212e+00	2.540136e+05	1.013200e+05	2.881203e+02	1.003041e-01	-7.049775e-03	0.000000e+00	
2.666667e+00	1.570790e-01	1.225044e+00	4.165341e+01	3.644212e+00	2.540136e+05	1.013200e+05	2.881203e+02	1.003041e-01	-7.049797e-03	0.000000e+00	
2.725368e+00	7.731161e-02	1.225044e+00	4.165341e+01	3.644212e+00	2.540136e+05	1.013200e+05	2.881203e+02	1.003041e-01	-7.049752e-03	0.000000e+00	
2.805545e+00	-2.554340e-02	1.225044e+00	4.165341e+01	3.644212e+00	2.540136e+05	1.013200e+05	2.881203e+02	1.003041e-01	-7.049679e-03	0.000000e+00	
2.777778e+00	1.570790e-01	1.225044e+00	4.165341e+01	3.644212e+00	2.540136e+05	1.013200e+05	2.881203e+02	1.003041e-01	-7.049703e-03	0.000000e+00	
2.821301e+00	6.881448e-02	1.225044e+00	4.165341e+01	3.644212e+00	2.540136e+05	1.013200e+05	2.881203e+02	1.003041e-01	-7.049667e-03	0.000000e+00	
2.898936e+00	4.917724e-03	1.225044e+00	4.165341e+01	3.644212e+00	2.540136e+05	1.013200e+05	2.881203e+02	1.003041e-01	-7.049610e-03	0.000000e+00	
2.888889e+00	1.570790e-01	1.225044e+00	4.165341e+01	3.644212e+00	2.540136e+05	1.013200e+05	2.881203e+02	1.003041e-01	-7.049611e-03	0.000000e+00	
3.000000e+00	-5.235967e-02	1.225044e+00	4.165341e+01	3.644213e+00	2.540136e+05	1.013200e+05	2.881203e+02	1.003041e-01	-7.049512e-03	0.000000e+00	
3.000000e+00	5.235967e-02	1.225044e+00	4.165341e+01	3.644213e+00	2.540136e+05	1.013200e+05	2.881203e+02	1.003041e-01	-7.049517e-03	0.000000e+00	
3.000000e+00	1.570790e-01	1.225044e+00	4.165341e+01	3.644213e+00	2.540136e+05	1.013200e+05	2.881203e+02	1.003041e-01	-7.049525e-03	0.000000e+00	
1.000000e+00	-1.570790e-01	1.225044e+00	4.165341e+01	3.644204e+00	2.540136e+05	1.013200e+05	2.881203e+02	1.003041e-01	-7.053703e-03	0.000000e+00	
1.111111e+00	-1.570790e-01	1.225044e+00	4.165341e+01	3.644204e+00	2.540136e+05	1.013200e+05	2.881203e+02	1.003041e-01	-7.051846e-03	0.000000e+00	
1.222222e+00	-1.570790e-01	1.225044e+00	4.165341e+01	3.644208e+00	2.540136e+05	1.013200e+05	2.881203e+02	1.003041e-01	-7.050827e-03	0.000000e+00	
1.333333e+00	-1.570790e-01	1.225044e+00	4.165341e+01	3.644209e+00	2.540136e+05	1.013200e+05	2.881203e+02	1.003041e-01	-7.051021e-03	0.000000e+00	
1.444444e+00	-1.570790e-01	1.225044e+00	4.165341e+01	3.644209e+00	2.540136e+05	1.013200e+05	2.881203e+02	1.003041e-01	-7.050795e-03	0.000000e+00	
1.555556e+00	-1.570790e-01	1.225044e+00	4.165341e+01	3.644210e+00	2.540136e+05	1.013200e+05	2.881203e+02	1.003041e-01	-7.050760e-03	0.000000e+00	
1.666667e+00	-1.570790e-01	1.225044e+00	4.165341e+01	3.644210e+00	2.540136e+05	1.013200e+05	2.881203e+02	1.003041e-01	-7.050640e-03	0.000000e+00	
1.777778e+00	-1.570790e-01	1.225044e+00	4.165341e+01	3.644210e+00	2.540136e+05	1.013200e+05	2.881203e+02	1.003041e-01	-7.050560e-03	0.000000e+00	
1.888889e+00	-1.570790e-01	1.225044e+00	4.165341e+01	3.644210e+00	2.540136e+05	1.013200e+05	2.881203e+02	1.003041e-01	-7.050462e-03	0.000000e+00	
2.000000e+00	-1.570790e-01	1.225044e+00	4.165341e+01	3.644210e+00	2.540136e+05	1.013200e+05	2.881203e+02	1.003041e-01	-7.050372e-03	0.000000e+00	
2.111111e+00	-1.570790e-01	1.225044e+00	4.165341e+01	3.644211e+00	2.540136e+05	1.013200e+05	2.881203e+02	1.003041e-01	-7.050278e-03	0.000000e+00	
2.222222e+00	-1.570790e-01	1.225044e+00	4.165341e+01	3.644211e+00	2.540136e+05	1.013200e+05	2.881203e+02	1.003041e-01	-7.050184e-03	0.000000e+00	
2.333333e+00	-1.570790e-01	1.225044e+00	4.165341e+01	3.644211e+00	2.540136e+05	1.013200e+05	2.881203e+02	1.003041e-01	-7.050085e-03	0.000000e+00	
2.444444e+00	-1.570790e-01	1.225044e+00	4.165341e+01	3.644211e+00	2.540136e+05	1.013200e+05	2.881203e+02	1.003041e-01	-7.049986e-03	0.000000e+00	
2.555556e+00	-1.570790e-01	1.225044e+00	4.165341e+01	3.644212e+00	2.540136e+05	1.013200e+05	2.881203e+02	1.003041e-01	-7.049893e-03	0.000000e+00	
2.666667e+00	-1.570790e-01	1.225044e+00	4.165341e+01	3.644212e+00	2.540136e+05	1.013200e+05	2.881203e+02	1.003041e-01	-7.049797e-03	0.000000e+00	
2.777778e+00	-1.570790e-01	1.225044e+00	4.165341e+01	3.644212e+00	2.540136e+05	1.013200e+05	2.881203e+02	1.003041e-01	-7.049703e-03	0.000000e+00	
3.000000e+00	-1.570790e-01	1.225044e+00	4.165341e+01	3.644213e+00	2.540136e+05	1.013200e+05	2.881203e+02	1.003041e-01	-7.049525e-03	0.000000e+00	
2.888889e+00	-1.570790e-01	1.225044e+00	4.165341e+01	3.644212e+00	2.540136e+05	1.013200e+05	2.881203e+02	1.003041e-01	-7.049611e-03	0.000000e+00	
59	60	1	1
1	60	2	2
3	2	60	60
1	2	4	4
61	3	60	60
3	5	2	2
2	5	4	4
61	6	3	3
3	7	5	5
5	8	4	4
6	7	3	3
62	6	61	61
7	9	5	5
4	8	10	10
5	9	8	8
11	7	6	6
62	12	6	6
7	13	9	9
6	12	11	11
11	13	7	7
63	12	62	62
12	14	11	11
11	15	13	13
63	16	12	12
14	15	11	11
12	16	14	14
16	63	64	64
17	15	14	14
18	14	16	16
19	16	64	64
17	14	18	18
19	18	16	16
19	64	65	65
20	17	18	18
18	19	21	21
22	19	65	65
20	18	21	21
22	21	19	19
22	65	66	66
23	20	21	21
21	22	24	24
25	22	66	66
23	21	24	24
25	24	22	22
25	66	67	67
24	26	23	23
24	25	27	27
28	25	67	67
27	26	24	24
28	27	25	25
68	28	67	67
27	29	26	26
28	30	27	27
68	31	28	28
30	29	27	27
28	31	30	30
69	31	68	68
30	32	29	29
33	30	31	31
69	34	31	31
33	32	30	30
31	34	33	33
70	34	69	69
33	35	32	32
34	36	33	33
70	37	34	34
36	35	33	33
37	36	34	34
71	37	70	70
36	38	35	35
37	39	36	36
40	37	71	71
36	39	38	38
37	40	39	39
72	40	71	71
39	41	38	38
40	41	39	39
42	40	72	72
41	43	38	38
41	40	42	42
73	42	72	72
41	44	43	43
42	44	41	41
45	42	73	73
44	46	43	43
44	42	45	45
74	45	73	73
44	47	46	46
45	47	44	44
48	45	74	74
47	49	46	46
47	45	48	48
75	48	74	74
47	50	49	49
48	50	47	47
51	48	75	75
50	52	49	49
50	48	51	51
77	51	75	75
50	53	52	52
53	50	51	51
77	54	51	51
53	55	52	52
54	53	51	51
54	77	56	56
54	55	53	53
56	77	76	76
57	54	56	56
57	55	54	54
57	58	55	55
