TITLE = "Visualization of the volumetric solution"
VARIABLES = "x","y","Density","Momentum_x","Momentum_y","Energy","Pressure","Temperature","Mach","C<sub>p</sub>","Roe_Dissipation"
ZONE NODES= 75, ELEMENTS= 106, DATAPACKING=POINT, ZONETYPE=FEQUADRILATERAL
-2.000000e+00	-5.235967e-02	1.225099e+00	4.165341e+01	5.351905e-09	2.540234e+05	1.013261e+05	2.881247e+02	9.991719e-02	1.582284e-03	0.000000e+00	
-1.888276e+00	5.902483e-03	1.225099e+00	4.165341e+01	-7.274063e-09	2.540234e+05	1.013261e+05	2.881247e+02	9.991719e-02	1.582406e-03	0.000000e+00	
-1.809274e+00	-5.946477e-02	1.225099e+00	4.165341e+01	-1.164362e-08	2.540234e+05	1.013261e+05	2.881247e+02	9.991719e-02	1.582458e-03	0.000000e+00	
-2.000000e+00	5.235967e-02	1.225099e+00	4.165341e+01	-5.712103e-09	2.540234e+05	1.013261e+05	2.881247e+02	9.991719e-02	1.582284e-03	0.000000e+00	
-1.775836e+00	7.425269e-02	1.225099e+00	4.165341e+01	2.252707e-08	2.540234e+05	1.013261e+05	2.881247e+02	9.991719e-02	1.582501e-03	0.000000e+00	
-1.888889e+00	1.570790e-01	1.225099e+00	4.165341e+01	1.145114e-08	2.540234e+05	1.013261e+05	2.881247e+02	9.991719e-02	1.582399e-03	0.000000e+00	
-1.710692e+00	-4.760037e-02	1.225099e+00	4.165341e+01	2.707102e-09	2.540234e+05	1.013261e+05	2.881247e+02	9.991719e-02	1.582570e-03	0.000000e+00	
-2.000000e+00	1.570790e-01	1.225099e+00	4.165341e+01	3.464565e-09	2.540234e+05	1.013261e+05	2.881247e+02	9.991719e-02	1.582294e-03	0.000000e+00	
-1.777778e+00	1.570790e-01	1.225099e+00	4.165341e+01	1.958142e-08	2.540234e+05	1.013261e+05	2.881247e+02	9.991719e-02	1.582493e-03	0.000000e+00	
-1.632400e+00	6.993130e-02	1.225099e+00	4.165341e+01	-3.669741e-09	2.540234e+05	1.013261e+05	2.881247e+02	9.991719e-02	1.582631e-03	0.000000e+00	
-1.666667e+00	1.570790e-01	1.225099e+00	4.165341e+01	8.313128e-09	2.540234e+05	1.013261e+05	2.881247e+02	9.991719e-02	1.582595e-03	0.000000e+00	
-1.597209e+00	-4.685417e-02	1.225099e+00	4.165341e+01	-8.244962e-09	2.540234e+05	1.013261e+05	2.881247e+02	9.991719e-02	1.582668e-03	0.000000e+00	
-1.521954e+00	6.618747e-02	1.225099e+00	4.165341e+01	-7.999332e-08	2.540234e+05	1.013261e+05	2.881247e+02	9.991719e-02	1.582741e-03	0.000000e+00	
-1.555556e+00	1.570790e-01	1.225099e+00	4.165341e+01	-5.462202e-08	2.540234e+05	1.013261e+05	2.881247e+02	9.991719e-02	1.582735e-03	0.000000e+00	
-1.493370e+00	-5.062306e-02	1.225099e+00	4.165341e+01	-1.519043e-07	2.540234e+05	1.013261e+05	2.881247e+02	9.991719e-02	1.582742e-03	0.000000e+00	
-1.444444e+00	1.570790e-01	1.225099e+00	4.165341e+01	-1.357655e-07	2.540234e+05	1.013261e+05	2.881247e+02	9.991719e-02	1.582773e-03	0.000000e+00	
-1.445214e+00	4.311274e-02	1.225099e+00	4.165341e+01	5.299262e-08	2.540234e+05	1.013261e+05	2.881247e+02	9.991719e-02	1.582878e-03	0.000000e+00	
-1.395871e+00	-5.141465e-02	1.225099e+00	4.165341e+01	1.823818e-07	2.540234e+05	1.013261e+05	2.881247e+02	9.991719e-02	1.582925e-03	0.000000e+00	
-1.368904e+00	6.663962e-02	1.225099e+00	4.165341e+01	-3.214243e-08	2.540234e+05	1.013261e+05	2.881247e+02	9.991719e-02	1.582779e-03	0.000000e+00	
-1.333333e+00	1.570790e-01	1.225099e+00	4.165341e+01	4.381247e-07	2.540234e+05	1.013261e+05	2.881247e+02	9.991719e-02	1.583051e-03	0.000000e+00	
-1.294439e+00	-4.487462e-02	1.225099e+00	4.165341e+01	9.827136e-08	2.540234e+05	1.013261e+05	2.881247e+02	9.991719e-02	1.582886e-03	0.000000e+00	
-1.264701e+00	7.231639e-02	1.225099e+00	4.165341e+01	8.325134e-07	2.540234e+05	1.013261e+05	2.881247e+02	9.991719e-02	1.583232e-03	0.000000e+00	
-1.222222e+00	1.570790e-01	1.225099e+00	4.165341e+01	4.765649e-08	2.540234e+05	1.013261e+05	2.881247e+02	9.991719e-02	1.582761e-03	0.000000e+00	
-1.186083e+00	-4.132297e-02	1.225099e+00	4.165341e+01	7.432160e-07	2.540234e+05	1.013261e+05	2.881247e+02	9.991719e-02	1.583219e-03	0.000000e+00	
-1.154793e+00	7.455287e-02	1.225099e+00	4.165341e+01	-1.058575e-06	2.540234e+05	1.013261e+05	2.881247e+02	9.991719e-02	1.582652e-03	0.000000e+00	
-1.111111e+00	1.570790e-01	1.225099e+00	4.165341e+01	-6.530926e-07	2.540234e+05	1.013261e+05	2.881247e+02	9.991720e-02	1.583792e-03	0.000000e+00	
-1.075145e+00	-3.905672e-02	1.225099e+00	4.165341e+01	-3.596293e-06	2.540234e+05	1.013261e+05	2.881247e+02	9.991719e-02	1.582933e-03	0.000000e+00	
-1.043350e+00	7.602488e-02	1.225099e+00	4.165341e+01	-1.240026e-06	2.540234e+05	1.013261e+05	2.881247e+02	9.991719e-02	1.584001e-03	0.000000e+00	
-1.000000e+00	1.570790e-01	1.225099e+00	4.165341e+01	-4.499082e-06	2.540234e+05	1.013261e+05	2.881247e+02	9.991719e-02	1.581660e-03	0.000000e+00	
-9.629139e-01	-3.719585e-02	1.225099e+00	4.165341e+01	6.276538e-07	2.540234e+05	1.013261e+05	2.881247e+02	9.991719e-02	1.583963e-03	0.000000e+00	
-9.308940e-01	7.732886e-02	1.225099e+00	4.165341e+01	-1.730503e-06	2.540234e+05	1.013261e+05	2.881247e+02	9.991719e-02	1.582015e-03	0.000000e+00	
-8.888889e-01	1.570790e-01	1.225099e+00	4.165342e+01	9.956442e-06	2.540234e+05	1.013261e+05	2.881247e+02	9.991721e-02	1.586937e-03	0.000000e+00	
-8.482179e-01	-3.547285e-02	1.225099e+00	4.165341e+01	5.280936e-06	2.540234e+05	1.013261e+05	2.881247e+02	9.991718e-02	1.581517e-03	0.000000e+00	
-8.166420e-01	7.859178e-02	1.225099e+00	4.165341e+01	2.925554e-05	2.540234e+05	1.013261e+05	2.881247e+02	9.991719e-02	1.584969e-03	0.000000e+00	
-7.777778e-01	1.570790e-01	1.225099e+00	4.165340e+01	1.171671e-05	2.540234e+05	1.013261e+05	2.881247e+02	9.991717e-02	1.575526e-03	0.000000e+00	
-7.233663e-01	-3.393709e-02	1.225099e+00	4.165342e+01	1.409193e-05	2.540234e+05	1.013261e+05	2.881247e+02	9.991721e-02	1.590745e-03	0.000000e+00	
-7.034766e-01	7.982194e-02	1.225099e+00	4.165340e+01	-1.229678e-05	2.540234e+05	1.013261e+05	2.881247e+02	9.991717e-02	1.581398e-03	0.000000e+00	
-6.666667e-01	1.570790e-01	1.225099e+00	4.165346e+01	-1.405437e-05	2.540234e+05	1.013261e+05	2.881247e+02	9.991731e-02	1.593111e-03	0.000000e+00	
-5.960556e-01	-3.339096e-02	1.225099e+00	4.165335e+01	-9.845329e-05	2.540234e+05	1.013261e+05	2.881247e+02	9.991706e-02	1.569220e-03	0.000000e+00	
-6.052404e-01	8.262239e-02	1.225099e+00	4.165344e+01	-5.613939e-05	2.540234e+05	1.013261e+05	2.881247e+02	9.991724e-02	1.597935e-03	0.000000e+00	
-5.555556e-01	1.570790e-01	1.225099e+00	4.165337e+01	-1.450310e-04	2.540234e+05	1.013261e+05	2.881247e+02	9.991711e-02	1.547958e-03	0.000000e+00	
-5.098097e-01	5.089471e-02	1.225099e+00	4.165337e+01	-9.578728e-06	2.540234e+05	1.013261e+05	2.881247e+02	9.991710e-02	1.578721e-03	0.000000e+00	
-4.433514e-01	-7.251710e-02	1.225100e+00	4.165349e+01	-4.003744e-05	2.540235e+05	1.013262e+05	2.881247e+02	9.991733e-02	1.652003e-03	0.000000e+00	
-4.444444e-01	1.570790e-01	1.225100e+00	4.165373e+01	-7.735539e-05	2.540235e+05	1.013261e+05	2.881247e+02	9.991792e-02	1.618341e-03	0.000000e+00	
-3.808165e-01	4.861909e-02	1.225099e+00	4.165333e+01	2.378906e-04	2.540234e+05	1.013261e+05	2.881247e+02	9.991701e-02	1.565510e-03	0.000000e+00	
-3.103196e-01	-3.078737e-02	1.225099e+00	4.165241e+01	1.029721e-03	2.540233e+05	1.013261e+05	2.881247e+02	9.991483e-02	1.521695e-03	0.000000e+00	
-3.333333e-01	1.570790e-01	1.225098e+00	4.165331e+01	2.206354e-04	2.540231e+05	1.013260e+05	2.881247e+02	9.991707e-02	1.395935e-03	0.000000e+00	
-2.948508e-01	7.337110e-02	1.225102e+00	4.165542e+01	-2.483863e-04	2.540241e+05	1.013264e+05	2.881247e+02	9.992177e-02	1.919781e-03	0.000000e+00	
-2.011147e-01	5.423749e-02	1.225091e+00	4.165380e+01	1.998778e-03	2.540217e+05	1.013254e+05	2.881247e+02	9.991879e-02	5.992683e-04	0.000000e+00	
-1.910042e-01	-5.895502e-02	1.225110e+00	4.165306e+01	2.149885e-03	2.540256e+05	1.013270e+05	2.881247e+02	9.991548e-02	2.831891e-03	0.000000e+00	
-2.222222e-01	1.570790e-01	1.225099e+00	4.165291e+01	-8.786334e-04	2.540234e+05	1.013261e+05	2.881247e+02	9.991599e-02	1.599283e-03	0.000000e+00	
-1.024553e-01	1.073132e-04	1.225099e+00	4.165403e+01	-1.394114e-02	2.540233e+05	1.013261e+05	2.881247e+02	9.991871e-02	1.529339e-03	0.000000e+00	
-1.111111e-01	1.570790e-01	1.225098e+00	4.165318e+01	4.261228e-03	2.540232e+05	1.013260e+05	2.881247e+02	9.991670e-02	1.473868e-03	0.000000e+00	
0.000000e+00	-5.235967e-02	1.225037e+00	4.168334e+01	-1.313074e-02	2.540109e+05	1.013207e+05	2.881238e+02	9.999419e-02	-6.083802e-03	0.000000e+00	
0.000000e+00	5.235967e-02	1.225160e+00	4.162416e+01	-1.441672e-02	2.540359e+05	1.013315e+05	2.881257e+02	9.984188e-02	9.214493e-03	0.000000e+00	
0.000000e+00	1.570790e-01	1.225102e+00	4.165202e+01	2.753921e-02	2.540241e+05	1.013264e+05	2.881248e+02	9.991361e-02	1.997851e-03	0.000000e+00	
-2.000000e+00	-1.570790e-01	1.225099e+00	4.165341e+01	3.464565e-09	2.540234e+05	1.013261e+05	2.881247e+02	9.991719e-02	1.582294e-03	0.000000e+00	
-1.888889e+00	-1.570790e-01	1.225099e+00	4.165341e+01	1.145114e-08	2.540234e+05	1.013261e+05	2.881247e+02	9.991719e-02	1.582399e-03	0.000000e+00	
-1.777778e+00	-1.570790e-01	1.225099e+00	4.165341e+01	1.958142e-08	2.540234e+05	1.013261e+05	2.881247e+02	9.991719e-02	1.582493e-03	0.000000e+00	
-1.666667e+00	-1.570790e-01	1.225099e+00	4.165341e+01	8.313128e-09	2.540234e+05	1.013261e+05	2.881247e+02	9.991719e-02	1.582595e-03	0.000000e+00	
-1.555556e+00	-1.570790e-01	1.225099e+00	4.165341e+01	-5.462202e-08	2.540234e+05	1.013261e+05	2.881247e+02	9.991719e-02	1.582735e-03	0.000000e+00	
-1.444444e+00	-1.570790e-01	1.225099e+00	4.165341e+01	-1.357655e-07	2.540234e+05	1.013261e+05	2.881247e+02	9.991719e-02	1.582773e-03	0.000000e+00	
-1.333333e+00	-1.570790e-01	1.225099e+00	4.165341e+01	4.381247e-07	2.540234e+05	1.013261e+05	2.881247e+02	9.991719e-02	1.583051e-03	0.000000e+00	
-1.222222e+00	-1.570790e-01	1.225099e+00	4.165341e+01	4.765649e-08	2.540234e+05	1.013261e+05	2.881247e+02	9.991719e-02	1.582761e-03	0.000000e+00	
-1.111111e+00	-1.570790e-01	1.225099e+00	4.165341e+01	-6.530926e-07	2.540234e+05	1.013261e+05	2.881247e+02	9.991720e-02	1.583792e-03	0.000000e+00	
-1.000000e+00	-1.570790e-01	1.225099e+00	4.165341e+01	-4.499082e-06	2.540234e+05	1.013261e+05	2.881247e+02	9.991719e-02	1.581660e-03	0.000000e+00	
-8.888889e-01	-1.570790e-01	1.225099e+00	4.165342e+01	9.956442e-06	2.540234e+05	1.013261e+05	2.881247e+02	9.991721e-02	1.586937e-03	0.000000e+00	
-7.777778e-01	-1.570790e-01	1.225099e+00	4.165340e+01	1.171671e-05	2.540234e+05	1.013261e+05	2.881247e+02	9.991717e-02	1.575526e-03	0.000000e+00	
-6.666667e-01	-1.570790e-01	1.225099e+00	4.165346e+01	-1.405437e-05	2.540234e+05	1.013261e+05	2.881247e+02	9.991731e-02	1.593111e-03	0.000000e+00	
-5.555556e-01	-1.570790e-01	1.225099e+00	4.165337e+01	-1.450310e-04	2.540234e+05	1.013261e+05	2.881247e+02	9.991711e-02	1.547958e-03	0.000000e+00	
-4.444444e-01	-1.570790e-01	1.225100e+00	4.165373e+01	-7.735539e-05	2.540235e+05	1.013261e+05	2.881247e+02	9.991792e-02	1.618341e-03	0.000000e+00	
-3.333333e-01	-1.570790e-01	1.225098e+00	4.165331e+01	2.206354e-04	2.540231e+05	1.013260e+05	2.881247e+02	9.991707e-02	1.395935e-03	0.000000e+00	
-2.222222e-01	-1.570790e-01	1.225099e+00	4.165291e+01	-8.786334e-04	2.540234e+05	1.013261e+05	2.881247e+02	9.991599e-02	1.599283e-03	0.000000e+00	
0.000000e+00	-1.570790e-01	1.225102e+00	4.165202e+01	2.753921e-02	2.540241e+05	1.013264e+05	2.881248e+02	9.991361e-02	1.997851e-03	0.000000e+00	
-1.111111e-01	-1.570790e-01	1.225098e+00	4.165318e+01	4.261228e-03	2.540232e+05	1.013260e+05	2.881247e+02	9.991670e-02	1.473868e-03	0.000000e+00	
57	58	1	1
1	58	2	2
58	3	2	2
1	2	4	4
3	5	2	2
58	59	3	3
2	6	4	4
2	5	6	6
7	5	3	3
59	7	3	3
4	6	8	8
5	9	6	6
10	5	7	7
60	7	59	59
5	11	9	9
7	12	10	10
10	11	5	5
60	12	7	7
12	13	10	10
10	14	11	11
61	12	60	60
13	14	10	10
15	13	12	12
61	15	12	12
16	14	13	13
17	13	15	15
62	15	61	61
17	16	13	13
18	17	15	15
15	62	18	18
19	16	17	17
19	17	18	18
18	62	63	63
20	16	19	19
18	21	19	19
18	63	21	21
22	20	19	19
22	19	21	21
21	63	64	64
23	20	22	22
21	24	22	22
21	64	24	24
22	25	23	23
24	25	22	22
24	64	65	65
25	26	23	23
25	24	27	27
27	24	65	65
25	28	26	26
27	28	25	25
66	27	65	65
28	29	26	26
28	27	30	30
30	27	66	66
28	31	29	29
30	31	28	28
67	30	66	66
31	32	29	29
31	30	33	33
33	30	67	67
31	34	32	32
33	34	31	31
68	33	67	67
34	35	32	32
34	33	36	36
36	33	68	68
34	37	35	35
36	37	34	34
69	36	68	68
37	38	35	35
37	36	39	39
39	36	69	69
37	40	38	38
39	40	37	37
70	39	69	69
40	41	38	38
39	42	40	40
43	39	70	70
42	41	40	40
43	42	39	39
71	43	70	70
42	44	41	41
45	42	43	43
72	43	71	71
42	45	44	44
46	45	43	43
72	46	43	43
45	47	44	44
48	45	46	46
73	46	72	72
48	47	45	45
49	48	46	46
73	50	46	46
48	51	47	47
50	49	46	46
49	51	48	48
75	50	73	73
50	52	49	49
49	53	51	51
75	52	50	50
52	53	49	49
52	75	54	54
55	53	52	52
54	75	74	74
55	52	54	54
55	56	53	53
