TITLE = "Visualization of the volumetric solution"
VARIABLES = "x","y","Density","Momentum_x","Momentum_y","Energy","Pressure","Temperature","Mach","C<sub>p</sub>","Roe_Dissipation"
ZONE NODES= 40, ELEMENTS= 54, DATAPACKING=POINT, ZONETYPE=FEQUADRILATERAL
0.000000e+00	-5.235967e-02	1.224982e+00	4.166674e+01	1.051449e+00	2.539995e+05	1.013162e+05	2.881239e+02	9.999066e-02	-1.244670e-02	0.000000e+00	
9.937029e-02	3.284214e-03	1.225046e+00	4.165532e+01	2.271984e+00	2.540131e+05	1.013211e+05	2.881229e+02	1.000749e-01	-5.493919e-03	0.000000e+00	
1.947397e-01	-3.957194e-02	1.224956e+00	4.164211e+01	3.037600e+00	2.539948e+05	1.013133e+05	2.881218e+02	1.001677e-01	-1.652148e-02	0.000000e+00	
0.000000e+00	5.235967e-02	1.225231e+00	4.164502e+01	1.033144e+00	2.540506e+05	1.013370e+05	2.881246e+02	9.991710e-02	1.687292e-02	0.000000e+00	
1.770762e-01	6.762341e-02	1.225156e+00	4.166651e+01	2.951363e+00	2.540363e+05	1.013297e+05	2.881215e+02	1.001949e-01	6.639472e-03	0.000000e+00	
1.111111e-01	1.570790e-01	1.225094e+00	4.164894e+01	2.287322e+00	2.540228e+05	1.013251e+05	2.881231e+02	1.000577e-01	1.347041e-04	0.000000e+00	
2.747532e-01	6.790430e-02	1.225028e+00	4.166223e+01	3.344946e+00	2.540101e+05	1.013188e+05	2.881207e+02	1.002665e-01	-8.705784e-03	0.000000e+00	
3.002551e-01	-4.756350e-02	1.225086e+00	4.163824e+01	3.432624e+00	2.540220e+05	1.013238e+05	2.881212e+02	1.002213e-01	-1.641749e-03	0.000000e+00	
0.000000e+00	1.570790e-01	1.225093e+00	4.164952e+01	9.857011e-01	2.540221e+05	1.013255e+05	2.881245e+02	9.993642e-02	7.033207e-04	0.000000e+00	
2.222222e-01	1.570790e-01	1.225090e+00	4.165985e+01	3.207581e+00	2.540229e+05	1.013241e+05	2.881211e+02	1.002297e-01	-1.220172e-03	0.000000e+00	
3.333333e-01	1.570790e-01	1.225021e+00	4.166173e+01	3.488805e+00	2.540087e+05	1.013181e+05	2.881204e+02	1.002941e-01	-9.704889e-03	0.000000e+00	
3.788364e-01	6.761495e-02	1.225054e+00	4.165319e+01	3.545966e+00	2.540155e+05	1.013209e+05	2.881205e+02	1.002825e-01	-5.785684e-03	0.000000e+00	
4.095667e-01	-4.773473e-02	1.225035e+00	4.165407e+01	3.571020e+00	2.540116e+05	1.013193e+05	2.881204e+02	1.002913e-01	-8.057216e-03	0.000000e+00	
4.444444e-01	1.570790e-01	1.225055e+00	4.165202e+01	3.597289e+00	2.540158e+05	1.013210e+05	2.881204e+02	1.002901e-01	-5.651412e-03	0.000000e+00	
4.888868e-01	6.863707e-02	1.225040e+00	4.165383e+01	3.611522e+00	2.540126e+05	1.013196e+05	2.881203e+02	1.002987e-01	-7.550103e-03	0.000000e+00	
5.206468e-01	-4.657216e-02	1.225050e+00	4.165262e+01	3.623551e+00	2.540147e+05	1.013205e+05	2.881203e+02	1.002975e-01	-6.346029e-03	0.000000e+00	
5.555556e-01	1.570790e-01	1.225039e+00	4.165441e+01	3.629161e+00	2.540126e+05	1.013196e+05	2.881203e+02	1.003038e-01	-7.601746e-03	0.000000e+00	
6.001294e-01	6.944852e-02	1.225046e+00	4.165297e+01	3.635884e+00	2.540139e+05	1.013201e+05	2.881203e+02	1.003012e-01	-6.859756e-03	0.000000e+00	
6.315603e-01	-4.607458e-02	1.225043e+00	4.165382e+01	3.637823e+00	2.540133e+05	1.013199e+05	2.881203e+02	1.003039e-01	-7.177919e-03	0.000000e+00	
6.666667e-01	1.570790e-01	1.225046e+00	4.165299e+01	3.640475e+00	2.540139e+05	1.013202e+05	2.881203e+02	1.003022e-01	-6.829847e-03	0.000000e+00	
7.116095e-01	6.679431e-02	1.225043e+00	4.165343e+01	3.641696e+00	2.540134e+05	1.013199e+05	2.881203e+02	1.003037e-01	-7.162521e-03	0.000000e+00	
7.381259e-01	-4.721430e-02	1.225045e+00	4.165343e+01	3.642736e+00	2.540137e+05	1.013201e+05	2.881203e+02	1.003038e-01	-6.957340e-03	0.000000e+00	
7.777778e-01	1.570790e-01	1.225043e+00	4.165353e+01	3.643126e+00	2.540134e+05	1.013199e+05	2.881202e+02	1.003043e-01	-7.144160e-03	0.000000e+00	
8.029792e-01	4.827077e-02	1.225045e+00	4.165330e+01	3.643691e+00	2.540137e+05	1.013200e+05	2.881203e+02	1.003037e-01	-6.989935e-03	0.000000e+00	
8.206421e-01	-6.453889e-02	1.225044e+00	4.165352e+01	3.643601e+00	2.540135e+05	1.013200e+05	2.881202e+02	1.003043e-01	-7.097811e-03	0.000000e+00	
8.888889e-01	1.570790e-01	1.225044e+00	4.165337e+01	3.643986e+00	2.540136e+05	1.013200e+05	2.881203e+02	1.003040e-01	-7.031474e-03	0.000000e+00	
8.995185e-01	-1.640553e-03	1.225044e+00	4.165341e+01	3.643970e+00	2.540136e+05	1.013200e+05	2.881203e+02	1.003041e-01	-7.053615e-03	0.000000e+00	
1.000000e+00	-5.235967e-02	1.225044e+00	4.165343e+01	3.644225e+00	2.540136e+05	1.013200e+05	2.881202e+02	1.003042e-01	-7.050154e-03	0.000000e+00	
1.000000e+00	5.235967e-02	1.225044e+00	4.165342e+01	3.644181e+00	2.540135e+05	1.013200e+05	2.881202e+02	1.003042e-01	-7.059231e-03	0.000000e+00	
1.000000e+00	1.570790e-01	1.225044e+00	4.165342e+01	3.644219e+00	2.540135e+05	1.013200e+05	2.881202e+02	1.003042e-01	-7.058396e-03	0.000000e+00	
0.000000e+00	-1.570790e-01	1.225093e+00	4.164952e+01	9.857011e-01	2.540221e+05	1.013255e+05	2.881245e+02	9.993642e-02	7.033207e-04	0.000000e+00	
1.111111e-01	-1.570790e-01	1.225094e+00	4.164894e+01	2.287322e+00	2.540228e+05	1.013251e+05	2.881231e+02	1.000577e-01	1.347041e-04	0.000000e+00	
2.222222e-01	-1.570790e-01	1.225090e+00	4.165985e+01	3.207581e+00	2.540229e+05	1.013241e+05	2.881211e+02	1.002297e-01	-1.220172e-03	0.000000e+00	
3.333333e-01	-1.570790e-01	1.225021e+00	4.166173e+01	3.488805e+00	2.540087e+05	1.013181e+05	2.881204e+02	1.002941e-01	-9.704889e-03	0.000000e+00	
4.444444e-01	-1.570790e-01	1.225055e+00	4.165202e+01	3.597289e+00	2.540158e+05	1.013210e+05	2.881204e+02	1.002901e-01	-5.651412e-03	0.000000e+00	
5.555556e-01	-1.570790e-01	1.225039e+00	4.165441e+01	3.629161e+00	2.540126e+05	1.013196e+05	2.881203e+02	1.003038e-01	-7.601746e-03	0.000000e+00	
6.666667e-01	-1.570790e-01	1.225046e+00	4.165299e+01	3.640475e+00	2.540139e+05	1.013202e+05	2.881203e+02	1.003022e-01	-6.829847e-03	0.000000e+00	
7.777778e-01	-1.570790e-01	1.225043e+00	4.165353e+01	3.643126e+00	2.540134e+05	1.013199e+05	2.881202e+02	1.003043e-01	-7.144160e-03	0.000000e+00	
1.000000e+00	-1.570790e-01	1.225044e+00	4.165342e+01	3.644219e+00	2.540135e+05	1.013200e+05	2.881202e+02	1.003042e-01	-7.058396e-03	0.000000e+00	
8.888889e-01	-1.570790e-01	1.225044e+00	4.165337e+01	3.643986e+00	2.540136e+05	1.013200e+05	2.881203e+02	1.003040e-01	-7.031474e-03	0.000000e+00	
31	32	1	1
1	32	2	2
32	3	2	2
1	2	4	4
3	5	2	2
32	33	3	3
2	6	4	4
2	5	6	6
3	7	5	5
33	8	3	3
4	6	9	9
5	10	6	6
7	10	5	5
8	7	3	3
34	8	33	33
11	10	7	7
12	7	8	8
34	13	8	8
11	7	12	12
8	13	12	12
13	34	35	35
14	11	12	12
12	13	15	15
16	13	35	35
14	12	15	15
16	15	13	13
16	35	36	36
15	17	14	14
15	16	18	18
19	16	36	36
18	17	15	15
19	18	16	16
37	19	36	36
18	20	17	17
19	21	18	18
37	22	19	19
21	20	18	18
22	21	19	19
38	22	37	37
21	23	20	20
22	24	21	21
25	22	38	38
24	23	21	21
25	24	22	22
40	25	38	38
24	26	23	23
27	24	25	25
40	27	25	25
27	26	24	24
27	40	28	28
29	26	27	27
28	40	39	39
29	27	28	28
29	30	26	26
