TITLE = "SU2 Simulation"
VARIABLES = "Iteration","CL","CD","CSF","CMx","CMy","CMz","CFx","CFy","CFz","CL/CD","AoA","Custom_ObjFunc","Res_Flow[0]","Res_Flow[1]","Res_Flow[2]","Res_Flow[3]","Res_Flow[4]","Linear_Solver_Iterations","CFL_Number","Time(min)"
ZONE T= "Convergence history"
           0, 0.00000000e+00, 0.00000000e+00, 0.00000000e+00, 0.00000000e+00, 0.00000000e+00, 0.00000000e+00, 0.00000000e+00, 0.00000000e+00, 0.00000000e+00, 0.00000000e+00, 0.00000000e+00, 0.00000000e+00, -1.53876873e+01, -1.20127276e+01, -1.21491290e+01, -9.91152077e+00, 0.00000000e+00, 5.0000000000, 5.0000000000, 0.0000298833
           1, 0.00000000e+00, 0.00000000e+00, 0.00000000e+00, 0.00000000e+00, 0.00000000e+00, 0.00000000e+00, 0.00000000e+00, 0.00000000e+00, 0.00000000e+00, 0.00000000e+00, 0.00000000e+00, 0.00000000e+00, -8.50184138e+00, -5.92586261e+00, 1.13521472e+00, -3.01929574e+00, 0.00000000e+00, 5.0000000000, 5.0000000000, 0.0000970500
           2, 0.00000000e+00, 0.00000000e+00, 0.00000000e+00, 0.00000000e+00, 0.00000000e+00, 0.00000000e+00, 0.00000000e+00, 0.00000000e+00, 0.00000000e+00, 0.00000000e+00, 0.00000000e+00, 0.00000000e+00, -2.84462724e+00, -8.64761572e-01, 1.08048904e+00, 2.58129980e+00, 0.00000000e+00, 5.0000000000, 5.0000000000, 0.0001201000
           3, 0.00000000e+00, 0.00000000e+00, 0.00000000e+00, 0.00000000e+00, 0.00000000e+00, 0.00000000e+00, 0.00000000e+00, 0.00000000e+00, 0.00000000e+00, 0.00000000e+00, 0.00000000e+00, 0.00000000e+00, -2.86572559e+00, -6.88374821e-01, 1.02585101e+00, 2.53295809e+00, 0.00000000e+00, 5.0000000000, 5.0000000000, 0.0001414167
           4, 0.00000000e+00, 0.00000000e+00, 0.00000000e+00, 0.00000000e+00, 0.00000000e+00, 0.00000000e+00, 0.00000000e+00, 0.00000000e+00, 0.00000000e+00, 0.00000000e+00, 0.00000000e+00, 0.00000000e+00, -3.09370937e+00, -6.42625448e-01, 9.70886883e-01, 2.25497666e+00, 0.00000000e+00, 5.0000000000, 5.0000000000, 0.0001626333
           5, 0.00000000e+00, 0.00000000e+00, 0.00000000e+00, 0.00000000e+00, 0.00000000e+00, 0.00000000e+00, 0.00000000e+00, 0.00000000e+00, 0.00000000e+00, 0.00000000e+00, 0.00000000e+00, 0.00000000e+00, -3.44724284e+00, -6.50083750e-01, 9.15137746e-01, 1.90103645e+00, 0.00000000e+00, 5.0000000000, 5.0000000000, 0.0001876333
           6, 0.00000000e+00, 0.00000000e+00, 0.00000000e+00, 0.00000000e+00, 0.00000000e+00, 0.00000000e+00, 0.00000000e+00, 0.00000000e+00, 0.00000000e+00, 0.00000000e+00, 0.00000000e+00, 0.00000000e+00, -3.46251966e+00, -6.88626380e-01, 8.58674959e-01, 2.04643843e+00, 0.00000000e+00, 5.0000000000, 5.0000000000, 0.0002095000
           7, 0.00000000e+00, 0.00000000e+00, 0.00000000e+00, 0.00000000e+00, 0.00000000e+00, 0.00000000e+00, 0.00000000e+00, 0.00000000e+00, 0.00000000e+00, 0.00000000e+00, 0.00000000e+00, 0.00000000e+00, -3.34785862e+00, -7.51342241e-01, 8.01962708e-01, 2.14034402e+00, 0.00000000e+00, 5.0000000000, 5.0000000000, 0.0002305000
           8, 0.00000000e+00, 0.00000000e+00, 0.00000000e+00, 0.00000000e+00, 0.00000000e+00, 0.00000000e+00, 0.00000000e+00, 0.00000000e+00, 0.00000000e+00, 0.00000000e+00, 0.00000000e+00, 0.00000000e+00, -3.32500854e+00, -8.34931704e-01, 7.45315212e-01, 2.14003160e+00, 0.00000000e+00, 5.0000000000, 5.0000000000, 0.0002513833
           9, 0.00000000e+00, 0.00000000e+00, 0.00000000e+00, 0.00000000e+00, 0.00000000e+00, 0.00000000e+00, 0.00000000e+00, 0.00000000e+00, 0.00000000e+00, 0.00000000e+00, 0.00000000e+00, 0.00000000e+00, -3.35837446e+00, -9.33441962e-01, 6.88812094e-01, 2.08844206e+00, 0.00000000e+00, 5.0000000000, 5.0000000000, 0.0002723000
          10, 0.00000000e+00, 0.00000000e+00, 0.00000000e+00, 0.00000000e+00, 0.00000000e+00, 0.00000000e+00, 0.00000000e+00, 0.00000000e+00, 0.00000000e+00, 0.00000000e+00, 0.00000000e+00, 0.00000000e+00, -3.42582567e+00, -1.03155101e+00, 6.32456685e-01, 2.00321534e+00, 0.00000000e+00, 5.0000000000, 5.0000000000, 0.0002946333
          11, 0.00000000e+00, 0.00000000e+00, 0.00000000e+00, 0.00000000e+00, 0.00000000e+00, 0.00000000e+00, 0.00000000e+00, 0.00000000e+00, 0.00000000e+00, 0.00000000e+00, 0.00000000e+00, 0.00000000e+00, -3.51339822e+00, -1.10226811e+00, 5.76212300e-01, 1.89342546e+00, 0.00000000e+00, 5.0000000000, 5.0000000000, 0.0003203667
          12, 0.00000000e+00, 0.00000000e+00, 0.00000000e+00, 0.00000000e+00, 0.00000000e+00, 0.00000000e+00, 0.00000000e+00, 0.00000000e+00, 0.00000000e+00, 0.00000000e+00, 0.00000000e+00, 0.00000000e+00, -3.60050046e+00, -1.12824426e+00, 5.20031557e-01, 1.77860758e+00, 0.00000000e+00, 5.0000000000, 5.0000000000, 0.0003421000
          13, 0.00000000e+00, 0.00000000e+00, 0.00000000e+00, 0.00000000e+00, 0.00000000e+00, 0.00000000e+00, 0.00000000e+00, 0.00000000e+00, 0.00000000e+00, 0.00000000e+00, 0.00000000e+00, 0.00000000e+00, -3.65130832e+00, -1.12534530e+00, 4.63880895e-01, 1.71250629e+00, 0.00000000e+00, 5.0000000000, 5.0000000000, 0.0003694833
          14, 0.00000000e+00, 0.00000000e+00, 0.00000000e+00, 0.00000000e+00, 0.00000000e+00, 0.00000000e+00, 0.00000000e+00, 0.00000000e+00, 0.00000000e+00, 0.00000000e+00, 0.00000000e+00, 0.00000000e+00, -3.64447011e+00, -1.12048356e+00, 4.07751863e-01, 1.73503126e+00, 0.00000000e+00, 5.0000000000, 5.0000000000, 0.0003935000
          15, 0.00000000e+00, 0.00000000e+00, 0.00000000e+00, 0.00000000e+00, 0.00000000e+00, 0.00000000e+00, 0.00000000e+00, 0.00000000e+00, 0.00000000e+00, 0.00000000e+00, 0.00000000e+00, 0.00000000e+00, -3.60477549e+00, -1.12937591e+00, 3.51631533e-01, 1.79838623e+00, 0.00000000e+00, 5.0000000000, 5.0000000000, 0.0004153000
          16, 0.00000000e+00, 0.00000000e+00, 0.00000000e+00, 0.00000000e+00, 0.00000000e+00, 0.00000000e+00, 0.00000000e+00, 0.00000000e+00, 0.00000000e+00, 0.00000000e+00, 0.00000000e+00, 0.00000000e+00, -3.56427393e+00, -1.15813429e+00, 2.95491546e-01, 1.85451136e+00, 0.00000000e+00, 5.0000000000, 5.0000000000, 0.0004377833
          17, 0.00000000e+00, 0.00000000e+00, 0.00000000e+00, 0.00000000e+00, 0.00000000e+00, 0.00000000e+00, 0.00000000e+00, 0.00000000e+00, 0.00000000e+00, 0.00000000e+00, 0.00000000e+00, 0.00000000e+00, -3.53663407e+00, -1.20821411e+00, 2.39309571e-01, 1.89041683e+00, 0.00000000e+00, 5.0000000000, 5.0000000000, 0.0004632000
          18, 0.00000000e+00, 0.00000000e+00, 0.00000000e+00, 0.00000000e+00, 0.00000000e+00, 0.00000000e+00, 0.00000000e+00, 0.00000000e+00, 0.00000000e+00, 0.00000000e+00, 0.00000000e+00, 0.00000000e+00, -3.52415573e+00, -1.27648146e+00, 1.83073689e-01, 1.90668354e+00, 0.00000000e+00, 5.0000000000, 5.0000000000, 0.0004847167
          19, 0.00000000e+00, 0.00000000e+00, 0.00000000e+00, 0.00000000e+00, 0.00000000e+00, 0.00000000e+00, 0.00000000e+00, 0.00000000e+00, 0.00000000e+00, 0.00000000e+00, 0.00000000e+00, 0.00000000e+00, -3.52516506e+00, -1.34786134e+00, 1.26779479e-01, 1.90688663e+00, 0.00000000e+00, 5.0000000000, 5.0000000000, 0.0005054000
          20, 0.00000000e+00, 0.00000000e+00, 0.00000000e+00, 0.00000000e+00, 0.00000000e+00, 0.00000000e+00, 0.00000000e+00, 0.00000000e+00, 0.00000000e+00, 0.00000000e+00, 0.00000000e+00, 0.00000000e+00, -3.53713361e+00, -1.38416586e+00, 7.04286826e-02, 1.89470124e+00, 0.00000000e+00, 5.0000000000, 5.0000000000, 0.0005260333
          21, 0.00000000e+00, 0.00000000e+00, 0.00000000e+00, 0.00000000e+00, 0.00000000e+00, 0.00000000e+00, 0.00000000e+00, 0.00000000e+00, 0.00000000e+00, 0.00000000e+00, 0.00000000e+00, 0.00000000e+00, -3.55803154e+00, -1.35145221e+00, 1.40280996e-02, 1.87287863e+00, 0.00000000e+00, 5.0000000000, 5.0000000000, 0.0005465667
          22, 0.00000000e+00, 0.00000000e+00, 0.00000000e+00, 0.00000000e+00, 0.00000000e+00, 0.00000000e+00, 0.00000000e+00, 0.00000000e+00, 0.00000000e+00, 0.00000000e+00, 0.00000000e+00, 0.00000000e+00, -3.58708672e+00, -1.27343423e+00, -4.24108106e-02, 1.84258639e+00, 0.00000000e+00, 5.0000000000, 5.0000000000, 0.0005671000
          23, 0.00000000e+00, 0.00000000e+00, 0.00000000e+00, 0.00000000e+00, 0.00000000e+00, 0.00000000e+00, 0.00000000e+00, 0.00000000e+00, 0.00000000e+00, 0.00000000e+00, 0.00000000e+00, 0.00000000e+00, -3.62508967e+00, -1.19034800e+00, -9.88728151e-02, 1.80310068e+00, 0.00000000e+00, 5.0000000000, 5.0000000000, 0.0005876500
          24, 0.00000000e+00, 0.00000000e+00, 0.00000000e+00, 0.00000000e+00, 0.00000000e+00, 0.00000000e+00, 0.00000000e+00, 0.00000000e+00, 0.00000000e+00, 0.00000000e+00, 0.00000000e+00, 0.00000000e+00, -3.67421590e+00, -1.11963524e+00, -1.55340436e-01, 1.75201107e+00, 0.00000000e+00, 5.0000000000, 5.0000000000, 0.0006092667
          25, 0.00000000e+00, 0.00000000e+00, 0.00000000e+00, 0.00000000e+00, 0.00000000e+00, 0.00000000e+00, 0.00000000e+00, 0.00000000e+00, 0.00000000e+00, 0.00000000e+00, 0.00000000e+00, 0.00000000e+00, -3.73751128e+00, -1.06479863e+00, -2.11796083e-01, 1.68582894e+00, 0.00000000e+00, 5.0000000000, 5.0000000000, 0.0006306167
          26, 0.00000000e+00, 0.00000000e+00, 0.00000000e+00, 0.00000000e+00, 0.00000000e+00, 0.00000000e+00, 0.00000000e+00, 0.00000000e+00, 0.00000000e+00, 0.00000000e+00, 0.00000000e+00, 0.00000000e+00, -3.81809382e+00, -1.02518417e+00, -2.68224582e-01, 1.60098489e+00, 0.00000000e+00, 5.0000000000, 5.0000000000, 0.0006545000
          27, 0.00000000e+00, 0.00000000e+00, 0.00000000e+00, 0.00000000e+00, 0.00000000e+00, 0.00000000e+00, 0.00000000e+00, 0.00000000e+00, 0.00000000e+00, 0.00000000e+00, 0.00000000e+00, 0.00000000e+00, -3.91725144e+00, -9.99389880e-01, -3.24615485e-01, 1.49648890e+00, 0.00000000e+00, 5.0000000000, 5.0000000000, 0.0006777000
          28, 0.00000000e+00, 0.00000000e+00, 0.00000000e+00, 0.00000000e+00, 0.00000000e+00, 0.00000000e+00, 0.00000000e+00, 0.00000000e+00, 0.00000000e+00, 0.00000000e+00, 0.00000000e+00, 0.00000000e+00, -4.02799445e+00, -9.86167108e-01, -3.80964136e-01, 1.38360210e+00, 0.00000000e+00, 5.0000000000, 5.0000000000, 0.0006991000
          29, 0.00000000e+00, 0.00000000e+00, 0.00000000e+00, 0.00000000e+00, 0.00000000e+00, 0.00000000e+00, 0.00000000e+00, 0.00000000e+00, 0.00000000e+00, 0.00000000e+00, 0.00000000e+00, 0.00000000e+00, -4.11830487e+00, -9.84583288e-01, -4.37269829e-01, 1.30781275e+00, 0.00000000e+00, 5.0000000000, 5.0000000000, 0.0007212833
          30, 0.00000000e+00, 0.00000000e+00, 0.00000000e+00, 0.00000000e+00, 0.00000000e+00, 0.00000000e+00, 0.00000000e+00, 0.00000000e+00, 0.00000000e+00, 0.00000000e+00, 0.00000000e+00, 0.00000000e+00, -4.13490125e+00, -9.94043437e-01, -4.93530537e-01, 1.32211051e+00, 0.00000000e+00, 5.0000000000, 5.0000000000, 0.0007428500
          31, 0.00000000e+00, 0.00000000e+00, 0.00000000e+00, 0.00000000e+00, 0.00000000e+00, 0.00000000e+00, 0.00000000e+00, 0.00000000e+00, 0.00000000e+00, 0.00000000e+00, 0.00000000e+00, 0.00000000e+00, -4.08279703e+00, -1.01431869e+00, -5.49752207e-01, 1.39318321e+00, 0.00000000e+00, 5.0000000000, 5.0000000000, 0.0007637833
          32, 0.00000000e+00, 0.00000000e+00, 0.00000000e+00, 0.00000000e+00, 0.00000000e+00, 0.00000000e+00, 0.00000000e+00, 0.00000000e+00, 0.00000000e+00, 0.00000000e+00, 0.00000000e+00, 0.00000000e+00, -4.01466278e+00, -1.04562168e+00, -6.05961941e-01, 1.46616958e+00, 0.00000000e+00, 5.0000000000, 5.0000000000, 0.0007846500
          33, 0.00000000e+00, 0.00000000e+00, 0.00000000e+00, 0.00000000e+00, 0.00000000e+00, 0.00000000e+00, 0.00000000e+00, 0.00000000e+00, 0.00000000e+00, 0.00000000e+00, 0.00000000e+00, 0.00000000e+00, -3.95693371e+00, -1.08873099e+00, -6.62196807e-01, 1.52331596e+00, 0.00000000e+00, 5.0000000000, 5.0000000000, 0.0008054667
          34, 0.00000000e+00, 0.00000000e+00, 0.00000000e+00, 0.00000000e+00, 0.00000000e+00, 0.00000000e+00, 0.00000000e+00, 0.00000000e+00, 0.00000000e+00, 0.00000000e+00, 0.00000000e+00, 0.00000000e+00, -3.91380955e+00, -1.14519921e+00, -7.18498480e-01, 1.56429243e+00, 0.00000000e+00, 5.0000000000, 5.0000000000, 0.0008262333
          35, 0.00000000e+00, 0.00000000e+00, 0.00000000e+00, 0.00000000e+00, 0.00000000e+00, 0.00000000e+00, 0.00000000e+00, 0.00000000e+00, 0.00000000e+00, 0.00000000e+00, 0.00000000e+00, 0.00000000e+00, -3.88285928e+00, -1.21766475e+00, -7.74914543e-01, 1.59270516e+00, 0.00000000e+00, 5.0000000000, 5.0000000000, 0.0008485000
          36, 0.00000000e+00, 0.00000000e+00, 0.00000000e+00, 0.00000000e+00, 0.00000000e+00, 0.00000000e+00, 0.00000000e+00, 0.00000000e+00, 0.00000000e+00, 0.00000000e+00, 0.00000000e+00, 0.00000000e+00, -3.86055030e+00, -1.31017436e+00, -8.31500607e-01, 1.61244202e+00, 0.00000000e+00, 5.0000000000, 5.0000000000, 0.0008737833
          37, 0.00000000e+00, 0.00000000e+00, 0.00000000e+00, 0.00000000e+00, 0.00000000e+00, 0.00000000e+00, 0.00000000e+00, 0.00000000e+00, 0.00000000e+00, 0.00000000e+00, 0.00000000e+00, 0.00000000e+00, -3.84376447e+00, -1.42752595e+00, -8.88322590e-01, 1.62677672e+00, 0.00000000e+00, 5.0000000000, 5.0000000000, 0.0008963000
          38, 0.00000000e+00, 0.00000000e+00, 0.00000000e+00, 0.00000000e+00, 0.00000000e+00, 0.00000000e+00, 0.00000000e+00, 0.00000000e+00, 0.00000000e+00, 0.00000000e+00, 0.00000000e+00, 0.00000000e+00, -3.83028103e+00, -1.56651356e+00, -9.45459303e-01, 1.63805176e+00, 0.00000000e+00, 5.0000000000, 5.0000000000, 0.0009237333
          39, 0.00000000e+00, 0.00000000e+00, 0.00000000e+00, 0.00000000e+00, 0.00000000e+00, 0.00000000e+00, 0.00000000e+00, 0.00000000e+00, 0.00000000e+00, 0.00000000e+00, 0.00000000e+00, 0.00000000e+00, -3.81895350e+00, -1.66874323e+00, -1.00300513e+00, 1.64751778e+00, 0.00000000e+00, 5.0000000000, 5.0000000000, 0.0009475167
          40, 0.00000000e+00, 0.00000000e+00, 0.00000000e+00, 0.00000000e+00, 0.00000000e+00, 0.00000000e+00, 0.00000000e+00, 0.00000000e+00, 0.00000000e+00, 0.00000000e+00, 0.00000000e+00, 0.00000000e+00, -3.80968620e+00, -1.61724197e+00, -1.06107240e+00, 1.65533135e+00, 0.00000000e+00, 5.0000000000, 5.0000000000, 0.0009690667
          41, 0.00000000e+00, 0.00000000e+00, 0.00000000e+00, 0.00000000e+00, 0.00000000e+00, 0.00000000e+00, 0.00000000e+00, 0.00000000e+00, 0.00000000e+00, 0.00000000e+00, 0.00000000e+00, 0.00000000e+00, -3.80323762e+00, -1.48077726e+00, -1.11979286e+00, 1.66073360e+00, 0.00000000e+00, 5.0000000000, 5.0000000000, 0.0009915500
          42, 0.00000000e+00, 0.00000000e+00, 0.00000000e+00, 0.00000000e+00, 0.00000000e+00, 0.00000000e+00, 0.00000000e+00, 0.00000000e+00, 0.00000000e+00, 0.00000000e+00, 0.00000000e+00, 0.00000000e+00, -3.80093599e+00, -1.35531290e+00, -1.17931760e+00, 1.66234102e+00, 0.00000000e+00, 5.0000000000, 5.0000000000, 0.0010173333
          43, 0.00000000e+00, 0.00000000e+00, 0.00000000e+00, 0.00000000e+00, 0.00000000e+00, 0.00000000e+00, 0.00000000e+00, 0.00000000e+00, 0.00000000e+00, 0.00000000e+00, 0.00000000e+00, 0.00000000e+00, -3.80441895e+00, -1.25600837e+00, -1.23981459e+00, 1.65842714e+00, 0.00000000e+00, 5.0000000000, 5.0000000000, 0.0010390500
          44, 0.00000000e+00, 0.00000000e+00, 0.00000000e+00, 0.00000000e+00, 0.00000000e+00, 0.00000000e+00, 0.00000000e+00, 0.00000000e+00, 0.00000000e+00, 0.00000000e+00, 0.00000000e+00, 0.00000000e+00, -3.81547374e+00, -1.17905563e+00, -1.30146311e+00, 1.64710151e+00, 0.00000000e+00, 5.0000000000, 5.0000000000, 0.0010600000
          45, 0.00000000e+00, 0.00000000e+00, 0.00000000e+00, 0.00000000e+00, 0.00000000e+00, 0.00000000e+00, 0.00000000e+00, 0.00000000e+00, 0.00000000e+00, 0.00000000e+00, 0.00000000e+00, 0.00000000e+00, -3.83599975e+00, -1.11987930e+00, -1.36444403e+00, 1.62635208e+00, 0.00000000e+00, 5.0000000000, 5.0000000000, 0.0010808333
          46, 0.00000000e+00, 0.00000000e+00, 0.00000000e+00, 0.00000000e+00, 0.00000000e+00, 0.00000000e+00, 0.00000000e+00, 0.00000000e+00, 0.00000000e+00, 0.00000000e+00, 0.00000000e+00, 0.00000000e+00, -3.86808396e+00, -1.07521828e+00, -1.42892518e+00, 1.59395390e+00, 0.00000000e+00, 5.0000000000, 5.0000000000, 0.0011016333
          47, 0.00000000e+00, 0.00000000e+00, 0.00000000e+00, 0.00000000e+00, 0.00000000e+00, 0.00000000e+00, 0.00000000e+00, 0.00000000e+00, 0.00000000e+00, 0.00000000e+00, 0.00000000e+00, 0.00000000e+00, -3.91417313e+00, -1.04292839e+00, -1.49504004e+00, 1.54724627e+00, 0.00000000e+00, 5.0000000000, 5.0000000000, 0.0011224000
          48, 0.00000000e+00, 0.00000000e+00, 0.00000000e+00, 0.00000000e+00, 0.00000000e+00, 0.00000000e+00, 0.00000000e+00, 0.00000000e+00, 0.00000000e+00, 0.00000000e+00, 0.00000000e+00, 0.00000000e+00, -3.97731381e+00, -1.02163889e+00, -1.56285885e+00, 1.48276219e+00, 0.00000000e+00, 5.0000000000, 5.0000000000, 0.0011432000
          49, 0.00000000e+00, 0.00000000e+00, 0.00000000e+00, 0.00000000e+00, 0.00000000e+00, 0.00000000e+00, 0.00000000e+00, 0.00000000e+00, 0.00000000e+00, 0.00000000e+00, 0.00000000e+00, 0.00000000e+00, -4.06129103e+00, -1.01051092e+00, -1.63235015e+00, 1.39572776e+00, 0.00000000e+00, 5.0000000000, 5.0000000000, 0.0011647000
          50, 0.00000000e+00, 0.00000000e+00, 0.00000000e+00, 0.00000000e+00, 0.00000000e+00, 0.00000000e+00, 0.00000000e+00, 0.00000000e+00, 0.00000000e+00, 0.00000000e+00, 0.00000000e+00, 0.00000000e+00, -4.16960934e+00, -1.00909308e+00, -1.70333176e+00, 1.28000147e+00, 0.00000000e+00, 5.0000000000, 5.0000000000, 0.0011860333
          51, 0.00000000e+00, 0.00000000e+00, 0.00000000e+00, 0.00000000e+00, 0.00000000e+00, 0.00000000e+00, 0.00000000e+00, 0.00000000e+00, 0.00000000e+00, 0.00000000e+00, 0.00000000e+00, 0.00000000e+00, -4.29700132e+00, -1.01722203e+00, -1.77541229e+00, 1.13407816e+00, 0.00000000e+00, 5.0000000000, 5.0000000000, 0.0012091333
          52, 0.00000000e+00, 0.00000000e+00, 0.00000000e+00, 0.00000000e+00, 0.00000000e+00, 0.00000000e+00, 0.00000000e+00, 0.00000000e+00, 0.00000000e+00, 0.00000000e+00, 0.00000000e+00, 0.00000000e+00, -4.39405322e+00, -1.03499412e+00, -1.84792829e+00, 1.00453952e+00, 0.00000000e+00, 5.0000000000, 5.0000000000, 0.0012297167
          53, 0.00000000e+00, 0.00000000e+00, 0.00000000e+00, 0.00000000e+00, 0.00000000e+00, 0.00000000e+00, 0.00000000e+00, 0.00000000e+00, 0.00000000e+00, 0.00000000e+00, 0.00000000e+00, 0.00000000e+00, -4.36789122e+00, -1.06276912e+00, -1.91991310e+00, 1.03056349e+00, 0.00000000e+00, 5.0000000000, 5.0000000000, 0.0012502833
          54, 0.00000000e+00, 0.00000000e+00, 0.00000000e+00, 0.00000000e+00, 0.00000000e+00, 0.00000000e+00, 0.00000000e+00, 0.00000000e+00, 0.00000000e+00, 0.00000000e+00, 0.00000000e+00, 0.00000000e+00, -4.25967249e+00, -1.10123595e+00, -1.99016964e+00, 1.16404206e+00, 0.00000000e+00, 5.0000000000, 5.0000000000, 0.0012708167
          55, 0.00000000e+00, 0.00000000e+00, 0.00000000e+00, 0.00000000e+00, 0.00000000e+00, 0.00000000e+00, 0.00000000e+00, 0.00000000e+00, 0.00000000e+00, 0.00000000e+00, 0.00000000e+00, 0.00000000e+00, -4.15354715e+00, -1.15148741e+00, -2.05742913e+00, 1.28653671e+00, 0.00000000e+00, 5.0000000000, 5.0000000000, 0.0012913500
          56, 0.00000000e+00, 0.00000000e+00, 0.00000000e+00, 0.00000000e+00, 0.00000000e+00, 0.00000000e+00, 0.00000000e+00, 0.00000000e+00, 0.00000000e+00, 0.00000000e+00, 0.00000000e+00, 0.00000000e+00, -4.07015813e+00, -1.21512003e+00, -2.12054951e+00, 1.37898561e+00, 0.00000000e+00, 5.0000000000, 5.0000000000, 0.0013144833
          57, 0.00000000e+00, 0.00000000e+00, 0.00000000e+00, 0.00000000e+00, 0.00000000e+00, 0.00000000e+00, 0.00000000e+00, 0.00000000e+00, 0.00000000e+00, 0.00000000e+00, 0.00000000e+00, 0.00000000e+00, -4.00811516e+00, -1.29442593e+00, -2.17881002e+00, 1.44659852e+00, 0.00000000e+00, 5.0000000000, 5.0000000000, 0.0013355667
          58, 0.00000000e+00, 0.00000000e+00, 0.00000000e+00, 0.00000000e+00, 0.00000000e+00, 0.00000000e+00, 0.00000000e+00, 0.00000000e+00, 0.00000000e+00, 0.00000000e+00, 0.00000000e+00, 0.00000000e+00, -3.96318873e+00, -1.39245336e+00, -2.23211787e+00, 1.49543417e+00, 0.00000000e+00, 5.0000000000, 5.0000000000, 0.0013583500
          59, 0.00000000e+00, 0.00000000e+00, 0.00000000e+00, 0.00000000e+00, 0.00000000e+00, 0.00000000e+00, 0.00000000e+00, 0.00000000e+00, 0.00000000e+00, 0.00000000e+00, 0.00000000e+00, 0.00000000e+00, -3.93170488e+00, -1.51189390e+00, -2.28099885e+00, 1.53000300e+00, 0.00000000e+00, 5.0000000000, 5.0000000000, 0.0013791833
          60, 0.00000000e+00, 0.00000000e+00, 0.00000000e+00, 0.00000000e+00, 0.00000000e+00, 0.00000000e+00, 0.00000000e+00, 0.00000000e+00, 0.00000000e+00, 0.00000000e+00, 0.00000000e+00, 0.00000000e+00, -3.91082348e+00, -1.64730556e+00, -2.32636027e+00, 1.55354954e+00, 0.00000000e+00, 5.0000000000, 5.0000000000, 0.0014004500
          61, 0.00000000e+00, 0.00000000e+00, 0.00000000e+00, 0.00000000e+00, 0.00000000e+00, 0.00000000e+00, 0.00000000e+00, 0.00000000e+00, 0.00000000e+00, 0.00000000e+00, 0.00000000e+00, 0.00000000e+00, -3.89838438e+00, -1.75364068e+00, -2.36911958e+00, 1.56843588e+00, 0.00000000e+00, 5.0000000000, 5.0000000000, 0.0014257000
          62, 0.00000000e+00, 0.00000000e+00, 0.00000000e+00, 0.00000000e+00, 0.00000000e+00, 0.00000000e+00, 0.00000000e+00, 0.00000000e+00, 0.00000000e+00, 0.00000000e+00, 0.00000000e+00, 0.00000000e+00, -3.89276925e+00, -1.74314543e+00, -2.40982941e+00, 1.57637728e+00, 0.00000000e+00, 5.0000000000, 5.0000000000, 0.0014479500
          63, 0.00000000e+00, 0.00000000e+00, 0.00000000e+00, 0.00000000e+00, 0.00000000e+00, 0.00000000e+00, 0.00000000e+00, 0.00000000e+00, 0.00000000e+00, 0.00000000e+00, 0.00000000e+00, 0.00000000e+00, -3.89282453e+00, -1.64559740e+00, -2.44839206e+00, 1.57856604e+00, 0.00000000e+00, 5.0000000000, 5.0000000000, 0.0014733000
          64, 0.00000000e+00, 0.00000000e+00, 0.00000000e+00, 0.00000000e+00, 0.00000000e+00, 0.00000000e+00, 0.00000000e+00, 0.00000000e+00, 0.00000000e+00, 0.00000000e+00, 0.00000000e+00, 0.00000000e+00, -3.89782330e+00, -1.54316974e+00, -2.48391932e+00, 1.57573657e+00, 0.00000000e+00, 5.0000000000, 5.0000000000, 0.0014988833
          65, 0.00000000e+00, 0.00000000e+00, 0.00000000e+00, 0.00000000e+00, 0.00000000e+00, 0.00000000e+00, 0.00000000e+00, 0.00000000e+00, 0.00000000e+00, 0.00000000e+00, 0.00000000e+00, 0.00000000e+00, -3.90743159e+00, -1.45936479e+00, -2.51474101e+00, 1.56821739e+00, 0.00000000e+00, 5.0000000000, 5.0000000000, 0.0015210000
          66, 0.00000000e+00, 0.00000000e+00, 0.00000000e+00, 0.00000000e+00, 0.00000000e+00, 0.00000000e+00, 0.00000000e+00, 0.00000000e+00, 0.00000000e+00, 0.00000000e+00, 0.00000000e+00, 0.00000000e+00, -3.92166485e+00, -1.39403252e+00, -2.53866683e+00, 1.55598704e+00, 0.00000000e+00, 5.0000000000, 5.0000000000, 0.0015429667
          67, 0.00000000e+00, 0.00000000e+00, 0.00000000e+00, 0.00000000e+00, 0.00000000e+00, 0.00000000e+00, 0.00000000e+00, 0.00000000e+00, 0.00000000e+00, 0.00000000e+00, 0.00000000e+00, 0.00000000e+00, -3.94085075e+00, -1.34355003e+00, -2.55370541e+00, 1.53871860e+00, 0.00000000e+00, 5.0000000000, 5.0000000000, 0.0015699500
          68, 0.00000000e+00, 0.00000000e+00, 0.00000000e+00, 0.00000000e+00, 0.00000000e+00, 0.00000000e+00, 0.00000000e+00, 0.00000000e+00, 0.00000000e+00, 0.00000000e+00, 0.00000000e+00, 0.00000000e+00, -3.96559669e+00, -1.30474219e+00, -2.55897093e+00, 1.51581394e+00, 0.00000000e+00, 5.0000000000, 5.0000000000, 0.0015924667
          69, 0.00000000e+00, 0.00000000e+00, 0.00000000e+00, 0.00000000e+00, 0.00000000e+00, 0.00000000e+00, 0.00000000e+00, 0.00000000e+00, 0.00000000e+00, 0.00000000e+00, 0.00000000e+00, 0.00000000e+00, -3.99677183e+00, -1.27529515e+00, -2.55518153e+00, 1.48641865e+00, 0.00000000e+00, 5.0000000000, 5.0000000000, 0.0016138333
          70, 0.00000000e+00, 0.00000000e+00, 0.00000000e+00, 0.00000000e+00, 0.00000000e+00, 0.00000000e+00, 0.00000000e+00, 0.00000000e+00, 0.00000000e+00, 0.00000000e+00, 0.00000000e+00, 0.00000000e+00, -4.03552289e+00, -1.25361167e+00, -2.54439497e+00, 1.44939749e+00, 0.00000000e+00, 5.0000000000, 5.0000000000, 0.0016350667
          71, 0.00000000e+00, 0.00000000e+00, 0.00000000e+00, 0.00000000e+00, 0.00000000e+00, 0.00000000e+00, 0.00000000e+00, 0.00000000e+00, 0.00000000e+00, 0.00000000e+00, 0.00000000e+00, 0.00000000e+00, -4.08333706e+00, -1.23863383e+00, -2.52923936e+00, 1.40325267e+00, 0.00000000e+00, 5.0000000000, 5.0000000000, 0.0016571833
          72, 0.00000000e+00, 0.00000000e+00, 0.00000000e+00, 0.00000000e+00, 0.00000000e+00, 0.00000000e+00, 0.00000000e+00, 0.00000000e+00, 0.00000000e+00, 0.00000000e+00, 0.00000000e+00, 0.00000000e+00, -4.14215539e+00, -1.22970850e+00, -2.51219384e+00, 1.34596439e+00, 0.00000000e+00, 5.0000000000, 5.0000000000, 0.0016784000
          73, 0.00000000e+00, 0.00000000e+00, 0.00000000e+00, 0.00000000e+00, 0.00000000e+00, 0.00000000e+00, 0.00000000e+00, 0.00000000e+00, 0.00000000e+00, 0.00000000e+00, 0.00000000e+00, 0.00000000e+00, -4.21450360e+00, -1.22649531e+00, -2.49522486e+00, 1.27473268e+00, 0.00000000e+00, 5.0000000000, 5.0000000000, 0.0016996333
          74, 0.00000000e+00, 0.00000000e+00, 0.00000000e+00, 0.00000000e+00, 0.00000000e+00, 0.00000000e+00, 0.00000000e+00, 0.00000000e+00, 0.00000000e+00, 0.00000000e+00, 0.00000000e+00, 0.00000000e+00, -4.30343300e+00, -1.22891178e+00, -2.47973651e+00, 1.18564785e+00, 0.00000000e+00, 5.0000000000, 5.0000000000, 0.0017215333
          75, 0.00000000e+00, 0.00000000e+00, 0.00000000e+00, 0.00000000e+00, 0.00000000e+00, 0.00000000e+00, 0.00000000e+00, 0.00000000e+00, 0.00000000e+00, 0.00000000e+00, 0.00000000e+00, 0.00000000e+00, -4.41099205e+00, -1.23709331e+00, -2.46668496e+00, 1.07390493e+00, 0.00000000e+00, 5.0000000000, 5.0000000000, 0.0017451833
          76, 0.00000000e+00, 0.00000000e+00, 0.00000000e+00, 0.00000000e+00, 0.00000000e+00, 0.00000000e+00, 0.00000000e+00, 0.00000000e+00, 0.00000000e+00, 0.00000000e+00, 0.00000000e+00, 0.00000000e+00, -4.52935255e+00, -1.25135810e+00, -2.45673816e+00, 9.38781924e-01, 0.00000000e+00, 5.0000000000, 5.0000000000, 0.0017664167
          77, 0.00000000e+00, 0.00000000e+00, 0.00000000e+00, 0.00000000e+00, 0.00000000e+00, 0.00000000e+00, 0.00000000e+00, 0.00000000e+00, 0.00000000e+00, 0.00000000e+00, 0.00000000e+00, 0.00000000e+00, -4.61191444e+00, -1.27222098e+00, -2.45037930e+00, 8.14199011e-01, 0.00000000e+00, 5.0000000000, 5.0000000000, 0.0017875833
          78, 0.00000000e+00, 0.00000000e+00, 0.00000000e+00, 0.00000000e+00, 0.00000000e+00, 0.00000000e+00, 0.00000000e+00, 0.00000000e+00, 0.00000000e+00, 0.00000000e+00, 0.00000000e+00, 0.00000000e+00, -4.58503109e+00, -1.30046902e+00, -2.44792909e+00, 8.12095480e-01, 0.00000000e+00, 5.0000000000, 5.0000000000, 0.0018088333
          79, 0.00000000e+00, 0.00000000e+00, 0.00000000e+00, 0.00000000e+00, 0.00000000e+00, 0.00000000e+00, 0.00000000e+00, 0.00000000e+00, 0.00000000e+00, 0.00000000e+00, 0.00000000e+00, 0.00000000e+00, -4.48247600e+00, -1.33721237e+00, -2.44970898e+00, 9.29651316e-01, 0.00000000e+00, 5.0000000000, 5.0000000000, 0.0018300333
          80, 0.00000000e+00, 0.00000000e+00, 0.00000000e+00, 0.00000000e+00, 0.00000000e+00, 0.00000000e+00, 0.00000000e+00, 0.00000000e+00, 0.00000000e+00, 0.00000000e+00, 0.00000000e+00, 0.00000000e+00, -4.37548179e+00, -1.38401132e+00, -2.45607655e+00, 1.05580037e+00, 0.00000000e+00, 5.0000000000, 5.0000000000, 0.0018512167
          81, 0.00000000e+00, 0.00000000e+00, 0.00000000e+00, 0.00000000e+00, 0.00000000e+00, 0.00000000e+00, 0.00000000e+00, 0.00000000e+00, 0.00000000e+00, 0.00000000e+00, 0.00000000e+00, 0.00000000e+00, -4.28576834e+00, -1.44307820e+00, -2.46744798e+00, 1.15839686e+00, 0.00000000e+00, 5.0000000000, 5.0000000000, 0.0018727167
          82, 0.00000000e+00, 0.00000000e+00, 0.00000000e+00, 0.00000000e+00, 0.00000000e+00, 0.00000000e+00, 0.00000000e+00, 0.00000000e+00, 0.00000000e+00, 0.00000000e+00, 0.00000000e+00, 0.00000000e+00, -4.21417478e+00, -1.51757767e+00, -2.48433052e+00, 1.23835657e+00, 0.00000000e+00, 5.0000000000, 5.0000000000, 0.0018939167
          83, 0.00000000e+00, 0.00000000e+00, 0.00000000e+00, 0.00000000e+00, 0.00000000e+00, 0.00000000e+00, 0.00000000e+00, 0.00000000e+00, 0.00000000e+00, 0.00000000e+00, 0.00000000e+00, 0.00000000e+00, -4.15791955e+00, -1.61188882e+00, -2.50737180e+00, 1.30030862e+00, 0.00000000e+00, 5.0000000000, 5.0000000000, 0.0019150500
          84, 0.00000000e+00, 0.00000000e+00, 0.00000000e+00, 0.00000000e+00, 0.00000000e+00, 0.00000000e+00, 0.00000000e+00, 0.00000000e+00, 0.00000000e+00, 0.00000000e+00, 0.00000000e+00, 0.00000000e+00, -4.11435808e+00, -1.73058324e+00, -2.53742212e+00, 1.34796878e+00, 0.00000000e+00, 5.0000000000, 5.0000000000, 0.0019368667
          85, 0.00000000e+00, 0.00000000e+00, 0.00000000e+00, 0.00000000e+00, 0.00000000e+00, 0.00000000e+00, 0.00000000e+00, 0.00000000e+00, 0.00000000e+00, 0.00000000e+00, 0.00000000e+00, 0.00000000e+00, -4.08149807e+00, -1.86779520e+00, -2.57562533e+00, 1.38393024e+00, 0.00000000e+00, 5.0000000000, 5.0000000000, 0.0019584333
          86, 0.00000000e+00, 0.00000000e+00, 0.00000000e+00, 0.00000000e+00, 0.00000000e+00, 0.00000000e+00, 0.00000000e+00, 0.00000000e+00, 0.00000000e+00, 0.00000000e+00, 0.00000000e+00, 0.00000000e+00, -4.05792497e+00, -1.95759963e+00, -2.62356559e+00, 1.40996061e+00, 0.00000000e+00, 5.0000000000, 5.0000000000, 0.0019797833
          87, 0.00000000e+00, 0.00000000e+00, 0.00000000e+00, 0.00000000e+00, 0.00000000e+00, 0.00000000e+00, 0.00000000e+00, 0.00000000e+00, 0.00000000e+00, 0.00000000e+00, 0.00000000e+00, 0.00000000e+00, -4.04266581e+00, -1.89500573e+00, -2.68351719e+00, 1.42725493e+00, 0.00000000e+00, 5.0000000000, 5.0000000000, 0.0020043500
          88, 0.00000000e+00, 0.00000000e+00, 0.00000000e+00, 0.00000000e+00, 0.00000000e+00, 0.00000000e+00, 0.00000000e+00, 0.00000000e+00, 0.00000000e+00, 0.00000000e+00, 0.00000000e+00, 0.00000000e+00, -4.03507906e+00, -1.76043267e+00, -2.75886331e+00, 1.43660643e+00, 0.00000000e+00, 5.0000000000, 5.0000000000, 0.0020255333
          89, 0.00000000e+00, 0.00000000e+00, 0.00000000e+00, 0.00000000e+00, 0.00000000e+00, 0.00000000e+00, 0.00000000e+00, 0.00000000e+00, 0.00000000e+00, 0.00000000e+00, 0.00000000e+00, 0.00000000e+00, -4.03477533e+00, -1.63882783e+00, -2.85471740e+00, 1.43851911e+00, 0.00000000e+00, 5.0000000000, 5.0000000000, 0.0020465167