TITLE = "Visualization of the volumetric solution"
VARIABLES = "x","y","Density","Momentum_x","Momentum_y","Energy","Pressure","Temperature","Mach","C<sub>p</sub>","Roe_Dissipation"
ZONE NODES= 874, ELEMENTS= 1628, DATAPACKING=POINT, ZONETYPE=FEQUADRILATERAL
0.000000e+00	-1.190476e+00	1.222196e+00	5.053689e+01	-1.545357e+01	2.547486e+05	1.014424e+05	2.891406e+02	1.268454e-01	1.655626e-01	0.000000e+00	
6.125519e-02	-1.192712e+00	1.258280e+00	4.990038e+01	-4.562869e+01	2.646888e+05	1.051488e+05	2.911102e+02	1.571084e-01	5.391144e+00	0.000000e+00	
0.000000e+00	-1.130952e+00	1.220469e+00	5.489975e+01	-1.230090e+01	2.543370e+05	1.012161e+05	2.889037e+02	1.352866e-01	-1.535402e-01	0.000000e+00	
7.772084e-02	-1.139189e+00	1.259098e+00	5.143794e+01	-5.147179e+01	2.654435e+05	1.053363e+05	2.914398e+02	1.688724e-01	5.655503e+00	0.000000e+00	
1.337729e-01	-1.200233e+00	1.264255e+00	5.172587e+01	-6.653680e+01	2.677495e+05	1.059762e+05	2.920142e+02	1.945928e-01	6.557633e+00	0.000000e+00	
4.924681e-02	-1.086043e+00	1.251388e+00	5.135029e+01	-3.949001e+01	2.626548e+05	1.043913e+05	2.906046e+02	1.514753e-01	4.323091e+00	0.000000e+00	
0.000000e+00	-1.071429e+00	1.221696e+00	5.350789e+01	-9.247999e+00	2.540938e+05	1.011548e+05	2.884388e+02	1.305481e-01	-2.399542e-01	0.000000e+00	
1.178655e-01	-1.087760e+00	1.263125e+00	5.167233e+01	-6.215424e+01	2.670865e+05	1.058001e+05	2.917900e+02	1.868668e-01	6.309461e+00	0.000000e+00	
1.558119e-01	-1.143806e+00	1.266263e+00	5.168970e+01	-7.074620e+01	2.685361e+05	1.062019e+05	2.921721e+02	2.019293e-01	6.875923e+00	0.000000e+00	
1.991378e-01	-1.202461e+00	1.269272e+00	5.143168e+01	-7.768498e+01	2.697664e+05	1.065388e+05	2.924040e+02	2.141257e-01	7.350910e+00	0.000000e+00	
4.028583e-02	-1.037472e+00	1.248194e+00	5.108407e+01	-3.266001e+01	2.613951e+05	1.039690e+05	2.901695e+02	1.422479e-01	3.727711e+00	0.000000e+00	
8.814058e-02	-1.034497e+00	1.258334e+00	5.169313e+01	-5.379386e+01	2.653053e+05	1.052375e+05	2.913433e+02	1.732698e-01	5.516169e+00	0.000000e+00	
0.000000e+00	-1.011905e+00	1.223195e+00	5.255405e+01	-9.197608e+00	2.544044e+05	1.012963e+05	2.884884e+02	1.280999e-01	-4.043307e-02	0.000000e+00	
1.509261e-01	-1.034958e+00	1.267431e+00	5.135044e+01	-7.009977e+01	2.686710e+05	1.062769e+05	2.921089e+02	2.001024e-01	6.981608e+00	0.000000e+00	
1.845955e-01	-1.089328e+00	1.269343e+00	5.150735e+01	-7.571028e+01	2.695717e+05	1.065075e+05	2.923018e+02	2.104792e-01	7.306776e+00	0.000000e+00	
2.216875e-01	-1.145461e+00	1.270274e+00	5.152939e+01	-8.020782e+01	2.701884e+05	1.066444e+05	2.924631e+02	2.189102e-01	7.499789e+00	0.000000e+00	
2.605594e-01	-1.203198e+00	1.271029e+00	5.143963e+01	-8.347181e+01	2.706455e+05	1.067455e+05	2.925663e+02	2.249707e-01	7.642278e+00	0.000000e+00	
5.064252e-02	-9.804358e-01	1.251577e+00	5.142362e+01	-3.890922e+01	2.626863e+05	1.044100e+05	2.906131e+02	1.507630e-01	4.349557e+00	0.000000e+00	
1.187048e-01	-9.809433e-01	1.264089e+00	5.119306e+01	-6.264012e+01	2.673346e+05	1.058984e+05	2.918381e+02	1.868707e-01	6.448005e+00	0.000000e+00	
0.000000e+00	-9.523810e-01	1.222783e+00	5.235342e+01	-1.015835e+01	2.543917e+05	1.012915e+05	2.885718e+02	1.280693e-01	-4.724803e-02	0.000000e+00	
1.815403e-01	-9.825609e-01	1.268211e+00	5.146833e+01	-7.515640e+01	2.693372e+05	1.064263e+05	2.923398e+02	2.095504e-01	7.192344e+00	0.000000e+00	
2.136907e-01	-1.035845e+00	1.269702e+00	5.157500e+01	-7.918064e+01	2.700071e+05	1.065963e+05	2.924627e+02	2.170846e-01	7.431905e+00	0.000000e+00	
2.474856e-01	-1.090150e+00	1.270729e+00	5.159657e+01	-8.234945e+01	2.704976e+05	1.067127e+05	2.925457e+02	2.230340e-01	7.596088e+00	0.000000e+00	
2.832427e-01	-1.146057e+00	1.271513e+00	5.149593e+01	-8.478955e+01	2.708791e+05	1.068037e+05	2.926145e+02	2.275119e-01	7.724401e+00	0.000000e+00	
3.203374e-01	-1.203475e+00	1.272065e+00	5.138427e+01	-8.649319e+01	2.711480e+05	1.068679e+05	2.926632e+02	2.306101e-01	7.814813e+00	0.000000e+00	
8.913715e-02	-9.240374e-01	1.258246e+00	5.124266e+01	-5.412009e+01	2.653845e+05	1.052708e+05	2.914560e+02	1.730745e-01	5.563214e+00	0.000000e+00	
4.409172e-02	-9.215285e-01	1.247617e+00	5.068925e+01	-3.409399e+01	2.614662e+05	1.039882e+05	2.903576e+02	1.433383e-01	3.754883e+00	0.000000e+00	
1.504155e-01	-9.295213e-01	1.267002e+00	5.121475e+01	-6.999353e+01	2.686200e+05	1.062606e+05	2.921631e+02	1.997695e-01	6.958659e+00	0.000000e+00	
0.000000e+00	-8.928571e-01	1.223606e+00	5.229142e+01	-1.178756e+01	2.547113e+05	1.014149e+05	2.887290e+02	1.286050e-01	1.267051e-01	0.000000e+00	
2.116287e-01	-9.313374e-01	1.269711e+00	5.140938e+01	-7.904877e+01	2.699992e+05	1.065991e+05	2.924685e+02	2.166195e-01	7.435896e+00	0.000000e+00	
2.427455e-01	-9.834769e-01	1.270871e+00	5.141644e+01	-8.198139e+01	2.705133e+05	1.067316e+05	2.925647e+02	2.220667e-01	7.622679e+00	0.000000e+00	
2.746844e-01	-1.036348e+00	1.271547e+00	5.147930e+01	-8.422904e+01	2.708564e+05	1.068098e+05	2.926233e+02	2.263848e-01	7.733000e+00	0.000000e+00	
3.080198e-01	-1.090474e+00	1.271964e+00	5.148912e+01	-8.593957e+01	2.710932e+05	1.068591e+05	2.926625e+02	2.296619e-01	7.802511e+00	0.000000e+00	
3.430232e-01	-1.146254e+00	1.272289e+00	5.144305e+01	-8.722590e+01	2.712748e+05	1.068979e+05	2.926940e+02	2.320711e-01	7.857167e+00	0.000000e+00	
3.794673e-01	-1.203603e+00	1.272556e+00	5.137952e+01	-8.812744e+01	2.714107e+05	1.069288e+05	2.927171e+02	2.337214e-01	7.900706e+00	0.000000e+00	
1.192443e-01	-8.783126e-01	1.262940e+00	5.125195e+01	-6.339470e+01	2.671616e+05	1.058122e+05	2.918661e+02	1.884714e-01	6.326510e+00	0.000000e+00	
6.211042e-02	-8.747950e-01	1.254676e+00	5.066631e+01	-4.212584e+01	2.635792e+05	1.047396e+05	2.908103e+02	1.536182e-01	4.814229e+00	0.000000e+00	
1.807153e-01	-8.799036e-01	1.268483e+00	5.129576e+01	-7.512855e+01	2.693795e+05	1.064470e+05	2.923339e+02	2.092307e-01	7.221476e+00	0.000000e+00	
0.000000e+00	-8.333333e-01	1.224010e+00	5.256643e+01	-1.344165e+01	2.549500e+05	1.014990e+05	2.888731e+02	1.300993e-01	2.452965e-01	0.000000e+00	
2.413025e-01	-8.807305e-01	1.270753e+00	5.137362e+01	-8.188092e+01	2.704512e+05	1.067099e+05	2.925324e+02	2.218520e-01	7.592131e+00	0.000000e+00	
2.718915e-01	-9.320399e-01	1.271435e+00	5.141666e+01	-8.401523e+01	2.708000e+05	1.067938e+05	2.926054e+02	2.259185e-01	7.710418e+00	0.000000e+00	
3.027302e-01	-9.838479e-01	1.271834e+00	5.146511e+01	-8.562262e+01	2.710376e+05	1.068457e+05	2.926556e+02	2.290367e-01	7.783567e+00	0.000000e+00	
3.343804e-01	-1.036513e+00	1.272201e+00	5.148306e+01	-8.686221e+01	2.712286e+05	1.068886e+05	2.926888e+02	2.314183e-01	7.844103e+00	0.000000e+00	
3.673922e-01	-1.090546e+00	1.272464e+00	5.146336e+01	-8.781166e+01	2.713678e+05	1.069189e+05	2.927112e+02	2.332129e-01	7.886778e+00	0.000000e+00	
4.020939e-01	-1.146303e+00	1.272696e+00	5.141960e+01	-8.852705e+01	2.714795e+05	1.069447e+05	2.927285e+02	2.345285e-01	7.923221e+00	0.000000e+00	
4.383617e-01	-1.203683e+00	1.272876e+00	5.137686e+01	-8.902429e+01	2.715609e+05	1.069644e+05	2.927409e+02	2.354270e-01	7.950880e+00	0.000000e+00	
1.497484e-01	-8.294679e-01	1.266148e+00	5.137942e+01	-7.002604e+01	2.684195e+05	1.061762e+05	2.921281e+02	2.002010e-01	6.839724e+00	0.000000e+00	
1.005299e-01	-8.329062e-01	1.260794e+00	5.149137e+01	-5.760081e+01	2.662155e+05	1.055393e+05	2.916087e+02	1.790051e-01	5.941717e+00	0.000000e+00	
5.710403e-02	-8.046601e-01	1.253373e+00	5.055553e+01	-4.056449e+01	2.632173e+05	1.046165e+05	2.907704e+02	1.512828e-01	4.640672e+00	0.000000e+00	
2.104427e-01	-8.297387e-01	1.269851e+00	5.132708e+01	-7.900132e+01	2.699869e+05	1.065969e+05	2.924300e+02	2.164154e-01	7.432741e+00	0.000000e+00	
0.000000e+00	-7.738095e-01	1.222252e+00	5.265693e+01	-1.247458e+01	2.545637e+05	1.013463e+05	2.888535e+02	1.299465e-01	3.004538e-02	0.000000e+00	
2.708649e-01	-8.301485e-01	1.271429e+00	5.136091e+01	-8.397084e+01	2.707686e+05	1.067833e+05	2.925781e+02	2.257765e-01	7.695662e+00	0.000000e+00	
3.011206e-01	-8.810891e-01	1.271965e+00	5.138352e+01	-8.556334e+01	2.710327e+05	1.068468e+05	2.926286e+02	2.288109e-01	7.785139e+00	0.000000e+00	
3.313459e-01	-9.322566e-01	1.272330e+00	5.141463e+01	-8.675520e+01	2.712238e+05	1.068909e+05	2.926653e+02	2.311132e-01	7.847292e+00	0.000000e+00	
3.619359e-01	-9.839159e-01	1.272585e+00	5.143527e+01	-8.765224e+01	2.713638e+05	1.069223e+05	2.926927e+02	2.328504e-01	7.891587e+00	0.000000e+00	
3.934023e-01	-1.036498e+00	1.272759e+00	5.144648e+01	-8.834109e+01	2.714651e+05	1.069438e+05	2.927115e+02	2.341864e-01	7.921878e+00	0.000000e+00	
4.262807e-01	-1.090512e+00	1.272874e+00	5.143412e+01	-8.886228e+01	2.715375e+05	1.069586e+05	2.927255e+02	2.351778e-01	7.942767e+00	0.000000e+00	
4.609124e-01	-1.146300e+00	1.272990e+00	5.140857e+01	-8.925316e+01	2.715981e+05	1.069724e+05	2.927368e+02	2.358980e-01	7.962272e+00	0.000000e+00	
4.971822e-01	-1.203748e+00	1.273095e+00	5.138368e+01	-8.952456e+01	2.716452e+05	1.069842e+05	2.927449e+02	2.363856e-01	7.978896e+00	0.000000e+00	
1.078093e-01	-7.769395e-01	1.261275e+00	5.149890e+01	-6.029206e+01	2.665450e+05	1.056210e+05	2.917231e+02	1.836060e-01	6.056939e+00	0.000000e+00	
1.782231e-01	-7.785095e-01	1.268758e+00	5.119555e+01	-7.488914e+01	2.693717e+05	1.064515e+05	2.922828e+02	2.086191e-01	7.227747e+00	0.000000e+00	
5.725992e-02	-7.479271e-01	1.254125e+00	5.075171e+01	-4.026382e+01	2.633464e+05	1.046693e+05	2.907426e+02	1.511196e-01	4.715059e+00	0.000000e+00	
2.403188e-01	-7.792474e-01	1.270581e+00	5.138200e+01	-8.179913e+01	2.703882e+05	1.066865e+05	2.925078e+02	2.217426e-01	7.559081e+00	0.000000e+00	
0.000000e+00	-7.142857e-01	1.222715e+00	5.284503e+01	-1.278591e+01	2.546655e+05	1.013827e+05	2.888476e+02	1.305117e-01	8.130558e-02	0.000000e+00	
3.004768e-01	-7.795293e-01	1.272003e+00	5.136755e+01	-8.558486e+01	2.710268e+05	1.068442e+05	2.926127e+02	2.288338e-01	7.781410e+00	0.000000e+00	
3.304266e-01	-8.303034e-01	1.272340e+00	5.138091e+01	-8.674536e+01	2.712083e+05	1.068855e+05	2.926482e+02	2.310593e-01	7.839720e+00	0.000000e+00	
3.603027e-01	-8.811583e-01	1.272595e+00	5.140166e+01	-8.760936e+01	2.713449e+05	1.069165e+05	2.926744e+02	2.327322e-01	7.883358e+00	0.000000e+00	
3.902972e-01	-9.322421e-01	1.272786e+00	5.142293e+01	-8.826186e+01	2.714481e+05	1.069396e+05	2.926938e+02	2.340045e-01	7.915961e+00	0.000000e+00	
4.207521e-01	-9.838421e-01	1.272916e+00	5.143704e+01	-8.875960e+01	2.715235e+05	1.069559e+05	2.927083e+02	2.349768e-01	7.938897e+00	0.000000e+00	
4.521477e-01	-1.036404e+00	1.273025e+00	5.143796e+01	-8.914552e+01	2.715827e+05	1.069689e+05	2.927191e+02	2.357186e-01	7.957288e+00	0.000000e+00	
4.850054e-01	-1.090438e+00	1.273103e+00	5.142436e+01	-8.943769e+01	2.716269e+05	1.069787e+05	2.927280e+02	2.362649e-01	7.971113e+00	0.000000e+00	
5.196612e-01	-1.146277e+00	1.273180e+00	5.140587e+01	-8.965510e+01	2.716645e+05	1.069880e+05	2.927358e+02	2.366581e-01	7.984254e+00	0.000000e+00	
5.559885e-01	-1.203804e+00	1.273250e+00	5.139125e+01	-8.980389e+01	2.716942e+05	1.069960e+05	2.927416e+02	2.369217e-01	7.995556e+00	0.000000e+00	
1.493695e-01	-7.268116e-01	1.266995e+00	5.115443e+01	-7.019376e+01	2.685764e+05	1.062397e+05	2.921073e+02	2.000803e-01	6.929195e+00	0.000000e+00	
2.099994e-01	-7.283609e-01	1.269590e+00	5.142826e+01	-7.893445e+01	2.699205e+05	1.065700e+05	2.924166e+02	2.164629e-01	7.394935e+00	0.000000e+00	
1.000749e-01	-7.205486e-01	1.259204e+00	5.122387e+01	-5.748869e+01	2.658212e+05	1.053868e+05	2.915550e+02	1.786403e-01	5.726716e+00	0.000000e+00	
6.210353e-02	-6.805846e-01	1.255217e+00	5.040319e+01	-4.221979e+01	2.636551e+05	1.047732e+05	2.907784e+02	1.532300e-01	4.861647e+00	0.000000e+00	
2.704441e-01	-7.288067e-01	1.271536e+00	5.138190e+01	-8.401055e+01	2.707816e+05	1.067873e+05	2.925641e+02	2.258656e-01	7.701202e+00	0.000000e+00	
0.000000e+00	-6.547619e-01	1.222318e+00	5.180829e+01	-1.189903e+01	2.544102e+05	1.013017e+05	2.887108e+02	1.276725e-01	-3.283246e-02	0.000000e+00	
3.300413e-01	-7.288806e-01	1.272288e+00	5.141445e+01	-8.674621e+01	2.711897e+05	1.068774e+05	2.926383e+02	2.311136e-01	7.828336e+00	0.000000e+00	
3.597632e-01	-7.795562e-01	1.272568e+00	5.140017e+01	-8.761718e+01	2.713314e+05	1.069108e+05	2.926653e+02	2.327546e-01	7.875401e+00	0.000000e+00	
3.894300e-01	-8.302721e-01	1.272789e+00	5.139962e+01	-8.826129e+01	2.714398e+05	1.069367e+05	2.926851e+02	2.339794e-01	7.911876e+00	0.000000e+00	
4.191199e-01	-8.810784e-01	1.272947e+00	5.140924e+01	-8.874218e+01	2.715194e+05	1.069552e+05	2.926994e+02	2.349082e-01	7.937955e+00	0.000000e+00	
4.490113e-01	-9.321257e-01	1.273062e+00	5.142096e+01	-8.910683e+01	2.715786e+05	1.069686e+05	2.927098e+02	2.356193e-01	7.956919e+00	0.000000e+00	
4.794222e-01	-9.837082e-01	1.273141e+00	5.142797e+01	-8.938485e+01	2.716219e+05	1.069782e+05	2.927177e+02	2.361612e-01	7.970341e+00	0.000000e+00	
5.108160e-01	-1.036276e+00	1.273202e+00	5.142742e+01	-8.959954e+01	2.716552e+05	1.069855e+05	2.927238e+02	2.365730e-01	7.980732e+00	0.000000e+00	
5.437050e-01	-1.090338e+00	1.273248e+00	5.141802e+01	-8.976057e+01	2.716807e+05	1.069914e+05	2.927294e+02	2.368714e-01	7.989020e+00	0.000000e+00	
5.784158e-01	-1.146231e+00	1.273297e+00	5.140649e+01	-8.987911e+01	2.717036e+05	1.069975e+05	2.927348e+02	2.370826e-01	7.997578e+00	0.000000e+00	
6.148064e-01	-1.203843e+00	1.273345e+00	5.139871e+01	-8.995908e+01	2.717229e+05	1.070031e+05	2.927392e+02	2.372219e-01	8.005553e+00	0.000000e+00	
1.795675e-01	-6.781294e-01	1.268130e+00	5.146628e+01	-7.511031e+01	2.692643e+05	1.063982e+05	2.922813e+02	2.094946e-01	7.152717e+00	0.000000e+00	
1.186510e-01	-6.779649e-01	1.263240e+00	5.141057e+01	-6.347119e+01	2.671938e+05	1.058213e+05	2.918216e+02	1.888091e-01	6.339224e+00	0.000000e+00	
2.402237e-01	-6.782817e-01	1.270818e+00	5.140486e+01	-8.185286e+01	2.704299e+05	1.067017e+05	2.924949e+02	2.218384e-01	7.580536e+00	0.000000e+00	
4.273980e-02	-6.286916e-01	1.250531e+00	4.982191e+01	-3.463104e+01	2.620653e+05	1.042373e+05	2.903749e+02	1.420337e-01	4.106034e+00	0.000000e+00	
3.001873e-01	-6.782723e-01	1.271917e+00	5.143380e+01	-8.556631e+01	2.710000e+05	1.068327e+05	2.926011e+02	2.288955e-01	7.765312e+00	0.000000e+00	
8.757344e-02	-6.317087e-01	1.257798e+00	5.205126e+01	-5.411915e+01	2.652786e+05	1.052149e+05	2.914049e+02	1.744467e-01	5.484368e+00	0.000000e+00	
0.000000e+00	-5.952381e-01	1.221738e+00	5.211001e+01	-8.455286e+00	2.541664e+05	1.012103e+05	2.885873e+02	1.268816e-01	-1.616533e-01	0.000000e+00	
3.890643e-01	-7.288012e-01	1.272788e+00	5.141709e+01	-8.828387e+01	2.714379e+05	1.069350e+05	2.926807e+02	2.340462e-01	7.909495e+00	0.000000e+00	
3.594554e-01	-6.781701e-01	1.272597e+00	5.143334e+01	-8.764115e+01	2.713366e+05	1.069118e+05	2.926611e+02	2.328367e-01	7.876707e+00	0.000000e+00	
4.186159e-01	-7.794575e-01	1.272929e+00	5.141017e+01	-8.875711e+01	2.715133e+05	1.069523e+05	2.926957e+02	2.349437e-01	7.933894e+00	0.000000e+00	
4.481631e-01	-8.301470e-01	1.273039e+00	5.141202e+01	-8.910826e+01	2.715709e+05	1.069656e+05	2.927070e+02	2.356173e-01	7.952696e+00	0.000000e+00	
4.777876e-01	-8.809307e-01	1.273123e+00	5.141792e+01	-8.937207e+01	2.716146e+05	1.069757e+05	2.927153e+02	2.361287e-01	7.966934e+00	0.000000e+00	
5.076593e-01	-9.319619e-01	1.273189e+00	5.142389e+01	-8.957363e+01	2.716482e+05	1.069835e+05	2.927214e+02	2.365210e-01	7.977897e+00	0.000000e+00	
5.380853e-01	-9.835367e-01	1.273238e+00	5.142617e+01	-8.972841e+01	2.716737e+05	1.069894e+05	2.927260e+02	2.368199e-01	7.986178e+00	0.000000e+00	
5.695188e-01	-1.036107e+00	1.273282e+00	5.142325e+01	-8.984813e+01	2.716945e+05	1.069944e+05	2.927298e+02	2.370449e-01	7.993247e+00	0.000000e+00	
6.024616e-01	-1.090187e+00	1.273317e+00	5.141560e+01	-8.993721e+01	2.717111e+05	1.069987e+05	2.927335e+02	2.372051e-01	7.999352e+00	0.000000e+00	
6.372248e-01	-1.146124e+00	1.273354e+00	5.140810e+01	-9.000168e+01	2.717266e+05	1.070033e+05	2.927374e+02	2.373163e-01	8.005755e+00	0.000000e+00	
6.736503e-01	-1.203831e+00	1.273391e+00	5.140451e+01	-9.004409e+01	2.717402e+05	1.070076e+05	2.927408e+02	2.373883e-01	8.011870e+00	0.000000e+00	
1.475798e-01	-6.289709e-01	1.266325e+00	5.164117e+01	-6.973418e+01	2.684021e+05	1.061716e+05	2.920745e+02	2.000079e-01	6.833183e+00	0.000000e+00	
2.091919e-01	-6.281306e-01	1.269807e+00	5.149264e+01	-7.885607e+01	2.699410e+05	1.065794e+05	2.923923e+02	2.163649e-01	7.408091e+00	0.000000e+00	
2.699550e-01	-6.277900e-01	1.271467e+00	5.147176e+01	-8.395345e+01	2.707541e+05	1.067762e+05	2.925498e+02	2.258794e-01	7.685642e+00	0.000000e+00	
4.741789e-02	-5.813061e-01	1.251292e+00	5.127354e+01	-3.824708e+01	2.626209e+05	1.043943e+05	2.906356e+02	1.495809e-01	4.327419e+00	0.000000e+00	
3.296921e-01	-6.275796e-01	1.272337e+00	5.146813e+01	-8.676496e+01	2.712008e+05	1.068806e+05	2.926356e+02	2.312055e-01	7.832766e+00	0.000000e+00	
1.113270e-01	-5.796689e-01	1.262048e+00	5.202383e+01	-6.134306e+01	2.667650e+05	1.056808e+05	2.917095e+02	1.861374e-01	6.141181e+00	0.000000e+00	
0.000000e+00	-5.357143e-01	1.222808e+00	5.373885e+01	-9.135999e+00	2.544000e+05	1.012740e+05	2.885161e+02	1.309132e-01	-7.190396e-02	0.000000e+00	
4.478028e-01	-7.286571e-01	1.273001e+00	5.143347e+01	-8.912150e+01	2.715654e+05	1.069627e+05	2.927075e+02	2.356749e-01	7.948524e+00	0.000000e+00	
4.183050e-01	-6.780231e-01	1.272886e+00	5.145250e+01	-8.876957e+01	2.715083e+05	1.069492e+05	2.926971e+02	2.350244e-01	7.929530e+00	0.000000e+00	
3.887572e-01	-6.274006e-01	1.272746e+00	5.148359e+01	-8.829269e+01	2.714354e+05	1.069327e+05	2.926840e+02	2.341468e-01	7.906189e+00	0.000000e+00	
4.772920e-01	-7.793014e-01	1.273091e+00	5.142344e+01	-8.938209e+01	2.716095e+05	1.069733e+05	2.927159e+02	2.361605e-01	7.963463e+00	0.000000e+00	
5.068148e-01	-8.299739e-01	1.273161e+00	5.142064e+01	-8.957632e+01	2.716437e+05	1.069816e+05	2.927225e+02	2.365272e-01	7.975237e+00	0.000000e+00	
5.364529e-01	-8.807377e-01	1.273215e+00	5.142168e+01	-8.972255e+01	2.716697e+05	1.069880e+05	2.927275e+02	2.368069e-01	7.984177e+00	0.000000e+00	
5.663726e-01	-9.317461e-01	1.273257e+00	5.142334e+01	-8.983437e+01	2.716898e+05	1.069929e+05	2.927314e+02	2.370216e-01	7.991138e+00	0.000000e+00	
5.968681e-01	-9.832958e-01	1.273290e+00	5.142300e+01	-8.991998e+01	2.717055e+05	1.069968e+05	2.927345e+02	2.371840e-01	7.996608e+00	0.000000e+00	
6.283716e-01	-1.035841e+00	1.273319e+00	5.141980e+01	-8.998571e+01	2.717186e+05	1.070003e+05	2.927372e+02	2.373044e-01	8.001515e+00	0.000000e+00	
6.613607e-01	-1.089904e+00	1.273346e+00	5.141426e+01	-9.003391e+01	2.717298e+05	1.070035e+05	2.927400e+02	2.373878e-01	8.006109e+00	0.000000e+00	
6.961191e-01	-1.145857e+00	1.273375e+00	5.140978e+01	-9.006817e+01	2.717409e+05	1.070071e+05	2.927430e+02	2.374442e-01	8.011126e+00	0.000000e+00	
7.324964e-01	-1.203690e+00	1.273404e+00	5.140883e+01	-9.009007e+01	2.717510e+05	1.070106e+05	2.927459e+02	2.374801e-01	8.016044e+00	0.000000e+00	
1.761715e-01	-5.781454e-01	1.268354e+00	5.156045e+01	-7.441869e+01	2.692374e+05	1.064025e+05	2.922414e+02	2.082847e-01	7.158666e+00	0.000000e+00	
2.388485e-01	-5.774051e-01	1.270758e+00	5.153009e+01	-8.169152e+01	2.703969e+05	1.066905e+05	2.924780e+02	2.216949e-01	7.564791e+00	0.000000e+00	
2.995771e-01	-5.770297e-01	1.271982e+00	5.151721e+01	-8.555405e+01	2.710173e+05	1.068388e+05	2.926026e+02	2.289577e-01	7.773784e+00	0.000000e+00	
6.592765e-02	-5.300999e-01	1.257329e+00	5.172968e+01	-4.720160e+01	2.645870e+05	1.050548e+05	2.910698e+02	1.628459e-01	5.258550e+00	0.000000e+00	
3.590860e-01	-5.767919e-01	1.272564e+00	5.152734e+01	-8.764244e+01	2.713393e+05	1.069113e+05	2.926673e+02	2.329519e-01	7.876014e+00	0.000000e+00	
1.400438e-01	-5.278440e-01	1.265214e+00	5.186100e+01	-6.772561e+01	2.679895e+05	1.060456e+05	2.919839e+02	1.968175e-01	6.655507e+00	0.000000e+00	
3.296455e-02	-4.762683e-01	1.246235e+00	5.179221e+01	-3.136494e+01	2.609760e+05	1.038020e+05	2.901591e+02	1.422790e-01	3.492331e+00	0.000000e+00	
5.064470e-01	-7.284785e-01	1.273128e+00	5.144077e+01	-8.958781e+01	2.716411e+05	1.069799e+05	2.927254e+02	2.365780e-01	7.972816e+00	0.000000e+00	
4.769741e-01	-6.778531e-01	1.273066e+00	5.145814e+01	-8.939536e+01	2.716099e+05	1.069725e+05	2.927195e+02	2.362297e-01	7.962350e+00	0.000000e+00	
4.475002e-01	-6.272260e-01	1.272988e+00	5.148548e+01	-8.913290e+01	2.715700e+05	1.069633e+05	2.927122e+02	2.357575e-01	7.949436e+00	0.000000e+00	
4.179945e-01	-5.766002e-01	1.272891e+00	5.152265e+01	-8.877306e+01	2.715180e+05	1.069519e+05	2.927032e+02	2.351085e-01	7.933277e+00	0.000000e+00	
5.359492e-01	-7.791025e-01	1.273179e+00	5.143098e+01	-8.972975e+01	2.716656e+05	1.069859e+05	2.927303e+02	2.368374e-01	7.981297e+00	0.000000e+00	
5.655291e-01	-8.297420e-01	1.273220e+00	5.142659e+01	-8.983569e+01	2.716851e+05	1.069909e+05	2.927344e+02	2.370336e-01	7.988260e+00	0.000000e+00	
5.952748e-01	-8.804585e-01	1.273253e+00	5.142490e+01	-8.991576e+01	2.717006e+05	1.069949e+05	2.927377e+02	2.371833e-01	7.993914e+00	0.000000e+00	
6.253380e-01	-9.314052e-01	1.273281e+00	5.142374e+01	-8.997719e+01	2.717132e+05	1.069983e+05	2.927405e+02	2.372977e-01	7.998674e+00	0.000000e+00	
6.559649e-01	-9.828808e-01	1.273305e+00	5.142157e+01	-9.002416e+01	2.717236e+05	1.070012e+05	2.927428e+02	2.373832e-01	8.002768e+00	0.000000e+00	
6.875261e-01	-1.035344e+00	1.273329e+00	5.141803e+01	-9.005996e+01	2.717329e+05	1.070040e+05	2.927451e+02	2.374450e-01	8.006715e+00	0.000000e+00	
7.204717e-01	-1.089322e+00	1.273352e+00	5.141382e+01	-9.008577e+01	2.717414e+05	1.070067e+05	2.927474e+02	2.374864e-01	8.010596e+00	0.000000e+00	
7.550260e-01	-1.145221e+00	1.273376e+00	5.141124e+01	-9.010379e+01	2.717500e+05	1.070097e+05	2.927499e+02	2.375137e-01	8.014822e+00	0.000000e+00	
7.911598e-01	-1.203221e+00	1.273401e+00	5.141200e+01	-9.011497e+01	2.717581e+05	1.070127e+05	2.927522e+02	2.375312e-01	8.018979e+00	0.000000e+00	
2.063768e-01	-5.269342e-01	1.270019e+00	5.156405e+01	-7.845508e+01	2.699494e+05	1.065918e+05	2.923773e+02	2.156537e-01	7.425547e+00	0.000000e+00	
2.688695e-01	-5.264689e-01	1.271438e+00	5.160728e+01	-8.387234e+01	2.707544e+05	1.067763e+05	2.925565e+02	2.258861e-01	7.685669e+00	0.000000e+00	
3.291857e-01	-5.261855e-01	1.272352e+00	5.158000e+01	-8.675024e+01	2.712166e+05	1.068855e+05	2.926455e+02	2.313007e-01	7.839677e+00	0.000000e+00	
1.034428e-01	-4.762907e-01	1.261384e+00	5.200361e+01	-5.841209e+01	2.663951e+05	1.055883e+05	2.916076e+02	1.811134e-01	6.010723e+00	0.000000e+00	
0.000000e+00	-4.761905e-01	1.220787e+00	5.187968e+01	-5.161114e+00	2.536327e+05	1.010078e+05	2.882339e+02	1.254799e-01	-4.472542e-01	0.000000e+00	
3.884149e-01	-5.259755e-01	1.272765e+00	5.156939e+01	-8.827961e+01	2.714487e+05	1.069370e+05	2.926914e+02	2.342135e-01	7.912269e+00	0.000000e+00	
1.728825e-01	-4.760883e-01	1.268664e+00	5.161588e+01	-7.383693e+01	2.692605e+05	1.064247e+05	2.922309e+02	2.072120e-01	7.190055e+00	0.000000e+00	
6.545482e-02	-4.228226e-01	1.256924e+00	5.138481e+01	-4.654421e+01	2.644546e+05	1.050170e+05	2.910589e+02	1.612790e-01	5.205334e+00	0.000000e+00	
0.000000e+00	-4.166667e-01	1.223372e+00	5.369631e+01	-8.811852e+00	2.544787e+05	1.013074e+05	2.884781e+02	1.306324e-01	-2.479636e-02	0.000000e+00	
5.651257e-01	-7.282484e-01	1.273186e+00	5.144695e+01	-8.984245e+01	2.716825e+05	1.069893e+05	2.927378e+02	2.370751e-01	7.986030e+00	0.000000e+00	
5.356082e-01	-6.776564e-01	1.273148e+00	5.146361e+01	-8.973648e+01	2.716646e+05	1.069848e+05	2.927342e+02	2.368921e-01	7.979662e+00	0.000000e+00	
5.061330e-01	-6.270438e-01	1.273105e+00	5.148744e+01	-8.959140e+01	2.716425e+05	1.069796e+05	2.927299e+02	2.366408e-01	7.972381e+00	0.000000e+00	
4.766693e-01	-5.764200e-01	1.273056e+00	5.151803e+01	-8.939205e+01	2.716149e+05	1.069736e+05	2.927247e+02	2.362912e-01	7.963907e+00	0.000000e+00	
4.471936e-01	-5.257913e-01	1.273001e+00	5.155280e+01	-8.911835e+01	2.715798e+05	1.069666e+05	2.927182e+02	2.358010e-01	7.954054e+00	0.000000e+00	
5.947337e-01	-7.788131e-01	1.273219e+00	5.143636e+01	-8.992039e+01	2.716972e+05	1.069932e+05	2.927409e+02	2.372106e-01	7.991501e+00	0.000000e+00	
6.245056e-01	-8.293623e-01	1.273247e+00	5.143017e+01	-8.997850e+01	2.717093e+05	1.069965e+05	2.927436e+02	2.373128e-01	7.996215e+00	0.000000e+00	
6.545290e-01	-8.799588e-01	1.273270e+00	5.142639e+01	-9.002234e+01	2.717193e+05	1.069994e+05	2.927460e+02	2.373903e-01	8.000243e+00	0.000000e+00	
6.848829e-01	-9.307646e-01	1.273291e+00	5.142347e+01	-9.005582e+01	2.717279e+05	1.070019e+05	2.927481e+02	2.374487e-01	8.003842e+00	0.000000e+00	
7.156497e-01	-9.820872e-01	1.273311e+00	5.142040e+01	-9.008113e+01	2.717354e+05	1.070043e+05	2.927501e+02	2.374911e-01	8.007152e+00	0.000000e+00	
7.470785e-01	-1.034387e+00	1.273331e+00	5.141697e+01	-9.010020e+01	2.717424e+05	1.070066e+05	2.927519e+02	2.375207e-01	8.010490e+00	0.000000e+00	
7.797762e-01	-1.088161e+00	1.273351e+00	5.141384e+01	-9.011376e+01	2.717492e+05	1.070090e+05	2.927538e+02	2.375395e-01	8.013878e+00	0.000000e+00	
8.134941e-01	-1.143761e+00	1.273374e+00	5.141261e+01	-9.012316e+01	2.717563e+05	1.070117e+05	2.927558e+02	2.375518e-01	8.017562e+00	0.000000e+00	
8.488957e-01	-1.201868e+00	1.273395e+00	5.141419e+01	-9.012878e+01	2.717629e+05	1.070141e+05	2.927578e+02	2.375601e-01	8.021072e+00	0.000000e+00	
2.375247e-01	-4.758091e-01	1.270729e+00	5.170386e+01	-8.151372e+01	2.704008e+05	1.066938e+05	2.924936e+02	2.215624e-01	7.569392e+00	0.000000e+00	
2.989788e-01	-4.755578e-01	1.272057e+00	5.163505e+01	-8.551396e+01	2.710471e+05	1.068499e+05	2.926159e+02	2.289998e-01	7.789536e+00	0.000000e+00	
3.587163e-01	-4.753470e-01	1.272604e+00	5.161652e+01	-8.760197e+01	2.713561e+05	1.069177e+05	2.926757e+02	2.329649e-01	7.885084e+00	0.000000e+00	
1.394287e-01	-4.248092e-01	1.266049e+00	5.165451e+01	-6.747814e+01	2.681702e+05	1.061273e+05	2.920163e+02	1.959343e-01	6.770724e+00	0.000000e+00	
4.176831e-01	-4.751603e-01	1.272932e+00	5.158633e+01	-8.874348e+01	2.715332e+05	1.069578e+05	2.927100e+02	2.351129e-01	7.941620e+00	0.000000e+00	
2.058863e-01	-4.250553e-01	1.269889e+00	5.171685e+01	-7.831603e+01	2.699437e+05	1.065902e+05	2.924033e+02	2.155926e-01	7.423422e+00	0.000000e+00	
4.590816e-02	-3.727387e-01	1.250506e+00	5.082723e+01	-3.707609e+01	2.622736e+05	1.042764e+05	2.904897e+02	1.472449e-01	4.161162e+00	0.000000e+00	
1.094478e-01	-3.743066e-01	1.262426e+00	5.148045e+01	-6.002026e+01	2.667677e+05	1.057165e+05	2.917206e+02	1.829340e-01	6.191515e+00	0.000000e+00	
6.239841e-01	-7.278817e-01	1.273220e+00	5.145032e+01	-8.998308e+01	2.717073e+05	1.069952e+05	2.927461e+02	2.373487e-01	7.994367e+00	0.000000e+00	
5.943171e-01	-6.773907e-01	1.273198e+00	5.146539e+01	-8.992511e+01	2.716970e+05	1.069925e+05	2.927439e+02	2.372558e-01	7.990524e+00	0.000000e+00	
5.647715e-01	-6.268323e-01	1.273174e+00	5.148590e+01	-8.984492e+01	2.716850e+05	1.069896e+05	2.927414e+02	2.371252e-01	7.986414e+00	0.000000e+00	
5.352864e-01	-5.762326e-01	1.273147e+00	5.151151e+01	-8.973356e+01	2.716703e+05	1.069864e+05	2.927387e+02	2.369391e-01	7.981930e+00	0.000000e+00	
5.058253e-01	-5.256122e-01	1.273118e+00	5.154061e+01	-8.957966e+01	2.716517e+05	1.069828e+05	2.927356e+02	2.366735e-01	7.976824e+00	0.000000e+00	
4.763669e-01	-4.749830e-01	1.273082e+00	5.156946e+01	-8.936888e+01	2.716271e+05	1.069783e+05	2.927319e+02	2.362965e-01	7.970596e+00	0.000000e+00	
6.538686e-01	-7.782868e-01	1.273242e+00	5.143987e+01	-9.002539e+01	2.717161e+05	1.069977e+05	2.927481e+02	2.374161e-01	7.997941e+00	0.000000e+00	
6.840910e-01	-8.286196e-01	1.273262e+00	5.143282e+01	-9.005686e+01	2.717239e+05	1.070001e+05	2.927500e+02	2.374662e-01	8.001287e+00	0.000000e+00	
7.146897e-01	-8.789660e-01	1.273281e+00	5.142781e+01	-9.008057e+01	2.717309e+05	1.070023e+05	2.927517e+02	2.375034e-01	8.004424e+00	0.000000e+00	
7.455077e-01	-9.295282e-01	1.273299e+00	5.142372e+01	-9.009861e+01	2.717373e+05	1.070045e+05	2.927533e+02	2.375306e-01	8.007425e+00	0.000000e+00	
7.761311e-01	-9.806180e-01	1.273317e+00	5.142006e+01	-9.011199e+01	2.717431e+05	1.070065e+05	2.927548e+02	2.375491e-01	8.010323e+00	0.000000e+00	
8.066892e-01	-1.032705e+00	1.273336e+00	5.141674e+01	-9.012199e+01	2.717490e+05	1.070087e+05	2.927562e+02	2.375610e-01	8.013352e+00	0.000000e+00	
8.396453e-01	-1.086095e+00	1.273355e+00	5.141427e+01	-9.012918e+01	2.717548e+05	1.070109e+05	2.927578e+02	2.375683e-01	8.016425e+00	0.000000e+00	
8.693435e-01	-1.140328e+00	1.273375e+00	5.141353e+01	-9.013422e+01	2.717606e+05	1.070131e+05	2.927594e+02	2.375732e-01	8.019547e+00	0.000000e+00	
9.036029e-01	-1.197767e+00	1.273393e+00	5.141581e+01	-9.013783e+01	2.717663e+05	1.070152e+05	2.927611e+02	2.375789e-01	8.022582e+00	0.000000e+00	
2.684994e-01	-4.249155e-01	1.271604e+00	5.167668e+01	-8.380478e+01	2.708027e+05	1.067964e+05	2.925737e+02	2.258016e-01	7.714097e+00	0.000000e+00	
3.288720e-01	-4.247185e-01	1.272403e+00	5.164628e+01	-8.668127e+01	2.712326e+05	1.068928e+05	2.926536e+02	2.312301e-01	7.849927e+00	0.000000e+00	
3.881167e-01	-4.245297e-01	1.272835e+00	5.161108e+01	-8.823372e+01	2.714685e+05	1.069456e+05	2.926989e+02	2.341552e-01	7.924367e+00	0.000000e+00	
0.000000e+00	-3.571429e-01	1.222310e+00	5.189496e+01	-8.421301e+00	2.541430e+05	1.012049e+05	2.884369e+02	1.263322e-01	-1.692835e-01	0.000000e+00	
1.747082e-01	-3.745773e-01	1.268794e+00	5.161141e+01	-7.416086e+01	2.693417e+05	1.064498e+05	2.922701e+02	2.077820e-01	7.225472e+00	0.000000e+00	
4.468962e-01	-4.243512e-01	1.273034e+00	5.159277e+01	-8.908440e+01	2.715938e+05	1.069726e+05	2.927270e+02	2.357700e-01	7.962432e+00	0.000000e+00	
2.378722e-01	-3.743837e-01	1.270887e+00	5.168592e+01	-8.148281e+01	2.704461e+05	1.067132e+05	2.925106e+02	2.214466e-01	7.596760e+00	0.000000e+00	
3.825485e-02	-3.273662e-01	1.247179e+00	5.002854e+01	-3.170176e+01	2.611107e+05	1.038817e+05	2.901622e+02	1.390666e-01	3.604732e+00	0.000000e+00	
8.282828e-02	-3.262161e-01	1.257132e+00	5.152236e+01	-5.244137e+01	2.649588e+05	1.051237e+05	2.913065e+02	1.709146e-01	5.355745e+00	0.000000e+00	
1.438113e-01	-3.250824e-01	1.267063e+00	5.145047e+01	-6.879988e+01	2.684931e+05	1.062322e+05	2.920709e+02	1.979036e-01	6.918661e+00	0.000000e+00	
6.832313e-01	-7.271778e-01	1.273246e+00	5.145304e+01	-9.005997e+01	2.717219e+05	1.069989e+05	2.927502e+02	2.374982e-01	7.999561e+00	0.000000e+00	