TITLE = "Visualization of the volumetric solution"
VARIABLES = "x","y","Density","Momentum_x","Momentum_y","Energy","Pressure","Temperature","Mach","C<sub>p</sub>","Roe_Dissipation"
ZONE NODES= 1527, ELEMENTS= 2892, DATAPACKING=POINT, ZONETYPE=FEQUADRILATERAL
4.569681e-02	2.552500e-03	1.228222e+00	6.057691e+01	-1.520557e+01	2.558105e+05	1.016890e+05	2.884215e+02	1.493605e-01	3.036710e-01	0.000000e+00	
4.870272e-02	2.261279e-03	1.228214e+00	6.057790e+01	-1.519376e+01	2.558089e+05	1.016884e+05	2.884216e+02	1.493569e-01	3.031778e-01	0.000000e+00	
4.715268e-02	4.992075e-03	1.228210e+00	6.056445e+01	-1.518874e+01	2.558066e+05	1.016878e+05	2.884207e+02	1.493235e-01	3.026359e-01	0.000000e+00	
4.569681e-02	5.105000e-03	1.228233e+00	6.057463e+01	-1.520335e+01	2.558120e+05	1.016897e+05	2.884207e+02	1.493528e-01	3.042386e-01	0.000000e+00	
5.001924e-02	4.608881e-03	1.228216e+00	6.055638e+01	-1.518510e+01	2.558075e+05	1.016883e+05	2.884209e+02	1.493019e-01	3.030890e-01	0.000000e+00	
5.165755e-02	2.087372e-03	1.228211e+00	6.057462e+01	-1.518908e+01	2.558080e+05	1.016881e+05	2.884215e+02	1.493469e-01	3.029480e-01	0.000000e+00	
4.569681e-02	7.657500e-03	1.228193e+00	6.053879e+01	-1.517441e+01	2.558017e+05	1.016864e+05	2.884206e+02	1.492576e-01	3.014684e-01	0.000000e+00	
4.839245e-02	7.039489e-03	1.228211e+00	6.054017e+01	-1.518297e+01	2.558055e+05	1.016878e+05	2.884206e+02	1.492636e-01	3.027090e-01	0.000000e+00	
5.132368e-02	6.782341e-03	1.228213e+00	6.054245e+01	-1.518262e+01	2.558059e+05	1.016880e+05	2.884205e+02	1.492685e-01	3.027957e-01	0.000000e+00	
5.281101e-02	4.443529e-03	1.228214e+00	6.055329e+01	-1.518359e+01	2.558068e+05	1.016881e+05	2.884208e+02	1.492941e-01	3.029345e-01	0.000000e+00	
5.430705e-02	2.012856e-03	1.228212e+00	6.056995e+01	-1.518662e+01	2.558078e+05	1.016882e+05	2.884214e+02	1.493346e-01	3.029675e-01	0.000000e+00	
4.754925e-02	8.924095e-03	1.228225e+00	6.053983e+01	-1.518550e+01	2.558081e+05	1.016889e+05	2.884203e+02	1.492627e-01	3.035794e-01	0.000000e+00	
4.993181e-02	8.913301e-03	1.228214e+00	6.054471e+01	-1.518480e+01	2.558059e+05	1.016879e+05	2.884202e+02	1.492750e-01	3.027466e-01	0.000000e+00	
4.569681e-02	1.021000e-02	1.228222e+00	6.054587e+01	-1.518681e+01	2.558075e+05	1.016885e+05	2.884201e+02	1.492780e-01	3.032620e-01	0.000000e+00	
5.263627e-02	8.911979e-03	1.228217e+00	6.054498e+01	-1.518396e+01	2.558066e+05	1.016882e+05	2.884202e+02	1.492748e-01	3.029725e-01	0.000000e+00	
5.403369e-02	6.706913e-03	1.228215e+00	6.054355e+01	-1.518284e+01	2.558062e+05	1.016881e+05	2.884204e+02	1.492710e-01	3.028972e-01	0.000000e+00	
5.544590e-02	4.384821e-03	1.228214e+00	6.055110e+01	-1.518297e+01	2.558067e+05	1.016881e+05	2.884208e+02	1.492886e-01	3.029260e-01	0.000000e+00	
5.686191e-02	1.979186e-03	1.228213e+00	6.056613e+01	-1.518578e+01	2.558076e+05	1.016882e+05	2.884212e+02	1.493252e-01	3.029726e-01	0.000000e+00	
4.834233e-02	1.077824e-02	1.228212e+00	6.055386e+01	-1.518516e+01	2.558058e+05	1.016877e+05	2.884200e+02	1.492967e-01	3.025815e-01	0.000000e+00	
5.121567e-02	1.099781e-02	1.228215e+00	6.055115e+01	-1.518390e+01	2.558066e+05	1.016880e+05	2.884202e+02	1.492893e-01	3.028705e-01	0.000000e+00	
4.707857e-02	1.280660e-02	1.228220e+00	6.056048e+01	-1.518580e+01	2.558081e+05	1.016885e+05	2.884203e+02	1.493114e-01	3.032371e-01	0.000000e+00	
5.526542e-02	8.924226e-03	1.228215e+00	6.054506e+01	-1.518273e+01	2.558063e+05	1.016881e+05	2.884202e+02	1.492744e-01	3.028842e-01	0.000000e+00	
5.390759e-02	1.107419e-02	1.228215e+00	6.054852e+01	-1.518203e+01	2.558063e+05	1.016880e+05	2.884203e+02	1.492822e-01	3.028403e-01	0.000000e+00	
5.662161e-02	6.693272e-03	1.228215e+00	6.054389e+01	-1.518231e+01	2.558062e+05	1.016881e+05	2.884204e+02	1.492715e-01	3.028863e-01	0.000000e+00	
5.799120e-02	4.368980e-03	1.228214e+00	6.054965e+01	-1.518288e+01	2.558066e+05	1.016881e+05	2.884206e+02	1.492852e-01	3.029285e-01	0.000000e+00	
5.937870e-02	1.961191e-03	1.228212e+00	6.056187e+01	-1.518538e+01	2.558071e+05	1.016880e+05	2.884211e+02	1.493152e-01	3.028646e-01	0.000000e+00	
4.978548e-02	1.307841e-02	1.228216e+00	6.055379e+01	-1.518114e+01	2.558069e+05	1.016881e+05	2.884204e+02	1.492937e-01	3.029568e-01	0.000000e+00	
4.569681e-02	1.276250e-02	1.228234e+00	6.056415e+01	-1.519871e+01	2.558118e+05	1.016898e+05	2.884209e+02	1.493256e-01	3.043533e-01	0.000000e+00	
5.253438e-02	1.319061e-02	1.228215e+00	6.054868e+01	-1.517974e+01	2.558065e+05	1.016881e+05	2.884205e+02	1.492811e-01	3.028941e-01	0.000000e+00	
4.826072e-02	1.533339e-02	1.228208e+00	6.054550e+01	-1.517775e+01	2.558050e+05	1.016875e+05	2.884206e+02	1.492734e-01	3.024588e-01	0.000000e+00	
4.569681e-02	1.531500e-02	1.228197e+00	6.055259e+01	-1.518192e+01	2.558028e+05	1.016865e+05	2.884203e+02	1.492937e-01	3.015937e-01	0.000000e+00	
5.648839e-02	1.111690e-02	1.228215e+00	6.054614e+01	-1.518108e+01	2.558063e+05	1.016881e+05	2.884204e+02	1.492760e-01	3.028898e-01	0.000000e+00	
5.780733e-02	8.945950e-03	1.228216e+00	6.054427e+01	-1.518184e+01	2.558063e+05	1.016881e+05	2.884203e+02	1.492721e-01	3.029070e-01	0.000000e+00	
5.516614e-02	1.324643e-02	1.228214e+00	6.054572e+01	-1.517948e+01	2.558063e+05	1.016881e+05	2.884206e+02	1.492741e-01	3.028980e-01	0.000000e+00	
5.913759e-02	6.702326e-03	1.228215e+00	6.054370e+01	-1.518193e+01	2.558062e+05	1.016881e+05	2.884203e+02	1.492708e-01	3.028994e-01	0.000000e+00	
6.049291e-02	4.368829e-03	1.228214e+00	6.054781e+01	-1.518270e+01	2.558065e+05	1.016881e+05	2.884206e+02	1.492808e-01	3.029088e-01	0.000000e+00	
6.188005e-02	1.948882e-03	1.228213e+00	6.055873e+01	-1.518437e+01	2.558072e+05	1.016882e+05	2.884210e+02	1.493072e-01	3.029614e-01	0.000000e+00	
5.113821e-02	1.534966e-02	1.228212e+00	6.054292e+01	-1.517775e+01	2.558057e+05	1.016879e+05	2.884207e+02	1.492669e-01	3.027548e-01	0.000000e+00	
5.383170e-02	1.537301e-02	1.228213e+00	6.054267e+01	-1.517852e+01	2.558060e+05	1.016880e+05	2.884208e+02	1.492666e-01	3.028448e-01	0.000000e+00	
4.976722e-02	1.759851e-02	1.228215e+00	6.054070e+01	-1.517685e+01	2.558063e+05	1.016882e+05	2.884208e+02	1.492609e-01	3.029856e-01	0.000000e+00	
4.708641e-02	1.786042e-02	1.228215e+00	6.054274e+01	-1.517230e+01	2.558062e+05	1.016881e+05	2.884206e+02	1.492630e-01	3.029294e-01	0.000000e+00	
5.899565e-02	1.115262e-02	1.228215e+00	6.054466e+01	-1.518052e+01	2.558062e+05	1.016881e+05	2.884204e+02	1.492723e-01	3.028816e-01	0.000000e+00	
5.770346e-02	1.328722e-02	1.228214e+00	6.054455e+01	-1.517968e+01	2.558062e+05	1.016881e+05	2.884206e+02	1.492716e-01	3.028865e-01	0.000000e+00	
6.029572e-02	8.972579e-03	1.228215e+00	6.054351e+01	-1.518118e+01	2.558062e+05	1.016881e+05	2.884203e+02	1.492699e-01	3.028921e-01	0.000000e+00	
5.640815e-02	1.540332e-02	1.228213e+00	6.054383e+01	-1.517965e+01	2.558061e+05	1.016880e+05	2.884208e+02	1.492699e-01	3.028728e-01	0.000000e+00	
6.161824e-02	6.719327e-03	1.228215e+00	6.054308e+01	-1.518159e+01	2.558062e+05	1.016881e+05	2.884203e+02	1.492692e-01	3.028875e-01	0.000000e+00	
6.297664e-02	4.373539e-03	1.228214e+00	6.054655e+01	-1.518211e+01	2.558063e+05	1.016881e+05	2.884205e+02	1.492776e-01	3.028804e-01	0.000000e+00	
6.437353e-02	1.940802e-03	1.228213e+00	6.055632e+01	-1.518359e+01	2.558069e+05	1.016881e+05	2.884208e+02	1.493012e-01	3.028858e-01	0.000000e+00	
5.249014e-02	1.752203e-02	1.228213e+00	6.054298e+01	-1.517921e+01	2.558062e+05	1.016881e+05	2.884208e+02	1.492677e-01	3.028981e-01	0.000000e+00	
4.569681e-02	1.786750e-02	1.228225e+00	6.054999e+01	-1.516590e+01	2.558084e+05	1.016889e+05	2.884202e+02	1.492749e-01	3.035684e-01	0.000000e+00	
5.510511e-02	1.751887e-02	1.228213e+00	6.054637e+01	-1.518111e+01	2.558064e+05	1.016881e+05	2.884208e+02	1.492767e-01	3.029026e-01	0.000000e+00	
4.834311e-02	1.986496e-02	1.228211e+00	6.054273e+01	-1.517792e+01	2.558058e+05	1.016879e+05	2.884210e+02	1.492666e-01	3.027729e-01	0.000000e+00	
5.114737e-02	1.966845e-02	1.228211e+00	6.054949e+01	-1.518147e+01	2.558061e+05	1.016879e+05	2.884208e+02	1.492843e-01	3.027628e-01	0.000000e+00	
4.569681e-02	2.042000e-02	1.228198e+00	6.053479e+01	-1.516669e+01	2.558030e+05	1.016870e+05	2.884213e+02	1.492431e-01	3.020155e-01	0.000000e+00	
6.146417e-02	1.118734e-02	1.228214e+00	6.054387e+01	-1.518038e+01	2.558062e+05	1.016881e+05	2.884205e+02	1.492704e-01	3.028866e-01	0.000000e+00	
6.018514e-02	1.332493e-02	1.228214e+00	6.054450e+01	-1.518014e+01	2.558062e+05	1.016881e+05	2.884207e+02	1.492717e-01	3.028890e-01	0.000000e+00	
5.891054e-02	1.543822e-02	1.228213e+00	6.054563e+01	-1.518070e+01	2.558063e+05	1.016881e+05	2.884208e+02	1.492747e-01	3.028840e-01	0.000000e+00	
6.275917e-02	9.001218e-03	1.228215e+00	6.054278e+01	-1.518082e+01	2.558062e+05	1.016881e+05	2.884204e+02	1.492681e-01	3.028881e-01	0.000000e+00	
5.763331e-02	1.754300e-02	1.228213e+00	6.054965e+01	-1.518232e+01	2.558065e+05	1.016881e+05	2.884208e+02	1.492850e-01	3.028946e-01	0.000000e+00	
6.408467e-02	6.738801e-03	1.228215e+00	6.054238e+01	-1.518120e+01	2.558061e+05	1.016881e+05	2.884203e+02	1.492673e-01	3.028907e-01	0.000000e+00	
6.545009e-02	4.383521e-03	1.228215e+00	6.054537e+01	-1.518172e+01	2.558063e+05	1.016881e+05	2.884204e+02	1.492746e-01	3.028888e-01	0.000000e+00	
6.686827e-02	1.925463e-03	1.228214e+00	6.055366e+01	-1.518331e+01	2.558068e+05	1.016881e+05	2.884207e+02	1.492948e-01	3.029120e-01	0.000000e+00	
5.379456e-02	1.963090e-02	1.228213e+00	6.055398e+01	-1.518353e+01	2.558068e+05	1.016881e+05	2.884208e+02	1.492957e-01	3.028976e-01	0.000000e+00	
5.634988e-02	1.964384e-02	1.228213e+00	6.055713e+01	-1.518427e+01	2.558069e+05	1.016881e+05	2.884208e+02	1.493035e-01	3.028832e-01	0.000000e+00	
4.986077e-02	2.169645e-02	1.228215e+00	6.056381e+01	-1.518444e+01	2.558076e+05	1.016882e+05	2.884207e+02	1.493188e-01	3.030153e-01	0.000000e+00	
4.758145e-02	2.170386e-02	1.228225e+00	6.055827e+01	-1.518456e+01	2.558094e+05	1.016890e+05	2.884208e+02	1.493048e-01	3.037019e-01	0.000000e+00	
5.247925e-02	2.170693e-02	1.228215e+00	6.056529e+01	-1.518543e+01	2.558077e+05	1.016882e+05	2.884207e+02	1.493228e-01	3.030058e-01	0.000000e+00	
6.264087e-02	1.336228e-02	1.228214e+00	6.054524e+01	-1.518070e+01	2.558063e+05	1.016881e+05	2.884207e+02	1.492738e-01	3.028823e-01	0.000000e+00	
6.391649e-02	1.122209e-02	1.228214e+00	6.054373e+01	-1.518048e+01	2.558062e+05	1.016881e+05	2.884205e+02	1.492701e-01	3.028795e-01	0.000000e+00	
6.137464e-02	1.547545e-02	1.228213e+00	6.054770e+01	-1.518161e+01	2.558064e+05	1.016881e+05	2.884208e+02	1.492801e-01	3.028836e-01	0.000000e+00	
6.011030e-02	1.757713e-02	1.228213e+00	6.055242e+01	-1.518318e+01	2.558067e+05	1.016881e+05	2.884208e+02	1.492919e-01	3.028915e-01	0.000000e+00	
6.521333e-02	9.030586e-03	1.228215e+00	6.054235e+01	-1.518063e+01	2.558061e+05	1.016881e+05	2.884204e+02	1.492670e-01	3.028769e-01	0.000000e+00	
5.884360e-02	1.967433e-02	1.228213e+00	6.055901e+01	-1.518464e+01	2.558070e+05	1.016881e+05	2.884208e+02	1.493080e-01	3.028986e-01	0.000000e+00	
6.654306e-02	6.762522e-03	1.228215e+00	6.054186e+01	-1.518089e+01	2.558061e+05	1.016880e+05	2.884203e+02	1.492660e-01	3.028745e-01	0.000000e+00	
6.792685e-02	4.386342e-03	1.228214e+00	6.054432e+01	-1.518137e+01	2.558062e+05	1.016880e+05	2.884204e+02	1.492720e-01	3.028618e-01	0.000000e+00	
6.936134e-02	1.914223e-03	1.228214e+00	6.055131e+01	-1.518288e+01	2.558066e+05	1.016881e+05	2.884206e+02	1.492891e-01	3.028875e-01	0.000000e+00	
5.505739e-02	2.173283e-02	1.228214e+00	6.056539e+01	-1.518506e+01	2.558074e+05	1.016881e+05	2.884208e+02	1.493230e-01	3.029265e-01	0.000000e+00	
4.569681e-02	2.297250e-02	1.228228e+00	6.056848e+01	-1.518766e+01	2.558105e+05	1.016893e+05	2.884207e+02	1.493299e-01	3.039075e-01	0.000000e+00	
5.757145e-02	2.176700e-02	1.228214e+00	6.056470e+01	-1.518491e+01	2.558074e+05	1.016881e+05	2.884208e+02	1.493214e-01	3.029210e-01	0.000000e+00	
5.112444e-02	2.371648e-02	1.228216e+00	6.057120e+01	-1.518427e+01	2.558081e+05	1.016883e+05	2.884208e+02	1.493358e-01	3.030625e-01	0.000000e+00	
4.835881e-02	2.351972e-02	1.228208e+00	6.057533e+01	-1.518437e+01	2.558067e+05	1.016876e+05	2.884206e+02	1.493464e-01	3.025009e-01	0.000000e+00	
5.374692e-02	2.379798e-02	1.228213e+00	6.056830e+01	-1.518357e+01	2.558074e+05	1.016881e+05	2.884209e+02	1.493290e-01	3.028792e-01	0.000000e+00	
6.382281e-02	1.551363e-02	1.228213e+00	6.054976e+01	-1.518237e+01	2.558065e+05	1.016881e+05	2.884208e+02	1.492853e-01	3.028806e-01	0.000000e+00	
6.508693e-02	1.339972e-02	1.228213e+00	6.054642e+01	-1.518129e+01	2.558063e+05	1.016881e+05	2.884207e+02	1.492769e-01	3.028771e-01	0.000000e+00	
6.636339e-02	1.125701e-02	1.228214e+00	6.054409e+01	-1.518076e+01	2.558062e+05	1.016880e+05	2.884206e+02	1.492711e-01	3.028746e-01	0.000000e+00	
6.256332e-02	1.761471e-02	1.228213e+00	6.055462e+01	-1.518375e+01	2.558068e+05	1.016881e+05	2.884208e+02	1.492974e-01	3.028863e-01	0.000000e+00	
6.130430e-02	1.971088e-02	1.228213e+00	6.056013e+01	-1.518477e+01	2.558071e+05	1.016881e+05	2.884208e+02	1.493107e-01	3.028906e-01	0.000000e+00	
6.766173e-02	9.063355e-03	1.228215e+00	6.054224e+01	-1.518062e+01	2.558061e+05	1.016880e+05	2.884204e+02	1.492667e-01	3.028704e-01	0.000000e+00	
6.004327e-02	2.180461e-02	1.228213e+00	6.056383e+01	-1.518470e+01	2.558073e+05	1.016881e+05	2.884209e+02	1.493192e-01	3.029034e-01	0.000000e+00	
6.900523e-02	6.779686e-03	1.228215e+00	6.054146e+01	-1.518072e+01	2.558060e+05	1.016880e+05	2.884203e+02	1.492650e-01	3.028707e-01	0.000000e+00	
7.040148e-02	4.392931e-03	1.228215e+00	6.054331e+01	-1.518113e+01	2.558061e+05	1.016880e+05	2.884204e+02	1.492695e-01	3.028574e-01	0.000000e+00	
7.185456e-02	1.902887e-03	1.228214e+00	6.054912e+01	-1.518252e+01	2.558065e+05	1.016881e+05	2.884205e+02	1.492838e-01	3.028778e-01	0.000000e+00	
5.628947e-02	2.385113e-02	1.228213e+00	6.056527e+01	-1.518348e+01	2.558075e+05	1.016881e+05	2.884209e+02	1.493218e-01	3.029407e-01	0.000000e+00	
4.712543e-02	2.552304e-02	1.228219e+00	6.057398e+01	-1.518163e+01	2.558092e+05	1.016886e+05	2.884211e+02	1.493402e-01	3.033757e-01	0.000000e+00	
5.877778e-02	2.389530e-02	1.228213e+00	6.056318e+01	-1.518345e+01	2.558073e+05	1.016881e+05	2.884209e+02	1.493170e-01	3.029068e-01	0.000000e+00	
4.975112e-02	2.572154e-02	1.228217e+00	6.056687e+01	-1.518159e+01	2.558083e+05	1.016884e+05	2.884211e+02	1.493240e-01	3.031982e-01	0.000000e+00	
5.241141e-02	2.584523e-02	1.228213e+00	6.056246e+01	-1.518073e+01	2.558074e+05	1.016882e+05	2.884210e+02	1.493137e-01	3.029803e-01	0.000000e+00	
4.569681e-02	2.552500e-02	1.228243e+00	6.057932e+01	-1.518683e+01	2.558147e+05	1.016908e+05	2.884214e+02	1.493526e-01	3.051358e-01	0.000000e+00	
5.499169e-02	2.592498e-02	1.228214e+00	6.055964e+01	-1.518148e+01	2.558073e+05	1.016882e+05	2.884210e+02	1.493076e-01	3.029770e-01	0.000000e+00	
6.626569e-02	1.555218e-02	1.228213e+00	6.055169e+01	-1.518299e+01	2.558066e+05	1.016880e+05	2.884208e+02	1.492901e-01	3.028737e-01	0.000000e+00	
6.500738e-02	1.765338e-02	1.228213e+00	6.055633e+01	-1.518416e+01	2.558068e+05	1.016881e+05	2.884208e+02	1.493016e-01	3.028793e-01	0.000000e+00	
6.753010e-02	1.343734e-02	1.228213e+00	6.054785e+01	-1.518187e+01	2.558064e+05	1.016880e+05	2.884207e+02	1.492806e-01	3.028689e-01	0.000000e+00	
6.880615e-02	1.129486e-02	1.228214e+00	6.054485e+01	-1.518113e+01	2.558062e+05	1.016880e+05	2.884206e+02	1.492731e-01	3.028650e-01	0.000000e+00	
6.375099e-02	1.974935e-02	1.228213e+00	6.056071e+01	-1.518484e+01	2.558071e+05	1.016881e+05	2.884209e+02	1.493121e-01	3.028859e-01	0.000000e+00	
6.249450e-02	2.184339e-02	1.228213e+00	6.056294e+01	-1.518461e+01	2.558072e+05	1.016881e+05	2.884209e+02	1.493171e-01	3.028954e-01	0.000000e+00	
7.011408e-02	9.090219e-03	1.228214e+00	6.054249e+01	-1.518073e+01	2.558061e+05	1.016880e+05	2.884204e+02	1.492674e-01	3.028583e-01	0.000000e+00	
6.123653e-02	2.393620e-02	1.228213e+00	6.056159e+01	-1.518359e+01	2.558072e+05	1.016881e+05	2.884209e+02	1.493134e-01	3.029060e-01	0.000000e+00	
7.146562e-02	6.800172e-03	1.228215e+00	6.054129e+01	-1.518065e+01	2.558060e+05	1.016880e+05	2.884203e+02	1.492646e-01	3.028569e-01	0.000000e+00	
7.287641e-02	4.399333e-03	1.228214e+00	6.054246e+01	-1.518094e+01	2.558060e+05	1.016880e+05	2.884203e+02	1.492675e-01	3.028438e-01	0.000000e+00	
7.434815e-02	1.891509e-03	1.228214e+00	6.054717e+01	-1.518216e+01	2.558063e+05	1.016880e+05	2.884205e+02	1.492791e-01	3.028624e-01	0.000000e+00	
5.750439e-02	2.598163e-02	1.228213e+00	6.055826e+01	-1.518199e+01	2.558071e+05	1.016881e+05	2.884210e+02	1.493047e-01	3.029277e-01	0.000000e+00	
4.831995e-02	2.780868e-02	1.228212e+00	6.054932e+01	-1.517967e+01	2.558067e+05	1.016882e+05	2.884214e+02	1.492827e-01	3.029800e-01	0.000000e+00	
4.569681e-02	2.807750e-02	1.228188e+00	6.054726e+01	-1.518113e+01	2.558020e+05	1.016863e+05	2.884217e+02	1.492815e-01	3.014257e-01	0.000000e+00	
5.997541e-02	2.602743e-02	1.228213e+00	6.055747e+01	-1.518259e+01	2.558070e+05	1.016881e+05	2.884209e+02	1.493033e-01	3.029204e-01	0.000000e+00	
5.104614e-02	2.789428e-02	1.228211e+00	6.055060e+01	-1.517948e+01	2.558064e+05	1.016880e+05	2.884212e+02	1.492857e-01	3.028357e-01	0.000000e+00	
5.367181e-02	2.799176e-02	1.228213e+00	6.055133e+01	-1.518077e+01	2.558068e+05	1.016882e+05	2.884210e+02	1.492879e-01	3.029713e-01	0.000000e+00	
5.621861e-02	2.806325e-02	1.228213e+00	6.055264e+01	-1.518170e+01	2.558068e+05	1.016881e+05	2.884209e+02	1.492915e-01	3.029223e-01	0.000000e+00	
6.870716e-02	1.559098e-02	1.228213e+00	6.055341e+01	-1.518349e+01	2.558066e+05	1.016880e+05	2.884208e+02	1.492944e-01	3.028659e-01	0.000000e+00	
6.744876e-02	1.769242e-02	1.228213e+00	6.055762e+01	-1.518445e+01	2.558069e+05	1.016880e+05	2.884208e+02	1.493048e-01	3.028710e-01	0.000000e+00	
6.619295e-02	1.978839e-02	1.228213e+00	6.056099e+01	-1.518489e+01	2.558071e+05	1.016881e+05	2.884209e+02	1.493128e-01	3.028773e-01	0.000000e+00	
6.997015e-02	1.347760e-02	1.228213e+00	6.054938e+01	-1.518242e+01	2.558064e+05	1.016880e+05	2.884207e+02	1.492845e-01	3.028603e-01	0.000000e+00	
7.125280e-02	1.132740e-02	1.228213e+00	6.054588e+01	-1.518155e+01	2.558062e+05	1.016880e+05	2.884206e+02	1.492758e-01	3.028563e-01	0.000000e+00	
6.493785e-02	2.188252e-02	1.228213e+00	6.056214e+01	-1.518457e+01	2.558071e+05	1.016881e+05	2.884209e+02	1.493153e-01	3.028849e-01	0.000000e+00	
6.368255e-02	2.397594e-02	1.228213e+00	6.056046e+01	-1.518374e+01	2.558071e+05	1.016881e+05	2.884209e+02	1.493109e-01	3.028925e-01	0.000000e+00	
7.256499e-02	9.119989e-03	1.228214e+00	6.054303e+01	-1.518096e+01	2.558061e+05	1.016880e+05	2.884205e+02	1.492688e-01	3.028494e-01	0.000000e+00	
6.242632e-02	2.606880e-02	1.228213e+00	6.055703e+01	-1.518301e+01	2.558069e+05	1.016881e+05	2.884208e+02	1.493025e-01	3.029027e-01	0.000000e+00	
7.392653e-02	6.820256e-03	1.228214e+00	6.054134e+01	-1.518069e+01	2.558060e+05	1.016880e+05	2.884204e+02	1.492647e-01	3.028468e-01	0.000000e+00	
7.535243e-02	4.404985e-03	1.228214e+00	6.054179e+01	-1.518083e+01	2.558059e+05	1.016880e+05	2.884203e+02	1.492659e-01	3.028335e-01	0.000000e+00	
7.684123e-02	1.881403e-03	1.228214e+00	6.054547e+01	-1.518186e+01	2.558062e+05	1.016880e+05	2.884204e+02	1.492750e-01	3.028489e-01	0.000000e+00	
5.870877e-02	2.811659e-02	1.228214e+00	6.055359e+01	-1.518248e+01	2.558068e+05	1.016881e+05	2.884208e+02	1.492941e-01	3.029302e-01	0.000000e+00	
4.744510e-02	2.960559e-02	1.228218e+00	6.054689e+01	-1.518226e+01	2.558074e+05	1.016885e+05	2.884208e+02	1.492779e-01	3.032280e-01	0.000000e+00	
4.966610e-02	2.991312e-02	1.228213e+00	6.054628e+01	-1.518098e+01	2.558064e+05	1.016881e+05	2.884209e+02	1.492764e-01	3.029112e-01	0.000000e+00	
6.116813e-02	2.816098e-02	1.228214e+00	6.055422e+01	-1.518289e+01	2.558068e+05	1.016881e+05	2.884207e+02	1.492959e-01	3.029107e-01	0.000000e+00	
5.232283e-02	3.005122e-02	1.228215e+00	6.054858e+01	-1.518234e+01	2.558069e+05	1.016883e+05	2.884208e+02	1.492822e-01	3.030452e-01	0.000000e+00	
5.491570e-02	3.014042e-02	1.228214e+00	6.055156e+01	-1.518292e+01	2.558068e+05	1.016881e+05	2.884207e+02	1.492896e-01	3.029448e-01	0.000000e+00	
4.569681e-02	3.063000e-02	1.228230e+00	6.055379e+01	-1.517336e+01	2.558095e+05	1.016892e+05	2.884201e+02	1.492875e-01	3.038522e-01	0.000000e+00	
5.743382e-02	3.020345e-02	1.228215e+00	6.055319e+01	-1.518327e+01	2.558069e+05	1.016881e+05	2.884206e+02	1.492936e-01	3.029500e-01	0.000000e+00	
7.114614e-02	1.563216e-02	1.228213e+00	6.055491e+01	-1.518392e+01	2.558067e+05	1.016880e+05	2.884208e+02	1.492982e-01	3.028562e-01	0.000000e+00	
6.988952e-02	1.773168e-02	1.228213e+00	6.055859e+01	-1.518468e+01	2.558069e+05	1.016880e+05	2.884209e+02	1.493071e-01	3.028618e-01	0.000000e+00	
6.863367e-02	1.982765e-02	1.228213e+00	6.056105e+01	-1.518493e+01	2.558071e+05	1.016880e+05	2.884209e+02	1.493130e-01	3.028681e-01	0.000000e+00	
6.737881e-02	2.192177e-02	1.228213e+00	6.056142e+01	-1.518458e+01	2.558071e+05	1.016880e+05	2.884209e+02	1.493136e-01	3.028753e-01	0.000000e+00	
7.241391e-02	1.351307e-02	1.228213e+00	6.055091e+01	-1.518293e+01	2.558065e+05	1.016880e+05	2.884207e+02	1.492883e-01	3.028499e-01	0.000000e+00	
7.369824e-02	1.136253e-02	1.228213e+00	6.054711e+01	-1.518200e+01	2.558063e+05	1.016880e+05	2.884206e+02	1.492789e-01	3.028456e-01	0.000000e+00	
6.612422e-02	2.401532e-02	1.228213e+00	6.055957e+01	-1.518388e+01	2.558070e+05	1.016881e+05	2.884208e+02	1.493089e-01	3.028833e-01	0.000000e+00	
6.486951e-02	2.610863e-02	1.228213e+00	6.055663e+01	-1.518328e+01	2.558069e+05	1.016881e+05	2.884208e+02	1.493017e-01	3.028923e-01	0.000000e+00	
7.501658e-02	9.149196e-03	1.228214e+00	6.054382e+01	-1.518125e+01	2.558061e+05	1.016880e+05	2.884205e+02	1.492708e-01	3.028377e-01	0.000000e+00	
6.361429e-02	2.820181e-02	1.228214e+00	6.055438e+01	-1.518307e+01	2.558068e+05	1.016881e+05	2.884206e+02	1.492963e-01	3.029016e-01	0.000000e+00	
7.638896e-02	6.839281e-03	1.228214e+00	6.054162e+01	-1.518082e+01	2.558059e+05	1.016880e+05	2.884204e+02	1.492655e-01	3.028344e-01	0.000000e+00	
7.782835e-02	4.412027e-03	1.228214e+00	6.054134e+01	-1.518079e+01	2.558059e+05	1.016880e+05	2.884203e+02	1.492648e-01	3.028215e-01	0.000000e+00	
7.933833e-02	1.866143e-03	1.228214e+00	6.054404e+01	-1.518161e+01	2.558061e+05	1.016880e+05	2.884204e+02	1.492715e-01	3.028347e-01	0.000000e+00	
5.990665e-02	3.025250e-02	1.228215e+00	6.055394e+01	-1.518323e+01	2.558068e+05	1.016881e+05	2.884205e+02	1.492953e-01	3.029219e-01	0.000000e+00	
4.783424e-02	3.197013e-02	1.228212e+00	6.054808e+01	-1.517967e+01	2.558062e+05	1.016880e+05	2.884207e+02	1.492799e-01	3.028146e-01	0.000000e+00	
5.091222e-02	3.211386e-02	1.228215e+00	6.055311e+01	-1.518385e+01	2.558070e+05	1.016882e+05	2.884206e+02	1.492937e-01	3.029789e-01	0.000000e+00	
6.235804e-02	3.029526e-02	1.228215e+00	6.055389e+01	-1.518303e+01	2.558068e+05	1.016881e+05	2.884204e+02	1.492951e-01	3.029120e-01	0.000000e+00	
5.359311e-02	3.221509e-02	1.228215e+00	6.055571e+01	-1.518422e+01	2.558070e+05	1.016881e+05	2.884205e+02	1.493000e-01	3.029378e-01	0.000000e+00	
5.614908e-02	3.228830e-02	1.228216e+00	6.055612e+01	-1.518385e+01	2.558070e+05	1.016881e+05	2.884204e+02	1.493007e-01	3.029504e-01	0.000000e+00	
4.569681e-02	3.318250e-02	1.228194e+00	6.053702e+01	-1.517201e+01	2.558023e+05	1.016867e+05	2.884214e+02	1.492518e-01	3.017389e-01	0.000000e+00	
5.864072e-02	3.234375e-02	1.228216e+00	6.055554e+01	-1.518319e+01	2.558069e+05	1.016881e+05	2.884203e+02	1.492990e-01	3.029302e-01	0.000000e+00	
7.232819e-02	1.777309e-02	1.228212e+00	6.055929e+01	-1.518487e+01	2.558069e+05	1.016880e+05	2.884209e+02	1.493089e-01	3.028516e-01	0.000000e+00	
7.358856e-02	1.566900e-02	1.228212e+00	6.055618e+01	-1.518428e+01	2.558067e+05	1.016880e+05	2.884208e+02	1.493014e-01	3.028459e-01	0.000000e+00	
7.107414e-02	1.986710e-02	1.228212e+00	6.056098e+01	-1.518498e+01	2.558070e+05	1.016880e+05	2.884209e+02	1.493129e-01	3.028581e-01	0.000000e+00	
6.981924e-02	2.196114e-02	1.228213e+00	6.056075e+01	-1.518460e+01	2.558070e+05	1.016880e+05	2.884208e+02	1.493121e-01	3.028648e-01	0.000000e+00	
6.856473e-02	2.405466e-02	1.228213e+00	6.055879e+01	-1.518396e+01	2.558069e+05	1.016880e+05	2.884208e+02	1.493072e-01	3.028721e-01	0.000000e+00	
7.485656e-02	1.355089e-02	1.228213e+00	6.055238e+01	-1.518339e+01	2.558065e+05	1.016880e+05	2.884208e+02	1.492920e-01	3.028398e-01	0.000000e+00	
7.614438e-02	1.139700e-02	1.228213e+00	6.054844e+01	-1.518245e+01	2.558063e+05	1.016880e+05	2.884207e+02	1.492823e-01	3.028346e-01	0.000000e+00	
6.731036e-02	2.614805e-02	1.228214e+00	6.055615e+01	-1.518340e+01	2.558068e+05	1.016881e+05	2.884207e+02	1.493007e-01	3.028800e-01	0.000000e+00	
6.605595e-02	2.824148e-02	1.228214e+00	6.055415e+01	-1.518305e+01	2.558067e+05	1.016881e+05	2.884205e+02	1.492958e-01	3.028883e-01	0.000000e+00	
7.746997e-02	9.176962e-03	1.228213e+00	6.054481e+01	-1.518160e+01	2.558061e+05	1.016880e+05	2.884205e+02	1.492734e-01	3.028267e-01	0.000000e+00	
6.480126e-02	3.033556e-02	1.228215e+00	6.055343e+01	-1.518276e+01	2.558067e+05	1.016881e+05	2.884203e+02	1.492939e-01	3.028967e-01	0.000000e+00	
7.885286e-02	6.858435e-03	1.228214e+00	6.054211e+01	-1.518102e+01	2.558059e+05	1.016880e+05	2.884204e+02	1.492667e-01	3.028225e-01	0.000000e+00	
8.031320e-02	4.412632e-03	1.228214e+00	6.054113e+01	-1.518082e+01	2.558058e+05	1.016880e+05	2.884203e+02	1.492644e-01	3.028096e-01	0.000000e+00	
8.184015e-02	1.854631e-03	1.228214e+00	6.054287e+01	-1.518143e+01	2.558060e+05	1.016880e+05	2.884203e+02	1.492687e-01	3.028193e-01	0.000000e+00	
6.110025e-02	3.239006e-02	1.228216e+00	6.055447e+01	-1.518263e+01	2.558069e+05	1.016881e+05	2.884202e+02	1.492961e-01	3.029209e-01	0.000000e+00	
4.965197e-02	3.420438e-02	1.228219e+00	6.056207e+01	-1.518601e+01	2.558080e+05	1.016884e+05	2.884204e+02	1.493154e-01	3.031616e-01	0.000000e+00	
4.747773e-02	3.427632e-02	1.228228e+00	6.055727e+01	-1.519048e+01	2.558099e+05	1.016892e+05	2.884207e+02	1.493057e-01	3.038728e-01	0.000000e+00	
5.228208e-02	3.429052e-02	1.228217e+00	6.056136e+01	-1.518459e+01	2.558074e+05	1.016882e+05	2.884203e+02	1.493131e-01	3.029941e-01	0.000000e+00	
6.354617e-02	3.243228e-02	1.228216e+00	6.055346e+01	-1.518226e+01	2.558068e+05	1.016881e+05	2.884202e+02	1.492936e-01	3.029058e-01	0.000000e+00	
5.485998e-02	3.437169e-02	1.228217e+00	6.055876e+01	-1.518310e+01	2.558072e+05	1.016882e+05	2.884202e+02	1.493063e-01	3.029805e-01	0.000000e+00	
5.737064e-02	3.443556e-02	1.228217e+00	6.055628e+01	-1.518217e+01	2.558070e+05	1.016881e+05	2.884202e+02	1.493000e-01	3.029446e-01	0.000000e+00	
4.569681e-02	3.573500e-02	1.228236e+00	6.057120e+01	-1.519814e+01	2.558121e+05	1.016898e+05	2.884203e+02	1.493415e-01	3.043535e-01	0.000000e+00	
5.984097e-02	3.448847e-02	1.228217e+00	6.055434e+01	-1.518166e+01	2.558069e+05	1.016881e+05	2.884201e+02	1.492952e-01	3.029314e-01	0.000000e+00	
7.351282e-02	1.990848e-02	1.228212e+00	6.056079e+01	-1.518501e+01	2.558070e+05	1.016880e+05	2.884208e+02	1.493125e-01	3.028473e-01	0.000000e+00	
7.477002e-02	1.781058e-02	1.228212e+00	6.055977e+01	-1.518502e+01	2.558069e+05	1.016880e+05	2.884209e+02	1.493101e-01	3.028407e-01	0.000000e+00	
7.602992e-02	1.570805e-02	1.228212e+00	6.055725e+01	-1.518458e+01	2.558068e+05	1.016880e+05	2.884208e+02	1.493040e-01	3.028350e-01	0.000000e+00	
7.225959e-02	2.200069e-02	1.228213e+00	6.056008e+01	-1.518459e+01	2.558070e+05	1.016880e+05	2.884208e+02	1.493106e-01	3.028539e-01	0.000000e+00	
7.100502e-02	2.409411e-02	1.228213e+00	6.055802e+01	-1.518397e+01	2.558069e+05	1.016880e+05	2.884207e+02	1.493054e-01	3.028612e-01	0.000000e+00	
6.975065e-02	2.618745e-02	1.228214e+00	6.055555e+01	-1.518339e+01	2.558068e+05	1.016880e+05	2.884206e+02	1.492993e-01	3.028686e-01	0.000000e+00	
7.729975e-02	1.358812e-02	1.228212e+00	6.055375e+01	-1.518381e+01	2.558066e+05	1.016880e+05	2.884208e+02	1.492955e-01	3.028283e-01	0.000000e+00	
7.859210e-02	1.142992e-02	1.228213e+00	6.054981e+01	-1.518289e+01	2.558063e+05	1.016880e+05	2.884207e+02	1.492858e-01	3.028229e-01	0.000000e+00	
6.849641e-02	2.828091e-02	1.228215e+00	6.055367e+01	-1.518294e+01	2.558067e+05	1.016881e+05	2.884204e+02	1.492946e-01	3.028767e-01	0.000000e+00	
6.724219e-02	3.037512e-02	1.228215e+00	6.055284e+01	-1.518255e+01	2.558067e+05	1.016881e+05	2.884203e+02	1.492924e-01	3.028846e-01	0.000000e+00	
7.992512e-02	9.203719e-03	1.228213e+00	6.054594e+01	-1.518198e+01	2.558061e+05	1.016880e+05	2.884205e+02	1.492762e-01	3.028150e-01	0.000000e+00	
6.598744e-02	3.247230e-02	1.228216e+00	6.055284e+01	-1.518216e+01	2.558067e+05	1.016881e+05	2.884202e+02	1.492921e-01	3.028937e-01	0.000000e+00	
8.132695e-02	6.869338e-03	1.228214e+00	6.054279e+01	-1.518127e+01	2.558059e+05	1.016880e+05	2.884204e+02	1.492685e-01	3.028091e-01	0.000000e+00	
8.280883e-02	4.414808e-03	1.228214e+00	6.054113e+01	-1.518092e+01	2.558058e+05	1.016880e+05	2.884203e+02	1.492644e-01	3.027986e-01	0.000000e+00	
8.435937e-02	1.855860e-03	1.228214e+00	6.054197e+01	-1.518129e+01	2.558059e+05	1.016880e+05	2.884203e+02	1.492666e-01	3.028035e-01	0.000000e+00	
6.229080e-02	3.453563e-02	1.228216e+00	6.055339e+01	-1.518165e+01	2.558068e+05	1.016881e+05	2.884201e+02	1.492930e-01	3.029141e-01	0.000000e+00	
5.098522e-02	3.635169e-02	1.228218e+00	6.056078e+01	-1.518231e+01	2.558076e+05	1.016883e+05	2.884202e+02	1.493103e-01	3.030746e-01	0.000000e+00	
4.831701e-02	3.618984e-02	1.228211e+00	6.056785e+01	-1.518476e+01	2.558064e+05	1.016877e+05	2.884202e+02	1.493291e-01	3.025430e-01	0.000000e+00	
5.357339e-02	3.645122e-02	1.228216e+00	6.055669e+01	-1.518082e+01	2.558070e+05	1.016881e+05	2.884202e+02	1.493002e-01	3.029316e-01	0.000000e+00	
6.473311e-02	3.457953e-02	1.228216e+00	6.055352e+01	-1.518206e+01	2.558067e+05	1.016881e+05	2.884201e+02	1.492936e-01	3.029009e-01	0.000000e+00	
5.609980e-02	3.652868e-02	1.228217e+00	6.055377e+01	-1.518046e+01	2.558069e+05	1.016881e+05	2.884202e+02	1.492932e-01	3.029584e-01	0.000000e+00	
5.858063e-02	3.659607e-02	1.228217e+00	6.055279e+01	-1.518075e+01	2.558068e+05	1.016881e+05	2.884202e+02	1.492911e-01	3.029371e-01	0.000000e+00	
4.715598e-02	3.827448e-02	1.228211e+00	6.056062e+01	-1.517991e+01	2.558060e+05	1.016876e+05	2.884201e+02	1.493095e-01	3.025297e-01	0.000000e+00	
6.103532e-02	3.665296e-02	1.228216e+00	6.055355e+01	-1.518166e+01	2.558068e+05	1.016881e+05	2.884202e+02	1.492934e-01	3.029245e-01	0.000000e+00	