TITLE = "Visualization of the volumetric solution"
VARIABLES = "x","y","Density","Momentum_x","Momentum_y","Energy","Pressure","Temperature","Mach","C<sub>p</sub>","Roe_Dissipation"
ZONE NODES= 476, ELEMENTS= 874, DATAPACKING=POINT, ZONETYPE=FEQUADRILATERAL
0.000000e+00	2.552500e-03	1.222566e+00	6.075325e+01	-3.091463e-01	2.540895e+05	1.010320e+05	2.878835e+02	1.460984e-01	-2.444554e-01	0.000000e+00	
3.243151e-03	2.244210e-03	1.221413e+00	6.063315e+01	1.817719e+00	2.537761e+05	1.009079e+05	2.878015e+02	1.460317e-01	-3.479423e-01	0.000000e+00	
2.106198e-03	4.412991e-03	1.222196e+00	6.055980e+01	1.119573e+00	2.539551e+05	1.009817e+05	2.878274e+02	1.457146e-01	-2.864167e-01	0.000000e+00	
4.720196e-03	4.349455e-03	1.221435e+00	6.055195e+01	2.391760e+00	2.537536e+05	1.009001e+05	2.877742e+02	1.458887e-01	-3.544348e-01	0.000000e+00	
0.000000e+00	5.105000e-03	1.222566e+00	6.058739e+01	-3.957617e-01	2.540878e+05	1.010346e+05	2.878908e+02	1.456989e-01	-2.422956e-01	0.000000e+00	
6.133654e-03	2.156561e-03	1.221155e+00	6.055872e+01	2.795673e+00	2.536881e+05	1.008733e+05	2.877635e+02	1.459827e-01	-3.768130e-01	0.000000e+00	
3.505253e-03	6.508171e-03	1.221481e+00	6.052486e+01	1.923156e+00	2.537795e+05	1.009114e+05	2.877953e+02	1.457724e-01	-3.450552e-01	0.000000e+00	
1.550624e-03	6.439346e-03	1.222261e+00	6.045876e+01	7.795040e-01	2.539807e+05	1.009941e+05	2.878474e+02	1.454459e-01	-2.760831e-01	0.000000e+00	
5.950535e-03	6.497369e-03	1.221196e+00	6.051423e+01	2.785452e+00	2.536900e+05	1.008750e+05	2.877586e+02	1.458709e-01	-3.754299e-01	0.000000e+00	
7.338472e-03	4.295527e-03	1.221083e+00	6.053654e+01	3.029181e+00	2.536601e+05	1.008623e+05	2.877491e+02	1.459686e-01	-3.860100e-01	0.000000e+00	
0.000000e+00	7.657500e-03	1.222537e+00	6.052318e+01	-3.474595e-01	2.540807e+05	1.010330e+05	2.878933e+02	1.455466e-01	-2.435850e-01	0.000000e+00	
8.742328e-03	2.132668e-03	1.220989e+00	6.056122e+01	3.159660e+00	2.536429e+05	1.008548e+05	2.877497e+02	1.460551e-01	-3.923066e-01	0.000000e+00	
4.473506e-03	8.719225e-03	1.221415e+00	6.054795e+01	2.302436e+00	2.537542e+05	1.009005e+05	2.877799e+02	1.458716e-01	-3.541333e-01	0.000000e+00	
2.046711e-03	8.543565e-03	1.222185e+00	6.047333e+01	1.090508e+00	2.539559e+05	1.009837e+05	2.878357e+02	1.455044e-01	-2.847187e-01	0.000000e+00	
7.107378e-03	8.589988e-03	1.221110e+00	6.053763e+01	3.009930e+00	2.536668e+05	1.008650e+05	2.877505e+02	1.459654e-01	-3.837477e-01	0.000000e+00	
8.521347e-03	6.414713e-03	1.221021e+00	6.051730e+01	3.145788e+00	2.536420e+05	1.008553e+05	2.877437e+02	1.459454e-01	-3.918362e-01	0.000000e+00	
9.912713e-03	4.247851e-03	1.221053e+00	6.052669e+01	3.145809e+00	2.536513e+05	1.008589e+05	2.877465e+02	1.459636e-01	-3.888848e-01	0.000000e+00	
0.000000e+00	1.021000e-02	1.222618e+00	6.059795e+01	-3.136906e-01	2.541005e+05	1.010395e+05	2.878929e+02	1.457165e-01	-2.381798e-01	0.000000e+00	
1.130132e-02	2.120193e-03	1.221070e+00	6.057028e+01	3.043378e+00	2.536642e+05	1.008633e+05	2.877549e+02	1.460516e-01	-3.851972e-01	0.000000e+00	
5.679802e-03	1.076774e-02	1.221176e+00	6.057234e+01	2.721155e+00	2.536947e+05	1.008758e+05	2.877657e+02	1.460043e-01	-3.747833e-01	0.000000e+00	
2.699121e-03	1.105461e-02	1.221909e+00	6.054664e+01	1.464218e+00	2.538907e+05	1.009559e+05	2.878214e+02	1.457363e-01	-3.079133e-01	0.000000e+00	
9.708261e-03	8.482628e-03	1.221030e+00	6.053251e+01	3.152355e+00	2.536452e+05	1.008563e+05	2.877443e+02	1.459816e-01	-3.910537e-01	0.000000e+00	
8.348634e-03	1.062471e-02	1.221039e+00	6.055084e+01	3.144558e+00	2.536499e+05	1.008578e+05	2.877467e+02	1.460230e-01	-3.897477e-01	0.000000e+00	
1.108739e-02	6.343597e-03	1.221076e+00	6.051918e+01	3.052568e+00	2.536578e+05	1.008617e+05	2.877490e+02	1.459306e-01	-3.865118e-01	0.000000e+00	
1.246671e-02	4.211883e-03	1.221183e+00	6.053826e+01	2.848319e+00	2.536900e+05	1.008744e+05	2.877603e+02	1.459369e-01	-3.758795e-01	0.000000e+00	
0.000000e+00	1.276250e-02	1.222535e+00	6.063864e+01	-3.774136e-01	2.540852e+05	1.010325e+05	2.878924e+02	1.458252e-01	-2.439951e-01	0.000000e+00	
1.384745e-02	2.113013e-03	1.221307e+00	6.058014e+01	2.559055e+00	2.537302e+05	1.008900e+05	2.877753e+02	1.459879e-01	-3.628953e-01	0.000000e+00	
7.104145e-03	1.277534e-02	1.221112e+00	6.054250e+01	3.012795e+00	2.536693e+05	1.008659e+05	2.877525e+02	1.459767e-01	-3.830195e-01	0.000000e+00	
4.602937e-03	1.298677e-02	1.221254e+00	6.056939e+01	2.374241e+00	2.537218e+05	1.008870e+05	2.877793e+02	1.459493e-01	-3.654216e-01	0.000000e+00	
2.055306e-03	1.386469e-02	1.222075e+00	6.053339e+01	1.152244e+00	2.539327e+05	1.009732e+05	2.878316e+02	1.456659e-01	-2.935249e-01	0.000000e+00	
1.227429e-02	8.411047e-03	1.221165e+00	6.052714e+01	2.878229e+00	2.536828e+05	1.008718e+05	2.877567e+02	1.459165e-01	-3.781122e-01	0.000000e+00	
1.092740e-02	1.053091e-02	1.221058e+00	6.054503e+01	3.074521e+00	2.536554e+05	1.008602e+05	2.877491e+02	1.459976e-01	-3.877658e-01	0.000000e+00	
9.620480e-03	1.265666e-02	1.221009e+00	6.055027e+01	3.170081e+00	2.536427e+05	1.008549e+05	2.877453e+02	1.460288e-01	-3.922020e-01	0.000000e+00	
1.364010e-02	6.296527e-03	1.221292e+00	6.052299e+01	2.594558e+00	2.537194e+05	1.008868e+05	2.877697e+02	1.458573e-01	-3.655903e-01	0.000000e+00	
1.501318e-02	4.190092e-03	1.221469e+00	6.054743e+01	2.226399e+00	2.537718e+05	1.009076e+05	2.877874e+02	1.458552e-01	-3.481894e-01	0.000000e+00	
3.915513e-03	1.503754e-02	1.221487e+00	6.059138e+01	2.076303e+00	2.537766e+05	1.009088e+05	2.877866e+02	1.459462e-01	-3.472117e-01	0.000000e+00	
0.000000e+00	1.531500e-02	1.222582e+00	6.059713e+01	-4.376891e-01	2.540942e+05	1.010370e+05	2.878939e+02	1.457203e-01	-2.402915e-01	0.000000e+00	
1.639033e-02	2.111752e-03	1.221654e+00	6.058470e+01	1.787707e+00	2.538286e+05	1.009300e+05	2.878076e+02	1.458826e-01	-3.295300e-01	0.000000e+00	
5.958989e-03	1.491193e-02	1.221255e+00	6.056042e+01	2.776563e+00	2.537050e+05	1.008801e+05	2.877594e+02	1.459737e-01	-3.711305e-01	0.000000e+00	
8.361415e-03	1.478925e-02	1.221014e+00	6.056747e+01	3.149835e+00	2.536435e+05	1.008549e+05	2.877443e+02	1.460674e-01	-3.921957e-01	0.000000e+00	
2.093784e-03	1.641614e-02	1.222197e+00	6.052732e+01	1.142647e+00	2.539580e+05	1.009835e+05	2.878322e+02	1.456361e-01	-2.849079e-01	0.000000e+00	
1.348193e-02	1.047927e-02	1.221271e+00	6.053606e+01	2.633141e+00	2.537144e+05	1.008845e+05	2.877680e+02	1.458956e-01	-3.675022e-01	0.000000e+00	
1.482725e-02	8.372895e-03	1.221440e+00	6.052569e+01	2.273492e+00	2.537609e+05	1.009037e+05	2.877831e+02	1.458117e-01	-3.514880e-01	0.000000e+00	
1.216607e-02	1.258858e-02	1.221150e+00	6.054668e+01	2.905033e+00	2.536805e+05	1.008704e+05	2.877565e+02	1.459685e-01	-3.792428e-01	0.000000e+00	
1.086836e-02	1.472177e-02	1.221073e+00	6.056066e+01	3.082470e+00	2.536585e+05	1.008611e+05	2.877480e+02	1.460345e-01	-3.870019e-01	0.000000e+00	
1.618878e-02	6.273837e-03	1.221632e+00	6.052877e+01	1.845571e+00	2.538165e+05	1.009263e+05	2.878023e+02	1.457563e-01	-3.326570e-01	0.000000e+00	
1.755907e-02	4.182912e-03	1.221871e+00	6.055613e+01	1.349428e+00	2.538860e+05	1.009539e+05	2.878246e+02	1.457564e-01	-3.096175e-01	0.000000e+00	
4.567475e-03	1.693547e-02	1.221396e+00	6.060611e+01	2.341767e+00	2.537515e+05	1.008982e+05	2.877778e+02	1.460180e-01	-3.560369e-01	0.000000e+00	
0.000000e+00	1.786750e-02	1.222594e+00	6.061548e+01	-3.729980e-01	2.540975e+05	1.010379e+05	2.878938e+02	1.457620e-01	-2.394982e-01	0.000000e+00	
1.893409e-02	2.118005e-03	1.222103e+00	6.058601e+01	7.967729e-01	2.539558e+05	1.009815e+05	2.878488e+02	1.457710e-01	-2.865722e-01	0.000000e+00	
7.047708e-03	1.688965e-02	1.221113e+00	6.058318e+01	3.022960e+00	2.536696e+05	1.008652e+05	2.877504e+02	1.460762e-01	-3.835874e-01	0.000000e+00	
9.576648e-03	1.682793e-02	1.221030e+00	6.057579e+01	3.169972e+00	2.536470e+05	1.008561e+05	2.877440e+02	1.460880e-01	-3.911571e-01	0.000000e+00	
2.653494e-03	1.903690e-02	1.221928e+00	6.055410e+01	1.448910e+00	2.538952e+05	1.009576e+05	2.878217e+02	1.457510e-01	-3.065447e-01	0.000000e+00	
1.601950e-02	1.045313e-02	1.221603e+00	6.053295e+01	1.900002e+00	2.538084e+05	1.009229e+05	2.877993e+02	1.457746e-01	-3.354703e-01	0.000000e+00	
1.468950e-02	1.255422e-02	1.221415e+00	6.054372e+01	2.319710e+00	2.537554e+05	1.009011e+05	2.877815e+02	1.458627e-01	-3.536751e-01	0.000000e+00	
1.736719e-02	8.356647e-03	1.221838e+00	6.052672e+01	1.417007e+00	2.538735e+05	1.009494e+05	2.878198e+02	1.456946e-01	-3.133352e-01	0.000000e+00	
1.337686e-02	1.466479e-02	1.221257e+00	6.055743e+01	2.663877e+00	2.537112e+05	1.008828e+05	2.877664e+02	1.459523e-01	-3.689381e-01	0.000000e+00	
1.206977e-02	1.676653e-02	1.221145e+00	6.056708e+01	2.929832e+00	2.536792e+05	1.008695e+05	2.877550e+02	1.460215e-01	-3.800402e-01	0.000000e+00	
1.872765e-02	6.266580e-03	1.222075e+00	6.053444e+01	8.770491e-01	2.539427e+05	1.009773e+05	2.878433e+02	1.456543e-01	-2.901094e-01	0.000000e+00	
2.009888e-02	4.181678e-03	1.222342e+00	6.055640e+01	2.732885e-01	2.540214e+05	1.010085e+05	2.878695e+02	1.456549e-01	-2.640015e-01	0.000000e+00	
5.640150e-03	1.896012e-02	1.221183e+00	6.058408e+01	2.723985e+00	2.536970e+05	1.008765e+05	2.877659e+02	1.460319e-01	-3.741952e-01	0.000000e+00	
0.000000e+00	2.042000e-02	1.222528e+00	6.064024e+01	-4.126071e-01	2.540841e+05	1.010320e+05	2.878925e+02	1.458303e-01	-2.444175e-01	0.000000e+00	
2.147003e-02	2.125768e-03	1.222617e+00	6.058824e+01	-3.978909e-01	2.541041e+05	1.010411e+05	2.878975e+02	1.456932e-01	-2.368216e-01	0.000000e+00	
8.266747e-03	1.892534e-02	1.221060e+00	6.056783e+01	3.153081e+00	2.536553e+05	1.008596e+05	2.877469e+02	1.460624e-01	-3.882505e-01	0.000000e+00	
1.077439e-02	1.886663e-02	1.221055e+00	6.056963e+01	3.104062e+00	2.536554e+05	1.008597e+05	2.877483e+02	1.460609e-01	-3.881907e-01	0.000000e+00	
4.490146e-03	2.113058e-02	1.221262e+00	6.054928e+01	2.350130e+00	2.537236e+05	1.008881e+05	2.877806e+02	1.458973e-01	-3.644524e-01	0.000000e+00	
2.014993e-03	2.171990e-02	1.222093e+00	6.051567e+01	1.115509e+00	2.539367e+05	1.009752e+05	2.878330e+02	1.456191e-01	-2.918522e-01	0.000000e+00	
1.854127e-02	1.044396e-02	1.222041e+00	6.053274e+01	9.485826e-01	2.539324e+05	1.009731e+05	2.878394e+02	1.456578e-01	-2.935511e-01	0.000000e+00	
1.720385e-02	1.253820e-02	1.221805e+00	6.054187e+01	1.478949e+00	2.538652e+05	1.009458e+05	2.878171e+02	1.457392e-01	-3.163907e-01	0.000000e+00	
1.588062e-02	1.463609e-02	1.221585e+00	6.055432e+01	1.948343e+00	2.538038e+05	1.009206e+05	2.877971e+02	1.458324e-01	-3.373908e-01	0.000000e+00	
1.989150e-02	8.353379e-03	1.222300e+00	6.052698e+01	3.597760e-01	2.540066e+05	1.010032e+05	2.878642e+02	1.455916e-01	-2.684880e-01	0.000000e+00	
1.456970e-02	1.673281e-02	1.221402e+00	6.056202e+01	2.358290e+00	2.537521e+05	1.008993e+05	2.877797e+02	1.459123e-01	-3.551181e-01	0.000000e+00	
1.326994e-02	1.883036e-02	1.221253e+00	6.056179e+01	2.695548e+00	2.537100e+05	1.008822e+05	2.877658e+02	1.459669e-01	-3.694407e-01	0.000000e+00	
2.125159e-02	6.266943e-03	1.222580e+00	6.054260e+01	-2.944568e-01	2.540889e+05	1.010359e+05	2.878916e+02	1.455880e-01	-2.411500e-01	0.000000e+00	
2.261654e-02	4.185135e-03	1.222888e+00	6.056276e+01	-9.956741e-01	2.541794e+05	1.010717e+05	2.879210e+02	1.456103e-01	-2.112849e-01	0.000000e+00	
7.017591e-03	2.105280e-02	1.221110e+00	6.052533e+01	3.005314e+00	2.536690e+05	1.008661e+05	2.877537e+02	1.459344e-01	-3.828051e-01	0.000000e+00	
3.781382e-03	2.316744e-02	1.221536e+00	6.055197e+01	2.045940e+00	2.537876e+05	1.009140e+05	2.877900e+02	1.458422e-01	-3.428550e-01	0.000000e+00	
0.000000e+00	2.297250e-02	1.222575e+00	6.057846e+01	-4.361207e-01	2.540917e+05	1.010363e+05	2.878937e+02	1.456763e-01	-2.408378e-01	0.000000e+00	
2.400314e-02	2.110591e-03	1.223203e+00	6.058586e+01	-1.741516e+00	2.542727e+05	1.011084e+05	2.879514e+02	1.456612e-01	-1.806982e-01	0.000000e+00	
9.498158e-03	2.097939e-02	1.221010e+00	6.054172e+01	3.183067e+00	2.536427e+05	1.008550e+05	2.877457e+02	1.460097e-01	-3.920600e-01	0.000000e+00	
1.198380e-02	2.093365e-02	1.221138e+00	6.054385e+01	2.948281e+00	2.536772e+05	1.008691e+05	2.877555e+02	1.459684e-01	-3.803346e-01	0.000000e+00	
5.807486e-03	2.322827e-02	1.221287e+00	6.052075e+01	2.755905e+00	2.537120e+05	1.008837e+05	2.877622e+02	1.458716e-01	-3.681346e-01	0.000000e+00	
1.982967e-03	2.422420e-02	1.222206e+00	6.046918e+01	1.074010e+00	2.539609e+05	1.009858e+05	2.878369e+02	1.454910e-01	-2.829666e-01	0.000000e+00	
1.971900e-02	1.254452e-02	1.222262e+00	6.053978e+01	4.359459e-01	2.539964e+05	1.009988e+05	2.878607e+02	1.456290e-01	-2.721252e-01	0.000000e+00	
2.106114e-02	1.045423e-02	1.222538e+00	6.053480e+01	-2.065880e-01	2.540760e+05	1.010309e+05	2.878871e+02	1.455745e-01	-2.453493e-01	0.000000e+00	
1.838884e-02	1.463652e-02	1.222012e+00	6.055382e+01	1.011492e+00	2.539250e+05	1.009697e+05	2.878366e+02	1.457152e-01	-2.963834e-01	0.000000e+00	
1.707107e-02	1.672857e-02	1.221781e+00	6.055923e+01	1.531518e+00	2.538593e+05	1.009430e+05	2.878149e+02	1.457875e-01	-3.186868e-01	0.000000e+00	
2.241356e-02	8.366799e-03	1.222842e+00	6.053498e+01	-8.960673e-01	2.541635e+05	1.010659e+05	2.879154e+02	1.455467e-01	-2.161388e-01	0.000000e+00	
1.576520e-02	1.882105e-02	1.221566e+00	6.056111e+01	1.990299e+00	2.537991e+05	1.009185e+05	2.877958e+02	1.458547e-01	-3.391109e-01	0.000000e+00	
1.447071e-02	2.091703e-02	1.221385e+00	6.054876e+01	2.389806e+00	2.537476e+05	1.008978e+05	2.877792e+02	1.458855e-01	-3.564257e-01	0.000000e+00	
2.377462e-02	6.282653e-03	1.223153e+00	6.054551e+01	-1.621267e+00	2.542550e+05	1.011022e+05	2.879452e+02	1.455636e-01	-1.859061e-01	0.000000e+00	
2.514821e-02	4.196477e-03	1.223478e+00	6.056581e+01	-2.389439e+00	2.543512e+05	1.011399e+05	2.879763e+02	1.456270e-01	-1.544191e-01	0.000000e+00	
8.232037e-03	2.311621e-02	1.221015e+00	6.053205e+01	3.145654e+00	2.536434e+05	1.008555e+05	2.877458e+02	1.459811e-01	-3.916437e-01	0.000000e+00	
4.359739e-03	2.536205e-02	1.221383e+00	6.052446e+01	2.266092e+00	2.537505e+05	1.008995e+05	2.877845e+02	1.458144e-01	-3.549614e-01	0.000000e+00	
0.000000e+00	2.552500e-02	1.222542e+00	6.055075e+01	-3.558175e-01	2.540837e+05	1.010336e+05	2.878940e+02	1.456123e-01	-2.430610e-01	0.000000e+00	
2.654120e-02	2.098056e-03	1.223802e+00	6.058680e+01	-3.194841e+00	2.544486e+05	1.011779e+05	2.880082e+02	1.457198e-01	-1.227320e-01	0.000000e+00	
1.070586e-02	2.305148e-02	1.221068e+00	6.053072e+01	3.103712e+00	2.536562e+05	1.008608e+05	2.877482e+02	1.459657e-01	-3.872928e-01	0.000000e+00	
1.318455e-02	2.302165e-02	1.221236e+00	6.053689e+01	2.711286e+00	2.537047e+05	1.008805e+05	2.877651e+02	1.459109e-01	-3.708057e-01	0.000000e+00	
6.899489e-03	2.526906e-02	1.221111e+00	6.052108e+01	2.999026e+00	2.536678e+05	1.008657e+05	2.877524e+02	1.459237e-01	-3.831355e-01	0.000000e+00	
2.041758e-03	2.663590e-02	1.222096e+00	6.047222e+01	1.112689e+00	2.539385e+05	1.009768e+05	2.878368e+02	1.455131e-01	-2.905275e-01	0.000000e+00	
2.223207e-02	1.256616e-02	1.222798e+00	6.054391e+01	-8.054844e-01	2.541512e+05	1.010609e+05	2.879113e+02	1.455714e-01	-2.203663e-01	0.000000e+00	
2.089644e-02	1.465577e-02	1.222503e+00	6.055206e+01	-1.257481e-01	2.540667e+05	1.010268e+05	2.878836e+02	1.456205e-01	-2.487468e-01	0.000000e+00	
2.357805e-02	1.047791e-02	1.223113e+00	6.053586e+01	-1.520346e+00	2.542417e+05	1.010971e+05	2.879402e+02	1.455403e-01	-1.901593e-01	0.000000e+00	
1.957237e-02	1.674537e-02	1.222233e+00	6.055655e+01	5.030434e-01	2.539889e+05	1.009955e+05	2.878579e+02	1.456747e-01	-2.749102e-01	0.000000e+00	
1.825995e-02	1.883479e-02	1.221991e+00	6.056096e+01	1.065278e+00	2.539194e+05	1.009673e+05	2.878346e+02	1.457376e-01	-2.984176e-01	0.000000e+00	
2.493285e-02	8.391885e-03	1.223430e+00	6.053659e+01	-2.270970e+00	2.543345e+05	1.011339e+05	2.879703e+02	1.455531e-01	-1.594620e-01	0.000000e+00	
1.695830e-02	2.092579e-02	1.221761e+00	6.055046e+01	1.573464e+00	2.538538e+05	1.009409e+05	2.878137e+02	1.457717e-01	-3.204194e-01	0.000000e+00	
1.566507e-02	2.302181e-02	1.221552e+00	6.054213e+01	2.018240e+00	2.537945e+05	1.009170e+05	2.877946e+02	1.458131e-01	-3.403551e-01	0.000000e+00	
2.629739e-02	6.305196e-03	1.223750e+00	6.054969e+01	-3.055013e+00	2.544300e+05	1.011713e+05	2.880015e+02	1.456213e-01	-1.282277e-01	0.000000e+00	
2.767627e-02	4.208806e-03	1.224092e+00	6.056761e+01	-3.873693e+00	2.545316e+05	1.012108e+05	2.880337e+02	1.457278e-01	-9.526136e-02	0.000000e+00	
9.416987e-03	2.518706e-02	1.221025e+00	6.052408e+01	3.172920e+00	2.536439e+05	1.008559e+05	2.877446e+02	1.459645e-01	-3.913432e-01	0.000000e+00	
5.750642e-03	2.740668e-02	1.221246e+00	6.052524e+01	2.729792e+00	2.537048e+05	1.008808e+05	2.877634e+02	1.458841e-01	-3.706044e-01	0.000000e+00	
3.792884e-03	2.758299e-02	1.221420e+00	6.055309e+01	2.038525e+00	2.537653e+05	1.009050e+05	2.877916e+02	1.458577e-01	-3.503504e-01	0.000000e+00	
0.000000e+00	2.807750e-02	1.222553e+00	6.055620e+01	-3.531469e-01	2.540862e+05	1.010345e+05	2.878938e+02	1.456241e-01	-2.423175e-01	0.000000e+00	
2.907516e-02	2.088618e-03	1.224426e+00	6.058382e+01	-4.719495e+00	2.546327e+05	1.012499e+05	2.880663e+02	1.458622e-01	-6.265758e-02	0.000000e+00	
1.189788e-02	2.513950e-02	1.221128e+00	6.052919e+01	2.955314e+00	2.536731e+05	1.008678e+05	2.877542e+02	1.459356e-01	-3.814522e-01	0.000000e+00	
1.437530e-02	2.512683e-02	1.221374e+00	6.053477e+01	2.407518e+00	2.537434e+05	1.008964e+05	2.877777e+02	1.458552e-01	-3.575872e-01	0.000000e+00	
8.133817e-03	2.733131e-02	1.221030e+00	6.053804e+01	3.133078e+00	2.536467e+05	1.008568e+05	2.877459e+02	1.459921e-01	-3.906099e-01	0.000000e+00	
2.144528e-03	2.913387e-02	1.222188e+00	6.050751e+01	1.141754e+00	2.539570e+05	1.009835e+05	2.878343e+02	1.455889e-01	-2.849055e-01	0.000000e+00	
2.474209e-02	1.259731e-02	1.223384e+00	6.054165e+01	-2.165712e+00	2.543210e+05	1.011284e+05	2.879658e+02	1.455626e-01	-1.639862e-01	0.000000e+00	
2.340176e-02	1.468596e-02	1.223070e+00	6.055039e+01	-1.424840e+00	2.542301e+05	1.010922e+05	2.879363e+02	1.455756e-01	-1.942358e-01	0.000000e+00	
2.207183e-02	1.677495e-02	1.222760e+00	6.055939e+01	-7.209426e-01	2.541413e+05	1.010566e+05	2.879079e+02	1.456114e-01	-2.239518e-01	0.000000e+00	
2.609099e-02	1.051028e-02	1.223702e+00	6.053891e+01	-2.939712e+00	2.544146e+05	1.011654e+05	2.879962e+02	1.455888e-01	-1.331346e-01	0.000000e+00	
2.075311e-02	1.886352e-02	1.222473e+00	6.055857e+01	-5.302627e-02	2.540584e+05	1.010234e+05	2.878809e+02	1.456402e-01	-2.516334e-01	0.000000e+00	
1.944496e-02	2.095242e-02	1.222207e+00	6.055203e+01	5.602703e-01	2.539816e+05	1.009926e+05	2.878558e+02	1.456686e-01	-2.772958e-01	0.000000e+00	
2.744758e-02	8.424175e-03	1.224036e+00	6.054062e+01	-3.739474e+00	2.545128e+05	1.012040e+05	2.880273e+02	1.456511e-01	-1.009595e-01	0.000000e+00	
1.814541e-02	2.304396e-02	1.221969e+00	6.054787e+01	1.107923e+00	2.539127e+05	1.009648e+05	2.878328e+02	1.457110e-01	-3.004584e-01	0.000000e+00	
1.685100e-02	2.514137e-02	1.221741e+00	6.053964e+01	1.605536e+00	2.538475e+05	1.009386e+05	2.878118e+02	1.457506e-01	-3.223382e-01	0.000000e+00	
2.881439e-02	6.332859e-03	1.224362e+00	6.054985e+01	-4.561946e+00	2.546111e+05	1.012421e+05	2.880593e+02	1.457614e-01	-6.912897e-02	0.000000e+00	
3.019788e-02	4.223438e-03	1.224710e+00	6.056975e+01	-5.420229e+00	2.547158e+05	1.012824e+05	2.880919e+02	1.459285e-01	-3.554480e-02	0.000000e+00	
1.060648e-02	2.726850e-02	1.221055e+00	6.054102e+01	3.105374e+00	2.536531e+05	1.008593e+05	2.877472e+02	1.459925e-01	-3.884922e-01	0.000000e+00	
6.840718e-03	2.946098e-02	1.221128e+00	6.056698e+01	2.982106e+00	2.536744e+05	1.008675e+05	2.877533e+02	1.460298e-01	-3.816909e-01	0.000000e+00	
4.434242e-03	2.955330e-02	1.221449e+00	6.058630e+01	2.281761e+00	2.537645e+05	1.009039e+05	2.877817e+02	1.459576e-01	-3.512943e-01	0.000000e+00	
0.000000e+00	3.063000e-02	1.222593e+00	6.060549e+01	-3.064105e-01	2.540958e+05	1.010374e+05	2.878928e+02	1.457375e-01	-2.399075e-01	0.000000e+00	
3.160534e-02	2.080531e-03	1.225043e+00	6.058297e+01	-6.294635e+00	2.548178e+05	1.013214e+05	2.881246e+02	1.461140e-01	-2.963399e-03	0.000000e+00	
1.308368e-02	2.724213e-02	1.221227e+00	6.054244e+01	2.724820e+00	2.537021e+05	1.008793e+05	2.877638e+02	1.459271e-01	-3.718003e-01	0.000000e+00	
1.555746e-02	2.724726e-02	1.221535e+00	6.054704e+01	2.044228e+00	2.537897e+05	1.009150e+05	2.877928e+02	1.458296e-01	-3.420764e-01	0.000000e+00	
9.307986e-03	2.939453e-02	1.221023e+00	6.056255e+01	3.169776e+00	2.536456e+05	1.008558e+05	2.877448e+02	1.460568e-01	-3.914046e-01	0.000000e+00	
2.690874e-03	3.166597e-02	1.221928e+00	6.055455e+01	1.440088e+00	2.538965e+05	1.009581e+05	2.878231e+02	1.457512e-01	-3.060987e-01	0.000000e+00	
2.590478e-02	1.472227e-02	1.223657e+00	6.055111e+01	-2.833028e+00	2.544020e+05	1.011602e+05	2.879920e+02	1.456123e-01	-1.374567e-01	0.000000e+00	
2.724799e-02	1.263451e-02	1.223986e+00	6.054322e+01	-3.623085e+00	2.544982e+05	1.011982e+05	2.880226e+02	1.456475e-01	-1.057991e-01	0.000000e+00	
2.456984e-02	1.681126e-02	1.223342e+00	6.055462e+01	-2.067508e+00	2.543095e+05	1.011236e+05	2.879620e+02	1.455915e-01	-1.680041e-01	0.000000e+00	
2.324507e-02	1.890032e-02	1.223033e+00	6.055719e+01	-1.337393e+00	2.542198e+05	1.010879e+05	2.879330e+02	1.455925e-01	-1.977824e-01	0.000000e+00	
2.859737e-02	1.054861e-02	1.224315e+00	6.054005e+01	-4.435239e+00	2.545956e+05	1.012363e+05	2.880536e+02	1.457224e-01	-7.399673e-02	0.000000e+00	
2.193070e-02	2.098930e-02	1.222727e+00	6.055700e+01	-6.469005e-01	2.541318e+05	1.010528e+05	2.879051e+02	1.456083e-01	-2.270538e-01	0.000000e+00	
2.062521e-02	2.307953e-02	1.222446e+00	6.054789e+01	8.030710e-03	2.540502e+05	1.010203e+05	2.878784e+02	1.456183e-01	-2.542201e-01	0.000000e+00	
2.995340e-02	8.461751e-03	1.224652e+00	6.054407e+01	-5.268873e+00	2.546959e+05	1.012752e+05	2.880851e+02	1.458439e-01	-4.154810e-02	0.000000e+00	
1.932567e-02	2.517353e-02	1.222183e+00	6.054365e+01	6.079039e-01	2.539743e+05	1.009898e+05	2.878535e+02	1.456530e-01	-2.796303e-01	0.000000e+00	
1.802842e-02	2.727412e-02	1.221948e+00	6.055027e+01	1.148254e+00	2.539066e+05	1.009623e+05	2.878307e+02	1.457217e-01	-3.025559e-01	0.000000e+00	
3.132157e-02	6.364462e-03	1.224980e+00	6.055198e+01	-6.116609e+00	2.547958e+05	1.013136e+05	2.881172e+02	1.460060e-01	-9.529129e-03	0.000000e+00	
3.271158e-02	4.240532e-03	1.225329e+00	6.056744e+01	-6.994148e+00	2.549015e+05	1.013538e+05	2.881496e+02	1.462195e-01	2.406796e-02	0.000000e+00	
1.178764e-02	2.936245e-02	1.221120e+00	6.055612e+01	2.968659e+00	2.536724e+05	1.008669e+05	2.877537e+02	1.460030e-01	-3.821564e-01	0.000000e+00	
8.013422e-03	3.149909e-02	1.221061e+00	6.057101e+01	3.129060e+00	2.536567e+05	1.008601e+05	2.877482e+02	1.460667e-01	-3.878092e-01	0.000000e+00	
5.484516e-03	3.154936e-02	1.221206e+00	6.058797e+01	2.676199e+00	2.537040e+05	1.008792e+05	2.877685e+02	1.460328e-01	-3.718806e-01	0.000000e+00	
0.000000e+00	3.318250e-02	1.222540e+00	6.063519e+01	-3.597684e-01	2.540856e+05	1.010327e+05	2.878919e+02	1.458162e-01	-2.438125e-01	0.000000e+00	
3.413186e-02	2.073559e-03	1.225659e+00	6.058568e+01	-7.890949e+00	2.550040e+05	1.013925e+05	2.881817e+02	1.464775e-01	5.630549e-02	0.000000e+00	
1.426170e-02	2.936102e-02	1.221357e+00	6.055627e+01	2.433019e+00	2.537400e+05	1.008945e+05	2.877765e+02	1.459117e-01	-3.591056e-01	0.000000e+00	
1.673019e-02	2.938272e-02	1.221718e+00	6.055440e+01	1.645279e+00	2.538421e+05	1.009361e+05	2.878100e+02	1.457918e-01	-3.244354e-01	0.000000e+00	
1.049433e-02	3.147754e-02	1.221044e+00	6.057126e+01	3.121493e+00	2.536529e+05	1.008586e+05	2.877477e+02	1.460684e-01	-3.890846e-01	0.000000e+00	
4.428331e-03	3.368003e-02	1.221300e+00	6.056521e+01	2.309195e+00	2.537339e+05	1.008920e+05	2.877828e+02	1.459268e-01	-3.612367e-01	0.000000e+00	
2.056105e-03	3.439361e-02	1.222087e+00	6.052606e+01	1.120824e+00	2.539365e+05	1.009749e+05	2.878335e+02	1.456448e-01	-2.920997e-01	0.000000e+00	
2.840418e-02	1.476261e-02	1.224268e+00	6.055006e+01	-4.319802e+00	2.545820e+05	1.012308e+05	2.880492e+02	1.457332e-01	-7.856779e-02	0.000000e+00	
2.706676e-02	1.685107e-02	1.223942e+00	6.055445e+01	-3.514765e+00	2.544857e+05	1.011931e+05	2.880185e+02	1.456655e-01	-1.100519e-01	0.000000e+00	
2.974679e-02	1.267635e-02	1.224601e+00	6.054471e+01	-5.142515e+00	2.546805e+05	1.012692e+05	2.880801e+02	1.458267e-01	-4.653226e-02	0.000000e+00	
2.573716e-02	1.894076e-02	1.223616e+00	6.055762e+01	-2.734327e+00	2.543903e+05	1.011555e+05	2.879883e+02	1.456229e-01	-1.414033e-01	0.000000e+00	
2.441703e-02	2.103090e-02	1.223304e+00	6.055382e+01	-1.980392e+00	2.542988e+05	1.011194e+05	2.879587e+02	1.455879e-01	-1.715301e-01	0.000000e+00	
3.109333e-02	1.059167e-02	1.224924e+00	6.054039e+01	-5.976822e+00	2.547779e+05	1.013069e+05	2.881112e+02	1.459531e-01	-1.509642e-02	0.000000e+00	
2.310587e-02	2.312185e-02	1.222998e+00	6.054977e+01	-1.262430e+00	2.542096e+05	1.010840e+05	2.879300e+02	1.455756e-01	-2.010464e-01	0.000000e+00	
2.180124e-02	2.521528e-02	1.222696e+00	6.055051e+01	-5.834075e-01	2.541227e+05	1.010493e+05	2.879023e+02	1.455955e-01	-2.300136e-01	0.000000e+00	
3.244723e-02	8.503636e-03	1.225263e+00	6.054486e+01	-6.828049e+00	2.548796e+05	1.013459e+05	2.881424e+02	1.461302e-01	1.740941e-02	0.000000e+00	
2.049957e-02	2.731374e-02	1.222418e+00	6.054820e+01	6.508449e-02	2.540420e+05	1.010170e+05	2.878758e+02	1.456232e-01	-2.569563e-01	0.000000e+00	
1.919737e-02	2.941937e-02	1.222158e+00	6.055490e+01	6.612499e-01	2.539675e+05	1.009869e+05	2.878511e+02	1.456851e-01	-2.821021e-01	0.000000e+00	
3.381850e-02	6.400455e-03	1.225581e+00	6.055238e+01	-7.691605e+00	2.549784e+05	1.013834e+05	2.881741e+02	1.463486e-01	4.869451e-02	0.000000e+00	
3.522007e-02	4.262975e-03	1.225928e+00	6.056398e+01	-8.586043e+00	2.550842e+05	1.014233e+05	2.882060e+02	1.466122e-01	8.197125e-02	0.000000e+00	
1.296518e-02	3.147793e-02	1.221217e+00	6.056643e+01	2.750654e+00	2.537009e+05	1.008783e+05	2.877633e+02	1.459889e-01	-3.726219e-01	0.000000e+00	
9.226391e-03	3.358491e-02	1.221011e+00	6.056103e+01	3.179105e+00	2.536437e+05	1.008551e+05	2.877454e+02	1.460556e-01	-3.920506e-01	0.000000e+00	
6.804405e-03	3.359774e-02	1.221148e+00	6.054474e+01	2.968744e+00	2.536788e+05	1.008697e+05	2.877551e+02	1.459719e-01	-3.798263e-01	0.000000e+00	
3.748999e-03	3.569073e-02	1.221522e+00	6.058280e+01	1.999102e+00	2.537871e+05	1.009133e+05	2.877910e+02	1.459139e-01	-3.434970e-01	0.000000e+00	
0.000000e+00	3.573500e-02	1.222568e+00	6.058339e+01	-4.042836e-01	2.540901e+05	1.010356e+05	2.878932e+02	1.456886e-01	-2.414567e-01	0.000000e+00	
3.665774e-02	2.071746e-03	1.226242e+00	6.058599e+01	-9.496319e+00	2.551841e+05	1.014602e+05	2.882373e+02	1.469409e-01	1.128137e-01	0.000000e+00	
1.542979e-02	3.149772e-02	1.221516e+00	6.056602e+01	2.085579e+00	2.537856e+05	1.009129e+05	2.877914e+02	1.458812e-01	-3.437875e-01	0.000000e+00	
1.789228e-02	3.153215e-02	1.221922e+00	6.056558e+01	1.202425e+00	2.539003e+05	1.009595e+05	2.878285e+02	1.457646e-01	-3.049325e-01	0.000000e+00	
1.167486e-02	3.359258e-02	1.221117e+00	6.056043e+01	2.986800e+00	2.536718e+05	1.008666e+05	2.877533e+02	1.460159e-01	-3.824476e-01	0.000000e+00	
5.672025e-03	3.569900e-02	1.221314e+00	6.055196e+01	2.703426e+00	2.537202e+05	1.008865e+05	2.877637e+02	1.459374e-01	-3.658414e-01	0.000000e+00	
2.073922e-03	3.692346e-02	1.222221e+00	6.050423e+01	1.101662e+00	2.539644e+05	1.009865e+05	2.878353e+02	1.455751e-01	-2.823619e-01	0.000000e+00	
3.089669e-02	1.480647e-02	1.224880e+00	6.055043e+01	-5.856640e+00	2.547649e+05	1.013017e+05	2.881067e+02	1.459554e-01	-1.943646e-02	0.000000e+00	
2.956048e-02	1.689337e-02	1.224552e+00	6.055421e+01	-5.027249e+00	2.546669e+05	1.012637e+05	2.880760e+02	1.458332e-01	-5.110736e-02	0.000000e+00	
2.822906e-02	1.898275e-02	1.224226e+00	6.055719e+01	-4.214275e+00	2.545701e+05	1.012260e+05	2.880454e+02	1.457384e-01	-8.257263e-02	0.000000e+00	
3.223596e-02	1.272205e-02	1.225208e+00	6.054588e+01	-6.696553e+00	2.548633e+05	1.013396e+05	2.881374e+02	1.461054e-01	1.217043e-02	0.000000e+00	
2.690487e-02	2.107391e-02	1.223900e+00	6.055420e+01	-3.418187e+00	2.544736e+05	1.011883e+05	2.880150e+02	1.456575e-01	-1.140086e-01	0.000000e+00	
2.558896e-02	2.316645e-02	1.223579e+00	6.055249e+01	-2.648943e+00	2.543793e+05	1.011513e+05	2.879849e+02	1.456068e-01	-1.449418e-01	0.000000e+00	
3.357913e-02	1.063825e-02	1.225537e+00	6.054447e+01	-7.542426e+00	2.549626e+05	1.013775e+05	2.881679e+02	1.462920e-01	4.382934e-02	0.000000e+00	
2.427986e-02	2.526103e-02	1.223271e+00	6.054896e+01	-1.905837e+00	2.542888e+05	1.011155e+05	2.879556e+02	1.455753e-01	-1.747718e-01	0.000000e+00	
2.297414e-02	2.735949e-02	1.222965e+00	6.055062e+01	-1.194952e+00	2.542002e+05	1.010802e+05	2.879270e+02	1.455791e-01	-2.041929e-01	0.000000e+00	
3.493298e-02	8.549929e-03	1.225859e+00	6.054410e+01	-8.398748e+00	2.550613e+05	1.014150e+05	2.881986e+02	1.465128e-01	7.505469e-02	0.000000e+00	
2.166787e-02	2.946403e-02	1.222665e+00	6.055886e+01	-5.174534e-01	2.541141e+05	1.010457e+05	2.878994e+02	1.456186e-01	-2.330237e-01	0.000000e+00	
2.035796e-02	3.157548e-02	1.222388e+00	6.055969e+01	1.332652e-01	2.540341e+05	1.010136e+05	2.878730e+02	1.456553e-01	-2.598092e-01	0.000000e+00	
3.631284e-02	6.446136e-03	1.226181e+00	6.055461e+01	-9.281239e+00	2.551617e+05	1.014526e+05	2.882297e+02	1.467968e-01	1.064120e-01	0.000000e+00	
3.773451e-02	4.303259e-03	1.226522e+00	6.056868e+01	-1.019402e+01	2.552671e+05	1.014917e+05	2.882607e+02	1.471285e-01	1.390450e-01	0.000000e+00	
1.412872e-02	3.361459e-02	1.221343e+00	6.056477e+01	2.470348e+00	2.537363e+05	1.008929e+05	2.877751e+02	1.459379e-01	-3.605102e-01	0.000000e+00	
1.038833e-02	3.570068e-02	1.221065e+00	6.055489e+01	3.123943e+00	2.536555e+05	1.008600e+05	2.877468e+02	1.460271e-01	-3.879280e-01	0.000000e+00	
7.972796e-03	3.568512e-02	1.221032e+00	6.055864e+01	3.123396e+00	2.536486e+05	1.008571e+05	2.877463e+02	1.460401e-01	-3.903189e-01	0.000000e+00	
4.325297e-03	3.767259e-02	1.221443e+00	6.057449e+01	2.242371e+00	2.537645e+05	1.009042e+05	2.877838e+02	1.459258e-01	-3.510821e-01	0.000000e+00	
3.919002e-02	2.090768e-03	1.226825e+00	6.060167e+01	-1.108767e+01	2.553649e+05	1.015272e+05	2.882905e+02	1.475325e-01	1.687088e-01	0.000000e+00	