TITLE = "SU2 Simulation"
VARIABLES = "Iteration","CL","CD","CSF","CMx","CMy","CMz","CFx","CFy","CFz","CL/CD","AoA","Custom_ObjFunc","Res_Flow[0]","Res_Flow[1]","Res_Flow[2]","Res_Flow[3]","Res_Flow[4]","Linear_Solver_Iterations","CFL_Number","Time(min)"
ZONE T= "Convergence history"
           0, 0.00000000e+00, 0.00000000e+00, 0.00000000e+00, 0.00000000e+00, 0.00000000e+00, 0.00000000e+00, 0.00000000e+00, 0.00000000e+00, 0.00000000e+00, 0.00000000e+00, 0.00000000e+00, 0.00000000e+00, -1.69259272e+01, -1.35763664e+01, -1.37783907e+01, -1.13991141e+01, 0.00000000e+00, 5.0000000000, 6.0000000000, 0.0006051000
           1, 0.00000000e+00, 0.00000000e+00, 0.00000000e+00, 0.00000000e+00, 0.00000000e+00, 0.00000000e+00, 0.00000000e+00, 0.00000000e+00, 0.00000000e+00, 0.00000000e+00, 0.00000000e+00, 0.00000000e+00, -1.64542226e+01, -5.64930582e-01, -6.12108799e-01, 1.08087093e+00, 0.00000000e+00, 5.0000000000, 6.0000000000, 0.0011099000
           2, 0.00000000e+00, 0.00000000e+00, 0.00000000e+00, 0.00000000e+00, 0.00000000e+00, 0.00000000e+00, 0.00000000e+00, 0.00000000e+00, 0.00000000e+00, 0.00000000e+00, 0.00000000e+00, 0.00000000e+00, -3.86852459e+00, -6.30536217e-01, -6.31783095e-01, 1.58956079e+00, 0.00000000e+00, 5.0000000000, 6.0000000000, 0.0015917000
           3, 0.00000000e+00, 0.00000000e+00, 0.00000000e+00, 0.00000000e+00, 0.00000000e+00, 0.00000000e+00, 0.00000000e+00, 0.00000000e+00, 0.00000000e+00, 0.00000000e+00, 0.00000000e+00, 0.00000000e+00, -3.66428872e+00, -7.10738384e-01, -6.51396638e-01, 1.78677934e+00, 0.00000000e+00, 5.0000000000, 6.0000000000, 0.0020989167
           4, 0.00000000e+00, 0.00000000e+00, 0.00000000e+00, 0.00000000e+00, 0.00000000e+00, 0.00000000e+00, 0.00000000e+00, 0.00000000e+00, 0.00000000e+00, 0.00000000e+00, 0.00000000e+00, 0.00000000e+00, -3.57642467e+00, -8.02721793e-01, -6.71012198e-01, 1.87334737e+00, 0.00000000e+00, 5.0000000000, 6.0000000000, 0.0026400833
           5, 0.00000000e+00, 0.00000000e+00, 0.00000000e+00, 0.00000000e+00, 0.00000000e+00, 0.00000000e+00, 0.00000000e+00, 0.00000000e+00, 0.00000000e+00, 0.00000000e+00, 0.00000000e+00, 0.00000000e+00, -3.53587415e+00, -9.03761089e-01, -6.90637152e-01, 1.91315270e+00, 0.00000000e+00, 5.0000000000, 6.0000000000, 0.0031131167
           6, 0.00000000e+00, 0.00000000e+00, 0.00000000e+00, 0.00000000e+00, 0.00000000e+00, 0.00000000e+00, 0.00000000e+00, 0.00000000e+00, 0.00000000e+00, 0.00000000e+00, 0.00000000e+00, 0.00000000e+00, -3.52435719e+00, -1.00748622e+00, -7.10142403e-01, 1.92384017e+00, 0.00000000e+00, 5.0000000000, 6.0000000000, 0.0036237833
           7, 0.00000000e+00, 0.00000000e+00, 0.00000000e+00, 0.00000000e+00, 0.00000000e+00, 0.00000000e+00, 0.00000000e+00, 0.00000000e+00, 0.00000000e+00, 0.00000000e+00, 0.00000000e+00, 0.00000000e+00, -3.53408230e+00, -1.10079488e+00, -7.29398436e-01, 1.91303744e+00, 0.00000000e+00, 5.0000000000, 6.0000000000, 0.0042425167
           8, 0.00000000e+00, 0.00000000e+00, 0.00000000e+00, 0.00000000e+00, 0.00000000e+00, 0.00000000e+00, 0.00000000e+00, 0.00000000e+00, 0.00000000e+00, 0.00000000e+00, 0.00000000e+00, 0.00000000e+00, -3.55964189e+00, -1.16841150e+00, -7.48333335e-01, 1.88617711e+00, 0.00000000e+00, 5.0000000000, 6.0000000000, 0.0047406167
           9, 0.00000000e+00, 0.00000000e+00, 0.00000000e+00, 0.00000000e+00, 0.00000000e+00, 0.00000000e+00, 0.00000000e+00, 0.00000000e+00, 0.00000000e+00, 0.00000000e+00, 0.00000000e+00, 0.00000000e+00, -3.59632501e+00, -1.20692606e+00, -7.66932813e-01, 1.84813362e+00, 0.00000000e+00, 5.0000000000, 6.0000000000, 0.0052209500
          10, 0.00000000e+00, 0.00000000e+00, 0.00000000e+00, 0.00000000e+00, 0.00000000e+00, 0.00000000e+00, 0.00000000e+00, 0.00000000e+00, 0.00000000e+00, 0.00000000e+00, 0.00000000e+00, 0.00000000e+00, -3.64033397e+00, -1.22821592e+00, -7.85226539e-01, 1.80294470e+00, 0.00000000e+00, 5.0000000000, 6.0000000000, 0.0058678333
          11, 0.00000000e+00, 0.00000000e+00, 0.00000000e+00, 0.00000000e+00, 0.00000000e+00, 0.00000000e+00, 0.00000000e+00, 0.00000000e+00, 0.00000000e+00, 0.00000000e+00, 0.00000000e+00, 0.00000000e+00, -3.68951060e+00, -1.24621169e+00, -8.03274807e-01, 1.75297176e+00, 0.00000000e+00, 5.0000000000, 6.0000000000, 0.0063801000
          12, 0.00000000e+00, 0.00000000e+00, 0.00000000e+00, 0.00000000e+00, 0.00000000e+00, 0.00000000e+00, 0.00000000e+00, 0.00000000e+00, 0.00000000e+00, 0.00000000e+00, 0.00000000e+00, 0.00000000e+00, -3.74365787e+00, -1.26871454e+00, -8.21157358e-01, 1.69847751e+00, 0.00000000e+00, 5.0000000000, 6.0000000000, 0.0068845667
          13, 0.00000000e+00, 0.00000000e+00, 0.00000000e+00, 0.00000000e+00, 0.00000000e+00, 0.00000000e+00, 0.00000000e+00, 0.00000000e+00, 0.00000000e+00, 0.00000000e+00, 0.00000000e+00, 0.00000000e+00, -3.80402385e+00, -1.29835661e+00, -8.38963546e-01, 1.63814041e+00, 0.00000000e+00, 5.0000000000, 6.0000000000, 0.0073408333
          14, 0.00000000e+00, 0.00000000e+00, 0.00000000e+00, 0.00000000e+00, 0.00000000e+00, 0.00000000e+00, 0.00000000e+00, 0.00000000e+00, 0.00000000e+00, 0.00000000e+00, 0.00000000e+00, 0.00000000e+00, -3.87223511e+00, -1.33519151e+00, -8.56783343e-01, 1.57020111e+00, 0.00000000e+00, 5.0000000000, 6.0000000000, 0.0078399167
          15, 0.00000000e+00, 0.00000000e+00, 0.00000000e+00, 0.00000000e+00, 0.00000000e+00, 0.00000000e+00, 0.00000000e+00, 0.00000000e+00, 0.00000000e+00, 0.00000000e+00, 0.00000000e+00, 0.00000000e+00, -3.94912266e+00, -1.37807401e+00, -8.74698152e-01, 1.49370482e+00, 0.00000000e+00, 5.0000000000, 6.0000000000, 0.0083123333
          16, 0.00000000e+00, 0.00000000e+00, 0.00000000e+00, 0.00000000e+00, 0.00000000e+00, 0.00000000e+00, 0.00000000e+00, 0.00000000e+00, 0.00000000e+00, 0.00000000e+00, 0.00000000e+00, 0.00000000e+00, -4.03337126e+00, -1.42506390e+00, -8.92773579e-01, 1.40985621e+00, 0.00000000e+00, 5.0000000000, 6.0000000000, 0.0088195000
          17, 0.00000000e+00, 0.00000000e+00, 0.00000000e+00, 0.00000000e+00, 0.00000000e+00, 0.00000000e+00, 0.00000000e+00, 0.00000000e+00, 0.00000000e+00, 0.00000000e+00, 0.00000000e+00, 0.00000000e+00, -4.11955039e+00, -1.47352357e+00, -9.11055131e-01, 1.32393509e+00, 0.00000000e+00, 5.0000000000, 6.0000000000, 0.0092702500
          18, 0.00000000e+00, 0.00000000e+00, 0.00000000e+00, 0.00000000e+00, 0.00000000e+00, 0.00000000e+00, 0.00000000e+00, 0.00000000e+00, 0.00000000e+00, 0.00000000e+00, 0.00000000e+00, 0.00000000e+00, -4.19620919e+00, -1.52042445e+00, -9.29568169e-01, 1.24716359e+00, 0.00000000e+00, 5.0000000000, 6.0000000000, 0.0098450667
          19, 0.00000000e+00, 0.00000000e+00, 0.00000000e+00, 0.00000000e+00, 0.00000000e+00, 0.00000000e+00, 0.00000000e+00, 0.00000000e+00, 0.00000000e+00, 0.00000000e+00, 0.00000000e+00, 0.00000000e+00, -4.24873083e+00, -1.56309398e+00, -9.48319802e-01, 1.19402452e+00, 0.00000000e+00, 5.0000000000, 6.0000000000, 0.0103433667
          20, 0.00000000e+00, 0.00000000e+00, 0.00000000e+00, 0.00000000e+00, 0.00000000e+00, 0.00000000e+00, 0.00000000e+00, 0.00000000e+00, 0.00000000e+00, 0.00000000e+00, 0.00000000e+00, 0.00000000e+00, -4.27086167e+00, -1.60015384e+00, -9.67301594e-01, 1.17104997e+00, 0.00000000e+00, 5.0000000000, 6.0000000000, 0.0108417333
          21, 0.00000000e+00, 0.00000000e+00, 0.00000000e+00, 0.00000000e+00, 0.00000000e+00, 0.00000000e+00, 0.00000000e+00, 0.00000000e+00, 0.00000000e+00, 0.00000000e+00, 0.00000000e+00, 0.00000000e+00, -4.27133263e+00, -1.63198980e+00, -9.86494370e-01, 1.16997436e+00, 0.00000000e+00, 5.0000000000, 6.0000000000, 0.0113291167
          22, 0.00000000e+00, 0.00000000e+00, 0.00000000e+00, 0.00000000e+00, 0.00000000e+00, 0.00000000e+00, 0.00000000e+00, 0.00000000e+00, 0.00000000e+00, 0.00000000e+00, 0.00000000e+00, 0.00000000e+00, -4.26413863e+00, -1.66033712e+00, -1.00587701e+00, 1.17698031e+00, 0.00000000e+00, 5.0000000000, 6.0000000000, 0.0118225000
          23, 0.00000000e+00, 0.00000000e+00, 0.00000000e+00, 0.00000000e+00, 0.00000000e+00, 0.00000000e+00, 0.00000000e+00, 0.00000000e+00, 0.00000000e+00, 0.00000000e+00, 0.00000000e+00, 0.00000000e+00, -4.25870487e+00, -1.68732992e+00, -1.02543230e+00, 1.18257996e+00, 0.00000000e+00, 5.0000000000, 6.0000000000, 0.0122837667
          24, 0.00000000e+00, 0.00000000e+00, 0.00000000e+00, 0.00000000e+00, 0.00000000e+00, 0.00000000e+00, 0.00000000e+00, 0.00000000e+00, 0.00000000e+00, 0.00000000e+00, 0.00000000e+00, 0.00000000e+00, -4.25892766e+00, -1.71469782e+00, -1.04514847e+00, 1.18277441e+00, 0.00000000e+00, 5.0000000000, 6.0000000000, 0.0127705000
          25, 0.00000000e+00, 0.00000000e+00, 0.00000000e+00, 0.00000000e+00, 0.00000000e+00, 0.00000000e+00, 0.00000000e+00, 0.00000000e+00, 0.00000000e+00, 0.00000000e+00, 0.00000000e+00, 0.00000000e+00, -4.26546242e+00, -1.74342477e+00, -1.06501897e+00, 1.17682946e+00, 0.00000000e+00, 5.0000000000, 6.0000000000, 0.0132463333
          26, 0.00000000e+00, 0.00000000e+00, 0.00000000e+00, 0.00000000e+00, 0.00000000e+00, 0.00000000e+00, 0.00000000e+00, 0.00000000e+00, 0.00000000e+00, 0.00000000e+00, 0.00000000e+00, 0.00000000e+00, -4.27753219e+00, -1.77377388e+00, -1.08504136e+00, 1.16546224e+00, 0.00000000e+00, 5.0000000000, 6.0000000000, 0.0137742500
          27, 0.00000000e+00, 0.00000000e+00, 0.00000000e+00, 0.00000000e+00, 0.00000000e+00, 0.00000000e+00, 0.00000000e+00, 0.00000000e+00, 0.00000000e+00, 0.00000000e+00, 0.00000000e+00, 0.00000000e+00, -4.29389127e+00, -1.80547711e+00, -1.10521603e+00, 1.14986607e+00, 0.00000000e+00, 5.0000000000, 6.0000000000, 0.0142500667
          28, 0.00000000e+00, 0.00000000e+00, 0.00000000e+00, 0.00000000e+00, 0.00000000e+00, 0.00000000e+00, 0.00000000e+00, 0.00000000e+00, 0.00000000e+00, 0.00000000e+00, 0.00000000e+00, 0.00000000e+00, -4.31329183e+00, -1.83795620e+00, -1.12554480e+00, 1.13124032e+00, 0.00000000e+00, 5.0000000000, 6.0000000000, 0.0147437000
          29, 0.00000000e+00, 0.00000000e+00, 0.00000000e+00, 0.00000000e+00, 0.00000000e+00, 0.00000000e+00, 0.00000000e+00, 0.00000000e+00, 0.00000000e+00, 0.00000000e+00, 0.00000000e+00, 0.00000000e+00, -4.33469794e+00, -1.87051588e+00, -1.14602962e+00, 1.11057921e+00, 0.00000000e+00, 5.0000000000, 6.0000000000, 0.0152076167
          30, 0.00000000e+00, 0.00000000e+00, 0.00000000e+00, 0.00000000e+00, 0.00000000e+00, 0.00000000e+00, 0.00000000e+00, 0.00000000e+00, 0.00000000e+00, 0.00000000e+00, 0.00000000e+00, 0.00000000e+00, -4.35735944e+00, -1.90248897e+00, -1.16667179e+00, 1.08860244e+00, 0.00000000e+00, 5.0000000000, 6.0000000000, 0.0157250333
          31, 0.00000000e+00, 0.00000000e+00, 0.00000000e+00, 0.00000000e+00, 0.00000000e+00, 0.00000000e+00, 0.00000000e+00, 0.00000000e+00, 0.00000000e+00, 0.00000000e+00, 0.00000000e+00, 0.00000000e+00, -4.38080028e+00, -1.93332741e+00, -1.18747159e+00, 1.06576961e+00, 0.00000000e+00, 5.0000000000, 6.0000000000, 0.0161767500
          32, 0.00000000e+00, 0.00000000e+00, 0.00000000e+00, 0.00000000e+00, 0.00000000e+00, 0.00000000e+00, 0.00000000e+00, 0.00000000e+00, 0.00000000e+00, 0.00000000e+00, 0.00000000e+00, 0.00000000e+00, -4.40475750e+00, -1.96264015e+00, -1.20842826e+00, 1.04234080e+00, 0.00000000e+00, 5.0000000000, 6.0000000000, 0.0166604500
          33, 0.00000000e+00, 0.00000000e+00, 0.00000000e+00, 0.00000000e+00, 0.00000000e+00, 0.00000000e+00, 0.00000000e+00, 0.00000000e+00, 0.00000000e+00, 0.00000000e+00, 0.00000000e+00, 0.00000000e+00, -4.42910073e+00, -1.99018349e+00, -1.22954006e+00, 1.01845455e+00, 0.00000000e+00, 5.0000000000, 6.0000000000, 0.0171290667
          34, 0.00000000e+00, 0.00000000e+00, 0.00000000e+00, 0.00000000e+00, 0.00000000e+00, 0.00000000e+00, 0.00000000e+00, 0.00000000e+00, 0.00000000e+00, 0.00000000e+00, 0.00000000e+00, 0.00000000e+00, -4.45375269e+00, -2.01581667e+00, -1.25080392e+00, 9.94204653e-01, 0.00000000e+00, 5.0000000000, 6.0000000000, 0.0176478833
          35, 0.00000000e+00, 0.00000000e+00, 0.00000000e+00, 0.00000000e+00, 0.00000000e+00, 0.00000000e+00, 0.00000000e+00, 0.00000000e+00, 0.00000000e+00, 0.00000000e+00, 0.00000000e+00, 0.00000000e+00, -4.47861740e+00, -2.03943490e+00, -1.27221555e+00, 9.69710151e-01, 0.00000000e+00, 5.0000000000, 6.0000000000, 0.0180990833
          36, 0.00000000e+00, 0.00000000e+00, 0.00000000e+00, 0.00000000e+00, 0.00000000e+00, 0.00000000e+00, 0.00000000e+00, 0.00000000e+00, 0.00000000e+00, 0.00000000e+00, 0.00000000e+00, 0.00000000e+00, -4.50351065e+00, -2.06088977e+00, -1.29376876e+00, 9.45184180e-01, 0.00000000e+00, 5.0000000000, 6.0000000000, 0.0185953167
          37, 0.00000000e+00, 0.00000000e+00, 0.00000000e+00, 0.00000000e+00, 0.00000000e+00, 0.00000000e+00, 0.00000000e+00, 0.00000000e+00, 0.00000000e+00, 0.00000000e+00, 0.00000000e+00, 0.00000000e+00, -4.52807833e+00, -2.07990279e+00, -1.31545481e+00, 9.21014660e-01, 0.00000000e+00, 5.0000000000, 6.0000000000, 0.0190744333
          38, 0.00000000e+00, 0.00000000e+00, 0.00000000e+00, 0.00000000e+00, 0.00000000e+00, 0.00000000e+00, 0.00000000e+00, 0.00000000e+00, 0.00000000e+00, 0.00000000e+00, 0.00000000e+00, 0.00000000e+00, -4.55168654e+00, -2.09597682e+00, -1.33726163e+00, 8.97870636e-01, 0.00000000e+00, 5.0000000000, 6.0000000000, 0.0195928667
          39, 0.00000000e+00, 0.00000000e+00, 0.00000000e+00, 0.00000000e+00, 0.00000000e+00, 0.00000000e+00, 0.00000000e+00, 0.00000000e+00, 0.00000000e+00, 0.00000000e+00, 0.00000000e+00, 0.00000000e+00, -4.57327640e+00, -2.10831860e+00, -1.35917308e+00, 8.76837904e-01, 0.00000000e+00, 5.0000000000, 6.0000000000, 0.0200535167
          40, 0.00000000e+00, 0.00000000e+00, 0.00000000e+00, 0.00000000e+00, 0.00000000e+00, 0.00000000e+00, 0.00000000e+00, 0.00000000e+00, 0.00000000e+00, 0.00000000e+00, 0.00000000e+00, 0.00000000e+00, -4.59121120e+00, -2.11580789e+00, -1.38116827e+00, 8.59552829e-01, 0.00000000e+00, 5.0000000000, 6.0000000000, 0.0205637500
          41, 0.00000000e+00, 0.00000000e+00, 0.00000000e+00, 0.00000000e+00, 0.00000000e+00, 0.00000000e+00, 0.00000000e+00, 0.00000000e+00, 0.00000000e+00, 0.00000000e+00, 0.00000000e+00, 0.00000000e+00, -4.60321828e+00, -2.11707714e+00, -1.40322106e+00, 8.48233385e-01, 0.00000000e+00, 5.0000000000, 6.0000000000, 0.0210548500
          42, 0.00000000e+00, 0.00000000e+00, 0.00000000e+00, 0.00000000e+00, 0.00000000e+00, 0.00000000e+00, 0.00000000e+00, 0.00000000e+00, 0.00000000e+00, 0.00000000e+00, 0.00000000e+00, 0.00000000e+00, -4.60662136e+00, -2.11076820e+00, -1.42529971e+00, 8.45428447e-01, 0.00000000e+00, 5.0000000000, 6.0000000000, 0.0215580333
          43, 0.00000000e+00, 0.00000000e+00, 0.00000000e+00, 0.00000000e+00, 0.00000000e+00, 0.00000000e+00, 0.00000000e+00, 0.00000000e+00, 0.00000000e+00, 0.00000000e+00, 0.00000000e+00, 0.00000000e+00, -4.59903633e+00, -2.09595826e+00, -1.44736702e+00, 8.53345971e-01, 0.00000000e+00, 5.0000000000, 6.0000000000, 0.0220022000
          44, 0.00000000e+00, 0.00000000e+00, 0.00000000e+00, 0.00000000e+00, 0.00000000e+00, 0.00000000e+00, 0.00000000e+00, 0.00000000e+00, 0.00000000e+00, 0.00000000e+00, 0.00000000e+00, 0.00000000e+00, -4.57937044e+00, -2.07259384e+00, -1.46938089e+00, 8.72936783e-01, 0.00000000e+00, 5.0000000000, 6.0000000000, 0.0225080000
          45, 0.00000000e+00, 0.00000000e+00, 0.00000000e+00, 0.00000000e+00, 0.00000000e+00, 0.00000000e+00, 0.00000000e+00, 0.00000000e+00, 0.00000000e+00, 0.00000000e+00, 0.00000000e+00, 0.00000000e+00, -4.54848341e+00, -2.04167472e+00, -1.49129545e+00, 9.03321109e-01, 0.00000000e+00, 5.0000000000, 6.0000000000, 0.0230106500
          46, 0.00000000e+00, 0.00000000e+00, 0.00000000e+00, 0.00000000e+00, 0.00000000e+00, 0.00000000e+00, 0.00000000e+00, 0.00000000e+00, 0.00000000e+00, 0.00000000e+00, 0.00000000e+00, 0.00000000e+00, -4.50893919e+00, -2.00505179e+00, -1.51306270e+00, 9.42043932e-01, 0.00000000e+00, 5.0000000000, 6.0000000000, 0.0235575333
          47, 0.00000000e+00, 0.00000000e+00, 0.00000000e+00, 0.00000000e+00, 0.00000000e+00, 0.00000000e+00, 0.00000000e+00, 0.00000000e+00, 0.00000000e+00, 0.00000000e+00, 0.00000000e+00, 0.00000000e+00, -4.46405518e+00, -1.96496772e+00, -1.53463467e+00, 9.85951800e-01, 0.00000000e+00, 5.0000000000, 6.0000000000, 0.0240906833
          48, 0.00000000e+00, 0.00000000e+00, 0.00000000e+00, 0.00000000e+00, 0.00000000e+00, 0.00000000e+00, 0.00000000e+00, 0.00000000e+00, 0.00000000e+00, 0.00000000e+00, 0.00000000e+00, 0.00000000e+00, -4.41696676e+00, -1.92360153e+00, -1.55596626e+00, 1.03205134e+00, 0.00000000e+00, 5.0000000000, 6.0000000000, 0.0247245500
          49, 0.00000000e+00, 0.00000000e+00, 0.00000000e+00, 0.00000000e+00, 0.00000000e+00, 0.00000000e+00, 0.00000000e+00, 0.00000000e+00, 0.00000000e+00, 0.00000000e+00, 0.00000000e+00, 0.00000000e+00, -4.37014180e+00, -1.88278666e+00, -1.57701837e+00, 1.07796357e+00, 0.00000000e+00, 5.0000000000, 6.0000000000, 0.0252116667
          50, 0.00000000e+00, 0.00000000e+00, 0.00000000e+00, 0.00000000e+00, 0.00000000e+00, 0.00000000e+00, 0.00000000e+00, 0.00000000e+00, 0.00000000e+00, 0.00000000e+00, 0.00000000e+00, 0.00000000e+00, -4.32530641e+00, -1.84391723e+00, -1.59776128e+00, 1.12200342e+00, 0.00000000e+00, 5.0000000000, 6.0000000000, 0.0257346333
          51, 0.00000000e+00, 0.00000000e+00, 0.00000000e+00, 0.00000000e+00, 0.00000000e+00, 0.00000000e+00, 0.00000000e+00, 0.00000000e+00, 0.00000000e+00, 0.00000000e+00, 0.00000000e+00, 0.00000000e+00, -4.28357174e+00, -1.80797609e+00, -1.61817733e+00, 1.16307004e+00, 0.00000000e+00, 5.0000000000, 6.0000000000, 0.0262096833
          52, 0.00000000e+00, 0.00000000e+00, 0.00000000e+00, 0.00000000e+00, 0.00000000e+00, 0.00000000e+00, 0.00000000e+00, 0.00000000e+00, 0.00000000e+00, 0.00000000e+00, 0.00000000e+00, 0.00000000e+00, -4.24560239e+00, -1.77561024e+00, -1.63826287e+00, 1.20049284e+00, 0.00000000e+00, 5.0000000000, 6.0000000000, 0.0267070333
          53, 0.00000000e+00, 0.00000000e+00, 0.00000000e+00, 0.00000000e+00, 0.00000000e+00, 0.00000000e+00, 0.00000000e+00, 0.00000000e+00, 0.00000000e+00, 0.00000000e+00, 0.00000000e+00, 0.00000000e+00, -4.21175609e+00, -1.74720830e+00, -1.65802847e+00, 1.23390109e+00, 0.00000000e+00, 5.0000000000, 6.0000000000, 0.0271932000
          54, 0.00000000e+00, 0.00000000e+00, 0.00000000e+00, 0.00000000e+00, 0.00000000e+00, 0.00000000e+00, 0.00000000e+00, 0.00000000e+00, 0.00000000e+00, 0.00000000e+00, 0.00000000e+00, 0.00000000e+00, -4.18218322e+00, -1.72296386e+00, -1.67749729e+00, 1.26312923e+00, 0.00000000e+00, 5.0000000000, 6.0000000000, 0.0277347833
          55, 0.00000000e+00, 0.00000000e+00, 0.00000000e+00, 0.00000000e+00, 0.00000000e+00, 0.00000000e+00, 0.00000000e+00, 0.00000000e+00, 0.00000000e+00, 0.00000000e+00, 0.00000000e+00, 0.00000000e+00, -4.15689391e+00, -1.70292325e+00, -1.69670174e+00, 1.28815207e+00, 0.00000000e+00, 5.0000000000, 6.0000000000, 0.0282204667
          56, 0.00000000e+00, 0.00000000e+00, 0.00000000e+00, 0.00000000e+00, 0.00000000e+00, 0.00000000e+00, 0.00000000e+00, 0.00000000e+00, 0.00000000e+00, 0.00000000e+00, 0.00000000e+00, 0.00000000e+00, -4.13580245e+00, -1.68702038e+00, -1.71567853e+00, 1.30904133e+00, 0.00000000e+00, 5.0000000000, 6.0000000000, 0.0287449333
          57, 0.00000000e+00, 0.00000000e+00, 0.00000000e+00, 0.00000000e+00, 0.00000000e+00, 0.00000000e+00, 0.00000000e+00, 0.00000000e+00, 0.00000000e+00, 0.00000000e+00, 0.00000000e+00, 0.00000000e+00, -4.11875715e+00, -1.67510253e+00, -1.73446263e+00, 1.32593601e+00, 0.00000000e+00, 5.0000000000, 6.0000000000, 0.0292335333
          58, 0.00000000e+00, 0.00000000e+00, 0.00000000e+00, 0.00000000e+00, 0.00000000e+00, 0.00000000e+00, 0.00000000e+00, 0.00000000e+00, 0.00000000e+00, 0.00000000e+00, 0.00000000e+00, 0.00000000e+00, -4.10556203e+00, -1.66695089e+00, -1.75308103e+00, 1.33902083e+00, 0.00000000e+00, 5.0000000000, 6.0000000000, 0.0297240833
          59, 0.00000000e+00, 0.00000000e+00, 0.00000000e+00, 0.00000000e+00, 0.00000000e+00, 0.00000000e+00, 0.00000000e+00, 0.00000000e+00, 0.00000000e+00, 0.00000000e+00, 0.00000000e+00, 0.00000000e+00, -4.09599289e+00, -1.66229759e+00, -1.77154671e+00, 1.34851002e+00, 0.00000000e+00, 5.0000000000, 6.0000000000, 0.0302269000
          60, 0.00000000e+00, 0.00000000e+00, 0.00000000e+00, 0.00000000e+00, 0.00000000e+00, 0.00000000e+00, 0.00000000e+00, 0.00000000e+00, 0.00000000e+00, 0.00000000e+00, 0.00000000e+00, 0.00000000e+00, -4.08981209e+00, -1.66084373e+00, -1.78985319e+00, 1.35463254e+00, 0.00000000e+00, 5.0000000000, 6.0000000000, 0.0307667333
          61, 0.00000000e+00, 0.00000000e+00, 0.00000000e+00, 0.00000000e+00, 0.00000000e+00, 0.00000000e+00, 0.00000000e+00, 0.00000000e+00, 0.00000000e+00, 0.00000000e+00, 0.00000000e+00, 0.00000000e+00, -4.08678237e+00, -1.66227796e+00, -1.80797150e+00, 1.35761832e+00, 0.00000000e+00, 5.0000000000, 6.0000000000, 0.0312547500
          62, 0.00000000e+00, 0.00000000e+00, 0.00000000e+00, 0.00000000e+00, 0.00000000e+00, 0.00000000e+00, 0.00000000e+00, 0.00000000e+00, 0.00000000e+00, 0.00000000e+00, 0.00000000e+00, 0.00000000e+00, -4.08667970e+00, -1.66629630e+00, -1.82584907e+00, 1.35768541e+00, 0.00000000e+00, 5.0000000000, 6.0000000000, 0.0317854500
          63, 0.00000000e+00, 0.00000000e+00, 0.00000000e+00, 0.00000000e+00, 0.00000000e+00, 0.00000000e+00, 0.00000000e+00, 0.00000000e+00, 0.00000000e+00, 0.00000000e+00, 0.00000000e+00, 0.00000000e+00, -4.08930538e+00, -1.67262225e+00, -1.84341154e+00, 1.35502796e+00, 0.00000000e+00, 5.0000000000, 6.0000000000, 0.0322760333
          64, 0.00000000e+00, 0.00000000e+00, 0.00000000e+00, 0.00000000e+00, 0.00000000e+00, 0.00000000e+00, 0.00000000e+00, 0.00000000e+00, 0.00000000e+00, 0.00000000e+00, 0.00000000e+00, 0.00000000e+00, -4.09449653e+00, -1.68102553e+00, -1.86056751e+00, 1.34980576e+00, 0.00000000e+00, 5.0000000000, 6.0000000000, 0.0327751333
          65, 0.00000000e+00, 0.00000000e+00, 0.00000000e+00, 0.00000000e+00, 0.00000000e+00, 0.00000000e+00, 0.00000000e+00, 0.00000000e+00, 0.00000000e+00, 0.00000000e+00, 0.00000000e+00, 0.00000000e+00, -4.10213406e+00, -1.69133724e+00, -1.87721634e+00, 1.34213625e+00, 0.00000000e+00, 5.0000000000, 6.0000000000, 0.0332713833
          66, 0.00000000e+00, 0.00000000e+00, 0.00000000e+00, 0.00000000e+00, 0.00000000e+00, 0.00000000e+00, 0.00000000e+00, 0.00000000e+00, 0.00000000e+00, 0.00000000e+00, 0.00000000e+00, 0.00000000e+00, -4.11214733e+00, -1.70345921e+00, -1.89325874e+00, 1.33208968e+00, 0.00000000e+00, 5.0000000000, 6.0000000000, 0.0337828667
          67, 0.00000000e+00, 0.00000000e+00, 0.00000000e+00, 0.00000000e+00, 0.00000000e+00, 0.00000000e+00, 0.00000000e+00, 0.00000000e+00, 0.00000000e+00, 0.00000000e+00, 0.00000000e+00, 0.00000000e+00, -4.12451481e+00, -1.71736646e+00, -1.90860824e+00, 1.31968828e+00, 0.00000000e+00, 5.0000000000, 6.0000000000, 0.0342470833
          68, 0.00000000e+00, 0.00000000e+00, 0.00000000e+00, 0.00000000e+00, 0.00000000e+00, 0.00000000e+00, 0.00000000e+00, 0.00000000e+00, 0.00000000e+00, 0.00000000e+00, 0.00000000e+00, 0.00000000e+00, -4.13926094e+00, -1.73310272e+00, -1.92320265e+00, 1.30490907e+00, 0.00000000e+00, 5.0000000000, 6.0000000000, 0.0347443833
          69, 0.00000000e+00, 0.00000000e+00, 0.00000000e+00, 0.00000000e+00, 0.00000000e+00, 0.00000000e+00, 0.00000000e+00, 0.00000000e+00, 0.00000000e+00, 0.00000000e+00, 0.00000000e+00, 0.00000000e+00, -4.15644951e+00, -1.75077055e+00, -1.93701365e+00, 1.28769021e+00, 0.00000000e+00, 5.0000000000, 6.0000000000, 0.0352485167
          70, 0.00000000e+00, 0.00000000e+00, 0.00000000e+00, 0.00000000e+00, 0.00000000e+00, 0.00000000e+00, 0.00000000e+00, 0.00000000e+00, 0.00000000e+00, 0.00000000e+00, 0.00000000e+00, 0.00000000e+00, -4.17617455e+00, -1.77051818e+00, -1.95005310e+00, 1.26793975e+00, 0.00000000e+00, 5.0000000000, 6.0000000000, 0.0357771833
          71, 0.00000000e+00, 0.00000000e+00, 0.00000000e+00, 0.00000000e+00, 0.00000000e+00, 0.00000000e+00, 0.00000000e+00, 0.00000000e+00, 0.00000000e+00, 0.00000000e+00, 0.00000000e+00, 0.00000000e+00, -4.19854962e+00, -1.79252584e+00, -1.96237453e+00, 1.24554618e+00, 0.00000000e+00, 5.0000000000, 6.0000000000, 0.0362672167
          72, 0.00000000e+00, 0.00000000e+00, 0.00000000e+00, 0.00000000e+00, 0.00000000e+00, 0.00000000e+00, 0.00000000e+00, 0.00000000e+00, 0.00000000e+00, 0.00000000e+00, 0.00000000e+00, 0.00000000e+00, -4.22369605e+00, -1.81699353e+00, -1.97407011e+00, 1.22038999e+00, 0.00000000e+00, 5.0000000000, 6.0000000000, 0.0368217333
          73, 0.00000000e+00, 0.00000000e+00, 0.00000000e+00, 0.00000000e+00, 0.00000000e+00, 0.00000000e+00, 0.00000000e+00, 0.00000000e+00, 0.00000000e+00, 0.00000000e+00, 0.00000000e+00, 0.00000000e+00, -4.25173041e+00, -1.84413155e+00, -1.98526371e+00, 1.19235614e+00, 0.00000000e+00, 5.0000000000, 6.0000000000, 0.0373758667
          74, 0.00000000e+00, 0.00000000e+00, 0.00000000e+00, 0.00000000e+00, 0.00000000e+00, 0.00000000e+00, 0.00000000e+00, 0.00000000e+00, 0.00000000e+00, 0.00000000e+00, 0.00000000e+00, 0.00000000e+00, -4.28275016e+00, -1.87415419e+00, -1.99610120e+00, 1.16134838e+00, 0.00000000e+00, 5.0000000000, 6.0000000000, 0.0378655333
          75, 0.00000000e+00, 0.00000000e+00, 0.00000000e+00, 0.00000000e+00, 0.00000000e+00, 0.00000000e+00, 0.00000000e+00, 0.00000000e+00, 0.00000000e+00, 0.00000000e+00, 0.00000000e+00, 0.00000000e+00, -4.31681548e+00, -1.90727507e+00, -2.00673979e+00, 1.12730752e+00, 0.00000000e+00, 5.0000000000, 6.0000000000, 0.0383668500
          76, 0.00000000e+00, 0.00000000e+00, 0.00000000e+00, 0.00000000e+00, 0.00000000e+00, 0.00000000e+00, 0.00000000e+00, 0.00000000e+00, 0.00000000e+00, 0.00000000e+00, 0.00000000e+00, 0.00000000e+00, -4.35392247e+00, -1.94370140e+00, -2.01733795e+00, 1.09023821e+00, 0.00000000e+00, 5.0000000000, 6.0000000000, 0.0388418167
          77, 0.00000000e+00, 0.00000000e+00, 0.00000000e+00, 0.00000000e+00, 0.00000000e+00, 0.00000000e+00, 0.00000000e+00, 0.00000000e+00, 0.00000000e+00, 0.00000000e+00, 0.00000000e+00, 0.00000000e+00, -4.39395974e+00, -1.98361967e+00, -2.02804721e+00, 1.05025240e+00, 0.00000000e+00, 5.0000000000, 6.0000000000, 0.0393643333
          78, 0.00000000e+00, 0.00000000e+00, 0.00000000e+00, 0.00000000e+00, 0.00000000e+00, 0.00000000e+00, 0.00000000e+00, 0.00000000e+00, 0.00000000e+00, 0.00000000e+00, 0.00000000e+00, 0.00000000e+00, -4.43663358e+00, -2.02715808e+00, -2.03900648e+00, 1.00764414e+00, 0.00000000e+00, 5.0000000000, 6.0000000000, 0.0398729500
          79, 0.00000000e+00, 0.00000000e+00, 0.00000000e+00, 0.00000000e+00, 0.00000000e+00, 0.00000000e+00, 0.00000000e+00, 0.00000000e+00, 0.00000000e+00, 0.00000000e+00, 0.00000000e+00, 0.00000000e+00, -4.48133857e+00, -2.07429309e+00, -2.05033916e+00, 9.63018723e-01, 0.00000000e+00, 5.0000000000, 6.0000000000, 0.0403992500
          80, 0.00000000e+00, 0.00000000e+00, 0.00000000e+00, 0.00000000e+00, 0.00000000e+00, 0.00000000e+00, 0.00000000e+00, 0.00000000e+00, 0.00000000e+00, 0.00000000e+00, 0.00000000e+00, 0.00000000e+00, -4.52694231e+00, -2.12463327e+00, -2.06215291e+00, 9.17507642e-01, 0.00000000e+00, 5.0000000000, 6.0000000000, 0.0408779833
          81, 0.00000000e+00, 0.00000000e+00, 0.00000000e+00, 0.00000000e+00, 0.00000000e+00, 0.00000000e+00, 0.00000000e+00, 0.00000000e+00, 0.00000000e+00, 0.00000000e+00, 0.00000000e+00, 0.00000000e+00, -4.57146372e+00, -2.17695336e+00, -2.07454180e+00, 8.73089706e-01, 0.00000000e+00, 5.0000000000, 6.0000000000, 0.0413978000
          82, 0.00000000e+00, 0.00000000e+00, 0.00000000e+00, 0.00000000e+00, 0.00000000e+00, 0.00000000e+00, 0.00000000e+00, 0.00000000e+00, 0.00000000e+00, 0.00000000e+00, 0.00000000e+00, 0.00000000e+00, -4.61170566e+00, -2.22829800e+00, -2.08759027e+00, 8.32958084e-01, 0.00000000e+00, 5.0000000000, 6.0000000000, 0.0418964333
          83, 0.00000000e+00, 0.00000000e+00, 0.00000000e+00, 0.00000000e+00, 0.00000000e+00, 0.00000000e+00, 0.00000000e+00, 0.00000000e+00, 0.00000000e+00, 0.00000000e+00, 0.00000000e+00, 0.00000000e+00, -4.64313613e+00, -2.27266291e+00, -2.10137879e+00, 8.01640295e-01, 0.00000000e+00, 5.0000000000, 6.0000000000, 0.0424091667
          84, 0.00000000e+00, 0.00000000e+00, 0.00000000e+00, 0.00000000e+00, 0.00000000e+00, 0.00000000e+00, 0.00000000e+00, 0.00000000e+00, 0.00000000e+00, 0.00000000e+00, 0.00000000e+00, 0.00000000e+00, -4.66062791e+00, -2.30037765e+00, -2.11599026e+00, 7.84262231e-01, 0.00000000e+00, 5.0000000000, 6.0000000000, 0.0428689833
          85, 0.00000000e+00, 0.00000000e+00, 0.00000000e+00, 0.00000000e+00, 0.00000000e+00, 0.00000000e+00, 0.00000000e+00, 0.00000000e+00, 0.00000000e+00, 0.00000000e+00, 0.00000000e+00, 0.00000000e+00, -4.66043152e+00, -2.30125815e+00, -2.13151720e+00, 7.84579823e-01, 0.00000000e+00, 5.0000000000, 6.0000000000, 0.0433714333
          86, 0.00000000e+00, 0.00000000e+00, 0.00000000e+00, 0.00000000e+00, 0.00000000e+00, 0.00000000e+00, 0.00000000e+00, 0.00000000e+00, 0.00000000e+00, 0.00000000e+00, 0.00000000e+00, 0.00000000e+00, -4.64229146e+00, -2.27204434e+00, -2.14806934e+00, 8.02861530e-01, 0.00000000e+00, 5.0000000000, 6.0000000000, 0.0438581167
          87, 0.00000000e+00, 0.00000000e+00, 0.00000000e+00, 0.00000000e+00, 0.00000000e+00, 0.00000000e+00, 0.00000000e+00, 0.00000000e+00, 0.00000000e+00, 0.00000000e+00, 0.00000000e+00, 0.00000000e+00, -4.60960804e+00, -2.21949800e+00, -2.16578115e+00, 8.35718224e-01, 0.00000000e+00, 5.0000000000, 6.0000000000, 0.0443781167
          88, 0.00000000e+00, 0.00000000e+00, 0.00000000e+00, 0.00000000e+00, 0.00000000e+00, 0.00000000e+00, 0.00000000e+00, 0.00000000e+00, 0.00000000e+00, 0.00000000e+00, 0.00000000e+00, 0.00000000e+00, -4.56746366e+00, -2.15434743e+00, -2.18481958e+00, 8.78071041e-01, 0.00000000e+00, 5.0000000000, 6.0000000000, 0.0448499000
          89, 0.00000000e+00, 0.00000000e+00, 0.00000000e+00, 0.00000000e+00, 0.00000000e+00, 0.00000000e+00, 0.00000000e+00, 0.00000000e+00, 0.00000000e+00, 0.00000000e+00, 0.00000000e+00, 0.00000000e+00, -4.52054020e+00, -2.08495459e+00, -2.20539115e+00, 9.25235527e-01, 0.00000000e+00, 5.0000000000, 6.0000000000, 0.0453531500