TITLE = "Visualization of the volumetric solution"
VARIABLES = "x","y","Density","Momentum_x","Momentum_y","Energy","Pressure","Temperature","Mach","C<sub>p</sub>","Roe_Dissipation"
ZONE NODES= 1720, ELEMENTS= 3288, DATAPACKING=POINT, ZONETYPE=FEQUADRILATERAL
1.040621e+00	-1.209117e+00	1.342310e+00	4.556211e+01	-1.562691e+02	2.984752e+05	1.154423e+05	2.996005e+02	3.494756e-01	1.990382e+01	0.000000e+00	
1.000000e+00	-1.190476e+00	1.342200e+00	4.555884e+01	-1.563322e+02	2.984853e+05	1.154431e+05	2.996272e+02	3.496168e-01	1.990496e+01	0.000000e+00	
1.049910e+00	-1.157894e+00	1.342356e+00	4.555073e+01	-1.562584e+02	2.984652e+05	1.154391e+05	2.995819e+02	3.494455e-01	1.989930e+01	0.000000e+00	
1.093743e+00	-1.191849e+00	1.342470e+00	4.556023e+01	-1.561981e+02	2.984604e+05	1.154401e+05	2.995592e+02	3.493104e-01	1.990081e+01	0.000000e+00	
1.000000e+00	-1.130952e+00	1.342227e+00	4.554349e+01	-1.563339e+02	2.984733e+05	1.154385e+05	2.996091e+02	3.496144e-01	1.989849e+01	0.000000e+00	
1.095476e+00	-1.132804e+00	1.342494e+00	4.554540e+01	-1.561948e+02	2.984494e+05	1.154362e+05	2.995435e+02	3.492977e-01	1.989518e+01	0.000000e+00	
1.048314e+00	-1.101041e+00	1.342388e+00	4.553894e+01	-1.562604e+02	2.984568e+05	1.154359e+05	2.995663e+02	3.494432e-01	1.989477e+01	0.000000e+00	
1.144982e+00	-1.160302e+00	1.342583e+00	4.555696e+01	-1.561549e+02	2.984473e+05	1.154373e+05	2.995266e+02	3.492092e-01	1.989678e+01	0.000000e+00	
1.000000e+00	-1.071429e+00	1.342253e+00	4.553329e+01	-1.563373e+02	2.984631e+05	1.154345e+05	2.995929e+02	3.496181e-01	1.989281e+01	0.000000e+00	
1.148009e+00	-1.206784e+00	1.342591e+00	4.556726e+01	-1.561452e+02	2.984506e+05	1.154389e+05	2.995291e+02	3.491918e-01	1.989910e+01	0.000000e+00	
1.095648e+00	-1.071244e+00	1.342513e+00	4.553916e+01	-1.562041e+02	2.984435e+05	1.154335e+05	2.995323e+02	3.493147e-01	1.989146e+01	0.000000e+00	
1.145729e+00	-1.102380e+00	1.342578e+00	4.555053e+01	-1.561667e+02	2.984406e+05	1.154341e+05	2.995194e+02	3.492349e-01	1.989234e+01	0.000000e+00	
1.049733e+00	-1.041321e+00	1.342402e+00	4.553186e+01	-1.562621e+02	2.984462e+05	1.154317e+05	2.995524e+02	3.494470e-01	1.988888e+01	0.000000e+00	
1.192761e+00	-1.192577e+00	1.342625e+00	4.557301e+01	-1.561337e+02	2.984432e+05	1.154365e+05	2.995153e+02	3.491708e-01	1.989571e+01	0.000000e+00	
1.195107e+00	-1.133762e+00	1.342614e+00	4.556907e+01	-1.561573e+02	2.984427e+05	1.154353e+05	2.995144e+02	3.492203e-01	1.989391e+01	0.000000e+00	
1.000000e+00	-1.011905e+00	1.342275e+00	4.552954e+01	-1.563386e+02	2.984511e+05	1.154297e+05	2.995757e+02	3.496229e-01	1.988610e+01	0.000000e+00	
1.094413e+00	-1.012480e+00	1.342512e+00	4.553663e+01	-1.562146e+02	2.984349e+05	1.154296e+05	2.995226e+02	3.493409e-01	1.988596e+01	0.000000e+00	
1.144800e+00	-1.042146e+00	1.342573e+00	4.555034e+01	-1.561859e+02	2.984358e+05	1.154313e+05	2.995132e+02	3.492793e-01	1.988835e+01	0.000000e+00	
1.194807e+00	-1.073419e+00	1.342586e+00	4.556844e+01	-1.561799e+02	2.984377e+05	1.154322e+05	2.995125e+02	3.492748e-01	1.988954e+01	0.000000e+00	
1.046483e+00	-9.824203e-01	1.342417e+00	4.553113e+01	-1.562695e+02	2.984376e+05	1.154279e+05	2.995394e+02	3.494654e-01	1.988361e+01	0.000000e+00	
1.243114e+00	-1.166395e+00	1.342604e+00	4.558894e+01	-1.561643e+02	2.984436e+05	1.154350e+05	2.995159e+02	3.492485e-01	1.989355e+01	0.000000e+00	
1.243982e+00	-1.104797e+00	1.342568e+00	4.559151e+01	-1.561963e+02	2.984432e+05	1.154332e+05	2.995193e+02	3.493233e-01	1.989105e+01	0.000000e+00	
1.000000e+00	-9.523810e-01	1.342295e+00	4.553157e+01	-1.563401e+02	2.984405e+05	1.154254e+05	2.995600e+02	3.496310e-01	1.988006e+01	0.000000e+00	
1.143063e+00	-9.807371e-01	1.342554e+00	4.555361e+01	-1.562088e+02	2.984304e+05	1.154280e+05	2.995090e+02	3.493360e-01	1.988368e+01	0.000000e+00	
1.092059e+00	-9.503938e-01	1.342508e+00	4.554003e+01	-1.562315e+02	2.984287e+05	1.154263e+05	2.995147e+02	3.493832e-01	1.988127e+01	0.000000e+00	
1.193442e+00	-1.011838e+00	1.342561e+00	4.557293e+01	-1.562096e+02	2.984353e+05	1.154297e+05	2.995118e+02	3.493459e-01	1.988606e+01	0.000000e+00	
1.243532e+00	-1.043138e+00	1.342526e+00	4.559567e+01	-1.562289e+02	2.984412e+05	1.154307e+05	2.995221e+02	3.494021e-01	1.988753e+01	0.000000e+00	
1.045466e+00	-9.241753e-01	1.342417e+00	4.553504e+01	-1.562772e+02	2.984277e+05	1.154236e+05	2.995280e+02	3.494903e-01	1.987745e+01	0.000000e+00	
1.292216e+00	-1.195962e+00	1.342552e+00	4.561195e+01	-1.561939e+02	2.984482e+05	1.154350e+05	2.995274e+02	3.493300e-01	1.989355e+01	0.000000e+00	
1.293053e+00	-1.132219e+00	1.342510e+00	4.561516e+01	-1.562280e+02	2.984489e+05	1.154335e+05	2.995330e+02	3.494099e-01	1.989146e+01	0.000000e+00	
1.293488e+00	-1.073063e+00	1.342462e+00	4.562128e+01	-1.562618e+02	2.984485e+05	1.154316e+05	2.995387e+02	3.494925e-01	1.988870e+01	0.000000e+00	
1.000000e+00	-8.928571e-01	1.342309e+00	4.553885e+01	-1.563405e+02	2.984284e+05	1.154205e+05	2.995441e+02	3.496418e-01	1.987316e+01	0.000000e+00	
1.139604e+00	-9.191736e-01	1.342530e+00	4.556277e+01	-1.562346e+02	2.984260e+05	1.154248e+05	2.995060e+02	3.494025e-01	1.987923e+01	0.000000e+00	
1.191101e+00	-9.499658e-01	1.342523e+00	4.558133e+01	-1.562396e+02	2.984319e+05	1.154267e+05	2.995124e+02	3.494221e-01	1.988182e+01	0.000000e+00	
1.086165e+00	-8.914965e-01	1.342492e+00	4.554877e+01	-1.562512e+02	2.984220e+05	1.154225e+05	2.995086e+02	3.494368e-01	1.987598e+01	0.000000e+00	
1.242086e+00	-9.812383e-01	1.342481e+00	4.560386e+01	-1.562628e+02	2.984398e+05	1.154283e+05	2.995260e+02	3.494865e-01	1.988414e+01	0.000000e+00	
1.292812e+00	-1.012013e+00	1.342410e+00	4.562829e+01	-1.562965e+02	2.984478e+05	1.154294e+05	2.995449e+02	3.495782e-01	1.988571e+01	0.000000e+00	
1.036811e+00	-8.675911e-01	1.342416e+00	4.554407e+01	-1.562897e+02	2.984212e+05	1.154203e+05	2.995196e+02	3.495266e-01	1.987276e+01	0.000000e+00	
1.341812e+00	-1.209973e+00	1.342484e+00	4.563666e+01	-1.562367e+02	2.984540e+05	1.154348e+05	2.995422e+02	3.494423e-01	1.989324e+01	0.000000e+00	
1.346003e+00	-1.158948e+00	1.342431e+00	4.564304e+01	-1.562721e+02	2.984572e+05	1.154342e+05	2.995524e+02	3.495268e-01	1.989241e+01	0.000000e+00	
1.344501e+00	-1.101571e+00	1.342371e+00	4.564747e+01	-1.563017e+02	2.984558e+05	1.154320e+05	2.995601e+02	3.496017e-01	1.988932e+01	0.000000e+00	
1.343694e+00	-1.041833e+00	1.342321e+00	4.565327e+01	-1.563352e+02	2.984562e+05	1.154304e+05	2.995671e+02	3.496832e-01	1.988706e+01	0.000000e+00	
1.000000e+00	-8.333333e-01	1.342331e+00	4.555139e+01	-1.563391e+02	2.984183e+05	1.154165e+05	2.995287e+02	3.496498e-01	1.986742e+01	0.000000e+00	
1.135849e+00	-8.580295e-01	1.342508e+00	4.557538e+01	-1.562600e+02	2.984232e+05	1.154223e+05	2.995044e+02	3.494693e-01	1.987564e+01	0.000000e+00	
1.188203e+00	-8.888722e-01	1.342485e+00	4.559403e+01	-1.562700e+02	2.984292e+05	1.154239e+05	2.995138e+02	3.495017e-01	1.987792e+01	0.000000e+00	
1.240135e+00	-9.198651e-01	1.342433e+00	4.561497e+01	-1.562965e+02	2.984383e+05	1.154259e+05	2.995304e+02	3.495727e-01	1.988071e+01	0.000000e+00	
1.060587e+00	-8.131532e-01	1.342445e+00	4.556479e+01	-1.562836e+02	2.984134e+05	1.154172e+05	2.995052e+02	3.495273e-01	1.986850e+01	0.000000e+00	
1.291525e+00	-9.506591e-01	1.342355e+00	4.563853e+01	-1.563308e+02	2.984473e+05	1.154273e+05	2.995515e+02	3.496655e-01	1.988274e+01	0.000000e+00	
1.342746e+00	-9.809885e-01	1.342264e+00	4.566146e+01	-1.563669e+02	2.984558e+05	1.154285e+05	2.995747e+02	3.497637e-01	1.988432e+01	0.000000e+00	
1.396074e+00	-1.192578e+00	1.342330e+00	4.566808e+01	-1.563097e+02	2.984612e+05	1.154334e+05	2.995730e+02	3.496339e-01	1.989128e+01	0.000000e+00	
1.395764e+00	-1.131440e+00	1.342277e+00	4.567399e+01	-1.563447e+02	2.984638e+05	1.154326e+05	2.995826e+02	3.497177e-01	1.989013e+01	0.000000e+00	
1.394808e+00	-1.071143e+00	1.342223e+00	4.567666e+01	-1.563725e+02	2.984633e+05	1.154309e+05	2.995902e+02	3.497861e-01	1.988774e+01	0.000000e+00	
1.393992e+00	-1.010751e+00	1.342172e+00	4.568288e+01	-1.564005e+02	2.984633e+05	1.154294e+05	2.995977e+02	3.498565e-01	1.988560e+01	0.000000e+00	
1.000000e+00	-7.738095e-01	1.342339e+00	4.556880e+01	-1.563381e+02	2.984070e+05	1.154118e+05	2.995148e+02	3.496642e-01	1.986078e+01	0.000000e+00	
1.136070e+00	-7.973420e-01	1.342468e+00	4.559284e+01	-1.562851e+02	2.984168e+05	1.154182e+05	2.995026e+02	3.495428e-01	1.986990e+01	0.000000e+00	
1.187499e+00	-8.298549e-01	1.342442e+00	4.560905e+01	-1.563004e+02	2.984269e+05	1.154213e+05	2.995164e+02	3.495829e-01	1.987418e+01	0.000000e+00	
1.238805e+00	-8.599060e-01	1.342381e+00	4.562926e+01	-1.563300e+02	2.984371e+05	1.154235e+05	2.995357e+02	3.496605e-01	1.987731e+01	0.000000e+00	
1.290245e+00	-8.900452e-01	1.342299e+00	4.565099e+01	-1.563639e+02	2.984466e+05	1.154252e+05	2.995585e+02	3.497517e-01	1.987970e+01	0.000000e+00	
1.341669e+00	-9.201922e-01	1.342209e+00	4.567184e+01	-1.563975e+02	2.984555e+05	1.154266e+05	2.995823e+02	3.498431e-01	1.988173e+01	0.000000e+00	
1.393077e+00	-9.501287e-01	1.342121e+00	4.569064e+01	-1.564265e+02	2.984629e+05	1.154277e+05	2.996048e+02	3.499241e-01	1.988327e+01	0.000000e+00	
1.043305e+00	-7.483473e-01	1.342427e+00	4.558215e+01	-1.563060e+02	2.984063e+05	1.154131e+05	2.994986e+02	3.495927e-01	1.986263e+01	0.000000e+00	
1.446081e+00	-1.157621e+00	1.342173e+00	4.569510e+01	-1.563824e+02	2.984695e+05	1.154325e+05	2.996056e+02	3.498217e-01	1.989004e+01	0.000000e+00	
1.450844e+00	-1.210365e+00	1.342201e+00	4.569411e+01	-1.563655e+02	2.984704e+05	1.154337e+05	2.996025e+02	3.497808e-01	1.989176e+01	0.000000e+00	
1.445809e+00	-1.099210e+00	1.342133e+00	4.569722e+01	-1.564051e+02	2.984695e+05	1.154313e+05	2.996114e+02	3.498768e-01	1.988831e+01	0.000000e+00	
1.091832e+00	-7.665481e-01	1.342467e+00	4.558771e+01	-1.562881e+02	2.984098e+05	1.154154e+05	2.994955e+02	3.495504e-01	1.986585e+01	0.000000e+00	
1.445317e+00	-1.039826e+00	1.342088e+00	4.570090e+01	-1.564273e+02	2.984693e+05	1.154300e+05	2.996180e+02	3.499325e-01	1.988648e+01	0.000000e+00	
1.444508e+00	-9.797257e-01	1.342047e+00	4.570651e+01	-1.564478e+02	2.984687e+05	1.154286e+05	2.996237e+02	3.499857e-01	1.988451e+01	0.000000e+00	
1.000000e+00	-7.142857e-01	1.342348e+00	4.559292e+01	-1.563432e+02	2.984008e+05	1.154087e+05	2.995050e+02	3.496926e-01	1.985654e+01	0.000000e+00	
1.188570e+00	-7.715395e-01	1.342393e+00	4.563036e+01	-1.563357e+02	2.984265e+05	1.154190e+05	2.995216e+02	3.496784e-01	1.987101e+01	0.000000e+00	
1.141157e+00	-7.415263e-01	1.342433e+00	4.561789e+01	-1.563167e+02	2.984175e+05	1.154166e+05	2.995061e+02	3.496301e-01	1.986756e+01	0.000000e+00	
1.238579e+00	-8.011049e-01	1.342327e+00	4.564756e+01	-1.563638e+02	2.984367e+05	1.154214e+05	2.995424e+02	3.497515e-01	1.987433e+01	0.000000e+00	
1.289445e+00	-8.304909e-01	1.342243e+00	4.566629e+01	-1.563956e+02	2.984463e+05	1.154232e+05	2.995659e+02	3.498366e-01	1.987691e+01	0.000000e+00	
1.340723e+00	-8.600896e-01	1.342155e+00	4.568403e+01	-1.564258e+02	2.984551e+05	1.154248e+05	2.995897e+02	3.499185e-01	1.987917e+01	0.000000e+00	
1.392142e+00	-8.897883e-01	1.342073e+00	4.569996e+01	-1.564503e+02	2.984623e+05	1.154261e+05	2.996114e+02	3.499872e-01	1.988100e+01	0.000000e+00	
1.443585e+00	-9.194397e-01	1.342009e+00	4.571285e+01	-1.564659e+02	2.984677e+05	1.154272e+05	2.996285e+02	3.500340e-01	1.988250e+01	0.000000e+00	
1.090456e+00	-7.145167e-01	1.342441e+00	4.560816e+01	-1.563080e+02	2.984088e+05	1.154136e+05	2.994970e+02	3.496098e-01	1.986343e+01	0.000000e+00	
1.039997e+00	-6.903901e-01	1.342407e+00	4.560658e+01	-1.563165e+02	2.983996e+05	1.154095e+05	2.994936e+02	3.496369e-01	1.985760e+01	0.000000e+00	
1.498196e+00	-1.126038e+00	1.342054e+00	4.571385e+01	-1.564279e+02	2.984737e+05	1.154314e+05	2.996294e+02	3.499439e-01	1.988854e+01	0.000000e+00	
1.510399e+00	-1.196264e+00	1.342086e+00	4.571720e+01	-1.564139e+02	2.984762e+05	1.154332e+05	2.996269e+02	3.499103e-01	1.989097e+01	0.000000e+00	
1.497132e+00	-1.068254e+00	1.342027e+00	4.571565e+01	-1.564444e+02	2.984737e+05	1.154306e+05	2.996333e+02	3.499839e-01	1.988729e+01	0.000000e+00	
1.496082e+00	-1.009007e+00	1.341995e+00	4.571855e+01	-1.564579e+02	2.984722e+05	1.154292e+05	2.996368e+02	3.500197e-01	1.988542e+01	0.000000e+00	
1.495030e+00	-9.489896e-01	1.341971e+00	4.572204e+01	-1.564699e+02	2.984709e+05	1.154280e+05	2.996391e+02	3.500514e-01	1.988370e+01	0.000000e+00	
1.000000e+00	-6.547619e-01	1.342355e+00	4.562173e+01	-1.563418e+02	2.983929e+05	1.154053e+05	2.994943e+02	3.497113e-01	1.985164e+01	0.000000e+00	
1.238355e+00	-7.426163e-01	1.342269e+00	4.566818e+01	-1.563942e+02	2.984361e+05	1.154192e+05	2.995497e+02	3.498374e-01	1.987131e+01	0.000000e+00	
1.188580e+00	-7.135674e-01	1.342339e+00	4.565466e+01	-1.563651e+02	2.984256e+05	1.154168e+05	2.995278e+02	3.497640e-01	1.986787e+01	0.000000e+00	
1.138284e+00	-6.855143e-01	1.342389e+00	4.564269e+01	-1.563402e+02	2.984149e+05	1.154140e+05	2.995094e+02	3.497033e-01	1.986390e+01	0.000000e+00	
1.288905e+00	-7.716261e-01	1.342187e+00	4.568318e+01	-1.564241e+02	2.984459e+05	1.154213e+05	2.995736e+02	3.499156e-01	1.987427e+01	0.000000e+00	
1.339977e+00	-8.007426e-01	1.342103e+00	4.569767e+01	-1.564510e+02	2.984546e+05	1.154231e+05	2.995969e+02	3.499880e-01	1.987677e+01	0.000000e+00	
1.391303e+00	-8.300433e-01	1.342028e+00	4.571040e+01	-1.564710e+02	2.984616e+05	1.154246e+05	2.996173e+02	3.500445e-01	1.987883e+01	0.000000e+00	
1.442698e+00	-8.594594e-01	1.341975e+00	4.572030e+01	-1.564813e+02	2.984665e+05	1.154258e+05	2.996324e+02	3.500767e-01	1.988055e+01	0.000000e+00	
1.494070e+00	-8.889202e-01	1.341951e+00	4.572655e+01	-1.564791e+02	2.984692e+05	1.154268e+05	2.996403e+02	3.500775e-01	1.988196e+01	0.000000e+00	
1.087729e+00	-6.605235e-01	1.342412e+00	4.563351e+01	-1.563265e+02	2.984047e+05	1.154107e+05	2.994959e+02	3.496713e-01	1.985934e+01	0.000000e+00	
1.036519e+00	-6.389016e-01	1.342403e+00	4.563082e+01	-1.563263e+02	2.983967e+05	1.154075e+05	2.994894e+02	3.496752e-01	1.985483e+01	0.000000e+00	
1.547027e+00	-1.151126e+00	1.342004e+00	4.572659e+01	-1.564401e+02	2.984764e+05	1.154317e+05	2.996411e+02	3.499828e-01	1.988884e+01	0.000000e+00	
1.549649e+00	-1.096695e+00	1.341991e+00	4.572501e+01	-1.564482e+02	2.984751e+05	1.154307e+05	2.996417e+02	3.500017e-01	1.988755e+01	0.000000e+00	
1.572311e+00	-1.200555e+00	1.342005e+00	4.573137e+01	-1.564356e+02	2.984774e+05	1.154322e+05	2.996423e+02	3.499756e-01	1.988958e+01	0.000000e+00	
1.547814e+00	-1.038373e+00	1.341975e+00	4.572595e+01	-1.564549e+02	2.984735e+05	1.154297e+05	2.996426e+02	3.500198e-01	1.988607e+01	0.000000e+00	
1.546431e+00	-9.785191e-01	1.341966e+00	4.572695e+01	-1.564604e+02	2.984717e+05	1.154287e+05	2.996419e+02	3.500345e-01	1.988467e+01	0.000000e+00	
1.545361e+00	-9.183948e-01	1.341961e+00	4.572852e+01	-1.564628e+02	2.984692e+05	1.154276e+05	2.996402e+02	3.500427e-01	1.988307e+01	0.000000e+00	
1.000000e+00	-5.952381e-01	1.342371e+00	4.565388e+01	-1.563349e+02	2.983876e+05	1.154031e+05	2.994852e+02	3.497178e-01	1.984858e+01	0.000000e+00	
1.236479e+00	-6.844404e-01	1.342221e+00	4.568901e+01	-1.564205e+02	2.984360e+05	1.154176e+05	2.995562e+02	3.499130e-01	1.986896e+01	0.000000e+00	
1.287827e+00	-7.131044e-01	1.342136e+00	4.570098e+01	-1.564492e+02	2.984458e+05	1.154197e+05	2.995808e+02	3.499873e-01	1.987199e+01	0.000000e+00	
1.184572e+00	-6.562751e-01	1.342299e+00	4.567713e+01	-1.563897e+02	2.984253e+05	1.154151e+05	2.995322e+02	3.498360e-01	1.986547e+01	0.000000e+00	
1.131451e+00	-6.297704e-01	1.342359e+00	4.566708e+01	-1.563610e+02	2.984136e+05	1.154120e+05	2.995110e+02	3.497674e-01	1.986119e+01	0.000000e+00	
1.339147e+00	-7.419103e-01	1.342055e+00	4.571231e+01	-1.564730e+02	2.984542e+05	1.154216e+05	2.996037e+02	3.500507e-01	1.987461e+01	0.000000e+00	
1.390516e+00	-7.708705e-01	1.341988e+00	4.572188e+01	-1.564887e+02	2.984608e+05	1.154231e+05	2.996226e+02	3.500953e-01	1.987683e+01	0.000000e+00	
1.441888e+00	-7.999823e-01	1.341947e+00	4.572864e+01	-1.564936e+02	2.984652e+05	1.154245e+05	2.996353e+02	3.501128e-01	1.987871e+01	0.000000e+00	
1.493214e+00	-8.292045e-01	1.341937e+00	4.573180e+01	-1.564853e+02	2.984672e+05	1.154256e+05	2.996405e+02	3.500971e-01	1.988028e+01	0.000000e+00	
1.544461e+00	-8.584941e-01	1.341962e+00	4.573091e+01	-1.564627e+02	2.984667e+05	1.154265e+05	2.996373e+02	3.500455e-01	1.988161e+01	0.000000e+00	
1.076336e+00	-6.075870e-01	1.342395e+00	4.565896e+01	-1.563406e+02	2.984034e+05	1.154091e+05	2.994954e+02	3.497202e-01	1.985710e+01	0.000000e+00	
1.600550e+00	-1.133089e+00	1.341993e+00	4.573035e+01	-1.564355e+02	2.984746e+05	1.154310e+05	2.996420e+02	3.499780e-01	1.988796e+01	0.000000e+00	
1.598755e+00	-1.069283e+00	1.341991e+00	4.572836e+01	-1.564387e+02	2.984730e+05	1.154303e+05	2.996404e+02	3.499848e-01	1.988692e+01	0.000000e+00	
1.634718e+00	-1.200848e+00	1.342004e+00	4.573382e+01	-1.564251e+02	2.984758e+05	1.154320e+05	2.996419e+02	3.499557e-01	1.988931e+01	0.000000e+00	
1.597484e+00	-1.008162e+00	1.341994e+00	4.572695e+01	-1.564365e+02	2.984698e+05	1.154291e+05	2.996368e+02	3.499807e-01	1.988530e+01	0.000000e+00	
1.596469e+00	-9.478281e-01	1.342005e+00	4.572624e+01	-1.564330e+02	2.984671e+05	1.154282e+05	2.996321e+02	3.499732e-01	1.988403e+01	0.000000e+00	
1.595591e+00	-8.877928e-01	1.342019e+00	4.572597e+01	-1.564269e+02	2.984638e+05	1.154273e+05	2.996263e+02	3.499599e-01	1.988267e+01	0.000000e+00	
1.069329e+00	-5.546983e-01	1.342370e+00	4.568588e+01	-1.563502e+02	2.983991e+05	1.154065e+05	2.994942e+02	3.497634e-01	1.985343e+01	0.000000e+00	
1.232605e+00	-6.269239e-01	1.342176e+00	4.570978e+01	-1.564410e+02	2.984354e+05	1.154159e+05	2.995619e+02	3.499760e-01	1.986666e+01	0.000000e+00	
1.285629e+00	-6.549535e-01	1.342089e+00	4.571933e+01	-1.564697e+02	2.984454e+05	1.154182e+05	2.995874e+02	3.500489e-01	1.986989e+01	0.000000e+00	
1.337846e+00	-6.834172e-01	1.342011e+00	4.572771e+01	-1.564912e+02	2.984537e+05	1.154202e+05	2.996098e+02	3.501055e-01	1.987265e+01	0.000000e+00	
1.178506e+00	-5.999571e-01	1.342262e+00	4.569987e+01	-1.564079e+02	2.984239e+05	1.154133e+05	2.995358e+02	3.498947e-01	1.986292e+01	0.000000e+00	
1.123578e+00	-5.753637e-01	1.342332e+00	4.569124e+01	-1.563747e+02	2.984116e+05	1.154102e+05	2.995124e+02	3.498166e-01	1.985860e+01	0.000000e+00	
1.389598e+00	-7.121037e-01	1.341953e+00	4.573412e+01	-1.565030e+02	2.984599e+05	1.154219e+05	2.996271e+02	3.501386e-01	1.987502e+01	0.000000e+00	
1.441092e+00	-7.409554e-01	1.341924e+00	4.573767e+01	-1.565027e+02	2.984638e+05	1.154233e+05	2.996373e+02	3.501417e-01	1.987703e+01	0.000000e+00	
1.492432e+00	-7.699347e-01	1.341928e+00	4.573768e+01	-1.564883e+02	2.984651e+05	1.154245e+05	2.996395e+02	3.501097e-01	1.987874e+01	0.000000e+00	
1.543664e+00	-7.990048e-01	1.341968e+00	4.573377e+01	-1.564596e+02	2.984639e+05	1.154255e+05	2.996333e+02	3.500414e-01	1.988018e+01	0.000000e+00	
1.594803e+00	-8.281254e-01	1.342039e+00	4.572627e+01	-1.564184e+02	2.984604e+05	1.154264e+05	2.996196e+02	3.499414e-01	1.988139e+01	0.000000e+00	
1.000000e+00	-5.357143e-01	1.342373e+00	4.568997e+01	-1.563365e+02	2.983850e+05	1.154015e+05	2.994805e+02	3.497450e-01	1.984631e+01	0.000000e+00	
1.648946e+00	-1.094829e+00	1.342040e+00	4.572650e+01	-1.564073e+02	2.984690e+05	1.154303e+05	2.996295e+02	3.499126e-01	1.988696e+01	0.000000e+00	
1.654747e+00	-1.149486e+00	1.342026e+00	4.572952e+01	-1.564092e+02	2.984709e+05	1.154309e+05	2.996343e+02	3.499193e-01	1.988777e+01	0.000000e+00	
1.648102e+00	-1.036534e+00	1.342056e+00	4.572321e+01	-1.564007e+02	2.984662e+05	1.154296e+05	2.996243e+02	3.498960e-01	1.988595e+01	0.000000e+00	
1.696459e+00	-1.196388e+00	1.342083e+00	4.572771e+01	-1.563811e+02	2.984689e+05	1.154316e+05	2.996233e+02	3.498517e-01	1.988875e+01	0.000000e+00	
1.647343e+00	-9.768803e-01	1.342078e+00	4.572005e+01	-1.563917e+02	2.984628e+05	1.154287e+05	2.996171e+02	3.498740e-01	1.988474e+01	0.000000e+00	
1.646583e+00	-9.169782e-01	1.342104e+00	4.571785e+01	-1.563810e+02	2.984591e+05	1.154279e+05	2.996091e+02	3.498485e-01	1.988355e+01	0.000000e+00	
1.645850e+00	-8.572406e-01	1.342133e+00	4.571611e+01	-1.563688e+02	2.984554e+05	1.154271e+05	2.996005e+02	3.498197e-01	1.988240e+01	0.000000e+00	
1.118466e+00	-5.207647e-01	1.342305e+00	4.571838e+01	-1.563902e+02	2.984117e+05	1.154091e+05	2.995153e+02	3.498701e-01	1.985701e+01	0.000000e+00	
1.067657e+00	-4.976080e-01	1.342351e+00	4.571893e+01	-1.563625e+02	2.983999e+05	1.154058e+05	2.994967e+02	3.498125e-01	1.985237e+01	0.000000e+00	
1.282527e+00	-5.972533e-01	1.342048e+00	4.573816e+01	-1.564868e+02	2.984454e+05	1.154170e+05	2.995934e+02	3.501026e-01	1.986824e+01	0.000000e+00	
1.227972e+00	-5.700864e-01	1.342138e+00	4.573124e+01	-1.564585e+02	2.984354e+05	1.154147e+05	2.995673e+02	3.500317e-01	1.986498e+01	0.000000e+00	
1.335955e+00	-6.252197e-01	1.341973e+00	4.574367e+01	-1.565061e+02	2.984534e+05	1.154190e+05	2.996153e+02	3.501524e-01	1.987105e+01	0.000000e+00	
1.388405e+00	-6.536085e-01	1.341924e+00	4.574692e+01	-1.565139e+02	2.984591e+05	1.154208e+05	2.996307e+02	3.501743e-01	1.987347e+01	0.000000e+00	
1.172776e+00	-5.443829e-01	1.342230e+00	4.572398e+01	-1.564243e+02	2.984240e+05	1.154121e+05	2.995399e+02	3.499490e-01	1.986127e+01	0.000000e+00	
1.440217e+00	-6.822398e-01	1.341907e+00	4.574719e+01	-1.565083e+02	2.984623e+05	1.154222e+05	2.996383e+02	3.501628e-01	1.987556e+01	0.000000e+00	
1.491668e+00	-7.110241e-01	1.341926e+00	4.574394e+01	-1.564880e+02	2.984628e+05	1.154235e+05	2.996374e+02	3.501146e-01	1.987736e+01	0.000000e+00	
1.542926e+00	-7.399089e-01	1.341980e+00	4.573704e+01	-1.564535e+02	2.984609e+05	1.154246e+05	2.996282e+02	3.500307e-01	1.987890e+01	0.000000e+00	
1.594075e+00	-7.688581e-01	1.342063e+00	4.572698e+01	-1.564076e+02	2.984569e+05	1.154255e+05	2.996121e+02	3.499177e-01	1.988020e+01	0.000000e+00	
1.645149e+00	-7.978403e-01	1.342165e+00	4.571500e+01	-1.563551e+02	2.984516e+05	1.154263e+05	2.995914e+02	3.497880e-01	1.988131e+01	0.000000e+00	
1.000000e+00	-4.761905e-01	1.342362e+00	4.572600e+01	-1.563376e+02	2.983848e+05	1.154008e+05	2.994812e+02	3.497713e-01	1.984537e+01	0.000000e+00	
1.699338e+00	-1.064432e+00	1.342143e+00	4.571580e+01	-1.563553e+02	2.984605e+05	1.154298e+05	2.996054e+02	3.497862e-01	1.988624e+01	0.000000e+00	
1.701258e+00	-1.122386e+00	1.342114e+00	4.572039e+01	-1.563659e+02	2.984640e+05	1.154305e+05	2.996137e+02	3.498135e-01	1.988728e+01	0.000000e+00	
1.698266e+00	-1.005530e+00	1.342172e+00	4.571141e+01	-1.563433e+02	2.984571e+05	1.154291e+05	2.995972e+02	3.497562e-01	1.988530e+01	0.000000e+00	
1.751835e+00	-1.208439e+00	1.342174e+00	4.571889e+01	-1.563318e+02	2.984606e+05	1.154310e+05	2.996015e+02	3.497340e-01	1.988787e+01	0.000000e+00	
1.697504e+00	-9.459863e-01	1.342204e+00	4.570779e+01	-1.563303e+02	2.984534e+05	1.154284e+05	2.995881e+02	3.497241e-01	1.988425e+01	0.000000e+00	
1.696824e+00	-8.863085e-01	1.342237e+00	4.570487e+01	-1.563166e+02	2.984496e+05	1.154277e+05	2.995787e+02	3.496909e-01	1.988322e+01	0.000000e+00	
1.696166e+00	-8.268316e-01	1.342271e+00	4.570278e+01	-1.563027e+02	2.984459e+05	1.154270e+05	2.995693e+02	3.496577e-01	1.988223e+01	0.000000e+00	
1.116174e+00	-4.640064e-01	1.342273e+00	4.574881e+01	-1.564031e+02	2.984127e+05	1.154084e+05	2.995207e+02	3.499203e-01	1.985600e+01	0.000000e+00	
1.168895e+00	-4.883350e-01	1.342194e+00	4.574979e+01	-1.564381e+02	2.984244e+05	1.154112e+05	2.995456e+02	3.499991e-01	1.985996e+01	0.000000e+00	
1.066592e+00	-4.393951e-01	1.342327e+00	4.575294e+01	-1.563712e+02	2.984013e+05	1.154054e+05	2.995010e+02	3.498545e-01	1.985183e+01	0.000000e+00	
1.751889e+00	-1.152379e+00	1.342206e+00	4.571319e+01	-1.563206e+02	2.984584e+05	1.154308e+05	2.995937e+02	3.497034e-01	1.988760e+01	0.000000e+00	
1.333726e+00	-5.672619e-01	1.341940e+00	4.575991e+01	-1.565172e+02	2.984532e+05	1.154181e+05	2.996203e+02	3.501908e-01	1.986973e+01	0.000000e+00	
1.279278e+00	-5.398617e-01	1.342010e+00	4.575741e+01	-1.565000e+02	2.984455e+05	1.154161e+05	2.995995e+02	3.501478e-01	1.986690e+01	0.000000e+00	
1.223918e+00	-5.134628e-01	1.342100e+00	4.575350e+01	-1.564723e+02	2.984358e+05	1.154138e+05	2.995733e+02	3.500801e-01	1.986366e+01	0.000000e+00	
1.386957e+00	-5.953011e-01	1.341901e+00	4.575996e+01	-1.565212e+02	2.984583e+05	1.154198e+05	2.996336e+02	3.502015e-01	1.987219e+01	0.000000e+00	
1.439218e+00	-6.237155e-01	1.341897e+00	4.575692e+01	-1.565104e+02	2.984607e+05	1.154214e+05	2.996383e+02	3.501756e-01	1.987432e+01	0.000000e+00	
1.490873e+00	-6.523436e-01	1.341931e+00	4.575040e+01	-1.564843e+02	2.984605e+05	1.154227e+05	2.996342e+02	3.501116e-01	1.987617e+01	0.000000e+00	
1.542206e+00	-6.810933e-01	1.341998e+00	4.574053e+01	-1.564445e+02	2.984578e+05	1.154238e+05	2.996221e+02	3.500130e-01	1.987776e+01	0.000000e+00	
1.593379e+00	-7.099137e-01	1.342091e+00	4.572807e+01	-1.563946e+02	2.984533e+05	1.154248e+05	2.996038e+02	3.498891e-01	1.987913e+01	0.000000e+00	
1.644471e+00	-7.387760e-01	1.342198e+00	4.571446e+01	-1.563405e+02	2.984479e+05	1.154256e+05	2.995821e+02	3.497541e-01	1.988031e+01	0.000000e+00	
1.695515e+00	-7.676637e-01	1.342305e+00	4.570153e+01	-1.562890e+02	2.984424e+05	1.154263e+05	2.995601e+02	3.496252e-01	1.988132e+01	0.000000e+00	
1.000000e+00	-4.166667e-01	1.342355e+00	4.576277e+01	-1.563382e+02	2.983865e+05	1.154010e+05	2.994831e+02	3.497954e-01	1.984557e+01	0.000000e+00	
1.750541e+00	-1.093258e+00	1.342240e+00	4.570620e+01	-1.563060e+02	2.984540e+05	1.154299e+05	2.995838e+02	3.496661e-01	1.988635e+01	0.000000e+00	
1.749304e+00	-1.034386e+00	1.342274e+00	4.570157e+01	-1.562940e+02	2.984512e+05	1.154295e+05	2.995752e+02	3.496348e-01	1.988578e+01	0.000000e+00	
1.748434e+00	-9.750108e-01	1.342306e+00	4.569759e+01	-1.562809e+02	2.984475e+05	1.154288e+05	2.995663e+02	3.496022e-01	1.988478e+01	0.000000e+00	
1.800221e+00	-1.182159e+00	1.342298e+00	4.570430e+01	-1.562763e+02	2.984522e+05	1.154307e+05	2.995733e+02	3.495951e-01	1.988756e+01	0.000000e+00	
1.747758e+00	-9.153829e-01	1.342339e+00	4.569436e+01	-1.562686e+02	2.984442e+05	1.154282e+05	2.995573e+02	3.495717e-01	1.988391e+01	0.000000e+00	
1.747140e+00	-8.558444e-01	1.342369e+00	4.569223e+01	-1.562570e+02	2.984409e+05	1.154275e+05	2.995488e+02	3.495435e-01	1.988300e+01	0.000000e+00	
1.746524e+00	-7.965773e-01	1.342398e+00	4.569118e+01	-1.562467e+02	2.984380e+05	1.154269e+05	2.995410e+02	3.495190e-01	1.988217e+01	0.000000e+00	
1.114880e+00	-4.060739e-01	1.342243e+00	4.577877e+01	-1.564140e+02	2.984155e+05	1.154085e+05	2.995275e+02	3.499645e-01	1.985615e+01	0.000000e+00	
1.166696e+00	-4.311516e-01	1.342159e+00	4.577616e+01	-1.564503e+02	2.984264e+05	1.154110e+05	2.995529e+02	3.500449e-01	1.985967e+01	0.000000e+00	
1.221074e+00	-4.564179e-01	1.342064e+00	4.577610e+01	-1.564840e+02	2.984371e+05	1.154134e+05	2.995804e+02	3.501231e-01	1.986307e+01	0.000000e+00	
1.065819e+00	-3.806343e-01	1.342307e+00	4.578606e+01	-1.563776e+02	2.984044e+05	1.154058e+05	2.995065e+02	3.498896e-01	1.985242e+01	0.000000e+00	
1.800616e+00	-1.123297e+00	1.342337e+00	4.569720e+01	-1.562610e+02	2.984483e+05	1.154301e+05	2.995628e+02	3.495549e-01	1.988667e+01	0.000000e+00	
1.849631e+00	-1.210478e+00	1.342388e+00	4.569595e+01	-1.562363e+02	2.984463e+05	1.154306e+05	2.995529e+02	3.494960e-01	1.988742e+01	0.000000e+00	
1.385424e+00	-5.370981e-01	1.341884e+00	4.577298e+01	-1.565249e+02	2.984576e+05	1.154192e+05	2.996357e+02	3.502202e-01	1.987126e+01	0.000000e+00	
1.331571e+00	-5.093972e-01	1.341912e+00	4.577614e+01	-1.565250e+02	2.984533e+05	1.154175e+05	2.996249e+02	3.502211e-01	1.986886e+01	0.000000e+00	
1.276546e+00	-4.824460e-01	1.341976e+00	4.577677e+01	-1.565103e+02	2.984463e+05	1.154156e+05	2.996057e+02	3.501860e-01	1.986613e+01	0.000000e+00	
1.438132e+00	-5.652974e-01	1.341894e+00	4.576662e+01	-1.565088e+02	2.984592e+05	1.154207e+05	2.996373e+02	3.501797e-01	1.987336e+01	0.000000e+00	
1.490036e+00	-5.937899e-01	1.341942e+00	4.575687e+01	-1.564772e+02	2.984581e+05	1.154220e+05	2.996300e+02	3.501005e-01	1.987520e+01	0.000000e+00	
1.541481e+00	-6.224415e-01	1.342021e+00	4.574413e+01	-1.564326e+02	2.984547e+05	1.154231e+05	2.996151e+02	3.499887e-01	1.987681e+01	0.000000e+00	
1.592697e+00	-6.511767e-01	1.342123e+00	4.572946e+01	-1.563797e+02	2.984498e+05	1.154241e+05	2.995951e+02	3.498561e-01	1.987821e+01	0.000000e+00	
1.643806e+00	-6.799565e-01	1.342233e+00	4.571449e+01	-1.563250e+02	2.984442e+05	1.154250e+05	2.995727e+02	3.497187e-01	1.987943e+01	0.000000e+00	
1.694866e+00	-7.087628e-01	1.342337e+00	4.570115e+01	-1.562756e+02	2.984391e+05	1.154257e+05	2.995514e+02	3.495941e-01	1.988049e+01	0.000000e+00	
1.745898e+00	-7.375912e-01	1.342422e+00	4.569125e+01	-1.562379e+02	2.984354e+05	1.154264e+05	2.995341e+02	3.494985e-01	1.988140e+01	0.000000e+00	
1.000000e+00	-3.571429e-01	1.342350e+00	4.579821e+01	-1.563363e+02	2.983902e+05	1.154021e+05	2.994870e+02	3.498120e-01	1.984711e+01	0.000000e+00	
1.799997e+00	-1.063912e+00	1.342370e+00	4.569254e+01	-1.562501e+02	2.984457e+05	1.154297e+05	2.995546e+02	3.495261e-01	1.988613e+01	0.000000e+00	
1.799274e+00	-1.004360e+00	1.342397e+00	4.568919e+01	-1.562394e+02	2.984425e+05	1.154291e+05	2.995468e+02	3.494995e-01	1.988521e+01	0.000000e+00	
1.798648e+00	-9.446210e-01	1.342424e+00	4.568642e+01	-1.562309e+02	2.984399e+05	1.154286e+05	2.995394e+02	3.494775e-01	1.988447e+01	0.000000e+00	
1.850071e+00	-1.152401e+00	1.342420e+00	4.568998e+01	-1.562248e+02	2.984435e+05	1.154302e+05	2.995447e+02	3.494651e-01	1.988683e+01	0.000000e+00	
1.798078e+00	-8.849494e-01	1.342446e+00	4.568507e+01	-1.562239e+02	2.984374e+05	1.154280e+05	2.995329e+02	3.494602e-01	1.988364e+01	0.000000e+00	
1.797506e+00	-8.255463e-01	1.342464e+00	4.568494e+01	-1.562191e+02	2.984353e+05	1.154274e+05	2.995274e+02	3.494487e-01	1.988289e+01	0.000000e+00	
1.796910e+00	-7.664523e-01	1.342478e+00	4.568612e+01	-1.562164e+02	2.984337e+05	1.154269e+05	2.995231e+02	3.494430e-01	1.988217e+01	0.000000e+00	
1.165428e+00	-3.731207e-01	1.342123e+00	4.580179e+01	-1.564586e+02	2.984291e+05	1.154112e+05	2.995615e+02	3.500819e-01	1.985999e+01	0.000000e+00	
1.114066e+00	-3.475137e-01	1.342214e+00	4.580732e+01	-1.564210e+02	2.984191e+05	1.154091e+05	2.995357e+02	3.499990e-01	1.985707e+01	0.000000e+00	