TITLE = "SU2 Simulation"
VARIABLES = "Iteration","CL","CD","CSF","CMx","CMy","CMz","CFx","CFy","CFz","CL/CD","AoA","Custom_ObjFunc","Res_Flow[0]","Res_Flow[1]","Res_Flow[2]","Res_Flow[3]","Res_Flow[4]","Linear_Solver_Iterations","CFL_Number","Time(min)"
ZONE T= "Convergence history"
           0, 0.00000000e+00, 0.00000000e+00, 0.00000000e+00, 0.00000000e+00, 0.00000000e+00, 0.00000000e+00, 0.00000000e+00, 0.00000000e+00, 0.00000000e+00, 0.00000000e+00, 0.00000000e+00, 0.00000000e+00, -3.43373958e+00, -8.23975863e-01, -1.23277511e+01, 2.08572544e+00, 0.00000000e+00, 5.0000000000, 5.0000000000, 0.0017310045
           1, 0.00000000e+00, 0.00000000e+00, 0.00000000e+00, 0.00000000e+00, 0.00000000e+00, 0.00000000e+00, 0.00000000e+00, 0.00000000e+00, 0.00000000e+00, 0.00000000e+00, 0.00000000e+00, 0.00000000e+00, -7.49968975e-01, 1.71889432e+00, -3.17715535e-01, 4.68578034e+00, 0.00000000e+00, 5.0000000000, 5.0000000000, 0.0076227467
           2, 0.00000000e+00, 0.00000000e+00, 0.00000000e+00, 0.00000000e+00, 0.00000000e+00, 0.00000000e+00, 0.00000000e+00, 0.00000000e+00, 0.00000000e+00, 0.00000000e+00, 0.00000000e+00, 0.00000000e+00, -7.04842754e-01, 1.74995770e+00, -1.10246413e-03, 4.72228964e+00, 0.00000000e+00, 5.0000000000, 5.0000000000, 0.0092743326
           3, 0.00000000e+00, 0.00000000e+00, 0.00000000e+00, 0.00000000e+00, 0.00000000e+00, 0.00000000e+00, 0.00000000e+00, 0.00000000e+00, 0.00000000e+00, 0.00000000e+00, 0.00000000e+00, 0.00000000e+00, -7.38918894e-01, 1.70786779e+00, 4.02157672e-02, 4.68363389e+00, 0.00000000e+00, 5.0000000000, 5.0000000000, 0.0109963494
           4, 0.00000000e+00, 0.00000000e+00, 0.00000000e+00, 0.00000000e+00, 0.00000000e+00, 0.00000000e+00, 0.00000000e+00, 0.00000000e+00, 0.00000000e+00, 0.00000000e+00, 0.00000000e+00, 0.00000000e+00, -7.80452906e-01, 1.66213675e+00, -1.18477991e-02, 4.64025728e+00, 0.00000000e+00, 5.0000000000, 5.0000000000, 0.0129636742
           5, 0.00000000e+00, 0.00000000e+00, 0.00000000e+00, 0.00000000e+00, 0.00000000e+00, 0.00000000e+00, 0.00000000e+00, 0.00000000e+00, 0.00000000e+00, 0.00000000e+00, 0.00000000e+00, 0.00000000e+00, -8.14397426e-01, 1.62605118e+00, -6.13868965e-02, 4.60541257e+00, 0.00000000e+00, 5.0000000000, 5.0000000000, 0.0149462780
           6, 0.00000000e+00, 0.00000000e+00, 0.00000000e+00, 0.00000000e+00, 0.00000000e+00, 0.00000000e+00, 0.00000000e+00, 0.00000000e+00, 0.00000000e+00, 0.00000000e+00, 0.00000000e+00, 0.00000000e+00, -8.40232215e-01, 1.59888935e+00, -6.24815729e-02, 4.57902645e+00, 0.00000000e+00, 5.0000000000, 5.0000000000, 0.0167579630
           7, 0.00000000e+00, 0.00000000e+00, 0.00000000e+00, 0.00000000e+00, 0.00000000e+00, 0.00000000e+00, 0.00000000e+00, 0.00000000e+00, 0.00000000e+00, 0.00000000e+00, 0.00000000e+00, 0.00000000e+00, -8.60507966e-01, 1.57774808e+00, -4.06827910e-02, 4.55850322e+00, 0.00000000e+00, 5.0000000000, 5.0000000000, 0.0183965065
           8, 0.00000000e+00, 0.00000000e+00, 0.00000000e+00, 0.00000000e+00, 0.00000000e+00, 0.00000000e+00, 0.00000000e+00, 0.00000000e+00, 0.00000000e+00, 0.00000000e+00, 0.00000000e+00, 0.00000000e+00, -8.77437045e-01, 1.56042903e+00, -2.90500928e-02, 4.54151379e+00, 0.00000000e+00, 5.0000000000, 5.0000000000, 0.0200458163
           9, 0.00000000e+00, 0.00000000e+00, 0.00000000e+00, 0.00000000e+00, 0.00000000e+00, 0.00000000e+00, 0.00000000e+00, 0.00000000e+00, 0.00000000e+00, 0.00000000e+00, 0.00000000e+00, 0.00000000e+00, -8.92147619e-01, 1.54565967e+00, -3.58295592e-02, 4.52677790e+00, 0.00000000e+00, 5.0000000000, 5.0000000000, 0.0217502633
          10, 0.00000000e+00, 0.00000000e+00, 0.00000000e+00, 0.00000000e+00, 0.00000000e+00, 0.00000000e+00, 0.00000000e+00, 0.00000000e+00, 0.00000000e+00, 0.00000000e+00, 0.00000000e+00, 0.00000000e+00, -9.05151985e-01, 1.53267423e+00, -5.56061485e-02, 4.51370721e+00, 0.00000000e+00, 5.0000000000, 5.0000000000, 0.0234309279
          11, 0.00000000e+00, 0.00000000e+00, 0.00000000e+00, 0.00000000e+00, 0.00000000e+00, 0.00000000e+00, 0.00000000e+00, 0.00000000e+00, 0.00000000e+00, 0.00000000e+00, 0.00000000e+00, 0.00000000e+00, -9.16770764e-01, 1.52100715e+00, -8.01687549e-02, 4.50198563e+00, 0.00000000e+00, 5.0000000000, 5.0000000000, 0.0251400297
          12, 0.00000000e+00, 0.00000000e+00, 0.00000000e+00, 0.00000000e+00, 0.00000000e+00, 0.00000000e+00, 0.00000000e+00, 0.00000000e+00, 0.00000000e+00, 0.00000000e+00, 0.00000000e+00, 0.00000000e+00, -9.27289002e-01, 1.51036166e+00, -1.03528047e-01, 4.49136316e+00, 0.00000000e+00, 5.0000000000, 5.0000000000, 0.0269451088
          13, 0.00000000e+00, 0.00000000e+00, 0.00000000e+00, 0.00000000e+00, 0.00000000e+00, 0.00000000e+00, 0.00000000e+00, 0.00000000e+00, 0.00000000e+00, 0.00000000e+00, 0.00000000e+00, 0.00000000e+00, -9.36951973e-01, 1.50053849e+00, -1.23883640e-01, 4.48162202e+00, 0.00000000e+00, 5.0000000000, 5.0000000000, 0.0289137804
          14, 0.00000000e+00, 0.00000000e+00, 0.00000000e+00, 0.00000000e+00, 0.00000000e+00, 0.00000000e+00, 0.00000000e+00, 0.00000000e+00, 0.00000000e+00, 0.00000000e+00, 0.00000000e+00, 0.00000000e+00, -9.45942453e-01, 1.49139800e+00, -1.42686573e-01, 4.47258589e+00, 0.00000000e+00, 5.0000000000, 5.0000000000, 0.0311441790
          15, 0.00000000e+00, 0.00000000e+00, 0.00000000e+00, 0.00000000e+00, 0.00000000e+00, 0.00000000e+00, 0.00000000e+00, 0.00000000e+00, 0.00000000e+00, 0.00000000e+00, 0.00000000e+00, 0.00000000e+00, -9.54383158e-01, 1.48284194e+00, -1.62104160e-01, 4.46412194e+00, 0.00000000e+00, 5.0000000000, 5.0000000000, 0.0334791296
          16, 0.00000000e+00, 0.00000000e+00, 0.00000000e+00, 0.00000000e+00, 0.00000000e+00, 0.00000000e+00, 0.00000000e+00, 0.00000000e+00, 0.00000000e+00, 0.00000000e+00, 0.00000000e+00, 0.00000000e+00, -9.62352547e-01, 1.47480398e+00, -1.83354470e-01, 4.45613628e+00, 0.00000000e+00, 5.0000000000, 5.0000000000, 0.0356583306
          17, 0.00000000e+00, 0.00000000e+00, 0.00000000e+00, 0.00000000e+00, 0.00000000e+00, 0.00000000e+00, 0.00000000e+00, 0.00000000e+00, 0.00000000e+00, 0.00000000e+00, 0.00000000e+00, 0.00000000e+00, -9.69900936e-01, 1.46724005e+00, -2.06333792e-01, 4.44856588e+00, 0.00000000e+00, 5.0000000000, 5.0000000000, 0.0378453620
          18, 0.00000000e+00, 0.00000000e+00, 0.00000000e+00, 0.00000000e+00, 0.00000000e+00, 0.00000000e+00, 0.00000000e+00, 0.00000000e+00, 0.00000000e+00, 0.00000000e+00, 0.00000000e+00, 0.00000000e+00, -9.77058011e-01, 1.46012199e+00, -2.30001522e-01, 4.44137410e+00, 0.00000000e+00, 5.0000000000, 5.0000000000, 0.0395704544
          19, 0.00000000e+00, 0.00000000e+00, 0.00000000e+00, 0.00000000e+00, 0.00000000e+00, 0.00000000e+00, 0.00000000e+00, 0.00000000e+00, 0.00000000e+00, 0.00000000e+00, 0.00000000e+00, 0.00000000e+00, -9.83836156e-01, 1.45343457e+00, -2.52920927e-01, 4.43454610e+00, 0.00000000e+00, 5.0000000000, 5.0000000000, 0.0412822050
          20, 0.00000000e+00, 0.00000000e+00, 0.00000000e+00, 0.00000000e+00, 0.00000000e+00, 0.00000000e+00, 0.00000000e+00, 0.00000000e+00, 0.00000000e+00, 0.00000000e+00, 0.00000000e+00, 0.00000000e+00, -9.90235765e-01, 1.44717942e+00, -2.73824955e-01, 4.42808055e+00, 0.00000000e+00, 5.0000000000, 5.0000000000, 0.0429399514
          21, 0.00000000e+00, 0.00000000e+00, 0.00000000e+00, 0.00000000e+00, 0.00000000e+00, 0.00000000e+00, 0.00000000e+00, 0.00000000e+00, 0.00000000e+00, 0.00000000e+00, 0.00000000e+00, 0.00000000e+00, -9.96254727e-01, 1.44138545e+00, -2.91790123e-01, 4.42197721e+00, 0.00000000e+00, 5.0000000000, 5.0000000000, 0.0442997120
          22, 0.00000000e+00, 0.00000000e+00, 0.00000000e+00, 0.00000000e+00, 0.00000000e+00, 0.00000000e+00, 0.00000000e+00, 0.00000000e+00, 0.00000000e+00, 0.00000000e+00, 0.00000000e+00, 0.00000000e+00, -1.00190426e+00, 1.43612517e+00, -3.06169612e-01, 4.41621860e+00, 0.00000000e+00, 5.0000000000, 5.0000000000, 0.0457558594
          23, 0.00000000e+00, 0.00000000e+00, 0.00000000e+00, 0.00000000e+00, 0.00000000e+00, 0.00000000e+00, 0.00000000e+00, 0.00000000e+00, 0.00000000e+00, 0.00000000e+00, 0.00000000e+00, 0.00000000e+00, -1.00722927e+00, 1.43153593e+00, -3.16606197e-01, 4.41074807e+00, 0.00000000e+00, 5.0000000000, 5.0000000000, 0.0474181164
          24, 0.00000000e+00, 0.00000000e+00, 0.00000000e+00, 0.00000000e+00, 0.00000000e+00, 0.00000000e+00, 0.00000000e+00, 0.00000000e+00, 0.00000000e+00, 0.00000000e+00, 0.00000000e+00, 0.00000000e+00, -1.01233044e+00, 1.42784195e+00, -3.23164776e-01, 4.40544635e+00, 0.00000000e+00, 5.0000000000, 5.0000000000, 0.0490810464
          25, 0.00000000e+00, 0.00000000e+00, 0.00000000e+00, 0.00000000e+00, 0.00000000e+00, 0.00000000e+00, 0.00000000e+00, 0.00000000e+00, 0.00000000e+00, 0.00000000e+00, 0.00000000e+00, 0.00000000e+00, -1.01738423e+00, 1.42536823e+00, -3.26498876e-01, 4.40011060e+00, 0.00000000e+00, 5.0000000000, 5.0000000000, 0.0507310478
          26, 0.00000000e+00, 0.00000000e+00, 0.00000000e+00, 0.00000000e+00, 0.00000000e+00, 0.00000000e+00, 0.00000000e+00, 0.00000000e+00, 0.00000000e+00, 0.00000000e+00, 0.00000000e+00, 0.00000000e+00, -1.02265583e+00, 1.42453249e+00, -3.27873261e-01, 4.39444112e+00, 0.00000000e+00, 5.0000000000, 5.0000000000, 0.0524965973
          27, 0.00000000e+00, 0.00000000e+00, 0.00000000e+00, 0.00000000e+00, 0.00000000e+00, 0.00000000e+00, 0.00000000e+00, 0.00000000e+00, 0.00000000e+00, 0.00000000e+00, 0.00000000e+00, 0.00000000e+00, -1.02850101e+00, 1.42579998e+00, -3.28947272e-01, 4.38803989e+00, 0.00000000e+00, 5.0000000000, 5.0000000000, 0.0542025203
          28, 0.00000000e+00, 0.00000000e+00, 0.00000000e+00, 0.00000000e+00, 0.00000000e+00, 0.00000000e+00, 0.00000000e+00, 0.00000000e+00, 0.00000000e+00, 0.00000000e+00, 0.00000000e+00, 0.00000000e+00, -1.03535414e+00, 1.42959536e+00, -3.31426395e-01, 4.38042408e+00, 0.00000000e+00, 5.0000000000, 5.0000000000, 0.0557722797
          29, 0.00000000e+00, 0.00000000e+00, 0.00000000e+00, 0.00000000e+00, 0.00000000e+00, 0.00000000e+00, 0.00000000e+00, 0.00000000e+00, 0.00000000e+00, 0.00000000e+00, 0.00000000e+00, 0.00000000e+00, -1.04370398e+00, 1.43618502e+00, -3.36693469e-01, 4.37105258e+00, 0.00000000e+00, 5.0000000000, 5.0000000000, 0.0574386276
          30, 0.00000000e+00, 0.00000000e+00, 0.00000000e+00, 0.00000000e+00, 0.00000000e+00, 0.00000000e+00, 0.00000000e+00, 0.00000000e+00, 0.00000000e+00, 0.00000000e+00, 0.00000000e+00, 0.00000000e+00, -1.05406041e+00, 1.44556835e+00, -3.45553246e-01, 4.35936178e+00, 0.00000000e+00, 5.0000000000, 5.0000000000, 0.0591253598
          31, 0.00000000e+00, 0.00000000e+00, 0.00000000e+00, 0.00000000e+00, 0.00000000e+00, 0.00000000e+00, 0.00000000e+00, 0.00000000e+00, 0.00000000e+00, 0.00000000e+00, 0.00000000e+00, 0.00000000e+00, -1.06691616e+00, 1.45742530e+00, -3.58101819e-01, 4.34480627e+00, 0.00000000e+00, 5.0000000000, 5.0000000000, 0.0607921338
          32, 0.00000000e+00, 0.00000000e+00, 0.00000000e+00, 0.00000000e+00, 0.00000000e+00, 0.00000000e+00, 0.00000000e+00, 0.00000000e+00, 0.00000000e+00, 0.00000000e+00, 0.00000000e+00, 0.00000000e+00, -1.08270640e+00, 1.47114633e+00, -3.73706884e-01, 4.32690244e+00, 0.00000000e+00, 5.0000000000, 5.0000000000, 0.0626244236
          33, 0.00000000e+00, 0.00000000e+00, 0.00000000e+00, 0.00000000e+00, 0.00000000e+00, 0.00000000e+00, 0.00000000e+00, 0.00000000e+00, 0.00000000e+00, 0.00000000e+00, 0.00000000e+00, 0.00000000e+00, -1.10176447e+00, 1.48593273e+00, -3.91078263e-01, 4.30527860e+00, 0.00000000e+00, 5.0000000000, 5.0000000000, 0.0644591555
          34, 0.00000000e+00, 0.00000000e+00, 0.00000000e+00, 0.00000000e+00, 0.00000000e+00, 0.00000000e+00, 0.00000000e+00, 0.00000000e+00, 0.00000000e+00, 0.00000000e+00, 0.00000000e+00, 0.00000000e+00, -1.12426526e+00, 1.50092539e+00, -4.08497395e-01, 4.27974527e+00, 0.00000000e+00, 5.0000000000, 5.0000000000, 0.0662029324
          35, 0.00000000e+00, 0.00000000e+00, 0.00000000e+00, 0.00000000e+00, 0.00000000e+00, 0.00000000e+00, 0.00000000e+00, 0.00000000e+00, 0.00000000e+00, 0.00000000e+00, 0.00000000e+00, 0.00000000e+00, -1.15014432e+00, 1.51531696e+00, -4.24205935e-01, 4.25040600e+00, 0.00000000e+00, 5.0000000000, 5.0000000000, 0.0678596865
          36, 0.00000000e+00, 0.00000000e+00, 0.00000000e+00, 0.00000000e+00, 0.00000000e+00, 0.00000000e+00, 0.00000000e+00, 0.00000000e+00, 0.00000000e+00, 0.00000000e+00, 0.00000000e+00, 0.00000000e+00, -1.17897252e+00, 1.52842359e+00, -4.36890363e-01, 4.21784302e+00, 0.00000000e+00, 5.0000000000, 5.0000000000, 0.0695183955
          37, 0.00000000e+00, 0.00000000e+00, 0.00000000e+00, 0.00000000e+00, 0.00000000e+00, 0.00000000e+00, 0.00000000e+00, 0.00000000e+00, 0.00000000e+00, 0.00000000e+00, 0.00000000e+00, 0.00000000e+00, -1.20976817e+00, 1.53971422e+00, -4.46020608e-01, 4.18341121e+00, 0.00000000e+00, 5.0000000000, 5.0000000000, 0.0711633853
          38, 0.00000000e+00, 0.00000000e+00, 0.00000000e+00, 0.00000000e+00, 0.00000000e+00, 0.00000000e+00, 0.00000000e+00, 0.00000000e+00, 0.00000000e+00, 0.00000000e+00, 0.00000000e+00, 0.00000000e+00, -1.24075581e+00, 1.54880861e+00, -4.51841280e-01, 4.14962309e+00, 0.00000000e+00, 5.0000000000, 5.0000000000, 0.0727836834
          39, 0.00000000e+00, 0.00000000e+00, 0.00000000e+00, 0.00000000e+00, 0.00000000e+00, 0.00000000e+00, 0.00000000e+00, 0.00000000e+00, 0.00000000e+00, 0.00000000e+00, 0.00000000e+00, 0.00000000e+00, -1.26916376e+00, 1.55545761e+00, -4.55033220e-01, 4.12043191e+00, 0.00000000e+00, 5.0000000000, 5.0000000000, 0.0744525009
          40, 0.00000000e+00, 0.00000000e+00, 0.00000000e+00, 0.00000000e+00, 0.00000000e+00, 0.00000000e+00, 0.00000000e+00, 0.00000000e+00, 0.00000000e+00, 0.00000000e+00, 0.00000000e+00, 0.00000000e+00, -1.29131664e+00, 1.55951723e+00, -4.56297386e-01, 4.10088375e+00, 0.00000000e+00, 5.0000000000, 5.0000000000, 0.0761208505
          41, 0.00000000e+00, 0.00000000e+00, 0.00000000e+00, 0.00000000e+00, 0.00000000e+00, 0.00000000e+00, 0.00000000e+00, 0.00000000e+00, 0.00000000e+00, 0.00000000e+00, 0.00000000e+00, 0.00000000e+00, -1.30339217e+00, 1.56092329e+00, -4.56117391e-01, 4.09552674e+00, 0.00000000e+00, 5.0000000000, 5.0000000000, 0.0777505324
          42, 0.00000000e+00, 0.00000000e+00, 0.00000000e+00, 0.00000000e+00, 0.00000000e+00, 0.00000000e+00, 0.00000000e+00, 0.00000000e+00, 0.00000000e+00, 0.00000000e+00, 0.00000000e+00, 0.00000000e+00, -1.30286680e+00, 1.55966989e+00, -4.54739605e-01, 4.10605568e+00, 0.00000000e+00, 5.0000000000, 5.0000000000, 0.0793738897
          43, 0.00000000e+00, 0.00000000e+00, 0.00000000e+00, 0.00000000e+00, 0.00000000e+00, 0.00000000e+00, 0.00000000e+00, 0.00000000e+00, 0.00000000e+00, 0.00000000e+00, 0.00000000e+00, 0.00000000e+00, -1.28977898e+00, 1.55579286e+00, -4.52320738e-01, 4.13027606e+00, 0.00000000e+00, 5.0000000000, 5.0000000000, 0.0810371517
          44, 0.00000000e+00, 0.00000000e+00, 0.00000000e+00, 0.00000000e+00, 0.00000000e+00, 0.00000000e+00, 0.00000000e+00, 0.00000000e+00, 0.00000000e+00, 0.00000000e+00, 0.00000000e+00, 0.00000000e+00, -1.26665443e+00, 1.54935804e+00, -4.49105752e-01, 4.16355346e+00, 0.00000000e+00, 5.0000000000, 5.0000000000, 0.0826987777
          45, 0.00000000e+00, 0.00000000e+00, 0.00000000e+00, 0.00000000e+00, 0.00000000e+00, 0.00000000e+00, 0.00000000e+00, 0.00000000e+00, 0.00000000e+00, 0.00000000e+00, 0.00000000e+00, 0.00000000e+00, -1.23717073e+00, 1.54045375e+00, -4.45516103e-01, 4.20114404e+00, 0.00000000e+00, 5.0000000000, 5.0000000000, 0.0843197169
          46, 0.00000000e+00, 0.00000000e+00, 0.00000000e+00, 0.00000000e+00, 0.00000000e+00, 0.00000000e+00, 0.00000000e+00, 0.00000000e+00, 0.00000000e+00, 0.00000000e+00, 0.00000000e+00, 0.00000000e+00, -1.20476404e+00, 1.52918621e+00, -4.42131559e-01, 4.23952123e+00, 0.00000000e+00, 5.0000000000, 5.0000000000, 0.0859580857
          47, 0.00000000e+00, 0.00000000e+00, 0.00000000e+00, 0.00000000e+00, 0.00000000e+00, 0.00000000e+00, 0.00000000e+00, 0.00000000e+00, 0.00000000e+00, 0.00000000e+00, 0.00000000e+00, 0.00000000e+00, -1.17195735e+00, 1.51567667e+00, -4.39593788e-01, 4.27653951e+00, 0.00000000e+00, 5.0000000000, 5.0000000000, 0.0876342077
          48, 0.00000000e+00, 0.00000000e+00, 0.00000000e+00, 0.00000000e+00, 0.00000000e+00, 0.00000000e+00, 0.00000000e+00, 0.00000000e+00, 0.00000000e+00, 0.00000000e+00, 0.00000000e+00, 0.00000000e+00, -1.14032294e+00, 1.50005819e+00, -4.38462901e-01, 4.31109159e+00, 0.00000000e+00, 5.0000000000, 5.0000000000, 0.0892701404
          49, 0.00000000e+00, 0.00000000e+00, 0.00000000e+00, 0.00000000e+00, 0.00000000e+00, 0.00000000e+00, 0.00000000e+00, 0.00000000e+00, 0.00000000e+00, 0.00000000e+00, 0.00000000e+00, 0.00000000e+00, -1.11070753e+00, 1.48247002e+00, -4.39086790e-01, 4.34272309e+00, 0.00000000e+00, 5.0000000000, 5.0000000000, 0.0909049174
          50, 0.00000000e+00, 0.00000000e+00, 0.00000000e+00, 0.00000000e+00, 0.00000000e+00, 0.00000000e+00, 0.00000000e+00, 0.00000000e+00, 0.00000000e+00, 0.00000000e+00, 0.00000000e+00, 0.00000000e+00, -1.08348184e+00, 1.46304764e+00, -4.41498916e-01, 4.37135088e+00, 0.00000000e+00, 5.0000000000, 5.0000000000, 0.0925750158
          51, 0.00000000e+00, 0.00000000e+00, 0.00000000e+00, 0.00000000e+00, 0.00000000e+00, 0.00000000e+00, 0.00000000e+00, 0.00000000e+00, 0.00000000e+00, 0.00000000e+00, 0.00000000e+00, 0.00000000e+00, -1.05873351e+00, 1.44190677e+00, -4.45377881e-01, 4.39708527e+00, 0.00000000e+00, 5.0000000000, 5.0000000000, 0.0942318113
          52, 0.00000000e+00, 0.00000000e+00, 0.00000000e+00, 0.00000000e+00, 0.00000000e+00, 0.00000000e+00, 0.00000000e+00, 0.00000000e+00, 0.00000000e+00, 0.00000000e+00, 0.00000000e+00, 0.00000000e+00, -1.03639727e+00, 1.41912115e+00, -4.50042814e-01, 4.42012462e+00, 0.00000000e+00, 5.0000000000, 5.0000000000, 0.0958739862
          53, 0.00000000e+00, 0.00000000e+00, 0.00000000e+00, 0.00000000e+00, 0.00000000e+00, 0.00000000e+00, 0.00000000e+00, 0.00000000e+00, 0.00000000e+00, 0.00000000e+00, 0.00000000e+00, 0.00000000e+00, -1.01633771e+00, 1.39469553e+00, -4.54546267e-01, 4.44069384e+00, 0.00000000e+00, 5.0000000000, 5.0000000000, 0.0975204964
          54, 0.00000000e+00, 0.00000000e+00, 0.00000000e+00, 0.00000000e+00, 0.00000000e+00, 0.00000000e+00, 0.00000000e+00, 0.00000000e+00, 0.00000000e+00, 0.00000000e+00, 0.00000000e+00, 0.00000000e+00, -9.98400870e-01, 1.36853629e+00, -4.57840012e-01, 4.45900818e+00, 0.00000000e+00, 5.0000000000, 5.0000000000, 0.0994372527
          55, 0.00000000e+00, 0.00000000e+00, 0.00000000e+00, 0.00000000e+00, 0.00000000e+00, 0.00000000e+00, 0.00000000e+00, 0.00000000e+00, 0.00000000e+00, 0.00000000e+00, 0.00000000e+00, 0.00000000e+00, -9.82444556e-01, 1.34042410e+00, -4.59008310e-01, 4.47525293e+00, 0.00000000e+00, 5.0000000000, 5.0000000000, 0.1009935815
          56, 0.00000000e+00, 0.00000000e+00, 0.00000000e+00, 0.00000000e+00, 0.00000000e+00, 0.00000000e+00, 0.00000000e+00, 0.00000000e+00, 0.00000000e+00, 0.00000000e+00, 0.00000000e+00, 0.00000000e+00, -9.68353906e-01, 1.30999243e+00, -4.57515175e-01, 4.48957384e+00, 0.00000000e+00, 5.0000000000, 5.0000000000, 0.1026019516
          57, 0.00000000e+00, 0.00000000e+00, 0.00000000e+00, 0.00000000e+00, 0.00000000e+00, 0.00000000e+00, 0.00000000e+00, 0.00000000e+00, 0.00000000e+00, 0.00000000e+00, 0.00000000e+00, 0.00000000e+00, -9.56046563e-01, 1.27671322e+00, -4.53347064e-01, 4.50207522e+00, 0.00000000e+00, 5.0000000000, 5.0000000000, 0.1043527932
          58, 0.00000000e+00, 0.00000000e+00, 0.00000000e+00, 0.00000000e+00, 0.00000000e+00, 0.00000000e+00, 0.00000000e+00, 0.00000000e+00, 0.00000000e+00, 0.00000000e+00, 0.00000000e+00, 0.00000000e+00, -9.45470782e-01, 1.23988715e+00, -4.46995400e-01, 4.51282355e+00, 0.00000000e+00, 5.0000000000, 5.0000000000, 0.1060466108
          59, 0.00000000e+00, 0.00000000e+00, 0.00000000e+00, 0.00000000e+00, 0.00000000e+00, 0.00000000e+00, 0.00000000e+00, 0.00000000e+00, 0.00000000e+00, 0.00000000e+00, 0.00000000e+00, 0.00000000e+00, -9.36599448e-01, 1.19863217e+00, -4.39294223e-01, 4.52185438e+00, 0.00000000e+00, 5.0000000000, 5.0000000000, 0.1077186220
          60, 0.00000000e+00, 0.00000000e+00, 0.00000000e+00, 0.00000000e+00, 0.00000000e+00, 0.00000000e+00, 0.00000000e+00, 0.00000000e+00, 0.00000000e+00, 0.00000000e+00, 0.00000000e+00, 0.00000000e+00, -9.29421523e-01, 1.15186464e+00, -4.31185145e-01, 4.52918159e+00, 0.00000000e+00, 5.0000000000, 5.0000000000, 0.1093808694
          61, 0.00000000e+00, 0.00000000e+00, 0.00000000e+00, 0.00000000e+00, 0.00000000e+00, 0.00000000e+00, 0.00000000e+00, 0.00000000e+00, 0.00000000e+00, 0.00000000e+00, 0.00000000e+00, 0.00000000e+00, -9.23933960e-01, 1.09826610e+00, -4.23513100e-01, 4.53480615e+00, 0.00000000e+00, 5.0000000000, 5.0000000000, 0.1109724313
          62, 0.00000000e+00, 0.00000000e+00, 0.00000000e+00, 0.00000000e+00, 0.00000000e+00, 0.00000000e+00, 0.00000000e+00, 0.00000000e+00, 0.00000000e+00, 0.00000000e+00, 0.00000000e+00, 0.00000000e+00, -9.20134702e-01, 1.03625286e+00, -4.16908208e-01, 4.53872406e+00, 0.00000000e+00, 5.0000000000, 5.0000000000, 0.1126943951
          63, 0.00000000e+00, 0.00000000e+00, 0.00000000e+00, 0.00000000e+00, 0.00000000e+00, 0.00000000e+00, 0.00000000e+00, 0.00000000e+00, 0.00000000e+00, 0.00000000e+00, 0.00000000e+00, 0.00000000e+00, -9.18017634e-01, 9.64029055e-01, -4.11749120e-01, 4.54093226e+00, 0.00000000e+00, 5.0000000000, 5.0000000000, 0.1142833643
          64, 0.00000000e+00, 0.00000000e+00, 0.00000000e+00, 0.00000000e+00, 0.00000000e+00, 0.00000000e+00, 0.00000000e+00, 0.00000000e+00, 0.00000000e+00, 0.00000000e+00, 0.00000000e+00, 0.00000000e+00, -9.17569723e-01, 8.80059120e-01, -4.08187423e-01, 4.54143250e+00, 0.00000000e+00, 5.0000000000, 5.0000000000, 0.1154160709
          65, 0.00000000e+00, 0.00000000e+00, 0.00000000e+00, 0.00000000e+00, 0.00000000e+00, 0.00000000e+00, 0.00000000e+00, 0.00000000e+00, 0.00000000e+00, 0.00000000e+00, 0.00000000e+00, 0.00000000e+00, -9.18770332e-01, 7.85187534e-01, -4.06194812e-01, 4.54023280e+00, 0.00000000e+00, 5.0000000000, 5.0000000000, 0.1165475697
          66, 0.00000000e+00, 0.00000000e+00, 0.00000000e+00, 0.00000000e+00, 0.00000000e+00, 0.00000000e+00, 0.00000000e+00, 0.00000000e+00, 0.00000000e+00, 0.00000000e+00, 0.00000000e+00, 0.00000000e+00, -9.21592117e-01, 6.90152171e-01, -4.05628002e-01, 4.53734731e+00, 0.00000000e+00, 5.0000000000, 5.0000000000, 0.1176861977
          67, 0.00000000e+00, 0.00000000e+00, 0.00000000e+00, 0.00000000e+00, 0.00000000e+00, 0.00000000e+00, 0.00000000e+00, 0.00000000e+00, 0.00000000e+00, 0.00000000e+00, 0.00000000e+00, 0.00000000e+00, -9.26003162e-01, 6.30526870e-01, -4.06271879e-01, 4.53279456e+00, 0.00000000e+00, 5.0000000000, 5.0000000000, 0.1188111517
          68, 0.00000000e+00, 0.00000000e+00, 0.00000000e+00, 0.00000000e+00, 0.00000000e+00, 0.00000000e+00, 0.00000000e+00, 0.00000000e+00, 0.00000000e+00, 0.00000000e+00, 0.00000000e+00, 0.00000000e+00, -9.31969798e-01, 6.49906184e-01, -4.07866260e-01, 4.52659501e+00, 0.00000000e+00, 5.0000000000, 5.0000000000, 0.1199379543
          69, 0.00000000e+00, 0.00000000e+00, 0.00000000e+00, 0.00000000e+00, 0.00000000e+00, 0.00000000e+00, 0.00000000e+00, 0.00000000e+00, 0.00000000e+00, 0.00000000e+00, 0.00000000e+00, 0.00000000e+00, -9.39459629e-01, 7.31224444e-01, -4.10120396e-01, 4.51876797e+00, 0.00000000e+00, 5.0000000000, 5.0000000000, 0.1210804448
          70, 0.00000000e+00, 0.00000000e+00, 0.00000000e+00, 0.00000000e+00, 0.00000000e+00, 0.00000000e+00, 0.00000000e+00, 0.00000000e+00, 0.00000000e+00, 0.00000000e+00, 0.00000000e+00, 0.00000000e+00, -9.48444364e-01, 8.27423618e-01, -4.12713146e-01, 4.50932865e+00, 0.00000000e+00, 5.0000000000, 5.0000000000, 0.1222250330
          71, 0.00000000e+00, 0.00000000e+00, 0.00000000e+00, 0.00000000e+00, 0.00000000e+00, 0.00000000e+00, 0.00000000e+00, 0.00000000e+00, 0.00000000e+00, 0.00000000e+00, 0.00000000e+00, 0.00000000e+00, -9.58902233e-01, 9.16499531e-01, -4.15299484e-01, 4.49828538e+00, 0.00000000e+00, 5.0000000000, 5.0000000000, 0.1233767594
          72, 0.00000000e+00, 0.00000000e+00, 0.00000000e+00, 0.00000000e+00, 0.00000000e+00, 0.00000000e+00, 0.00000000e+00, 0.00000000e+00, 0.00000000e+00, 0.00000000e+00, 0.00000000e+00, 0.00000000e+00, -9.70819808e-01, 9.93974504e-01, -4.17525314e-01, 4.48563725e+00, 0.00000000e+00, 5.0000000000, 5.0000000000, 0.1245295106
          73, 0.00000000e+00, 0.00000000e+00, 0.00000000e+00, 0.00000000e+00, 0.00000000e+00, 0.00000000e+00, 0.00000000e+00, 0.00000000e+00, 0.00000000e+00, 0.00000000e+00, 0.00000000e+00, 0.00000000e+00, -9.84193063e-01, 1.06059957e+00, -4.19060961e-01, 4.47137231e+00, 0.00000000e+00, 5.0000000000, 5.0000000000, 0.1256819966
          74, 0.00000000e+00, 0.00000000e+00, 0.00000000e+00, 0.00000000e+00, 0.00000000e+00, 0.00000000e+00, 0.00000000e+00, 0.00000000e+00, 0.00000000e+00, 0.00000000e+00, 0.00000000e+00, 0.00000000e+00, -9.99027971e-01, 1.11808473e+00, -4.19647407e-01, 4.45546605e+00, 0.00000000e+00, 5.0000000000, 5.0000000000, 0.1271707116
          75, 0.00000000e+00, 0.00000000e+00, 0.00000000e+00, 0.00000000e+00, 0.00000000e+00, 0.00000000e+00, 0.00000000e+00, 0.00000000e+00, 0.00000000e+00, 0.00000000e+00, 0.00000000e+00, 0.00000000e+00, -1.01534030e+00, 1.16802771e+00, -4.19146285e-01, 4.43788042e+00, 0.00000000e+00, 5.0000000000, 5.0000000000, 0.1287956380
          76, 0.00000000e+00, 0.00000000e+00, 0.00000000e+00, 0.00000000e+00, 0.00000000e+00, 0.00000000e+00, 0.00000000e+00, 0.00000000e+00, 0.00000000e+00, 0.00000000e+00, 0.00000000e+00, 0.00000000e+00, -1.03315382e+00, 1.21172129e+00, -4.17586876e-01, 4.41856473e+00, 0.00000000e+00, 5.0000000000, 5.0000000000, 0.1304492810
          77, 0.00000000e+00, 0.00000000e+00, 0.00000000e+00, 0.00000000e+00, 0.00000000e+00, 0.00000000e+00, 0.00000000e+00, 0.00000000e+00, 0.00000000e+00, 0.00000000e+00, 0.00000000e+00, 0.00000000e+00, -1.05249994e+00, 1.25017224e+00, -4.15170477e-01, 4.39745388e+00, 0.00000000e+00, 5.0000000000, 5.0000000000, 0.1316698510
          78, 0.00000000e+00, 0.00000000e+00, 0.00000000e+00, 0.00000000e+00, 0.00000000e+00, 0.00000000e+00, 0.00000000e+00, 0.00000000e+00, 0.00000000e+00, 0.00000000e+00, 0.00000000e+00, 0.00000000e+00, -1.07341486e+00, 1.28416230e+00, -4.12238809e-01, 4.37446964e+00, 0.00000000e+00, 5.0000000000, 5.0000000000, 0.1327881519
          79, 0.00000000e+00, 0.00000000e+00, 0.00000000e+00, 0.00000000e+00, 0.00000000e+00, 0.00000000e+00, 0.00000000e+00, 0.00000000e+00, 0.00000000e+00, 0.00000000e+00, 0.00000000e+00, 0.00000000e+00, -1.09593605e+00, 1.31430301e+00, -4.09216870e-01, 4.34952223e+00, 0.00000000e+00, 5.0000000000, 5.0000000000, 0.1339161663
          80, 0.00000000e+00, 0.00000000e+00, 0.00000000e+00, 0.00000000e+00, 0.00000000e+00, 0.00000000e+00, 0.00000000e+00, 0.00000000e+00, 0.00000000e+00, 0.00000000e+00, 0.00000000e+00, 0.00000000e+00, -1.12009696e+00, 1.34107872e+00, -4.06551078e-01, 4.32251397e+00, 0.00000000e+00, 5.0000000000, 5.0000000000, 0.1350615160
          81, 0.00000000e+00, 0.00000000e+00, 0.00000000e+00, 0.00000000e+00, 0.00000000e+00, 0.00000000e+00, 0.00000000e+00, 0.00000000e+00, 0.00000000e+00, 0.00000000e+00, 0.00000000e+00, 0.00000000e+00, -1.14591884e+00, 1.36487867e+00, -4.04656581e-01, 4.29334626e+00, 0.00000000e+00, 5.0000000000, 5.0000000000, 0.1361995635
          82, 0.00000000e+00, 0.00000000e+00, 0.00000000e+00, 0.00000000e+00, 0.00000000e+00, 0.00000000e+00, 0.00000000e+00, 0.00000000e+00, 0.00000000e+00, 0.00000000e+00, 0.00000000e+00, 0.00000000e+00, -1.17339847e+00, 1.38602042e+00, -4.03875239e-01, 4.26193256e+00, 0.00000000e+00, 5.0000000000, 5.0000000000, 0.1373439415
          83, 0.00000000e+00, 0.00000000e+00, 0.00000000e+00, 0.00000000e+00, 0.00000000e+00, 0.00000000e+00, 0.00000000e+00, 0.00000000e+00, 0.00000000e+00, 0.00000000e+00, 0.00000000e+00, 0.00000000e+00, -1.20248955e+00, 1.40476710e+00, -4.04463801e-01, 4.22822163e+00, 0.00000000e+00, 5.0000000000, 5.0000000000, 0.1384813301
          84, 0.00000000e+00, 0.00000000e+00, 0.00000000e+00, 0.00000000e+00, 0.00000000e+00, 0.00000000e+00, 0.00000000e+00, 0.00000000e+00, 0.00000000e+00, 0.00000000e+00, 0.00000000e+00, 0.00000000e+00, -1.23307565e+00, 1.42134027e+00, -4.06602759e-01, 4.19223705e+00, 0.00000000e+00, 5.0000000000, 5.0000000000, 0.1396244576
          85, 0.00000000e+00, 0.00000000e+00, 0.00000000e+00, 0.00000000e+00, 0.00000000e+00, 0.00000000e+00, 0.00000000e+00, 0.00000000e+00, 0.00000000e+00, 0.00000000e+00, 0.00000000e+00, 0.00000000e+00, -1.26493268e+00, 1.43592995e+00, -4.10414887e-01, 4.15414216e+00, 0.00000000e+00, 5.0000000000, 5.0000000000, 0.1407699023
          86, 0.00000000e+00, 0.00000000e+00, 0.00000000e+00, 0.00000000e+00, 0.00000000e+00, 0.00000000e+00, 0.00000000e+00, 0.00000000e+00, 0.00000000e+00, 0.00000000e+00, 0.00000000e+00, 0.00000000e+00, -1.29768059e+00, 1.44870270e+00, -4.15985290e-01, 4.11434105e+00, 0.00000000e+00, 5.0000000000, 5.0000000000, 0.1419264062
          87, 0.00000000e+00, 0.00000000e+00, 0.00000000e+00, 0.00000000e+00, 0.00000000e+00, 0.00000000e+00, 0.00000000e+00, 0.00000000e+00, 0.00000000e+00, 0.00000000e+00, 0.00000000e+00, 0.00000000e+00, -1.33072836e+00, 1.45980855e+00, -4.23378317e-01, 4.07362414e+00, 0.00000000e+00, 5.0000000000, 5.0000000000, 0.1430809525
          88, 0.00000000e+00, 0.00000000e+00, 0.00000000e+00, 0.00000000e+00, 0.00000000e+00, 0.00000000e+00, 0.00000000e+00, 0.00000000e+00, 0.00000000e+00, 0.00000000e+00, 0.00000000e+00, 0.00000000e+00, -1.36322474e+00, 1.46938663e+00, -4.32650025e-01, 4.03334975e+00, 0.00000000e+00, 5.0000000000, 5.0000000000, 0.1442389070
          89, 0.00000000e+00, 0.00000000e+00, 0.00000000e+00, 0.00000000e+00, 0.00000000e+00, 0.00000000e+00, 0.00000000e+00, 0.00000000e+00, 0.00000000e+00, 0.00000000e+00, 0.00000000e+00, 0.00000000e+00, -1.39404003e+00, 1.47756946e+00, -4.43845665e-01, 3.99560427e+00, 0.00000000e+00, 5.0000000000, 5.0000000000, 0.1453956081