VARIABLES = "x"
 "y"
 "Density"
 "Momentum_x"
 "Momentum_y"
 "Energy"
 "Pressure"
 "Temperature"
 "Mach"
 "C<sub>p</sub>"
 "Roe_Dissipation"
ZONE
DT=(DOUBLE,DOUBLE,DOUBLE,DOUBLE,DOUBLE,DOUBLE,DOUBLE,DOUBLE,DOUBLE,DOUBLE,DOUBLE)
                  -0.15                   0.025        1.22836196422577        44.9241981506348    -2.7269815824581E-09           255084.296875          101705.1015625        288.434387207031       0.107419200241566       0.317125290604293                       0 
      -0.14965965965966                   0.025        1.22836196422577        44.9241981506348    1.18931755089301E-07           255084.296875          101705.1015625        288.434387207031       0.107419200241566       0.317123691819641                       0 
     -0.149319319319319                   0.025        1.22836196422577        44.9241981506348    2.40222399488238E-07           255084.296875          101705.1015625        288.434387207031       0.107419200241566       0.317122092968709                       0 
     -0.148978978978979                   0.025        1.22836189549144        44.9241981506348    3.55718833910377E-07           255084.296875          101705.1015625        288.434380608536       0.107419200241566       0.317120560651171                       0 
     -0.148638638638639                   0.025        1.22836152467712        44.9241981506348     4.4575033549339E-07           255084.296875          101705.1015625        288.434345010361       0.107419200241566       0.317119320740775                       0 
     -0.148298298298298                   0.025        1.22836115385155        44.9241981506348    5.39714399126942E-07           255084.296875          101705.1015625        288.434309411106       0.107419200241566       0.317118080792775                       0 
     -0.147957957957958                   0.025        1.22836101055145        44.9241981506348     6.1919503305358E-07           255084.296875          101705.1015625        288.434295654297       0.107419200241566       0.317116760216006                       0 
     -0.147617617617618                   0.025        1.22836101055145        44.9241981506348    6.76222741191149E-07           255084.296875          101705.1015625        288.434295654297       0.107419200241566        0.31711538878927                       0 
     -0.147277277277277                   0.025        1.22836101055145        44.9241981506348    7.33140342386584E-07           255084.296875          101705.1015625        288.434295654297       0.107419200241566       0.317114017341953                       0 
     -0.146936936936937                   0.025        1.22836101055145        44.9241981506348    7.47742721536485E-07           255084.296875          101705.1015625        288.434295654297       0.107419200241566       0.317112713426734                       0 
     -0.146596596596597                   0.025        1.22836101055145        44.9241991000574    7.65408302793354E-07           255084.296875          101705.1015625        288.434295654297       0.107419200241566       0.317111411111987                       0 
     -0.146256256256256                   0.025        1.22836101055145        44.9242014512586    7.77637483824464E-07           255084.296875          101705.1015625        288.434295654297       0.107419200241566       0.317110098913242                       0 
     -0.145915915915916                   0.025        1.22836101055145        44.9242037754163    7.64961509410693E-07           255084.296875          101705.1015625        288.434295654297       0.107419200241566       0.317108762648752                       0 
     -0.145575575575576                   0.025        1.22836101055145        44.9242079350669    7.62265282032162E-07           255084.296875          101705.1015625        288.434295654297       0.107419200241566       0.317107425565022                       0 
     -0.145235235235235                   0.025        1.22836101055145        44.9242095947266    7.47062915370218E-07           255084.296875          101705.1015625        288.434295654297       0.107419200241566       0.317106106761186                       0 
     -0.144894894894895                   0.025        1.22836101055145        44.9242095947266    7.21630392135447E-07           255084.296875          101705.1015625        288.434295654297       0.107419200241566        0.31710479168355                       0 
     -0.144554554554555                   0.025        1.22836101055145        44.9242095947266    6.94186558724725E-07           255084.296875          101705.1015625        288.434295654297       0.107419200241566       0.317103468114666                       0 
     -0.144214214214214                   0.025        1.22836101055145        44.9242095947266     6.4994833579636E-07        255084.264746612          101705.1015625        288.434295654297       0.107419200241566        0.31710214624647                       0 
     -0.143873873873874                   0.025        1.22836101055145        44.9242095947266    6.05444810272969E-07        255084.229691043          101705.1015625        288.434295654297       0.107419200241566       0.317100824483307                       0 
     -0.143533533533534                   0.025        1.22836101055145        44.9242095947266    5.70342972841359E-07           255084.203125          101705.1015625        288.434295654297       0.107419200241566       0.317099497403357                       0 
     -0.143193193193193                   0.025        1.22836101055145        44.9242095947266    5.20040145341979E-07           255084.203125          101705.1015625        288.434295654297       0.107419200241566       0.317098164641442                       0 
     -0.142852852852853                   0.025        1.22836101055145        44.9242095947266    4.64378875761495E-07           255084.203125          101705.1015625        288.434295654297       0.107419200241566       0.317096841062502                       0 
     -0.142512512512513                   0.025        1.22836101055145        44.9242095947266    4.03692616962268E-07           255084.203125          101705.1015625        288.434295654297       0.107419200241566       0.317095520677798                       0 
     -0.142172172172172                   0.025        1.22836101055145        44.9242095947266    3.39454862239892E-07           255084.203125          101705.1015625        288.434295654297       0.107419200241566       0.317094202550672                       0 
     -0.141831831831832                   0.025        1.22836101055145        44.9242095947266    2.80427801522175E-07           255084.203125          101705.1015625        288.434295654297       0.107419200241566       0.317092884397551                       0 
     -0.141491491491491                   0.025        1.22836101055145        44.9242095947266    2.16661869719154E-07           255084.203125          101705.1015625        288.434295654297       0.107419200241566       0.317091552783924                       0 
     -0.141151151151151                   0.025        1.22836101055145        44.9242095947266     1.4561865947121E-07           255084.203125          101705.1015625        288.434295654297       0.107419200241566       0.317090220474305                       0 
     -0.140810810810811                   0.025        1.22836101055145        44.9242109023387    7.51495885194912E-08           255084.203125          101705.1015625        288.434295654297       0.107419211308596       0.317088891013719                       0 
      -0.14047047047047                   0.025        1.22836101055145        44.9242152440002    6.01269156084744E-09           255084.203125          101705.1015625        288.434295654297       0.107419248054429       0.317087568163737                       0 
      -0.14013013013013                   0.025        1.22836101055145        44.9242195856617   -6.31242053977907E-08           255084.203125          101705.1015625        288.434295654297       0.107419284800261       0.317086245313756                       0 
      -0.13978978978979                   0.025        1.22836101055145        44.9242210388184   -1.27810784747926E-07           255084.203125          101705.1015625        288.434295654297       0.107419297099113       0.317084914003907                       0 
     -0.139449449449449                   0.025        1.22836101055145        44.9242210388184   -1.98983557109574E-07           255084.203125          101705.1015625        288.434295654297       0.107419297099113       0.317083578492348                       0 
     -0.139109109109109                   0.025        1.22836101055145        44.9242210388184   -2.69852644462601E-07           255084.203125          101705.1015625        288.434295654297       0.107419297099113       0.317082243271656                       0 
     -0.138768768768769                   0.025        1.22836101055145        44.9242210388184   -3.31571513970776E-07           255084.203125          101705.1015625        288.434295654297       0.107419297099113       0.317080916815007                       0 
     -0.138428428428428                   0.025        1.22836101055145        44.9242210388184   -3.93290383478946E-07           255084.203125          101705.1015625        288.434295654297       0.107419297099113       0.317079590358357                       0 
     -0.138088088088088                   0.025        1.22836101055145        44.9242210388184   -4.53400810305738E-07           255084.203125          101705.1015625        288.434295654297       0.107419297099113       0.317078271165335                       0 
     -0.137747747747748                   0.025        1.22836101055145        44.9242210388184    -5.1549635033308E-07           255084.203125          101705.1015625        288.434295654297       0.107419297099113       0.317076958898612                       0 
     -0.137407407407407                   0.025        1.22836101055145        44.9242210388184   -5.77591890360428E-07           255084.203125          101705.1015625        288.434295654297       0.107419297099113       0.317075646631889                       0 
     -0.137067067067067                   0.025        1.22836101055145        44.9242210388184   -6.30430244916035E-07           255084.203125          101705.1015625        288.434295654297       0.107419297099113       0.317074332672455                       0 
     -0.136726726726727                   0.025        1.22836101055145        44.9242210388184   -6.80649694245325E-07           255084.203125          101705.1015625        288.434295654297       0.107419297099113       0.317073018234145                       0 
     -0.136386386386386                   0.025        1.22836101055145        44.9242210388184   -7.31680532420055E-07        255084.198947151          101705.1015625        288.434295654297       0.107419297099113       0.317071699646687                       0 
     -0.136046046046046                   0.025        1.22836101055145        44.9242210388184   -7.83441350819143E-07        255084.177591955          101705.1015625        288.434295654297       0.107419297099113       0.317070355341671                       0 
     -0.135705705705706                   0.025        1.22836101055145        44.9242210388184   -8.35202169218227E-07        255084.156236758          101705.1015625        288.434295654297       0.107419297099113       0.317069011036654                       0 
     -0.135365365365365                   0.025        1.22836101055145        44.9242210388184   -8.80822945904744E-07        255084.134880692          101705.1015625        288.434295654297       0.107419297099113       0.317067672109921                       0 
     -0.135025025025025                   0.025        1.22836101055145        44.9242210388184   -9.21296386465099E-07        255084.113523896          101705.1015625        288.434295654297       0.107419297099113       0.317066337691926                       0 
     -0.134684684684685                   0.025        1.22836101055145        44.9242210388184   -9.62744651994657E-07            255084.09375          101705.1015625        288.434295654297       0.107419297099113       0.317065003273926                       0 
     -0.134344344344344                   0.025        1.22836101055145        44.9242210388184     -1.006934504008E-06            255084.09375          101705.1015625        288.434295654297       0.107419297099113       0.317063699741839                       0 
     -0.134004004004004                   0.025        1.22836101055145        44.9242210388184   -1.05060363735547E-06            255084.09375          101705.1015625        288.434295654297       0.107419297099113       0.317062398499069                       0 
     -0.133663663663664                   0.025        1.22836101055145        44.9242210388184    -1.0911104865644E-06            255084.09375         101705.08910895        288.434295654297       0.107419297099113       0.317061082449265                       0 
     -0.133323323323323                   0.025        1.22836101055145        44.9242210388184    -1.1248976802007E-06            255084.09375        101705.050192385        288.434295654297       0.107419297099113       0.317059734935441                       0 
     -0.132982982982983                   0.025        1.22836101055145        44.9242210388184     -1.158684873837E-06            255084.09375         101705.01127582        288.434295654297       0.107419297099113       0.317058387421618                       0 
     -0.132642642642643                   0.025        1.22836101055145        44.9242231158851    -1.1973827988001E-06            255084.09375                  101705        288.434295654297       0.107419297099113       0.317057072044515                       0 
     -0.132302302302302                   0.025        1.22836101055145        44.9242260402659   -1.23517008305367E-06            255084.09375                  101705        288.434295654297       0.107419297099113       0.317055769781181                       0 
     -0.131961961961962                   0.025        1.22836101055145        44.9242286682129   -1.27209767266792E-06            255084.09375                  101705        288.434295654297       0.107419297099113       0.317054467502241                       0 
     -0.131621621621622                   0.025        1.22836101055145        44.9242286682129   -1.30140389260374E-06            255084.09375                  101705        288.434295654297       0.107419297099113        0.31705316508495                       0 
     -0.131281281281281                   0.025        1.22836101055145        44.9242286682129   -1.33071011253957E-06            255084.09375                  101705        288.434295654297       0.107419297099113       0.317051862667659                       0 
     -0.130940940940941                   0.025        1.22836101055145        44.9242286682129   -1.36372450154424E-06            255084.09375                  101705        288.434295654297       0.107419297099113       0.317050537662079                       0 
     -0.130600600600601                   0.025        1.22836101055145        44.9242286682129   -1.39681710548096E-06            255084.09375                  101705        288.434295654297       0.107419297099113       0.317049189398474                       0 
      -0.13026026026026                   0.025        1.22836101055145        44.9242286682129   -1.42990970941769E-06            255084.09375                  101705        288.434295654297       0.107419297099113       0.317047841134868                       0 
      -0.12991991991992                   0.025        1.22836101055145        44.9242286682129   -1.45661847548525E-06            255084.09375                  101705        288.434295654297       0.107419297099113       0.317046533295317                       0 
      -0.12957957957958                   0.025        1.22836101055145        44.9242286682129   -1.48249347026846E-06            255084.09375                  101705        288.434295654297       0.107419297099113       0.317045230735413                       0 
     -0.129239239239239                   0.025        1.22836101055145        44.9242286682129   -1.51062364055516E-06            255084.09375                  101705        288.434295654297       0.107419297099113       0.317043928167476                       0 
     -0.128898898898899                   0.025        1.22836101055145        44.9242286682129   -1.53891777177357E-06            255084.09375                  101705        288.434295654297       0.107419297099113       0.317042625534768                       0 
     -0.128558558558559                   0.025        1.22836101055145        44.9242286682129   -1.56756508304577E-06            255084.09375                  101705        288.434295654297       0.107419297099113       0.317041322888554                       0 
     -0.128218218218218                   0.025        1.22836101055145        44.9242286682129   -1.59214142521259E-06            255084.09375                  101705        288.434295654297       0.107419297099113       0.317040020256848                       0 
     -0.127877877877878                   0.025        1.22836101055145        44.9242286682129   -1.61469478814221E-06            255084.09375                  101705        288.434295654297       0.107419297099113       0.317038717632351                       0 
     -0.127537537537538                   0.025        1.22836101055145        44.9242286682129   -1.63810908814979E-06        255084.091597073                  101705        288.434295654297       0.107419297099113       0.317037404556296                       0 
     -0.127197197197197                   0.025        1.22836101055145        44.9242286682129   -1.66103128252839E-06        255084.055652746                  101705        288.434295654297       0.107419297099113       0.317036084482049                       0 
     -0.126856856856857                   0.025        1.22836101055145        44.9242286682129   -1.68474218686883E-06        255084.019707389                  101705        288.434295654297       0.107419297099113       0.317034764369972                       0 
     -0.126516516516517                   0.025        1.22836101055145        44.9242286682129    -1.7061362003987E-06                  255084                  101705        288.434295654297         0.1074193151655       0.317033459753452                       0 
     -0.126176176176176                   0.025        1.22836101055145        44.9242286682129   -1.72471829363817E-06                  255084                  101705        288.434295654297       0.107419355158357       0.317032173943286                       0 
     -0.125835835835836                   0.025        1.22836101055145        44.9242286682129     -1.742690080101E-06                  255084                  101705        288.434295654297       0.107419395151215        0.31703088813312                       0 
     -0.125495495495495                   0.025        1.22836101055145        44.9242286682129   -1.75955721236628E-06                  255084                  101705        288.434295654297       0.107419401407242       0.317029599206935                       0 
     -0.125155155155155                   0.025        1.22836101055145        44.9242286682129   -1.77721413586122E-06                  255084                  101705        288.434295654297       0.107419401407242       0.317028296635901                       0 
     -0.124814814814815                   0.025        1.22836101055145        44.9242297008523    -1.7938475376023E-06                  255084                  101705        288.434295654297       0.107419401407242       0.317026994031425                       0 
     -0.124474474474474                   0.025        1.22836101055145        44.9242340889386   -1.80715511900936E-06                  255084                  101705        288.434295654297       0.107419401407242       0.317025691318281                       0 
     -0.124134134134134                   0.025        1.22836101055145        44.9242376764012   -1.81898410683205E-06                  255084                  101705        288.434295654297       0.107419401407242       0.317024382376914                       0 
     -0.123793793793794                   0.025        1.22836078117851        44.9242398286485   -1.82824919143926E-06                  255084                  101705        288.434295654297       0.107419401407242         0.3170230837743                       0 
     -0.123453453453453                   0.025        1.22836041554326        44.9242401123047   -1.83808590637251E-06                  255084                  101705        288.434295654297       0.107419401407242       0.317021783414815                       0 
     -0.123113113113113                   0.025        1.22836005687714        44.9242401123047   -1.84793097339008E-06                  255084                  101705        288.434295654297       0.107419401407242       0.317020480846466                       0 
     -0.122772772772773                   0.025        1.22836005687714        44.9242401123047   -1.85414109121721E-06                  255084                  101705        288.434295654297       0.107419401407242       0.317019178138686                       0 
     -0.122432432432432                   0.025        1.22836005687714        44.9242401123047   -1.85870497626953E-06                  255084                  101705        288.434295654297       0.107419401407242        0.31701787544955                       0 
     -0.122092092092092                   0.025        1.22836005687714        44.9242401123047   -1.85835295534165E-06                  255084                  101705        288.434281227034       0.107419401407242       0.317016586904394                       0 
     -0.121751751751752                   0.025        1.22836005687714        44.9242401123047   -1.85853531301724E-06                  255084                  101705        288.434246125408       0.107419401407242       0.317015318583926                       0 
     -0.121411411411411                   0.025        1.22836005687714        44.9242401123047    -1.8587740795681E-06                  255084                  101705         288.43421102469       0.107419401407242       0.317014050296256                       0 
     -0.121071071071071                   0.025        1.22836005687714        44.9242401123047   -1.85665040599201E-06                  255084                  101705        288.434204101562       0.107419401407242       0.317012754377304                       0 
     -0.120730730730731                   0.025        1.22836005687714        44.9242401123047   -1.85280021086641E-06                  255084                  101705        288.434204101562       0.107419401407242       0.317011451678808                       0 
      -0.12039039039039                   0.025        1.22836005687714        44.9242401123047   -1.84083230072624E-06                  255084                  101705        288.434204101562       0.107419401407242       0.317010155721362                       0 
      -0.12005005005005                   0.025        1.22836005687714        44.9242401123047   -1.83003271623623E-06                  255084                  101705        288.434204101562       0.107419401407242       0.317008887377665                       0 
      -0.11970970970971                   0.025        1.22836005687714        44.9242401123047   -1.81914112317526E-06                  255084                  101705        288.434204101562       0.107419401407242       0.317007619089981                       0 
     -0.119369369369369                   0.025        1.22836005687714        44.9242401123047   -1.80713211245403E-06                  255084                  101705        288.434204101562       0.107419401407242       0.317006350721131                       0 
     -0.119029029029029                   0.025        1.22836005687714        44.9242401123047   -1.79432464639461E-06                  255084                  101705        288.434204101562       0.107419401407242       0.317005082279821                       0 
     -0.118688688688689                   0.025        1.22836005687714        44.9242401123047   -1.76946608120593E-06                  255084                  101705        288.434204101562       0.107419401407242       0.317003796464378                       0 
     -0.118348348348348                   0.025        1.22836005687714        44.9242401123047   -1.74696392880308E-06        255083.964830776                  101705        288.434204101562       0.107419401407242       0.317002510638375                       0 
     -0.118008008008008                   0.025        1.22836005687714        44.9242401123047   -1.72438787466675E-06        255083.928887468                  101705        288.434204101562       0.107419401407242       0.317001230015903                       0 
     -0.117667667667668                   0.025        1.22836005687714        44.9242401123047   -1.70165436444419E-06            255083.90625                  101705        288.434204101562       0.107419401407242       0.316999949816573                       0 
     -0.117327327327327                   0.025        1.22836005687714        44.9242401123047   -1.67867251301693E-06            255083.90625                  101705        288.434204101562       0.107419401407242       0.316998669529262                       0 
     -0.116986986986987                   0.025        1.22836005687714        44.9242401123047   -1.64307210291247E-06            255083.90625                  101705        288.434204101562       0.107419401407242       0.316997409838992                       0 
     -0.116646646646647                   0.025        1.22836005687714        44.9242434563638   -1.60861762289127E-06            255083.90625                  101705        288.434204101562       0.107419401407242        0.31699614420158                       0 
     -0.116306306306306                   0.025        1.22836005687714        44.9242478440479   -1.57506534443724E-06            255083.90625                  101705        288.434204101562       0.107419401407242       0.316994875886647                       0 
     -0.115965965965966                   0.025        1.22836005687714        44.9242515563965   -1.54174400457955E-06            255083.90625                  101705        288.434204101562       0.107419401407242       0.316993607577593                       0 
     -0.115625625625626                   0.025        1.22836005687714        44.9242515563965   -1.50963161359373E-06            255083.90625                  101705        288.434204101562       0.107419401407242        0.31699233915144                       0 
     -0.115285285285285                   0.025        1.22836005687714        44.9242515563965   -1.46518076530644E-06            255083.90625                  101705        288.434204101562       0.107419401407242       0.316991070779067                       0 
     -0.114944944944945                   0.025        1.22836005687714        44.9242515563965   -1.41971010184747E-06            255083.90625                  101705        288.434204101562       0.107419401407242       0.316989802423429                       0 
     -0.114604604604605                   0.025        1.22836005687714        44.9242515563965   -1.37663440471021E-06            255083.90625                  101705        288.434204101562       0.107419401407242       0.316988540406881                       0 
     -0.114264264264264                   0.025        1.22836005687714        44.9242515563965   -1.33368268763975E-06            255083.90625                  101705        288.434204101562       0.107419401407242       0.316987294537335                       0 
     -0.113923923923924                   0.025        1.22836005687714        44.9242515563965   -1.29401001621815E-06            255083.90625                  101705        288.434204101562       0.107419401407242       0.316986048540319                       0 
     -0.113583583583584                   0.025        1.22836005687714        44.9242515563965   -1.24323772687539E-06            255083.90625                  101705        288.434204101562       0.107419401407242       0.316984806325938                       0 
     -0.113243243243243                   0.025        1.22836005687714        44.9242515563965   -1.18839155162451E-06            255083.90625                  101705        288.434204101562       0.107419413645009       0.316983562445939                       0 
     -0.112902902902903                   0.025        1.22836005687714        44.9242515563965     -1.138011151866E-06            255083.90625                  101705        288.434204101562       0.107419450781543       0.316982310904758                       0 
     -0.112562562562563                   0.025        1.22836005687714        44.9242515563965   -1.08797219038968E-06            255083.90625                  101705        288.434204101562        0.10741948791616       0.316981043209531                       0 
     -0.112222222222222                   0.025        1.22836005687714        44.9242515563965   -1.04195260955479E-06            255083.90625                  101705        288.434204101562        0.10741949826479       0.316979807785577                       0 