VARIABLES = "x"
 "y"
 "Density"
 "Momentum_x"
 "Momentum_y"
 "Energy"
 "Pressure"
 "Temperature"
 "Mach"
 "C<sub>p</sub>"
 "Roe_Dissipation"
ZONE
DT=(DOUBLE,DOUBLE,DOUBLE,DOUBLE,DOUBLE,DOUBLE,DOUBLE,DOUBLE,DOUBLE,DOUBLE,DOUBLE)
                  -0.15                   0.025        1.22836303710232        44.9210559871619   -4.19341846433581E-07                255084.5           101705.203125        288.434387207031       0.107411564177945       0.317220927708809                       0 
      -0.14965965965966                   0.025        1.22836264202265        44.9210587619392    4.11768147869937E-07                255084.5           101705.203125        288.434387207031       0.107411600649357       0.317218918721026                       0 
     -0.149319319319319                   0.025        1.22836241581705        44.9210612530076    6.37668589671377E-07                255084.5           101705.203125        288.434387207031       0.107411600649357       0.317217235877286                       0 
     -0.148978978978979                   0.025        1.22836218961144         44.921063744076    8.63569031472835E-07                255084.5           101705.203125        288.434387207031       0.107411600649357       0.317215553033546                       0 
     -0.148638638638639                   0.025        1.22836196422577        44.9210662257048      1.089732404402E-06                255084.5           101705.203125        288.434387207031       0.107411600649357       0.317213871952707                       0 
     -0.148298298298298                   0.025        1.22836196422577        44.9210661125748    1.38817064725045E-06                255084.5           101705.203125        288.434387207031       0.107411600649357       0.317212675460641                       0 
     -0.147957957957958                   0.025        1.22836196422577        44.9210660896622    1.64965259798344E-06                255084.5           101705.203125        288.434387207031       0.107411600649357       0.317211473690047                       0 
     -0.147617617617618                   0.025        1.22836196422577        44.9210661689506    1.86926939809025E-06                255084.5           101705.203125        288.434387207031       0.107411600649357       0.317210265939786                       0 
     -0.147277277277277                   0.025        1.22836196422577         44.921066248239    2.08888619819704E-06                255084.5           101705.203125        288.434387207031       0.107411600649357       0.317209058189525                       0 
     -0.146936936936937                   0.025        1.22836196422577        44.9210672268139    2.14795802903496E-06        255084.492370011           101705.203125        288.434387207031       0.107411600649357       0.317207792601644                       0 
     -0.146596596596597                   0.025        1.22836196422577        44.9210697417155    1.93275739385519E-06        255084.471705069           101705.203125        288.434387207031       0.107411600649357       0.317206428204894                       0 
     -0.146256256256256                   0.025        1.22836196422577         44.921070098877    2.02673262663701E-06        255084.451230343           101705.203125        288.434387207031       0.107411600649357       0.317205059865014                       0 
     -0.145915915915916                   0.025        1.22836196422577         44.921070098877    2.17188441282365E-06        255084.430787102           101705.203125        288.434387207031       0.107411600649357       0.317203690872445                       0 
     -0.145575575575576                   0.025        1.22836196422577         44.921070098877     2.3170361990103E-06        255084.410343862           101705.203125        288.434387207031       0.107411600649357       0.317202321879875                       0 
     -0.145235235235235                   0.025        1.22836196422577         44.921070098877    2.25551293191529E-06            255084.40625           101705.203125        288.434387207031       0.107411600649357       0.317200988166048                       0 
     -0.144894894894895                   0.025        1.22836196422577         44.921070098877    2.21226709209862E-06            255084.40625           101705.203125        288.434387207031       0.107411600649357       0.317199660410207                       0 
     -0.144554554554555                   0.025        1.22836196422577         44.921070098877    2.27304843043452E-06            255084.40625           101705.203125        288.434387207031       0.107411600649357       0.317198328382433                       0 
     -0.144214214214214                   0.025        1.22836196422577         44.921070098877    2.33382976877043E-06            255084.40625           101705.203125        288.434387207031       0.107411600649357       0.317196996354658                       0 
     -0.143873873873874                   0.025        1.22836196422577         44.921070098877    2.35858907940859E-06            255084.40625           101705.203125        288.434387207031       0.107411600649357       0.317195661956725                       0 
     -0.143533533533534                   0.025        1.22836196422577         44.921070098877     2.3085606641061E-06            255084.40625           101705.203125        288.434387207031       0.107411600649357       0.317194322396532                       0 
     -0.143193193193193                   0.025        1.22836196422577         44.921070098877    2.33603485935781E-06            255084.40625           101705.203125        288.434387207031       0.107411600649357       0.317192979083996                       0 
     -0.142852852852853                   0.025        1.22836196422577         44.921070098877    2.36350905460952E-06            255084.40625           101705.203125        288.434387207031       0.107411600649357       0.317191635771459                       0 
     -0.142512512512513                   0.025        1.22836196422577         44.921070098877    2.39098324986122E-06            255084.40625           101705.203125        288.434387207031       0.107411600649357       0.317190292458923                       0 
     -0.142172172172172                   0.025        1.22836196422577         44.921070098877    2.43439401883683E-06            255084.40625           101705.203125        288.434387207031       0.107411600649357        0.31718894790095                       0 
     -0.141831831831832                   0.025        1.22836196422577        44.9210719013398    2.46239259263482E-06            255084.40625           101705.203125        288.434387207031       0.107411600649357       0.317187602917269                       0 
     -0.141491491491491                   0.025        1.22836196422577        44.9210745390654    2.48218848663579E-06            255084.40625           101705.203125        288.434387207031       0.107411600649357       0.317186257819205                       0 
     -0.141151151151151                   0.025        1.22836196422577        44.9210771767911    2.50198438063677E-06            255084.40625           101705.203125        288.434387207031       0.107411600649357        0.31718491272114                       0 
     -0.140810810810811                   0.025        1.22836196422577        44.9210798147661    2.53804406908094E-06            255084.40625           101705.203125        288.434387207031       0.107411600649357       0.317183570443001                       0 
      -0.14047047047047                   0.025        1.22836196422577        44.9210815429688    2.57701499757703E-06            255084.40625           101705.203125        288.434387207031       0.107411608347237       0.317182229552791                       0 
      -0.14013013013013                   0.025        1.22836196422577        44.9210815429688    2.58173214709687E-06            255084.40625           101705.203125        288.434387207031       0.107411630662843       0.317180884400485                       0 
      -0.13978978978979                   0.025        1.22836196422577        44.9210815429688    2.58644929661671E-06            255084.40625           101705.203125        288.434387207031       0.107411652978449       0.317179539248179                       0 
     -0.139449449449449                   0.025        1.22836196422577        44.9210815429688    2.59119460484383E-06            255084.40625           101705.203125        288.434387207031       0.107411675294074       0.317178194094671                       0 
     -0.139109109109109                   0.025        1.22836196422577        44.9210815429688    2.63141937338291E-06        255084.406106437           101705.203125        288.434387207031       0.107411697506905       0.317176847409329                       0 
     -0.138768768768769                   0.025        1.22836196422577        44.9210815429688    2.61626646012052E-06        255084.380876225           101705.203125        288.434387207031       0.107411697506905       0.317175500003452                       0 
     -0.138428428428428                   0.025        1.22836196422577        44.9210815429688    2.60111354685814E-06        255084.355646013           101705.203125        288.434387207031       0.107411697506905       0.317174152597574                       0 
     -0.138088088088088                   0.025        1.22836196422577        44.9210815429688    2.58596063359575E-06        255084.330415801           101705.203125        288.434387207031       0.107411697506905       0.317172805191697                       0 
     -0.137747747747748                   0.025        1.22836196422577        44.9210815429688    2.58299518636203E-06        255084.305157291           101705.203125        288.434387207031       0.107411697506905       0.317171467796277                       0 
     -0.137407407407407                   0.025        1.22836196422577        44.9210815429688    2.56042365762468E-06           255084.296875           101705.203125        288.434387207031       0.107411697506905       0.317170136396338                       0 
     -0.137067067067067                   0.025        1.22836196422577        44.9210815429688    2.52387764015986E-06           255084.296875           101705.203125        288.434387207031       0.107411697506905       0.317168804286531                       0 
     -0.136726726726727                   0.025        1.22836196422577        44.9210815429688    2.48733162269504E-06           255084.296875           101705.203125        288.434387207031       0.107411697506905       0.317167472176724                       0 
     -0.136386386386386                   0.025        1.22836196422577        44.9210815429688    2.45219075788443E-06           255084.296875           101705.203125        288.434387207031       0.107411697506905       0.317166139545713                       0 
     -0.136046046046046                   0.025        1.22836196422577         44.921082169529    2.41440871745159E-06           255084.296875           101705.203125        288.434387207031       0.107411697506905       0.317164805786008                       0 
     -0.135705705705706                   0.025        1.22836196422577        44.9210839424176    2.35860474104859E-06           255084.296875           101705.203125        288.434387207031       0.107411697506905        0.31716347485367                       0 
     -0.135365365365365                   0.025        1.22836196422577        44.9210857153061    2.30280076464559E-06           255084.296875           101705.203125        288.434387207031       0.107411697506905       0.317162143921333                       0 
     -0.135025025025025                   0.025        1.22836196422577        44.9210874881947    2.24699678824258E-06           255084.296875           101705.203125        288.434387207031       0.107411697506905       0.317160812988996                       0 
     -0.134684684684685                   0.025        1.22836196422577        44.9210891723633     2.1879823092147E-06           255084.296875           101705.203125        288.434387207031       0.107411697506905        0.31715947949818                       0 
     -0.134344344344344                   0.025        1.22836196422577        44.9210891723633    2.11497760535094E-06           255084.296875           101705.203125        288.434387207031       0.107411697506905       0.317158136544343                       0 
     -0.134004004004004                   0.025        1.22836196422577        44.9210891723633    2.04197290148719E-06           255084.296875           101705.203125        288.434387207031       0.107411697506905       0.317156793590505                       0 
     -0.133663663663664                   0.025        1.22836196422577        44.9210891723633    1.96896819762343E-06           255084.296875           101705.203125        288.434387207031       0.107411697506905       0.317155450636668                       0 
     -0.133323323323323                   0.025        1.22836196422577        44.9210891723633    1.89071016512026E-06           255084.296875           101705.203125        288.434387207031       0.107411697506905       0.317154106921226                       0 
     -0.132982982982983                   0.025        1.22836196422577        44.9210891723633    1.80282561297818E-06           255084.296875           101705.203125        288.434387207031       0.107411697506905       0.317152760731217                       0 
     -0.132642642642643                   0.025        1.22836196422577        44.9210891723633    1.71439346030996E-06           255084.296875           101705.203125        288.434387207031       0.107411697506905         0.3171514141298                       0 
     -0.132302302302302                   0.025        1.22836196422577        44.9210891723633    1.62596130764175E-06           255084.296875           101705.203125        288.434387207031       0.107411697506905       0.317150067528382                       0 
     -0.131961961961962                   0.025        1.22836196422577        44.9210891723633    1.53666205748197E-06           255084.296875           101705.203125        288.434387207031       0.107411697506905       0.317148720878162                       0 
     -0.131621621621622                   0.025        1.22836196422577        44.9210891723633    1.43075167740643E-06           255084.296875           101705.203125        288.434387207031       0.107411697506905       0.317147386255287                       0 
     -0.131281281281281                   0.025        1.22836196422577        44.9210891723633     1.3284470976778E-06           255084.296875           101705.203125        288.434387207031       0.107411697506905       0.317146065388581                       0 
     -0.130940940940941                   0.025        1.22836196422577        44.9210891723633    1.22614251794917E-06           255084.296875           101705.203125        288.434387207031       0.107411697506905       0.317144744521875                       0 
     -0.130600600600601                   0.025        1.22836196422577        44.9210891723633    1.12383793822054E-06           255084.296875           101705.203125        288.434387207031       0.107411697506905       0.317143423655169                       0 
      -0.13026026026026                   0.025        1.22836196422577        44.9210891723633    1.00668369717361E-06        255084.282011724        101705.187023117        288.434387207031       0.107411697506905       0.317142102214573                       0 
      -0.12991991991992                   0.025        1.22836196422577        44.9210891723633    8.92513106646777E-07        255084.260446578        101705.163660876        288.434387207031       0.107411697506905       0.317140780071633                       0 
      -0.12957957957958                   0.025        1.22836196422577        44.9210891723633    7.78342516119943E-07        255084.238881432        101705.140298635        288.434387207031       0.107411697506905       0.317139457928694                       0 
     -0.129239239239239                   0.025        1.22836196422577        44.9210891723633    6.64171925593109E-07        255084.217316286        101705.116936394        288.434387207031       0.107411697506905       0.317138135785754                       0 
     -0.128898898898899                   0.025        1.22836196422577        44.9210891723633    5.40339737510124E-07           255084.203125          101705.1015625        288.434387207031       0.107411697506905       0.317136813519915                       0 
     -0.128558558558559                   0.025        1.22836196422577        44.9210917338194    4.16136820134595E-07           255084.203125          101705.1015625        288.434387207031       0.107411697506905       0.317135490848937                       0 
     -0.128218218218218                   0.025        1.22836196422577        44.9210944179192    2.92806446948325E-07           255084.203125          101705.1015625        288.434387207031       0.107411697506905       0.317134168169885                       0 
     -0.127877877877878                   0.025        1.22836196422577         44.921097102019    1.69476073762054E-07           255084.203125          101705.1015625        288.434387207031       0.107411697506905       0.317132845490833                       0 
     -0.127537537537538                   0.025        1.22836196422577        44.9210997861187    4.61457005757841E-08           255084.203125          101705.1015625        288.434387207031       0.107411697506905       0.317131522811781                       0 
     -0.127197197197197                   0.025        1.22836196422577        44.9211006164551    -8.9589554258673E-08           255084.203125          101705.1015625        288.434387207031       0.107411714407834       0.317130195052283                       0 
     -0.126856856856857                   0.025        1.22836196422577        44.9211006164551   -2.18709055027408E-07           255084.203125          101705.1015625        288.434387207031       0.107411738877405       0.317128865100151                       0 
     -0.126516516516517                   0.025        1.22836196422577        44.9211006164551   -3.47828555796142E-07           255084.203125          101705.1015625        288.434387207031       0.107411763346976       0.317127535148019                       0 
     -0.126176176176176                   0.025        1.22836196422577        44.9211006164551   -4.76948056564887E-07           255084.203125          101705.1015625        288.434387207031       0.107411787816546       0.317126205195887                       0 
     -0.125835835835836                   0.025        1.22836196422577        44.9211006164551   -6.12294244492014E-07           255084.203125          101705.1015625        288.434387207031       0.107411801815033       0.317124893042628                       0 
     -0.125495495495495                   0.025        1.22836196422577        44.9211006164551   -7.43370649880748E-07           255084.203125          101705.1015625        288.434387207031       0.107411801815033       0.317123590369676                       0 
     -0.125155155155155                   0.025        1.22836196422577        44.9211006164551   -8.74447055269481E-07           255084.203125          101705.1015625        288.434387207031       0.107411801815033       0.317122287696723                       0 
     -0.124814814814815                   0.025        1.22836196422577        44.9211006164551   -1.00552346065822E-06           255084.203125          101705.1015625        288.434387207031       0.107411801815033       0.317120985023771                       0 
     -0.124474474474474                   0.025        1.22836189669329        44.9211006164551   -1.13887118097391E-06           255084.203125          101705.1015625        288.434380723913       0.107411801815033       0.317119683505301                       0 
     -0.124134134134134                   0.025        1.22836167715637        44.9211006164551    -1.2678764976999E-06           255084.203125          101705.1015625        288.434359648369       0.107411801815033       0.317118387811451                       0 
     -0.123793793793794                   0.025        1.22836145761944        44.9211006164551   -1.39688181442589E-06           255084.203125          101705.1015625        288.434338572824       0.107411801815033       0.317117092117602                       0 
     -0.123453453453453                   0.025        1.22836123808251        44.9211006164551   -1.52588713115189E-06           255084.203125          101705.1015625        288.434317497279       0.107411801815033       0.317115796423752                       0 
     -0.123113113113113                   0.025        1.22836101854559        44.9211006164551   -1.65489244787788E-06           255084.203125          101705.1015625        288.434296421734       0.107411801815033       0.317114500729902                       0 
     -0.122772772772773                   0.025        1.22836101055145        44.9211006164551   -1.77914461664636E-06           255084.203125          101705.1015625        288.434295654297       0.107411801815033       0.317113217383609                       0 
     -0.122432432432432                   0.025        1.22836101055145        44.9211006164551   -1.90215682700114E-06           255084.203125          101705.1015625        288.434295654297       0.107411801815033       0.317111935812317                       0 
     -0.122092092092092                   0.025        1.22836101055145        44.9211006164551   -2.02516903735592E-06           255084.203125          101705.1015625        288.434295654297       0.107411801815033       0.317110654241025                       0 
     -0.121751751751752                   0.025        1.22836101055145        44.9211006424532   -2.14867074686447E-06           255084.203125          101705.1015625        288.434295654297       0.107411801815033       0.317109372669835                       0 
     -0.121411411411411                   0.025        1.22836101055145        44.9211017643545   -2.26599117710358E-06        255084.186668714          101705.1015625        288.434295654297       0.107411801815033       0.317108077591668                       0 
     -0.121071071071071                   0.025        1.22836101055145        44.9211035544762   -2.37999222947237E-06        255084.161005529          101705.1015625        288.434295654297       0.107411801815033       0.317106774956875                       0 
     -0.120730730730731                   0.025        1.22836101055145         44.921105344598   -2.49399328184116E-06        255084.135342343          101705.1015625        288.434295654297       0.107411801815033       0.317105472322082                       0 
      -0.12039039039039                   0.025        1.22836101055145        44.9211071347197   -2.60799433420995E-06        255084.109679158          101705.1015625        288.434295654297       0.107411801815033       0.317104169687289                       0 
      -0.12005005005005                   0.025        1.22836101055145        44.9211082458496    -2.7173805677724E-06            255084.09375          101705.1015625        288.434295654297       0.107411801815033       0.317102876932146                       0 
      -0.11970970970971                   0.025        1.22836101055145        44.9211082458496   -2.81867121303323E-06            255084.09375          101705.1015625        288.434295654297       0.107411801815033       0.317101602214948                       0 
     -0.119369369369369                   0.025        1.22836101055145        44.9211082458496   -2.91996185829405E-06            255084.09375          101705.1015625        288.434295654297       0.107411801815033       0.317100327497751                       0 
     -0.119029029029029                   0.025        1.22836101055145        44.9211082458496   -3.02125250355488E-06            255084.09375          101705.1015625        288.434295654297       0.107411801815033       0.317099052780553                       0 
     -0.118688688688689                   0.025        1.22836101055145        44.9211082458496   -3.12204871327095E-06            255084.09375          101705.1015625        288.434295654297       0.107411801815033       0.317097778064118                       0 
     -0.118348348348348                   0.025        1.22836101055145        44.9211082458496   -3.20901303062932E-06            255084.09375          101705.1015625        288.434295654297       0.107411801815033       0.317096516138459                       0 
     -0.118008008008008                   0.025        1.22836101055145        44.9211082458496   -3.29523765111119E-06            255084.09375          101705.1015625        288.434295654297       0.107411801815033       0.317095255148851                       0 
     -0.117667667667668                   0.025        1.22836101055145        44.9211082458496   -3.38146227159307E-06            255084.09375          101705.1015625        288.434295654297       0.107411801815033       0.317093994159243                       0 
     -0.117327327327327                   0.025        1.22836101055145        44.9211082458496   -3.46768689207495E-06            255084.09375          101705.1015625        288.434295654297       0.107411801815033       0.317092733169636                       0 
     -0.116986986986987                   0.025        1.22836101055145        44.9211082458496     -3.544933239212E-06            255084.09375          101705.1015625        288.434295654297       0.107411801815033       0.317091464037156                       0 
     -0.116646646646647                   0.025        1.22836101055145        44.9211082458496   -3.61449766125242E-06            255084.09375          101705.1015625        288.434295654297       0.107411801815033       0.317090189234807                       0 
     -0.116306306306306                   0.025        1.22836101055145        44.9211082458496   -3.68406208329284E-06            255084.09375          101705.1015625        288.434295654297       0.107411801815033       0.317088914432459                       0 
     -0.115965965965966                   0.025        1.22836101055145        44.9211082458496   -3.75362650533326E-06            255084.09375          101705.1015625        288.434295654297       0.107411801815033        0.31708763963011                       0 
     -0.115625625625626                   0.025        1.22836101055145        44.9211082458496   -3.82268489060746E-06            255084.09375          101705.1015625        288.434295654297       0.107411801815033       0.317086369904802                       0 
     -0.115285285285285                   0.025        1.22836101055145        44.9211082458496   -3.87472831406683E-06            255084.09375          101705.1015625        288.434295654297       0.107411801815033       0.317085115775712                       0 
     -0.114944944944945                   0.025        1.22836101055145        44.9211082458496   -3.92677173752619E-06            255084.09375          101705.1015625        288.434295654297       0.107411801815033       0.317083861646622                       0 
     -0.114604604604605                   0.025        1.22836101055145        44.9211082458496   -3.97881516098556E-06            255084.09375          101705.1015625        288.434295654297       0.107411801815033       0.317082607517532                       0 
     -0.114264264264264                   0.025        1.22836101055145        44.9211091336072     -4.037074986539E-06            255084.09375          101705.1015625        288.434295654297       0.107411801815033       0.317081360324066                       0 
     -0.113923923923924                   0.025        1.22836101055145         44.921109447586   -4.07506625666824E-06            255084.09375          101705.1015625        288.434295654297       0.107411801815033       0.317080127171479                       0 
     -0.113583583583584                   0.025        1.22836101055145        44.9211094981363   -4.10940737773622E-06            255084.09375          101705.1015625        288.434295654297       0.107411801815033       0.317078894018894                       0 
     -0.113243243243243                   0.025        1.22836101055145        44.9211095486866    -4.1437484988042E-06            255084.09375          101705.1015625        288.434295654297       0.107411801815033       0.317077660866309                       0 
     -0.112902902902903                   0.025        1.22836101055145        44.9211095992371   -4.17991610916251E-06            255084.09375          101705.1015625        288.434295654297       0.107411803369308       0.317076426272944                       0 
     -0.112562562562563                   0.025        1.22836101055145        44.9211111145734    -4.2164520324436E-06        255084.081750504          101705.1015625        288.434295654297       0.107411826094596       0.317075183546484                       0 
     -0.112222222222222                   0.025        1.22836101055145        44.9211137995703   -4.23341490906552E-06         255084.06016915          101705.1015625        288.434295654297        0.10741184881918        0.31707394999728                       0 