VARIABLES = "x"
 "y"
 "Density"
 "Momentum_x"
 "Momentum_y"
 "Energy"
 "Pressure"
 "Temperature"
 "Mach"
 "C<sub>p</sub>"
 "Roe_Dissipation"
ZONE
DT=(DOUBLE,DOUBLE,DOUBLE,DOUBLE,DOUBLE,DOUBLE,DOUBLE,DOUBLE,DOUBLE,DOUBLE,DOUBLE)
                  -0.15                   0.025        1.22243404388428        60.6050300598145   -6.65517005932279E-08                  254049           101018.703125        287.876800537109       0.145757600665092      -0.255542397493461                       0 
      -0.14965965965966                   0.025        1.22243404388428        60.6050300598145   -7.47050660172738E-08                  254049           101018.703125        287.876800537109       0.145757600665092      -0.255542076400682                       0 
     -0.149319319319319                   0.025        1.22243404388428        60.6050300598145   -8.28584314413197E-08                  254049           101018.703125        287.876800537109       0.145757600665092      -0.255541755307903                       0 
     -0.148978978978979                   0.025        1.22243404388428        60.6050300598145   -9.10117968653663E-08                  254049           101018.703125        287.876800537109       0.145757600665092      -0.255541434215125                       0 
     -0.148638638638639                   0.025        1.22243404388428        60.6050300598145   -9.91651622894121E-08                  254049           101018.703125        287.876800537109       0.145757600665092      -0.255541113122346                       0 
     -0.148298298298298                   0.025        1.22243404388428        60.6050300598145   -1.07318527713458E-07                  254049           101018.703125        287.876800537109       0.145757600665092      -0.255540792029567                       0 
     -0.147957957957958                   0.025        1.22243404388428        60.6050300598145   -1.15471893137504E-07                  254049           101018.703125        287.876800537109       0.145757600665092      -0.255540470936788                       0 
     -0.147617617617618                   0.025        1.22243404388428        60.6050300598145    -1.2362525856155E-07                  254049           101018.703125        287.876800537109       0.145757600665092      -0.255540149844009                       0 
     -0.147277277277277                   0.025        1.22243404388428        60.6050300598145    -1.1371100557173E-07                  254049           101018.703125        287.876800537109       0.145757600665092      -0.255539829108675                       0 
     -0.146936936936937                   0.025        1.22243404388428        60.6050300598145    -9.6648799977287E-08                  254049           101018.703125        287.876800537109       0.145757600665092      -0.255539508514753                       0 
     -0.146596596596597                   0.025        1.22243404388428        60.6050300598145   -8.03717021414712E-08        254049.000614037           101018.703125        287.876800537109       0.145757599981902       -0.25553919283961                       0 
     -0.146256256256256                   0.025        1.22243404388428        60.6050300598145   -7.54514992628333E-08        254049.010110371           101018.703125        287.876800537109       0.145757589416091      -0.255538948316551                       0 
     -0.145915915915916                   0.025        1.22243404388428        60.6050300598145   -7.05312963841958E-08        254049.019606705           101018.703125        287.876800537109        0.14575757885028      -0.255538703793493                       0 
     -0.145575575575576                   0.025        1.22243404388428        60.6050300598145   -6.84588135518409E-08        254049.029096515           101018.703125        287.876800537109       0.145757568291727       -0.25553845943842                       0 
     -0.145235235235235                   0.025        1.22243404388428        60.6050300598145   -6.99303641645785E-08        254049.038578205           101018.703125        287.876800537109       0.145757557742208       -0.25553821529241                       0 
     -0.144894894894895                   0.025        1.22243404388428        60.6050300598145   -7.14019147773161E-08        254049.048059896           101018.703125        287.876800537109       0.145757547192689        -0.2555379711464                       0 
     -0.144554554554555                   0.025        1.22243404388428        60.6050300598145   -7.28734653900537E-08        254049.057541587           101018.703125        287.876800537109        0.14575753664317       -0.25553772700039                       0 
     -0.144214214214214                   0.025        1.22243404388428        60.6050300598145   -7.43450160027912E-08        254049.067023277           101018.703125        287.876800537109       0.145757526093651       -0.25553748285438                       0 
     -0.143873873873874                   0.025        1.22243404388428        60.6050300598145   -7.58165666155287E-08        254049.076504968           101018.703125        287.876800537109       0.145757515544132       -0.25553723870837                       0 
     -0.143533533533534                   0.025        1.22243404388428        60.6050300598145   -7.72881172282663E-08        254049.085986658           101018.703125        287.876800537109       0.145757504994613       -0.25553699456236                       0 
     -0.143193193193193                   0.025        1.22243404388428        60.6050298503907   -7.81034787991184E-08            254049.09375           101018.703125        287.876800537109       0.145757496356964      -0.255536748851037                       0 
     -0.142852852852853                   0.025        1.22243404388428        60.6050286948101   -7.59542392481761E-08            254049.09375           101018.703125        287.876800537109       0.145757496356964      -0.255536496067776                       0 
     -0.142512512512513                   0.025        1.22243404388428        60.6050275392295   -7.38049996972339E-08            254049.09375           101018.703125        287.876800537109       0.145757496356964      -0.255536243284515                       0 
     -0.142172172172172                   0.025        1.22243404388428        60.6050263836489   -7.16557601462917E-08            254049.09375           101018.703125        287.876800537109       0.145757496356964      -0.255535990501254                       0 
     -0.141831831831832                   0.025        1.22243404388428        60.6050252280682   -6.95065205953492E-08            254049.09375           101018.703125        287.876800537109       0.145757496356964      -0.255535737717993                       0 
     -0.141491491491491                   0.025        1.22243404388428        60.6050240724876    -6.7357281044407E-08            254049.09375           101018.703125        287.876800537109       0.145757496356964      -0.255535484934732                       0 
     -0.141151151151151                   0.025        1.22243404388428         60.605022916907   -6.52080414934648E-08            254049.09375           101018.703125        287.876800537109       0.145757496356964      -0.255535232151471                       0 
     -0.140810810810811                   0.025        1.22243404388428        60.6050217613264   -6.30588019425225E-08            254049.09375           101018.703125        287.876800537109       0.145757496356964       -0.25553497936821                       0 
      -0.14047047047047                   0.025        1.22243404388428        60.6050211612603   -6.05596364988623E-08            254049.09375           101018.703125        287.876800537109       0.145757496356964       -0.25553472631031                       0 
      -0.14013013013013                   0.025        1.22243404388428        60.6050205823413   -5.80471502439579E-08            254049.09375           101018.703125        287.876800537109       0.145757496356964      -0.255534473241955                       0 
      -0.13978978978979                   0.025        1.22243404388428        60.6050200040948   -6.76939188272957E-08            254049.09375           101018.703125        287.876800537109       0.145757496356964      -0.255534220312553                       0 
     -0.139449449449449                   0.025        1.22243404388428          60.60501942757   -1.08464008873608E-07            254049.09375           101018.703125        287.876800537109       0.145757496356964       -0.25553396773882                       0 
     -0.139109109109109                   0.025        1.22243404388428        60.6050188510451   -1.49234098919921E-07            254049.09375           101018.703125        287.876800537109       0.145757496356964      -0.255533715165088                       0 
     -0.138768768768769                   0.025        1.22243404388428        60.6050186157227   -1.62545633256889E-07            254049.09375           101018.703125        287.876800537109       0.145757496356964      -0.255533462471693                       0 
     -0.138428428428428                   0.025        1.22243404388428        60.6050186157227   -1.56919387833062E-07            254049.09375           101018.703125        287.876800537109       0.145757496356964      -0.255533209695768                       0 
     -0.138088088088088                   0.025        1.22243404388428        60.6050186157227   -1.51293142409235E-07            254049.09375           101018.703125        287.876800537109       0.145757496356964      -0.255532956919843                       0 
     -0.137747747747748                   0.025        1.22243404388428        60.6050186157227   -1.45666896985408E-07            254049.09375           101018.703125        287.876800537109       0.145757496356964      -0.255532704143919                       0 
     -0.137407407407407                   0.025        1.22243404388428        60.6050186157227    -1.4004065156158E-07            254049.09375           101018.703125        287.876800537109       0.145757496356964      -0.255532451367994                       0 
     -0.137067067067067                   0.025        1.22243404388428        60.6050186157227   -1.34414406137753E-07            254049.09375           101018.703125        287.876800537109       0.145757496356964       -0.25553219859207                       0 
     -0.136726726726727                   0.025        1.22243404388428        60.6050186157227   -1.28788160713926E-07            254049.09375           101018.703125        287.876800537109       0.145757496356964      -0.255531945816145                       0 
     -0.136386386386386                   0.025        1.22243404388428        60.6050186157227   -1.21683596955967E-07            254049.09375           101018.703125        287.876800537109       0.145757496356964      -0.255531697657824                       0 
     -0.136046046046046                   0.025        1.22243404388428        60.6050186157227   -1.12116878770557E-07            254049.09375           101018.703125        287.876800537109       0.145757496356964      -0.255531457190171                       0 
     -0.135705705705706                   0.025        1.22243404388428        60.6050186157227   -1.02550160585148E-07            254049.09375           101018.703125        287.876800537109       0.145757496356964      -0.255531216722518                       0 
     -0.135365365365365                   0.025        1.22243404388428        60.6050186157227   -9.29834423997391E-08            254049.09375           101018.703125        287.876800537109       0.145757496356964      -0.255530976254865                       0 
     -0.135025025025025                   0.025        1.22243404388428        60.6050186157227     -8.341672421433E-08            254049.09375           101018.703125        287.876800537109       0.145757496356964      -0.255530735787211                       0 
     -0.134684684684685                   0.025        1.22243404388428        60.6050186157227   -7.38500060289202E-08            254049.09375           101018.703125        287.876800537109       0.145757496356964      -0.255530495319558                       0 
     -0.134344344344344                   0.025        1.22243404388428        60.6050186157227   -6.42832878435111E-08            254049.09375           101018.703125        287.876800537109       0.145757496356964      -0.255530254851905                       0 
     -0.134004004004004                   0.025        1.22243404388428        60.6050186157227   -5.06671080089071E-08            254049.09375           101018.703125        287.876800537109       0.145757496356964      -0.255530014371251                       0 
     -0.133663663663664                   0.025        1.22243404388428        60.6050186157227   -3.64797829088549E-09            254049.09375           101018.703125        287.876800537109       0.145757496356964      -0.255529773783356                       0 
     -0.133323323323323                   0.025        1.22243404388428        60.6050186157227      4.337115142714E-08            254049.09375           101018.703125        287.876800537109       0.145757496356964      -0.255529533195462                       0 
     -0.132982982982983                   0.025        1.22243404388428         60.605018260627    4.96082107486478E-08            254049.09375           101018.703125        287.876800537109       0.145757496356964      -0.255529296880416                       0 
     -0.132642642642643                   0.025        1.22243404388428        60.6050174915191    8.29672599601431E-09            254049.09375           101018.703125        287.876800537109       0.145757496356964       -0.25552906554716                       0 
     -0.132302302302302                   0.025        1.22243404388428        60.6050167224111   -3.30147587566191E-08            254049.09375           101018.703125        287.876800537109       0.145757496356964      -0.255528834213905                       0 
     -0.131961961961962                   0.025        1.22243404388428        60.6050159549109   -3.01880864582479E-08            254049.09375           101018.703125        287.876800537109       0.145757496356964      -0.255528603364226                       0 
     -0.131621621621622                   0.025        1.22243404388428        60.6050151877185   -1.89092962739843E-08            254049.09375           101018.703125        287.876800537109       0.145757496356964      -0.255528372607148                       0 
     -0.131281281281281                   0.025        1.22243404388428        60.6050144205261   -7.63050608972157E-09            254049.09375           101018.703125        287.876800537109       0.145757496356964      -0.255528141850071                       0 
     -0.130940940940941                   0.025        1.22243404388428        60.6050136533338    3.64828409454114E-09            254049.09375           101018.703125        287.876800537109       0.145757496356964      -0.255527911092993                       0 
     -0.130600600600601                   0.025        1.22243404388428        60.6050128861414    1.49270742788038E-08            254049.09375           101018.703125        287.876800537109       0.145757496356964      -0.255527680335915                       0 
      -0.13026026026026                   0.025        1.22243404388428         60.605012118949    2.62058644630674E-08            254049.09375           101018.703125        287.876800537109       0.145757496356964      -0.255527449578837                       0 
      -0.12991991991992                   0.025        1.22243404388428        60.6050113517567    3.74846546473301E-08            254049.09375           101018.703125        287.876800537109       0.145757496356964      -0.255527218821759                       0 
      -0.12957957957958                   0.025        1.22243404388428        60.6050109863281    5.21246768514728E-08            254049.09375           101018.703125        287.876800537109       0.145757496356964      -0.255526988186052                       0 
     -0.129239239239239                   0.025        1.22243404388428        60.6050109863281    6.98219436050134E-08            254049.09375           101018.703125        287.876800537109       0.145757496356964      -0.255526757660738                       0 
     -0.128898898898899                   0.025        1.22243404388428        60.6050109863281    8.75192103585553E-08            254049.09375           101018.703125        287.876800537109       0.145757496356964      -0.255526527135424                       0 
     -0.128558558558559                   0.025        1.22243404388428        60.6050109863281    1.05216477112096E-07            254049.09375           101018.703125        287.876800537109       0.145757496356964       -0.25552629661011                       0 
     -0.128218218218218                   0.025        1.22243404388428        60.6050109863281    1.22913743865636E-07            254049.09375           101018.703125        287.876800537109       0.145757496356964      -0.255526066084795                       0 
     -0.127877877877878                   0.025        1.22243404388428        60.6050109863281    1.40611010619177E-07            254049.09375           101018.703125        287.876800537109       0.145757496356964      -0.255525835559481                       0 
     -0.127537537537538                   0.025        1.22243404388428        60.6050109863281    1.58308277372717E-07            254049.09375           101018.703125        287.876800537109       0.145757496356964      -0.255525605034167                       0 
     -0.127197197197197                   0.025        1.22243404388428        60.6050110433488    1.91796197551549E-07            254049.09375           101018.703125        287.876800537109       0.145757496356964      -0.255525374500006                       0 
     -0.126856856856857                   0.025        1.22243404388428        60.6050114245387    3.15055903157999E-07            254049.09375           101018.703125        287.876800537109       0.145757496356964      -0.255525143915548                       0 
     -0.126516516516517                   0.025        1.22243404388428        60.6050118057286    4.38315608764449E-07            254049.09375           101018.703125        287.876800537109       0.145757496356964       -0.25552491333109                       0 
     -0.126176176176176                   0.025        1.22243404388428        60.6050117510599     4.8366396575365E-07            254049.09375           101018.703125        287.876800537109       0.145757496356964      -0.255524693003739                       0 
     -0.125835835835836                   0.025        1.22243404388428        60.6050113672894    4.70184142540776E-07            254049.09375           101018.703125        287.876800537109       0.145757496356964      -0.255524480421175                       0 
     -0.125495495495495                   0.025        1.22243404388428        60.6050109863281    4.56990180855017E-07            254049.09375           101018.703125        287.876800537109       0.145757496356964       -0.25552426780239                       0 
     -0.125155155155155                   0.025        1.22243404388428        60.6050109863281    4.82560216227052E-07            254049.09375           101018.703125        287.876800537109       0.145757496356964      -0.255524050271699                       0 
     -0.124814814814815                   0.025        1.22243404388428        60.6050109863281    5.08130251599087E-07            254049.09375           101018.703125        287.876800537109       0.145757496356964      -0.255523832741007                       0 
     -0.124474474474474                   0.025        1.22243404388428        60.6050109863281    5.33700286971121E-07            254049.09375           101018.703125        287.876800537109       0.145757496356964      -0.255523615210316                       0 
     -0.124134134134134                   0.025        1.22243404388428        60.6050109863281    5.59270322343157E-07            254049.09375           101018.703125        287.876800537109       0.145757496356964      -0.255523397679625                       0 
     -0.123793793793794                   0.025        1.22243404388428        60.6050109863281    5.84840357715191E-07            254049.09375           101018.703125        287.876800537109       0.145757496356964      -0.255523180148933                       0 
     -0.123453453453453                   0.025        1.22243404388428        60.6050109863281    6.10410393087226E-07            254049.09375           101018.703125        287.876800537109       0.145757496356964      -0.255522962618242                       0 
     -0.123113113113113                   0.025        1.22243404388428        60.6050109863281    6.35980428459261E-07            254049.09375           101018.703125        287.876800537109       0.145757496356964      -0.255522745087551                       0 
     -0.122772772772773                   0.025        1.22243404388428        60.6050102591083    6.75015990807062E-07            254049.09375           101018.703125        287.876800537109       0.145757496356964      -0.255522535045707                       0 
     -0.122432432432432                   0.025        1.22243404388428        60.6050091063602    7.21930823855708E-07            254049.09375           101018.703125        287.876800537109       0.145757496356964      -0.255522329385916                       0 
     -0.122092092092092                   0.025        1.22243404388428         60.605007953612    7.68845656904354E-07            254049.09375           101018.703125        287.876800537109       0.145757496356964      -0.255522123726124                       0 
     -0.121751751751752                   0.025        1.22243404388428        60.6050068008639    8.15760489953003E-07            254049.09375           101018.703125        287.876800537109       0.145757496356964      -0.255521918066334                       0 
     -0.121411411411411                   0.025        1.22243404388428        60.6050056481158    8.62675323001651E-07            254049.09375           101018.703125        287.876800537109       0.145757496356964      -0.255521712406542                       0 
     -0.121071071071071                   0.025        1.22243404388428        60.6050044953677    9.09590156050297E-07            254049.09375           101018.703125        287.876800537109       0.145757496356964      -0.255521506746751                       0 
     -0.120730730730731                   0.025        1.22243404388428        60.6050033426196    9.56504989098943E-07            254049.09375           101018.703125        287.876800537109       0.145757496356964       -0.25552130108696                       0 
      -0.12039039039039                   0.025        1.22243404388428        60.6050024570606     1.0403671118667E-06            254049.09375           101018.703125        287.876800537109       0.145757496356964      -0.255521094641675                       0 
      -0.12005005005005                   0.025        1.22243404388428        60.6050028300861    1.29826803119938E-06            254049.09375           101018.703125        287.876800537109       0.145757496356964      -0.255520884496348                       0 
      -0.11970970970971                   0.025        1.22243404388428        60.6050032031115    1.55616895053205E-06            254049.09375           101018.703125        287.876800537109       0.145757496356964      -0.255520674351021                       0 
     -0.119369369369369                   0.025        1.22243404388428        60.6050030390065    1.71116222456856E-06            254049.09375           101018.703125        287.876800537109       0.145757496356964      -0.255520476769103                       0 
     -0.119029029029029                   0.025        1.22243404388428        60.6050026483058     1.8227425331818E-06            254049.09375           101018.703125        287.876800537109       0.145757496356964      -0.255520284487228                       0 
     -0.118688688688689                   0.025        1.22243404388428        60.6050026607969    1.91836882043742E-06            254049.09375           101018.703125        287.876800537109       0.145757496356964      -0.255520092241317                       0 
     -0.118348348348348                   0.025        1.22243404388428        60.6050038136621    1.96887130332015E-06            254049.09375           101018.703125        287.876800537109       0.145757496356964      -0.255519900097125                       0 
     -0.118008008008008                   0.025        1.22243404388428        60.6050049665272    2.01937378620288E-06            254049.09375           101018.703125        287.876800537109       0.145757496356964      -0.255519707952932                       0 
     -0.117667667667668                   0.025        1.22243404388428        60.6050061193924    2.06987626908562E-06            254049.09375           101018.703125        287.876800537109       0.145757496356964       -0.25551951580874                       0 
     -0.117327327327327                   0.025        1.22243404388428        60.6050072722576    2.12037875196835E-06            254049.09375           101018.703125        287.876800537109       0.145757496356964      -0.255519323664548                       0 
     -0.116986986986987                   0.025        1.22243404388428        60.6050084251227    2.17088123485109E-06            254049.09375           101018.703125        287.876800537109       0.145757496356964      -0.255519131520355                       0 
     -0.116646646646647                   0.025        1.22243404388428        60.6050095779879    2.22138371773382E-06            254049.09375           101018.703125        287.876800537109       0.145757496356964      -0.255518939376163                       0 
     -0.116306306306306                   0.025        1.22243404388428         60.605010730853    2.27188620061655E-06            254049.09375           101018.703125        287.876800537109       0.145757496356964       -0.25551874723197                       0 
     -0.115965965965966                   0.025        1.22243404388428        60.6050100886756    2.35515589431769E-06            254049.09375           101018.703125        287.876800537109       0.145757489344053      -0.255518571407484                       0 
     -0.115625625625626                   0.025        1.22243404388428        60.6050089354732    2.44775398050418E-06            254049.09375           101018.703125        287.876800537109        0.14575748033466      -0.255518400229004                       0 
     -0.115285285285285                   0.025        1.22243404388428        60.6050077822708    2.54035206669068E-06            254049.09375           101018.703125        287.876800537109       0.145757471325266      -0.255518229050523                       0 
     -0.114944944944945                   0.025        1.22243404388428        60.6050066290684    2.63295015287717E-06            254049.09375           101018.703125        287.876800537109       0.145757462315872      -0.255518057872042                       0 
     -0.114604604604605                   0.025        1.22243404388428         60.605005475866    2.72554823906367E-06            254049.09375           101018.703125        287.876800537109       0.145757453306479      -0.255517886693561                       0 
     -0.114264264264264                   0.025        1.22243404388428        60.6050043226636    2.81814632525017E-06            254049.09375           101018.703125        287.876800537109       0.145757444297085       -0.25551771551508                       0 
     -0.113923923923924                   0.025        1.22243404388428        60.6050031694612    2.91074441143666E-06            254049.09375           101018.703125        287.876800537109       0.145757435287691        -0.2555175443366                       0 
     -0.113583583583584                   0.025        1.22243404388428        60.6050024514954    3.05438868055184E-06            254049.09375           101018.703125        287.876800537109       0.145757427204974       -0.25551737190369                       0 
     -0.113243243243243                   0.025        1.22243404388428        60.6050033961632    3.39303285426673E-06            254049.09375           101018.703125        287.876800537109       0.145757422662222      -0.255517194678779                       0 
     -0.112902902902903                   0.025        1.22243404388428        60.6050043408311     3.7316770279816E-06            254049.09375           101018.703125        287.876800537109       0.145757418119471      -0.255517017453868                       0 
     -0.112562562562563                   0.025        1.22243404388428        60.6050036457794     3.9368775018376E-06            254049.09375           101018.703125        287.876800537109       0.145757421299251      -0.255516850611176                       0 
     -0.112222222222222                   0.025        1.22243404388428         60.605002674478    4.11959621417382E-06            254049.09375           101018.703125        287.876800537109       0.145757425780076      -0.255516685517616                       0 