VARIABLES = "x"
 "y"
 "Density"
 "Momentum_x"
 "Momentum_y"
 "Energy"
 "Pressure"
 "Temperature"
 "Mach"
 "C<sub>p</sub>"
 "Roe_Dissipation"
ZONE
DT=(DOUBLE,DOUBLE,DOUBLE,DOUBLE,DOUBLE,DOUBLE,DOUBLE,DOUBLE,DOUBLE,DOUBLE,DOUBLE)
                  -0.15                   0.025         1.2224440574646        60.5812723119817    3.86170461603675E-07            254050.90625          101019.8984375        287.877807617188        0.14569890499115       -0.25453530236771                       0 
      -0.14965965965966                   0.025        1.22244406639411        60.5812682391108   -4.89363037601822E-07            254050.90625          101019.8984375        287.877807617188        0.14569890499115      -0.254532476778528                       0 
     -0.149319319319319                   0.025        1.22244427398314        60.5812665783986   -6.35737860840056E-07            254050.90625          101019.8984375        287.877807617188        0.14569890499115      -0.254530178326301                       0 
     -0.148978978978979                   0.025        1.22244448157217        60.5812649176863   -7.82112684078303E-07            254050.90625          101019.8984375        287.877807617188        0.14569890499115      -0.254527879874074                       0 
     -0.148638638638639                   0.025        1.22244468917096         60.581263256896   -9.29134213340119E-07            254050.90625          101019.8984375        287.877807617188        0.14569890499115      -0.254525583880329                       0 
     -0.148298298298298                   0.025        1.22244489945098        60.5812615746559   -1.25392318358344E-06            254050.90625          101019.8984375        287.877807617188        0.14569890499115      -0.254523963677363                       0 
     -0.147957957957958                   0.025        1.22244501113892        60.5812606811523   -1.50802703004099E-06            254050.90625          101019.8984375        287.877807617188        0.14569890499115      -0.254522335312766                       0 
     -0.147617617617618                   0.025        1.22244501113892        60.5812606811523   -1.68205673526497E-06            254050.90625          101019.8984375        287.877807617188        0.14569890499115       -0.25452069770244                       0 
     -0.147277277277277                   0.025        1.22244501113892        60.5812606811523   -1.85608644048895E-06            254050.90625          101019.8984375        287.877807617188        0.14569890499115      -0.254519060092113                       0 
     -0.146936936936937                   0.025        1.22244501113892        60.5812606811523   -1.86073536919578E-06            254050.90625          101019.8984375        287.877807617188        0.14569890499115      -0.254517344129407                       0 
     -0.146596596596597                   0.025        1.22244501113892        60.5812606811523   -1.57601687964646E-06            254050.90625          101019.8984375        287.877807617188        0.14569890499115      -0.254515494310745                       0 
     -0.146256256256256                   0.025        1.22244501113892        60.5812584831934   -1.63470722144794E-06            254050.90625          101019.8984375        287.877807617188        0.14569888495767      -0.254513622069864                       0 
     -0.145915915915916                   0.025        1.22244501113892        60.5812559214157   -1.75024055204146E-06            254050.90625          101019.8984375        287.877807617188       0.145698861608133       -0.25451174611753                       0 
     -0.145575575575576                   0.025        1.22244501113892         60.581253359638   -1.86577388263499E-06            254050.90625          101019.8984375        287.877807617188       0.145698838258597      -0.254509870165196                       0 
     -0.145235235235235                   0.025        1.22244501113892        60.5812507808555   -1.75949718069621E-06        254050.922993115          101019.8984375        287.877807617188        0.14569881475407      -0.254508038894869                       0 
     -0.144894894894895                   0.025        1.22244501113892        60.5812492370605   -1.68108566987199E-06        254050.943921239          101019.8984375        287.877807617188       0.145698800683022       -0.25450621484137                       0 
     -0.144554554554555                   0.025        1.22244501113892        60.5812492370605   -1.72657362368197E-06        254050.964838307          101019.8984375        287.877807617188       0.145698800683022      -0.254504384888243                       0 
     -0.144214214214214                   0.025        1.22244501113892        60.5812492370605   -1.77206157749194E-06        254050.985755374          101019.8984375        287.877807617188       0.145698800683022      -0.254502554935116                       0 
     -0.143873873873874                   0.025        1.22244501113892        60.5812492370605   -1.77334330767754E-06                  254051          101019.8984375        287.877807617188       0.145698800683022      -0.254500721731828                       0 
     -0.143533533533534                   0.025        1.22244501113892        60.5812491904339   -1.68324443799032E-06                  254051          101019.8984375        287.877807617188       0.145698800683022      -0.254498881631034                       0 
     -0.143193193193193                   0.025        1.22244501113892        60.5812474341678   -1.70288227289771E-06                  254051          101019.8984375        287.877807617188       0.145698800683022       -0.25449704303664                       0 
     -0.142852852852853                   0.025        1.22244501113892        60.5812456779018   -1.72252010780509E-06                  254051          101019.8984375        287.877807617188       0.145698800683022      -0.254495204442246                       0 
     -0.142512512512513                   0.025        1.22244501113892        60.5812439216357   -1.74215794271248E-06                  254051          101019.8984375        287.877807617188       0.145698800683022      -0.254493365847852                       0 
     -0.142172172172172                   0.025        1.22244501113892        60.5812421642215   -1.76524488108315E-06                  254051        101019.918450898        287.877807617188       0.145698800683022      -0.254491519676627                       0 
     -0.141831831831832                   0.025        1.22244501113892         60.581241607666   -1.78781004083808E-06                  254051        101019.941338857        287.877807617188       0.145698800683022      -0.254489672078995                       0 
     -0.141491491491491                   0.025        1.22244501113892         60.581241607666   -1.80990385359869E-06                  254051        101019.964226902        287.877807617188       0.145698800683022      -0.254487824324637                       0 
     -0.141151151151151                   0.025        1.22244501113892         60.581241607666   -1.83199766635929E-06                  254051        101019.987114947        287.877807617188       0.145698800683022       -0.25448597657028                       0 
     -0.140810810810811                   0.025        1.22244501113892         60.581241607666   -1.86776197769852E-06                  254051                  101020        287.877807617188       0.145698800683022      -0.254484140399938                       0 
      -0.14047047047047                   0.025        1.22244501113892         60.581241607666   -1.90820909568125E-06                  254051                  101020        287.877807617188       0.145698800683022      -0.254482316953062                       0 
      -0.14013013013013                   0.025        1.22244501113892         60.581241607666    -1.9241098383433E-06                  254051                  101020        287.877807617188       0.145698800683022      -0.254480489332085                       0 
      -0.13978978978979                   0.025        1.22244501113892         60.581241607666   -1.94001058100534E-06                  254051                  101020        287.877807617188       0.145698800683022      -0.254478661711107                       0 
     -0.139449449449449                   0.025        1.22244501113892         60.581241607666   -1.95594018292285E-06        254051.000016631                  101020        287.877807617188       0.145698800664518      -0.254476834088497                       0 
     -0.139109109109109                   0.025        1.22244501113892        60.5812415926448   -2.00828825358821E-06        254051.021174993                  101020        287.877807617188         0.1456987771233      -0.254475004267802                       0 
     -0.138768768768769                   0.025        1.22244501113892        60.5812389527649   -2.01372430721441E-06         254051.04235393                  101020        287.877807617188        0.14569875355919      -0.254473152965941                       0 
     -0.138428428428428                   0.025        1.22244501113892         60.581236312885    -2.0191603608406E-06        254051.063532867                  101020        287.877807617188       0.145698729995081      -0.254471301664081                       0 
     -0.138088088088088                   0.025        1.22244501113892        60.5812336730051   -2.02459641446679E-06        254051.084711804                  101020        287.877807617188       0.145698706430971       -0.25446945036222                       0 
     -0.137747747747748                   0.025        1.22244501113892        60.5812310301644   -2.04583474130943E-06            254051.09375                  101020        287.877819499168       0.145698696374893      -0.254467600741316                       0 
     -0.137407407407407                   0.025        1.22244501113892        60.5812301635742   -2.05223139377038E-06            254051.09375                  101020        287.877840253839       0.145698696374893      -0.254465764261656                       0 
     -0.137067067067067                   0.025        1.22244501113892        60.5812301635742   -2.04566384540403E-06            254051.09375                  101020        287.877861021729       0.145698696374893      -0.254463933575582                       0 
     -0.136726726726727                   0.025        1.22244501113892        60.5812301635742   -2.03909629703767E-06            254051.09375                  101020        287.877881789619       0.145698696374893      -0.254462102889507                       0 
     -0.136386386386386                   0.025        1.22244501113892        60.5812301635742   -2.03553748750385E-06            254051.09375                  101020        287.877899169922       0.145698696374893      -0.254460274803444                       0 
     -0.136046046046046                   0.025        1.22244501113892        60.5812301635742   -2.03733968312673E-06            254051.09375                  101020        287.877899169922       0.145698696374893      -0.254458458831554                       0 
     -0.135705705705706                   0.025        1.22244501113892        60.5812301635742   -2.02070800731497E-06            254051.09375                  101020        287.877899169922       0.145698696374893      -0.254456640617714                       0 
     -0.135365365365365                   0.025        1.22244501113892        60.5812301635742   -2.00407633150321E-06            254051.09375                  101020        287.877899169922       0.145698696374893      -0.254454822403875                       0 
     -0.135025025025025                   0.025        1.22244501113892        60.5812301635742   -1.98744465569145E-06            254051.09375                  101020        287.877899169922       0.145698696374893      -0.254453004190035                       0 
     -0.134684684684685                   0.025        1.22244501113892        60.5812281426005   -1.97653973935387E-06            254051.09375                  101020        287.877899169922       0.145698696374893      -0.254451162276496                       0 
     -0.134344344344344                   0.025        1.22244501113892        60.5812255243351    -1.9510425169931E-06            254051.09375                  101020        287.877899169922       0.145698696374893      -0.254449316815399                       0 
     -0.134004004004004                   0.025        1.22244501113892        60.5812229060697   -1.92554529463233E-06            254051.09375                  101020        287.877899169922       0.145698696374893      -0.254447471354303                       0 
     -0.133663663663664                   0.025        1.22244501113892        60.5812202878043   -1.90004807227155E-06            254051.09375                  101020        287.877899169922       0.145698696374893      -0.254445625893207                       0 
     -0.133323323323323                   0.025        1.22244501113892        60.5812187194824   -1.87417764624492E-06            254051.09375                  101020        287.877899169922       0.145698696374893      -0.254443787599772                       0 
     -0.132982982982983                   0.025        1.22244501113892        60.5812187194824   -1.84193049786847E-06        254051.113308359                  101020        287.877899169922       0.145698696374893      -0.254441952866647                       0 
     -0.132642642642643                   0.025        1.22244501113892        60.5812187194824   -1.80789262122614E-06        254051.138885302                  101020        287.877899169922       0.145698696374893      -0.254440115934469                       0 
     -0.132302302302302                   0.025        1.22244501113892        60.5812187194824   -1.77385474458381E-06        254051.164462246                  101020        287.877899169922       0.145698696374893      -0.254438279002292                       0 
     -0.131961961961962                   0.025        1.22244501113892        60.5812187194824   -1.73941514036993E-06        254051.190040112                  101020        287.877899169922       0.145698695524228      -0.254436442287098                       0 
     -0.131621621621622                   0.025        1.22244501113892        60.5812178459149   -1.69609514000726E-06           254051.203125                  101020        287.877899169922       0.145698674986278      -0.254434609921561                       0 
     -0.131281281281281                   0.025        1.22244501113892        60.5812160589523   -1.65320727721285E-06           254051.203125                  101020        287.877899169922       0.145698654440254      -0.254432776855366                       0 
     -0.130940940940941                   0.025        1.22244501113892        60.5812142719897   -1.61031941441844E-06           254051.203125                  101020        287.877899169922       0.145698633894231       -0.25443094378917                       0 
     -0.130600600600601                   0.025        1.22244501113892        60.5812124850271   -1.56743155162403E-06           254051.203125                  101020        287.877899169922       0.145698613348207      -0.254429110722975                       0 
      -0.13026026026026                   0.025        1.22244516233598        60.5812110900879   -1.51465852777968E-06           254051.203125                  101020        287.877899169922       0.145698606967926      -0.254427282997898                       0 
      -0.12991991991992                   0.025        1.22244538170799        60.5812110900879   -1.46284068297221E-06           254051.203125                  101020        287.877899169922       0.145698606967926      -0.254425476109085                       0 
      -0.12957957957958                   0.025        1.22244560107999        60.5812110900879   -1.41102283816475E-06           254051.203125                  101020        287.877899169922       0.145698606967926      -0.254423669220271                       0 
     -0.129239239239239                   0.025          1.222445820452        60.5812110900879   -1.35920499335728E-06           254051.203125                  101020        287.877899169922       0.145698606967926      -0.254421862331457                       0 
     -0.128898898898899                   0.025        1.22244596481323        60.5812110900879   -1.29989209863399E-06           254051.203125                  101020        287.877899169922       0.145698606967926      -0.254420052929908                       0 
     -0.128558558558559                   0.025        1.22244596481323        60.5812110900879   -1.23908596620864E-06           254051.203125                  101020        287.877899169922       0.145698606967926      -0.254418238461293                       0 
     -0.128218218218218                   0.025        1.22244596481323        60.5812110900879   -1.17889898921317E-06           254051.203125                  101020        287.877899169922       0.145698606967926      -0.254416423981608                       0 
     -0.127877877877878                   0.025        1.22244596481323        60.5812110900879    -1.1187120122177E-06           254051.203125                  101020        287.877899169922       0.145698606967926      -0.254414609501923                       0 
     -0.127537537537538                   0.025        1.22244596481323        60.5812110900879   -1.05852503522223E-06           254051.203125                  101020        287.877899169922       0.145698606967926      -0.254412795022237                       0 
     -0.127197197197197                   0.025        1.22244596481323        60.5812084657214   -9.85934951369687E-07        254051.218315208        101020.016456059        287.877899169922       0.145698606967926      -0.254410980197392                       0 
     -0.126856856856857                   0.025        1.22244596481323        60.5812058316278   -9.18674656011303E-07        254051.240307955        101020.040281534        287.877899169922       0.145698606967926      -0.254409165331213                       0 
     -0.126516516516517                   0.025        1.22244596481323        60.5812031975342    -8.5141436065292E-07        254051.262300701         101020.06410701        287.877899169922       0.145698606967926      -0.254407350465035                       0 
     -0.126176176176176                   0.025        1.22244596481323        60.5812005634407   -7.84154065294531E-07        254051.284293448        101020.087932485        287.877899169922       0.145698606967926      -0.254405535598856                       0 
     -0.125835835835836                   0.025        1.22244596481323        60.5811996459961   -7.09092296362151E-07           254051.296875          101020.1015625        287.877899169922       0.145698596495245      -0.254403722095917                       0 
     -0.125495495495495                   0.025        1.22244596481323        60.5811996459961   -6.36642617927852E-07           254051.296875          101020.1015625        287.877899169922       0.145698572022685      -0.254401906876077                       0 
     -0.125155155155155                   0.025        1.22244596481323        60.5811996459961   -5.64192939493554E-07           254051.296875          101020.1015625        287.877899169922       0.145698547550126      -0.254400091656237                       0 
     -0.124814814814815                   0.025        1.22244596481323        60.5811996459961   -4.91743261059253E-07           254051.296875          101020.1015625        287.877899169922       0.145698523077566      -0.254398276436397                       0 
     -0.124474474474474                   0.025        1.22244596481323        60.5811992011164    -4.1550950160482E-07           254051.296875          101020.1015625        287.877899169922       0.145698502659798      -0.254396468700635                       0 
     -0.124134134134134                   0.025        1.22244596481323        60.5811965161003   -3.40088430613167E-07           254051.296875          101020.1015625        287.877899169922       0.145698502659798      -0.254394681036316                       0 
     -0.123793793793794                   0.025        1.22244596481323        60.5811938310842   -2.64667359621516E-07           254051.296875          101020.1015625        287.877899169922       0.145698502659798      -0.254392893371997                       0 
     -0.123453453453453                   0.025        1.22244596481323        60.5811911460682   -1.89246288629863E-07           254051.296875          101020.1015625        287.877899169922       0.145698502659798      -0.254391105707679                       0 
     -0.123113113113113                   0.025        1.22244596481323        60.5811884610521   -1.13825217638213E-07           254051.296875          101020.1015625        287.877899169922       0.145698502659798       -0.25438931804336                       0 
     -0.122772772772773                   0.025        1.22244596481323        60.5811882019043   -3.65717603856841E-08           254051.296875          101020.1015625        287.877899169922       0.145698502659798       -0.25438753038778                       0 
     -0.122432432432432                   0.025        1.22244596481323        60.5811882019043    3.95653538758053E-08           254051.296875          101020.1015625        287.877899169922       0.145698502659798      -0.254385742732539                       0 
     -0.122092092092092                   0.025        1.22244596481323        60.5811882019043    1.15702468137295E-07           254051.296875          101020.1015625        287.877899169922       0.145698502659798      -0.254383955077298                       0 
     -0.121751751751752                   0.025        1.22244596481323        60.5811882019043    1.92368981459668E-07           254051.296875          101020.1015625        287.877899169922       0.145698502659798       -0.25438216772685                       0 
     -0.121411411411411                   0.025        1.22244596481323        60.5811882019043     2.6804604779514E-07           254051.296875          101020.1015625        287.877899169922       0.145698502659798      -0.254380393142161                       0 
     -0.121071071071071                   0.025        1.22244596481323        60.5811882019043    3.43554597381297E-07           254051.296875          101020.1015625        287.877899169922       0.145698502659798      -0.254378626345465                       0 
     -0.120730730730731                   0.025        1.22244596481323        60.5811882019043    4.19063146967455E-07           254051.296875          101020.1015625        287.877899169922       0.145698502659798      -0.254376859548768                       0 
      -0.12039039039039                   0.025        1.22244596481323        60.5811882019043    4.94571696553615E-07           254051.296875          101020.1015625        287.877899169922       0.145698502659798      -0.254375092752071                       0 
      -0.12005005005005                   0.025        1.22244596481323        60.5811875229582    5.67989286879559E-07        254051.306608371          101020.1015625        287.877899169922       0.145698502659798      -0.254373325997662                       0 
      -0.11970970970971                   0.025        1.22244596481323        60.5811857329546    6.40484677181262E-07        254051.332269863          101020.1015625        287.877899169922       0.145698502659798      -0.254371559310023                       0 
     -0.119369369369369                   0.025        1.22244596481323         60.581183942951    7.12980067482966E-07        254051.357931354          101020.1015625        287.877899169922       0.145698502659798      -0.254369792622384                       0 
     -0.119029029029029                   0.025        1.22244596481323        60.5811821529474    7.85475457784672E-07        254051.383592845          101020.1015625        287.877899169922       0.145698502659798      -0.254368025934745                       0 
     -0.118688688688689                   0.025        1.22244596481323        60.5811805725098    8.57026313964077E-07            254051.40625          101020.1015625        287.877899169922       0.145698502659798      -0.254366259248168                       0 
     -0.118348348348348                   0.025        1.22244596481323        60.5811805725098    9.25023837261722E-07            254051.40625          101020.1015625        287.877918807663       0.145698480286069      -0.254364492569604                       0 
     -0.118008008008008                   0.025        1.22244596481323        60.5811805725098    9.93282726590461E-07            254051.40625          101020.1015625        287.877939883176       0.145698456274255       -0.25436272589104                       0 
     -0.117667667667668                   0.025        1.22244596481323        60.5811805725098     1.0615416159192E-06            254051.40625          101020.1015625        287.877960958689        0.14569843226244      -0.254360959212476                       0 
     -0.117327327327327                   0.025        1.22244596481323        60.5811805725098    1.12980050524794E-06            254051.40625          101020.1015625        287.877982034201       0.145698408250625      -0.254359192533913                       0 
     -0.116986986986987                   0.025        1.22244596481323        60.5811805725098    1.19426766182951E-06            254051.40625          101020.1015625        287.877990722656       0.145698398351669      -0.254357443679386                       0 
     -0.116646646646647                   0.025        1.22244596481323        60.5811805725098    1.25753416800582E-06            254051.40625          101020.1015625        287.877990722656       0.145698398351669      -0.254355697851701                       0 
     -0.116306306306306                   0.025        1.22244596481323        60.5811805725098    1.32080067418213E-06            254051.40625          101020.1015625        287.877990722656       0.145698398351669      -0.254353952024015                       0 
     -0.115965965965966                   0.025        1.22244596481323        60.5811805725098    1.38406718035845E-06            254051.40625          101020.1015625        287.877990722656       0.145698398351669      -0.254352206196329                       0 
     -0.115625625625626                   0.025        1.22244596481323        60.5811789806306    1.44677446758266E-06            254051.40625          101020.1015625        287.877990722656       0.145698398351669      -0.254350462914425                       0 
     -0.115285285285285                   0.025        1.22244596481323        60.5811762956371     1.5046620681152E-06            254051.40625          101020.1015625        287.877990722656       0.145698398351669      -0.254348717344026                       0 
     -0.114944944944945                   0.025        1.22244596481323        60.5811736106436    1.56254966864774E-06            254051.40625          101020.1015625        287.877990722656       0.145698398351669      -0.254346971773627                       0 
     -0.114604604604605                   0.025        1.22244596481323        60.5811709256501    1.62043726918028E-06            254051.40625          101020.1015625        287.877990722656       0.145698398351669      -0.254345226203227                       0 
     -0.114264264264264                   0.025        1.22244596481323         60.581169128418    1.68092057591785E-06            254051.40625          101020.1015625        287.877990722656       0.145698398351669      -0.254343480632775                       0 
     -0.113923923923924                   0.025        1.22244596481323         60.581169128418    1.73465578898989E-06        254051.425673328          101020.1015625        287.877990722656       0.145698398351669      -0.254341759760372                       0 
     -0.113583583583584                   0.025        1.22244596481323         60.581169128418    1.78705742001845E-06        254051.447254669          101020.1015625        287.877990722656       0.145698398351669      -0.254340041632039                       0 
     -0.113243243243243                   0.025        1.22244596481323         60.581169128418    1.83945905104701E-06        254051.468836011          101020.1015625        287.877990722656       0.145698398351669      -0.254338323503705                       0 
     -0.112902902902903                   0.025        1.22244596481323         60.581169128418    1.89279240719836E-06        254051.490417458          101020.1015625        287.877990722656       0.145698398351669      -0.254336605366922                       0 
     -0.112562562562563                   0.025        1.22244610213656         60.581169128418    1.94819122400432E-06                254051.5          101020.1015625        287.877990722656       0.145698398351669      -0.254334887182442                       0 
     -0.112222222222222                   0.025        1.22244634911556         60.581169128418     1.9951047633308E-06                254051.5          101020.1015625        287.877990722656       0.145698398351669      -0.254333169051787                       0 