VARIABLES = "x"
 "y"
 "Density"
 "Momentum_x"
 "Momentum_y"
 "Energy"
 "Pressure"
 "Temperature"
 "Mach"
 "C<sub>p</sub>"
 "Roe_Dissipation"
ZONE
DT=(DOUBLE,DOUBLE,DOUBLE,DOUBLE,DOUBLE,DOUBLE,DOUBLE,DOUBLE,DOUBLE,DOUBLE,DOUBLE)
                  -0.15                   0.025        1.22453498840332        55.5833511352539   -1.24746860890698E-08           254416.203125          101261.8984375        288.074584960938        0.13340499997139     -0.0526601627385913                       0 
      -0.14965965965966                   0.025        1.22453498840332        55.5833511352539   -2.51445410513857E-08           254416.203125          101261.8984375        288.074584960938        0.13340499997139     -0.0526592295659018                       0 
     -0.149319319319319                   0.025        1.22453498840332        55.5833511352539   -3.78143960137017E-08           254416.203125          101261.8984375        288.074584960938        0.13340499997139     -0.0526582963932124                       0 
     -0.148978978978979                   0.025        1.22453498840332        55.5833511352539   -5.10385654885338E-08           254416.203125          101261.8984375        288.074584960938        0.13340499997139     -0.0526573638747199                       0 
     -0.148638638638639                   0.025        1.22453498840332        55.5833511352539   -6.46354154075869E-08           254416.203125          101261.8984375        288.074584960938        0.13340499997139     -0.0526564317960616                       0 
     -0.148298298298298                   0.025        1.22453498840332        55.5833511352539   -6.86948256220528E-08           254416.203125          101261.8984375        288.074584960938        0.13340499997139     -0.0526558392641017                       0 
     -0.147957957957958                   0.025        1.22453498840332        55.5833511352539   -7.04149756996178E-08           254416.203125          101261.8984375        288.074584960938        0.13340499997139     -0.0526553300131984                       0 
     -0.147617617617618                   0.025        1.22453498840332        55.5833511352539   -7.16059033661577E-08           254416.203125          101261.8984375        288.074584960938        0.13340499997139     -0.0526548211250667                       0 
     -0.147277277277277                   0.025        1.22453498840332        55.5833511352539   -7.24060587452926E-08           254416.203125          101261.8984375        288.074584960938        0.13340499997139     -0.0526543125048018                       0 
     -0.146936936936937                   0.025        1.22453498840332        55.5833511352539   -7.32062141244274E-08           254416.203125          101261.8984375        288.074584960938        0.13340499997139     -0.0526538038845368                       0 
     -0.146596596596597                   0.025        1.22453498840332        55.5833511352539   -7.40063695035622E-08           254416.203125          101261.8984375        288.074584960938        0.13340499997139     -0.0526532952642719                       0 
     -0.146256256256256                   0.025        1.22453498840332        55.5833511352539   -7.18856533004131E-08           254416.203125          101261.8984375        288.074584960938        0.13340499997139     -0.0526527595293867                       0 
     -0.145915915915916                   0.025        1.22453498840332        55.5833511352539   -6.25551721673622E-08           254416.203125          101261.8984375        288.074584960938        0.13340499997139     -0.0526521568658358                       0 
     -0.145575575575576                   0.025        1.22453498840332        55.5833511352539   -5.32246910343113E-08           254416.203125          101261.8984375        288.074584960938        0.13340499997139     -0.0526515542022849                       0 
     -0.145235235235235                   0.025        1.22453498840332        55.5833511352539   -4.38942099012604E-08           254416.203125          101261.8984375        288.074584960938        0.13340499997139     -0.0526509515387339                       0 
     -0.144894894894895                   0.025        1.22453498840332        55.5833511352539   -3.45637287682087E-08           254416.203125          101261.8984375        288.074584960938        0.13340499997139      -0.052650348875183                       0 
     -0.144554554554555                   0.025        1.22453498840332        55.5833511352539   -2.52332476351578E-08           254416.203125          101261.8984375        288.074584960938        0.13340499997139      -0.052649746211632                       0 
     -0.144214214214214                   0.025        1.22453498840332        55.5833508905632   -1.57250279235276E-08           254416.203125          101261.8984375        288.074584960938        0.13340499997139     -0.0526491467083991                       0 
     -0.143873873873874                   0.025        1.22453498840332        55.5833495627284    1.75109578686864E-09           254416.203125          101261.8984375        288.074584960938        0.13340499997139     -0.0526485667564406                       0 
     -0.143533533533534                   0.025        1.22453498840332        55.5833486553482    1.99367116052557E-08           254416.203125          101261.8984375        288.074584960938        0.13340499997139     -0.0526479868480735                       0 
     -0.143193193193193                   0.025        1.22453498840332         55.583347747968    3.81223274236443E-08           254416.203125          101261.8984375        288.074584960938        0.13340499997139     -0.0526474069397064                       0 
     -0.142852852852853                   0.025        1.22453498840332        55.5833468405879    5.63079432420314E-08           254416.203125          101261.8984375        288.074584960938        0.13340499997139     -0.0526468270313393                       0 
     -0.142512512512513                   0.025        1.22453498840332        55.5833459332077    7.44935590604185E-08           254416.203125          101261.8984375        288.074584960938        0.13340499997139     -0.0526462471229722                       0 
     -0.142172172172172                   0.025        1.22453498840332        55.5833449905552    9.50981587795011E-08           254416.203125          101261.8984375        288.074593026455       0.133404993079468     -0.0526456541867839                       0 
     -0.141831831831832                   0.025        1.22453498840332        55.5833439847715    1.20032308488696E-07           254416.203125          101261.8984375        288.074615527811       0.133404973852235     -0.0526450379331179                       0 
     -0.141491491491491                   0.025        1.22453498840332        55.5833429789878    1.44966458197888E-07           254416.203125          101261.8984375        288.074638029167       0.133404954625002     -0.0526444216794519                       0 
     -0.141151151151151                   0.025        1.22453498840332        55.5833419732041    1.69900607907081E-07           254416.203125          101261.8984375        288.074660530523       0.133404935397769      -0.052643805425786                       0 
     -0.140810810810811                   0.025        1.22453498840332        55.5833409674204    1.94834757616274E-07           254416.203125          101261.8984375        288.074683031879       0.133404916170536       -0.05264318917212                       0 
      -0.14047047047047                   0.025        1.22453498840332         55.583339831544    2.19999327178968E-07           254416.203125          101261.8984375        288.074705533843       0.133404896942784     -0.0526425728595266                       0 
      -0.14013013013013                   0.025        1.22453498840332        55.5833396911621    2.48788629795423E-07        254416.219975084          101261.8984375         288.07470703125       0.133404895663261     -0.0526419537446317                       0 
      -0.13978978978979                   0.025        1.22453498840332        55.5833396911621    2.77141771277411E-07        254416.238025736          101261.8984375         288.07470703125       0.133404895663261     -0.0526413344044109                       0 
     -0.139449449449449                   0.025        1.22453498840332        55.5833396911621    3.05494912759399E-07        254416.256076388          101261.8984375         288.07470703125       0.133404895663261       -0.05264071506419                       0 
     -0.139109109109109                   0.025        1.22453498840332        55.5833396911621    3.33848054241388E-07        254416.274127041          101261.8984375         288.07470703125       0.133404895663261     -0.0526400957239691                       0 
     -0.138768768768769                   0.025        1.22453498840332        55.5833396911621    3.62201195723378E-07        254416.292177693          101261.8984375         288.07470703125       0.133404895663261     -0.0526394763837483                       0 
     -0.138428428428428                   0.025        1.22453512771968        55.5833396911621    3.91880500676103E-07           254416.296875          101261.8984375         288.07470703125       0.133404895663261      -0.052638848561648                       0 
     -0.138088088088088                   0.025        1.22453531604336        55.5833396911621    4.22026310276973E-07           254416.296875          101261.8984375         288.07470703125       0.133404895663261     -0.0526382177558762                       0 
     -0.137747747747748                   0.025        1.22453550436705        55.5833396911621    4.52172119877843E-07           254416.296875          101261.8984375         288.07470703125       0.133404895663261     -0.0526375869501044                       0 
     -0.137407407407407                   0.025        1.22453569269073        55.5833396911621    4.82317929478715E-07           254416.296875          101261.8984375         288.07470703125       0.133404895663261     -0.0526369561443326                       0 
     -0.137067067067067                   0.025        1.22453588101441        55.5833396911621    5.12463739079585E-07           254416.296875          101261.8984375         288.07470703125       0.133404895663261     -0.0526363253385608                       0 
     -0.136726726726727                   0.025        1.22453594207764        55.5833396911621    5.44005200893874E-07           254416.296875          101261.8984375         288.07470703125       0.133404895663261     -0.0526356933462698                       0 
     -0.136386386386386                   0.025        1.22453594207764        55.5833396911621    5.73457861456033E-07           254416.296875          101261.8984375         288.07470703125       0.133404895663261     -0.0526350608091574                       0 
     -0.136046046046046                   0.025        1.22453594207764        55.5833396911621    6.02910522018195E-07           254416.296875          101261.8984375         288.07470703125       0.133404895663261     -0.0526344282720451                       0 
     -0.135705705705706                   0.025        1.22453594207764        55.5833396911621    6.32363182580355E-07           254416.296875          101261.8984375         288.07470703125       0.133404895663261     -0.0526337957349327                       0 
     -0.135365365365365                   0.025        1.22453594207764        55.5833396911621    6.61815843142514E-07           254416.296875          101261.8984375         288.07470703125       0.133404895663261     -0.0526331631978204                       0 
     -0.135025025025025                   0.025        1.22453594207764        55.5833396911621     6.9091685745249E-07           254416.296875          101261.8984375         288.07470703125       0.133404895663261     -0.0526325295837019                       0 
     -0.134684684684685                   0.025        1.22453594207764        55.5833396911621    7.19846761616546E-07           254416.296875          101261.8984375         288.07470703125       0.133404895663261     -0.0526318954455151                       0 
     -0.134344344344344                   0.025        1.22453594207764        55.5833396911621      7.487766657806E-07           254416.296875          101261.8984375         288.07470703125       0.133404895663261     -0.0526312613073283                       0 
     -0.134004004004004                   0.025        1.22453594207764        55.5833396911621    7.77706569944654E-07           254416.296875          101261.8984375         288.07470703125       0.133404895663261     -0.0526306271691414                       0 
     -0.133663663663664                   0.025        1.22453594207764        55.5833396911621    8.06636474108708E-07           254416.296875          101261.8984375         288.07470703125       0.133404895663261     -0.0526299930309546                       0 
     -0.133323323323323                   0.025        1.22453594207764        55.5833396911621    8.35610008927498E-07           254416.296875          101261.8984375         288.07470703125       0.133404895663261     -0.0526293599166743                       0 
     -0.132982982982983                   0.025        1.22453594207764        55.5833396911621    8.62173952369657E-07           254416.296875          101261.8984375         288.07470703125       0.133404895663261     -0.0526287273931499                       0 
     -0.132642642642643                   0.025        1.22453594207764        55.5833396911621    8.88737895811816E-07           254416.296875          101261.8984375         288.07470703125       0.133404895663261     -0.0526280948696254                       0 
     -0.132302302302302                   0.025        1.22453594207764        55.5833396911621    9.15301839253975E-07           254416.296875          101261.8984375         288.07470703125       0.133404895663261      -0.052627462346101                       0 
     -0.131961961961962                   0.025        1.22453594207764        55.5833396911621    9.41865782696134E-07           254416.296875          101261.8984375         288.07470703125       0.133404895663261     -0.0526268298225766                       0 
     -0.131621621621622                   0.025        1.22453594207764        55.5833380255324    9.67505486540993E-07           254416.296875          101261.8984375         288.07470703125       0.133404895663261     -0.0526261970573362                       0 
     -0.131281281281281                   0.025        1.22453594207764         55.583335722068    9.92791262889045E-07           254416.296875          101261.8984375         288.07470703125       0.133404895663261     -0.0526255641995332                       0 
     -0.130940940940941                   0.025        1.22453594207764        55.5833334186035     1.0180770392371E-06           254416.296875          101261.8984375         288.07470703125       0.133404895663261     -0.0526249313417302                       0 
     -0.130600600600601                   0.025        1.22453594207764         55.583331115139    1.04336281558515E-06           254416.296875          101261.8984375         288.07470703125       0.133404895663261     -0.0526242984839272                       0 
      -0.13026026026026                   0.025        1.22453594207764        55.5833288116746    1.06864859193321E-06           254416.296875          101261.8984375         288.07470703125       0.133404895663261     -0.0526236656261243                       0 
      -0.12991991991992                   0.025        1.22453594207764        55.5833282470703    1.09250379644629E-06           254416.296875          101261.8984375         288.07470703125       0.133404895663261     -0.0526230355666184                       0 
      -0.12957957957958                   0.025        1.22453594207764        55.5833282470703     1.1145193542127E-06           254416.296875          101261.8984375         288.07470703125       0.133404895663261     -0.0526224064164241                       0 
     -0.129239239239239                   0.025        1.22453594207764        55.5833282470703     1.1365349119791E-06           254416.296875          101261.8984375         288.07470703125       0.133404895663261     -0.0526217772662298                       0 
     -0.128898898898899                   0.025        1.22453594207764        55.5833282470703     1.1585504697455E-06           254416.296875          101261.8984375         288.07470703125       0.133404895663261     -0.0526211481160355                       0 
     -0.128558558558559                   0.025        1.22453594207764        55.5833282470703    1.18056602751191E-06           254416.296875          101261.8984375         288.07470703125       0.133404895663261     -0.0526205189658412                       0 
     -0.128218218218218                   0.025        1.22453594207764        55.5833282470703    1.20109578369962E-06           254416.296875          101261.8984375         288.07470703125       0.133404895663261      -0.052619891555693                       0 
     -0.127877877877878                   0.025        1.22453594207764        55.5833282470703    1.22122343191354E-06           254416.296875          101261.8984375         288.07470703125       0.133404895663261     -0.0526192646164599                       0 
     -0.127537537537538                   0.025        1.22453594207764        55.5833282470703    1.24135108012745E-06           254416.296875          101261.8984375         288.07470703125       0.133404895663261     -0.0526186376772268                       0 
     -0.127197197197197                   0.025        1.22453594207764        55.5833282470703    1.26147872834137E-06           254416.296875          101261.8984375         288.07470703125       0.133404895663261     -0.0526180107379938                       0 
     -0.126856856856857                   0.025        1.22453594207764        55.5833282470703    1.28160637655528E-06           254416.296875          101261.8984375         288.07470703125       0.133404895663261     -0.0526173837987607                       0 
     -0.126516516516517                   0.025        1.22453594207764        55.5833282470703    1.29841566319777E-06           254416.296875          101261.8984375         288.07470703125       0.133404895663261     -0.0526167566024575                       0 
     -0.126176176176176                   0.025        1.22453594207764        55.5833282470703      1.314069989167E-06           254416.296875          101261.8984375         288.07470703125       0.133404895663261     -0.0526161292912877                       0 
     -0.125835835835836                   0.025        1.22453594207764        55.5833282470703    1.32972431513622E-06           254416.296875          101261.8984375         288.07470703125       0.133404895663261     -0.0526155019801179                       0 
     -0.125495495495495                   0.025        1.22453594207764        55.5833282470703    1.34537864110545E-06           254416.296875          101261.8984375         288.07470703125       0.133404895663261      -0.052614874668948                       0 
     -0.125155155155155                   0.025        1.22453594207764        55.5833282470703    1.36103296707467E-06           254416.296875          101261.8984375         288.07470703125       0.133404895663261     -0.0526142473577782                       0 
     -0.124814814814815                   0.025        1.22453594207764        55.5833282470703    1.37462991569344E-06           254416.296875          101261.8984375         288.07470703125       0.133404895663261     -0.0526136238770067                       0 
     -0.124474474474474                   0.025        1.22453594207764        55.5833282470703    1.38786895661582E-06           254416.296875          101261.8984375         288.07470703125       0.133404895663261     -0.0526130010625831                       0 
     -0.124134134134134                   0.025        1.22453594207764        55.5833282470703     1.4011079975382E-06           254416.296875          101261.8984375         288.07470703125       0.133404895663261     -0.0526123782481595                       0 
     -0.123793793793794                   0.025        1.22453594207764        55.5833282470703    1.41434703846059E-06           254416.296875          101261.8984375         288.07470703125       0.133404895663261     -0.0526117554337358                       0 
     -0.123453453453453                   0.025        1.22453594207764        55.5833282470703    1.42758607938297E-06           254416.296875          101261.8984375         288.07470703125       0.133404895663261     -0.0526111326193122                       0 
     -0.123113113113113                   0.025        1.22453594207764        55.5833282470703    1.43568335400884E-06        254416.316342887          101261.8984375         288.07470703125       0.133404895663261     -0.0526105105253452                       0 
     -0.122772772772773                   0.025        1.22453594207764        55.5833282470703    1.44314169903126E-06        254416.338359894          101261.8984375         288.07470703125       0.133404895663261      -0.052609888475138                       0 
     -0.122432432432432                   0.025        1.22453594207764        55.5833282470703    1.45060004405369E-06          254416.3603769          101261.8984375         288.07470703125       0.133404895663261     -0.0526092664249307                       0 
     -0.122092092092092                   0.025        1.22453594207764        55.5833282470703    1.45805838907611E-06        254416.382393907          101261.8984375         288.07470703125       0.133404895663261     -0.0526086443747235                       0 
     -0.121751751751752                   0.025        1.22453594207764        55.5833282470703    1.46551673409854E-06        254416.404410913          101261.8984375         288.07470703125       0.133404895663261     -0.0526080223245163                       0 
     -0.121411411411411                   0.025        1.22453594207764        55.5833282470703    1.47018387208038E-06            254416.40625          101261.8984375         288.07470703125       0.133404895663261     -0.0526074023360715                       0 
     -0.121071071071071                   0.025        1.22453594207764        55.5833282470703    1.47459660958126E-06            254416.40625          101261.8984375         288.07470703125       0.133404895663261     -0.0526067825355431                       0 
     -0.120730730730731                   0.025        1.22453594207764        55.5833282470703    1.47900934708213E-06            254416.40625          101261.8984375         288.07470703125       0.133404895663261     -0.0526061627350147                       0 
      -0.12039039039039                   0.025        1.22453594207764        55.5833282470703    1.48342208458301E-06            254416.40625          101261.8984375         288.07470703125       0.133404895663261     -0.0526055429344862                       0 
      -0.12005005005005                   0.025        1.22453594207764        55.5833282470703    1.48783482208388E-06            254416.40625          101261.8984375         288.07470703125       0.133404895663261     -0.0526049231339578                       0 
      -0.11970970970971                   0.025        1.22453594207764        55.5833267900004    1.48578188796106E-06            254416.40625          101261.8984375         288.07470703125       0.133404878588223     -0.0526043075938592                       0 
     -0.119369369369369                   0.025        1.22453594207764        55.5833252541716     1.4833614256657E-06            254416.40625          101261.8984375         288.07470703125        0.13340486059023     -0.0526036922799612                       0 
     -0.119029029029029                   0.025        1.22453594207764        55.5833237183428    1.48094096337033E-06            254416.40625          101261.8984375         288.07470703125       0.133404842592236     -0.0526030769660632                       0 
     -0.118688688688689                   0.025        1.22453594207764        55.5833221825141    1.47852050107496E-06            254416.40625          101261.8984375         288.07470703125       0.133404824594243     -0.0526024616521651                       0 
     -0.118348348348348                   0.025        1.22453594207764        55.5833206466853    1.47610003877959E-06            254416.40625          101261.8984375         288.07470703125        0.13340480659625     -0.0526018463382671                       0 
     -0.118008008008008                   0.025        1.22453594207764        55.5833206176758     1.4697342236789E-06            254416.40625        101261.918496277         288.07470703125       0.133404806256294     -0.0526012310243695                       0 
     -0.117667667667668                   0.025        1.22453594207764        55.5833206176758    1.46329245197415E-06            254416.40625         101261.93894123         288.07470703125       0.133404806256294     -0.0526006157104719                       0 
     -0.117327327327327                   0.025        1.22453594207764        55.5833206176758    1.45685068026939E-06            254416.40625        101261.959386182         288.07470703125       0.133404806256294     -0.0526000003965744                       0 
     -0.116986986986987                   0.025        1.22453594207764        55.5833206176758    1.45040890856463E-06            254416.40625        101261.979831135         288.07470703125       0.133404806256294     -0.0525993850826768                       0 
     -0.116646646646647                   0.025        1.22453594207764        55.5833206176758    1.44407374420854E-06            254416.40625                  101262         288.07470703125       0.133404806256294     -0.0525987698512271                       0 
     -0.116306306306306                   0.025        1.22453594207764        55.5833206176758    1.43048462271821E-06            254416.40625                  101262         288.07470703125       0.133404806256294     -0.0525981600643854                       0 
     -0.115965965965966                   0.025        1.22453594207764        55.5833206176758    1.41674970203704E-06            254416.40625                  101262         288.07470703125       0.133404806256294     -0.0525975503646723                       0 
     -0.115625625625626                   0.025        1.22453594207764        55.5833206176758    1.40301478135587E-06            254416.40625                  101262         288.07470703125       0.133404806256294     -0.0525969406649592                       0 
     -0.115285285285285                   0.025        1.22453594207764        55.5833206176758    1.38927986067471E-06            254416.40625                  101262         288.07470703125       0.133404806256294     -0.0525963309652461                       0 
     -0.114944944944945                   0.025        1.22453594207764        55.5833206176758    1.37531257580287E-06            254416.40625                  101262         288.07470703125       0.133404806256294     -0.0525957213345261                       0 
     -0.114604604604605                   0.025        1.22453594207764        55.5833206176758    1.35651727064413E-06            254416.40625                  101262         288.07470703125       0.133404806256294     -0.0525951131373309                       0 
     -0.114264264264264                   0.025        1.22453594207764        55.5833206176758    1.33772196548539E-06            254416.40625                  101262         288.07470703125       0.133404806256294     -0.0525945049401358                       0 
     -0.113923923923924                   0.025        1.22453594207764        55.5833206176758    1.31892666032665E-06            254416.40625                  101262         288.07470703125       0.133404806256294     -0.0525938967429406                       0 
     -0.113583583583584                   0.025        1.22453594207764        55.5833206176758    1.30013135516792E-06            254416.40625                  101262         288.07470703125       0.133404806256294     -0.0525932885457454                       0 
     -0.113243243243243                   0.025        1.22453594207764        55.5833206176758    1.28142152052887E-06            254416.40625                  101262         288.07470703125       0.133404806256294     -0.0525926809669177                       0 
     -0.112902902902903                   0.025        1.22453594207764        55.5833206176758    1.25579915314002E-06            254416.40625                  101262         288.07470703125       0.133404806256294     -0.0525920783776742                       0 
     -0.112562562562563                   0.025        1.22453594207764        55.5833206176758    1.23007801079854E-06            254416.40625                  101262         288.07470703125       0.133404806256294     -0.0525914758110194                       0 
     -0.112222222222222                   0.025        1.22453594207764        55.5833206176758    1.20435686845705E-06            254416.40625                  101262         288.07470703125       0.133404806256294     -0.0525908732443646                       0 