VARIABLES = "x"
 "y"
 "Density"
 "Momentum_x"
 "Momentum_y"
 "Energy"
 "Pressure"
 "Temperature"
 "Mach"
 "C<sub>p</sub>"
 "Roe_Dissipation"
ZONE
DT=(DOUBLE,DOUBLE,DOUBLE,DOUBLE,DOUBLE,DOUBLE,DOUBLE,DOUBLE,DOUBLE,DOUBLE,DOUBLE)
                  -0.15                   0.025        1.22835397720337         44.946720123291     -2.045917574649E-08            255083.09375           101704.296875        288.433685302734        0.10747379809618       0.316432675698426                       0 
      -0.14965965965966                   0.025        1.22835397720337         44.946720123291   -1.65713307548898E-08            255083.09375           101704.296875        288.433685302734        0.10747379809618       0.316432652989979                       0 
     -0.149319319319319                   0.025        1.22835397720337         44.946720123291   -1.26834857632896E-08            255083.09375           101704.296875        288.433685302734        0.10747379809618       0.316432630281532                       0 
     -0.148978978978979                   0.025        1.22835397720337         44.946720123291   -8.79564077168904E-09            255083.09375           101704.296875        288.433685302734        0.10747379809618       0.316432607573085                       0 
     -0.148638638638639                   0.025        1.22835397720337         44.946720123291   -1.03114136054413E-08            255083.09375           101704.296875        288.433685302734        0.10747379809618       0.316432584194944                       0 
     -0.148298298298298                   0.025        1.22835397720337         44.946720123291   -1.63944493412677E-08            255083.09375           101704.296875        288.433685302734        0.10747379809618       0.316432560250763                       0 
     -0.147957957957958                   0.025        1.22835397720337         44.946720123291   -2.24774850770941E-08            255083.09375           101704.296875        288.433685302734        0.10747379809618       0.316432536306581                       0 
     -0.147617617617618                   0.025        1.22835397720337         44.946720123291    -2.8560520812921E-08            255083.09375           101704.296875        288.433685302734        0.10747379809618         0.3164325123624                       0 
     -0.147277277277277                   0.025        1.22835397720337         44.946720123291   -1.88288314598738E-08            255083.09375           101704.296875        288.433685302734        0.10747379809618       0.316432495430147                       0 
     -0.146936936936937                   0.025        1.22835397720337         44.946720123291   -3.18390765836105E-09            255083.09375           101704.296875        288.433685302734        0.10747379809618       0.316432481119703                       0 
     -0.146596596596597                   0.025        1.22835397720337         44.946720123291    1.24610161431517E-08            255083.09375           101704.296875        288.433685302734        0.10747379809618       0.316432466809259                       0 
     -0.146256256256256                   0.025        1.22835397720337         44.946720123291    2.81059399446658E-08            255083.09375           101704.296875        288.433685302734        0.10747379809618       0.316432452498814                       0 
     -0.145915915915916                   0.025        1.22835397720337         44.946720123291    4.37508637461786E-08            255083.09375           101704.296875        288.433685302734        0.10747379809618        0.31643243818837                       0 
     -0.145575575575576                   0.025        1.22835397720337         44.946720123291    5.54758433741725E-08            255083.09375           101704.296875        288.433685302734        0.10747379809618       0.316432420465574                       0 
     -0.145235235235235                   0.025        1.22835397720337         44.946720123291    6.24407542416496E-08            255083.09375           101704.296875        288.433685302734        0.10747379809618       0.316432398599088                       0 
     -0.144894894894895                   0.025        1.22835397720337         44.946720123291    6.94056651091272E-08            255083.09375           101704.296875        288.433685302734        0.10747379809618       0.316432376732602                       0 
     -0.144554554554555                   0.025        1.22835397720337         44.946720123291    7.73109845836128E-08            255083.09375           101704.296875        288.433685302734        0.10747379809618       0.316432355239877                       0 
     -0.144214214214214                   0.025        1.22835397720337         44.946720123291    1.15647374626902E-07            255083.09375           101704.296875        288.433685302734        0.10747379809618       0.316432345841833                       0 
     -0.143873873873874                   0.025        1.22835397720337         44.946720123291    1.53983764670191E-07            255083.09375           101704.296875        288.433685302734        0.10747379809618       0.316432336443789                       0 
     -0.143533533533534                   0.025        1.22835397720337         44.946720123291     1.9232015471348E-07            255083.09375           101704.296875        288.433685302734        0.10747379809618       0.316432327045745                       0 
     -0.143193193193193                   0.025        1.22835397720337         44.946720123291    2.30656544756773E-07            255083.09375           101704.296875        288.433685302734        0.10747379809618       0.316432317647701                       0 
     -0.142852852852853                   0.025        1.22835397720337         44.946720123291    2.68992934800062E-07            255083.09375           101704.296875        288.433685302734        0.10747379809618       0.316432308249657                       0 
     -0.142512512512513                   0.025        1.22835397720337         44.946720123291    3.07329324843351E-07            255083.09375           101704.296875        288.433685302734        0.10747379809618       0.316432298851613                       0 
     -0.142172172172172                   0.025        1.22835397720337         44.946720123291    3.25184913436844E-07            255083.09375           101704.296875        288.433685302734        0.10747379809618       0.316432289340459                       0 
     -0.141831831831832                   0.025        1.22835397720337         44.946720123291     3.3876891413356E-07            255083.09375           101704.296875        288.433685302734        0.10747379809618       0.316432279805713                       0 
     -0.141491491491491                   0.025        1.22835397720337         44.946720123291    3.52352914830274E-07            255083.09375           101704.296875        288.433685302734        0.10747379809618       0.316432270270968                       0 
     -0.141151151151151                   0.025        1.22835397720337         44.946720123291     3.9192016543366E-07            255083.09375           101704.296875        288.433685302734        0.10747379809618       0.316432250324539                       0 
     -0.140810810810811                   0.025        1.22835397720337         44.946720123291    4.38836568117067E-07            255083.09375           101704.296875        288.433685302734        0.10747379809618        0.31643222743325                       0 
      -0.14047047047047                   0.025        1.22835397720337         44.946720123291    4.85752970800479E-07            255083.09375           101704.296875        288.433685302734        0.10747379809618        0.31643220454196                       0 
      -0.14013013013013                   0.025        1.22835397720337         44.946720123291    5.32669373483887E-07            255083.09375           101704.296875        288.433685302734        0.10747379809618       0.316432181650671                       0 
      -0.13978978978979                   0.025        1.22835397720337         44.946720123291    5.79585776167295E-07            255083.09375           101704.296875        288.433685302734        0.10747379809618       0.316432158759381                       0 
     -0.139449449449449                   0.025        1.22835397720337         44.946720123291    6.26502178850703E-07            255083.09375           101704.296875        288.433685302734        0.10747379809618       0.316432135868092                       0 
     -0.139109109109109                   0.025        1.22835397720337         44.946720123291    6.62339381764383E-07            255083.09375           101704.296875        288.433685302734        0.10747379809618       0.316432118113118                       0 
     -0.138768768768769                   0.025        1.22835397720337         44.946720123291     6.8889666842879E-07            255083.09375           101704.296875        288.433685302734        0.10747379809618       0.316432104660312                       0 
     -0.138428428428428                   0.025        1.22835397720337         44.946720123291    7.15453955093194E-07            255083.09375           101704.296875        288.433685302734        0.10747379809618       0.316432091207507                       0 
     -0.138088088088088                   0.025        1.22835397720337         44.946720123291    7.77531066652989E-07            255083.09375           101704.296875        288.433685302734        0.10747379809618       0.316432080429665                       0 
     -0.137747747747748                   0.025        1.22835397720337         44.946720123291    8.48093298499233E-07            255083.09375           101704.296875        288.433685302734        0.10747379809618       0.316432070290829                       0 
     -0.137407407407407                   0.025        1.22835397720337         44.946720123291    9.18655530345482E-07            255083.09375           101704.296875        288.433685302734        0.10747379809618       0.316432060151994                       0 
     -0.137067067067067                   0.025        1.22835397720337         44.946720123291    9.89217762191725E-07            255083.09375           101704.296875        288.433685302734        0.10747379809618       0.316432050013158                       0 
     -0.136726726726727                   0.025        1.22835397720337         44.946720123291    1.05977999403797E-06            255083.09375           101704.296875        288.433685302734        0.10747379809618       0.316432039874322                       0 
     -0.136386386386386                   0.025        1.22835397720337         44.946720123291    1.13034222588421E-06            255083.09375           101704.296875        288.433685302734        0.10747379809618       0.316432029735487                       0 
     -0.136046046046046                   0.025        1.22835397720337         44.946720123291    1.18268080600315E-06            255083.09375           101704.296875        288.433685302734        0.10747379809618        0.31643201956191                       0 
     -0.135705705705706                   0.025        1.22835397720337         44.946720123291    1.21654363475848E-06            255083.09375           101704.296875        288.433685302734        0.10747379809618       0.316432009353112                       0 
     -0.135365365365365                   0.025        1.22835397720337         44.946720123291    1.25069431840383E-06            255083.09375           101704.296875        288.433685302734        0.10747379809618       0.316431999206543                       0 
     -0.135025025025025                   0.025        1.22835397720337         44.946720123291    1.33178049449934E-06            255083.09375           101704.296875        288.433685302734        0.10747379809618       0.316431999206543                       0 
     -0.134684684684685                   0.025        1.22835397720337         44.946720123291    1.41286667059485E-06            255083.09375           101704.296875        288.433685302734        0.10747379809618       0.316431999206543                       0 
     -0.134344344344344                   0.025        1.22835397720337         44.946720123291    1.49395284669036E-06            255083.09375           101704.296875        288.433685302734        0.10747379809618       0.316431999206543                       0 
     -0.134004004004004                   0.025        1.22835397720337         44.946720123291    1.57503902278586E-06            255083.09375           101704.296875        288.433685302734        0.10747379809618       0.316431999206543                       0 
     -0.133663663663664                   0.025        1.22835397720337         44.946720123291    1.65612519888137E-06            255083.09375           101704.296875        288.433685302734        0.10747379809618       0.316431999206543                       0 
     -0.133323323323323                   0.025        1.22835397720337         44.946720123291    1.73721137497688E-06            255083.09375           101704.296875        288.433685302734        0.10747379809618       0.316431999206543                       0 
     -0.132982982982983                   0.025        1.22835397720337         44.946720123291    1.78978875847894E-06            255083.09375           101704.296875        288.433685302734        0.10747379809618       0.316431999206543                       0 
     -0.132642642642643                   0.025        1.22835397720337         44.946720123291    1.81815145210573E-06            255083.09375           101704.296875        288.433685302734        0.10747379809618       0.316431999206543                       0 
     -0.132302302302302                   0.025        1.22835397720337         44.946720123291    1.85905311443136E-06            255083.09375           101704.296875        288.433685302734        0.10747379809618       0.316431999206543                       0 
     -0.131961961961962                   0.025        1.22835397720337         44.946720123291    1.93710941626284E-06            255083.09375           101704.296875        288.433685302734        0.10747379809618       0.316431999206543                       0 
     -0.131621621621622                   0.025        1.22835397720337         44.946720123291    2.01516571809433E-06            255083.09375           101704.296875        288.433685302734        0.10747379809618       0.316431999206543                       0 
     -0.131281281281281                   0.025        1.22835397720337         44.946720123291    2.09322201992581E-06            255083.09375           101704.296875        288.433685302734        0.10747379809618       0.316431999206543                       0 
     -0.130940940940941                   0.025        1.22835397720337         44.946720123291    2.17127832175729E-06            255083.09375           101704.296875        288.433685302734        0.10747379809618       0.316431999206543                       0 
     -0.130600600600601                   0.025        1.22835397720337         44.946720123291    2.24933462358877E-06            255083.09375           101704.296875        288.433685302734        0.10747379809618       0.316431999206543                       0 
      -0.13026026026026                   0.025        1.22835397720337         44.946720123291    2.32739092542026E-06            255083.09375           101704.296875        288.433685302734        0.10747379809618       0.316431999206543                       0 
      -0.12991991991992                   0.025        1.22835397720337         44.946720123291    2.35978353692864E-06            255083.09375           101704.296875        288.433685302734        0.10747379809618       0.316431999206543                       0 
      -0.12957957957958                   0.025        1.22835397720337         44.946720123291    2.36193439295782E-06            255083.09375           101704.296875        288.433685302734        0.10747379809618       0.316431999206543                       0 
     -0.129239239239239                   0.025        1.22835397720337        44.9467194773776    2.39081828119707E-06            255083.09375           101704.296875        288.433685302734        0.10747379809618       0.316431999206543                       0 
     -0.128898898898899                   0.025        1.22835397720337        44.9467181704562    2.44705993469894E-06            255083.09375           101704.296875        288.433685302734        0.10747379809618       0.316431999206543                       0 
     -0.128558558558559                   0.025        1.22835397720337        44.9467168635348    2.50330158820082E-06            255083.09375           101704.296875        288.433685302734        0.10747379809618       0.316431999206543                       0 
     -0.128218218218218                   0.025        1.22835397720337        44.9467155566134    2.55954324170269E-06            255083.09375           101704.296875        288.433685302734        0.10747379809618       0.316431999206543                       0 
     -0.127877877877878                   0.025        1.22835397720337         44.946714249692    2.61578489520456E-06            255083.09375           101704.296875        288.433685302734        0.10747379809618       0.316431999206543                       0 
     -0.127537537537538                   0.025        1.22835397720337        44.9467129427706    2.67202654870644E-06            255083.09375           101704.296875        288.433685302734        0.10747379809618       0.316431999206543                       0 
     -0.127197197197197                   0.025        1.22835397720337        44.9467116358492    2.72826820220831E-06            255083.09375           101704.296875        288.433685302734        0.10747379809618       0.316431999206543                       0 
     -0.126856856856857                   0.025        1.22835397720337        44.9467112010833     2.7166627899285E-06            255083.09375           101704.296875        288.433685302734        0.10747379809618       0.316431999206543                       0 
     -0.126516516516517                   0.025        1.22835397720337        44.9467111778932    2.67303991518534E-06            255083.09375           101704.296875        288.433685302734        0.10747379809618       0.316431999206543                       0 
     -0.126176176176176                   0.025        1.22835397720337        44.9467111556883    2.67406417397933E-06            255083.09375           101704.296875        288.433685302734        0.10747379809618       0.316431999206543                       0 
     -0.125835835835836                   0.025        1.22835397720337        44.9467111338253    2.69057965555982E-06            255083.09375           101704.296875        288.433685302734        0.10747379809618       0.316431999206543                       0 
     -0.125495495495495                   0.025        1.22835397720337        44.9467111119623     2.7070951371403E-06            255083.09375           101704.296875        288.433685302734        0.10747379809618       0.316431999206543                       0 
     -0.125155155155155                   0.025        1.22835397720337        44.9467110900992    2.72361061872079E-06            255083.09375           101704.296875        288.433685302734        0.10747379809618       0.316431999206543                       0 
     -0.124814814814815                   0.025        1.22835397720337        44.9467110682362    2.74012610030128E-06            255083.09375           101704.296875        288.433685302734        0.10747379809618       0.316431999206543                       0 
     -0.124474474474474                   0.025        1.22835397720337        44.9467110463732    2.75664158188177E-06            255083.09375           101704.296875        288.433685302734        0.10747379809618       0.316431999206543                       0 
     -0.124134134134134                   0.025        1.22835397720337        44.9467110245102    2.77315706346226E-06            255083.09375           101704.296875        288.433685302734        0.10747379809618       0.316431999206543                       0 
     -0.123793793793794                   0.025        1.22835397720337        44.9467110036485    2.69124165502869E-06            255083.09375           101704.296875        288.433685302734        0.10747379809618       0.316432007331097                       0 
     -0.123453453453453                   0.025        1.22835397720337        44.9467109830446    2.58671053469289E-06            255083.09375           101704.296875        288.433685302734       0.107473797823212       0.316432017793267                       0 
     -0.123113113113113                   0.025        1.22835397720337        44.9467109628876    2.54713617578459E-06            255083.09375           101704.296875        288.433685302734       0.107473786657623        0.31643204168475                       0 
     -0.122772772772773                   0.025        1.22835397720337        44.9467109427305    2.50756181687628E-06            255083.09375           101704.296875        288.433685302734       0.107473775492034       0.316432065576233                       0 
     -0.122432432432432                   0.025        1.22835397720337        44.9467109225735    2.46798745796798E-06            255083.09375           101704.296875        288.433685302734       0.107473764326446       0.316432089467717                       0 
     -0.122092092092092                   0.025        1.22835397720337        44.9467109024165    2.42841309905968E-06            255083.09375           101704.296875        288.433685302734       0.107473753160857       0.316432113359201                       0 
     -0.121751751751752                   0.025        1.22835397720337        44.9467108822594    2.38883874015137E-06            255083.09375           101704.296875        288.433685302734       0.107473741995268       0.316432137250684                       0 
     -0.121411411411411                   0.025        1.22835397720337        44.9467108621024    2.34926438124307E-06            255083.09375           101704.296875        288.433685302734       0.107473730829679       0.316432161142168                       0 
     -0.121071071071071                   0.025        1.22835397720337        44.9467108419454    2.30969002233476E-06            255083.09375           101704.296875        288.433685302734       0.107473719664091       0.316432185033651                       0 
     -0.120730730730731                   0.025        1.22835397720337         44.946710823353    2.13115995983508E-06            255083.09375           101704.296875        288.433685302734       0.107473719385767       0.316432209036509                       0 
      -0.12039039039039                   0.025        1.22835397720337         44.946710804599    1.97683325570206E-06            255083.09375           101704.296875        288.433685302734       0.107473719227042        0.31643223182131                       0 
      -0.12005005005005                   0.025        1.22835397720337        44.9467107855221    1.86896383833292E-06            255083.09375           101704.296875        288.433685302734       0.107473719065584       0.316432252406225                       0 
      -0.11970970970971                   0.025        1.22835397720337        44.9467107664452    1.76109442096378E-06            255083.09375           101704.296875        288.433685302734       0.107473718904125        0.31643227299114                       0 
     -0.119369369369369                   0.025        1.22835397720337        44.9467107473683    1.65322500359464E-06            255083.09375           101704.296875        288.433685302734       0.107473718742667       0.316432293576054                       0 
     -0.119029029029029                   0.025        1.22835397720337        44.9467107282913     1.5453555862255E-06            255083.09375           101704.296875        288.433685302734       0.107473718581209        0.31643231416097                       0 
     -0.118688688688689                   0.025        1.22835397720337        44.9467107092144    1.43748616885636E-06            255083.09375           101704.296875        288.433685302734        0.10747371841975       0.316432334745885                       0 
     -0.118348348348348                   0.025        1.22835397720337        44.9467106901375    1.32961675148723E-06            255083.09375           101704.296875        288.433685302734       0.107473718258292       0.316432355330799                       0 
     -0.118008008008008                   0.025        1.22835397720337        44.9467103600854    1.18648928080384E-06            255083.09375           101704.296875        288.433685302734       0.107473718099934       0.316432376747951                       0 
     -0.117667667667668                   0.025        1.22835397720337        44.9467090280893    9.29762409429531E-07            255083.09375           101704.296875        288.433685302734       0.107473717951565       0.316432400846521                       0 
     -0.117327327327327                   0.025        1.22835397720337        44.9467080232942    7.28998521206739E-07            255083.09375           101704.296875        288.433685302734       0.107473717794829       0.316432424948493                       0 
     -0.116986986986987                   0.025        1.22835397720337        44.9467071346181    5.48095085615053E-07            255083.09375           101704.296875        288.433685302734       0.107473717635124       0.316432449051672                       0 
     -0.116646646646647                   0.025        1.22835397720337        44.9467062459419    3.67191650023376E-07            255083.09375           101704.296875        288.433685302734        0.10747371747542       0.316432473154851                       0 
     -0.116306306306306                   0.025        1.22835397720337        44.9467053572658    1.86288214431698E-07            255083.09375           101704.296875        288.433685302734       0.107473717315715       0.316432497258031                       0 
     -0.115965965965966                   0.025        1.22835397720337        44.9467044685896     5.3847788400132E-09            255083.09375           101704.296875        288.433685302734        0.10747371715601        0.31643252136121                       0 
     -0.115625625625626                   0.025        1.22835397720337        44.9467035799135   -1.75518656751672E-07            255083.09375           101704.296875        288.433685302734       0.107473716996306       0.316432545464389                       0 
     -0.115285285285285                   0.025        1.22835397720337        44.9467026912373    -3.5642209234335E-07            255083.09375           101704.296875        288.433685302734       0.107473716836601       0.316432569567568                       0 
     -0.114944944944945                   0.025        1.22835397720337        44.9467022661682   -6.14533740510294E-07            255083.09375           101704.296875        288.433685302734       0.107473710775922       0.316432599167424                       0 
     -0.114604604604605                   0.025        1.22835397720337        44.9467022539727     -9.291014074041E-07            255083.09375           101704.296875        288.433685302734       0.107473701238632       0.316432635851069                       0 
     -0.114264264264264                   0.025        1.22835397720337        44.9467022407629    -1.1776173062125E-06            255083.09375           101704.296875        288.433685302734       0.107473701238632        0.31643268424272                       0 
     -0.113923923923924                   0.025        1.22835397720337        44.9467022275532   -1.42613320502089E-06            255083.09375           101704.296875        288.433685302734       0.107473701238632       0.316432732634371                       0 
     -0.113583583583584                   0.025        1.22835397720337        44.9467022143434   -1.67464910382928E-06            255083.09375           101704.296875        288.433685302734       0.107473701238632       0.316432781026022                       0 
     -0.113243243243243                   0.025        1.22835397720337        44.9467022011337   -1.92316500263768E-06            255083.09375           101704.296875        288.433685302734       0.107473701238632       0.316432829417673                       0 
     -0.112902902902903                   0.025        1.22835397720337         44.946702187924   -2.17168090144607E-06            255083.09375           101704.296875        288.433685302734       0.107473701238632       0.316432877809324                       0 
     -0.112562562562563                   0.025        1.22835397720337        44.9467021747142   -2.42019680025448E-06            255083.09375           101704.296875        288.433685302734       0.107473701238632       0.316432926200975                       0 
     -0.112222222222222                   0.025        1.22835397720337        44.9467021615045   -2.66871269906287E-06            255083.09375           101704.296875        288.433685302734       0.107473701238632       0.316432974592626                       0 