VARIABLES = "x"
 "y"
 "Density"
 "Momentum_x"
 "Momentum_y"
 "Energy"
 "Pressure"
 "Temperature"
 "Mach"
 "C<sub>p</sub>"
 "Roe_Dissipation"
ZONE
DT=(DOUBLE,DOUBLE,DOUBLE,DOUBLE,DOUBLE,DOUBLE,DOUBLE,DOUBLE,DOUBLE,DOUBLE,DOUBLE)
                  -0.15                   0.025          1.224524974823        55.6091194152832   -1.14052574471133E-06            254414.40625           101260.703125        288.073699951172       0.133468195796013     -0.0536533894117675                       0 
      -0.14965965965966                   0.025          1.224524974823        55.6091194152832    -1.7154872201862E-06            254414.40625           101260.703125        288.073699951172       0.133468195796013     -0.0536525144241526                       0 
     -0.149319319319319                   0.025          1.224524974823        55.6091194152832   -2.26848986331297E-06            254414.40625           101260.703125        288.073699951172       0.133468195796013     -0.0536516408362993                       0 
     -0.148978978978979                   0.025          1.224524974823        55.6091194152832   -2.75892767262702E-06            254414.40625           101260.703125        288.073699951172       0.133468195796013     -0.0536507712366293                       0 
     -0.148638638638639                   0.025          1.224524974823        55.6091194152832   -3.24936548194104E-06            254414.40625           101260.703125        288.073699951172       0.133468195796013     -0.0536499016369592                       0 
     -0.148298298298298                   0.025          1.224524974823        55.6091194152832   -3.73980329125505E-06            254414.40625           101260.703125        288.073699951172       0.133468195796013     -0.0536490320372891                       0 
     -0.147957957957958                   0.025          1.224524974823        55.6091194152832   -4.01717210479224E-06            254414.40625           101260.703125        288.073699951172       0.133468195796013     -0.0536483144041273                       0 
     -0.147617617617618                   0.025          1.224524974823        55.6091194152832    -4.1457762552143E-06            254414.40625           101260.703125        288.073699951172       0.133468195796013     -0.0536477028739032                       0 
     -0.147277277277277                   0.025          1.224524974823        55.6091194152832   -4.27438040563636E-06            254414.40625           101260.703125        288.073699951172       0.133468195796013     -0.0536470913436791                       0 
     -0.146936936936937                   0.025          1.224524974823        55.6091194152832    -4.3131762770766E-06            254414.40625           101260.703125        288.073699951172       0.133468195796013     -0.0536464995614325                       0 
     -0.146596596596597                   0.025          1.224524974823        55.6091194152832   -4.29800450991196E-06            254414.40625           101260.703125        288.073699951172       0.133468195796013      -0.053645919646151                       0 
     -0.146256256256256                   0.025          1.224524974823        55.6091194152832   -4.28283274274733E-06            254414.40625           101260.703125        288.073699951172       0.133468195796013     -0.0536453397308695                       0 
     -0.145915915915916                   0.025          1.224524974823        55.6091194152832   -4.26766097558269E-06            254414.40625           101260.703125        288.073699951172       0.133468195796013     -0.0536447598155881                       0 
     -0.145575575575576                   0.025          1.224524974823        55.6091194152832   -4.06570766775949E-06            254414.40625           101260.703125        288.073699951172       0.133468195796013     -0.0536441051455879                       0 
     -0.145235235235235                   0.025          1.224524974823        55.6091194152832   -3.85939827890735E-06            254414.40625           101260.703125        288.073699951172       0.133468195796013     -0.0536434487321735                       0 
     -0.144894894894895                   0.025          1.224524974823        55.6091194152832   -3.65308889005518E-06            254414.40625           101260.703125        288.073699951172       0.133468195796013      -0.053642792318759                       0 
     -0.144554554554555                   0.025          1.224524974823        55.6091191691947   -3.40042432874725E-06            254414.40625           101260.703125        288.073699951172       0.133468192912163     -0.0536421408144572                       0 
     -0.144214214214214                   0.025          1.224524974823        55.6091181720237     -3.006279981655E-06            254414.40625           101260.703125        288.073699951172       0.133468181226565     -0.0536415042931695                       0 
     -0.143873873873874                   0.025          1.224524974823        55.6091171748527   -2.61213563456275E-06            254414.40625           101260.703125        288.073699951172       0.133468169540968     -0.0536408677718819                       0 
     -0.143533533533534                   0.025          1.224524974823        55.6091161776817   -2.21799128747049E-06            254414.40625           101260.703125        288.073699951172       0.133468157855371     -0.0536402312505943                       0 
     -0.143193193193193                   0.025          1.224524974823        55.6091157769247   -1.87287165482923E-06        254414.413916428           101260.703125        288.073699951172       0.133468153158999     -0.0536396069518034                       0 
     -0.142852852852853                   0.025          1.224524974823        55.6091157638891   -1.55962239855815E-06        254414.426566707           101260.703125        288.073699951172       0.133468153006238     -0.0536389905987104                       0 
     -0.142512512512513                   0.025          1.224524974823        55.6091157508535   -1.24637314228707E-06        254414.439216987           101260.703125        288.073699951172       0.133468152853477     -0.0536383742456175                       0 
     -0.142172172172172                   0.025          1.224524974823        55.6091157378179   -9.33123886015996E-07        254414.451867267           101260.703125        288.073699951172       0.133468152700716     -0.0536377578925245                       0 
     -0.141831831831832                   0.025          1.224524974823        55.6091157204733   -6.67025572456001E-07         254414.46431712           101260.703125        288.073699951172        0.13346815249746     -0.0536371326823838                       0 
     -0.141491491491491                   0.025          1.224524974823         55.609115701843   -4.14996614777444E-07        254414.476707168           101260.703125        288.073699951172       0.133468152279136     -0.0536365048293912                       0 
     -0.141151151151151                   0.025          1.224524974823        55.6091156832127   -1.62967657098888E-07        254414.489097215           101260.703125        288.073699951172       0.133468152060812     -0.0536358769763986                       0 
     -0.140810810810811                   0.025          1.224524974823        55.6091155407803    8.91414903813346E-08                254414.5           101260.703125        288.073699951172       0.133468150391681     -0.0536352484300723                       0 
      -0.14047047047047                   0.025          1.224524974823        55.6091144907822     3.4183849108299E-07                254414.5           101260.703125        288.073699951172       0.133468138087017     -0.0536346148010734                       0 
      -0.14013013013013                   0.025          1.224524974823        55.6091134407841    5.94535491784625E-07                254414.5           101260.703125        288.073699951172       0.133468125782352     -0.0536339811720746                       0 
      -0.13978978978979                   0.025          1.224524974823        55.6091123907861     8.4723249248626E-07                254414.5           101260.703125        288.073699951172       0.133468113477687     -0.0536333475430757                       0 
     -0.139449449449449                   0.025          1.224524974823        55.6091117858887    1.07693437676488E-06                254414.5           101260.703125        288.073699951172       0.133468106389046       -0.05363271350572                       0 
     -0.139109109109109                   0.025          1.224524974823        55.6091117858887    1.27538560500727E-06                254414.5           101260.703125        288.073699951172       0.133468106389046     -0.0536320789134022                       0 
     -0.138768768768769                   0.025          1.224524974823        55.6091117858887    1.47383683324966E-06                254414.5           101260.703125        288.073699951172       0.133468106389046     -0.0536314443210844                       0 
     -0.138428428428428                   0.025          1.224524974823        55.6091117858887    1.67228806149205E-06                254414.5           101260.703125        288.073699951172       0.133468106389046     -0.0536308097287666                       0 
     -0.138088088088088                   0.025          1.224524974823        55.6091117858887    1.81494023416014E-06                254414.5           101260.703125        288.073699951172       0.133468106389046     -0.0536301724826038                       0 
     -0.137747747747748                   0.025          1.224524974823        55.6091117858887    1.92854957970908E-06                254414.5           101260.703125        288.073699951172       0.133468106389046     -0.0536295338551423                       0 
     -0.137407407407407                   0.025          1.224524974823        55.6091117858887    2.04215892525803E-06                254414.5           101260.703125        288.073699951172       0.133468106389046     -0.0536288952276808                       0 
     -0.137067067067067                   0.025          1.224524974823        55.6091114803808    2.14404780899743E-06                254414.5           101260.703125        288.073699951172       0.133468106389046     -0.0536282562224376                       0 
     -0.136726726726727                   0.025          1.224524974823        55.6091098884783    2.19658562425223E-06                254414.5           101260.703125        288.073699951172       0.133468106389046     -0.0536276156264774                       0 
     -0.136386386386386                   0.025          1.224524974823        55.6091082965759    2.24912343950702E-06                254414.5           101260.703125        288.073699951172       0.133468106389046     -0.0536269750305173                       0 
     -0.136046046046046                   0.025          1.224524974823        55.6091067046734    2.30166125476183E-06                254414.5           101260.703125        288.073699951172       0.133468106389046     -0.0536263344345572                       0 
     -0.135705705705706                   0.025          1.224524974823        55.6091056821464    2.33472286230752E-06                254414.5           101260.703125        288.073699951172       0.133468106389046     -0.0536256985567608                       0 
     -0.135365365365365                   0.025          1.224524974823         55.609105629536    2.33460724958236E-06                254414.5           101260.703125        288.073699951172       0.133468106389046     -0.0536250707162354                       0 
     -0.135025025025025                   0.025          1.224524974823        55.6091055769256     2.3344916368572E-06                254414.5           101260.703125        288.073699951172       0.133468106389046     -0.0536244428757099                       0 
     -0.134684684684685                   0.025          1.224524974823        55.6091055243153    2.33437602413205E-06                254414.5           101260.703125        288.073699951172       0.133468106389046     -0.0536238150351845                       0 
     -0.134344344344344                   0.025          1.224524974823        55.6091054740802     2.2878009844694E-06                254414.5           101260.703125        288.073699951172       0.133468106389046     -0.0536231854504523                       0 
     -0.134004004004004                   0.025          1.224524974823        55.6091054239451    2.23927197969902E-06                254414.5           101260.703125        288.073699951172       0.133468106389046     -0.0536225557923633                       0 
     -0.133663663663664                   0.025          1.224524974823        55.6091053738099    2.19074297492865E-06                254414.5           101260.703125        288.073699951172       0.133468106389046     -0.0536219261342742                       0 
     -0.133323323323323                   0.025          1.224524974823        55.6091053236748    2.14221397015827E-06                254414.5           101260.703125        288.073699951172       0.133468106389046     -0.0536212964761851                       0 
     -0.132982982982983                   0.025          1.224524974823        55.6091039950381    2.10548282133075E-06                254414.5           101260.703125        288.073699951172       0.133468106389046     -0.0536206629287088                       0 
     -0.132642642642643                   0.025          1.224524974823        55.6091024132185    2.07108801396419E-06                254414.5           101260.703125        288.073699951172       0.133468106389046     -0.0536200286110131                       0 
     -0.132302302302302                   0.025          1.224524974823        55.6091008313988    2.03669320659764E-06                254414.5           101260.703125        288.073699951172       0.133468106389046     -0.0536193942933174                       0 
     -0.131961961961962                   0.025          1.224524974823        55.6091003417969    1.97307735679012E-06                254414.5           101260.703125        288.073699951172       0.133468106389046     -0.0536187602052221                       0 
     -0.131621621621622                   0.025          1.224524974823        55.6091003417969    1.89636276389728E-06                254414.5           101260.703125        288.073699951172       0.133468106389046     -0.0536181262200484                       0 
     -0.131281281281281                   0.025          1.224524974823        55.6091003417969    1.81964817100444E-06                254414.5           101260.703125        288.073699951172       0.133468106389046     -0.0536174922348747                       0 
     -0.130940940940941                   0.025          1.224524974823        55.6091003417969    1.74293357811161E-06                254414.5           101260.703125        288.073699951172       0.133468106389046     -0.0536168582497009                       0 
     -0.130600600600601                   0.025          1.224524974823        55.6091003417969    1.66920046700881E-06                254414.5           101260.703125        288.073699951172       0.133468106389046     -0.0536162258507815                       0 
      -0.13026026026026                   0.025          1.224524974823        55.6091003417969    1.59941566193834E-06                254414.5           101260.703125        288.073699951172       0.133468106389046     -0.0536155955525013                       0 
      -0.12991991991992                   0.025          1.224524974823        55.6091003417969    1.52963085686787E-06                254414.5           101260.703125        288.073699951172       0.133468106389046     -0.0536149652542211                       0 
      -0.12957957957958                   0.025          1.224524974823        55.6091003417969    1.44377152979298E-06                254414.5           101260.703125        288.073699951172       0.133468106389046     -0.0536143346992752                       0 
     -0.129239239239239                   0.025          1.224524974823        55.6091003417969    1.33862100671297E-06                254414.5           101260.703125        288.073699951172       0.133468106389046     -0.0536137038363021                       0 
     -0.128898898898899                   0.025          1.224524974823        55.6091003417969    1.23347048363296E-06                254414.5           101260.703125        288.073699951172       0.133468106389046     -0.0536130729733291                       0 
     -0.128558558558559                   0.025          1.224524974823        55.6091003417969    1.12831996055295E-06                254414.5           101260.703125        288.073699951172       0.133468106389046      -0.053612442110356                       0 
     -0.128218218218218                   0.025          1.224524974823        55.6091002490729    1.02379617988396E-06                254414.5           101260.703125        288.073699951172       0.133468106389046     -0.0536118113233584                       0 
     -0.127877877877878                   0.025          1.224524974823         55.609098690463    9.29180652686616E-07                254414.5           101260.703125        288.073699951172       0.133468106389046      -0.053611181737467                       0 
     -0.127537537537538                   0.025          1.224524974823        55.6090971318531    8.34565125489273E-07                254414.5           101260.703125        288.073699951172       0.133468106389046     -0.0536105521515755                       0 
     -0.127197197197197                   0.025          1.224524974823        55.6090955725183    7.32953936514047E-07                254414.5           101260.703125        288.073699951172       0.133468106389046     -0.0536099226910667                       0 
     -0.126856856856857                   0.025          1.224524974823        55.6090940108586    6.08909020111755E-07                254414.5           101260.703125        288.073699951172       0.133468106389046     -0.0536092936326354                       0 
     -0.126516516516517                   0.025          1.224524974823         55.609092449199    4.84864103709463E-07                254414.5           101260.703125        288.073699951172       0.133468106389046     -0.0536086645742041                       0 
     -0.126176176176176                   0.025          1.224524974823        55.6090908875393    3.60819187307161E-07                254414.5           101260.703125        288.073699951172       0.133468106389046     -0.0536080355157728                       0 
     -0.125835835835836                   0.025          1.224524974823        55.6090893258796    2.36774270904869E-07                254414.5           101260.703125        288.073699951172       0.133468106389046     -0.0536074064573415                       0 
     -0.125495495495495                   0.025          1.224524974823        55.6090888977051    1.19363215121029E-07                254414.5           101260.703125        288.073699951172        0.13346809603103     -0.0536067778125004                       0 
     -0.125155155155155                   0.025          1.224524974823        55.6090888977051    4.45810332236608E-09                254414.5           101260.703125        288.073699951172       0.133468081760269     -0.0536061493238932                       0 
     -0.124814814814815                   0.025        1.22452498175386        55.6090888977051   -1.11528452164475E-07        254414.500605628           101260.703125        288.073699951172       0.133468067488258     -0.0536055209295766                       0 
     -0.124474474474474                   0.025         1.2245251313734        55.6090888977051   -2.49779153641492E-07        254414.513679583           101260.703125        288.073699951172       0.133468053190512     -0.0536048944764612                       0 
     -0.124134134134134                   0.025        1.22452528099294        55.6090888977051   -3.88029855118515E-07        254414.526753538           101260.703125        288.073699951172       0.133468038892766     -0.0536042680233459                       0 
     -0.123793793793794                   0.025        1.22452543061248        55.6090888977051   -5.26280556595531E-07        254414.539827493           101260.703125        288.073699951172        0.13346802459502     -0.0536036415702306                       0 
     -0.123453453453453                   0.025        1.22452558023202        55.6090888977051   -6.64531258072554E-07        254414.552901448           101260.703125        288.073699951172       0.133468010297274     -0.0536030151171152                       0 
     -0.123113113113113                   0.025        1.22452572995208        55.6090888977051   -7.97640559672348E-07        254414.565984186        101260.708601175        288.073699951172       0.133468002080917     -0.0536023895083057                       0 
     -0.122772772772773                   0.025        1.22452587980793        55.6090888977051   -9.23803492428186E-07         254414.57907879        101260.721476023        288.073699951172       0.133468002080917      -0.053601765040209                       0 
     -0.122432432432432                   0.025        1.22452602966378        55.6090888977051   -1.04996642518402E-06        254414.592173394         101260.73435087        288.073699951172       0.133468002080917     -0.0536011405721122                       0 
     -0.122092092092092                   0.025         1.2245260477066        55.6090888977051   -1.19124934785151E-06            254414.59375        101260.747241519        288.073699951172       0.133468002080917     -0.0536005162773781                       0 
     -0.121751751751752                   0.025         1.2245260477066        55.6090888977051   -1.33460192387607E-06            254414.59375        101260.760134331        288.073699951172       0.133468002080917     -0.0535998920063743                       0 
     -0.121411411411411                   0.025         1.2245260477066        55.6090888977051   -1.47795449990063E-06            254414.59375        101260.773027143        288.073699951172       0.133468002080917     -0.0535992677353704                       0 
     -0.121071071071071                   0.025         1.2245260477066        55.6090888977051   -1.62130707592518E-06            254414.59375        101260.785919955        288.073699951172       0.133468002080917     -0.0535986434643666                       0 
     -0.120730730730731                   0.025         1.2245260477066        55.6090887397665    -1.7626990603505E-06            254414.59375           101260.796875        288.073699951172       0.133468002080917     -0.0535980196810999                       0 
      -0.12039039039039                   0.025         1.2245260477066        55.6090876889321   -1.89300696116102E-06            254414.59375           101260.796875        288.073699951172       0.133468002080917     -0.0535973986552251                       0 
      -0.12005005005005                   0.025         1.2245260477066        55.6090866380976   -2.02331486197153E-06            254414.59375           101260.796875        288.073699951172       0.133468002080917     -0.0535967776293503                       0 
      -0.11970970970971                   0.025         1.2245260477066        55.6090863699427   -2.16211523824161E-06            254414.59375           101260.796875        288.073699951172       0.133468002080917     -0.0535961569745447                       0 
     -0.119369369369369                   0.025         1.2245260477066        55.6090863875842   -2.30401665156929E-06            254414.59375           101260.796875        288.073699951172       0.133468002080917     -0.0535955364552354                       0 
     -0.119029029029029                   0.025         1.2245260477066        55.6090864052256   -2.44591806489696E-06            254414.59375           101260.796875        288.073699951172       0.133468002080917     -0.0535949159359261                       0 
     -0.118688688688689                   0.025         1.2245260477066        55.6090864228671   -2.58781947822464E-06            254414.59375           101260.796875        288.073699951172       0.133468002080917     -0.0535942954166167                       0 
     -0.118348348348348                   0.025         1.2245260477066        55.6090864405085   -2.72972089155231E-06            254414.59375           101260.796875        288.073699951172       0.133468002080917     -0.0535936748973074                       0 
     -0.118008008008008                   0.025         1.2245260477066        55.6090864578036   -2.85840467236347E-06            254414.59375           101260.796875        288.073699951172       0.133468002080917     -0.0535930565067541                       0 
     -0.117667667667668                   0.025         1.2245260477066        55.6090864750576   -2.98551967576023E-06            254414.59375           101260.796875        288.073699951172       0.133468002080917     -0.0535924383688592                       0 
     -0.117327327327327                   0.025         1.2245260477066        55.6090864924824   -3.11657112316622E-06            254414.59375           101260.796875        288.073699951172       0.133468002080917       -0.05359182197463                       0 
     -0.116986986986987                   0.025         1.2245260477066         55.609086510021   -3.25024746005031E-06            254414.59375           101260.796875        288.073699951172       0.133468002080917     -0.0535912067431075                       0 
     -0.116646646646647                   0.025         1.2245260477066        55.6090865275596   -3.38392379693439E-06            254414.59375           101260.796875        288.073699951172       0.133468002080917      -0.053590591511585                       0 
     -0.116306306306306                   0.025         1.2245260477066        55.6090865450982   -3.51760013381847E-06            254414.59375           101260.796875        288.073699951172       0.133468002080917     -0.0535899762800626                       0 
     -0.115965965965966                   0.025         1.2245260477066        55.6090865626368   -3.65127647070256E-06            254414.59375           101260.796875        288.073699951172       0.133468002080917     -0.0535893610485401                       0 
     -0.115625625625626                   0.025         1.2245260477066        55.6090865798698   -3.77397035130975E-06            254414.59375           101260.796875        288.073699951172       0.133468002080917     -0.0535887471036292                       0 
     -0.115285285285285                   0.025         1.2245260477066        55.6090865969386   -3.89075857532111E-06            254414.59375           101260.796875        288.073699951172       0.133468002080917     -0.0535881338505749                       0 
     -0.114944944944945                   0.025         1.2245260477066        55.6090861027681   -4.00844340017774E-06            254414.59375           101260.796875        288.073699951172       0.133468002080917     -0.0535875218444895                       0 
     -0.114604604604605                   0.025         1.2245260477066        55.6090850483812   -4.12711072099801E-06            254414.59375           101260.796875        288.073699951172       0.133468002080917     -0.0535869112048335                       0 
     -0.114264264264264                   0.025         1.2245260477066        55.6090839939942   -4.24577804181829E-06            254414.59375           101260.796875        288.073699951172       0.133468002080917     -0.0535863005651776                       0 
     -0.113923923923924                   0.025         1.2245260477066        55.6090829396072   -4.36444536263856E-06            254414.59375           101260.796875        288.073699951172       0.133468002080917     -0.0535856899255217                       0 
     -0.113583583583584                   0.025         1.2245260477066        55.6090818852203   -4.48311268345884E-06            254414.59375           101260.796875        288.073699951172       0.133468002080917     -0.0535850792858658                       0 
     -0.113243243243243                   0.025         1.2245260477066        55.6090812683105   -4.59340048271294E-06            254414.59375           101260.796875        288.073699951172       0.133468002080917     -0.0535844696829451                       0 
     -0.112902902902903                   0.025         1.2245260477066        55.6090812683105   -4.69187187728542E-06            254414.59375           101260.796875        288.073699951172       0.133468002080917     -0.0535838615419794                       0 
     -0.112562562562563                   0.025         1.2245260477066        55.6090812683105   -4.78982041106633E-06            254414.59375           101260.796875        288.073699951172       0.133468002080917     -0.0535832544184787                       0 
     -0.112222222222222                   0.025         1.2245260477066        55.6090812683105   -4.88684340135785E-06            254414.59375           101260.796875        288.073699951172       0.133468002080917     -0.0535826490960464                       0 