VARIABLES = "x"
 "y"
 "Density"
 "Momentum_x"
 "Momentum_y"
 "Energy"
 "Pressure"
 "Temperature"
 "Mach"
 "C<sub>p</sub>"
 "Roe_Dissipation"
ZONE
DT=(DOUBLE,DOUBLE,DOUBLE,DOUBLE,DOUBLE,DOUBLE,DOUBLE,DOUBLE,DOUBLE,DOUBLE,DOUBLE)
                  -0.15                   0.025        1.22451901435852        55.6243515014648     2.2269535697288E-07           254413.296875                  101260        288.073089599609       0.133505493402481     -0.0542411469983075                       0 
      -0.14965965965966                   0.025        1.22451901435852        55.6243513943108   -2.51596150699303E-07        254413.297899107                  101260        288.073089599609       0.133505493402481     -0.0542397121137993                       0 
     -0.149319319319319                   0.025        1.22451901435852        55.6243489032424   -3.39432616429131E-07        254413.321707078                  101260        288.073089599609       0.133505493402481     -0.0542385445680694                       0 
     -0.148978978978979                   0.025        1.22451901435852         55.624346412174   -4.27269082158966E-07        254413.345515049                  101260        288.073089599609       0.133505493402481     -0.0542373770223396                       0 
     -0.148638638638639                   0.025        1.22451901435852        55.6243439305452    -5.1540555221737E-07        254413.369324139                  101260        288.073089599609       0.133505493402481     -0.0542362107487023                       0 
     -0.148298298298298                   0.025        1.22451901435852        55.6243440436752   -6.86007624620038E-07        254413.393440733                  101260        288.073089599609       0.133505493402481     -0.0542353941496213                       0 
     -0.147957957957958                   0.025        1.22451901435852        55.6243440665878   -8.23409141250574E-07            254413.40625                  101260        288.073089599609       0.133505493402481     -0.0542345700938881                       0 
     -0.147617617617618                   0.025        1.22451901435852        55.6243439872994   -9.23200113405204E-07            254413.40625                  101260        288.073089599609       0.133505493402481     -0.0542337375910449                       0 
     -0.147277277277277                   0.025        1.22451901435852         55.624343908011   -1.02299108555983E-06            254413.40625                  101260        288.073089599609       0.133505493402481     -0.0542329050882016                       0 
     -0.146936936936937                   0.025        1.22451901435852        55.6243429294361   -1.02995794456497E-06            254413.40625                  101260        288.073089599609       0.133505493402481     -0.0542320296917364                       0 
     -0.146596596596597                   0.025        1.22451901435852        55.6243404145345   -8.78345568509962E-07            254413.40625                  101260        288.073089599609       0.133505493402481     -0.0542310810164912                       0 
     -0.146256256256256                   0.025        1.22451901435852         55.624340057373   -9.13342238147736E-07            254413.40625                  101260        288.073089599609       0.133505493402481     -0.0542301281117865                       0 
     -0.145915915915916                   0.025        1.22451901435852         55.624340057373   -9.79227501567694E-07            254413.40625                  101260        288.073089599609       0.133505493402481     -0.0542291745069975                       0 
     -0.145575575575576                   0.025        1.22451901435852         55.624340057373   -1.04511276498765E-06            254413.40625                  101260        288.073089599609       0.133505493402481     -0.0542282209022085                       0 
     -0.145235235235235                   0.025        1.22451901435852         55.624340057373   -9.89627649888717E-07            254413.40625                  101260        288.073089599609       0.133505493402481     -0.0542272954199522                       0 
     -0.144894894894895                   0.025        1.22451901435852         55.624340057373    -9.4852588461548E-07            254413.40625                  101260        288.073089599609       0.133505493402481     -0.0542263732482281                       0 
     -0.144554554554555                   0.025        1.22451901435852         55.624340057373   -9.73936206233192E-07            254413.40625                  101260        288.073089599609       0.133505493402481     -0.0542254455336557                       0 
     -0.144214214214214                   0.025        1.22451901435852         55.624340057373   -9.99346527850905E-07            254413.40625                  101260        288.073089599609       0.133505493402481     -0.0542245178190832                       0 
     -0.143873873873874                   0.025        1.22451901435852         55.624340057373   -1.00128288022523E-06            254413.40625                  101260        288.073089599609       0.133505493402481     -0.0542235868611129                       0 
     -0.143533533533534                   0.025        1.22451901435852         55.624340057373   -9.54669656737389E-07            254413.40625                  101260        288.073089599609       0.133505493402481     -0.0542226489750929                       0 
     -0.143193193193193                   0.025        1.22451901435852         55.624340057373   -9.65392151096601E-07            254413.40625                  101260        288.073089599609       0.133505493402481      -0.054221710946127                       0 
     -0.142852852852853                   0.025        1.22451901435852         55.624340057373   -9.76114645455812E-07            254413.40625                  101260        288.073089599609       0.133505493402481     -0.0542207729171611                       0 
     -0.142512512512513                   0.025        1.22451901435852         55.624340057373   -9.86837139815024E-07            254413.40625                  101260        288.073089599609       0.133505493402481     -0.0542198348881953                       0 
     -0.142172172172172                   0.025        1.22451901435852         55.624340057373   -1.00137011543831E-06            254413.40625                  101260        288.073089599609       0.133505493402481     -0.0542189018643338                       0 
     -0.141831831831832                   0.025        1.22451901435852        55.6243382549102   -1.01400971679114E-06            254413.40625                  101260        288.073089599609       0.133505493402481     -0.0542179693857223                       0 
     -0.141491491491491                   0.025        1.22451901435852        55.6243356171846   -1.02551832111423E-06            254413.40625                  101260        288.073089599609       0.133505493402481     -0.0542170368266663                       0 
     -0.141151151151151                   0.025        1.22451901435852        55.6243329794589   -1.03702692543733E-06            254413.40625                  101260        288.073089599609       0.133505493402481     -0.0542161042676103                       0 
     -0.140810810810811                   0.025        1.22451901435852        55.6243303414839   -1.05663168467644E-06            254413.40625                  101260        288.073089599609       0.133505493402481     -0.0542151708941641                       0 
      -0.14047047047047                   0.025        1.22451901435852        55.6243286132812   -1.07901482204746E-06            254413.40625                  101260        288.073089599609       0.133505486296745      -0.054214236263205                       0 
      -0.14013013013013                   0.025        1.22451901435852        55.6243286132812   -1.08687032049019E-06            254413.40625                  101260        288.073089599609       0.133505465697724     -0.0542133012363563                       0 
      -0.13978978978979                   0.025        1.22451901435852        55.6243286132812   -1.09472581893292E-06            254413.40625                  101260        288.073089599609       0.133505445098703     -0.0542123662095076                       0 
     -0.139449449449449                   0.025        1.22451901435852        55.6243286132812   -1.10259769425043E-06            254413.40625                  101260        288.073089599609       0.133505424499665     -0.0542114311857887                       0 
     -0.139109109109109                   0.025        1.22451901435852        55.6243286132812   -1.13113560245256E-06            254413.40625                  101260        288.073089599609       0.133505403995514     -0.0542105001380612                       0 
     -0.138768768768769                   0.025        1.22451901435852        55.6243286132812   -1.13296509603732E-06            254413.40625                  101260        288.073089599609       0.133505403995514     -0.0542095685961036                       0 
     -0.138428428428428                   0.025        1.22451901435852        55.6243286132812   -1.13479458962208E-06            254413.40625                  101260        288.073089599609       0.133505403995514     -0.0542086370541459                       0 
     -0.138088088088088                   0.025        1.22451901435852        55.6243286132812   -1.13662408320685E-06            254413.40625                  101260        288.073089599609       0.133505403995514     -0.0542077055121882                       0 
     -0.137747747747748                   0.025        1.22451901435852        55.6243286132812   -1.14711498240857E-06            254413.40625                  101260        288.073089599609       0.133505403995514     -0.0542067723859684                       0 
     -0.137407407407407                   0.025        1.22451901435852        55.6243286132812   -1.14925503777853E-06         254413.42083862                  101260        288.073089599609       0.133505403995514     -0.0542058405338234                       0 
     -0.137067067067067                   0.025        1.22451901435852        55.6243286132812   -1.14418403936747E-06        254413.442535859                  101260        288.073089599609       0.133505403995514     -0.0542049098771901                       0 
     -0.136726726726727                   0.025        1.22451901435852        55.6243286132812    -1.1391130409564E-06        254413.464233098                  101260        288.073089599609       0.133505403995514     -0.0542039792205568                       0 
     -0.136386386386386                   0.025        1.22451901435852        55.6243286132812   -1.13561302300859E-06        254413.485938494                  101260        288.073089599609       0.133505403995514     -0.0542030483377996                       0 
     -0.136046046046046                   0.025        1.22451901435852        55.6243286132812   -1.13468667227511E-06                254413.5                  101260        288.073089599609       0.133505403995514     -0.0542021153586505                       0 
     -0.135705705705706                   0.025        1.22451901435852        55.6243286132812   -1.12372266615013E-06                254413.5                  101260        288.073089599609       0.133505403995514       -0.05420118066659                       0 
     -0.135365365365365                   0.025        1.22451901435852        55.6243286132812   -1.11275866002515E-06                254413.5                  101260        288.073089599609       0.133505403995514     -0.0542002459745296                       0 
     -0.135025025025025                   0.025        1.22451901435852        55.6243286132812   -1.10179465390017E-06                254413.5                  101260        288.073089599609       0.133505403995514     -0.0541993112824691                       0 
     -0.134684684684685                   0.025        1.22451901435852        55.6243286132812   -1.09334736151266E-06                254413.5                  101260        288.073089599609       0.133505403995514     -0.0541983784679891                       0 
     -0.134344344344344                   0.025        1.22451901435852        55.6243286132812   -1.07710550915163E-06                254413.5                  101260        288.073089599609       0.133505403995514     -0.0541974470821056                       0 
     -0.134004004004004                   0.025        1.22451901435852        55.6243286132812   -1.06086365679061E-06                254413.5                  101260        288.073089599609       0.133505403995514     -0.0541965156962221                       0 
     -0.133663663663664                   0.025        1.22451901435852        55.6243286132812   -1.04462180442958E-06                254413.5                  101260        288.073089599609       0.133505403995514     -0.0541955843103386                       0 
     -0.133323323323323                   0.025        1.22451901435852        55.6243279123088   -1.02776126525187E-06                254413.5                  101260        288.073089599609       0.133505403995514     -0.0541946523961706                       0 
     -0.132982982982983                   0.025        1.22451901435852        55.6243261624856   -1.00724671435004E-06                254413.5                  101260        288.073089599609       0.133505403995514     -0.0541937207639051                       0 
     -0.132642642642643                   0.025        1.22451901435852        55.6243244121105   -9.85892116937444E-07                254413.5                  101260        288.073089599609       0.133505403995514      -0.054192789461216                       0 
     -0.132302302302302                   0.025        1.22451901435852        55.6243226617354    -9.6453751952485E-07                254413.5                  101260        288.073089599609       0.133505403995514      -0.054191858158527                       0 
     -0.131961961961962                   0.025        1.22451901435852        55.6243209838867   -9.42916620328797E-07                254413.5                  101260        288.073089599609       0.133505403995514     -0.0541909269284183                       0 
     -0.131621621621622                   0.025        1.22451901435852        55.6243209838867   -9.15702682817304E-07                254413.5                  101260        288.073089599609       0.133505403995514     -0.0541899970372162                       0 
     -0.131281281281281                   0.025        1.22451901435852        55.6243209838867   -8.89082296555242E-07                254413.5                  101260        288.073089599609       0.133505403995514     -0.0541890667903134                       0 
     -0.130940940940941                   0.025        1.22451901435852        55.6243209838867    -8.6246191029318E-07                254413.5                  101260        288.073089599609       0.133505403995514     -0.0541881365434106                       0 
     -0.130600600600601                   0.025        1.22451901435852        55.6243209838867   -8.35841524031118E-07                254413.5                  101260        288.073089599609       0.133505403995514     -0.0541872062965078                       0 
      -0.13026026026026                   0.025        1.22451906345793        55.6243209838867   -8.03218623134611E-07                254413.5        101260.016101882        288.073108952834       0.133505403995514     -0.0541862774020715                       0 
      -0.12991991991992                   0.025        1.22451928704149        55.6243209838867   -7.71348706185442E-07                254413.5        101260.039464124         288.07313703245       0.133505403995514     -0.0541853505904539                       0 
      -0.12957957957958                   0.025        1.22451951062505        55.6243209838867   -7.39478789236273E-07                254413.5        101260.062826365        288.073165112067       0.133505403995514     -0.0541844237788363                       0 
     -0.129239239239239                   0.025        1.22451973420861        55.6243209838867   -7.07608872287104E-07                254413.5        101260.086188606        288.073193191684       0.133505403995514     -0.0541834969672187                       0 
     -0.128898898898899                   0.025        1.22451995781382        55.6243209838867   -6.71308762819022E-07                254413.5          101260.1015625        288.073211669922       0.133505403995514     -0.0541825700694074                       0 
     -0.128558558558559                   0.025        1.22451996803284        55.6243209838867   -6.34232311471879E-07                254413.5          101260.1015625        288.073211669922       0.133505403995514     -0.0541816445552126                       0 
     -0.128218218218218                   0.025        1.22451996803284        55.6243209838867   -5.97526920995692E-07                254413.5          101260.1015625        288.073211669922       0.133505403995514     -0.0541807191152084                       0 
     -0.127877877877878                   0.025        1.22451996803284        55.6243209838867   -5.60821530519506E-07                254413.5          101260.1015625        288.073211669922       0.133505403995514     -0.0541797936752043                       0 
     -0.127537537537538                   0.025        1.22451996803284        55.6243209838867   -5.24116140043319E-07                254413.5          101260.1015625        288.073211669922       0.133505403995514     -0.0541788682352001                       0 
     -0.127197197197197                   0.025        1.22451996803284        55.6243209838867    -4.8032321666611E-07                254413.5          101260.1015625        288.073211669922       0.133505403995514     -0.0541779469928261                       0 
     -0.126856856856857                   0.025        1.22451996803284        55.6243209838867   -4.39641065906988E-07                254413.5          101260.1015625        288.073211669922       0.133505403995514     -0.0541770265498036                       0 
     -0.126516516516517                   0.025        1.22451996803284        55.6243209838867   -3.98958915147866E-07                254413.5          101260.1015625        288.073211669922       0.133505403995514     -0.0541761061067812                       0 
     -0.126176176176176                   0.025        1.22451996803284        55.6243209838867   -3.58276764388741E-07                254413.5          101260.1015625        288.073211669922       0.133505403995514     -0.0541751856637587                       0 
     -0.125835835835836                   0.025        1.22451996803284         55.624319834884   -3.13252488520766E-07                254413.5          101260.1015625        288.073211669922       0.133505403995514     -0.0541742662842627                       0 
     -0.125495495495495                   0.025        1.22451996803284        55.6243171498946   -2.69800673996616E-07                254413.5          101260.1015625        288.073211669922       0.133505403995514     -0.0541733483507293                       0 
     -0.125155155155155                   0.025        1.22451996803284        55.6243144649052   -2.26348859472466E-07                254413.5          101260.1015625        288.073211669922       0.133505403995514      -0.054172430417196                       0 
     -0.124814814814815                   0.025        1.22451996803284        55.6243117799158   -1.82897044948314E-07                254413.5          101260.1015625        288.073211669922       0.133505403995514     -0.0541715124836626                       0 
     -0.124474474474474                   0.025        1.22451996803284        55.6243095397949   -1.37395674329888E-07        254413.506638713          101260.1015625        288.073211669922       0.133505396609149      -0.054170595866283                       0 
     -0.124134134134134                   0.025        1.22451996803284        55.6243095397949   -9.25676406458825E-08        254413.528220071          101260.1015625        288.073211669922       0.133505372597298     -0.0541696822113276                       0 
     -0.123793793793794                   0.025        1.22451996803284        55.6243095397949   -4.77396069618792E-08        254413.549801429          101260.1015625        288.073211669922       0.133505348585447     -0.0541687685563722                       0 
     -0.123453453453453                   0.025        1.22451996803284        55.6243095397949   -2.91157327787403E-09        254413.571382786          101260.1015625        288.073211669922       0.133505324573595     -0.0541678549014168                       0 
     -0.123113113113113                   0.025        1.22451996803284        55.6243095397949    4.19164604061293E-08        254413.592964144          101260.1015625        288.073211669922       0.133505300561744     -0.0541669412464614                       0 
     -0.122772772772773                   0.025        1.22451996803284        55.6243095397949    8.73657270025559E-08            254413.59375          101260.1015625        288.073211669922       0.133505299687386     -0.0541660299649307                       0 
     -0.122432432432432                   0.025        1.22451996803284        55.6243095397949    1.32175536429618E-07            254413.59375          101260.1015625        288.073211669922       0.133505299687386     -0.0541651189366392                       0 
     -0.122092092092092                   0.025        1.22451996803284        55.6243095397949    1.76985345856679E-07            254413.59375          101260.1015625        288.073211669922       0.133505299687386     -0.0541642079083478                       0 
     -0.121751751751752                   0.025        1.22451996803284        55.6243095397949    2.22058773941988E-07            254413.59375          101260.1015625        288.073211669922       0.133505299687386     -0.0541632968801255                       0 
     -0.121411411411411                   0.025        1.22451996803284        55.6243095397949    2.66232193315103E-07            254413.59375          101260.1015625        288.073211669922       0.133505299687386     -0.0541623901218141                       0 
     -0.121071071071071                   0.025        1.22451996803284        55.6243095397949    3.10116798098084E-07            254413.59375          101260.1015625        288.073211669922       0.133505299687386     -0.0541614859265817                       0 
     -0.120730730730731                   0.025        1.22451996803284        55.6243095397949    3.54001402881066E-07            254413.59375          101260.1015625        288.073211669922       0.133505299687386     -0.0541605817313492                       0 
      -0.12039039039039                   0.025        1.22451996803284        55.6243095397949    3.97886007664049E-07            254413.59375          101260.1015625        288.073211669922       0.133505299687386     -0.0541596775361167                       0 
      -0.12005005005005                   0.025        1.22451996803284        55.6243095397949    4.40411369368595E-07            254413.59375          101260.1015625        288.073211669922       0.133505299687386     -0.0541587738355432                       0 
      -0.11970970970971                   0.025        1.22451996803284        55.6243095397949    4.82003560998086E-07            254413.59375          101260.1015625        288.073211669922       0.133505299687386     -0.0541578714112682                       0 
     -0.119369369369369                   0.025        1.22451996803284        55.6243095397949    5.23595752627576E-07            254413.59375          101260.1015625        288.073211669922       0.133505299687386     -0.0541569689869931                       0 
     -0.119029029029029                   0.025        1.22451996803284        55.6243095397949    5.65187944257069E-07            254413.59375          101260.1015625        288.073211669922       0.133505299687386     -0.0541560665627181                       0 
     -0.118688688688689                   0.025        1.22451996803284        55.6243095397949     6.0624268430437E-07            254413.59375          101260.1015625        288.073211669922       0.133505299687386     -0.0541551644459651                       0 
     -0.118348348348348                   0.025        1.22451996803284        55.6243095397949    6.44694616076849E-07            254413.59375          101260.1015625        288.073211669922       0.133505299687386     -0.0541542670455725                       0 
     -0.118008008008008                   0.025        1.22451996803284        55.6243095397949    6.83252736593772E-07            254413.59375          101260.1015625        288.073211669922       0.133505299687386     -0.0541533698206893                       0 
     -0.117667667667668                   0.025        1.22451996803284        55.6243095397949    7.21810857110694E-07            254413.59375          101260.1015625        288.073211669922       0.133505299687386     -0.0541524725958062                       0 
     -0.117327327327327                   0.025        1.22451996803284        55.6243095397949    7.60368977627618E-07            254413.59375          101260.1015625        288.073211669922       0.133505299687386      -0.054151575370923                       0 
     -0.116986986986987                   0.025        1.22451996803284        55.6243095397949    7.96396934145186E-07            254413.59375          101260.1015625        288.073211669922       0.133505299687386     -0.0541506810975349                       0 
     -0.116646646646647                   0.025        1.22451996803284        55.6243095397949    8.31445011945664E-07            254413.59375          101260.1015625        288.073211669922       0.133505299687386     -0.0541497881291925                       0 
     -0.116306306306306                   0.025        1.22451996803284        55.6243095397949    8.66493089746142E-07            254413.59375          101260.1015625        288.073211669922       0.133505299687386     -0.0541488951608499                       0 
     -0.115965965965966                   0.025        1.22451996803284        55.6243095397949    9.01541167546622E-07            254413.59375          101260.1015625        288.073211669922       0.133505299687386     -0.0541480021925074                       0 
     -0.115625625625626                   0.025        1.22451996803284        55.6243079479157    9.36139912312826E-07            254413.59375          101260.1015625        288.073211669922       0.133505299687386      -0.054147110816795                       0 
     -0.115285285285285                   0.025        1.22451996803284        55.6243052629222    9.67404872004759E-07            254413.59375          101260.1015625        288.073211669922       0.133505299687386     -0.0541462205347125                       0 
     -0.114944944944945                   0.025        1.22451996803284        55.6243025779287    9.98669831696692E-07            254413.59375          101260.1015625        288.073211669922       0.133505299687386       -0.05414533025263                       0 
     -0.114604604604605                   0.025        1.22451996803284        55.6242998929352    1.02993479138863E-06            254413.59375          101260.1015625        288.073211669922       0.133505299687386     -0.0541444399705475                       0 
     -0.114264264264264                   0.025        1.22451996803284        55.6242980957031    1.06272726574022E-06            254413.59375          101260.1015625        288.073211669922       0.133505299687386     -0.0541435514223673                       0 
     -0.113923923923924                   0.025        1.22451996803284        55.6242980957031    1.09094136219105E-06            254413.59375          101260.1015625        288.073211669922       0.133505299687386     -0.0541426679280348                       0 
     -0.113583583583584                   0.025        1.22451996803284        55.6242980957031    1.11830320462289E-06            254413.59375          101260.1015625        288.073211669922       0.133505299687386     -0.0541417846052075                       0 
     -0.113243243243243                   0.025        1.22451996803284        55.6242980957031    1.14566504705473E-06            254413.59375          101260.1015625        288.073211669922       0.133505299687386     -0.0541409012823801                       0 
     -0.112902902902903                   0.025        1.22451996803284        55.6242980957031    1.17356741139183E-06            254413.59375          101260.1015625        288.073211669922       0.133505299687386     -0.0541400179552085                       0 
     -0.112562562562563                   0.025        1.22451996803284        55.6242980957031    1.20223801118032E-06            254413.59375          101260.1015625        288.073211669922       0.133505299687386     -0.0541391369876004                       0 
     -0.112222222222222                   0.025        1.22451996803284        55.6242980957031     1.2256426801146E-06            254413.59375          101260.1015625        288.073211669922       0.133505299687386      -0.054138257951409                       0 