VARIABLES = "x"
 "y"
 "Density"
 "Momentum_x"
 "Momentum_y"
 "Energy"
 "Pressure"
 "Temperature"
 "Mach"
 "C<sub>p</sub>"
 "Roe_Dissipation"
ZONE
DT=(DOUBLE,DOUBLE,DOUBLE,DOUBLE,DOUBLE,DOUBLE,DOUBLE,DOUBLE,DOUBLE,DOUBLE,DOUBLE)
                  -0.15                   0.025        1.22836196422577        44.9225883484299    1.54292345788955E-06            255084.40625           101705.203125        288.434387207031       0.107415303587914       0.317174816795973                       0 
      -0.14965965965966                   0.025        1.22836196422577        44.9225907026869    2.09075461945215E-06            255084.40625           101705.203125        288.434387207031       0.107415303587914       0.317174085393693                       0 
     -0.149319319319319                   0.025        1.22836196422577        44.9225929652839    2.60616535809785E-06            255084.40625           101705.203125        288.434387207031       0.107415303587914       0.317173356642516                       0 
     -0.148978978978979                   0.025        1.22836196422577        44.9225949667247    3.02920422834089E-06            255084.40625           101705.203125        288.434387207031       0.107415303587914        0.31717263544483                       0 
     -0.148638638638639                   0.025        1.22836196422577        44.9225969681654     3.4522430985839E-06            255084.40625           101705.203125        288.434387207031       0.107415303587914       0.317171914247144                       0 
     -0.148298298298298                   0.025        1.22836196422577        44.9225989696061    3.87528196882691E-06            255084.40625           101705.203125        288.434387207031       0.107415303587914       0.317171193049458                       0 
     -0.147957957957958                   0.025        1.22836196422577        44.9225986237199    4.08435928146211E-06            255084.40625           101705.203125        288.434387207031       0.107415303587914       0.317170584051334                       0 
     -0.147617617617618                   0.025        1.22836196422577        44.9225966389314    4.14404874477149E-06            255084.40625           101705.203125        288.434387207031       0.107415303587914       0.317170053390885                       0 
     -0.147277277277277                   0.025        1.22836196422577        44.9225946541428    4.20373820808086E-06            255084.40625           101705.203125        288.434387207031       0.107415303587914       0.317169522730437                       0 
     -0.146936936936937                   0.025        1.22836196422577        44.9225939101119    4.17681175862135E-06            255084.40625           101705.203125        288.434387207031       0.107415303587914       0.317169013409351                       0 
     -0.146596596596597                   0.025        1.22836196422577        44.9225939116776    4.09783602895363E-06            255084.40625           101705.203125        288.434387207031       0.107415303587914       0.317168516911527                       0 
     -0.146256256256256                   0.025        1.22836196422577        44.9225939132434     4.0188602992859E-06            255084.40625           101705.203125        288.434387207031       0.107415303587914       0.317168020413703                       0 
     -0.145915915915916                   0.025        1.22836196422577        44.9225939148092    3.93988456961817E-06            255084.40625           101705.203125        288.434387207031       0.107415303587914       0.317167523915878                       0 
     -0.145575575575576                   0.025        1.22836196422577        44.9225954545315    3.65498460625356E-06            255084.40625           101705.203125        288.434387207031       0.107415303587914       0.317166967645163                       0 
     -0.145235235235235                   0.025        1.22836196422577        44.9225970301265    3.36528211987385E-06            255084.40625           101705.203125        288.434387207031       0.107415303587914       0.317166409980437                       0 
     -0.144894894894895                   0.025        1.22836196422577        44.9225986057214    3.07557963349413E-06            255084.40625           101705.203125        288.434387207031       0.107415303587914       0.317165852315711                       0 
     -0.144554554554555                   0.025        1.22836196422577        44.9225997924805    2.75519118147419E-06            255084.40625           101705.203125        288.434387207031       0.107415303587914       0.317165300858361                       0 
     -0.144214214214214                   0.025        1.22836196422577        44.9225997924805     2.3411466471798E-06            255084.40625           101705.203125        288.434387207031       0.107415303587914       0.317164768346435                       0 
     -0.143873873873874                   0.025        1.22836196422577        44.9225997924805    1.92710211288542E-06            255084.40625           101705.203125        288.434387207031       0.107415303587914       0.317164235834509                       0 
     -0.143533533533534                   0.025        1.22836196422577        44.9225997924805    1.51305757859104E-06            255084.40625           101705.203125        288.434387207031       0.107415303587914       0.317163703322583                       0 
     -0.143193193193193                   0.025        1.22836196422577        44.9225997924805     1.1203219719708E-06            255084.40625           101705.203125        288.434387207031       0.107415303587914       0.317163179821246                       0 
     -0.142852852852853                   0.025        1.22836196422577        44.9225997924805    7.41439042569123E-07            255084.40625           101705.203125        288.434387207031       0.107415303587914       0.317162662177584                       0 
     -0.142512512512513                   0.025        1.22836196422577        44.9225997924805    3.62556113167448E-07            255084.40625           101705.203125        288.434387207031       0.107415303587914       0.317162144533921                       0 
     -0.142172172172172                   0.025        1.22836196422577        44.9225997924805   -1.63268162342271E-08            255084.40625           101705.203125        288.434387207031       0.107415303587914       0.317161626890259                       0 
     -0.141831831831832                   0.025        1.22836196422577         44.922600978875   -3.02697333240222E-07            255084.40625           101705.203125        288.434387207031       0.107415303587914       0.317161097905162                       0 
     -0.141491491491491                   0.025        1.22836196422577        44.9226025192774   -5.61463098811667E-07            255084.40625           101705.203125        288.434387207031       0.107415303587914       0.317160565535897                       0 
     -0.141151151151151                   0.025        1.22836196422577        44.9226040596798   -8.20228864383112E-07            255084.40625           101705.203125        288.434387207031       0.107415303587914       0.317160033166632                       0 
     -0.140810810810811                   0.025        1.22836196422577        44.9226056042349   -1.07935341978806E-06            255084.40625           101705.203125        288.434387207031       0.107415303587914       0.317159501474244                       0 
      -0.14047047047047                   0.025        1.22836196422577         44.922607179232   -1.34110818196563E-06            255084.40625           101705.203125        288.434387207031       0.107415303587914       0.317158974743888                       0 
      -0.14013013013013                   0.025        1.22836196422577         44.922608754229   -1.60286294414318E-06            255084.40625           101705.203125        288.434387207031       0.107415303587914       0.317158448013533                       0 
      -0.13978978978979                   0.025        1.22836196422577        44.9226103292261   -1.86461770632073E-06            255084.40625           101705.203125        288.434387207031       0.107415303587914       0.317157921283177                       0 
     -0.139449449449449                   0.025        1.22836196422577        44.9226112365723   -2.07450385407403E-06        255084.399896187           101705.203125        288.434387207031       0.107415303587914       0.317157386996819                       0 
     -0.139109109109109                   0.025        1.22836196422577        44.9226112365723   -2.21389989433535E-06        255084.384907461           101705.203125        288.434387207031       0.107415303587914       0.317156842441755                       0 
     -0.138768768768769                   0.025        1.22836196422577        44.9226112365723   -2.35329593459667E-06        255084.369918735           101705.203125        288.434387207031       0.107415303587914       0.317156297886692                       0 
     -0.138428428428428                   0.025        1.22836196422577        44.9226112365723   -2.49269197485798E-06        255084.354930009           101705.203125        288.434387207031       0.107415303587914       0.317155753331628                       0 
     -0.138088088088088                   0.025        1.22836196422577        44.9226112365723   -2.58044658777315E-06        255084.339755949           101705.203125        288.434387207031       0.107415303587914       0.317155210973162                       0 
     -0.137747747747748                   0.025        1.22836196422577        44.9226112365723   -2.64132237574829E-06        255084.324485425           101705.203125        288.434387207031       0.107415303587914       0.317154669758001                       0 
     -0.137407407407407                   0.025        1.22836196422577        44.9226112365723   -2.70219816372343E-06        255084.309214901           101705.203125        288.434387207031       0.107415303587914        0.31715412854284                       0 
     -0.137067067067067                   0.025        1.22836196422577        44.9226112365723   -2.73924628664177E-06           255084.296875           101705.203125        288.434387207031       0.107415303587914       0.317153588559341                       0 
     -0.136726726726727                   0.025        1.22836196422577        44.9226112365723   -2.67596382966019E-06           255084.296875           101705.203125        288.434387207031       0.107415303587914       0.317153053761967                       0 
     -0.136386386386386                   0.025        1.22836196422577        44.9226112365723   -2.61268137267861E-06           255084.296875           101705.203125        288.434387207031       0.107415303587914       0.317152518964593                       0 
     -0.136046046046046                   0.025        1.22836196422577        44.9226112365723   -2.54939891569703E-06           255084.296875           101705.203125        288.434387207031       0.107415303587914       0.317151984167219                       0 
     -0.135705705705706                   0.025        1.22836196422577        44.9226112365723   -2.47213518801115E-06           255084.296875           101705.203125        288.434387207031       0.107415308343521       0.317151452105425                       0 
     -0.135365365365365                   0.025        1.22836196422577        44.9226112365723   -2.37105472429787E-06           255084.296875           101705.203125        288.434387207031       0.107415321200183       0.317150924703622                       0 
     -0.135025025025025                   0.025        1.22836196422577        44.9226112365723   -2.26997426058459E-06           255084.296875           101705.203125        288.434387207031       0.107415334056845       0.317150397301818                       0 
     -0.134684684684685                   0.025        1.22836196422577        44.9226112365723    -2.1688937968713E-06           255084.296875           101705.203125        288.434387207031       0.107415346913508       0.317149869900015                       0 
     -0.134344344344344                   0.025        1.22836196422577        44.9226112365723   -1.97287982464635E-06           255084.296875           101705.203125        288.434387207031       0.107415347025207       0.317149343098932                       0 
     -0.134004004004004                   0.025        1.22836196422577        44.9226112365723   -1.77287319096574E-06           255084.296875           101705.203125        288.434387207031       0.107415346600887       0.317148816323114                       0 
     -0.133663663663664                   0.025        1.22836196422577        44.9226112365723   -1.57286655728512E-06           255084.296875           101705.203125        288.434387207031       0.107415346176566       0.317148289547296                       0 
     -0.133323323323323                   0.025        1.22836196422577        44.9226112365723   -1.37285992360448E-06           255084.296875           101705.203125        288.434387207031       0.107415345752245       0.317147762771478                       0 
     -0.132982982982983                   0.025        1.22836196422577        44.9226120966065   -1.18729264199929E-06           255084.296875           101705.203125        288.434387207031       0.107415345425677       0.317147230314936                       0 
     -0.132642642642643                   0.025        1.22836196422577        44.9226131269542   -1.00458480003183E-06           255084.296875           101705.203125        288.434387207031       0.107415345118466       0.317146696733434                       0 
     -0.132302302302302                   0.025        1.22836196422577        44.9226141573019   -8.21876958064371E-07           255084.296875           101705.203125        288.434387207031       0.107415344811256       0.317146163151932                       0 
     -0.131961961961962                   0.025        1.22836196422577        44.9226144603216   -5.85798609739069E-07           255084.296875           101705.203125        288.434387207031       0.107415344514419       0.317145638289451                       0 
     -0.131621621621622                   0.025        1.22836196422577        44.9226144373062   -3.25796181616572E-07           255084.296875           101705.203125        288.434387207031       0.107415344222231       0.317145117335393                       0 
     -0.131281281281281                   0.025        1.22836196422577        44.9226144142908   -6.57937534940971E-08           255084.296875           101705.203125        288.434387207031       0.107415343930044       0.317144596381335                       0 
     -0.130940940940941                   0.025        1.22836196422577        44.9226143912754    1.94208674628378E-07           255084.296875           101705.203125        288.434387207031       0.107415343637856       0.317144075427277                       0 
     -0.130600600600601                   0.025        1.22836196422577        44.9226143689092    4.50342033324238E-07           255084.296875        101705.197201549        288.434387207031        0.10741534335391       0.317143553810609                       0 
      -0.13026026026026                   0.025        1.22836196422577        44.9226143474026    7.01351674609661E-07           255084.296875        101705.183433813        288.434387207031       0.107415343080877       0.317143031316464                       0 
      -0.12991991991992                   0.025        1.22836196422577        44.9226143258961    9.52361315895064E-07           255084.296875        101705.169666077        288.434387207031       0.107415342807845       0.317142508822318                       0 
      -0.12957957957958                   0.025        1.22836196422577         44.922614304833    1.22933427577246E-06           255084.296875        101705.155889657        288.434387207031       0.107415342540443       0.317141987988197                       0 
     -0.129239239239239                   0.025        1.22836196422577        44.9226142843023    1.53746607619039E-06           255084.296875        101705.142102818        288.434387207031       0.107415342279799       0.317141469146287                       0 
     -0.128898898898899                   0.025        1.22836196422577        44.9226142637715    1.84559787660835E-06           255084.296875        101705.128315979        288.434387207031       0.107415342019154       0.317140950304378                       0 
     -0.128558558558559                   0.025        1.22836196422577        44.9226142432408    2.15372967702628E-06           255084.296875         101705.11452914        288.434387207031        0.10741534175851       0.317140431462468                       0 
     -0.128218218218218                   0.025        1.22836196422577        44.9226143154891    2.46075311638934E-06           255084.296875          101705.1015625        288.434387207031       0.107415341498565       0.317139913258075                       0 
     -0.127877877877878                   0.025        1.22836196422577        44.9226158544938    2.75025432959261E-06           255084.296875          101705.1015625        288.434387207031       0.107415341249671       0.317139405132252                       0 
     -0.127537537537538                   0.025        1.22836196422577        44.9226173934984    3.03975554279588E-06           255084.296875          101705.1015625        288.434387207031       0.107415341000776       0.317138897006429                       0 
     -0.127197197197197                   0.025        1.22836196422577        44.9226185553909    3.33914217871862E-06           255084.296875          101705.1015625        288.434387207031       0.107415340753789       0.317138388683474                       0 
     -0.126856856856857                   0.025        1.22836196422577        44.9226185079579    3.67022944366412E-06           255084.296875          101705.1015625        288.434387207031       0.107415340512919       0.317137879728356                       0 
     -0.126516516516517                   0.025        1.22836196422577         44.922618460525    4.00131670860963E-06           255084.296875          101705.1015625        288.434387207031       0.107415340272048       0.317137370773237                       0 
     -0.126176176176176                   0.025        1.22836196422577         44.922618413092    4.33240397355516E-06           255084.296875          101705.1015625        288.434387207031       0.107415340031178       0.317136861818118                       0 
     -0.125835835835836                   0.025        1.22836196422577         44.922618365659    4.66349123850067E-06           255084.296875          101705.1015625        288.434387207031       0.107415339790307          0.317136352863                       0 
     -0.125495495495495                   0.025        1.22836196422577        44.9226183190907    4.97609260659458E-06           255084.296875          101705.1015625        288.434387207031       0.107415339553828       0.317135843044542                       0 
     -0.125155155155155                   0.025        1.22836196422577        44.9226182728491    5.28171091841248E-06           255084.296875          101705.1015625        288.434387207031       0.107415339319007       0.317135332899957                       0 
     -0.124814814814815                   0.025        1.22836196422577        44.9226182266438     5.5886638484565E-06           255084.296875          101705.1015625        288.434387207031       0.107415339710073       0.317134822522135                       0 
     -0.124474474474474                   0.025        1.22836196422577        44.9226181811858    5.92309313751211E-06           255084.296875          101705.1015625        288.434387207031       0.107415352986552       0.317134307342553                       0 
     -0.124134134134134                   0.025        1.22836196422577        44.9226181357279    6.25752242656775E-06           255084.296875          101705.1015625        288.434387207031        0.10741536626303       0.317133792162971                       0 
     -0.123793793793794                   0.025        1.22836196422577        44.9226180902699    6.59195171562336E-06           255084.296875          101705.1015625        288.434387207031       0.107415379539509       0.317133276983389                       0 
     -0.123453453453453                   0.025        1.22836196422577         44.922618044812    6.92638100467899E-06           255084.296875          101705.1015625        288.434387207031       0.107415392815987       0.317132761803807                       0 
     -0.123113113113113                   0.025        1.22836196422577        44.9226179996723    7.24321666523749E-06           255084.296875          101705.1015625        288.434387207031       0.107415400445461       0.317132253208201                       0 
     -0.122772772772773                   0.025        1.22836196422577        44.9226179549627    7.53628217841141E-06           255084.296875          101705.1015625        288.434387207031       0.107415400445461       0.317131753507978                       0 
     -0.122432432432432                   0.025        1.22836196422577        44.9226179102531    7.82934769158533E-06           255084.296875          101705.1015625        288.434387207031       0.107415400445461       0.317131253807755                       0 
     -0.122092092092092                   0.025        1.22836196422577        44.9226178656797    8.14053137693231E-06           255084.296875          101705.1015625        288.434387207031       0.107415400445461       0.317130757179631                       0 
     -0.121751751751752                   0.025        1.22836196422577        44.9226178211248    8.45419511260215E-06           255084.296875          101705.1015625        288.434387207031       0.107415400445461       0.317130260972023                       0 
     -0.121411411411411                   0.025        1.22836196422577          44.92261777657    8.76785884827199E-06           255084.296875          101705.1015625        288.434387207031       0.107415400445461       0.317129764764415                       0 
     -0.121071071071071                   0.025        1.22836196422577        44.9226177320152    9.08152258394182E-06           255084.296875          101705.1015625        288.434387207031       0.107415400445461       0.317129268556806                       0 
     -0.120730730730731                   0.025        1.22836196422577        44.9226176875754    9.38627826245079E-06           255084.296875          101705.1015625        288.434387207031       0.107415400445461       0.317128772246768                       0 
      -0.12039039039039                   0.025        1.22836196422577        44.9226176437865    9.64067278953219E-06           255084.296875          101705.1015625        288.434387207031       0.107415400445461       0.317128275357648                       0 
      -0.12005005005005                   0.025        1.22836196422577        44.9226175999975    9.89506731661361E-06           255084.296875          101705.1015625        288.434387207031       0.107415400445461       0.317127778468528                       0 
      -0.11970970970971                   0.025        1.22836196422577        44.9226175559781    1.01611994951479E-05           255084.296875          101705.1015625        288.434387207031       0.107415400445461        0.31712728738351                       0 
     -0.119369369369369                   0.025        1.22836196422577        44.9226175118745    1.04316176904388E-05           255084.296875          101705.1015625        288.434387207031       0.107415400445461       0.317126798417867                       0 
     -0.119029029029029                   0.025        1.22836196422577        44.9226174677709    1.07020358857296E-05           255084.296875          101705.1015625        288.434387207031       0.107415400445461       0.317126309452224                       0 
     -0.118688688688689                   0.025        1.22836196422577        44.9226174236673    1.09724540810205E-05           255084.296875          101705.1015625        288.434387207031       0.107415400445461       0.317125820486581                       0 
     -0.118348348348348                   0.025        1.22836196422577        44.9226173795638    1.12428722763113E-05           255084.296875          101705.1015625        288.434387207031       0.107415400445461       0.317125331520938                       0 
     -0.118008008008008                   0.025        1.22836196422577        44.9226187483683    1.14412927679878E-05           255084.296875          101705.1015625        288.434387207031       0.107415400445461       0.317124842059719                       0 
     -0.117667667667668                   0.025        1.22836196422577        44.9226202848684    1.16311679796244E-05           255084.296875          101705.1015625        288.434387207031       0.107415400445461       0.317124352539682                       0 
     -0.117327327327327                   0.025        1.22836196422577         44.922620857463    1.18298330119561E-05        255084.288980345          101705.1015625        288.434387207031       0.107415400445461       0.317123872948599                       0 
     -0.116986986986987                   0.025        1.22836196422577        44.9226207873086     1.2034359249935E-05        255084.275821396          101705.1015625        288.434387207031       0.107415400445461       0.317123399978316                       0 
     -0.116646646646647                   0.025        1.22836196422577        44.9226207171543     1.2238885487914E-05        255084.262662447          101705.1015625        288.434387207031       0.107415400445461       0.317122927008034                       0 
     -0.116306306306306                   0.025        1.22836196422577        44.9226206469999    1.24434117258929E-05        255084.249503498          101705.1015625        288.434387207031       0.107415400445461       0.317122454037751                       0 
     -0.115965965965966                   0.025        1.22836196422577        44.9226205768455    1.26479379638719E-05        255084.236344549          101705.1015625        288.434387207031       0.107415400445461       0.317121981067468                       0 
     -0.115625625625626                   0.025        1.22836187849813        44.9226205079132     1.2785463578552E-05        255084.223179189          101705.1015625        288.434387207031       0.107415400445461       0.317121515833798                       0 
     -0.115285285285285                   0.025        1.22836174667169         44.922620439638     1.2886960579693E-05        255084.210010382          101705.1015625        288.434387207031       0.107415400445461        0.31712105476038                       0 
     -0.114944944944945                   0.025        1.22836161485865        44.9226203705133    1.29957359295379E-05           255084.203125          101705.1015625        288.434381069611       0.107415400445461       0.317120587692546                       0 
     -0.114604604604605                   0.025        1.22836148306028        44.9226203004577     1.3112486900041E-05           255084.203125          101705.1015625        288.434368206801       0.107415400445461       0.317120114056028                       0 
     -0.114264264264264                   0.025        1.22836135126191        44.9226202304021    1.32292378705441E-05           255084.203125          101705.1015625         288.43435534399       0.107415400445461       0.317119640419509                       0 
     -0.113923923923924                   0.025        1.22836121946354        44.9226201603464    1.33459888410471E-05           255084.203125          101705.1015625        288.434342481179       0.107415400445461       0.317119166782991                       0 
     -0.113583583583584                   0.025        1.22836108766517        44.9226200902908    1.34627398115502E-05           255084.203125          101705.1015625        288.434329618369       0.107415400445461       0.317118693146472                       0 
     -0.113243243243243                   0.025        1.22836101055145        44.9226193641054     1.3527852448468E-05           255084.203125          101705.1015625        288.434316751721       0.107415400445461       0.317118219319786                       0 
     -0.112902902902903                   0.025        1.22836101055145         44.922617712677    1.35201471515803E-05           255084.203125          101705.1015625         288.43430387966       0.107415400445461       0.317117745224935                       0 
     -0.112562562562563                   0.025        1.22836101055145         44.922616641539    1.35188009245356E-05           255084.203125          101705.1015625        288.434295654297       0.107415400445461       0.317117281773188                       0 
     -0.112222222222222                   0.025        1.22836101055145        44.9226165976038    1.35287112227199E-05           255084.203125          101705.1015625        288.434295654297       0.107415400445461       0.317116837161361                       0 