TITLE = "SU2 Simulation"
VARIABLES = "Iteration","CL","CD","CSF","CMx","CMy","CMz","CFx","CFy","CFz","CL/CD","AoA","Custom_ObjFunc","Res_Flow[0]","Res_Flow[1]","Res_Flow[2]","Res_Flow[3]","Res_Flow[4]","Avg_MassFlow","Avg_Mach","Avg_Temp","Avg_Press","Avg_Density","Avg_Enthalpy","Avg_NormalVel","Uniformity","Secondary_Strength","Momentum_Distortion","Secondary_Over_Uniformity","Avg_TotalTemp","Avg_TotalPress","Pressure_Drop","Linear_Solver_Iterations","CFL_Number","Time(min)"
ZONE T= "Convergence history"
           0, 0.00000000e+00, -8.00446305e-15, 0.00000000e+00, 0.00000000e+00, 0.00000000e+00, 0.00000000e+00, 0.00000000e+00, 0.00000000e+00, 0.00000000e+00, -0.00000000e+00, 0.00000000e+00, 0.00000000e+00, -1.62443716e+01, -1.32514527e+01, -1.32295822e+01, -1.09138774e+01, 0.00000000e+00, 0.00000000e+00, 0.00000000e+00, 0.00000000e+00, 0.00000000e+00, 0.00000000e+00, 0.00000000e+00, 0.00000000e+00, 0.00000000e+00, 0.00000000e+00, 0.00000000e+00,            nan, 0.00000000e+00, 0.00000000e+00, 0.00000000e+00, 5.0000000000, 10.0000000000, 0.0012259833
           1, 0.00000000e+00, 2.58371814e+01, 0.00000000e+00, 0.00000000e+00, 0.00000000e+00, -8.49371978e-04, -6.75093156e-04, 0.00000000e+00, 0.00000000e+00, 0.00000000e+00, 0.00000000e+00, 0.00000000e+00, -1.12863030e+01, -8.71623450e+00, 7.50725320e-01, -5.80941900e+00, 0.00000000e+00, 0.00000000e+00, 0.00000000e+00, 0.00000000e+00, 0.00000000e+00, 0.00000000e+00, 0.00000000e+00, 0.00000000e+00, 0.00000000e+00, 0.00000000e+00, 0.00000000e+00,            nan, 0.00000000e+00, 0.00000000e+00, 0.00000000e+00, 5.0000000000, 10.0000000000, 0.0031359833
           2, 0.00000000e+00, 7.57011498e+01, 0.00000000e+00, 0.00000000e+00, 0.00000000e+00, -2.49740442e-03, -7.19413659e-03, 0.00000000e+00, 0.00000000e+00, 0.00000000e+00, 0.00000000e+00, 0.00000000e+00, -4.22225650e+00, -1.20162649e+00, 7.35435906e-01, 1.22652118e+00, 0.00000000e+00, 0.00000000e+00, 0.00000000e+00, 0.00000000e+00, 0.00000000e+00, 0.00000000e+00, 0.00000000e+00, 0.00000000e+00, 0.00000000e+00, 0.00000000e+00, 0.00000000e+00,            nan, 0.00000000e+00, 0.00000000e+00, 0.00000000e+00, 5.0000000000, 10.0000000000, 0.0043839167
           3, 0.00000000e+00, 1.29159847e+02, 0.00000000e+00, 0.00000000e+00, 0.00000000e+00, -4.32409950e-03, -2.54711362e-02, 0.00000000e+00, 0.00000000e+00, 0.00000000e+00, 0.00000000e+00, 0.00000000e+00, -3.95068913e+00, -7.76718515e-01, 7.04893266e-01, 1.49400249e+00, 0.00000000e+00, 0.00000000e+00, 0.00000000e+00, 0.00000000e+00, 0.00000000e+00, 0.00000000e+00, 0.00000000e+00, 0.00000000e+00, 0.00000000e+00, 0.00000000e+00, 0.00000000e+00,            nan, 0.00000000e+00, 0.00000000e+00, 0.00000000e+00, 5.0000000000, 10.0000000000, 0.0056332333
           4, 0.00000000e+00, 1.78334669e+02, 0.00000000e+00, 0.00000000e+00, 0.00000000e+00, -5.66873934e-03, -5.44714091e-02, 0.00000000e+00, 0.00000000e+00, 0.00000000e+00, 0.00000000e+00, 0.00000000e+00, -3.92901180e+00, -5.97784422e-01, 6.70523539e-01, 1.51822588e+00, 0.00000000e+00, 0.00000000e+00, 0.00000000e+00, 0.00000000e+00, 0.00000000e+00, 0.00000000e+00, 0.00000000e+00, 0.00000000e+00, 0.00000000e+00, 0.00000000e+00, 0.00000000e+00,            nan, 0.00000000e+00, 0.00000000e+00, 0.00000000e+00, 5.0000000000, 10.0000000000, 0.0068099667
           5, 0.00000000e+00, 2.26550837e+02, 0.00000000e+00, 0.00000000e+00, 0.00000000e+00, -6.58493107e-03, -9.32012242e-02, 0.00000000e+00, 0.00000000e+00, 0.00000000e+00, 0.00000000e+00, 0.00000000e+00, -3.80953567e+00, -5.13044366e-01, 6.37240260e-01, 1.64894304e+00, 0.00000000e+00, 0.00000000e+00, 0.00000000e+00, 0.00000000e+00, 0.00000000e+00, 0.00000000e+00, 0.00000000e+00, 0.00000000e+00, 0.00000000e+00, 0.00000000e+00, 0.00000000e+00,            nan, 0.00000000e+00, 0.00000000e+00, 0.00000000e+00, 5.0000000000, 10.0000000000, 0.0079554667
           6, 0.00000000e+00, 2.73752563e+02, 0.00000000e+00, 0.00000000e+00, 0.00000000e+00, -7.08567970e-03, -1.39933747e-01, 0.00000000e+00, 0.00000000e+00, 0.00000000e+00, 0.00000000e+00, 0.00000000e+00, -3.64686310e+00, -4.69059872e-01, 6.02855936e-01, 1.81467608e+00, 0.00000000e+00, 0.00000000e+00, 0.00000000e+00, 0.00000000e+00, 0.00000000e+00, 0.00000000e+00, 0.00000000e+00, 0.00000000e+00, 0.00000000e+00, 0.00000000e+00, 0.00000000e+00,            nan, 0.00000000e+00, 0.00000000e+00, 0.00000000e+00, 5.0000000000, 10.0000000000, 0.0090968333
           7, 0.00000000e+00, 3.19110088e+02, 0.00000000e+00, 0.00000000e+00, 0.00000000e+00, -7.19197265e-03, -1.92178431e-01, 0.00000000e+00, 0.00000000e+00, 0.00000000e+00, 0.00000000e+00, 0.00000000e+00, -3.52211919e+00, -4.52175096e-01, 5.67335450e-01, 1.93978792e+00, 0.00000000e+00, 0.00000000e+00, 0.00000000e+00, 0.00000000e+00, 0.00000000e+00, 0.00000000e+00, 0.00000000e+00, 0.00000000e+00, 0.00000000e+00, 0.00000000e+00, 0.00000000e+00,            nan, 0.00000000e+00, 0.00000000e+00, 0.00000000e+00, 5.0000000000, 10.0000000000, 0.0103619833
           8, 0.00000000e+00, 3.62269540e+02, 0.00000000e+00, 0.00000000e+00, 0.00000000e+00, -6.96010958e-03, -2.47671138e-01, 0.00000000e+00, 0.00000000e+00, 0.00000000e+00, 0.00000000e+00, 0.00000000e+00, -3.43251233e+00, -4.56340276e-01, 5.31266569e-01, 2.02946099e+00, 0.00000000e+00, 0.00000000e+00, 0.00000000e+00, 0.00000000e+00, 0.00000000e+00, 0.00000000e+00, 0.00000000e+00, 0.00000000e+00, 0.00000000e+00, 0.00000000e+00, 0.00000000e+00,            nan, 0.00000000e+00, 0.00000000e+00, 0.00000000e+00, 5.0000000000, 10.0000000000, 0.0115037667
           9, 0.00000000e+00, 4.03100628e+02, 0.00000000e+00, 0.00000000e+00, 0.00000000e+00, -6.44882967e-03, -3.04458418e-01, 0.00000000e+00, 0.00000000e+00, 0.00000000e+00, 0.00000000e+00, 0.00000000e+00, -3.37030827e+00, -4.77994240e-01, 4.94961167e-01, 2.09175737e+00, 0.00000000e+00, 0.00000000e+00, 0.00000000e+00, 0.00000000e+00, 0.00000000e+00, 0.00000000e+00, 0.00000000e+00, 0.00000000e+00, 0.00000000e+00, 0.00000000e+00, 0.00000000e+00,            nan, 0.00000000e+00, 0.00000000e+00, 0.00000000e+00, 5.0000000000, 10.0000000000, 0.0126843167
          10, 0.00000000e+00, 4.41578209e+02, 0.00000000e+00, 0.00000000e+00, 0.00000000e+00, -5.70796119e-03, -3.60817119e-01, 0.00000000e+00, 0.00000000e+00, 0.00000000e+00, 0.00000000e+00, 0.00000000e+00, -3.33095089e+00, -5.15165659e-01, 4.58598952e-01, 2.13125407e+00, 0.00000000e+00, 0.00000000e+00, 0.00000000e+00, 0.00000000e+00, 0.00000000e+00, 0.00000000e+00, 0.00000000e+00, 0.00000000e+00, 0.00000000e+00, 0.00000000e+00, 0.00000000e+00,            nan, 0.00000000e+00, 0.00000000e+00, 0.00000000e+00, 5.0000000000, 10.0000000000, 0.0139246667
          11, 0.00000000e+00, 4.77733407e+02, 0.00000000e+00, 0.00000000e+00, 0.00000000e+00, -4.78118400e-03, -4.15194791e-01, 0.00000000e+00, 0.00000000e+00, 0.00000000e+00, 0.00000000e+00, 0.00000000e+00, -3.31195428e+00, -5.66866666e-01, 4.22298410e-01, 2.15043638e+00, 0.00000000e+00, 0.00000000e+00, 0.00000000e+00, 0.00000000e+00, 0.00000000e+00, 0.00000000e+00, 0.00000000e+00, 0.00000000e+00, 0.00000000e+00, 0.00000000e+00, 0.00000000e+00,            nan, 0.00000000e+00, 0.00000000e+00, 0.00000000e+00, 5.0000000000, 10.0000000000, 0.0150900833
          12, 0.00000000e+00, 5.11630052e+02, 0.00000000e+00, 0.00000000e+00, 0.00000000e+00, -3.71095513e-03, -4.66207028e-01, 0.00000000e+00, 0.00000000e+00, 0.00000000e+00, 0.00000000e+00, 0.00000000e+00, -3.31190451e+00, -6.32786481e-01, 3.86144582e-01, 2.15073176e+00, 0.00000000e+00, 0.00000000e+00, 0.00000000e+00, 0.00000000e+00, 0.00000000e+00, 0.00000000e+00, 0.00000000e+00, 0.00000000e+00, 0.00000000e+00, 0.00000000e+00, 0.00000000e+00,            nan, 0.00000000e+00, 0.00000000e+00, 0.00000000e+00, 5.0000000000, 10.0000000000, 0.0162200000
          13, 0.00000000e+00, 5.43351689e+02, 0.00000000e+00, 0.00000000e+00, 0.00000000e+00, -2.54030493e-03, -5.12683907e-01, 0.00000000e+00, 0.00000000e+00, 0.00000000e+00, 0.00000000e+00, 0.00000000e+00, -3.32997665e+00, -7.13181908e-01, 3.50200950e-01, 2.13299294e+00, 0.00000000e+00, 0.00000000e+00, 0.00000000e+00, 0.00000000e+00, 0.00000000e+00, 0.00000000e+00, 0.00000000e+00, 0.00000000e+00, 0.00000000e+00, 0.00000000e+00, 0.00000000e+00,            nan, 0.00000000e+00, 0.00000000e+00, 0.00000000e+00, 5.0000000000, 10.0000000000, 0.0174312667
          14, 0.00000000e+00, 5.72993660e+02, 0.00000000e+00, 0.00000000e+00, 0.00000000e+00, -1.31153418e-03, -5.53743544e-01, 0.00000000e+00, 0.00000000e+00, 0.00000000e+00, 0.00000000e+00, 0.00000000e+00, -3.36578325e+00, -8.08767067e-01, 3.14515127e-01, 2.09764441e+00, 0.00000000e+00, 0.00000000e+00, 0.00000000e+00, 0.00000000e+00, 0.00000000e+00, 0.00000000e+00, 0.00000000e+00, 0.00000000e+00, 0.00000000e+00, 0.00000000e+00, 0.00000000e+00,            nan, 0.00000000e+00, 0.00000000e+00, 0.00000000e+00, 5.0000000000, 10.0000000000, 0.0186547000
          15, 0.00000000e+00, 6.00657821e+02, 0.00000000e+00, 0.00000000e+00, 0.00000000e+00, -6.36412891e-05, -5.88865840e-01, 0.00000000e+00, 0.00000000e+00, 0.00000000e+00, 0.00000000e+00, 0.00000000e+00, -3.41939071e+00, -9.20055267e-01, 2.79121909e-01, 2.04465031e+00, 0.00000000e+00, 0.00000000e+00, 0.00000000e+00, 0.00000000e+00, 0.00000000e+00, 0.00000000e+00, 0.00000000e+00, 0.00000000e+00, 0.00000000e+00, 0.00000000e+00, 0.00000000e+00,            nan, 0.00000000e+00, 0.00000000e+00, 0.00000000e+00, 5.0000000000, 10.0000000000, 0.0199030500
          16, 0.00000000e+00, 6.26448802e+02, 0.00000000e+00, 0.00000000e+00, 0.00000000e+00, 1.17005033e-03, -6.17940139e-01, 0.00000000e+00, 0.00000000e+00, 0.00000000e+00, 0.00000000e+00, 0.00000000e+00, -3.49136942e+00, -1.04420877e+00, 2.44045505e-01, 1.97340595e+00, 0.00000000e+00, 0.00000000e+00, 0.00000000e+00, 0.00000000e+00, 0.00000000e+00, 0.00000000e+00, 0.00000000e+00, 0.00000000e+00, 0.00000000e+00, 0.00000000e+00, 0.00000000e+00,            nan, 0.00000000e+00, 0.00000000e+00, 0.00000000e+00, 5.0000000000, 10.0000000000, 0.0211358167
          17, 0.00000000e+00, 6.50471474e+02, 0.00000000e+00, 0.00000000e+00, 0.00000000e+00, 2.36332218e-03, -6.41267541e-01, 0.00000000e+00, 0.00000000e+00, 0.00000000e+00, 0.00000000e+00, 0.00000000e+00, -3.58264125e+00, -1.16370784e+00, 2.09301717e-01, 1.88267761e+00, 0.00000000e+00, 0.00000000e+00, 0.00000000e+00, 0.00000000e+00, 0.00000000e+00, 0.00000000e+00, 0.00000000e+00, 0.00000000e+00, 0.00000000e+00, 0.00000000e+00, 0.00000000e+00,            nan, 0.00000000e+00, 0.00000000e+00, 0.00000000e+00, 5.0000000000, 10.0000000000, 0.0223781500
          18, 0.00000000e+00, 6.72830811e+02, 0.00000000e+00, 0.00000000e+00, 0.00000000e+00, 3.49729258e-03, -6.59511200e-01, 0.00000000e+00, 0.00000000e+00, 0.00000000e+00, 0.00000000e+00, 0.00000000e+00, -3.69328971e+00, -1.22929066e+00, 1.74900082e-01, 1.77102289e+00, 0.00000000e+00, 0.00000000e+00, 0.00000000e+00, 0.00000000e+00, 0.00000000e+00, 0.00000000e+00, 0.00000000e+00, 0.00000000e+00, 0.00000000e+00, 0.00000000e+00, 0.00000000e+00,            nan, 0.00000000e+00, 0.00000000e+00, 0.00000000e+00, 5.0000000000, 10.0000000000, 0.0236100333
          19, 0.00000000e+00, 6.93640708e+02, 0.00000000e+00, 0.00000000e+00, 0.00000000e+00, 4.55932309e-03, -6.73601911e-01, 0.00000000e+00, 0.00000000e+00, 0.00000000e+00, 0.00000000e+00, 0.00000000e+00, -3.81713324e+00, -1.20433033e+00, 1.40843533e-01, 1.63965949e+00, 0.00000000e+00, 0.00000000e+00, 0.00000000e+00, 0.00000000e+00, 0.00000000e+00, 0.00000000e+00, 0.00000000e+00, 0.00000000e+00, 0.00000000e+00, 0.00000000e+00, 0.00000000e+00,            nan, 0.00000000e+00, 0.00000000e+00, 0.00000000e+00, 5.0000000000, 10.0000000000, 0.0249551333
          20, 0.00000000e+00, 7.13060127e+02, 0.00000000e+00, 0.00000000e+00, 0.00000000e+00, 5.54163899e-03, -6.84608983e-01, 0.00000000e+00, 0.00000000e+00, 0.00000000e+00, 0.00000000e+00, 0.00000000e+00, -3.92479275e+00, -1.13020491e+00, 1.07112777e-01, 1.50529455e+00, 0.00000000e+00, 0.00000000e+00, 0.00000000e+00, 0.00000000e+00, 0.00000000e+00, 0.00000000e+00, 0.00000000e+00, 0.00000000e+00, 0.00000000e+00, 0.00000000e+00, 0.00000000e+00,            nan, 0.00000000e+00, 0.00000000e+00, 0.00000000e+00, 5.0000000000, 10.0000000000, 0.0262388000
          21, 0.00000000e+00, 7.31305032e+02, 0.00000000e+00, 0.00000000e+00, 0.00000000e+00, 6.44477739e-03, -6.93537791e-01, 0.00000000e+00, 0.00000000e+00, 0.00000000e+00, 0.00000000e+00, 0.00000000e+00, -3.95725893e+00, -1.05234643e+00, 7.35959333e-02, 1.42648670e+00, 0.00000000e+00, 0.00000000e+00, 0.00000000e+00, 0.00000000e+00, 0.00000000e+00, 0.00000000e+00, 0.00000000e+00, 0.00000000e+00, 0.00000000e+00, 0.00000000e+00, 0.00000000e+00,            nan, 0.00000000e+00, 0.00000000e+00, 0.00000000e+00, 5.0000000000, 10.0000000000, 0.0273753833
          22, 0.00000000e+00, 7.48450586e+02, 0.00000000e+00, 0.00000000e+00, 0.00000000e+00, 7.27742763e-03, -7.01093912e-01, 0.00000000e+00, 0.00000000e+00, 0.00000000e+00, 0.00000000e+00, 0.00000000e+00, -3.90751958e+00, -9.85180688e-01, 4.00422292e-02, 1.45247064e+00, 0.00000000e+00, 0.00000000e+00, 0.00000000e+00, 0.00000000e+00, 0.00000000e+00, 0.00000000e+00, 0.00000000e+00, 0.00000000e+00, 0.00000000e+00, 0.00000000e+00, 0.00000000e+00,            nan, 0.00000000e+00, 0.00000000e+00, 0.00000000e+00, 5.0000000000, 10.0000000000, 0.0285219833
          23, 0.00000000e+00, 7.64466374e+02, 0.00000000e+00, 0.00000000e+00, 0.00000000e+00, 8.04609623e-03, -7.07790323e-01, 0.00000000e+00, 0.00000000e+00, 0.00000000e+00, 0.00000000e+00, 0.00000000e+00, -3.83123788e+00, -9.30499798e-01, 6.42475218e-03, 1.53133138e+00, 0.00000000e+00, 0.00000000e+00, 0.00000000e+00, 0.00000000e+00, 0.00000000e+00, 0.00000000e+00, 0.00000000e+00, 0.00000000e+00, 0.00000000e+00, 0.00000000e+00, 0.00000000e+00,            nan, 0.00000000e+00, 0.00000000e+00, 0.00000000e+00, 5.0000000000, 10.0000000000, 0.0297877500
          24, 0.00000000e+00, 7.79383739e+02, 0.00000000e+00, 0.00000000e+00, 0.00000000e+00, 8.75278051e-03, -7.14043064e-01, 0.00000000e+00, 0.00000000e+00, 0.00000000e+00, 0.00000000e+00, 0.00000000e+00, -3.76060634e+00, -8.87121238e-01, -2.70668045e-02, 1.61030002e+00, 0.00000000e+00, 0.00000000e+00, 0.00000000e+00, 0.00000000e+00, 0.00000000e+00, 0.00000000e+00, 0.00000000e+00, 0.00000000e+00, 0.00000000e+00, 0.00000000e+00, 0.00000000e+00,            nan, 0.00000000e+00, 0.00000000e+00, 0.00000000e+00, 5.0000000000, 10.0000000000, 0.0309180000
          25, 0.00000000e+00, 7.93270762e+02, 0.00000000e+00, 0.00000000e+00, 0.00000000e+00, 9.39317543e-03, -7.20045332e-01, 0.00000000e+00, 0.00000000e+00, 0.00000000e+00, 0.00000000e+00, 0.00000000e+00, -3.70281762e+00, -8.53389677e-01, -6.03387632e-02, 1.67536375e+00, 0.00000000e+00, 0.00000000e+00, 0.00000000e+00, 0.00000000e+00, 0.00000000e+00, 0.00000000e+00, 0.00000000e+00, 0.00000000e+00, 0.00000000e+00, 0.00000000e+00, 0.00000000e+00,            nan, 0.00000000e+00, 0.00000000e+00, 0.00000000e+00, 5.0000000000, 10.0000000000, 0.0320414667
          26, 0.00000000e+00, 8.06201159e+02, 0.00000000e+00, 0.00000000e+00, 0.00000000e+00, 9.95792265e-03, -7.25731755e-01, 0.00000000e+00, 0.00000000e+00, 0.00000000e+00, 0.00000000e+00, 0.00000000e+00, -3.65710662e+00, -8.27855700e-01, -9.33690252e-02, 1.72675042e+00, 0.00000000e+00, 0.00000000e+00, 0.00000000e+00, 0.00000000e+00, 0.00000000e+00, 0.00000000e+00, 0.00000000e+00, 0.00000000e+00, 0.00000000e+00, 0.00000000e+00, 0.00000000e+00,            nan, 0.00000000e+00, 0.00000000e+00, 0.00000000e+00, 5.0000000000, 10.0000000000, 0.0332132333
          27, 0.00000000e+00, 8.18245046e+02, 0.00000000e+00, 0.00000000e+00, 0.00000000e+00, 1.04349980e-02, -7.30833719e-01, 0.00000000e+00, 0.00000000e+00, 0.00000000e+00, 0.00000000e+00, 0.00000000e+00, -3.62119667e+00, -8.09338063e-01, -1.26155742e-01, 1.76729956e+00, 0.00000000e+00, 0.00000000e+00, 0.00000000e+00, 0.00000000e+00, 0.00000000e+00, 0.00000000e+00, 0.00000000e+00, 0.00000000e+00, 0.00000000e+00, 0.00000000e+00, 0.00000000e+00,            nan, 0.00000000e+00, 0.00000000e+00, 0.00000000e+00, 5.0000000000, 10.0000000000, 0.0343687333
          28, 0.00000000e+00, 8.29467127e+02, 0.00000000e+00, 0.00000000e+00, 0.00000000e+00, 1.08118125e-02, -7.34965513e-01, 0.00000000e+00, 0.00000000e+00, 0.00000000e+00, 0.00000000e+00, 0.00000000e+00, -3.59294873e+00, -7.96848854e-01, -1.58701482e-01, 1.79967097e+00, 0.00000000e+00, 0.00000000e+00, 0.00000000e+00, 0.00000000e+00, 0.00000000e+00, 0.00000000e+00, 0.00000000e+00, 0.00000000e+00, 0.00000000e+00, 0.00000000e+00, 0.00000000e+00,            nan, 0.00000000e+00, 0.00000000e+00, 0.00000000e+00, 5.0000000000, 10.0000000000, 0.0355353000
          29, 0.00000000e+00, 8.39926710e+02, 0.00000000e+00, 0.00000000e+00, 0.00000000e+00, 1.10769263e-02, -7.37712105e-01, 0.00000000e+00, 0.00000000e+00, 0.00000000e+00, 0.00000000e+00, 0.00000000e+00, -3.57064880e+00, -7.89530740e-01, -1.91010699e-01, 1.82591234e+00, 0.00000000e+00, 0.00000000e+00, 0.00000000e+00, 0.00000000e+00, 0.00000000e+00, 0.00000000e+00, 0.00000000e+00, 0.00000000e+00, 0.00000000e+00, 0.00000000e+00, 0.00000000e+00,            nan, 0.00000000e+00, 0.00000000e+00, 0.00000000e+00, 5.0000000000, 10.0000000000, 0.0367264500
          30, 0.00000000e+00, 8.49677967e+02, 0.00000000e+00, 0.00000000e+00, 0.00000000e+00, 1.12214370e-02, -7.38704277e-01, 0.00000000e+00, 0.00000000e+00, 0.00000000e+00, 0.00000000e+00, 0.00000000e+00, -3.55297968e+00, -7.86635652e-01, -2.23090827e-01, 1.84751785e+00, 0.00000000e+00, 0.00000000e+00, 0.00000000e+00, 0.00000000e+00, 0.00000000e+00, 0.00000000e+00, 0.00000000e+00, 0.00000000e+00, 0.00000000e+00, 0.00000000e+00, 0.00000000e+00,            nan, 0.00000000e+00, 0.00000000e+00, 0.00000000e+00, 5.0000000000, 10.0000000000, 0.0379120667
          31, 0.00000000e+00, 8.58770134e+02, 0.00000000e+00, 0.00000000e+00, 0.00000000e+00, 1.12402119e-02, -7.37672956e-01, 0.00000000e+00, 0.00000000e+00, 0.00000000e+00, 0.00000000e+00, 0.00000000e+00, -3.53895361e+00, -7.87537763e-01, -2.54953629e-01, 1.86554145e+00, 0.00000000e+00, 0.00000000e+00, 0.00000000e+00, 0.00000000e+00, 0.00000000e+00, 0.00000000e+00, 0.00000000e+00, 0.00000000e+00, 0.00000000e+00, 0.00000000e+00, 0.00000000e+00,            nan, 0.00000000e+00, 0.00000000e+00, 0.00000000e+00, 5.0000000000, 10.0000000000, 0.0390684667
          32, 0.00000000e+00, 8.67247789e+02, 0.00000000e+00, 0.00000000e+00, 0.00000000e+00, 1.11330032e-02, -7.34479092e-01, 0.00000000e+00, 0.00000000e+00, 0.00000000e+00, 0.00000000e+00, 0.00000000e+00, -3.52786315e+00, -7.91760405e-01, -2.86616035e-01, 1.88068351e+00, 0.00000000e+00, 0.00000000e+00, 0.00000000e+00, 0.00000000e+00, 0.00000000e+00, 0.00000000e+00, 0.00000000e+00, 0.00000000e+00, 0.00000000e+00, 0.00000000e+00, 0.00000000e+00,            nan, 0.00000000e+00, 0.00000000e+00, 0.00000000e+00, 5.0000000000, 10.0000000000, 0.0401805500
          33, 0.00000000e+00, 8.75151379e+02, 0.00000000e+00, 0.00000000e+00, 0.00000000e+00, 1.09052630e-02, -7.29121444e-01, 0.00000000e+00, 0.00000000e+00, 0.00000000e+00, 0.00000000e+00, 0.00000000e+00, -3.51924878e+00, -7.98994338e-01, -3.18100591e-01, 1.89335211e+00, 0.00000000e+00, 0.00000000e+00, 0.00000000e+00, 0.00000000e+00, 0.00000000e+00, 0.00000000e+00, 0.00000000e+00, 0.00000000e+00, 0.00000000e+00, 0.00000000e+00, 0.00000000e+00,            nan, 0.00000000e+00, 0.00000000e+00, 0.00000000e+00, 5.0000000000, 10.0000000000, 0.0413366833
          34, 0.00000000e+00, 8.82517974e+02, 0.00000000e+00, 0.00000000e+00, 0.00000000e+00, 1.05684974e-02, -7.21729806e-01, 0.00000000e+00, 0.00000000e+00, 0.00000000e+00, 0.00000000e+00, 0.00000000e+00, -3.51287508e+00, -8.09093407e-01, -3.49435820e-01, 1.90370870e+00, 0.00000000e+00, 0.00000000e+00, 0.00000000e+00, 0.00000000e+00, 0.00000000e+00, 0.00000000e+00, 0.00000000e+00, 0.00000000e+00, 0.00000000e+00, 0.00000000e+00, 0.00000000e+00,            nan, 0.00000000e+00, 0.00000000e+00, 0.00000000e+00, 5.0000000000, 10.0000000000, 0.0424747667
          35, 0.00000000e+00, 8.89382022e+02, 0.00000000e+00, 0.00000000e+00, 0.00000000e+00, 1.01398939e-02, -7.12542913e-01, 0.00000000e+00, 0.00000000e+00, 0.00000000e+00, 0.00000000e+00, 0.00000000e+00, -3.50871265e+00, -8.22055232e-01, -3.80656182e-01, 1.91170327e+00, 0.00000000e+00, 0.00000000e+00, 0.00000000e+00, 0.00000000e+00, 0.00000000e+00, 0.00000000e+00, 0.00000000e+00, 0.00000000e+00, 0.00000000e+00, 0.00000000e+00, 0.00000000e+00,            nan, 0.00000000e+00, 0.00000000e+00, 0.00000000e+00, 5.0000000000, 10.0000000000, 0.0435764000
          36, 0.00000000e+00, 8.95775914e+02, 0.00000000e+00, 0.00000000e+00, 0.00000000e+00, 9.64076811e-03, -7.01860507e-01, 0.00000000e+00, 0.00000000e+00, 0.00000000e+00, 0.00000000e+00, 0.00000000e+00, -3.50689759e+00, -8.38000650e-01, -4.11801074e-01, 1.91713303e+00, 0.00000000e+00, 0.00000000e+00, 0.00000000e+00, 0.00000000e+00, 0.00000000e+00, 0.00000000e+00, 0.00000000e+00, 0.00000000e+00, 0.00000000e+00, 0.00000000e+00, 0.00000000e+00,            nan, 0.00000000e+00, 0.00000000e+00, 0.00000000e+00, 5.0000000000, 10.0000000000, 0.0447425000
          37, 0.00000000e+00, 9.01730277e+02, 0.00000000e+00, 0.00000000e+00, 0.00000000e+00, 9.09446770e-03, -6.89986571e-01, 0.00000000e+00, 0.00000000e+00, 0.00000000e+00, 0.00000000e+00, 0.00000000e+00, -3.50764067e+00, -8.57146337e-01, -4.42913261e-01, 1.91974907e+00, 0.00000000e+00, 0.00000000e+00, 0.00000000e+00, 0.00000000e+00, 0.00000000e+00, 0.00000000e+00, 0.00000000e+00, 0.00000000e+00, 0.00000000e+00, 0.00000000e+00, 0.00000000e+00,            nan, 0.00000000e+00, 0.00000000e+00, 0.00000000e+00, 5.0000000000, 10.0000000000, 0.0458434000
          38, 0.00000000e+00, 9.07274088e+02, 0.00000000e+00, 0.00000000e+00, 0.00000000e+00, 8.52458665e-03, -6.77189728e-01, 0.00000000e+00, 0.00000000e+00, 0.00000000e+00, 0.00000000e+00, 0.00000000e+00, -3.51112793e+00, -8.79780958e-01, -4.74037418e-01, 1.91936069e+00, 0.00000000e+00, 0.00000000e+00, 0.00000000e+00, 0.00000000e+00, 0.00000000e+00, 0.00000000e+00, 0.00000000e+00, 0.00000000e+00, 0.00000000e+00, 0.00000000e+00, 0.00000000e+00,            nan, 0.00000000e+00, 0.00000000e+00, 0.00000000e+00, 5.0000000000, 10.0000000000, 0.0469958167
          39, 0.00000000e+00, 9.12434680e+02, 0.00000000e+00, 0.00000000e+00, 0.00000000e+00, 7.95348318e-03, -6.63681781e-01, 0.00000000e+00, 0.00000000e+00, 0.00000000e+00, 0.00000000e+00, 0.00000000e+00, -3.51744309e+00, -9.06263519e-01, -5.05218943e-01, 1.91590913e+00, 0.00000000e+00, 0.00000000e+00, 0.00000000e+00, 0.00000000e+00, 0.00000000e+00, 0.00000000e+00, 0.00000000e+00, 0.00000000e+00, 0.00000000e+00, 0.00000000e+00, 0.00000000e+00,            nan, 0.00000000e+00, 0.00000000e+00, 0.00000000e+00, 5.0000000000, 10.0000000000, 0.0481881333
          40, 0.00000000e+00, 9.17237729e+02, 0.00000000e+00, 0.00000000e+00, 0.00000000e+00, 7.40095705e-03, -6.49606864e-01, 0.00000000e+00, 0.00000000e+00, 0.00000000e+00, 0.00000000e+00, 0.00000000e+00, -3.52650205e+00, -9.37045257e-01, -5.36503034e-01, 1.90952673e+00, 0.00000000e+00, 0.00000000e+00, 0.00000000e+00, 0.00000000e+00, 0.00000000e+00, 0.00000000e+00, 0.00000000e+00, 0.00000000e+00, 0.00000000e+00, 0.00000000e+00, 0.00000000e+00,            nan, 0.00000000e+00, 0.00000000e+00, 0.00000000e+00, 5.0000000000, 10.0000000000, 0.0493214167
          41, 0.00000000e+00, 9.21707236e+02, 0.00000000e+00, 0.00000000e+00, 0.00000000e+00, 6.88314080e-03, -6.35037449e-01, 0.00000000e+00, 0.00000000e+00, 0.00000000e+00, 0.00000000e+00, 0.00000000e+00, -3.53798925e+00, -9.72708198e-01, -5.67934192e-01, 1.90059360e+00, 0.00000000e+00, 0.00000000e+00, 0.00000000e+00, 0.00000000e+00, 0.00000000e+00, 0.00000000e+00, 0.00000000e+00, 0.00000000e+00, 0.00000000e+00, 0.00000000e+00, 0.00000000e+00,            nan, 0.00000000e+00, 0.00000000e+00, 0.00000000e+00, 5.0000000000, 10.0000000000, 0.0504365167
          42, 0.00000000e+00, 9.25865522e+02, 0.00000000e+00, 0.00000000e+00, 0.00000000e+00, 6.41173109e-03, -6.19976171e-01, 0.00000000e+00, 0.00000000e+00, 0.00000000e+00, 0.00000000e+00, 0.00000000e+00, -3.55129603e+00, -1.01401053e+00, -5.99556386e-01, 1.88979115e+00, 0.00000000e+00, 0.00000000e+00, 0.00000000e+00, 0.00000000e+00, 0.00000000e+00, 0.00000000e+00, 0.00000000e+00, 0.00000000e+00, 0.00000000e+00, 0.00000000e+00, 0.00000000e+00,            nan, 0.00000000e+00, 0.00000000e+00, 0.00000000e+00, 5.0000000000, 10.0000000000, 0.0516039000
          43, 0.00000000e+00, 9.29733241e+02, 0.00000000e+00, 0.00000000e+00, 0.00000000e+00, 5.99364614e-03, -6.04362873e-01, 0.00000000e+00, 0.00000000e+00, 0.00000000e+00, 0.00000000e+00, 0.00000000e+00, -3.56547062e+00, -1.06192010e+00, -6.31414091e-01, 1.87814053e+00, 0.00000000e+00, 0.00000000e+00, 0.00000000e+00, 0.00000000e+00, 0.00000000e+00, 0.00000000e+00, 0.00000000e+00, 0.00000000e+00, 0.00000000e+00, 0.00000000e+00, 0.00000000e+00,            nan, 0.00000000e+00, 0.00000000e+00, 0.00000000e+00, 5.0000000000, 10.0000000000, 0.0527856667
          44, 0.00000000e+00, 9.33329402e+02, 0.00000000e+00, 0.00000000e+00, 0.00000000e+00, 5.63112101e-03, -5.88086095e-01, 0.00000000e+00, 0.00000000e+00, 0.00000000e+00, 0.00000000e+00, 0.00000000e+00, -3.57920315e+00, -1.11758579e+00, -6.63554308e-01, 1.86700051e+00, 0.00000000e+00, 0.00000000e+00, 0.00000000e+00, 0.00000000e+00, 0.00000000e+00, 0.00000000e+00, 0.00000000e+00, 0.00000000e+00, 0.00000000e+00, 0.00000000e+00, 0.00000000e+00,            nan, 0.00000000e+00, 0.00000000e+00, 0.00000000e+00, 5.0000000000, 10.0000000000, 0.0538100167
          45, 0.00000000e+00, 9.36671415e+02, 0.00000000e+00, 0.00000000e+00, 0.00000000e+00, 5.32218760e-03, -5.70998023e-01, 0.00000000e+00, 0.00000000e+00, 0.00000000e+00, 0.00000000e+00, 0.00000000e+00, -3.59088611e+00, -1.18208945e+00, -6.96029548e-01, 1.85798496e+00, 0.00000000e+00, 0.00000000e+00, 0.00000000e+00, 0.00000000e+00, 0.00000000e+00, 0.00000000e+00, 0.00000000e+00, 0.00000000e+00, 0.00000000e+00, 0.00000000e+00, 0.00000000e+00,            nan, 0.00000000e+00, 0.00000000e+00, 0.00000000e+00, 5.0000000000, 10.0000000000, 0.0548112500
          46, 0.00000000e+00, 9.39775151e+02, 0.00000000e+00, 0.00000000e+00, 0.00000000e+00, 5.06144398e-03, -5.52931899e-01, 0.00000000e+00, 0.00000000e+00, 0.00000000e+00, 0.00000000e+00, 0.00000000e+00, -3.59879787e+00, -1.25547823e+00, -7.28901720e-01, 1.85275995e+00, 0.00000000e+00, 0.00000000e+00, 0.00000000e+00, 0.00000000e+00, 0.00000000e+00, 0.00000000e+00, 0.00000000e+00, 0.00000000e+00, 0.00000000e+00, 0.00000000e+00, 0.00000000e+00,            nan, 0.00000000e+00, 0.00000000e+00, 0.00000000e+00, 5.0000000000, 10.0000000000, 0.0558296500
          47, 0.00000000e+00, 9.42655012e+02, 0.00000000e+00, 0.00000000e+00, 0.00000000e+00, 4.84099993e-03, -5.33720938e-01, 0.00000000e+00, 0.00000000e+00, 0.00000000e+00, 0.00000000e+00, 0.00000000e+00, -3.60142435e+00, -1.33364273e+00, -7.62246730e-01, 1.85272085e+00, 0.00000000e+00, 0.00000000e+00, 0.00000000e+00, 0.00000000e+00, 0.00000000e+00, 0.00000000e+00, 0.00000000e+00, 0.00000000e+00, 0.00000000e+00, 0.00000000e+00, 0.00000000e+00,            nan, 0.00000000e+00, 0.00000000e+00, 0.00000000e+00, 5.0000000000, 10.0000000000, 0.0568246333
          48, 0.00000000e+00, 9.45324028e+02, 0.00000000e+00, 0.00000000e+00, 0.00000000e+00, 4.65148358e-03, -5.13217777e-01, 0.00000000e+00, 0.00000000e+00, 0.00000000e+00, 0.00000000e+00, 0.00000000e+00, -3.59784625e+00, -1.40071198e+00, -7.96159636e-01, 1.85863572e+00, 0.00000000e+00, 0.00000000e+00, 0.00000000e+00, 0.00000000e+00, 0.00000000e+00, 0.00000000e+00, 0.00000000e+00, 0.00000000e+00, 0.00000000e+00, 0.00000000e+00, 0.00000000e+00,            nan, 0.00000000e+00, 0.00000000e+00, 0.00000000e+00, 5.0000000000, 10.0000000000, 0.0578071500
          49, 0.00000000e+00, 9.47793982e+02, 0.00000000e+00, 0.00000000e+00, 0.00000000e+00, 4.48300379e-03, -4.91313527e-01, 0.00000000e+00, 0.00000000e+00, 0.00000000e+00, 0.00000000e+00, 0.00000000e+00, -3.58802641e+00, -1.42390824e+00, -8.30760235e-01, 1.87041195e+00, 0.00000000e+00, 0.00000000e+00, 0.00000000e+00, 0.00000000e+00, 0.00000000e+00, 0.00000000e+00, 0.00000000e+00, 0.00000000e+00, 0.00000000e+00, 0.00000000e+00, 0.00000000e+00,            nan, 0.00000000e+00, 0.00000000e+00, 0.00000000e+00, 5.0000000000, 10.0000000000, 0.0588395833
          50, 0.00000000e+00, 9.50075581e+02, 0.00000000e+00, 0.00000000e+00, 0.00000000e+00, 4.32598266e-03, -4.67955422e-01, 0.00000000e+00, 0.00000000e+00, 0.00000000e+00, 0.00000000e+00, 0.00000000e+00, -3.57284489e+00, -1.38254316e+00, -8.66199129e-01, 1.88710643e+00, 0.00000000e+00, 0.00000000e+00, 0.00000000e+00, 0.00000000e+00, 0.00000000e+00, 0.00000000e+00, 0.00000000e+00, 0.00000000e+00, 0.00000000e+00, 0.00000000e+00, 0.00000000e+00,            nan, 0.00000000e+00, 0.00000000e+00, 0.00000000e+00, 5.0000000000, 10.0000000000, 0.0598129333
          51, 0.00000000e+00, 9.52178647e+02, 0.00000000e+00, 0.00000000e+00, 0.00000000e+00, 4.17181567e-03, -4.43162144e-01, 0.00000000e+00, 0.00000000e+00, 0.00000000e+00, 0.00000000e+00, 0.00000000e+00, -3.55385162e+00, -1.30004393e+00, -9.02664562e-01, 1.90718571e+00, 0.00000000e+00, 0.00000000e+00, 0.00000000e+00, 0.00000000e+00, 0.00000000e+00, 0.00000000e+00, 0.00000000e+00, 0.00000000e+00, 0.00000000e+00, 0.00000000e+00, 0.00000000e+00,            nan, 0.00000000e+00, 0.00000000e+00, 0.00000000e+00, 5.0000000000, 10.0000000000, 0.0607954833
          52, 0.00000000e+00, 9.54112293e+02, 0.00000000e+00, 0.00000000e+00, 0.00000000e+00, 4.01337996e-03, -4.17035981e-01, 0.00000000e+00, 0.00000000e+00, 0.00000000e+00, 0.00000000e+00, 0.00000000e+00, -3.53279248e+00, -1.20833379e+00, -9.40389870e-01, 1.92899507e+00, 0.00000000e+00, 0.00000000e+00, 0.00000000e+00, 0.00000000e+00, 0.00000000e+00, 0.00000000e+00, 0.00000000e+00, 0.00000000e+00, 0.00000000e+00, 0.00000000e+00, 0.00000000e+00,            nan, 0.00000000e+00, 0.00000000e+00, 0.00000000e+00, 5.0000000000, 10.0000000000, 0.0618086167