TITLE = "SU2 Simulation"
VARIABLES = "Iteration","CL","CD","CSF","CMx","CMy","CMz","CFx","CFy","CFz","CL/CD","AoA","Custom_ObjFunc","Res_Flow[0]","Res_Flow[1]","Res_Flow[2]","Res_Flow[3]","Res_Flow[4]","Avg_MassFlow","Avg_Mach","Avg_Temp","Avg_Press","Avg_Density","Avg_Enthalpy","Avg_NormalVel","Uniformity","Secondary_Strength","Momentum_Distortion","Secondary_Over_Uniformity","Avg_TotalTemp","Avg_TotalPress","Pressure_Drop","Linear_Solver_Iterations","CFL_Number","Time(min)"
ZONE T= "Convergence history"
           0, 0.00000000e+00, -8.00446305e-15, 0.00000000e+00, 0.00000000e+00, 0.00000000e+00, 0.00000000e+00, 0.00000000e+00, 0.00000000e+00, 0.00000000e+00, -0.00000000e+00, 0.00000000e+00, 0.00000000e+00, -1.62443716e+01, -1.32514527e+01, -1.32295822e+01, -1.09138774e+01, 0.00000000e+00, 0.00000000e+00, 0.00000000e+00, 0.00000000e+00, 0.00000000e+00, 0.00000000e+00, 0.00000000e+00, 0.00000000e+00, 0.00000000e+00, 0.00000000e+00, 0.00000000e+00,            nan, 0.00000000e+00, 0.00000000e+00, 0.00000000e+00, 5.0000000000, 10.0000000000, 0.0022372833
           1, 0.00000000e+00, 6.09293661e+00, 0.00000000e+00, 0.00000000e+00, 0.00000000e+00, -2.00520847e-04, -1.42553779e-04, 0.00000000e+00, 0.00000000e+00, 0.00000000e+00, 0.00000000e+00, 0.00000000e+00, -1.12898221e+01, -8.71854155e+00, 1.23306919e-01, -5.81244544e+00, 0.00000000e+00, 0.00000000e+00, 0.00000000e+00, 0.00000000e+00, 0.00000000e+00, 0.00000000e+00, 0.00000000e+00, 0.00000000e+00, 0.00000000e+00, 0.00000000e+00, 0.00000000e+00,            nan, 0.00000000e+00, 0.00000000e+00, 0.00000000e+00, 5.0000000000, 10.0000000000, 0.0060818167
           2, 0.00000000e+00, 1.78495336e+01, 0.00000000e+00, 0.00000000e+00, 0.00000000e+00, -6.02655049e-04, -6.74767540e-04, 0.00000000e+00, 0.00000000e+00, 0.00000000e+00, 0.00000000e+00, 0.00000000e+00, -4.84962882e+00, -2.44948227e+00, 1.08837586e-01, 5.99159065e-01, 0.00000000e+00, 0.00000000e+00, 0.00000000e+00, 0.00000000e+00, 0.00000000e+00, 0.00000000e+00, 0.00000000e+00, 0.00000000e+00, 0.00000000e+00, 0.00000000e+00, 0.00000000e+00,            nan, 0.00000000e+00, 0.00000000e+00, 0.00000000e+00, 5.0000000000, 10.0000000000, 0.0084610167
           3, 0.00000000e+00, 3.08193905e+01, 0.00000000e+00, 0.00000000e+00, 0.00000000e+00, -1.10144146e-03, -1.85218428e-03, 0.00000000e+00, 0.00000000e+00, 0.00000000e+00, 0.00000000e+00, 0.00000000e+00, -4.58275133e+00, -2.02604208e+00, 8.00570541e-02, 8.61593618e-01, 0.00000000e+00, 0.00000000e+00, 0.00000000e+00, 0.00000000e+00, 0.00000000e+00, 0.00000000e+00, 0.00000000e+00, 0.00000000e+00, 0.00000000e+00, 0.00000000e+00, 0.00000000e+00,            nan, 0.00000000e+00, 0.00000000e+00, 0.00000000e+00, 5.0000000000, 10.0000000000, 0.0106134500
           4, 0.00000000e+00, 4.30298291e+01, 0.00000000e+00, 0.00000000e+00, 0.00000000e+00, -1.54837867e-03, -3.66525382e-03, 0.00000000e+00, 0.00000000e+00, 0.00000000e+00, 0.00000000e+00, 0.00000000e+00, -4.64407630e+00, -1.84388445e+00, 4.69866002e-02, 7.94979370e-01, 0.00000000e+00, 0.00000000e+00, 0.00000000e+00, 0.00000000e+00, 0.00000000e+00, 0.00000000e+00, 0.00000000e+00, 0.00000000e+00, 0.00000000e+00, 0.00000000e+00, 0.00000000e+00,            nan, 0.00000000e+00, 0.00000000e+00, 0.00000000e+00, 5.0000000000, 10.0000000000, 0.0125350500
           5, 0.00000000e+00, 5.40974518e+01, 0.00000000e+00, 0.00000000e+00, 0.00000000e+00, -1.88111849e-03, -5.89638194e-03, 0.00000000e+00, 0.00000000e+00, 0.00000000e+00, 0.00000000e+00, 0.00000000e+00, -4.77849003e+00, -1.75682299e+00, 1.44005240e-02, 6.66863030e-01, 0.00000000e+00, 0.00000000e+00, 0.00000000e+00, 0.00000000e+00, 0.00000000e+00, 0.00000000e+00, 0.00000000e+00, 0.00000000e+00, 0.00000000e+00, 0.00000000e+00, 0.00000000e+00,            nan, 0.00000000e+00, 0.00000000e+00, 0.00000000e+00, 5.0000000000, 10.0000000000, 0.0142952667
           6, 0.00000000e+00, 6.46668741e+01, 0.00000000e+00, 0.00000000e+00, 0.00000000e+00, -2.12630917e-03, -8.46681784e-03, 0.00000000e+00, 0.00000000e+00, 0.00000000e+00, 0.00000000e+00, 0.00000000e+00, -4.78455140e+00, -1.71521869e+00, -1.65410218e-02, 6.75625445e-01, 0.00000000e+00, 0.00000000e+00, 0.00000000e+00, 0.00000000e+00, 0.00000000e+00, 0.00000000e+00, 0.00000000e+00, 0.00000000e+00, 0.00000000e+00, 0.00000000e+00, 0.00000000e+00,            nan, 0.00000000e+00, 0.00000000e+00, 0.00000000e+00, 5.0000000000, 10.0000000000, 0.0159896167
           7, 0.00000000e+00, 7.49420610e+01, 0.00000000e+00, 0.00000000e+00, 0.00000000e+00, -2.29802012e-03, -1.13151056e-02, 0.00000000e+00, 0.00000000e+00, 0.00000000e+00, 0.00000000e+00, 0.00000000e+00, -4.72506345e+00, -1.69812903e+00, -4.75239239e-02, 7.38593399e-01, 0.00000000e+00, 0.00000000e+00, 0.00000000e+00, 0.00000000e+00, 0.00000000e+00, 0.00000000e+00, 0.00000000e+00, 0.00000000e+00, 0.00000000e+00, 0.00000000e+00, 0.00000000e+00,            nan, 0.00000000e+00, 0.00000000e+00, 0.00000000e+00, 5.0000000000, 10.0000000000, 0.0178323500
           8, 0.00000000e+00, 8.48774550e+01, 0.00000000e+00, 0.00000000e+00, 0.00000000e+00, -2.40416390e-03, -1.43458311e-02, 0.00000000e+00, 0.00000000e+00, 0.00000000e+00, 0.00000000e+00, 0.00000000e+00, -4.66769115e+00, -1.69885477e+00, -7.91761989e-02, 7.95668473e-01, 0.00000000e+00, 0.00000000e+00, 0.00000000e+00, 0.00000000e+00, 0.00000000e+00, 0.00000000e+00, 0.00000000e+00, 0.00000000e+00, 0.00000000e+00, 0.00000000e+00, 0.00000000e+00,            nan, 0.00000000e+00, 0.00000000e+00, 0.00000000e+00, 5.0000000000, 10.0000000000, 0.0196070500
           9, 0.00000000e+00, 9.44253553e+01, 0.00000000e+00, 0.00000000e+00, 0.00000000e+00, -2.45312469e-03, -1.74619893e-02, 0.00000000e+00, 0.00000000e+00, 0.00000000e+00, 0.00000000e+00, 0.00000000e+00, -4.62176419e+00, -1.71447502e+00, -1.11421117e-01, 8.41110182e-01, 0.00000000e+00, 0.00000000e+00, 0.00000000e+00, 0.00000000e+00, 0.00000000e+00, 0.00000000e+00, 0.00000000e+00, 0.00000000e+00, 0.00000000e+00, 0.00000000e+00, 0.00000000e+00,            nan, 0.00000000e+00, 0.00000000e+00, 0.00000000e+00, 5.0000000000, 10.0000000000, 0.0214118167
          10, 0.00000000e+00, 1.03548474e+02, 0.00000000e+00, 0.00000000e+00, 0.00000000e+00, -2.45155075e-03, -2.05722300e-02, 0.00000000e+00, 0.00000000e+00, 0.00000000e+00, 0.00000000e+00, 0.00000000e+00, -4.59039447e+00, -1.74317276e+00, -1.44147369e-01, 8.72311275e-01, 0.00000000e+00, 0.00000000e+00, 0.00000000e+00, 0.00000000e+00, 0.00000000e+00, 0.00000000e+00, 0.00000000e+00, 0.00000000e+00, 0.00000000e+00, 0.00000000e+00, 0.00000000e+00,            nan, 0.00000000e+00, 0.00000000e+00, 0.00000000e+00, 5.0000000000, 10.0000000000, 0.0232976667
          11, 0.00000000e+00, 1.12222091e+02, 0.00000000e+00, 0.00000000e+00, 0.00000000e+00, -2.40431148e-03, -2.35936215e-02, 0.00000000e+00, 0.00000000e+00, 0.00000000e+00, 0.00000000e+00, 0.00000000e+00, -4.57508016e+00, -1.78350790e+00, -1.77244414e-01, 8.87698899e-01, 0.00000000e+00, 0.00000000e+00, 0.00000000e+00, 0.00000000e+00, 0.00000000e+00, 0.00000000e+00, 0.00000000e+00, 0.00000000e+00, 0.00000000e+00, 0.00000000e+00, 0.00000000e+00,            nan, 0.00000000e+00, 0.00000000e+00, 0.00000000e+00, 5.0000000000, 10.0000000000, 0.0251391333
          12, 0.00000000e+00, 1.20433496e+02, 0.00000000e+00, 0.00000000e+00, 0.00000000e+00, -2.31584121e-03, -2.64536305e-02, 0.00000000e+00, 0.00000000e+00, 0.00000000e+00, 0.00000000e+00, 0.00000000e+00, -4.57676827e+00, -1.83374782e+00, -2.10612982e-01, 8.86245704e-01, 0.00000000e+00, 0.00000000e+00, 0.00000000e+00, 0.00000000e+00, 0.00000000e+00, 0.00000000e+00, 0.00000000e+00, 0.00000000e+00, 0.00000000e+00, 0.00000000e+00, 0.00000000e+00,            nan, 0.00000000e+00, 0.00000000e+00, 0.00000000e+00, 5.0000000000, 10.0000000000, 0.0268863000
          13, 0.00000000e+00, 1.28180172e+02, 0.00000000e+00, 0.00000000e+00, 0.00000000e+00, -2.19123089e-03, -2.90924610e-02, 0.00000000e+00, 0.00000000e+00, 0.00000000e+00, 0.00000000e+00, 0.00000000e+00, -4.59627785e+00, -1.89099951e+00, -2.44169639e-01, 8.67118602e-01, 0.00000000e+00, 0.00000000e+00, 0.00000000e+00, 0.00000000e+00, 0.00000000e+00, 0.00000000e+00, 0.00000000e+00, 0.00000000e+00, 0.00000000e+00, 0.00000000e+00, 0.00000000e+00,            nan, 0.00000000e+00, 0.00000000e+00, 0.00000000e+00, 5.0000000000, 10.0000000000, 0.0287922000
          14, 0.00000000e+00, 1.35468459e+02, 0.00000000e+00, 0.00000000e+00, 0.00000000e+00, -2.03650747e-03, -3.14659958e-02, 0.00000000e+00, 0.00000000e+00, 0.00000000e+00, 0.00000000e+00, 0.00000000e+00, -4.63419893e+00, -1.95009354e+00, -2.77847717e-01, 8.29759154e-01, 0.00000000e+00, 0.00000000e+00, 0.00000000e+00, 0.00000000e+00, 0.00000000e+00, 0.00000000e+00, 0.00000000e+00, 0.00000000e+00, 0.00000000e+00, 0.00000000e+00, 0.00000000e+00,            nan, 0.00000000e+00, 0.00000000e+00, 0.00000000e+00, 5.0000000000, 10.0000000000, 0.0305665667
          15, 0.00000000e+00, 1.42314182e+02, 0.00000000e+00, 0.00000000e+00, 0.00000000e+00, -1.85831062e-03, -3.35490066e-02, 0.00000000e+00, 0.00000000e+00, 0.00000000e+00, 0.00000000e+00, 0.00000000e+00, -4.69005017e+00, -2.00303397e+00, -3.11600247e-01, 7.74652450e-01, 0.00000000e+00, 0.00000000e+00, 0.00000000e+00, 0.00000000e+00, 0.00000000e+00, 0.00000000e+00, 0.00000000e+00, 0.00000000e+00, 0.00000000e+00, 0.00000000e+00, 0.00000000e+00,            nan, 0.00000000e+00, 0.00000000e+00, 0.00000000e+00, 5.0000000000, 10.0000000000, 0.0323747833
          16, 0.00000000e+00, 1.48746797e+02, 0.00000000e+00, 0.00000000e+00, 0.00000000e+00, -1.66322894e-03, -3.53376150e-02, 0.00000000e+00, 0.00000000e+00, 0.00000000e+00, 0.00000000e+00, 0.00000000e+00, -4.75972532e+00, -2.04137617e+00, -3.45413183e-01, 7.05592447e-01, 0.00000000e+00, 0.00000000e+00, 0.00000000e+00, 0.00000000e+00, 0.00000000e+00, 0.00000000e+00, 0.00000000e+00, 0.00000000e+00, 0.00000000e+00, 0.00000000e+00, 0.00000000e+00,            nan, 0.00000000e+00, 0.00000000e+00, 0.00000000e+00, 5.0000000000, 10.0000000000, 0.0340981167
          17, 0.00000000e+00, 1.54815488e+02, 0.00000000e+00, 0.00000000e+00, 0.00000000e+00, -1.45675677e-03, -3.68483284e-02, 0.00000000e+00, 0.00000000e+00, 0.00000000e+00, 0.00000000e+00, 0.00000000e+00, -4.82991352e+00, -2.06239741e+00, -3.79341925e-01, 6.34416187e-01, 0.00000000e+00, 0.00000000e+00, 0.00000000e+00, 0.00000000e+00, 0.00000000e+00, 0.00000000e+00, 0.00000000e+00, 0.00000000e+00, 0.00000000e+00, 0.00000000e+00, 0.00000000e+00,            nan, 0.00000000e+00, 0.00000000e+00, 0.00000000e+00, 5.0000000000, 10.0000000000, 0.0357657500
          18, 0.00000000e+00, 1.60580242e+02, 0.00000000e+00, 0.00000000e+00, 0.00000000e+00, -1.24212442e-03, -3.81089595e-02, 0.00000000e+00, 0.00000000e+00, 0.00000000e+00, 0.00000000e+00, 0.00000000e+00, -4.87430482e+00, -2.07284573e+00, -4.13572223e-01, 5.84234780e-01, 0.00000000e+00, 0.00000000e+00, 0.00000000e+00, 0.00000000e+00, 0.00000000e+00, 0.00000000e+00, 0.00000000e+00, 0.00000000e+00, 0.00000000e+00, 0.00000000e+00, 0.00000000e+00,            nan, 0.00000000e+00, 0.00000000e+00, 0.00000000e+00, 5.0000000000, 10.0000000000, 0.0373219667
          19, 0.00000000e+00, 1.66068757e+02, 0.00000000e+00, 0.00000000e+00, 0.00000000e+00, -1.02085158e-03, -3.91455477e-02, 0.00000000e+00, 0.00000000e+00, 0.00000000e+00, 0.00000000e+00, 0.00000000e+00, -4.87105783e+00, -2.08467992e+00, -4.48408865e-01, 5.76039871e-01, 0.00000000e+00, 0.00000000e+00, 0.00000000e+00, 0.00000000e+00, 0.00000000e+00, 0.00000000e+00, 0.00000000e+00, 0.00000000e+00, 0.00000000e+00, 0.00000000e+00, 0.00000000e+00,            nan, 0.00000000e+00, 0.00000000e+00, 0.00000000e+00, 5.0000000000, 10.0000000000, 0.0389449167
          20, 0.00000000e+00, 1.71254325e+02, 0.00000000e+00, 0.00000000e+00, 0.00000000e+00, -7.95266316e-04, -3.99867955e-02, 0.00000000e+00, 0.00000000e+00, 0.00000000e+00, 0.00000000e+00, 0.00000000e+00, -4.82887470e+00, -2.10803441e+00, -4.84023264e-01, 6.06422680e-01, 0.00000000e+00, 0.00000000e+00, 0.00000000e+00, 0.00000000e+00, 0.00000000e+00, 0.00000000e+00, 0.00000000e+00, 0.00000000e+00, 0.00000000e+00, 0.00000000e+00, 0.00000000e+00,            nan, 0.00000000e+00, 0.00000000e+00, 0.00000000e+00, 5.0000000000, 10.0000000000, 0.0404677500
          21, 0.00000000e+00, 1.76098878e+02, 0.00000000e+00, 0.00000000e+00, 0.00000000e+00, -5.69485036e-04, -4.06818581e-02, 0.00000000e+00, 0.00000000e+00, 0.00000000e+00, 0.00000000e+00, 0.00000000e+00, -4.77329026e+00, -2.14815086e+00, -5.20233407e-01, 6.53986814e-01, 0.00000000e+00, 0.00000000e+00, 0.00000000e+00, 0.00000000e+00, 0.00000000e+00, 0.00000000e+00, 0.00000000e+00, 0.00000000e+00, 0.00000000e+00, 0.00000000e+00, 0.00000000e+00,            nan, 0.00000000e+00, 0.00000000e+00, 0.00000000e+00, 5.0000000000, 10.0000000000, 0.0420506000
          22, 0.00000000e+00, 1.80589215e+02, 0.00000000e+00, 0.00000000e+00, 0.00000000e+00, -3.48574325e-04, -4.13008479e-02, 0.00000000e+00, 0.00000000e+00, 0.00000000e+00, 0.00000000e+00, 0.00000000e+00, -4.72264071e+00, -2.20580423e+00, -5.56697036e-01, 6.99897173e-01, 0.00000000e+00, 0.00000000e+00, 0.00000000e+00, 0.00000000e+00, 0.00000000e+00, 0.00000000e+00, 0.00000000e+00, 0.00000000e+00, 0.00000000e+00, 0.00000000e+00, 0.00000000e+00,            nan, 0.00000000e+00, 0.00000000e+00, 0.00000000e+00, 5.0000000000, 10.0000000000, 0.0435725000
          23, 0.00000000e+00, 1.84733861e+02, 0.00000000e+00, 0.00000000e+00, 0.00000000e+00, -1.37618619e-04, -4.19188744e-02, 0.00000000e+00, 0.00000000e+00, 0.00000000e+00, 0.00000000e+00, 0.00000000e+00, -4.68339123e+00, -2.27417171e+00, -5.93163159e-01, 7.36312030e-01, 0.00000000e+00, 0.00000000e+00, 0.00000000e+00, 0.00000000e+00, 0.00000000e+00, 0.00000000e+00, 0.00000000e+00, 0.00000000e+00, 0.00000000e+00, 0.00000000e+00, 0.00000000e+00,            nan, 0.00000000e+00, 0.00000000e+00, 0.00000000e+00, 5.0000000000, 10.0000000000, 0.0451884000
          24, 0.00000000e+00, 1.88550288e+02, 0.00000000e+00, 0.00000000e+00, 0.00000000e+00, 5.89079041e-05, -4.26011285e-02, 0.00000000e+00, 0.00000000e+00, 0.00000000e+00, 0.00000000e+00, 0.00000000e+00, -4.65507302e+00, -2.32754904e+00, -6.29499450e-01, 7.63257664e-01, 0.00000000e+00, 0.00000000e+00, 0.00000000e+00, 0.00000000e+00, 0.00000000e+00, 0.00000000e+00, 0.00000000e+00, 0.00000000e+00, 0.00000000e+00, 0.00000000e+00, 0.00000000e+00,            nan, 0.00000000e+00, 0.00000000e+00, 0.00000000e+00, 5.0000000000, 10.0000000000, 0.0467618833
          25, 0.00000000e+00, 1.92059039e+02, 0.00000000e+00, 0.00000000e+00, 0.00000000e+00, 2.37597080e-04, -4.33934088e-02, 0.00000000e+00, 0.00000000e+00, 0.00000000e+00, 0.00000000e+00, 0.00000000e+00, -4.63521355e+00, -2.32357835e+00, -6.65629504e-01, 7.83287215e-01, 0.00000000e+00, 0.00000000e+00, 0.00000000e+00, 0.00000000e+00, 0.00000000e+00, 0.00000000e+00, 0.00000000e+00, 0.00000000e+00, 0.00000000e+00, 0.00000000e+00, 0.00000000e+00,            nan, 0.00000000e+00, 0.00000000e+00, 0.00000000e+00, 5.0000000000, 10.0000000000, 0.0484475167
          26, 0.00000000e+00, 1.95283451e+02, 0.00000000e+00, 0.00000000e+00, 0.00000000e+00, 3.96405738e-04, -4.43150542e-02, 0.00000000e+00, 0.00000000e+00, 0.00000000e+00, 0.00000000e+00, 0.00000000e+00, -4.62191837e+00, -2.25804526e+00, -7.01500545e-01, 7.98262706e-01, 0.00000000e+00, 0.00000000e+00, 0.00000000e+00, 0.00000000e+00, 0.00000000e+00, 0.00000000e+00, 0.00000000e+00, 0.00000000e+00, 0.00000000e+00, 0.00000000e+00, 0.00000000e+00,            nan, 0.00000000e+00, 0.00000000e+00, 0.00000000e+00, 5.0000000000, 10.0000000000, 0.0501137333
          27, 0.00000000e+00, 1.98249649e+02, 0.00000000e+00, 0.00000000e+00, 0.00000000e+00, 5.34474298e-04, -4.53543509e-02, 0.00000000e+00, 0.00000000e+00, 0.00000000e+00, 0.00000000e+00, 0.00000000e+00, -4.61483535e+00, -2.17127404e+00, -7.37093309e-01, 8.08111885e-01, 0.00000000e+00, 0.00000000e+00, 0.00000000e+00, 0.00000000e+00, 0.00000000e+00, 0.00000000e+00, 0.00000000e+00, 0.00000000e+00, 0.00000000e+00, 0.00000000e+00, 0.00000000e+00,            nan, 0.00000000e+00, 0.00000000e+00, 0.00000000e+00, 5.0000000000, 10.0000000000, 0.0518519167
          28, 0.00000000e+00, 2.00983923e+02, 0.00000000e+00, 0.00000000e+00, 0.00000000e+00, 6.51329752e-04, -4.64701067e-02, 0.00000000e+00, 0.00000000e+00, 0.00000000e+00, 0.00000000e+00, 0.00000000e+00, -4.61512880e+00, -2.09070538e+00, -7.72437682e-01, 8.10993244e-01, 0.00000000e+00, 0.00000000e+00, 0.00000000e+00, 0.00000000e+00, 0.00000000e+00, 0.00000000e+00, 0.00000000e+00, 0.00000000e+00, 0.00000000e+00, 0.00000000e+00, 0.00000000e+00,            nan, 0.00000000e+00, 0.00000000e+00, 0.00000000e+00, 5.0000000000, 10.0000000000, 0.0534908333
          29, 0.00000000e+00, 2.03509536e+02, 0.00000000e+00, 0.00000000e+00, 0.00000000e+00, 7.46096311e-04, -4.75998386e-02, 0.00000000e+00, 0.00000000e+00, 0.00000000e+00, 0.00000000e+00, 0.00000000e+00, -4.62507536e+00, -2.02381552e+00, -8.07598271e-01, 8.03962303e-01, 0.00000000e+00, 0.00000000e+00, 0.00000000e+00, 0.00000000e+00, 0.00000000e+00, 0.00000000e+00, 0.00000000e+00, 0.00000000e+00, 0.00000000e+00, 0.00000000e+00, 0.00000000e+00,            nan, 0.00000000e+00, 0.00000000e+00, 0.00000000e+00, 5.0000000000, 10.0000000000, 0.0551894500
          30, 0.00000000e+00, 2.05845638e+02, 0.00000000e+00, 0.00000000e+00, 0.00000000e+00, 8.17327700e-04, -4.86701127e-02, 0.00000000e+00, 0.00000000e+00, 0.00000000e+00, 0.00000000e+00, 0.00000000e+00, -4.64755520e+00, -1.97039456e+00, -8.42640647e-01, 7.83653344e-01, 0.00000000e+00, 0.00000000e+00, 0.00000000e+00, 0.00000000e+00, 0.00000000e+00, 0.00000000e+00, 0.00000000e+00, 0.00000000e+00, 0.00000000e+00, 0.00000000e+00, 0.00000000e+00,            nan, 0.00000000e+00, 0.00000000e+00, 0.00000000e+00, 5.0000000000, 10.0000000000, 0.0568096833
          31, 0.00000000e+00, 2.08008017e+02, 0.00000000e+00, 0.00000000e+00, 0.00000000e+00, 8.63384548e-04, -4.96051842e-02, 0.00000000e+00, 0.00000000e+00, 0.00000000e+00, 0.00000000e+00, 0.00000000e+00, -4.68579215e+00, -1.92850167e+00, -8.77610533e-01, 7.46550212e-01, 0.00000000e+00, 0.00000000e+00, 0.00000000e+00, 0.00000000e+00, 0.00000000e+00, 0.00000000e+00, 0.00000000e+00, 0.00000000e+00, 0.00000000e+00, 0.00000000e+00, 0.00000000e+00,            nan, 0.00000000e+00, 0.00000000e+00, 0.00000000e+00, 5.0000000000, 10.0000000000, 0.0584009000
          32, 0.00000000e+00, 2.10010307e+02, 0.00000000e+00, 0.00000000e+00, 0.00000000e+00, 8.82967379e-04, -5.03332323e-02, 0.00000000e+00, 0.00000000e+00, 0.00000000e+00, 0.00000000e+00, 0.00000000e+00, -4.74356034e+00, -1.89632308e+00, -9.12533525e-01, 6.88693616e-01, 0.00000000e+00, 0.00000000e+00, 0.00000000e+00, 0.00000000e+00, 0.00000000e+00, 0.00000000e+00, 0.00000000e+00, 0.00000000e+00, 0.00000000e+00, 0.00000000e+00, 0.00000000e+00,            nan, 0.00000000e+00, 0.00000000e+00, 0.00000000e+00, 5.0000000000, 10.0000000000, 0.0601797167
          33, 0.00000000e+00, 2.11865025e+02, 0.00000000e+00, 0.00000000e+00, 0.00000000e+00, 8.75567395e-04, -5.07908111e-02, 0.00000000e+00, 0.00000000e+00, 0.00000000e+00, 0.00000000e+00, 0.00000000e+00, -4.82569192e+00, -1.87260536e+00, -9.47424485e-01, 6.05159573e-01, 0.00000000e+00, 0.00000000e+00, 0.00000000e+00, 0.00000000e+00, 0.00000000e+00, 0.00000000e+00, 0.00000000e+00, 0.00000000e+00, 0.00000000e+00, 0.00000000e+00, 0.00000000e+00,            nan, 0.00000000e+00, 0.00000000e+00, 0.00000000e+00, 5.0000000000, 10.0000000000, 0.0619693500
          34, 0.00000000e+00, 2.13584683e+02, 0.00000000e+00, 0.00000000e+00, 0.00000000e+00, 8.41897965e-04, -5.09259057e-02, 0.00000000e+00, 0.00000000e+00, 0.00000000e+00, 0.00000000e+00, 0.00000000e+00, -4.93759012e+00, -1.85655947e+00, -9.82300172e-01, 4.91242938e-01, 0.00000000e+00, 0.00000000e+00, 0.00000000e+00, 0.00000000e+00, 0.00000000e+00, 0.00000000e+00, 0.00000000e+00, 0.00000000e+00, 0.00000000e+00, 0.00000000e+00, 0.00000000e+00,            nan, 0.00000000e+00, 0.00000000e+00, 0.00000000e+00, 5.0000000000, 10.0000000000, 0.0634276000
          35, 0.00000000e+00, 2.15183438e+02, 0.00000000e+00, 0.00000000e+00, 0.00000000e+00, 7.84449745e-04, -5.07011306e-02, 0.00000000e+00, 0.00000000e+00, 0.00000000e+00, 0.00000000e+00, 0.00000000e+00, -5.07693440e+00, -1.84768708e+00, -1.01720068e+00, 3.55222285e-01, 0.00000000e+00, 0.00000000e+00, 0.00000000e+00, 0.00000000e+00, 0.00000000e+00, 0.00000000e+00, 0.00000000e+00, 0.00000000e+00, 0.00000000e+00, 0.00000000e+00, 0.00000000e+00,            nan, 0.00000000e+00, 0.00000000e+00, 0.00000000e+00, 5.0000000000, 10.0000000000, 0.0649449167
          36, 0.00000000e+00, 2.16677665e+02, 0.00000000e+00, 0.00000000e+00, 0.00000000e+00, 7.07143637e-04, -5.00998791e-02, 0.00000000e+00, 0.00000000e+00, 0.00000000e+00, 0.00000000e+00, 0.00000000e+00, -5.19119020e+00, -1.84587452e+00, -1.05223379e+00, 2.68814925e-01, 0.00000000e+00, 0.00000000e+00, 0.00000000e+00, 0.00000000e+00, 0.00000000e+00, 0.00000000e+00, 0.00000000e+00, 0.00000000e+00, 0.00000000e+00, 0.00000000e+00, 0.00000000e+00,            nan, 0.00000000e+00, 0.00000000e+00, 0.00000000e+00, 5.0000000000, 10.0000000000, 0.0663519833
          37, 0.00000000e+00, 2.18076801e+02, 0.00000000e+00, 0.00000000e+00, 0.00000000e+00, 6.14827485e-04, -4.91292881e-02, 0.00000000e+00, 0.00000000e+00, 0.00000000e+00, 0.00000000e+00, 0.00000000e+00, -5.15923069e+00, -1.85116620e+00, -1.08761225e+00, 3.31902845e-01, 0.00000000e+00, 0.00000000e+00, 0.00000000e+00, 0.00000000e+00, 0.00000000e+00, 0.00000000e+00, 0.00000000e+00, 0.00000000e+00, 0.00000000e+00, 0.00000000e+00, 0.00000000e+00,            nan, 0.00000000e+00, 0.00000000e+00, 0.00000000e+00, 5.0000000000, 10.0000000000, 0.0678814500
          38, 0.00000000e+00, 2.19373942e+02, 0.00000000e+00, 0.00000000e+00, 0.00000000e+00, 5.13541575e-04, -4.78129787e-02, 0.00000000e+00, 0.00000000e+00, 0.00000000e+00, 0.00000000e+00, 0.00000000e+00, -5.03622196e+00, -1.86351279e+00, -1.12344502e+00, 4.56365987e-01, 0.00000000e+00, 0.00000000e+00, 0.00000000e+00, 0.00000000e+00, 0.00000000e+00, 0.00000000e+00, 0.00000000e+00, 0.00000000e+00, 0.00000000e+00, 0.00000000e+00, 0.00000000e+00,            nan, 0.00000000e+00, 0.00000000e+00, 0.00000000e+00, 5.0000000000, 10.0000000000, 0.0693816333
          39, 0.00000000e+00, 2.20567735e+02, 0.00000000e+00, 0.00000000e+00, 0.00000000e+00, 4.07892937e-04, -4.61864722e-02, 0.00000000e+00, 0.00000000e+00, 0.00000000e+00, 0.00000000e+00, 0.00000000e+00, -4.92648418e+00, -1.88277341e+00, -1.15940858e+00, 5.60648710e-01, 0.00000000e+00, 0.00000000e+00, 0.00000000e+00, 0.00000000e+00, 0.00000000e+00, 0.00000000e+00, 0.00000000e+00, 0.00000000e+00, 0.00000000e+00, 0.00000000e+00, 0.00000000e+00,            nan, 0.00000000e+00, 0.00000000e+00, 0.00000000e+00, 5.0000000000, 10.0000000000, 0.0709634000
          40, 0.00000000e+00, 2.21666333e+02, 0.00000000e+00, 0.00000000e+00, 0.00000000e+00, 3.01366521e-04, -4.42969005e-02, 0.00000000e+00, 0.00000000e+00, 0.00000000e+00, 0.00000000e+00, 0.00000000e+00, -4.84740443e+00, -1.90892054e+00, -1.19524484e+00, 6.35109567e-01, 0.00000000e+00, 0.00000000e+00, 0.00000000e+00, 0.00000000e+00, 0.00000000e+00, 0.00000000e+00, 0.00000000e+00, 0.00000000e+00, 0.00000000e+00, 0.00000000e+00, 0.00000000e+00,            nan, 0.00000000e+00, 0.00000000e+00, 0.00000000e+00, 5.0000000000, 10.0000000000, 0.0723801000
          41, 0.00000000e+00, 2.22678867e+02, 0.00000000e+00, 0.00000000e+00, 0.00000000e+00, 1.97831544e-04, -4.21981939e-02, 0.00000000e+00, 0.00000000e+00, 0.00000000e+00, 0.00000000e+00, 0.00000000e+00, -4.79340075e+00, -1.94207128e+00, -1.23094603e+00, 6.85729059e-01, 0.00000000e+00, 0.00000000e+00, 0.00000000e+00, 0.00000000e+00, 0.00000000e+00, 0.00000000e+00, 0.00000000e+00, 0.00000000e+00, 0.00000000e+00, 0.00000000e+00, 0.00000000e+00,            nan, 0.00000000e+00, 0.00000000e+00, 0.00000000e+00, 5.0000000000, 10.0000000000, 0.0737452833
          42, 0.00000000e+00, 2.23613292e+02, 0.00000000e+00, 0.00000000e+00, 0.00000000e+00, 1.01208561e-04, -3.99461922e-02, 0.00000000e+00, 0.00000000e+00, 0.00000000e+00, 0.00000000e+00, 0.00000000e+00, -4.75798437e+00, -1.98252941e+00, -1.26656269e+00, 7.18606845e-01, 0.00000000e+00, 0.00000000e+00, 0.00000000e+00, 0.00000000e+00, 0.00000000e+00, 0.00000000e+00, 0.00000000e+00, 0.00000000e+00, 0.00000000e+00, 0.00000000e+00, 0.00000000e+00,            nan, 0.00000000e+00, 0.00000000e+00, 0.00000000e+00, 5.0000000000, 10.0000000000, 0.0751842667
          43, 0.00000000e+00, 2.24476439e+02, 0.00000000e+00, 0.00000000e+00, 0.00000000e+00, 1.48319246e-05, -3.75943562e-02, 0.00000000e+00, 0.00000000e+00, 0.00000000e+00, 0.00000000e+00, 0.00000000e+00, -4.73610829e+00, -2.03086345e+00, -1.30213989e+00, 7.38468382e-01, 0.00000000e+00, 0.00000000e+00, 0.00000000e+00, 0.00000000e+00, 0.00000000e+00, 0.00000000e+00, 0.00000000e+00, 0.00000000e+00, 0.00000000e+00, 0.00000000e+00, 0.00000000e+00,            nan, 0.00000000e+00, 0.00000000e+00, 0.00000000e+00, 5.0000000000, 10.0000000000, 0.0766341167
          44, 0.00000000e+00, 2.25274275e+02, 0.00000000e+00, 0.00000000e+00, 0.00000000e+00, -5.89043296e-05, -3.51903465e-02, 0.00000000e+00, 0.00000000e+00, 0.00000000e+00, 0.00000000e+00, 0.00000000e+00, -4.72377745e+00, -2.08795996e+00, -1.33771167e+00, 7.49098259e-01, 0.00000000e+00, 0.00000000e+00, 0.00000000e+00, 0.00000000e+00, 0.00000000e+00, 0.00000000e+00, 0.00000000e+00, 0.00000000e+00, 0.00000000e+00, 0.00000000e+00, 0.00000000e+00,            nan, 0.00000000e+00, 0.00000000e+00, 0.00000000e+00, 5.0000000000, 10.0000000000, 0.0784545333
          45, 0.00000000e+00, 2.26012090e+02, 0.00000000e+00, 0.00000000e+00, 0.00000000e+00, -1.18641886e-04, -3.27737827e-02, 0.00000000e+00, 0.00000000e+00, 0.00000000e+00, 0.00000000e+00, 0.00000000e+00, -4.71763798e+00, -2.15500006e+00, -1.37330396e+00, 7.53724805e-01, 0.00000000e+00, 0.00000000e+00, 0.00000000e+00, 0.00000000e+00, 0.00000000e+00, 0.00000000e+00, 0.00000000e+00, 0.00000000e+00, 0.00000000e+00, 0.00000000e+00, 0.00000000e+00,            nan, 0.00000000e+00, 0.00000000e+00, 0.00000000e+00, 5.0000000000, 10.0000000000, 0.0806477667
          46, 0.00000000e+00, 2.26694632e+02, 0.00000000e+00, 0.00000000e+00, 0.00000000e+00, -1.63994326e-04, -3.03752571e-02, 0.00000000e+00, 0.00000000e+00, 0.00000000e+00, 0.00000000e+00, 0.00000000e+00, -4.71479699e+00, -2.23315413e+00, -1.40893744e+00, 7.55181648e-01, 0.00000000e+00, 0.00000000e+00, 0.00000000e+00, 0.00000000e+00, 0.00000000e+00, 0.00000000e+00, 0.00000000e+00, 0.00000000e+00, 0.00000000e+00, 0.00000000e+00, 0.00000000e+00,            nan, 0.00000000e+00, 0.00000000e+00, 0.00000000e+00, 5.0000000000, 10.0000000000, 0.0823557000
          47, 0.00000000e+00, 2.27326195e+02, 0.00000000e+00, 0.00000000e+00, 0.00000000e+00, -1.95398997e-04, -2.80164808e-02, 0.00000000e+00, 0.00000000e+00, 0.00000000e+00, 0.00000000e+00, 0.00000000e+00, -4.71283319e+00, -2.32225015e+00, -1.44462986e+00, 7.55884124e-01, 0.00000000e+00, 0.00000000e+00, 0.00000000e+00, 0.00000000e+00, 0.00000000e+00, 0.00000000e+00, 0.00000000e+00, 0.00000000e+00, 0.00000000e+00, 0.00000000e+00, 0.00000000e+00,            nan, 0.00000000e+00, 0.00000000e+00, 0.00000000e+00, 5.0000000000, 10.0000000000, 0.0836849000
          48, 0.00000000e+00, 2.27910687e+02, 0.00000000e+00, 0.00000000e+00, 0.00000000e+00, -2.13932481e-04, -2.57113175e-02, 0.00000000e+00, 0.00000000e+00, 0.00000000e+00, 0.00000000e+00, 0.00000000e+00, -4.70992038e+00, -2.41609474e+00, -1.48039768e+00, 7.57689196e-01, 0.00000000e+00, 0.00000000e+00, 0.00000000e+00, 0.00000000e+00, 0.00000000e+00, 0.00000000e+00, 0.00000000e+00, 0.00000000e+00, 0.00000000e+00, 0.00000000e+00, 0.00000000e+00,            nan, 0.00000000e+00, 0.00000000e+00, 0.00000000e+00, 5.0000000000, 10.0000000000, 0.0851452167
          49, 0.00000000e+00, 2.28451676e+02, 0.00000000e+00, 0.00000000e+00, 0.00000000e+00, -2.21119308e-04, -2.34674240e-02, 0.00000000e+00, 0.00000000e+00, 0.00000000e+00, 0.00000000e+00, 0.00000000e+00, -4.70496304e+00, -2.49107209e+00, -1.51625732e+00, 7.61735237e-01, 0.00000000e+00, 0.00000000e+00, 0.00000000e+00, 0.00000000e+00, 0.00000000e+00, 0.00000000e+00, 0.00000000e+00, 0.00000000e+00, 0.00000000e+00, 0.00000000e+00, 0.00000000e+00,            nan, 0.00000000e+00, 0.00000000e+00, 0.00000000e+00, 5.0000000000, 10.0000000000, 0.0863920500
          50, 0.00000000e+00, 2.28952429e+02, 0.00000000e+00, 0.00000000e+00, 0.00000000e+00, -2.18752147e-04, -2.12882251e-02, 0.00000000e+00, 0.00000000e+00, 0.00000000e+00, 0.00000000e+00, 0.00000000e+00, -4.69765141e+00, -2.50483279e+00, -1.55222607e+00, 7.68358964e-01, 0.00000000e+00, 0.00000000e+00, 0.00000000e+00, 0.00000000e+00, 0.00000000e+00, 0.00000000e+00, 0.00000000e+00, 0.00000000e+00, 0.00000000e+00, 0.00000000e+00, 0.00000000e+00,            nan, 0.00000000e+00, 0.00000000e+00, 0.00000000e+00, 5.0000000000, 10.0000000000, 0.0875807000
          51, 0.00000000e+00, 2.29415938e+02, 0.00000000e+00, 0.00000000e+00, 0.00000000e+00, -2.08734802e-04, -1.91749853e-02, 0.00000000e+00, 0.00000000e+00, 0.00000000e+00, 0.00000000e+00, 0.00000000e+00, -4.68835942e+00, -2.44821853e+00, -1.58832266e+00, 7.77182753e-01, 0.00000000e+00, 0.00000000e+00, 0.00000000e+00, 0.00000000e+00, 0.00000000e+00, 0.00000000e+00, 0.00000000e+00, 0.00000000e+00, 0.00000000e+00, 0.00000000e+00, 0.00000000e+00,            nan, 0.00000000e+00, 0.00000000e+00, 0.00000000e+00, 5.0000000000, 10.0000000000, 0.0887458500