TITLE = "Visualization of the volumetric solution"
VARIABLES = "x","y","Density","Momentum_x","Momentum_y","Energy","Pressure","Temperature","Mach","C<sub>p</sub>","Roe_Dissipation"
ZONE NODES= 3200, ELEMENTS= 3081, DATAPACKING=POINT, ZONETYPE=FEQUADRILATERAL
-2.000000e+00	1.250000e+00	1.225054e+00	4.180556e+01	-2.878485e-12	2.540155e+05	1.013209e+05	2.881205e+02	1.002866e-01	-5.798629e-03	0.000000e+00	
-2.000000e+00	1.218354e+00	1.225054e+00	4.180556e+01	-5.414155e-10	2.540155e+05	1.013209e+05	2.881205e+02	1.002866e-01	-5.798629e-03	0.000000e+00	
-1.948718e+00	1.218354e+00	1.225054e+00	4.180556e+01	-7.726308e-10	2.540155e+05	1.013209e+05	2.881205e+02	1.002866e-01	-5.798630e-03	0.000000e+00	
-1.948718e+00	1.250000e+00	1.225054e+00	4.180556e+01	-4.087094e-11	2.540155e+05	1.013209e+05	2.881205e+02	1.002866e-01	-5.798630e-03	0.000000e+00	
-2.000000e+00	1.186709e+00	1.225054e+00	4.180556e+01	-5.131307e-10	2.540155e+05	1.013209e+05	2.881205e+02	1.002866e-01	-5.798629e-03	0.000000e+00	
-1.948718e+00	1.186709e+00	1.225054e+00	4.180556e+01	-8.920747e-10	2.540155e+05	1.013209e+05	2.881205e+02	1.002866e-01	-5.798630e-03	0.000000e+00	
-2.000000e+00	1.155063e+00	1.225054e+00	4.180556e+01	-3.184112e-10	2.540155e+05	1.013209e+05	2.881205e+02	1.002866e-01	-5.798629e-03	0.000000e+00	
-1.948718e+00	1.155063e+00	1.225054e+00	4.180556e+01	-8.074712e-10	2.540155e+05	1.013209e+05	2.881205e+02	1.002866e-01	-5.798630e-03	0.000000e+00	
-2.000000e+00	1.123418e+00	1.225054e+00	4.180556e+01	-1.373141e-10	2.540155e+05	1.013209e+05	2.881205e+02	1.002866e-01	-5.798629e-03	0.000000e+00	
-1.948718e+00	1.123418e+00	1.225054e+00	4.180556e+01	-6.300196e-10	2.540155e+05	1.013209e+05	2.881205e+02	1.002866e-01	-5.798630e-03	0.000000e+00	
-2.000000e+00	1.091772e+00	1.225054e+00	4.180556e+01	-4.267674e-11	2.540155e+05	1.013209e+05	2.881205e+02	1.002866e-01	-5.798629e-03	0.000000e+00	
-1.948718e+00	1.091772e+00	1.225054e+00	4.180556e+01	-5.189156e-10	2.540155e+05	1.013209e+05	2.881205e+02	1.002866e-01	-5.798630e-03	0.000000e+00	
-2.000000e+00	1.060127e+00	1.225054e+00	4.180556e+01	-8.910513e-12	2.540155e+05	1.013209e+05	2.881205e+02	1.002866e-01	-5.798629e-03	0.000000e+00	
-1.948718e+00	1.060127e+00	1.225054e+00	4.180556e+01	-4.615698e-10	2.540155e+05	1.013209e+05	2.881205e+02	1.002866e-01	-5.798630e-03	0.000000e+00	
-2.000000e+00	1.028481e+00	1.225054e+00	4.180556e+01	-3.981592e-12	2.540155e+05	1.013209e+05	2.881205e+02	1.002866e-01	-5.798629e-03	0.000000e+00	
-1.948718e+00	1.028481e+00	1.225054e+00	4.180556e+01	-4.460198e-10	2.540155e+05	1.013209e+05	2.881205e+02	1.002866e-01	-5.798630e-03	0.000000e+00	
-2.000000e+00	9.968354e-01	1.225054e+00	4.180556e+01	-4.776042e-12	2.540155e+05	1.013209e+05	2.881205e+02	1.002866e-01	-5.798629e-03	0.000000e+00	
-1.948718e+00	9.968354e-01	1.225054e+00	4.180556e+01	-4.417340e-10	2.540155e+05	1.013209e+05	2.881205e+02	1.002866e-01	-5.798630e-03	0.000000e+00	
-2.000000e+00	9.651899e-01	1.225054e+00	4.180556e+01	-4.760754e-12	2.540155e+05	1.013209e+05	2.881205e+02	1.002866e-01	-5.798629e-03	0.000000e+00	
-1.948718e+00	9.651899e-01	1.225054e+00	4.180556e+01	-4.410072e-10	2.540155e+05	1.013209e+05	2.881205e+02	1.002866e-01	-5.798630e-03	0.000000e+00	
-2.000000e+00	9.335443e-01	1.225054e+00	4.180556e+01	-3.497934e-12	2.540155e+05	1.013209e+05	2.881205e+02	1.002866e-01	-5.798629e-03	0.000000e+00	
-1.948718e+00	9.335443e-01	1.225054e+00	4.180556e+01	-4.390992e-10	2.540155e+05	1.013209e+05	2.881205e+02	1.002866e-01	-5.798630e-03	0.000000e+00	
-2.000000e+00	9.018987e-01	1.225054e+00	4.180556e+01	-2.650583e-12	2.540155e+05	1.013209e+05	2.881205e+02	1.002866e-01	-5.798629e-03	0.000000e+00	
-1.948718e+00	9.018987e-01	1.225054e+00	4.180556e+01	-4.379701e-10	2.540155e+05	1.013209e+05	2.881205e+02	1.002866e-01	-5.798630e-03	0.000000e+00	
-2.000000e+00	8.702532e-01	1.225054e+00	4.180556e+01	-2.646296e-12	2.540155e+05	1.013209e+05	2.881205e+02	1.002866e-01	-5.798629e-03	0.000000e+00	
-1.948718e+00	8.702532e-01	1.225054e+00	4.180556e+01	-4.372695e-10	2.540155e+05	1.013209e+05	2.881205e+02	1.002866e-01	-5.798630e-03	0.000000e+00	
-2.000000e+00	8.386076e-01	1.225054e+00	4.180556e+01	-3.110668e-12	2.540155e+05	1.013209e+05	2.881205e+02	1.002866e-01	-5.798629e-03	0.000000e+00	
-1.948718e+00	8.386076e-01	1.225054e+00	4.180556e+01	-4.370727e-10	2.540155e+05	1.013209e+05	2.881205e+02	1.002866e-01	-5.798630e-03	0.000000e+00	
-2.000000e+00	8.069620e-01	1.225054e+00	4.180556e+01	-3.572102e-12	2.540155e+05	1.013209e+05	2.881205e+02	1.002866e-01	-5.798629e-03	0.000000e+00	
-1.948718e+00	8.069620e-01	1.225054e+00	4.180556e+01	-4.364603e-10	2.540155e+05	1.013209e+05	2.881205e+02	1.002866e-01	-5.798630e-03	0.000000e+00	
-2.000000e+00	7.753165e-01	1.225054e+00	4.180556e+01	-4.002278e-12	2.540155e+05	1.013209e+05	2.881205e+02	1.002866e-01	-5.798629e-03	0.000000e+00	
-1.948718e+00	7.753165e-01	1.225054e+00	4.180556e+01	-4.349915e-10	2.540155e+05	1.013209e+05	2.881205e+02	1.002866e-01	-5.798630e-03	0.000000e+00	
-2.000000e+00	7.436709e-01	1.225054e+00	4.180556e+01	-4.481242e-12	2.540155e+05	1.013209e+05	2.881205e+02	1.002866e-01	-5.798629e-03	0.000000e+00	
-1.948718e+00	7.436709e-01	1.225054e+00	4.180556e+01	-4.324387e-10	2.540155e+05	1.013209e+05	2.881205e+02	1.002866e-01	-5.798630e-03	0.000000e+00	
-2.000000e+00	7.120253e-01	1.225054e+00	4.180556e+01	-4.616467e-12	2.540155e+05	1.013209e+05	2.881205e+02	1.002866e-01	-5.798629e-03	0.000000e+00	
-1.948718e+00	7.120253e-01	1.225054e+00	4.180556e+01	-4.284478e-10	2.540155e+05	1.013209e+05	2.881205e+02	1.002866e-01	-5.798630e-03	0.000000e+00	
-2.000000e+00	6.803797e-01	1.225054e+00	4.180556e+01	-4.886245e-12	2.540155e+05	1.013209e+05	2.881205e+02	1.002866e-01	-5.798629e-03	0.000000e+00	
-1.948718e+00	6.803797e-01	1.225054e+00	4.180556e+01	-4.229862e-10	2.540155e+05	1.013209e+05	2.881205e+02	1.002866e-01	-5.798630e-03	0.000000e+00	
-2.000000e+00	6.487342e-01	1.225054e+00	4.180556e+01	-5.184480e-12	2.540155e+05	1.013209e+05	2.881205e+02	1.002866e-01	-5.798629e-03	0.000000e+00	
-1.948718e+00	6.487342e-01	1.225054e+00	4.180556e+01	-4.159168e-10	2.540155e+05	1.013209e+05	2.881205e+02	1.002866e-01	-5.798630e-03	0.000000e+00	
-2.000000e+00	6.170886e-01	1.225054e+00	4.180556e+01	-5.169919e-12	2.540155e+05	1.013209e+05	2.881205e+02	1.002866e-01	-5.798629e-03	0.000000e+00	
-1.948718e+00	6.170886e-01	1.225054e+00	4.180556e+01	-4.071378e-10	2.540155e+05	1.013209e+05	2.881205e+02	1.002866e-01	-5.798630e-03	0.000000e+00	
-2.000000e+00	5.854430e-01	1.225054e+00	4.180556e+01	-5.105847e-12	2.540155e+05	1.013209e+05	2.881205e+02	1.002866e-01	-5.798629e-03	0.000000e+00	
-1.948718e+00	5.854430e-01	1.225054e+00	4.180556e+01	-3.965980e-10	2.540155e+05	1.013209e+05	2.881205e+02	1.002866e-01	-5.798630e-03	0.000000e+00	
-2.000000e+00	5.537975e-01	1.225054e+00	4.180556e+01	-5.271477e-12	2.540155e+05	1.013209e+05	2.881205e+02	1.002866e-01	-5.798629e-03	0.000000e+00	
-1.948718e+00	5.537975e-01	1.225054e+00	4.180556e+01	-3.845709e-10	2.540155e+05	1.013209e+05	2.881205e+02	1.002866e-01	-5.798630e-03	0.000000e+00	
-2.000000e+00	5.221519e-01	1.225054e+00	4.180556e+01	-5.193599e-12	2.540155e+05	1.013209e+05	2.881205e+02	1.002866e-01	-5.798629e-03	0.000000e+00	
-1.948718e+00	5.221519e-01	1.225054e+00	4.180556e+01	-3.707636e-10	2.540155e+05	1.013209e+05	2.881205e+02	1.002866e-01	-5.798630e-03	0.000000e+00	
-2.000000e+00	4.905063e-01	1.225054e+00	4.180556e+01	-5.227633e-12	2.540155e+05	1.013209e+05	2.881205e+02	1.002866e-01	-5.798629e-03	0.000000e+00	
-1.948718e+00	4.905063e-01	1.225054e+00	4.180556e+01	-3.553809e-10	2.540155e+05	1.013209e+05	2.881205e+02	1.002866e-01	-5.798630e-03	0.000000e+00	
-2.000000e+00	4.588608e-01	1.225054e+00	4.180556e+01	-4.988461e-12	2.540155e+05	1.013209e+05	2.881205e+02	1.002866e-01	-5.798629e-03	0.000000e+00	
-1.948718e+00	4.588608e-01	1.225054e+00	4.180556e+01	-3.381803e-10	2.540155e+05	1.013209e+05	2.881205e+02	1.002866e-01	-5.798630e-03	0.000000e+00	
-2.000000e+00	4.272152e-01	1.225054e+00	4.180556e+01	-4.955150e-12	2.540155e+05	1.013209e+05	2.881205e+02	1.002866e-01	-5.798629e-03	0.000000e+00	
-1.948718e+00	4.272152e-01	1.225054e+00	4.180556e+01	-3.195703e-10	2.540155e+05	1.013209e+05	2.881205e+02	1.002866e-01	-5.798630e-03	0.000000e+00	
-2.000000e+00	3.955696e-01	1.225054e+00	4.180556e+01	-4.936596e-12	2.540155e+05	1.013209e+05	2.881205e+02	1.002866e-01	-5.798629e-03	0.000000e+00	
-1.948718e+00	3.955696e-01	1.225054e+00	4.180556e+01	-2.994951e-10	2.540155e+05	1.013209e+05	2.881205e+02	1.002866e-01	-5.798630e-03	0.000000e+00	
-2.000000e+00	3.639241e-01	1.225054e+00	4.180556e+01	-5.063387e-12	2.540155e+05	1.013209e+05	2.881205e+02	1.002866e-01	-5.798629e-03	0.000000e+00	
-1.948718e+00	3.639241e-01	1.225054e+00	4.180556e+01	-2.779829e-10	2.540155e+05	1.013209e+05	2.881205e+02	1.002866e-01	-5.798630e-03	0.000000e+00	
-2.000000e+00	3.322785e-01	1.225054e+00	4.180556e+01	-4.721135e-12	2.540155e+05	1.013209e+05	2.881205e+02	1.002866e-01	-5.798629e-03	0.000000e+00	
-1.948718e+00	3.322785e-01	1.225054e+00	4.180556e+01	-2.549380e-10	2.540155e+05	1.013209e+05	2.881205e+02	1.002866e-01	-5.798630e-03	0.000000e+00	
-2.000000e+00	3.006329e-01	1.225054e+00	4.180556e+01	-4.502514e-12	2.540155e+05	1.013209e+05	2.881205e+02	1.002866e-01	-5.798629e-03	0.000000e+00	
-1.948718e+00	3.006329e-01	1.225054e+00	4.180556e+01	-2.306029e-10	2.540155e+05	1.013209e+05	2.881205e+02	1.002866e-01	-5.798630e-03	0.000000e+00	
-2.000000e+00	2.689873e-01	1.225054e+00	4.180556e+01	-4.144233e-12	2.540155e+05	1.013209e+05	2.881205e+02	1.002866e-01	-5.798629e-03	0.000000e+00	
-1.948718e+00	2.689873e-01	1.225054e+00	4.180556e+01	-2.052995e-10	2.540155e+05	1.013209e+05	2.881205e+02	1.002866e-01	-5.798630e-03	0.000000e+00	
-2.000000e+00	2.373418e-01	1.225054e+00	4.180556e+01	-4.146431e-12	2.540155e+05	1.013209e+05	2.881205e+02	1.002866e-01	-5.798629e-03	0.000000e+00	
-1.948718e+00	2.373418e-01	1.225054e+00	4.180556e+01	-1.789330e-10	2.540155e+05	1.013209e+05	2.881205e+02	1.002866e-01	-5.798630e-03	0.000000e+00	
-2.000000e+00	2.056962e-01	1.225054e+00	4.180556e+01	-3.908368e-12	2.540155e+05	1.013209e+05	2.881205e+02	1.002866e-01	-5.798629e-03	0.000000e+00	
-1.948718e+00	2.056962e-01	1.225054e+00	4.180556e+01	-1.516168e-10	2.540155e+05	1.013209e+05	2.881205e+02	1.002866e-01	-5.798630e-03	0.000000e+00	
-2.000000e+00	1.740506e-01	1.225054e+00	4.180556e+01	-3.622500e-12	2.540155e+05	1.013209e+05	2.881205e+02	1.002866e-01	-5.798629e-03	0.000000e+00	
-1.948718e+00	1.740506e-01	1.225054e+00	4.180556e+01	-1.236081e-10	2.540155e+05	1.013209e+05	2.881205e+02	1.002866e-01	-5.798630e-03	0.000000e+00	
-2.000000e+00	1.424051e-01	1.225054e+00	4.180556e+01	-3.507130e-12	2.540155e+05	1.013209e+05	2.881205e+02	1.002866e-01	-5.798629e-03	0.000000e+00	
-1.948718e+00	1.424051e-01	1.225054e+00	4.180556e+01	-9.497367e-11	2.540155e+05	1.013209e+05	2.881205e+02	1.002866e-01	-5.798630e-03	0.000000e+00	
-2.000000e+00	1.107595e-01	1.225054e+00	4.180556e+01	-3.476180e-12	2.540155e+05	1.013209e+05	2.881205e+02	1.002866e-01	-5.798629e-03	0.000000e+00	
-1.948718e+00	1.107595e-01	1.225054e+00	4.180556e+01	-6.573083e-11	2.540155e+05	1.013209e+05	2.881205e+02	1.002866e-01	-5.798630e-03	0.000000e+00	
-2.000000e+00	7.911392e-02	1.225054e+00	4.180556e+01	-3.179321e-12	2.540155e+05	1.013209e+05	2.881205e+02	1.002866e-01	-5.798629e-03	0.000000e+00	
-1.948718e+00	7.911392e-02	1.225054e+00	4.180556e+01	-3.610450e-11	2.540155e+05	1.013209e+05	2.881205e+02	1.002866e-01	-5.798630e-03	0.000000e+00	
-2.000000e+00	4.746835e-02	1.225054e+00	4.180556e+01	-2.947978e-12	2.540155e+05	1.013209e+05	2.881205e+02	1.002866e-01	-5.798629e-03	0.000000e+00	
-1.948718e+00	4.746835e-02	1.225054e+00	4.180556e+01	-6.350956e-12	2.540155e+05	1.013209e+05	2.881205e+02	1.002866e-01	-5.798630e-03	0.000000e+00	
-2.000000e+00	1.582278e-02	1.225054e+00	4.180556e+01	-2.718740e-12	2.540155e+05	1.013209e+05	2.881205e+02	1.002866e-01	-5.798629e-03	0.000000e+00	
-1.948718e+00	1.582278e-02	1.225054e+00	4.180556e+01	2.377768e-11	2.540155e+05	1.013209e+05	2.881205e+02	1.002866e-01	-5.798630e-03	0.000000e+00	
-2.000000e+00	-1.582278e-02	1.225054e+00	4.180556e+01	-2.516362e-12	2.540155e+05	1.013209e+05	2.881205e+02	1.002866e-01	-5.798629e-03	0.000000e+00	
-1.948718e+00	-1.582278e-02	1.225054e+00	4.180556e+01	5.363591e-11	2.540155e+05	1.013209e+05	2.881205e+02	1.002866e-01	-5.798630e-03	0.000000e+00	
-2.000000e+00	-4.746835e-02	1.225054e+00	4.180556e+01	-2.193671e-12	2.540155e+05	1.013209e+05	2.881205e+02	1.002866e-01	-5.798629e-03	0.000000e+00	
-1.948718e+00	-4.746835e-02	1.225054e+00	4.180556e+01	8.337398e-11	2.540155e+05	1.013209e+05	2.881205e+02	1.002866e-01	-5.798630e-03	0.000000e+00	
-2.000000e+00	-7.911392e-02	1.225054e+00	4.180556e+01	-2.005640e-12	2.540155e+05	1.013209e+05	2.881205e+02	1.002866e-01	-5.798629e-03	0.000000e+00	
-1.948718e+00	-7.911392e-02	1.225054e+00	4.180556e+01	1.126934e-10	2.540155e+05	1.013209e+05	2.881205e+02	1.002866e-01	-5.798630e-03	0.000000e+00	
-2.000000e+00	-1.107595e-01	1.225054e+00	4.180556e+01	-1.808721e-12	2.540155e+05	1.013209e+05	2.881205e+02	1.002866e-01	-5.798629e-03	0.000000e+00	
-1.948718e+00	-1.107595e-01	1.225054e+00	4.180556e+01	1.414800e-10	2.540155e+05	1.013209e+05	2.881205e+02	1.002866e-01	-5.798630e-03	0.000000e+00	
-2.000000e+00	-1.424051e-01	1.225054e+00	4.180556e+01	-1.498804e-12	2.540155e+05	1.013209e+05	2.881205e+02	1.002866e-01	-5.798629e-03	0.000000e+00	
-1.948718e+00	-1.424051e-01	1.225054e+00	4.180556e+01	1.697217e-10	2.540155e+05	1.013209e+05	2.881205e+02	1.002866e-01	-5.798630e-03	0.000000e+00	
-2.000000e+00	-1.740506e-01	1.225054e+00	4.180556e+01	-1.382284e-12	2.540155e+05	1.013209e+05	2.881205e+02	1.002866e-01	-5.798629e-03	0.000000e+00	
-1.948718e+00	-1.740506e-01	1.225054e+00	4.180556e+01	1.970849e-10	2.540155e+05	1.013209e+05	2.881205e+02	1.002866e-01	-5.798630e-03	0.000000e+00	
-2.000000e+00	-2.056962e-01	1.225054e+00	4.180556e+01	-1.083619e-12	2.540155e+05	1.013209e+05	2.881205e+02	1.002866e-01	-5.798629e-03	0.000000e+00	
-1.948718e+00	-2.056962e-01	1.225054e+00	4.180556e+01	2.235211e-10	2.540155e+05	1.013209e+05	2.881205e+02	1.002866e-01	-5.798630e-03	0.000000e+00	
-2.000000e+00	-2.373418e-01	1.225054e+00	4.180556e+01	-7.315927e-13	2.540155e+05	1.013209e+05	2.881205e+02	1.002866e-01	-5.798629e-03	0.000000e+00	
-1.948718e+00	-2.373418e-01	1.225054e+00	4.180556e+01	2.488648e-10	2.540155e+05	1.013209e+05	2.881205e+02	1.002866e-01	-5.798630e-03	0.000000e+00	
-2.000000e+00	-2.689873e-01	1.225054e+00	4.180556e+01	-6.994193e-13	2.540155e+05	1.013209e+05	2.881205e+02	1.002866e-01	-5.798629e-03	0.000000e+00	
-1.948718e+00	-2.689873e-01	1.225054e+00	4.180556e+01	2.727898e-10	2.540155e+05	1.013209e+05	2.881205e+02	1.002866e-01	-5.798630e-03	0.000000e+00	
-2.000000e+00	-3.006329e-01	1.225054e+00	4.180556e+01	-7.688088e-13	2.540155e+05	1.013209e+05	2.881205e+02	1.002866e-01	-5.798629e-03	0.000000e+00	
-1.948718e+00	-3.006329e-01	1.225054e+00	4.180556e+01	2.954210e-10	2.540155e+05	1.013209e+05	2.881205e+02	1.002866e-01	-5.798630e-03	0.000000e+00	
-2.000000e+00	-3.322785e-01	1.225054e+00	4.180556e+01	-6.523952e-13	2.540155e+05	1.013209e+05	2.881205e+02	1.002866e-01	-5.798629e-03	0.000000e+00	
-1.948718e+00	-3.322785e-01	1.225054e+00	4.180556e+01	3.165695e-10	2.540155e+05	1.013209e+05	2.881205e+02	1.002866e-01	-5.798630e-03	0.000000e+00	
-2.000000e+00	-3.639241e-01	1.225054e+00	4.180556e+01	-2.892011e-13	2.540155e+05	1.013209e+05	2.881205e+02	1.002866e-01	-5.798629e-03	0.000000e+00	
-1.948718e+00	-3.639241e-01	1.225054e+00	4.180556e+01	3.363262e-10	2.540155e+05	1.013209e+05	2.881205e+02	1.002866e-01	-5.798630e-03	0.000000e+00	
-2.000000e+00	-3.955696e-01	1.225054e+00	4.180556e+01	-7.832639e-14	2.540155e+05	1.013209e+05	2.881205e+02	1.002866e-01	-5.798629e-03	0.000000e+00	
-1.948718e+00	-3.955696e-01	1.225054e+00	4.180556e+01	3.542504e-10	2.540155e+05	1.013209e+05	2.881205e+02	1.002866e-01	-5.798630e-03	0.000000e+00	
-2.000000e+00	-4.272152e-01	1.225054e+00	4.180556e+01	-6.267880e-14	2.540155e+05	1.013209e+05	2.881205e+02	1.002866e-01	-5.798629e-03	0.000000e+00	
-1.948718e+00	-4.272152e-01	1.225054e+00	4.180556e+01	3.703288e-10	2.540155e+05	1.013209e+05	2.881205e+02	1.002866e-01	-5.798630e-03	0.000000e+00	
-2.000000e+00	-4.588608e-01	1.225054e+00	4.180556e+01	1.438880e-13	2.540155e+05	1.013209e+05	2.881205e+02	1.002866e-01	-5.798629e-03	0.000000e+00	
-1.948718e+00	-4.588608e-01	1.225054e+00	4.180556e+01	3.845376e-10	2.540155e+05	1.013209e+05	2.881205e+02	1.002866e-01	-5.798630e-03	0.000000e+00	
-2.000000e+00	-4.905063e-01	1.225054e+00	4.180556e+01	1.644034e-13	2.540155e+05	1.013209e+05	2.881205e+02	1.002866e-01	-5.798629e-03	0.000000e+00	
-1.948718e+00	-4.905063e-01	1.225054e+00	4.180556e+01	3.967128e-10	2.540155e+05	1.013209e+05	2.881205e+02	1.002866e-01	-5.798630e-03	0.000000e+00	
-2.000000e+00	-5.221519e-01	1.225054e+00	4.180556e+01	2.138028e-13	2.540155e+05	1.013209e+05	2.881205e+02	1.002866e-01	-5.798629e-03	0.000000e+00	
-1.948718e+00	-5.221519e-01	1.225054e+00	4.180556e+01	4.070997e-10	2.540155e+05	1.013209e+05	2.881205e+02	1.002866e-01	-5.798630e-03	0.000000e+00	
-2.000000e+00	-5.537975e-01	1.225054e+00	4.180556e+01	2.531710e-13	2.540155e+05	1.013209e+05	2.881205e+02	1.002866e-01	-5.798629e-03	0.000000e+00	
-1.948718e+00	-5.537975e-01	1.225054e+00	4.180556e+01	4.151848e-10	2.540155e+05	1.013209e+05	2.881205e+02	1.002866e-01	-5.798630e-03	0.000000e+00	
-2.000000e+00	-5.854430e-01	1.225054e+00	4.180556e+01	1.903406e-13	2.540155e+05	1.013209e+05	2.881205e+02	1.002866e-01	-5.798629e-03	0.000000e+00	
-1.948718e+00	-5.854430e-01	1.225054e+00	4.180556e+01	4.214906e-10	2.540155e+05	1.013209e+05	2.881205e+02	1.002866e-01	-5.798630e-03	0.000000e+00	
-2.000000e+00	-6.170886e-01	1.225054e+00	4.180556e+01	-1.123992e-13	2.540155e+05	1.013209e+05	2.881205e+02	1.002866e-01	-5.798629e-03	0.000000e+00	
-1.948718e+00	-6.170886e-01	1.225054e+00	4.180556e+01	4.254198e-10	2.540155e+05	1.013209e+05	2.881205e+02	1.002866e-01	-5.798630e-03	0.000000e+00	
-2.000000e+00	-6.487342e-01	1.225054e+00	4.180556e+01	-1.988605e-13	2.540155e+05	1.013209e+05	2.881205e+02	1.002866e-01	-5.798629e-03	0.000000e+00	
-1.948718e+00	-6.487342e-01	1.225054e+00	4.180556e+01	4.276970e-10	2.540155e+05	1.013209e+05	2.881205e+02	1.002866e-01	-5.798630e-03	0.000000e+00	
-2.000000e+00	-6.803797e-01	1.225054e+00	4.180556e+01	-4.229342e-13	2.540155e+05	1.013209e+05	2.881205e+02	1.002866e-01	-5.798629e-03	0.000000e+00	
-1.948718e+00	-6.803797e-01	1.225054e+00	4.180556e+01	4.280057e-10	2.540155e+05	1.013209e+05	2.881205e+02	1.002866e-01	-5.798630e-03	0.000000e+00	
-2.000000e+00	-7.120253e-01	1.225054e+00	4.180556e+01	-6.899672e-13	2.540155e+05	1.013209e+05	2.881205e+02	1.002866e-01	-5.798629e-03	0.000000e+00	
-1.948718e+00	-7.120253e-01	1.225054e+00	4.180556e+01	4.266039e-10	2.540155e+05	1.013209e+05	2.881205e+02	1.002866e-01	-5.798630e-03	0.000000e+00	
-2.000000e+00	-7.436709e-01	1.225054e+00	4.180556e+01	-9.318723e-13	2.540155e+05	1.013209e+05	2.881205e+02	1.002866e-01	-5.798629e-03	0.000000e+00	
-1.948718e+00	-7.436709e-01	1.225054e+00	4.180556e+01	4.235772e-10	2.540155e+05	1.013209e+05	2.881205e+02	1.002866e-01	-5.798630e-03	0.000000e+00	
-2.000000e+00	-7.753165e-01	1.225054e+00	4.180556e+01	-1.362657e-12	2.540155e+05	1.013209e+05	2.881205e+02	1.002866e-01	-5.798629e-03	0.000000e+00	
-1.948718e+00	-7.753165e-01	1.225054e+00	4.180556e+01	4.190161e-10	2.540155e+05	1.013209e+05	2.881205e+02	1.002866e-01	-5.798630e-03	0.000000e+00	
-2.000000e+00	-8.069620e-01	1.225054e+00	4.180556e+01	-1.906040e-12	2.540155e+05	1.013209e+05	2.881205e+02	1.002866e-01	-5.798629e-03	0.000000e+00	
-1.948718e+00	-8.069620e-01	1.225054e+00	4.180556e+01	4.132180e-10	2.540155e+05	1.013209e+05	2.881205e+02	1.002866e-01	-5.798630e-03	0.000000e+00	
-2.000000e+00	-8.386076e-01	1.225054e+00	4.180556e+01	-2.581271e-12	2.540155e+05	1.013209e+05	2.881205e+02	1.002866e-01	-5.798629e-03	0.000000e+00	
-1.948718e+00	-8.386076e-01	1.225054e+00	4.180556e+01	4.065784e-10	2.540155e+05	1.013209e+05	2.881205e+02	1.002866e-01	-5.798630e-03	0.000000e+00	
-2.000000e+00	-8.702532e-01	1.225054e+00	4.180556e+01	-3.103807e-12	2.540155e+05	1.013209e+05	2.881205e+02	1.002866e-01	-5.798629e-03	0.000000e+00	
-1.948718e+00	-8.702532e-01	1.225054e+00	4.180556e+01	3.996949e-10	2.540155e+05	1.013209e+05	2.881205e+02	1.002866e-01	-5.798630e-03	0.000000e+00	
-2.000000e+00	-9.018987e-01	1.225054e+00	4.180556e+01	-3.131406e-12	2.540155e+05	1.013209e+05	2.881205e+02	1.002866e-01	-5.798629e-03	0.000000e+00	
-1.948718e+00	-9.018987e-01	1.225054e+00	4.180556e+01	3.934477e-10	2.540155e+05	1.013209e+05	2.881205e+02	1.002866e-01	-5.798630e-03	0.000000e+00	
-2.000000e+00	-9.335443e-01	1.225054e+00	4.180556e+01	-2.543698e-12	2.540155e+05	1.013209e+05	2.881205e+02	1.002866e-01	-5.798629e-03	0.000000e+00	
-1.948718e+00	-9.335443e-01	1.225054e+00	4.180556e+01	3.878582e-10	2.540155e+05	1.013209e+05	2.881205e+02	1.002866e-01	-5.798630e-03	0.000000e+00	
-2.000000e+00	-9.651899e-01	1.225054e+00	4.180556e+01	-1.628980e-12	2.540155e+05	1.013209e+05	2.881205e+02	1.002866e-01	-5.798629e-03	0.000000e+00	
-1.948718e+00	-9.651899e-01	1.225054e+00	4.180556e+01	3.831507e-10	2.540155e+05	1.013209e+05	2.881205e+02	1.002866e-01	-5.798630e-03	0.000000e+00	
-2.000000e+00	-9.968354e-01	1.225054e+00	4.180556e+01	-1.753025e-12	2.540155e+05	1.013209e+05	2.881205e+02	1.002866e-01	-5.798629e-03	0.000000e+00	
-1.948718e+00	-9.968354e-01	1.225054e+00	4.180556e+01	3.780251e-10	2.540155e+05	1.013209e+05	2.881205e+02	1.002866e-01	-5.798630e-03	0.000000e+00	
-2.000000e+00	-1.028481e+00	1.225054e+00	4.180556e+01	-2.522460e-12	2.540155e+05	1.013209e+05	2.881205e+02	1.002866e-01	-5.798629e-03	0.000000e+00	
-1.948718e+00	-1.028481e+00	1.225054e+00	4.180556e+01	3.770943e-10	2.540155e+05	1.013209e+05	2.881205e+02	1.002866e-01	-5.798630e-03	0.000000e+00	
-2.000000e+00	-1.060127e+00	1.225054e+00	4.180556e+01	2.340771e-12	2.540155e+05	1.013209e+05	2.881205e+02	1.002866e-01	-5.798629e-03	0.000000e+00	
-1.948718e+00	-1.060127e+00	1.225054e+00	4.180556e+01	3.878983e-10	2.540155e+05	1.013209e+05	2.881205e+02	1.002866e-01	-5.798630e-03	0.000000e+00	
-2.000000e+00	-1.091772e+00	1.225054e+00	4.180556e+01	3.578900e-11	2.540155e+05	1.013209e+05	2.881205e+02	1.002866e-01	-5.798629e-03	0.000000e+00	
-1.948718e+00	-1.091772e+00	1.225054e+00	4.180556e+01	4.411959e-10	2.540155e+05	1.013209e+05	2.881205e+02	1.002866e-01	-5.798630e-03	0.000000e+00	
-2.000000e+00	-1.123418e+00	1.225054e+00	4.180556e+01	1.303271e-10	2.540155e+05	1.013209e+05	2.881205e+02	1.002866e-01	-5.798629e-03	0.000000e+00	
-1.948718e+00	-1.123418e+00	1.225054e+00	4.180556e+01	5.490623e-10	2.540155e+05	1.013209e+05	2.881205e+02	1.002866e-01	-5.798630e-03	0.000000e+00	
-2.000000e+00	-1.155063e+00	1.225054e+00	4.180556e+01	3.114221e-10	2.540155e+05	1.013209e+05	2.881205e+02	1.002866e-01	-5.798629e-03	0.000000e+00	
-1.948718e+00	-1.155063e+00	1.225054e+00	4.180556e+01	7.243521e-10	2.540155e+05	1.013209e+05	2.881205e+02	1.002866e-01	-5.798630e-03	0.000000e+00	
-2.000000e+00	-1.186709e+00	1.225054e+00	4.180556e+01	5.062077e-10	2.540155e+05	1.013209e+05	2.881205e+02	1.002866e-01	-5.798629e-03	0.000000e+00	
-1.948718e+00	-1.186709e+00	1.225054e+00	4.180556e+01	8.083792e-10	2.540155e+05	1.013209e+05	2.881205e+02	1.002866e-01	-5.798630e-03	0.000000e+00	
-2.000000e+00	-1.218354e+00	1.225054e+00	4.180556e+01	5.356679e-10	2.540155e+05	1.013209e+05	2.881205e+02	1.002866e-01	-5.798629e-03	0.000000e+00	
-1.948718e+00	-1.218354e+00	1.225054e+00	4.180556e+01	6.888993e-10	2.540155e+05	1.013209e+05	2.881205e+02	1.002866e-01	-5.798630e-03	0.000000e+00	
-1.897436e+00	1.218354e+00	1.225054e+00	4.180556e+01	-8.989695e-10	2.540155e+05	1.013209e+05	2.881205e+02	1.002866e-01	-5.798630e-03	0.000000e+00	
-1.897436e+00	1.250000e+00	1.225054e+00	4.180556e+01	-8.318691e-11	2.540155e+05	1.013209e+05	2.881205e+02	1.002866e-01	-5.798630e-03	0.000000e+00	
-1.897436e+00	1.186709e+00	1.225054e+00	4.180556e+01	-1.200515e-09	2.540155e+05	1.013209e+05	2.881205e+02	1.002866e-01	-5.798630e-03	0.000000e+00	
-1.897436e+00	1.155063e+00	1.225054e+00	4.180556e+01	-1.226759e-09	2.540155e+05	1.013209e+05	2.881205e+02	1.002866e-01	-5.798630e-03	0.000000e+00	
-1.897436e+00	1.123418e+00	1.225054e+00	4.180556e+01	-1.080789e-09	2.540155e+05	1.013209e+05	2.881205e+02	1.002866e-01	-5.798630e-03	0.000000e+00	
-1.897436e+00	1.091772e+00	1.225054e+00	4.180556e+01	-9.645003e-10	2.540155e+05	1.013209e+05	2.881205e+02	1.002866e-01	-5.798630e-03	0.000000e+00	
-1.897436e+00	1.060127e+00	1.225054e+00	4.180556e+01	-8.909610e-10	2.540155e+05	1.013209e+05	2.881205e+02	1.002866e-01	-5.798630e-03	0.000000e+00	
-1.897436e+00	1.028481e+00	1.225054e+00	4.180556e+01	-8.691422e-10	2.540155e+05	1.013209e+05	2.881205e+02	1.002866e-01	-5.798630e-03	0.000000e+00	
-1.897436e+00	9.968354e-01	1.225054e+00	4.180556e+01	-8.644850e-10	2.540155e+05	1.013209e+05	2.881205e+02	1.002866e-01	-5.798630e-03	0.000000e+00	
-1.897436e+00	9.651899e-01	1.225054e+00	4.180556e+01	-8.678487e-10	2.540155e+05	1.013209e+05	2.881205e+02	1.002866e-01	-5.798630e-03	0.000000e+00	
-1.897436e+00	9.335443e-01	1.225054e+00	4.180556e+01	-8.695520e-10	2.540155e+05	1.013209e+05	2.881205e+02	1.002866e-01	-5.798630e-03	0.000000e+00	
-1.897436e+00	9.018987e-01	1.225054e+00	4.180556e+01	-8.712852e-10	2.540155e+05	1.013209e+05	2.881205e+02	1.002866e-01	-5.798630e-03	0.000000e+00	
-1.897436e+00	8.702532e-01	1.225054e+00	4.180556e+01	-8.723430e-10	2.540155e+05	1.013209e+05	2.881205e+02	1.002866e-01	-5.798630e-03	0.000000e+00	
-1.897436e+00	8.386076e-01	1.225054e+00	4.180556e+01	-8.731562e-10	2.540155e+05	1.013209e+05	2.881205e+02	1.002866e-01	-5.798630e-03	0.000000e+00	
-1.897436e+00	8.069620e-01	1.225054e+00	4.180556e+01	-8.726780e-10	2.540155e+05	1.013209e+05	2.881205e+02	1.002866e-01	-5.798631e-03	0.000000e+00	
-1.897436e+00	7.753165e-01	1.225054e+00	4.180556e+01	-8.705208e-10	2.540155e+05	1.013209e+05	2.881205e+02	1.002866e-01	-5.798631e-03	0.000000e+00	
-1.897436e+00	7.436709e-01	1.225054e+00	4.180556e+01	-8.657325e-10	2.540155e+05	1.013209e+05	2.881205e+02	1.002866e-01	-5.798631e-03	0.000000e+00	
-1.897436e+00	7.120253e-01	1.225054e+00	4.180556e+01	-8.581245e-10	2.540155e+05	1.013209e+05	2.881205e+02	1.002866e-01	-5.798631e-03	0.000000e+00	
-1.897436e+00	6.803797e-01	1.225054e+00	4.180556e+01	-8.472845e-10	2.540155e+05	1.013209e+05	2.881205e+02	1.002866e-01	-5.798631e-03	0.000000e+00	
-1.897436e+00	6.487342e-01	1.225054e+00	4.180556e+01	-8.333062e-10	2.540155e+05	1.013209e+05	2.881205e+02	1.002866e-01	-5.798631e-03	0.000000e+00	
-1.897436e+00	6.170886e-01	1.225054e+00	4.180556e+01	-8.157811e-10	2.540155e+05	1.013209e+05	2.881205e+02	1.002866e-01	-5.798631e-03	0.000000e+00	
-1.897436e+00	5.854430e-01	1.225054e+00	4.180556e+01	-7.950048e-10	2.540155e+05	1.013209e+05	2.881205e+02	1.002866e-01	-5.798631e-03	0.000000e+00	
-1.897436e+00	5.537975e-01	1.225054e+00	4.180556e+01	-7.707639e-10	2.540155e+05	1.013209e+05	2.881205e+02	1.002866e-01	-5.798631e-03	0.000000e+00	
-1.897436e+00	5.221519e-01	1.225054e+00	4.180556e+01	-7.432502e-10	2.540155e+05	1.013209e+05	2.881205e+02	1.002866e-01	-5.798631e-03	0.000000e+00	
-1.897436e+00	4.905063e-01	1.225054e+00	4.180556e+01	-7.122056e-10	2.540155e+05	1.013209e+05	2.881205e+02	1.002866e-01	-5.798631e-03	0.000000e+00	
-1.897436e+00	4.588608e-01	1.225054e+00	4.180556e+01	-6.779367e-10	2.540155e+05	1.013209e+05	2.881205e+02	1.002866e-01	-5.798631e-03	0.000000e+00	
-1.897436e+00	4.272152e-01	1.225054e+00	4.180556e+01	-6.404327e-10	2.540155e+05	1.013209e+05	2.881205e+02	1.002866e-01	-5.798631e-03	0.000000e+00	
-1.897436e+00	3.955696e-01	1.225054e+00	4.180556e+01	-5.999675e-10	2.540155e+05	1.013209e+05	2.881205e+02	1.002866e-01	-5.798631e-03	0.000000e+00	
-1.897436e+00	3.639241e-01	1.225054e+00	4.180556e+01	-5.565386e-10	2.540155e+05	1.013209e+05	2.881205e+02	1.002866e-01	-5.798631e-03	0.000000e+00	
-1.897436e+00	3.322785e-01	1.225054e+00	4.180556e+01	-5.103455e-10	2.540155e+05	1.013209e+05	2.881205e+02	1.002866e-01	-5.798631e-03	0.000000e+00	
-1.897436e+00	3.006329e-01	1.225054e+00	4.180556e+01	-4.616464e-10	2.540155e+05	1.013209e+05	2.881205e+02	1.002866e-01	-5.798631e-03	0.000000e+00	
-1.897436e+00	2.689873e-01	1.225054e+00	4.180556e+01	-4.107311e-10	2.540155e+05	1.013209e+05	2.881205e+02	1.002866e-01	-5.798631e-03	0.000000e+00	
-1.897436e+00	2.373418e-01	1.225054e+00	4.180556e+01	-3.576956e-10	2.540155e+05	1.013209e+05	2.881205e+02	1.002866e-01	-5.798631e-03	0.000000e+00	
-1.897436e+00	2.056962e-01	1.225054e+00	4.180556e+01	-3.028527e-10	2.540155e+05	1.013209e+05	2.881205e+02	1.002866e-01	-5.798631e-03	0.000000e+00	
-1.897436e+00	1.740506e-01	1.225054e+00	4.180556e+01	-2.464301e-10	2.540155e+05	1.013209e+05	2.881205e+02	1.002866e-01	-5.798631e-03	0.000000e+00	
-1.897436e+00	1.424051e-01	1.225054e+00	4.180556e+01	-1.887017e-10	2.540155e+05	1.013209e+05	2.881205e+02	1.002866e-01	-5.798631e-03	0.000000e+00	
-1.897436e+00	1.107595e-01	1.225054e+00	4.180556e+01	-1.298806e-10	2.540155e+05	1.013209e+05	2.881205e+02	1.002866e-01	-5.798631e-03	0.000000e+00	
-1.897436e+00	7.911392e-02	1.225054e+00	4.180556e+01	-7.018689e-11	2.540155e+05	1.013209e+05	2.881205e+02	1.002866e-01	-5.798631e-03	0.000000e+00	
-1.897436e+00	4.746835e-02	1.225054e+00	4.180556e+01	-1.008319e-11	2.540155e+05	1.013209e+05	2.881205e+02	1.002866e-01	-5.798631e-03	0.000000e+00	
-1.897436e+00	1.582278e-02	1.225054e+00	4.180556e+01	5.026270e-11	2.540155e+05	1.013209e+05	2.881205e+02	1.002866e-01	-5.798631e-03	0.000000e+00	
-1.897436e+00	-1.582278e-02	1.225054e+00	4.180556e+01	1.104813e-10	2.540155e+05	1.013209e+05	2.881205e+02	1.002866e-01	-5.798631e-03	0.000000e+00	
-1.897436e+00	-4.746835e-02	1.225054e+00	4.180556e+01	1.703165e-10	2.540155e+05	1.013209e+05	2.881205e+02	1.002866e-01	-5.798631e-03	0.000000e+00	
-1.897436e+00	-7.911392e-02	1.225054e+00	4.180556e+01	2.292557e-10	2.540155e+05	1.013209e+05	2.881205e+02	1.002866e-01	-5.798631e-03	0.000000e+00	
-1.897436e+00	-1.107595e-01	1.225054e+00	4.180556e+01	2.873686e-10	2.540155e+05	1.013209e+05	2.881205e+02	1.002866e-01	-5.798631e-03	0.000000e+00	