VARIABLES = "x"
 "y"
 "Density"
 "Momentum_x"
 "Momentum_y"
 "Energy"
 "Pressure"
 "Temperature"
 "Mach"
 "C<sub>p</sub>"
 "Roe_Dissipation"
ZONE
DT=(DOUBLE,DOUBLE,DOUBLE,DOUBLE,DOUBLE,DOUBLE,DOUBLE,DOUBLE,DOUBLE,DOUBLE,DOUBLE)
                     -1                    1.25        1.22505402565002        41.8055610656738   -4.12101045838571E-09                254015.5          101320.8984375        288.120513916016       0.100286602973938    -0.00579864345490878                       0 
                     -1         1.2474974974975        1.22505402565002        41.8055610656738   -4.28769934862647E-09                254015.5          101320.8984375        288.120513916016       0.100286602973938    -0.00579864345490878                       0 
                     -1        1.24499499499499        1.22505402565002        41.8055610656738   -4.45438823886722E-09                254015.5          101320.8984375        288.120513916016       0.100286602973938    -0.00579864345490878                       0 
                     -1        1.24249249249249        1.22505402565002        41.8055610656738   -4.62107712910798E-09                254015.5          101320.8984375        288.120513916016       0.100286602973938    -0.00579864345490878                       0 
                     -1        1.23998998998999        1.22505402565002        41.8055610656738   -4.78776601934873E-09                254015.5          101320.8984375        288.120513916016       0.100286602973938    -0.00579864345490878                       0 
                     -1        1.23748748748749        1.22505402565002        41.8055610656738   -4.95445490958949E-09                254015.5          101320.8984375        288.120513916016       0.100286602973938    -0.00579864345490878                       0 
                     -1        1.23498498498498        1.22505402565002        41.8055610656738   -5.12114379983024E-09                254015.5          101320.8984375        288.120513916016       0.100286602973938    -0.00579864345490878                       0 
                     -1        1.23248248248248        1.22505402565002        41.8055610656738   -5.28783256528757E-09                254015.5          101320.8984375        288.120513916016       0.100286602973938    -0.00579864345490878                       0 
                     -1        1.22997997997998        1.22505402565002        41.8055610656738   -5.45452145552833E-09                254015.5          101320.8984375        288.120513916016       0.100286602973938    -0.00579864345490878                       0 
                     -1        1.22747747747748        1.22505402565002        41.8055610656738   -5.62121034576908E-09                254015.5          101320.8984375        288.120513916016       0.100286602973938    -0.00579864345490878                       0 
                     -1        1.22497497497497        1.22505402565002        41.8055610656738   -5.78789923600984E-09                254015.5          101320.8984375        288.120513916016       0.100286602973938    -0.00579864345490878                       0 
                     -1        1.22247247247247        1.22505402565002        41.8055610656738   -5.95458812625059E-09                254015.5          101320.8984375        288.120513916016       0.100286602973938    -0.00579864345490878                       0 
                     -1        1.21996996996997        1.22505402565002        41.8055610656738   -6.12127701649135E-09                254015.5          101320.8984375        288.120513916016       0.100286602973938    -0.00579864345490878                       0 
                     -1        1.21746746746747        1.22505402565002        41.8055610656738     -6.281729196374E-09                254015.5          101320.8984375        288.120513916016       0.100286602973938    -0.00579864345490878                       0 
                     -1        1.21496496496496        1.22505402565002        41.8055610656738   -6.43081284805973E-09                254015.5          101320.8984375        288.120513916016       0.100286602973938    -0.00579864345490878                       0 
                     -1        1.21246246246246        1.22505402565002        41.8055610656738   -6.57989649974546E-09                254015.5          101320.8984375        288.120513916016       0.100286602973938    -0.00579864345490878                       0 
                     -1        1.20995995995996        1.22505402565002        41.8055610656738   -6.72898015143119E-09                254015.5          101320.8984375        288.120513916016       0.100286602973938    -0.00579864345490878                       0 
                     -1        1.20745745745746        1.22505402565002        41.8055610656738   -6.87806380311692E-09                254015.5          101320.8984375        288.120513916016       0.100286602973938    -0.00579864345490878                       0 
                     -1        1.20495495495495        1.22505402565002        41.8055610656738   -7.02714745480265E-09                254015.5          101320.8984375        288.120513916016       0.100286602973938    -0.00579864345490878                       0 
                     -1        1.20245245245245        1.22505402565002        41.8055610656738   -7.17623099722064E-09                254015.5          101320.8984375        288.120513916016       0.100286602973938    -0.00579864345490878                       0 
                     -1        1.19994994994995        1.22505402565002        41.8055610656738   -7.32531464890638E-09                254015.5          101320.8984375        288.120513916016       0.100286602973938    -0.00579864345490878                       0 
                     -1        1.19744744744745        1.22505402565002        41.8055610656738   -7.47439830059211E-09                254015.5          101320.8984375        288.120513916016       0.100286602973938    -0.00579864345490878                       0 
                     -1        1.19494494494494        1.22505402565002        41.8055610656738   -7.62348195227784E-09                254015.5          101320.8984375        288.120513916016       0.100286602973938    -0.00579864345490878                       0 
                     -1        1.19244244244244        1.22505402565002        41.8055610656738   -7.77256560396357E-09                254015.5          101320.8984375        288.120513916016       0.100286602973938    -0.00579864345490878                       0 
                     -1        1.18993993993994        1.22505402565002        41.8055610656738    -7.9216492556493E-09                254015.5          101320.8984375        288.120513916016       0.100286602973938    -0.00579864345490878                       0 
                     -1        1.18743743743744        1.22505402565002        41.8055610656738   -8.07073290733503E-09                254015.5          101320.8984375        288.120513916016       0.100286602973938    -0.00579864345490878                       0 
                     -1        1.18493493493493        1.22505402565002        41.8055610656738    -8.2061037391755E-09                254015.5          101320.8984375        288.120513916016       0.100286602973938    -0.00579864345490878                       0 
                     -1        1.18243243243243        1.22505402565002        41.8055610656738   -8.33584454383359E-09                254015.5          101320.8984375        288.120513916016       0.100286602973938    -0.00579864345490878                       0 
                     -1        1.17992992992993        1.22505402565002        41.8055610656738   -8.46558534849167E-09                254015.5          101320.8984375        288.120513916016       0.100286602973938    -0.00579864345490878                       0 
                     -1        1.17742742742743        1.22505402565002        41.8055610656738   -8.59532615314975E-09                254015.5          101320.8984375        288.120513916016       0.100286602973938    -0.00579864345490878                       0 
                     -1        1.17492492492492        1.22505402565002        41.8055610656738   -8.72506695780783E-09                254015.5          101320.8984375        288.120513916016       0.100286602973938    -0.00579864345490878                       0 
                     -1        1.17242242242242        1.22505402565002        41.8055610656738   -8.85480776246592E-09                254015.5          101320.8984375        288.120513916016       0.100286602973938    -0.00579864345490878                       0 
                     -1        1.16991991991992        1.22505402565002        41.8055610656738   -8.98454847461498E-09                254015.5          101320.8984375        288.120513916016       0.100286602973938    -0.00579864345490878                       0 
                     -1        1.16741741741742        1.22505402565002        41.8055610656738   -9.11428927927307E-09                254015.5          101320.8984375        288.120513916016       0.100286602973938    -0.00579864345490878                       0 
                     -1        1.16491491491491        1.22505402565002        41.8055610656738   -9.24403008393115E-09                254015.5          101320.8984375        288.120513916016       0.100286602973938    -0.00579864345490878                       0 
                     -1        1.16241241241241        1.22505402565002        41.8055610656738   -9.37377088858923E-09                254015.5          101320.8984375        288.120513916016       0.100286602973938    -0.00579864345490878                       0 
                     -1        1.15990990990991        1.22505402565002        41.8055610656738   -9.50351169324731E-09                254015.5          101320.8984375        288.120513916016       0.100286602973938    -0.00579864345490878                       0 
                     -1        1.15740740740741        1.22505402565002        41.8055610656738    -9.6332524979054E-09                254015.5          101320.8984375        288.120513916016       0.100286602973938    -0.00579864345490878                       0 
                     -1         1.1549049049049        1.22505402565002        41.8055610656738   -9.76149229531179E-09                254015.5          101320.8984375        288.120513916016       0.100286602973938    -0.00579864345490878                       0 
                     -1         1.1524024024024        1.22505402565002        41.8055610656738   -9.86747848550836E-09                254015.5          101320.8984375        288.120513916016       0.100286602973938    -0.00579864345490878                       0 
                     -1         1.1498998998999        1.22505402565002        41.8055610656738   -9.97346467570493E-09                254015.5          101320.8984375        288.120513916016       0.100286602973938    -0.00579864345490878                       0 
                     -1         1.1473973973974        1.22505402565002        41.8055610656738   -1.00794508659015E-08                254015.5          101320.8984375        288.120513916016       0.100286602973938    -0.00579864345490878                       0 
                     -1        1.14489489489489        1.22505402565002        41.8055610656738   -1.01854370560981E-08                254015.5          101320.8984375        288.120513916016       0.100286602973938    -0.00579864345490878                       0 
                     -1        1.14239239239239        1.22505402565002        41.8055610656738   -1.02914232462947E-08                254015.5          101320.8984375        288.120513916016       0.100286602973938    -0.00579864345490878                       0 
                     -1        1.13988988988989        1.22505402565002        41.8055610656738   -1.03974094364912E-08                254015.5          101320.8984375        288.120513916016       0.100286602973938    -0.00579864345490878                       0 
                     -1        1.13738738738739        1.22505402565002        41.8055610656738   -1.05033955495862E-08                254015.5          101320.8984375        288.120513916016       0.100286602973938    -0.00579864345490878                       0 
                     -1        1.13488488488488        1.22505402565002        41.8055610656738   -1.06093817397828E-08                254015.5          101320.8984375        288.120513916016       0.100286602973938    -0.00579864345490878                       0 
                     -1        1.13238238238238        1.22505402565002        41.8055610656738   -1.07153679299793E-08                254015.5          101320.8984375        288.120513916016       0.100286602973938    -0.00579864345490878                       0 
                     -1        1.12987987987988        1.22505402565002        41.8055610656738   -1.08213541201759E-08                254015.5          101320.8984375        288.120513916016       0.100286602973938    -0.00579864345490878                       0 
                     -1        1.12737737737738        1.22505402565002        41.8055610656738   -1.09273403103725E-08                254015.5          101320.8984375        288.120513916016       0.100286602973938    -0.00579864345490878                       0 
                     -1        1.12487487487487        1.22505402565002        41.8055610656738   -1.10333265005691E-08                254015.5          101320.8984375        288.120513916016       0.100286602973938    -0.00579864345490878                       0 
                     -1        1.12237237237237        1.22505402565002        41.8055610656738   -1.11307340519557E-08                254015.5          101320.8984375        288.120513916016       0.100286602973938    -0.00579864345490878                       0 
                     -1        1.11986986986987        1.22505402565002        41.8055610656738   -1.12161884503001E-08                254015.5          101320.8984375        288.120513916016       0.100286602973938    -0.00579864345490878                       0 
                     -1        1.11736736736737        1.22505402565002        41.8055610656738   -1.13016428486446E-08                254015.5          101320.8984375        288.120513916016       0.100286602973938    -0.00579864345490878                       0 
                     -1        1.11486486486486        1.22505402565002        41.8055610656738    -1.1387097246989E-08                254015.5          101320.8984375        288.120513916016       0.100286602973938    -0.00579864345490878                       0 
                     -1        1.11236236236236        1.22505402565002        41.8055610656738   -1.14725516453335E-08                254015.5          101320.8984375        288.120513916016       0.100286602973938    -0.00579864345490878                       0 
                     -1        1.10985985985986        1.22505402565002        41.8055610656738   -1.15580060436779E-08                254015.5          101320.8984375        288.120513916016       0.100286602973938    -0.00579864345490878                       0 
                     -1        1.10735735735736        1.22505402565002        41.8055610656738   -1.16434603810663E-08                254015.5          101320.8984375        288.120513916016       0.100286602973938    -0.00579864345490878                       0 
                     -1        1.10485485485485        1.22505402565002        41.8055610656738   -1.17289147794108E-08                254015.5          101320.8984375        288.120513916016       0.100286602973938    -0.00579864345490878                       0 
                     -1        1.10235235235235        1.22505402565002        41.8055610656738   -1.18143691777552E-08                254015.5          101320.8984375        288.120513916016       0.100286602973938    -0.00579864345490878                       0 
                     -1        1.09984984984985        1.22505402565002        41.8055610656738   -1.18998235760997E-08                254015.5          101320.8984375        288.120513916016       0.100286602973938    -0.00579864345490878                       0 
                     -1        1.09734734734735        1.22505402565002        41.8055610656738   -1.19852779744441E-08                254015.5          101320.8984375        288.120513916016       0.100286602973938    -0.00579864345490878                       0 
                     -1        1.09484484484484        1.22505402565002        41.8055610656738   -1.20707323727886E-08                254015.5          101320.8984375        288.120513916016       0.100286602973938    -0.00579864345490878                       0 
                     -1        1.09234234234234        1.22505402565002        41.8055610656738    -1.2156186771133E-08                254015.5          101320.8984375        288.120513916016       0.100286602973938    -0.00579864345490878                       0 
                     -1        1.08983983983984        1.22505402565002        41.8055610656738   -1.22279784496103E-08                254015.5          101320.8984375        288.120513916016       0.100286602973938    -0.00579864345490878                       0 
                     -1        1.08733733733734        1.22505402565002        41.8055610656738   -1.22957367507919E-08                254015.5          101320.8984375        288.120513916016       0.100286602973938    -0.00579864345490878                       0 
                     -1        1.08483483483483        1.22505402565002        41.8055610656738   -1.23634950519735E-08                254015.5          101320.8984375        288.120513916016       0.100286602973938    -0.00579864345490878                       0 
                     -1        1.08233233233233        1.22505402565002        41.8055610656738   -1.24312533531551E-08                254015.5          101320.8984375        288.120513916016       0.100286602973938    -0.00579864345490878                       0 
                     -1        1.07982982982983        1.22505402565002        41.8055610656738   -1.24990116543367E-08                254015.5          101320.8984375        288.120513916016       0.100286602973938    -0.00579864345490878                       0 
                     -1        1.07732732732733        1.22505402565002        41.8055610656738   -1.25667699555183E-08                254015.5          101320.8984375        288.120513916016       0.100286602973938    -0.00579864345490878                       0 
                     -1        1.07482482482482        1.22505402565002        41.8055610656738   -1.26345282110273E-08                254015.5          101320.8984375        288.120513916016       0.100286602973938    -0.00579864345490878                       0 
                     -1        1.07232232232232        1.22505402565002        41.8055610656738   -1.27022865122089E-08                254015.5          101320.8984375        288.120513916016       0.100286602973938    -0.00579864345490878                       0 
                     -1        1.06981981981982        1.22505402565002        41.8055610656738   -1.27700448133905E-08                254015.5          101320.8984375        288.120513916016       0.100286602973938    -0.00579864345490878                       0 
                     -1        1.06731731731732        1.22505402565002        41.8055610656738   -1.28378031145721E-08                254015.5          101320.8984375        288.120513916016       0.100286602973938    -0.00579864345490878                       0 
                     -1        1.06481481481481        1.22505402565002        41.8055610656738   -1.29055614157537E-08                254015.5          101320.8984375        288.120513916016       0.100286602973938    -0.00579864345490878                       0 
                     -1        1.06231231231231        1.22505402565002        41.8055610656738   -1.29733197169353E-08                254015.5          101320.8984375        288.120513916016       0.100286602973938    -0.00579864345490878                       0 
                     -1        1.05980980980981        1.22505402565002        41.8055610656738   -1.30395098669871E-08                254015.5          101320.8984375        288.120513916016       0.100286602973938    -0.00579864345490878                       0 
                     -1        1.05730730730731        1.22505402565002        41.8055610656738   -1.30948968645186E-08                254015.5          101320.8984375        288.120513916016       0.100286602973938    -0.00579864345490878                       0 
                     -1         1.0548048048048        1.22505402565002        41.8055610656738   -1.31502838620501E-08                254015.5          101320.8984375        288.120513916016       0.100286602973938    -0.00579864345490878                       0 
                     -1         1.0523023023023        1.22505402565002        41.8055610656738   -1.32056708595815E-08                254015.5          101320.8984375        288.120513916016       0.100286602973938    -0.00579864345490878                       0 
                     -1         1.0497997997998        1.22505402565002        41.8055610656738    -1.3261057857113E-08                254015.5          101320.8984375        288.120513916016       0.100286602973938    -0.00579864345490878                       0 
                     -1         1.0472972972973        1.22505402565002        41.8055610656738   -1.33164448546444E-08                254015.5          101320.8984375        288.120513916016       0.100286602973938    -0.00579864345490878                       0 
                     -1        1.04479479479479        1.22505402565002        41.8055610656738   -1.33718318521759E-08                254015.5          101320.8984375        288.120513916016       0.100286602973938    -0.00579864345490878                       0 
                     -1        1.04229229229229        1.22505402565002        41.8055610656738   -1.34272188178834E-08                254015.5          101320.8984375        288.120513916016       0.100286602973938    -0.00579864345490878                       0 
                     -1        1.03978978978979        1.22505402565002        41.8055610656738   -1.34826058154148E-08                254015.5          101320.8984375        288.120513916016       0.100286602973938    -0.00579864345490878                       0 
                     -1        1.03728728728729        1.22505402565002        41.8055610656738   -1.35379928129463E-08                254015.5          101320.8984375        288.120513916016       0.100286602973938    -0.00579864345490878                       0 
                     -1        1.03478478478478        1.22505402565002        41.8055610656738   -1.35933798104777E-08                254015.5          101320.8984375        288.120513916016       0.100286602973938    -0.00579864345490878                       0 
                     -1        1.03228228228228        1.22505402565002        41.8055610656738   -1.36487668080092E-08                254015.5          101320.8984375        288.120513916016       0.100286602973938    -0.00579864345490878                       0 
                     -1        1.02977977977978        1.22505402565002        41.8055610656738   -1.37041538055406E-08                254015.5          101320.8984375        288.120513916016       0.100286602973938    -0.00579864345490878                       0 
                     -1        1.02727727727728        1.22505402565002        41.8055610656738   -1.37552000658884E-08                254015.5          101320.8984375        288.120513916016       0.100286602973938    -0.00579864345490878                       0 
                     -1        1.02477477477477        1.22505402565002        41.8055610656738   -1.38015628540245E-08                254015.5          101320.8984375        288.120513916016       0.100286602973938    -0.00579864345490878                       0 
                     -1        1.02227227227227        1.22505402565002        41.8055610656738   -1.38479256421607E-08                254015.5          101320.8984375        288.120513916016       0.100286602973938    -0.00579864345490878                       0 
                     -1        1.01976976976977        1.22505402565002        41.8055610656738   -1.38942884302968E-08                254015.5          101320.8984375        288.120513916016       0.100286602973938    -0.00579864345490878                       0 
                     -1        1.01726726726727        1.22505402565002        41.8055610656738    -1.3940651218433E-08                254015.5          101320.8984375        288.120513916016       0.100286602973938    -0.00579864345490878                       0 
                     -1        1.01476476476476        1.22505402565002        41.8055610656738   -1.39870140065691E-08                254015.5          101320.8984375        288.120513916016       0.100286602973938    -0.00579864345490878                       0 
                     -1        1.01226226226226        1.22505402565002        41.8055610656738   -1.40333767743597E-08                254015.5          101320.8984375        288.120513916016       0.100286602973938    -0.00579864345490878                       0 
                     -1        1.00975975975976        1.22505402565002        41.8055610656738   -1.40797395624959E-08                254015.5          101320.8984375        288.120513916016       0.100286602973938    -0.00579864345490878                       0 
                     -1        1.00725725725726        1.22505402565002        41.8055610656738    -1.4126102350632E-08                254015.5          101320.8984375        288.120513916016       0.100286602973938    -0.00579864345490878                       0 
                     -1        1.00475475475475        1.22505402565002        41.8055610656738   -1.41724651387681E-08                254015.5          101320.8984375        288.120513916016       0.100286602973938    -0.00579864345490878                       0 
                     -1        1.00225225225225        1.22505402565002        41.8055610656738   -1.42188279269043E-08                254015.5          101320.8984375        288.120513916016       0.100286602973938    -0.00579864345490878                       0 
                     -1        0.99974974974975        1.22505402565002        41.8055610656738   -1.42651907150404E-08                254015.5          101320.8984375        288.120513916016       0.100286602973938    -0.00579864345490878                       0 
                     -1       0.997247247247247        1.22505402565002        41.8055610656738   -1.43115535031766E-08                254015.5          101320.8984375        288.120513916016       0.100286602973938    -0.00579864345490878                       0 
                     -1       0.994744744744745        1.22505402565002        41.8055610656738   -1.43527418796563E-08                254015.5          101320.8984375        288.120513916016       0.100286602973938    -0.00579864348567275                       0 
                     -1       0.992242242242242        1.22505402565002        41.8055610656738   -1.43929109577274E-08                254015.5          101320.8984375        288.120513916016       0.100286602973938    -0.00579864352249685                       0 
                     -1        0.98973973973974        1.22505402565002        41.8055610656738   -1.44330800357984E-08                254015.5          101320.8984375        288.120513916016       0.100286602973938    -0.00579864355932096                       0 
                     -1       0.987237237237237        1.22505402565002        41.8055610656738   -1.44732491138695E-08                254015.5          101320.8984375        288.120513916016       0.100286602973938    -0.00579864359614506                       0 
                     -1       0.984734734734735        1.22505402565002        41.8055610656738   -1.45134181919405E-08                254015.5          101320.8984375        288.120513916016       0.100286602973938    -0.00579864363296917                       0 
                     -1       0.982232232232232        1.22505402565002        41.8055610656738   -1.45535872700116E-08                254015.5          101320.8984375        288.120513916016       0.100286602973938    -0.00579864366979327                       0 
                     -1        0.97972972972973        1.22505402565002        41.8055610656738   -1.45937563360876E-08                254015.5          101320.8984375        288.120513916016       0.100286602973938    -0.00579864370661792                       0 
                     -1       0.977227227227227        1.22505402565002        41.8055610656738   -1.46339254141586E-08                254015.5          101320.8984375        288.120513916016       0.100286602973938    -0.00579864374344202                       0 
                     -1       0.974724724724725        1.22505402565002        41.8055610656738   -1.46740944922297E-08                254015.5          101320.8984375        288.120513916016       0.100286602973938    -0.00579864378026612                       0 
                     -1       0.972222222222222        1.22505402565002        41.8055610656738   -1.47142635703007E-08                254015.5          101320.8984375        288.120513916016       0.100286602973938    -0.00579864381709023                       0 