VARIABLES = "x"
 "y"
 "Density"
 "Momentum_x"
 "Momentum_y"
 "Energy"
 "Pressure"
 "Temperature"
 "Mach"
 "C<sub>p</sub>"
 "Roe_Dissipation"
ZONE
DT=(DOUBLE,DOUBLE,DOUBLE,DOUBLE,DOUBLE,DOUBLE,DOUBLE,DOUBLE,DOUBLE,DOUBLE,DOUBLE)
                     -2                    -0.6        1.22505402565002        41.8055610656738    5.10802331500595E-14                254015.5          101320.8984375        288.120513916016       0.100286602973938    -0.00579862901940942                       0 
      -1.99749874937469                    -0.6        1.22505402565002        41.8055610656738    2.07029486472794E-11                254015.5          101320.8984375        288.120513916016       0.100286602973938    -0.00579862906483411                       0 
      -1.99499749874937                    -0.6        1.22505402565002        41.8055610656738    4.13548170614106E-11                254015.5          101320.8984375        288.120513916016       0.100286602973938     -0.0057986291102588                       0 
      -1.99249624812406                    -0.6        1.22505402565002        41.8055610656738      6.200668547554E-11                254015.5          101320.8984375        288.120513916016       0.100286602973938    -0.00579862915568349                       0 
      -1.98999499749875                    -0.6        1.22505402565002        41.8055610656738    8.26585538896694E-11                254015.5          101320.8984375        288.120513916016       0.100286602973938    -0.00579862920110818                       0 
      -1.98749374687344                    -0.6        1.22505402565002        41.8055610656738    1.03310422303799E-10                254015.5          101320.8984375        288.120513916016       0.100286602973938    -0.00579862924653287                       0 
      -1.98499249624812                    -0.6        1.22505402565002        41.8055610656738     1.2396229071793E-10                254015.5          101320.8984375        288.120513916016       0.100286602973938    -0.00579862929195756                       0 
      -1.98249124562281                    -0.6        1.22505402565002        41.8055610656738    1.44614159132059E-10                254015.5          101320.8984375        288.120513916016       0.100286602973938    -0.00579862933738225                       0 
       -1.9799899949975                    -0.6        1.22505402565002        41.8055610656738    1.65266027546189E-10                254015.5          101320.8984375        288.120513916016       0.100286602973938    -0.00579862938280694                       0 
      -1.97748874437219                    -0.6        1.22505402565002        41.8055610656738     1.8591789596032E-10                254015.5          101320.8984375        288.120513916016       0.100286602973938    -0.00579862942823163                       0 
      -1.97498749374687                    -0.6        1.22505402565002        41.8055610656738    2.06511059263082E-10                254015.5          101320.8984375        288.120513916016       0.100286602973938    -0.00579862947365632                       0 
      -1.97248624312156                    -0.6        1.22505402565002        41.8055610656738    2.27059722095533E-10                254015.5          101320.8984375        288.120513916016       0.100286602973938    -0.00579862951908101                       0 
      -1.96998499249625                    -0.6        1.22505402565002        41.8055610656738    2.47704223685562E-10                254015.5          101320.8984375        288.120513916016       0.100286602973938    -0.00579862956450571                       0 
      -1.96748374187094                    -0.6        1.22505402565002        41.8055610656738    2.68356092099692E-10                254015.5          101320.8984375        288.120513916016       0.100286602973938     -0.0057986296099304                       0 
      -1.96498249124562                    -0.6        1.22505402565002        41.8055610656738    2.89007960513821E-10                254015.5          101320.8984375        288.120513916016       0.100286602973938    -0.00579862965535509                       0 
      -1.96248124062031                    -0.6        1.22505402565002        41.8055610656738     3.0965982892795E-10                254015.5          101320.8984375        288.120513916016       0.100286602973938    -0.00579862970077978                       0 
        -1.959979989995                    -0.6        1.22505402565002        41.8055610656738    3.30311697342081E-10                254015.5          101320.8984375        288.120513916016       0.100286602973938    -0.00579862974620447                       0 
      -1.95747873936968                    -0.6        1.22505402565002        41.8055610656738    3.50963565756211E-10                254015.5          101320.8984375        288.120513916016       0.100286602973938    -0.00579862979162916                       0 
      -1.95497748874437                    -0.6        1.22505402565002        41.8055610656738     3.7161543417034E-10                254015.5          101320.8984375        288.120513916016       0.100286602973938    -0.00579862983705385                       0 
      -1.95247623811906                    -0.6        1.22505402565002        41.8055610656738    3.92267302584471E-10                254015.5          101320.8984375        288.120513916016       0.100286602973938    -0.00579862988247854                       0 
      -1.94997498749375                    -0.6        1.22505402565002        41.8055610656738    4.12919170998601E-10                254015.5          101320.8984375        288.120513916016       0.100286602973938    -0.00579862992790323                       0 
      -1.94747373686843                    -0.6        1.22505402565002        41.8055610656738    4.33758391255817E-10                254015.5          101320.8984375        288.120513916016       0.100286602973938    -0.00579862997332797                       0 
      -1.94497248624312                    -0.6        1.22505402565002        41.8055610656738    4.54786893893145E-10                254015.5          101320.8984375        288.120513916016       0.100286602973938    -0.00579863001875277                       0 
      -1.94247123561781                    -0.6        1.22505402565002        41.8055610656738    4.75815396530472E-10                254015.5          101320.8984375        288.120513916016       0.100286602973938    -0.00579863006417757                       0 
       -1.9399699849925                    -0.6        1.22505402565002        41.8055610656738    4.96843899167799E-10                254015.5          101320.8984375        288.120513916016       0.100286602973938    -0.00579863010960236                       0 
      -1.93746873436718                    -0.6        1.22505402565002        41.8055610656738    5.17872401805126E-10                254015.5          101320.8984375        288.120513916016       0.100286602973938    -0.00579863015502716                       0 
      -1.93496748374187                    -0.6        1.22505402565002        41.8055610656738    5.38900904442455E-10                254015.5          101320.8984375        288.120513916016       0.100286602973938    -0.00579863020045195                       0 
      -1.93246623311656                    -0.6        1.22505402565002        41.8055610656738    5.59929407079782E-10                254015.5          101320.8984375        288.120513916016       0.100286602973938    -0.00579863024587675                       0 
      -1.92996498249125                    -0.6        1.22505402565002        41.8055610656738    5.80957909717109E-10                254015.5          101320.8984375        288.120513916016       0.100286602973938    -0.00579863029130155                       0 
      -1.92746373186593                    -0.6        1.22505402565002        41.8055610656738    6.01986412354438E-10                254015.5          101320.8984375        288.120513916016       0.100286602973938    -0.00579863033672634                       0 
      -1.92496248124062                    -0.6        1.22505402565002        41.8055610656738    6.23008224793338E-10                254015.5          101320.8984375        288.120513916016       0.100286602973938    -0.00579863038215114                       0 
      -1.92246123061531                    -0.6        1.22505402565002        41.8055610656738    6.43935783309844E-10                254015.5          101320.8984375        288.120513916016       0.100286602973938    -0.00579863042757593                       0 
      -1.91995997998999                    -0.6        1.22505402565002        41.8055610656738    6.64906352376159E-10                254015.5          101320.8984375        288.120513916016       0.100286602973938    -0.00579863047300073                       0 
      -1.91745872936468                    -0.6        1.22505402565002        41.8055610656738    6.85934855013486E-10                254015.5          101320.8984375        288.120513916016       0.100286602973938    -0.00579863051842553                       0 
      -1.91495747873937                    -0.6        1.22505402565002        41.8055610656738    7.06963357650813E-10                254015.5          101320.8984375        288.120513916016       0.100286602973938    -0.00579863056385032                       0 
      -1.91245622811406                    -0.6        1.22505402565002        41.8055610656738     7.2799186028814E-10                254015.5          101320.8984375        288.120513916016       0.100286602973938    -0.00579863060927512                       0 
      -1.90995497748874                    -0.6        1.22505402565002        41.8055610656738    7.49020362925469E-10                254015.5          101320.8984375        288.120513916016       0.100286602973938    -0.00579863065469991                       0 
      -1.90745372686343                    -0.6        1.22505402565002        41.8055610656738    7.70048865562796E-10                254015.5          101320.8984375        288.120513916016       0.100286602973938    -0.00579863070012471                       0 
      -1.90495247623812                    -0.6        1.22505402565002        41.8055610656738    7.91077368200122E-10                254015.5          101320.8984375        288.120513916016       0.100286602973938    -0.00579863074554951                       0 
      -1.90245122561281                    -0.6        1.22505402565002        41.8055610656738    8.12105870837451E-10                254015.5          101320.8984375        288.120513916016       0.100286602973938     -0.0057986307909743                       0 
      -1.89994997498749                    -0.6        1.22505402565002        41.8055610656738    8.33134373474778E-10                254015.5          101320.8984375        288.120513916016       0.100286602973938     -0.0057986308363991                       0 
      -1.89744872436218                    -0.6        1.22505402565002        41.8055610656738    8.54162876112105E-10                254015.5          101320.8984375        288.120513916016       0.100286602973938     -0.0057986308818239                       0 
      -1.89494747373687                    -0.6        1.22505402565002        41.8055610656738    8.75561437754131E-10                254015.5          101320.8984375        288.120513916016       0.100286602973938    -0.00579863088205457                       0 
      -1.89244622311156                    -0.6        1.22505402565002        41.8055610656738    8.96961888184675E-10                254015.5          101320.8984375        288.120513916016       0.100286602973938    -0.00579863088205457                       0 
      -1.88994497248624                    -0.6        1.22505402565002        41.8055610656738    9.18362338615219E-10                254015.5          101320.8984375        288.120513916016       0.100286602973938    -0.00579863088205457                       0 
      -1.88744372186093                    -0.6        1.22505402565002        41.8055610656738    9.39762789045762E-10                254015.5          101320.8984375        288.120513916016       0.100286602973938    -0.00579863088205457                       0 
      -1.88494247123562                    -0.6        1.22505402565002        41.8055610656738    9.61163239476308E-10                254015.5          101320.8984375        288.120513916016       0.100286602973938    -0.00579863088205457                       0 
      -1.88244122061031                    -0.6        1.22505402565002        41.8055610656738    9.82563689906851E-10                254015.5          101320.8984375        288.120513916016       0.100286602973938    -0.00579863088205457                       0 
      -1.87993996998499                    -0.6        1.22505402565002        41.8055610656738    1.00396414033739E-09                254015.5          101320.8984375        288.120513916016       0.100286602973938    -0.00579863088205457                       0 
      -1.87743871935968                    -0.6        1.22505402565002        41.8055610656738    1.02536459076794E-09                254015.5          101320.8984375        288.120513916016       0.100286602973938    -0.00579863088205457                       0 
      -1.87493746873437                    -0.6        1.22505402565002        41.8055610656738    1.04676504119848E-09                254015.5          101320.8984375        288.120513916016       0.100286602973938    -0.00579863088205457                       0 
      -1.87243621810905                    -0.6        1.22505402565002        41.8055610656738    1.06811139979492E-09                254015.5          101320.8984375        288.120513916016       0.100286602973938    -0.00579863088205457                       0 
      -1.86993496748374                    -0.6        1.22505402565002        41.8055610656738    1.08941589833399E-09                254015.5          101320.8984375        288.120513916016       0.100286602973938    -0.00579863088205457                       0 
      -1.86743371685843                    -0.6        1.22505402565002        41.8055610656738    1.11080901245611E-09                254015.5          101320.8984375        288.120513916016       0.100286602973938    -0.00579863088205457                       0 
      -1.86493246623312                    -0.6        1.22505402565002        41.8055610656738    1.13220946288665E-09                254015.5          101320.8984375        288.120513916016       0.100286602973938    -0.00579863088205457                       0 
       -1.8624312156078                    -0.6        1.22505402565002        41.8055610656738    1.15360991331719E-09                254015.5          101320.8984375        288.120513916016       0.100286602973938    -0.00579863088205457                       0 
      -1.85992996498249                    -0.6        1.22505402565002        41.8055610656738    1.17501036374774E-09                254015.5          101320.8984375        288.120513916016       0.100286602973938    -0.00579863088205457                       0 
      -1.85742871435718                    -0.6        1.22505402565002        41.8055610656738    1.19641081417828E-09                254015.5          101320.8984375        288.120513916016       0.100286602973938    -0.00579863088205457                       0 
      -1.85492746373187                    -0.6        1.22505402565002        41.8055610656738    1.21781126460883E-09                254015.5          101320.8984375        288.120513916016       0.100286602973938    -0.00579863088205457                       0 
      -1.85242621310655                    -0.6        1.22505402565002        41.8055610656738    1.23921171503937E-09                254015.5          101320.8984375        288.120513916016       0.100286602973938    -0.00579863088205457                       0 
      -1.84992496248124                    -0.6        1.22505402565002        41.8055610656738    1.26061216546992E-09                254015.5          101320.8984375        288.120513916016       0.100286602973938    -0.00579863088205457                       0 
      -1.84742371185593                    -0.6        1.22505402565002        41.8055610656738    1.28201261590046E-09                254015.5          101320.8984375        288.120513916016       0.100286602973938    -0.00579863088205457                       0 
      -1.84492246123062                    -0.6        1.22505402565002        41.8055610656738    1.30377674202541E-09                254015.5          101320.8984375        288.120513916016       0.100286602973938    -0.00579863090441988                       0 
       -1.8424212106053                    -0.6        1.22505402565002        41.8055610656738    1.32591583170267E-09                254015.5          101320.8984375        288.120513916016       0.100286602973938    -0.00579863094984467                       0 
      -1.83991995997999                    -0.6        1.22505402565002        41.8055610656738    1.34805492137993E-09                254015.5          101320.8984375        288.120513916016       0.100286602973938    -0.00579863099526947                       0 
      -1.83741870935468                    -0.6        1.22505402565002        41.8055610656738    1.37019401105718E-09                254015.5          101320.8984375        288.120513916016       0.100286602973938    -0.00579863104069426                       0 
      -1.83491745872936                    -0.6        1.22505402565002        41.8055610656738    1.39233310073444E-09                254015.5          101320.8984375        288.120513916016       0.100286602973938    -0.00579863108611906                       0 
      -1.83241620810405                    -0.6        1.22505402565002        41.8055610656738     1.4144721904117E-09                254015.5          101320.8984375        288.120513916016       0.100286602973938    -0.00579863113154386                       0 
      -1.82991495747874                    -0.6        1.22505402565002        41.8055610656738    1.43661128008896E-09                254015.5          101320.8984375        288.120513916016       0.100286602973938    -0.00579863117696865                       0 
      -1.82741370685343                    -0.6        1.22505402565002        41.8055610656738    1.45875036976621E-09                254015.5          101320.8984375        288.120513916016       0.100286602973938    -0.00579863122239345                       0 
      -1.82491245622811                    -0.6        1.22505402565002        41.8055610656738    1.48088945944347E-09                254015.5          101320.8984375        288.120513916016       0.100286602973938    -0.00579863126781825                       0 
       -1.8224112056028                    -0.6        1.22505402565002        41.8055610656738    1.50302324785026E-09                254015.5          101320.8984375        288.120513916016       0.100286602973938    -0.00579863131324304                       0 
      -1.81990995497749                    -0.6        1.22505402565002        41.8055610656738    1.52507571284985E-09                254015.5          101320.8984375        288.120513916016       0.100286602973938    -0.00579863135866784                       0 
      -1.81740870435218                    -0.6        1.22505402565002        41.8055610656738    1.54716464724247E-09                254015.5          101320.8984375        288.120513916016       0.100286602973938    -0.00579863140409263                       0 
      -1.81490745372686                    -0.6        1.22505402565002        41.8055610656738    1.56930373691973E-09                254015.5          101320.8984375        288.120513916016       0.100286602973938    -0.00579863144951743                       0 
      -1.81240620310155                    -0.6        1.22505402565002        41.8055610656738    1.59144282659699E-09                254015.5          101320.8984375        288.120513916016       0.100286602973938    -0.00579863149494223                       0 
      -1.80990495247624                    -0.6        1.22505402565002        41.8055610656738    1.61358191627424E-09                254015.5          101320.8984375        288.120513916016       0.100286602973938    -0.00579863154036702                       0 
      -1.80740370185093                    -0.6        1.22505402565002        41.8055610656738     1.6357210059515E-09                254015.5          101320.8984375        288.120513916016       0.100286602973938    -0.00579863158579182                       0 
      -1.80490245122561                    -0.6        1.22505402565002        41.8055610656738    1.65786009562876E-09                254015.5          101320.8984375        288.120513916016       0.100286602973938    -0.00579863163121661                       0 
       -1.8024012006003                    -0.6        1.22505402565002        41.8055610656738    1.67999918530602E-09                254015.5          101320.8984375        288.120513916016       0.100286602973938    -0.00579863167664141                       0 
      -1.79989994997499                    -0.6        1.22505402565002        41.8055610656738    1.70213827498327E-09                254015.5          101320.8984375        288.120513916016       0.100286602973938    -0.00579863172206621                       0 
      -1.79739869934967                    -0.6        1.22505402565002        41.8055610656738    1.72427736466053E-09                254015.5          101320.8984375        288.120513916016       0.100286602973938      -0.005798631767491                       0 
      -1.79489744872436                    -0.6        1.22505402565002        41.8055610656738    1.74641645433779E-09                254015.5          101320.8984375        288.120513916016       0.100286602973938     -0.0057986318129158                       0 
      -1.79239619809905                    -0.6        1.22505402565002        41.8055610656738     1.7695766386499E-09                254015.5          101320.8984375        288.120513916016       0.100286602973938    -0.00579863188082217                       0 
      -1.78989494747374                    -0.6        1.22505402565002        41.8055610656738    1.79274729981069E-09                254015.5          101320.8984375        288.120513916016       0.100286602973938     -0.0057986319489592                       0 
      -1.78739369684842                    -0.6        1.22505402565002        41.8055610656738    1.81591796097149E-09                254015.5          101320.8984375        288.120513916016       0.100286602973938    -0.00579863201709624                       0 
      -1.78489244622311                    -0.6        1.22505402565002        41.8055610656738    1.83908862213229E-09                254015.5          101320.8984375        288.120513916016       0.100286602973938    -0.00579863208523327                       0 
       -1.7823911955978                    -0.6        1.22505402565002        41.8055610656738    1.86225928329309E-09                254015.5          101320.8984375        288.120513916016       0.100286602973938    -0.00579863215337031                       0 
      -1.77988994497249                    -0.6        1.22505402565002        41.8055610656738    1.88542994445389E-09                254015.5          101320.8984375        288.120513916016       0.100286602973938    -0.00579863222150734                       0 
      -1.77738869434717                    -0.6        1.22505402565002        41.8055610656738    1.90860060561469E-09                254015.5          101320.8984375        288.120513916016       0.100286602973938    -0.00579863228964438                       0 
      -1.77488744372186                    -0.6        1.22505402565002        41.8055610656738    1.93177126677549E-09                254015.5          101320.8984375        288.120513916016       0.100286602973938    -0.00579863235778142                       0 
      -1.77238619309655                    -0.6        1.22505402565002        41.8055610656738    1.95494192793629E-09                254015.5          101320.8984375        288.120513916016       0.100286602973938    -0.00579863242591845                       0 
      -1.76988494247124                    -0.6        1.22505402565002        41.8055610656738      1.978065667127E-09                254015.5          101320.8984375        288.120513916016       0.100286602973938    -0.00579863249405549                       0 
      -1.76738369184592                    -0.6        1.22505402565002        41.8055610656738    2.00115233823093E-09                254015.5          101320.8984375        288.120513916016       0.100286602973938    -0.00579863256219252                       0 
      -1.76488244122061                    -0.6        1.22505402565002        41.8055610656738    2.02431615115358E-09                254015.5          101320.8984375        288.120513916016       0.100286602973938    -0.00579863263032956                       0 
       -1.7623811905953                    -0.6        1.22505402565002        41.8055610656738    2.04748681231438E-09                254015.5          101320.8984375        288.120513916016       0.100286602973938     -0.0057986326984666                       0 
      -1.75987993996998                    -0.6        1.22505402565002        41.8055610656738    2.07065747347518E-09                254015.5          101320.8984375        288.120513916016       0.100286602973938    -0.00579863276660363                       0 
      -1.75737868934467                    -0.6        1.22505402565002        41.8055610656738    2.09382813463598E-09                254015.5          101320.8984375        288.120513916016       0.100286602973938    -0.00579863283474067                       0 
      -1.75487743871936                    -0.6        1.22505402565002        41.8055610656738    2.11699879579677E-09                254015.5          101320.8984375        288.120513916016       0.100286602973938     -0.0057986329028777                       0 
      -1.75237618809405                    -0.6        1.22505402565002        41.8055610656738    2.14016945695757E-09                254015.5          101320.8984375        288.120513916016       0.100286602973938    -0.00579863297101474                       0 
      -1.74987493746873                    -0.6        1.22505402565002        41.8055610656738    2.16334011811837E-09                254015.5          101320.8984375        288.120513916016       0.100286602973938    -0.00579863303915177                       0 
      -1.74737368684342                    -0.6        1.22505402565002        41.8055610656738    2.18651077927917E-09                254015.5          101320.8984375        288.120513916016       0.100286602973938    -0.00579863310728881                       0 
      -1.74487243621811                    -0.6        1.22505402565002        41.8055610656738    2.20968144043997E-09                254015.5          101320.8984375        288.120513916016       0.100286602973938    -0.00579863317542584                       0 
       -1.7423711855928                    -0.6        1.22505402565002        41.8055610656738    2.23353538877139E-09                254015.5          101320.8984375        288.120513916016       0.100286602973938    -0.00579863323249559                       0 
      -1.73986993496748                    -0.6        1.22505402565002        41.8055610656738    2.25810829481095E-09                254015.5          101320.8984375        288.120513916016       0.100286602973938    -0.00579863327792028                       0 
      -1.73736868434217                    -0.6        1.22505402565002        41.8055610656738    2.28268120085051E-09                254015.5          101320.8984375        288.120513916016       0.100286602973938    -0.00579863332334497                       0 
      -1.73486743371686                    -0.6        1.22505402565002        41.8055610656738    2.30725410689007E-09                254015.5          101320.8984375        288.120513916016       0.100286602973938    -0.00579863336876966                       0 
      -1.73236618309155                    -0.6        1.22505402565002        41.8055610656738    2.33182701292964E-09                254015.5          101320.8984375        288.120513916016       0.100286602973938    -0.00579863341419435                       0 
      -1.72986493246623                    -0.6        1.22505402565002        41.8055610656738     2.3563999189692E-09                254015.5          101320.8984375        288.120513916016       0.100286602973938    -0.00579863345961904                       0 
      -1.72736368184092                    -0.6        1.22505402565002        41.8055610656738    2.38097282500876E-09                254015.5          101320.8984375        288.120513916016       0.100286602973938    -0.00579863350504373                       0 
      -1.72486243121561                    -0.6        1.22505402565002        41.8055610656738    2.40554573104832E-09                254015.5          101320.8984375        288.120513916016       0.100286602973938    -0.00579863355046842                       0 
       -1.7223611805903                    -0.6        1.22505402565002        41.8055610656738    2.43011863708788E-09                254015.5          101320.8984375        288.120513916016       0.100286602973938    -0.00579863359589311                       0 