TITLE = "Visualization of the volumetric solution"
VARIABLES = "x","y","Density","Momentum_x","Momentum_y","Energy","Pressure","Temperature","Mach","C<sub>p</sub>","Roe_Dissipation"
ZONE NODES= 3200, ELEMENTS= 3081, DATAPACKING=POINT, ZONETYPE=FEQUADRILATERAL
-2.000000e+00	1.250000e+00	1.224557e+00	4.344069e+01	1.118094e-07	2.539289e+05	1.012634e+05	2.880737e+02	1.042598e-01	-8.690121e-02	0.000000e+00	
-2.000000e+00	1.218354e+00	1.224557e+00	4.344076e+01	-3.801720e-05	2.539289e+05	1.012634e+05	2.880737e+02	1.042600e-01	-8.690695e-02	0.000000e+00	
-1.948718e+00	1.218354e+00	1.224557e+00	4.344077e+01	-4.182474e-05	2.539288e+05	1.012633e+05	2.880737e+02	1.042601e-01	-8.699043e-02	0.000000e+00	
-1.948718e+00	1.250000e+00	1.224557e+00	4.344065e+01	2.389578e-08	2.539288e+05	1.012633e+05	2.880737e+02	1.042598e-01	-8.698679e-02	0.000000e+00	
-2.000000e+00	1.186709e+00	1.224557e+00	4.344081e+01	-3.461641e-05	2.539289e+05	1.012634e+05	2.880737e+02	1.042601e-01	-8.690907e-02	0.000000e+00	
-1.948718e+00	1.186709e+00	1.224557e+00	4.344085e+01	-4.189832e-05	2.539288e+05	1.012633e+05	2.880737e+02	1.042603e-01	-8.698955e-02	0.000000e+00	
-2.000000e+00	1.155063e+00	1.224557e+00	4.344083e+01	-2.149133e-05	2.539289e+05	1.012634e+05	2.880737e+02	1.042602e-01	-8.691085e-02	0.000000e+00	
-1.948718e+00	1.155063e+00	1.224557e+00	4.344088e+01	-3.316212e-05	2.539288e+05	1.012633e+05	2.880737e+02	1.042603e-01	-8.699083e-02	0.000000e+00	
-2.000000e+00	1.123418e+00	1.224557e+00	4.344084e+01	-9.880320e-06	2.539289e+05	1.012634e+05	2.880737e+02	1.042602e-01	-8.691167e-02	0.000000e+00	
-1.948718e+00	1.123418e+00	1.224557e+00	4.344089e+01	-2.023571e-05	2.539288e+05	1.012633e+05	2.880737e+02	1.042603e-01	-8.699097e-02	0.000000e+00	
-2.000000e+00	1.091772e+00	1.224557e+00	4.344084e+01	-3.624291e-06	2.539289e+05	1.012634e+05	2.880737e+02	1.042602e-01	-8.691214e-02	0.000000e+00	
-1.948718e+00	1.091772e+00	1.224557e+00	4.344088e+01	-1.208179e-05	2.539288e+05	1.012633e+05	2.880737e+02	1.042603e-01	-8.699151e-02	0.000000e+00	
-2.000000e+00	1.060127e+00	1.224557e+00	4.344084e+01	-7.755047e-07	2.539289e+05	1.012634e+05	2.880737e+02	1.042602e-01	-8.691231e-02	0.000000e+00	
-1.948718e+00	1.060127e+00	1.224557e+00	4.344088e+01	-6.617910e-06	2.539288e+05	1.012633e+05	2.880737e+02	1.042603e-01	-8.699169e-02	0.000000e+00	
-2.000000e+00	1.028481e+00	1.224557e+00	4.344085e+01	2.291153e-07	2.539289e+05	1.012634e+05	2.880737e+02	1.042602e-01	-8.691239e-02	0.000000e+00	
-1.948718e+00	1.028481e+00	1.224557e+00	4.344088e+01	-3.631142e-06	2.539288e+05	1.012633e+05	2.880737e+02	1.042603e-01	-8.699194e-02	0.000000e+00	
-2.000000e+00	9.968354e-01	1.224557e+00	4.344085e+01	5.298222e-07	2.539289e+05	1.012634e+05	2.880737e+02	1.042602e-01	-8.691238e-02	0.000000e+00	
-1.948718e+00	9.968354e-01	1.224557e+00	4.344088e+01	-1.671285e-06	2.539288e+05	1.012633e+05	2.880737e+02	1.042603e-01	-8.699204e-02	0.000000e+00	
-2.000000e+00	9.651899e-01	1.224557e+00	4.344085e+01	4.939756e-07	2.539289e+05	1.012634e+05	2.880737e+02	1.042602e-01	-8.691236e-02	0.000000e+00	
-1.948718e+00	9.651899e-01	1.224557e+00	4.344088e+01	-5.885433e-07	2.539288e+05	1.012633e+05	2.880737e+02	1.042603e-01	-8.699215e-02	0.000000e+00	
-2.000000e+00	9.335443e-01	1.224557e+00	4.344085e+01	3.704778e-07	2.539289e+05	1.012634e+05	2.880737e+02	1.042602e-01	-8.691231e-02	0.000000e+00	
-1.948718e+00	9.335443e-01	1.224557e+00	4.344088e+01	8.195871e-08	2.539288e+05	1.012633e+05	2.880737e+02	1.042603e-01	-8.699220e-02	0.000000e+00	
-2.000000e+00	9.018987e-01	1.224557e+00	4.344085e+01	2.391259e-07	2.539289e+05	1.012634e+05	2.880737e+02	1.042602e-01	-8.691226e-02	0.000000e+00	
-1.948718e+00	9.018987e-01	1.224557e+00	4.344088e+01	4.351565e-07	2.539288e+05	1.012633e+05	2.880737e+02	1.042603e-01	-8.699224e-02	0.000000e+00	
-2.000000e+00	8.702532e-01	1.224557e+00	4.344085e+01	1.532974e-07	2.539289e+05	1.012634e+05	2.880737e+02	1.042602e-01	-8.691222e-02	0.000000e+00	
-1.948718e+00	8.702532e-01	1.224557e+00	4.344088e+01	6.647688e-07	2.539288e+05	1.012633e+05	2.880737e+02	1.042603e-01	-8.699225e-02	0.000000e+00	
-2.000000e+00	8.386076e-01	1.224557e+00	4.344084e+01	1.022309e-07	2.539289e+05	1.012634e+05	2.880737e+02	1.042602e-01	-8.691217e-02	0.000000e+00	
-1.948718e+00	8.386076e-01	1.224557e+00	4.344088e+01	7.981472e-07	2.539288e+05	1.012633e+05	2.880737e+02	1.042603e-01	-8.699226e-02	0.000000e+00	
-2.000000e+00	8.069620e-01	1.224557e+00	4.344084e+01	7.538751e-08	2.539289e+05	1.012634e+05	2.880737e+02	1.042602e-01	-8.691212e-02	0.000000e+00	
-1.948718e+00	8.069620e-01	1.224557e+00	4.344088e+01	8.839554e-07	2.539288e+05	1.012633e+05	2.880737e+02	1.042603e-01	-8.699225e-02	0.000000e+00	
-2.000000e+00	7.753165e-01	1.224557e+00	4.344084e+01	5.676879e-08	2.539289e+05	1.012634e+05	2.880737e+02	1.042602e-01	-8.691208e-02	0.000000e+00	
-1.948718e+00	7.753165e-01	1.224557e+00	4.344088e+01	9.186747e-07	2.539288e+05	1.012633e+05	2.880737e+02	1.042603e-01	-8.699224e-02	0.000000e+00	
-2.000000e+00	7.436709e-01	1.224557e+00	4.344084e+01	4.296063e-08	2.539289e+05	1.012634e+05	2.880737e+02	1.042602e-01	-8.691204e-02	0.000000e+00	
-1.948718e+00	7.436709e-01	1.224557e+00	4.344088e+01	9.204162e-07	2.539288e+05	1.012633e+05	2.880737e+02	1.042603e-01	-8.699222e-02	0.000000e+00	
-2.000000e+00	7.120253e-01	1.224557e+00	4.344084e+01	3.184017e-08	2.539289e+05	1.012634e+05	2.880737e+02	1.042602e-01	-8.691201e-02	0.000000e+00	
-1.948718e+00	7.120253e-01	1.224557e+00	4.344088e+01	8.940191e-07	2.539288e+05	1.012633e+05	2.880737e+02	1.042603e-01	-8.699220e-02	0.000000e+00	
-2.000000e+00	6.803797e-01	1.224557e+00	4.344084e+01	2.448827e-08	2.539289e+05	1.012634e+05	2.880737e+02	1.042602e-01	-8.691198e-02	0.000000e+00	
-1.948718e+00	6.803797e-01	1.224557e+00	4.344088e+01	8.524560e-07	2.539288e+05	1.012633e+05	2.880737e+02	1.042603e-01	-8.699218e-02	0.000000e+00	
-2.000000e+00	6.487342e-01	1.224557e+00	4.344084e+01	2.027783e-08	2.539289e+05	1.012634e+05	2.880737e+02	1.042602e-01	-8.691195e-02	0.000000e+00	
-1.948718e+00	6.487342e-01	1.224557e+00	4.344088e+01	8.008052e-07	2.539288e+05	1.012633e+05	2.880737e+02	1.042603e-01	-8.699216e-02	0.000000e+00	
-2.000000e+00	6.170886e-01	1.224557e+00	4.344084e+01	1.884204e-08	2.539289e+05	1.012634e+05	2.880737e+02	1.042602e-01	-8.691192e-02	0.000000e+00	
-1.948718e+00	6.170886e-01	1.224557e+00	4.344087e+01	7.452016e-07	2.539288e+05	1.012633e+05	2.880737e+02	1.042603e-01	-8.699214e-02	0.000000e+00	
-2.000000e+00	5.854430e-01	1.224557e+00	4.344084e+01	1.914358e-08	2.539289e+05	1.012634e+05	2.880737e+02	1.042602e-01	-8.691189e-02	0.000000e+00	
-1.948718e+00	5.854430e-01	1.224557e+00	4.344087e+01	6.877172e-07	2.539288e+05	1.012633e+05	2.880737e+02	1.042603e-01	-8.699212e-02	0.000000e+00	
-2.000000e+00	5.537975e-01	1.224557e+00	4.344084e+01	2.059328e-08	2.539289e+05	1.012634e+05	2.880737e+02	1.042602e-01	-8.691187e-02	0.000000e+00	
-1.948718e+00	5.537975e-01	1.224557e+00	4.344087e+01	6.306866e-07	2.539288e+05	1.012633e+05	2.880737e+02	1.042603e-01	-8.699211e-02	0.000000e+00	
-2.000000e+00	5.221519e-01	1.224557e+00	4.344084e+01	2.260946e-08	2.539289e+05	1.012634e+05	2.880737e+02	1.042602e-01	-8.691185e-02	0.000000e+00	
-1.948718e+00	5.221519e-01	1.224557e+00	4.344087e+01	5.748707e-07	2.539288e+05	1.012633e+05	2.880737e+02	1.042603e-01	-8.699209e-02	0.000000e+00	
-2.000000e+00	4.905063e-01	1.224557e+00	4.344084e+01	2.492350e-08	2.539289e+05	1.012634e+05	2.880737e+02	1.042602e-01	-8.691184e-02	0.000000e+00	
-1.948718e+00	4.905063e-01	1.224557e+00	4.344087e+01	5.211826e-07	2.539288e+05	1.012633e+05	2.880737e+02	1.042603e-01	-8.699207e-02	0.000000e+00	
-2.000000e+00	4.588608e-01	1.224557e+00	4.344084e+01	2.730908e-08	2.539289e+05	1.012634e+05	2.880737e+02	1.042602e-01	-8.691182e-02	0.000000e+00	
-1.948718e+00	4.588608e-01	1.224557e+00	4.344087e+01	4.698880e-07	2.539288e+05	1.012633e+05	2.880737e+02	1.042603e-01	-8.699206e-02	0.000000e+00	
-2.000000e+00	4.272152e-01	1.224557e+00	4.344084e+01	2.967115e-08	2.539289e+05	1.012634e+05	2.880737e+02	1.042602e-01	-8.691181e-02	0.000000e+00	
-1.948718e+00	4.272152e-01	1.224557e+00	4.344087e+01	4.212842e-07	2.539288e+05	1.012633e+05	2.880737e+02	1.042603e-01	-8.699204e-02	0.000000e+00	
-2.000000e+00	3.955696e-01	1.224557e+00	4.344084e+01	3.192919e-08	2.539289e+05	1.012634e+05	2.880737e+02	1.042602e-01	-8.691179e-02	0.000000e+00	
-1.948718e+00	3.955696e-01	1.224557e+00	4.344087e+01	3.753742e-07	2.539288e+05	1.012633e+05	2.880737e+02	1.042603e-01	-8.699203e-02	0.000000e+00	
-2.000000e+00	3.639241e-01	1.224557e+00	4.344084e+01	3.405423e-08	2.539289e+05	1.012634e+05	2.880737e+02	1.042602e-01	-8.691178e-02	0.000000e+00	
-1.948718e+00	3.639241e-01	1.224557e+00	4.344087e+01	3.321522e-07	2.539288e+05	1.012633e+05	2.880737e+02	1.042603e-01	-8.699202e-02	0.000000e+00	
-2.000000e+00	3.322785e-01	1.224557e+00	4.344084e+01	3.602167e-08	2.539289e+05	1.012634e+05	2.880737e+02	1.042602e-01	-8.691177e-02	0.000000e+00	
-1.948718e+00	3.322785e-01	1.224557e+00	4.344087e+01	2.914771e-07	2.539288e+05	1.012633e+05	2.880737e+02	1.042603e-01	-8.699201e-02	0.000000e+00	
-2.000000e+00	3.006329e-01	1.224557e+00	4.344084e+01	3.782883e-08	2.539289e+05	1.012634e+05	2.880737e+02	1.042602e-01	-8.691176e-02	0.000000e+00	
-1.948718e+00	3.006329e-01	1.224557e+00	4.344087e+01	2.531978e-07	2.539288e+05	1.012633e+05	2.880737e+02	1.042603e-01	-8.699200e-02	0.000000e+00	
-2.000000e+00	2.689873e-01	1.224557e+00	4.344084e+01	3.947576e-08	2.539289e+05	1.012634e+05	2.880737e+02	1.042602e-01	-8.691176e-02	0.000000e+00	
-1.948718e+00	2.689873e-01	1.224557e+00	4.344087e+01	2.171050e-07	2.539288e+05	1.012633e+05	2.880737e+02	1.042603e-01	-8.699199e-02	0.000000e+00	
-2.000000e+00	2.373418e-01	1.224557e+00	4.344084e+01	4.097236e-08	2.539289e+05	1.012634e+05	2.880737e+02	1.042602e-01	-8.691175e-02	0.000000e+00	
-1.948718e+00	2.373418e-01	1.224557e+00	4.344087e+01	1.829868e-07	2.539288e+05	1.012633e+05	2.880737e+02	1.042603e-01	-8.699198e-02	0.000000e+00	
-2.000000e+00	2.056962e-01	1.224557e+00	4.344084e+01	4.233054e-08	2.539289e+05	1.012634e+05	2.880737e+02	1.042602e-01	-8.691174e-02	0.000000e+00	
-1.948718e+00	2.056962e-01	1.224557e+00	4.344087e+01	1.506103e-07	2.539288e+05	1.012633e+05	2.880737e+02	1.042603e-01	-8.699198e-02	0.000000e+00	
-2.000000e+00	1.740506e-01	1.224557e+00	4.344084e+01	4.356703e-08	2.539289e+05	1.012634e+05	2.880737e+02	1.042602e-01	-8.691174e-02	0.000000e+00	
-1.948718e+00	1.740506e-01	1.224557e+00	4.344087e+01	1.197461e-07	2.539288e+05	1.012633e+05	2.880737e+02	1.042603e-01	-8.699197e-02	0.000000e+00	
-2.000000e+00	1.424051e-01	1.224557e+00	4.344084e+01	4.469928e-08	2.539289e+05	1.012634e+05	2.880737e+02	1.042602e-01	-8.691174e-02	0.000000e+00	
-1.948718e+00	1.424051e-01	1.224557e+00	4.344087e+01	9.015932e-08	2.539288e+05	1.012633e+05	2.880737e+02	1.042603e-01	-8.699197e-02	0.000000e+00	
-2.000000e+00	1.107595e-01	1.224557e+00	4.344084e+01	4.574613e-08	2.539289e+05	1.012634e+05	2.880737e+02	1.042602e-01	-8.691173e-02	0.000000e+00	
-1.948718e+00	1.107595e-01	1.224557e+00	4.344087e+01	6.161954e-08	2.539288e+05	1.012633e+05	2.880737e+02	1.042603e-01	-8.699197e-02	0.000000e+00	
-2.000000e+00	7.911392e-02	1.224557e+00	4.344084e+01	4.672659e-08	2.539289e+05	1.012634e+05	2.880737e+02	1.042602e-01	-8.691173e-02	0.000000e+00	
-1.948718e+00	7.911392e-02	1.224557e+00	4.344087e+01	3.389653e-08	2.539288e+05	1.012633e+05	2.880737e+02	1.042603e-01	-8.699196e-02	0.000000e+00	
-2.000000e+00	4.746835e-02	1.224557e+00	4.344084e+01	4.766013e-08	2.539289e+05	1.012634e+05	2.880737e+02	1.042602e-01	-8.691173e-02	0.000000e+00	
-1.948718e+00	4.746835e-02	1.224557e+00	4.344087e+01	6.763630e-09	2.539288e+05	1.012633e+05	2.880737e+02	1.042603e-01	-8.699196e-02	0.000000e+00	
-2.000000e+00	1.582278e-02	1.224557e+00	4.344084e+01	4.856621e-08	2.539289e+05	1.012634e+05	2.880737e+02	1.042602e-01	-8.691173e-02	0.000000e+00	
-1.948718e+00	1.582278e-02	1.224557e+00	4.344087e+01	-2.000508e-08	2.539288e+05	1.012633e+05	2.880737e+02	1.042603e-01	-8.699196e-02	0.000000e+00	
-2.000000e+00	-1.582278e-02	1.224557e+00	4.344084e+01	4.946441e-08	2.539289e+05	1.012634e+05	2.880737e+02	1.042602e-01	-8.691173e-02	0.000000e+00	
-1.948718e+00	-1.582278e-02	1.224557e+00	4.344087e+01	-4.663378e-08	2.539288e+05	1.012633e+05	2.880737e+02	1.042603e-01	-8.699196e-02	0.000000e+00	
-2.000000e+00	-4.746835e-02	1.224557e+00	4.344084e+01	5.037453e-08	2.539289e+05	1.012634e+05	2.880737e+02	1.042602e-01	-8.691173e-02	0.000000e+00	
-1.948718e+00	-4.746835e-02	1.224557e+00	4.344087e+01	-7.334721e-08	2.539288e+05	1.012633e+05	2.880737e+02	1.042603e-01	-8.699196e-02	0.000000e+00	
-2.000000e+00	-7.911392e-02	1.224557e+00	4.344084e+01	5.131594e-08	2.539289e+05	1.012634e+05	2.880737e+02	1.042602e-01	-8.691173e-02	0.000000e+00	
-1.948718e+00	-7.911392e-02	1.224557e+00	4.344087e+01	-1.003710e-07	2.539288e+05	1.012633e+05	2.880737e+02	1.042603e-01	-8.699197e-02	0.000000e+00	
-2.000000e+00	-1.107595e-01	1.224557e+00	4.344084e+01	5.230823e-08	2.539289e+05	1.012634e+05	2.880737e+02	1.042602e-01	-8.691174e-02	0.000000e+00	
-1.948718e+00	-1.107595e-01	1.224557e+00	4.344087e+01	-1.279335e-07	2.539288e+05	1.012633e+05	2.880737e+02	1.042603e-01	-8.699197e-02	0.000000e+00	
-2.000000e+00	-1.424051e-01	1.224557e+00	4.344084e+01	5.337193e-08	2.539289e+05	1.012634e+05	2.880737e+02	1.042602e-01	-8.691174e-02	0.000000e+00	
-1.948718e+00	-1.424051e-01	1.224557e+00	4.344087e+01	-1.562647e-07	2.539288e+05	1.012633e+05	2.880737e+02	1.042603e-01	-8.699197e-02	0.000000e+00	
-2.000000e+00	-1.740506e-01	1.224557e+00	4.344084e+01	5.452672e-08	2.539289e+05	1.012634e+05	2.880737e+02	1.042602e-01	-8.691175e-02	0.000000e+00	
-1.948718e+00	-1.740506e-01	1.224557e+00	4.344087e+01	-1.856002e-07	2.539288e+05	1.012633e+05	2.880737e+02	1.042603e-01	-8.699198e-02	0.000000e+00	
-2.000000e+00	-2.056962e-01	1.224557e+00	4.344084e+01	5.579273e-08	2.539289e+05	1.012634e+05	2.880737e+02	1.042602e-01	-8.691175e-02	0.000000e+00	
-1.948718e+00	-2.056962e-01	1.224557e+00	4.344087e+01	-2.161765e-07	2.539288e+05	1.012633e+05	2.880737e+02	1.042603e-01	-8.699199e-02	0.000000e+00	
-2.000000e+00	-2.373418e-01	1.224557e+00	4.344084e+01	5.718823e-08	2.539289e+05	1.012634e+05	2.880737e+02	1.042602e-01	-8.691176e-02	0.000000e+00	
-1.948718e+00	-2.373418e-01	1.224557e+00	4.344087e+01	-2.482371e-07	2.539288e+05	1.012633e+05	2.880737e+02	1.042603e-01	-8.699199e-02	0.000000e+00	
-2.000000e+00	-2.689873e-01	1.224557e+00	4.344084e+01	5.873112e-08	2.539289e+05	1.012634e+05	2.880737e+02	1.042602e-01	-8.691176e-02	0.000000e+00	
-1.948718e+00	-2.689873e-01	1.224557e+00	4.344087e+01	-2.820218e-07	2.539288e+05	1.012633e+05	2.880737e+02	1.042603e-01	-8.699200e-02	0.000000e+00	
-2.000000e+00	-3.006329e-01	1.224557e+00	4.344084e+01	6.043504e-08	2.539289e+05	1.012634e+05	2.880737e+02	1.042602e-01	-8.691177e-02	0.000000e+00	
-1.948718e+00	-3.006329e-01	1.224557e+00	4.344087e+01	-3.177763e-07	2.539288e+05	1.012633e+05	2.880737e+02	1.042603e-01	-8.699201e-02	0.000000e+00	
-2.000000e+00	-3.322785e-01	1.224557e+00	4.344084e+01	6.231219e-08	2.539289e+05	1.012634e+05	2.880737e+02	1.042602e-01	-8.691178e-02	0.000000e+00	
-1.948718e+00	-3.322785e-01	1.224557e+00	4.344087e+01	-3.557266e-07	2.539288e+05	1.012633e+05	2.880737e+02	1.042603e-01	-8.699202e-02	0.000000e+00	
-2.000000e+00	-3.639241e-01	1.224557e+00	4.344084e+01	6.436453e-08	2.539289e+05	1.012634e+05	2.880737e+02	1.042602e-01	-8.691179e-02	0.000000e+00	
-1.948718e+00	-3.639241e-01	1.224557e+00	4.344087e+01	-3.961014e-07	2.539288e+05	1.012633e+05	2.880737e+02	1.042603e-01	-8.699203e-02	0.000000e+00	
-2.000000e+00	-3.955696e-01	1.224557e+00	4.344084e+01	6.659159e-08	2.539289e+05	1.012634e+05	2.880737e+02	1.042602e-01	-8.691180e-02	0.000000e+00	
-1.948718e+00	-3.955696e-01	1.224557e+00	4.344087e+01	-4.390721e-07	2.539288e+05	1.012633e+05	2.880737e+02	1.042603e-01	-8.699204e-02	0.000000e+00	
-2.000000e+00	-4.272152e-01	1.224557e+00	4.344084e+01	6.897145e-08	2.539289e+05	1.012634e+05	2.880737e+02	1.042602e-01	-8.691182e-02	0.000000e+00	
-1.948718e+00	-4.272152e-01	1.224557e+00	4.344087e+01	-4.848077e-07	2.539288e+05	1.012633e+05	2.880737e+02	1.042603e-01	-8.699206e-02	0.000000e+00	
-2.000000e+00	-4.588608e-01	1.224557e+00	4.344084e+01	7.147892e-08	2.539289e+05	1.012634e+05	2.880737e+02	1.042602e-01	-8.691183e-02	0.000000e+00	
-1.948718e+00	-4.588608e-01	1.224557e+00	4.344087e+01	-5.333398e-07	2.539288e+05	1.012633e+05	2.880737e+02	1.042603e-01	-8.699207e-02	0.000000e+00	
-2.000000e+00	-4.905063e-01	1.224557e+00	4.344084e+01	7.403548e-08	2.539289e+05	1.012634e+05	2.880737e+02	1.042602e-01	-8.691185e-02	0.000000e+00	
-1.948718e+00	-4.905063e-01	1.224557e+00	4.344087e+01	-5.847077e-07	2.539288e+05	1.012633e+05	2.880737e+02	1.042603e-01	-8.699209e-02	0.000000e+00	
-2.000000e+00	-5.221519e-01	1.224557e+00	4.344084e+01	7.655284e-08	2.539289e+05	1.012634e+05	2.880737e+02	1.042602e-01	-8.691187e-02	0.000000e+00	
-1.948718e+00	-5.221519e-01	1.224557e+00	4.344087e+01	-6.386445e-07	2.539288e+05	1.012633e+05	2.880737e+02	1.042603e-01	-8.699211e-02	0.000000e+00	
-2.000000e+00	-5.537975e-01	1.224557e+00	4.344084e+01	7.880594e-08	2.539289e+05	1.012634e+05	2.880737e+02	1.042602e-01	-8.691189e-02	0.000000e+00	
-1.948718e+00	-5.537975e-01	1.224557e+00	4.344087e+01	-6.949478e-07	2.539288e+05	1.012633e+05	2.880737e+02	1.042603e-01	-8.699212e-02	0.000000e+00	
-2.000000e+00	-5.854430e-01	1.224557e+00	4.344084e+01	8.053738e-08	2.539289e+05	1.012634e+05	2.880737e+02	1.042602e-01	-8.691191e-02	0.000000e+00	
-1.948718e+00	-5.854430e-01	1.224557e+00	4.344087e+01	-7.527361e-07	2.539288e+05	1.012633e+05	2.880737e+02	1.042603e-01	-8.699214e-02	0.000000e+00	
-2.000000e+00	-6.170886e-01	1.224557e+00	4.344084e+01	8.116472e-08	2.539289e+05	1.012634e+05	2.880737e+02	1.042602e-01	-8.691194e-02	0.000000e+00	
-1.948718e+00	-6.170886e-01	1.224557e+00	4.344087e+01	-8.113488e-07	2.539288e+05	1.012633e+05	2.880737e+02	1.042603e-01	-8.699216e-02	0.000000e+00	
-2.000000e+00	-6.487342e-01	1.224557e+00	4.344084e+01	8.012031e-08	2.539289e+05	1.012634e+05	2.880737e+02	1.042602e-01	-8.691196e-02	0.000000e+00	
-1.948718e+00	-6.487342e-01	1.224557e+00	4.344088e+01	-8.684685e-07	2.539288e+05	1.012633e+05	2.880737e+02	1.042603e-01	-8.699219e-02	0.000000e+00	
-2.000000e+00	-6.803797e-01	1.224557e+00	4.344084e+01	7.635649e-08	2.539289e+05	1.012634e+05	2.880737e+02	1.042602e-01	-8.691199e-02	0.000000e+00	
-1.948718e+00	-6.803797e-01	1.224557e+00	4.344088e+01	-9.221987e-07	2.539288e+05	1.012633e+05	2.880737e+02	1.042603e-01	-8.699221e-02	0.000000e+00	
-2.000000e+00	-7.120253e-01	1.224557e+00	4.344084e+01	6.954715e-08	2.539289e+05	1.012634e+05	2.880737e+02	1.042602e-01	-8.691203e-02	0.000000e+00	
-1.948718e+00	-7.120253e-01	1.224557e+00	4.344088e+01	-9.663680e-07	2.539288e+05	1.012633e+05	2.880737e+02	1.042603e-01	-8.699223e-02	0.000000e+00	
-2.000000e+00	-7.436709e-01	1.224557e+00	4.344084e+01	5.902195e-08	2.539289e+05	1.012634e+05	2.880737e+02	1.042602e-01	-8.691206e-02	0.000000e+00	
-1.948718e+00	-7.436709e-01	1.224557e+00	4.344088e+01	-9.962357e-07	2.539288e+05	1.012633e+05	2.880737e+02	1.042603e-01	-8.699225e-02	0.000000e+00	
-2.000000e+00	-7.753165e-01	1.224557e+00	4.344084e+01	4.594286e-08	2.539289e+05	1.012634e+05	2.880737e+02	1.042602e-01	-8.691210e-02	0.000000e+00	
-1.948718e+00	-7.753165e-01	1.224557e+00	4.344088e+01	-9.986241e-07	2.539288e+05	1.012633e+05	2.880737e+02	1.042603e-01	-8.699227e-02	0.000000e+00	
-2.000000e+00	-8.069620e-01	1.224557e+00	4.344084e+01	2.807599e-08	2.539289e+05	1.012634e+05	2.880737e+02	1.042602e-01	-8.691215e-02	0.000000e+00	
-1.948718e+00	-8.069620e-01	1.224557e+00	4.344088e+01	-9.693626e-07	2.539288e+05	1.012633e+05	2.880737e+02	1.042603e-01	-8.699228e-02	0.000000e+00	
-2.000000e+00	-8.386076e-01	1.224557e+00	4.344085e+01	2.240187e-09	2.539289e+05	1.012634e+05	2.880737e+02	1.042602e-01	-8.691219e-02	0.000000e+00	
-1.948718e+00	-8.386076e-01	1.224557e+00	4.344088e+01	-8.896088e-07	2.539288e+05	1.012633e+05	2.880737e+02	1.042603e-01	-8.699229e-02	0.000000e+00	
-2.000000e+00	-8.702532e-01	1.224557e+00	4.344085e+01	-4.776082e-08	2.539289e+05	1.012634e+05	2.880737e+02	1.042602e-01	-8.691224e-02	0.000000e+00	
-1.948718e+00	-8.702532e-01	1.224557e+00	4.344088e+01	-7.642459e-07	2.539288e+05	1.012633e+05	2.880737e+02	1.042603e-01	-8.699229e-02	0.000000e+00	
-2.000000e+00	-9.018987e-01	1.224557e+00	4.344085e+01	-1.318352e-07	2.539289e+05	1.012634e+05	2.880737e+02	1.042602e-01	-8.691229e-02	0.000000e+00	
-1.948718e+00	-9.018987e-01	1.224557e+00	4.344088e+01	-5.425520e-07	2.539288e+05	1.012633e+05	2.880737e+02	1.042603e-01	-8.699228e-02	0.000000e+00	
-2.000000e+00	-9.335443e-01	1.224557e+00	4.344085e+01	-2.613432e-07	2.539289e+05	1.012634e+05	2.880737e+02	1.042602e-01	-8.691234e-02	0.000000e+00	
-1.948718e+00	-9.335443e-01	1.224557e+00	4.344088e+01	-2.004518e-07	2.539288e+05	1.012633e+05	2.880737e+02	1.042603e-01	-8.699224e-02	0.000000e+00	
-2.000000e+00	-9.651899e-01	1.224557e+00	4.344085e+01	-3.817704e-07	2.539289e+05	1.012634e+05	2.880737e+02	1.042602e-01	-8.691239e-02	0.000000e+00	
-1.948718e+00	-9.651899e-01	1.224557e+00	4.344088e+01	4.607308e-07	2.539288e+05	1.012633e+05	2.880737e+02	1.042603e-01	-8.699219e-02	0.000000e+00	
-2.000000e+00	-9.968354e-01	1.224557e+00	4.344085e+01	-4.153304e-07	2.539289e+05	1.012634e+05	2.880737e+02	1.042602e-01	-8.691242e-02	0.000000e+00	
-1.948718e+00	-9.968354e-01	1.224557e+00	4.344088e+01	1.527897e-06	2.539288e+05	1.012633e+05	2.880737e+02	1.042603e-01	-8.699208e-02	0.000000e+00	
-2.000000e+00	-1.028481e+00	1.224557e+00	4.344085e+01	-1.103735e-07	2.539289e+05	1.012634e+05	2.880737e+02	1.042602e-01	-8.691243e-02	0.000000e+00	
-1.948718e+00	-1.028481e+00	1.224557e+00	4.344088e+01	3.479128e-06	2.539288e+05	1.012633e+05	2.880737e+02	1.042603e-01	-8.699198e-02	0.000000e+00	
-2.000000e+00	-1.060127e+00	1.224557e+00	4.344084e+01	8.972411e-07	2.539289e+05	1.012634e+05	2.880737e+02	1.042602e-01	-8.691235e-02	0.000000e+00	
-1.948718e+00	-1.060127e+00	1.224557e+00	4.344088e+01	6.447504e-06	2.539288e+05	1.012633e+05	2.880737e+02	1.042603e-01	-8.699173e-02	0.000000e+00	
-2.000000e+00	-1.091772e+00	1.224557e+00	4.344084e+01	3.757513e-06	2.539289e+05	1.012634e+05	2.880737e+02	1.042602e-01	-8.691218e-02	0.000000e+00	
-1.948718e+00	-1.091772e+00	1.224557e+00	4.344088e+01	1.191945e-05	2.539288e+05	1.012633e+05	2.880737e+02	1.042603e-01	-8.699156e-02	0.000000e+00	
-2.000000e+00	-1.123418e+00	1.224557e+00	4.344084e+01	1.003047e-05	2.539289e+05	1.012634e+05	2.880737e+02	1.042602e-01	-8.691172e-02	0.000000e+00	
-1.948718e+00	-1.123418e+00	1.224557e+00	4.344089e+01	2.007045e-05	2.539288e+05	1.012633e+05	2.880737e+02	1.042604e-01	-8.699102e-02	0.000000e+00	
-2.000000e+00	-1.155063e+00	1.224557e+00	4.344083e+01	2.168387e-05	2.539289e+05	1.012634e+05	2.880737e+02	1.042602e-01	-8.691091e-02	0.000000e+00	
-1.948718e+00	-1.155063e+00	1.224557e+00	4.344088e+01	3.306152e-05	2.539288e+05	1.012633e+05	2.880737e+02	1.042603e-01	-8.699089e-02	0.000000e+00	
-2.000000e+00	-1.186709e+00	1.224557e+00	4.344081e+01	3.483993e-05	2.539289e+05	1.012634e+05	2.880737e+02	1.042601e-01	-8.690913e-02	0.000000e+00	
-1.948718e+00	-1.186709e+00	1.224557e+00	4.344085e+01	4.182737e-05	2.539288e+05	1.012633e+05	2.880737e+02	1.042603e-01	-8.698960e-02	0.000000e+00	
-2.000000e+00	-1.218354e+00	1.224557e+00	4.344076e+01	3.833028e-05	2.539289e+05	1.012634e+05	2.880737e+02	1.042600e-01	-8.690703e-02	0.000000e+00	
-1.948718e+00	-1.218354e+00	1.224557e+00	4.344077e+01	4.184058e-05	2.539288e+05	1.012633e+05	2.880737e+02	1.042601e-01	-8.699049e-02	0.000000e+00	
-1.897436e+00	1.218354e+00	1.224556e+00	4.344073e+01	-3.452714e-05	2.539287e+05	1.012633e+05	2.880736e+02	1.042600e-01	-8.705293e-02	0.000000e+00	
-1.897436e+00	1.250000e+00	1.224556e+00	4.344059e+01	-3.509092e-07	2.539287e+05	1.012633e+05	2.880736e+02	1.042597e-01	-8.705114e-02	0.000000e+00	
-1.897436e+00	1.186709e+00	1.224556e+00	4.344086e+01	-3.904337e-05	2.539287e+05	1.012633e+05	2.880736e+02	1.042603e-01	-8.705223e-02	0.000000e+00	
-1.897436e+00	1.155063e+00	1.224556e+00	4.344090e+01	-3.419505e-05	2.539287e+05	1.012633e+05	2.880736e+02	1.042604e-01	-8.705330e-02	0.000000e+00	
-1.897436e+00	1.123418e+00	1.224556e+00	4.344091e+01	-2.284001e-05	2.539287e+05	1.012633e+05	2.880736e+02	1.042604e-01	-8.705323e-02	0.000000e+00	
-1.897436e+00	1.091772e+00	1.224556e+00	4.344090e+01	-1.497272e-05	2.539287e+05	1.012633e+05	2.880736e+02	1.042604e-01	-8.705371e-02	0.000000e+00	
-1.897436e+00	1.060127e+00	1.224556e+00	4.344089e+01	-8.720482e-06	2.539287e+05	1.012633e+05	2.880736e+02	1.042604e-01	-8.705378e-02	0.000000e+00	
-1.897436e+00	1.028481e+00	1.224556e+00	4.344089e+01	-4.887288e-06	2.539287e+05	1.012633e+05	2.880736e+02	1.042604e-01	-8.705400e-02	0.000000e+00	
-1.897436e+00	9.968354e-01	1.224556e+00	4.344089e+01	-2.013625e-06	2.539287e+05	1.012633e+05	2.880736e+02	1.042604e-01	-8.705406e-02	0.000000e+00	
-1.897436e+00	9.651899e-01	1.224556e+00	4.344089e+01	-2.842325e-07	2.539287e+05	1.012633e+05	2.880736e+02	1.042604e-01	-8.705416e-02	0.000000e+00	
-1.897436e+00	9.335443e-01	1.224556e+00	4.344089e+01	8.368204e-07	2.539287e+05	1.012633e+05	2.880736e+02	1.042604e-01	-8.705419e-02	0.000000e+00	
-1.897436e+00	9.018987e-01	1.224556e+00	4.344088e+01	1.408808e-06	2.539287e+05	1.012633e+05	2.880736e+02	1.042604e-01	-8.705422e-02	0.000000e+00	
-1.897436e+00	8.702532e-01	1.224556e+00	4.344088e+01	1.738203e-06	2.539287e+05	1.012633e+05	2.880736e+02	1.042604e-01	-8.705423e-02	0.000000e+00	
-1.897436e+00	8.386076e-01	1.224556e+00	4.344088e+01	1.886494e-06	2.539287e+05	1.012633e+05	2.880736e+02	1.042604e-01	-8.705424e-02	0.000000e+00	
-1.897436e+00	8.069620e-01	1.224556e+00	4.344088e+01	1.956593e-06	2.539287e+05	1.012633e+05	2.880736e+02	1.042604e-01	-8.705423e-02	0.000000e+00	
-1.897436e+00	7.753165e-01	1.224556e+00	4.344088e+01	1.951063e-06	2.539287e+05	1.012633e+05	2.880736e+02	1.042604e-01	-8.705422e-02	0.000000e+00	
-1.897436e+00	7.436709e-01	1.224556e+00	4.344088e+01	1.901186e-06	2.539287e+05	1.012633e+05	2.880736e+02	1.042604e-01	-8.705421e-02	0.000000e+00	
-1.897436e+00	7.120253e-01	1.224556e+00	4.344088e+01	1.811216e-06	2.539287e+05	1.012633e+05	2.880736e+02	1.042604e-01	-8.705419e-02	0.000000e+00	
-1.897436e+00	6.803797e-01	1.224556e+00	4.344088e+01	1.700350e-06	2.539287e+05	1.012633e+05	2.880736e+02	1.042604e-01	-8.705418e-02	0.000000e+00	
-1.897436e+00	6.487342e-01	1.224556e+00	4.344088e+01	1.575486e-06	2.539287e+05	1.012633e+05	2.880736e+02	1.042604e-01	-8.705416e-02	0.000000e+00	
-1.897436e+00	6.170886e-01	1.224556e+00	4.344088e+01	1.446749e-06	2.539287e+05	1.012633e+05	2.880736e+02	1.042604e-01	-8.705414e-02	0.000000e+00	
-1.897436e+00	5.854430e-01	1.224556e+00	4.344088e+01	1.317566e-06	2.539287e+05	1.012633e+05	2.880736e+02	1.042604e-01	-8.705413e-02	0.000000e+00	
-1.897436e+00	5.537975e-01	1.224556e+00	4.344088e+01	1.191955e-06	2.539287e+05	1.012633e+05	2.880736e+02	1.042604e-01	-8.705411e-02	0.000000e+00	
-1.897436e+00	5.221519e-01	1.224556e+00	4.344088e+01	1.071064e-06	2.539287e+05	1.012633e+05	2.880736e+02	1.042604e-01	-8.705409e-02	0.000000e+00	
-1.897436e+00	4.905063e-01	1.224556e+00	4.344088e+01	9.562704e-07	2.539287e+05	1.012633e+05	2.880736e+02	1.042604e-01	-8.705408e-02	0.000000e+00	
-1.897436e+00	4.588608e-01	1.224556e+00	4.344088e+01	8.477738e-07	2.539287e+05	1.012633e+05	2.880736e+02	1.042604e-01	-8.705407e-02	0.000000e+00	
-1.897436e+00	4.272152e-01	1.224556e+00	4.344088e+01	7.458500e-07	2.539287e+05	1.012633e+05	2.880736e+02	1.042604e-01	-8.705405e-02	0.000000e+00	
-1.897436e+00	3.955696e-01	1.224556e+00	4.344087e+01	6.502696e-07	2.539287e+05	1.012633e+05	2.880736e+02	1.042604e-01	-8.705404e-02	0.000000e+00	
-1.897436e+00	3.639241e-01	1.224556e+00	4.344087e+01	5.608210e-07	2.539287e+05	1.012633e+05	2.880736e+02	1.042604e-01	-8.705403e-02	0.000000e+00	
-1.897436e+00	3.322785e-01	1.224556e+00	4.344087e+01	4.770757e-07	2.539287e+05	1.012633e+05	2.880736e+02	1.042604e-01	-8.705402e-02	0.000000e+00	
-1.897436e+00	3.006329e-01	1.224556e+00	4.344087e+01	3.986105e-07	2.539287e+05	1.012633e+05	2.880736e+02	1.042604e-01	-8.705401e-02	0.000000e+00	
-1.897436e+00	2.689873e-01	1.224556e+00	4.344087e+01	3.249153e-07	2.539287e+05	1.012633e+05	2.880736e+02	1.042604e-01	-8.705400e-02	0.000000e+00	
-1.897436e+00	2.373418e-01	1.224556e+00	4.344087e+01	2.554905e-07	2.539287e+05	1.012633e+05	2.880736e+02	1.042604e-01	-8.705399e-02	0.000000e+00	
-1.897436e+00	2.056962e-01	1.224556e+00	4.344087e+01	1.898090e-07	2.539287e+05	1.012633e+05	2.880736e+02	1.042604e-01	-8.705399e-02	0.000000e+00	
-1.897436e+00	1.740506e-01	1.224556e+00	4.344087e+01	1.273596e-07	2.539287e+05	1.012633e+05	2.880736e+02	1.042604e-01	-8.705398e-02	0.000000e+00	
-1.897436e+00	1.424051e-01	1.224556e+00	4.344087e+01	6.762941e-08	2.539287e+05	1.012633e+05	2.880736e+02	1.042604e-01	-8.705398e-02	0.000000e+00	
-1.897436e+00	1.107595e-01	1.224556e+00	4.344087e+01	1.011956e-08	2.539287e+05	1.012633e+05	2.880736e+02	1.042604e-01	-8.705398e-02	0.000000e+00	
-1.897436e+00	7.911392e-02	1.224556e+00	4.344087e+01	-4.566276e-08	2.539287e+05	1.012633e+05	2.880736e+02	1.042604e-01	-8.705397e-02	0.000000e+00	
-1.897436e+00	4.746835e-02	1.224556e+00	4.344087e+01	-1.002004e-07	2.539287e+05	1.012633e+05	2.880736e+02	1.042604e-01	-8.705397e-02	0.000000e+00	
-1.897436e+00	1.582278e-02	1.224556e+00	4.344087e+01	-1.539720e-07	2.539287e+05	1.012633e+05	2.880736e+02	1.042604e-01	-8.705397e-02	0.000000e+00	
-1.897436e+00	-1.582278e-02	1.224556e+00	4.344087e+01	-2.074517e-07	2.539287e+05	1.012633e+05	2.880736e+02	1.042604e-01	-8.705397e-02	0.000000e+00	
-1.897436e+00	-4.746835e-02	1.224556e+00	4.344087e+01	-2.611139e-07	2.539287e+05	1.012633e+05	2.880736e+02	1.042604e-01	-8.705397e-02	0.000000e+00	
-1.897436e+00	-7.911392e-02	1.224556e+00	4.344087e+01	-3.154358e-07	2.539287e+05	1.012633e+05	2.880736e+02	1.042604e-01	-8.705398e-02	0.000000e+00	
-1.897436e+00	-1.107595e-01	1.224556e+00	4.344087e+01	-3.709005e-07	2.539287e+05	1.012633e+05	2.880736e+02	1.042604e-01	-8.705398e-02	0.000000e+00	