TITLE = "SU2 Simulation"
VARIABLES = "Iteration","CL","CD","CSF","CMx","CMy","CMz","CFx","CFy","CFz","CL/CD","AoA","Custom_ObjFunc","Res_Flow[0]","Res_Flow[1]","Res_Flow[2]","Res_Flow[3]","Res_Flow[4]","Linear_Solver_Iterations","CFL_Number","Time(min)"
ZONE T= "Convergence history"
           0, 0.00000000e+00, 0.00000000e+00, 0.00000000e+00, 0.00000000e+00, 0.00000000e+00, 0.00000000e+00, 0.00000000e+00, 0.00000000e+00, 0.00000000e+00, 0.00000000e+00, 0.00000000e+00, 0.00000000e+00, -1.62443716e+01, -1.32514527e+01, -1.32295822e+01, -1.09138774e+01, 0.00000000e+00, 5.0000000000, 5.0000000000, 0.0012113167
           1, 0.00000000e+00, 0.00000000e+00, 0.00000000e+00, 0.00000000e+00, 0.00000000e+00, 0.00000000e+00, 0.00000000e+00, 0.00000000e+00, 0.00000000e+00, 0.00000000e+00, 0.00000000e+00, 0.00000000e+00, -1.59567078e+01, 9.14477260e-01, 7.27336795e-01, 2.44633542e+00, 0.00000000e+00, 5.0000000000, 5.0000000000, 0.0023774833
           2, 0.00000000e+00, 0.00000000e+00, 0.00000000e+00, 0.00000000e+00, 0.00000000e+00, 0.00000000e+00, 0.00000000e+00, 0.00000000e+00, 0.00000000e+00, 0.00000000e+00, 0.00000000e+00, 0.00000000e+00, -2.66352903e+00, 8.49591497e-01, 6.86562054e-01, 2.82595495e+00, 0.00000000e+00, 5.0000000000, 5.0000000000, 0.0035336000
           3, 0.00000000e+00, 0.00000000e+00, 0.00000000e+00, 0.00000000e+00, 0.00000000e+00, 0.00000000e+00, 0.00000000e+00, 0.00000000e+00, 0.00000000e+00, 0.00000000e+00, 0.00000000e+00, 0.00000000e+00, -2.46843767e+00, 7.81273988e-01, 6.45729305e-01, 3.00094434e+00, 0.00000000e+00, 5.0000000000, 5.0000000000, 0.0046156500
           4, 0.00000000e+00, 0.00000000e+00, 0.00000000e+00, 0.00000000e+00, 0.00000000e+00, 0.00000000e+00, 0.00000000e+00, 0.00000000e+00, 0.00000000e+00, 0.00000000e+00, 0.00000000e+00, 0.00000000e+00, -2.38565352e+00, 7.10299449e-01, 6.05259238e-01, 3.07915689e+00, 0.00000000e+00, 5.0000000000, 5.0000000000, 0.0058061667
           5, 0.00000000e+00, 0.00000000e+00, 0.00000000e+00, 0.00000000e+00, 0.00000000e+00, 0.00000000e+00, 0.00000000e+00, 0.00000000e+00, 0.00000000e+00, 0.00000000e+00, 0.00000000e+00, 0.00000000e+00, -2.34197352e+00, 6.36765353e-01, 5.65510028e-01, 3.12101871e+00, 0.00000000e+00, 5.0000000000, 5.0000000000, 0.0070246000
           6, 0.00000000e+00, 0.00000000e+00, 0.00000000e+00, 0.00000000e+00, 0.00000000e+00, 0.00000000e+00, 0.00000000e+00, 0.00000000e+00, 0.00000000e+00, 0.00000000e+00, 0.00000000e+00, 0.00000000e+00, -2.31619018e+00, 5.60053351e-01, 5.26817788e-01, 3.14591587e+00, 0.00000000e+00, 5.0000000000, 5.0000000000, 0.0081519000
           7, 0.00000000e+00, 0.00000000e+00, 0.00000000e+00, 0.00000000e+00, 0.00000000e+00, 0.00000000e+00, 0.00000000e+00, 0.00000000e+00, 0.00000000e+00, 0.00000000e+00, 0.00000000e+00, 0.00000000e+00, -2.30044141e+00, 4.79095867e-01, 4.89491514e-01, 3.16120008e+00, 0.00000000e+00, 5.0000000000, 5.0000000000, 0.0092817333
           8, 0.00000000e+00, 0.00000000e+00, 0.00000000e+00, 0.00000000e+00, 0.00000000e+00, 0.00000000e+00, 0.00000000e+00, 0.00000000e+00, 0.00000000e+00, 0.00000000e+00, 0.00000000e+00, 0.00000000e+00, -2.29139860e+00, 3.92385905e-01, 4.53791612e-01, 3.17000120e+00, 0.00000000e+00, 5.0000000000, 5.0000000000, 0.0103528167
           9, 0.00000000e+00, 0.00000000e+00, 0.00000000e+00, 0.00000000e+00, 0.00000000e+00, 0.00000000e+00, 0.00000000e+00, 0.00000000e+00, 0.00000000e+00, 0.00000000e+00, 0.00000000e+00, 0.00000000e+00, -2.28754888e+00, 2.97779745e-01, 4.19917911e-01, 3.17373660e+00, 0.00000000e+00, 5.0000000000, 5.0000000000, 0.0114734000
          10, 0.00000000e+00, 0.00000000e+00, 0.00000000e+00, 0.00000000e+00, 0.00000000e+00, 0.00000000e+00, 0.00000000e+00, 0.00000000e+00, 0.00000000e+00, 0.00000000e+00, 0.00000000e+00, 0.00000000e+00, -2.28841222e+00, 1.92295855e-01, 3.88009982e-01, 3.17283112e+00, 0.00000000e+00, 5.0000000000, 5.0000000000, 0.0127819500
          11, 0.00000000e+00, 0.00000000e+00, 0.00000000e+00, 0.00000000e+00, 0.00000000e+00, 0.00000000e+00, 0.00000000e+00, 0.00000000e+00, 0.00000000e+00, 0.00000000e+00, 0.00000000e+00, 0.00000000e+00, -2.29429999e+00, 7.22942253e-02, 3.58154768e-01, 3.16693694e+00, 0.00000000e+00, 5.0000000000, 5.0000000000, 0.0139690333
          12, 0.00000000e+00, 0.00000000e+00, 0.00000000e+00, 0.00000000e+00, 0.00000000e+00, 0.00000000e+00, 0.00000000e+00, 0.00000000e+00, 0.00000000e+00, 0.00000000e+00, 0.00000000e+00, 0.00000000e+00, -2.30612991e+00, -6.43680098e-02, 3.30399038e-01, 3.15511078e+00, 0.00000000e+00, 5.0000000000, 5.0000000000, 0.0151452833
          13, 0.00000000e+00, 0.00000000e+00, 0.00000000e+00, 0.00000000e+00, 0.00000000e+00, 0.00000000e+00, 0.00000000e+00, 0.00000000e+00, 0.00000000e+00, 0.00000000e+00, 0.00000000e+00, 0.00000000e+00, -2.32520689e+00, -2.07184603e-01, 3.04764882e-01, 3.13602970e+00, 0.00000000e+00, 5.0000000000, 5.0000000000, 0.0162421333
          14, 0.00000000e+00, 0.00000000e+00, 0.00000000e+00, 0.00000000e+00, 0.00000000e+00, 0.00000000e+00, 0.00000000e+00, 0.00000000e+00, 0.00000000e+00, 0.00000000e+00, 0.00000000e+00, 0.00000000e+00, -2.35301634e+00, -3.01979685e-01, 2.81264569e-01, 3.10819583e+00, 0.00000000e+00, 5.0000000000, 5.0000000000, 0.0173318500
          15, 0.00000000e+00, 0.00000000e+00, 0.00000000e+00, 0.00000000e+00, 0.00000000e+00, 0.00000000e+00, 0.00000000e+00, 0.00000000e+00, 0.00000000e+00, 0.00000000e+00, 0.00000000e+00, 0.00000000e+00, -2.39108972e+00, -2.84338063e-01, 2.59911135e-01, 3.07006978e+00, 0.00000000e+00, 5.0000000000, 5.0000000000, 0.0184376333
          16, 0.00000000e+00, 0.00000000e+00, 0.00000000e+00, 0.00000000e+00, 0.00000000e+00, 0.00000000e+00, 0.00000000e+00, 0.00000000e+00, 0.00000000e+00, 0.00000000e+00, 0.00000000e+00, 0.00000000e+00, -2.44097384e+00, -2.05362519e-01, 2.40712789e-01, 3.02010181e+00, 0.00000000e+00, 5.0000000000, 5.0000000000, 0.0196253333
          17, 0.00000000e+00, 0.00000000e+00, 0.00000000e+00, 0.00000000e+00, 0.00000000e+00, 0.00000000e+00, 0.00000000e+00, 0.00000000e+00, 0.00000000e+00, 0.00000000e+00, 0.00000000e+00, 0.00000000e+00, -2.50431089e+00, -1.29219420e-01, 2.23659256e-01, 2.95665563e+00, 0.00000000e+00, 5.0000000000, 5.0000000000, 0.0208055500
          18, 0.00000000e+00, 0.00000000e+00, 0.00000000e+00, 0.00000000e+00, 0.00000000e+00, 0.00000000e+00, 0.00000000e+00, 0.00000000e+00, 0.00000000e+00, 0.00000000e+00, 0.00000000e+00, 0.00000000e+00, -2.58302258e+00, -7.19586593e-02, 2.08701410e-01, 2.87783705e+00, 0.00000000e+00, 5.0000000000, 5.0000000000, 0.0219611000
          19, 0.00000000e+00, 0.00000000e+00, 0.00000000e+00, 0.00000000e+00, 0.00000000e+00, 0.00000000e+00, 0.00000000e+00, 0.00000000e+00, 0.00000000e+00, 0.00000000e+00, 0.00000000e+00, 0.00000000e+00, -2.67955415e+00, -3.27160337e-02, 1.95733686e-01, 2.78129020e+00, 0.00000000e+00, 5.0000000000, 5.0000000000, 0.0230696000
          20, 0.00000000e+00, 0.00000000e+00, 0.00000000e+00, 0.00000000e+00, 0.00000000e+00, 0.00000000e+00, 0.00000000e+00, 0.00000000e+00, 0.00000000e+00, 0.00000000e+00, 0.00000000e+00, 0.00000000e+00, -2.79689855e+00, -7.85099446e-03, 1.84586703e-01, 2.66430207e+00, 0.00000000e+00, 5.0000000000, 5.0000000000, 0.0241398167
          21, 0.00000000e+00, 0.00000000e+00, 0.00000000e+00, 0.00000000e+00, 0.00000000e+00, 0.00000000e+00, 0.00000000e+00, 0.00000000e+00, 0.00000000e+00, 0.00000000e+00, 0.00000000e+00, 0.00000000e+00, -2.93675069e+00, 6.09243160e-03, 1.75032938e-01, 2.52606296e+00, 0.00000000e+00, 5.0000000000, 5.0000000000, 0.0252678500
          22, 0.00000000e+00, 0.00000000e+00, 0.00000000e+00, 0.00000000e+00, 0.00000000e+00, 0.00000000e+00, 0.00000000e+00, 0.00000000e+00, 0.00000000e+00, 0.00000000e+00, 0.00000000e+00, 0.00000000e+00, -3.08734723e+00, 1.19343100e-02, 1.66803236e-01, 2.38068322e+00, 0.00000000e+00, 5.0000000000, 5.0000000000, 0.0263946333
          23, 0.00000000e+00, 0.00000000e+00, 0.00000000e+00, 0.00000000e+00, 0.00000000e+00, 0.00000000e+00, 0.00000000e+00, 0.00000000e+00, 0.00000000e+00, 0.00000000e+00, 0.00000000e+00, 0.00000000e+00, -3.18414733e+00, 1.18567396e-02, 1.59608250e-01, 2.29294830e+00, 0.00000000e+00, 5.0000000000, 5.0000000000, 0.0275534667
          24, 0.00000000e+00, 0.00000000e+00, 0.00000000e+00, 0.00000000e+00, 0.00000000e+00, 0.00000000e+00, 0.00000000e+00, 0.00000000e+00, 0.00000000e+00, 0.00000000e+00, 0.00000000e+00, 0.00000000e+00, -3.15198415e+00, 7.47039179e-03, 1.53159890e-01, 2.32676743e+00, 0.00000000e+00, 5.0000000000, 5.0000000000, 0.0287341167
          25, 0.00000000e+00, 0.00000000e+00, 0.00000000e+00, 0.00000000e+00, 0.00000000e+00, 0.00000000e+00, 0.00000000e+00, 0.00000000e+00, 0.00000000e+00, 0.00000000e+00, 0.00000000e+00, 0.00000000e+00, -3.05843048e+00, -1.00023849e-04, 1.47190237e-01, 2.41596180e+00, 0.00000000e+00, 5.0000000000, 5.0000000000, 0.0299047000
          26, 0.00000000e+00, 0.00000000e+00, 0.00000000e+00, 0.00000000e+00, 0.00000000e+00, 0.00000000e+00, 0.00000000e+00, 0.00000000e+00, 0.00000000e+00, 0.00000000e+00, 0.00000000e+00, 0.00000000e+00, -2.97168835e+00, -1.01111428e-02, 1.41462803e-01, 2.49879620e+00, 0.00000000e+00, 5.0000000000, 5.0000000000, 0.0310158833
          27, 0.00000000e+00, 0.00000000e+00, 0.00000000e+00, 0.00000000e+00, 0.00000000e+00, 0.00000000e+00, 0.00000000e+00, 0.00000000e+00, 0.00000000e+00, 0.00000000e+00, 0.00000000e+00, 0.00000000e+00, -2.90463282e+00, -2.20872396e-02, 1.35777809e-01, 2.56307278e+00, 0.00000000e+00, 5.0000000000, 5.0000000000, 0.0322761667
          28, 0.00000000e+00, 0.00000000e+00, 0.00000000e+00, 0.00000000e+00, 0.00000000e+00, 0.00000000e+00, 0.00000000e+00, 0.00000000e+00, 0.00000000e+00, 0.00000000e+00, 0.00000000e+00, 0.00000000e+00, -2.85507301e+00, -3.57160008e-02, 1.29974784e-01, 2.61057398e+00, 0.00000000e+00, 5.0000000000, 5.0000000000, 0.0336288167
          29, 0.00000000e+00, 0.00000000e+00, 0.00000000e+00, 0.00000000e+00, 0.00000000e+00, 0.00000000e+00, 0.00000000e+00, 0.00000000e+00, 0.00000000e+00, 0.00000000e+00, 0.00000000e+00, 0.00000000e+00, -2.81934411e+00, -5.07661444e-02, 1.23931759e-01, 2.64466608e+00, 0.00000000e+00, 5.0000000000, 5.0000000000, 0.0348769000
          30, 0.00000000e+00, 0.00000000e+00, 0.00000000e+00, 0.00000000e+00, 0.00000000e+00, 0.00000000e+00, 0.00000000e+00, 0.00000000e+00, 0.00000000e+00, 0.00000000e+00, 0.00000000e+00, 0.00000000e+00, -2.79449806e+00, -6.70317112e-02, 1.17562348e-01, 2.66813576e+00, 0.00000000e+00, 5.0000000000, 5.0000000000, 0.0359749833
          31, 0.00000000e+00, 0.00000000e+00, 0.00000000e+00, 0.00000000e+00, 0.00000000e+00, 0.00000000e+00, 0.00000000e+00, 0.00000000e+00, 0.00000000e+00, 0.00000000e+00, 0.00000000e+00, 0.00000000e+00, -2.77837970e+00, -8.43000525e-02, 1.10811747e-01, 2.68305482e+00, 0.00000000e+00, 5.0000000000, 5.0000000000, 0.0370897667
          32, 0.00000000e+00, 0.00000000e+00, 0.00000000e+00, 0.00000000e+00, 0.00000000e+00, 0.00000000e+00, 0.00000000e+00, 0.00000000e+00, 0.00000000e+00, 0.00000000e+00, 0.00000000e+00, 0.00000000e+00, -2.76942652e+00, -1.02336924e-01, 1.03652312e-01, 2.69094283e+00, 0.00000000e+00, 5.0000000000, 5.0000000000, 0.0381358333
          33, 0.00000000e+00, 0.00000000e+00, 0.00000000e+00, 0.00000000e+00, 0.00000000e+00, 0.00000000e+00, 0.00000000e+00, 0.00000000e+00, 0.00000000e+00, 0.00000000e+00, 0.00000000e+00, 0.00000000e+00, -2.76649125e+00, -1.20881931e-01, 9.60791554e-02, 2.69292435e+00, 0.00000000e+00, 5.0000000000, 5.0000000000, 0.0390356167
          34, 0.00000000e+00, 0.00000000e+00, 0.00000000e+00, 0.00000000e+00, 0.00000000e+00, 0.00000000e+00, 0.00000000e+00, 0.00000000e+00, 0.00000000e+00, 0.00000000e+00, 0.00000000e+00, 0.00000000e+00, -2.76871429e+00, -1.39648954e-01, 8.81058459e-02, 2.68984510e+00, 0.00000000e+00, 5.0000000000, 5.0000000000, 0.0399903333
          35, 0.00000000e+00, 0.00000000e+00, 0.00000000e+00, 0.00000000e+00, 0.00000000e+00, 0.00000000e+00, 0.00000000e+00, 0.00000000e+00, 0.00000000e+00, 0.00000000e+00, 0.00000000e+00, 0.00000000e+00, -2.77543236e+00, -1.58327910e-01, 7.97606452e-02, 2.68235678e+00, 0.00000000e+00, 5.0000000000, 5.0000000000, 0.0409213667
          36, 0.00000000e+00, 0.00000000e+00, 0.00000000e+00, 0.00000000e+00, 0.00000000e+00, 0.00000000e+00, 0.00000000e+00, 0.00000000e+00, 0.00000000e+00, 0.00000000e+00, 0.00000000e+00, 0.00000000e+00, -2.78610841e+00, -1.76585938e-01, 7.10832674e-02, 2.67098308e+00, 0.00000000e+00, 5.0000000000, 5.0000000000, 0.0418339333
          37, 0.00000000e+00, 0.00000000e+00, 0.00000000e+00, 0.00000000e+00, 0.00000000e+00, 0.00000000e+00, 0.00000000e+00, 0.00000000e+00, 0.00000000e+00, 0.00000000e+00, 0.00000000e+00, 0.00000000e+00, -2.80027193e+00, -1.94067828e-01, 6.21221427e-02, 2.65617674e+00, 0.00000000e+00, 5.0000000000, 5.0000000000, 0.0427815833
          38, 0.00000000e+00, 0.00000000e+00, 0.00000000e+00, 0.00000000e+00, 0.00000000e+00, 0.00000000e+00, 0.00000000e+00, 0.00000000e+00, 0.00000000e+00, 0.00000000e+00, 0.00000000e+00, 0.00000000e+00, -2.81746109e+00, -2.10397395e-01, 5.29323072e-02, 2.63837543e+00, 0.00000000e+00, 5.0000000000, 5.0000000000, 0.0436964000
          39, 0.00000000e+00, 0.00000000e+00, 0.00000000e+00, 0.00000000e+00, 0.00000000e+00, 0.00000000e+00, 0.00000000e+00, 0.00000000e+00, 0.00000000e+00, 0.00000000e+00, 0.00000000e+00, 0.00000000e+00, -2.83715992e+00, -2.25183129e-01, 4.35738100e-02, 2.61806315e+00, 0.00000000e+00, 5.0000000000, 5.0000000000, 0.0445922000
          40, 0.00000000e+00, 0.00000000e+00, 0.00000000e+00, 0.00000000e+00, 0.00000000e+00, 0.00000000e+00, 0.00000000e+00, 0.00000000e+00, 0.00000000e+00, 0.00000000e+00, 0.00000000e+00, 0.00000000e+00, -2.85872481e+00, -2.38032279e-01, 3.41105354e-02, 2.59584300e+00, 0.00000000e+00, 5.0000000000, 5.0000000000, 0.0455389333
          41, 0.00000000e+00, 0.00000000e+00, 0.00000000e+00, 0.00000000e+00, 0.00000000e+00, 0.00000000e+00, 0.00000000e+00, 0.00000000e+00, 0.00000000e+00, 0.00000000e+00, 0.00000000e+00, 0.00000000e+00, -2.88130004e+00, -2.48576730e-01, 2.46093102e-02, 2.57252271e+00, 0.00000000e+00, 5.0000000000, 5.0000000000, 0.0464676167
          42, 0.00000000e+00, 0.00000000e+00, 0.00000000e+00, 0.00000000e+00, 0.00000000e+00, 0.00000000e+00, 0.00000000e+00, 0.00000000e+00, 0.00000000e+00, 0.00000000e+00, 0.00000000e+00, 0.00000000e+00, -2.90373435e+00, -2.56510918e-01, 1.51391495e-02, 2.54920352e+00, 0.00000000e+00, 5.0000000000, 5.0000000000, 0.0473781500
          43, 0.00000000e+00, 0.00000000e+00, 0.00000000e+00, 0.00000000e+00, 0.00000000e+00, 0.00000000e+00, 0.00000000e+00, 0.00000000e+00, 0.00000000e+00, 0.00000000e+00, 0.00000000e+00, 0.00000000e+00, -2.92453404e+00, -2.61637013e-01, 5.77046190e-03, 2.52733994e+00, 0.00000000e+00, 5.0000000000, 5.0000000000, 0.0482734333
          44, 0.00000000e+00, 0.00000000e+00, 0.00000000e+00, 0.00000000e+00, 0.00000000e+00, 0.00000000e+00, 0.00000000e+00, 0.00000000e+00, 0.00000000e+00, 0.00000000e+00, 0.00000000e+00, 0.00000000e+00, -2.94191932e+00, -2.63907205e-01, -3.42593198e-03, 2.50870543e+00, 0.00000000e+00, 5.0000000000, 5.0000000000, 0.0492440833
          45, 0.00000000e+00, 0.00000000e+00, 0.00000000e+00, 0.00000000e+00, 0.00000000e+00, 0.00000000e+00, 0.00000000e+00, 0.00000000e+00, 0.00000000e+00, 0.00000000e+00, 0.00000000e+00, 0.00000000e+00, -2.95405930e+00, -2.63450408e-01, -1.23800855e-02, 2.49518214e+00, 0.00000000e+00, 5.0000000000, 5.0000000000, 0.0501684833
          46, 0.00000000e+00, 0.00000000e+00, 0.00000000e+00, 0.00000000e+00, 0.00000000e+00, 0.00000000e+00, 0.00000000e+00, 0.00000000e+00, 0.00000000e+00, 0.00000000e+00, 0.00000000e+00, 0.00000000e+00, -2.95949590e+00, -2.60573343e-01, -2.10245916e-02, 2.48834567e+00, 0.00000000e+00, 5.0000000000, 5.0000000000, 0.0511210833
          47, 0.00000000e+00, 0.00000000e+00, 0.00000000e+00, 0.00000000e+00, 0.00000000e+00, 0.00000000e+00, 0.00000000e+00, 0.00000000e+00, 0.00000000e+00, 0.00000000e+00, 0.00000000e+00, 0.00000000e+00, -2.95761108e+00, -2.55733509e-01, -2.92966273e-02, 2.48896996e+00, 0.00000000e+00, 5.0000000000, 5.0000000000, 0.0520557167
          48, 0.00000000e+00, 0.00000000e+00, 0.00000000e+00, 0.00000000e+00, 0.00000000e+00, 0.00000000e+00, 0.00000000e+00, 0.00000000e+00, 0.00000000e+00, 0.00000000e+00, 0.00000000e+00, 0.00000000e+00, -2.94886881e+00, -2.49490608e-01, -3.71403081e-02, 2.49672693e+00, 0.00000000e+00, 5.0000000000, 5.0000000000, 0.0529767833
          49, 0.00000000e+00, 0.00000000e+00, 0.00000000e+00, 0.00000000e+00, 0.00000000e+00, 0.00000000e+00, 0.00000000e+00, 0.00000000e+00, 0.00000000e+00, 0.00000000e+00, 0.00000000e+00, 0.00000000e+00, -2.93465951e+00, -2.42448564e-01, -4.45092083e-02, 2.51029239e+00, 0.00000000e+00, 5.0000000000, 5.0000000000, 0.0539385500
          50, 0.00000000e+00, 0.00000000e+00, 0.00000000e+00, 0.00000000e+00, 0.00000000e+00, 0.00000000e+00, 0.00000000e+00, 0.00000000e+00, 0.00000000e+00, 0.00000000e+00, 0.00000000e+00, 0.00000000e+00, -2.91684869e+00, -2.35200338e-01, -5.13688352e-02, 2.52778989e+00, 0.00000000e+00, 5.0000000000, 5.0000000000, 0.0548781667
          51, 0.00000000e+00, 0.00000000e+00, 0.00000000e+00, 0.00000000e+00, 0.00000000e+00, 0.00000000e+00, 0.00000000e+00, 0.00000000e+00, 0.00000000e+00, 0.00000000e+00, 0.00000000e+00, 0.00000000e+00, -2.89729843e+00, -2.28283667e-01, -5.76988050e-02, 2.54729746e+00, 0.00000000e+00, 5.0000000000, 5.0000000000, 0.0558059500
          52, 0.00000000e+00, 0.00000000e+00, 0.00000000e+00, 0.00000000e+00, 0.00000000e+00, 0.00000000e+00, 0.00000000e+00, 0.00000000e+00, 0.00000000e+00, 0.00000000e+00, 0.00000000e+00, 0.00000000e+00, -2.87755739e+00, -2.22151682e-01, -6.34944548e-02, 2.56719242e+00, 0.00000000e+00, 5.0000000000, 5.0000000000, 0.0567486833
          53, 0.00000000e+00, 0.00000000e+00, 0.00000000e+00, 0.00000000e+00, 0.00000000e+00, 0.00000000e+00, 0.00000000e+00, 0.00000000e+00, 0.00000000e+00, 0.00000000e+00, 0.00000000e+00, 0.00000000e+00, -2.85874877e+00, -2.17158451e-01, -6.87676632e-02, 2.58628582e+00, 0.00000000e+00, 5.0000000000, 5.0000000000, 0.0576725000
          54, 0.00000000e+00, 0.00000000e+00, 0.00000000e+00, 0.00000000e+00, 0.00000000e+00, 0.00000000e+00, 0.00000000e+00, 0.00000000e+00, 0.00000000e+00, 0.00000000e+00, 0.00000000e+00, 0.00000000e+00, -2.84158815e+00, -2.13556048e-01, -7.35467293e-02, 2.60381262e+00, 0.00000000e+00, 5.0000000000, 5.0000000000, 0.0585825833
          55, 0.00000000e+00, 0.00000000e+00, 0.00000000e+00, 0.00000000e+00, 0.00000000e+00, 0.00000000e+00, 0.00000000e+00, 0.00000000e+00, 0.00000000e+00, 0.00000000e+00, 0.00000000e+00, 0.00000000e+00, -2.82645636e+00, -2.11499003e-01, -7.78752520e-02, 2.61935825e+00, 0.00000000e+00, 5.0000000000, 5.0000000000, 0.0595211833
          56, 0.00000000e+00, 0.00000000e+00, 0.00000000e+00, 0.00000000e+00, 0.00000000e+00, 0.00000000e+00, 0.00000000e+00, 0.00000000e+00, 0.00000000e+00, 0.00000000e+00, 0.00000000e+00, 0.00000000e+00, -2.81348198e+00, -2.11053224e-01, -8.18100739e-02, 2.63277247e+00, 0.00000000e+00, 5.0000000000, 5.0000000000, 0.0604459333
          57, 0.00000000e+00, 0.00000000e+00, 0.00000000e+00, 0.00000000e+00, 0.00000000e+00, 0.00000000e+00, 0.00000000e+00, 0.00000000e+00, 0.00000000e+00, 0.00000000e+00, 0.00000000e+00, 0.00000000e+00, -2.80261494e+00, -2.12207764e-01, -8.54184576e-02, 2.64409158e+00, 0.00000000e+00, 5.0000000000, 5.0000000000, 0.0613570000
          58, 0.00000000e+00, 0.00000000e+00, 0.00000000e+00, 0.00000000e+00, 0.00000000e+00, 0.00000000e+00, 0.00000000e+00, 0.00000000e+00, 0.00000000e+00, 0.00000000e+00, 0.00000000e+00, 0.00000000e+00, -2.79368760e+00, -2.14888444e-01, -8.87747581e-02, 2.65347424e+00, 0.00000000e+00, 5.0000000000, 5.0000000000, 0.0623470500
          59, 0.00000000e+00, 0.00000000e+00, 0.00000000e+00, 0.00000000e+00, 0.00000000e+00, 0.00000000e+00, 0.00000000e+00, 0.00000000e+00, 0.00000000e+00, 0.00000000e+00, 0.00000000e+00, 0.00000000e+00, -2.78646433e+00, -2.18972615e-01, -9.19568934e-02, 2.66114951e+00, 0.00000000e+00, 5.0000000000, 5.0000000000, 0.0633577667
          60, 0.00000000e+00, 0.00000000e+00, 0.00000000e+00, 0.00000000e+00, 0.00000000e+00, 0.00000000e+00, 0.00000000e+00, 0.00000000e+00, 0.00000000e+00, 0.00000000e+00, 0.00000000e+00, 0.00000000e+00, -2.78068209e+00, -2.24304417e-01, -9.50429111e-02, 2.66737489e+00, 0.00000000e+00, 5.0000000000, 5.0000000000, 0.0643875167
          61, 0.00000000e+00, 0.00000000e+00, 0.00000000e+00, 0.00000000e+00, 0.00000000e+00, 0.00000000e+00, 0.00000000e+00, 0.00000000e+00, 0.00000000e+00, 0.00000000e+00, 0.00000000e+00, 0.00000000e+00, -2.77608313e+00, -2.30709881e-01, -9.81079110e-02, 2.67240300e+00, 0.00000000e+00, 5.0000000000, 5.0000000000, 0.0653539667
          62, 0.00000000e+00, 0.00000000e+00, 0.00000000e+00, 0.00000000e+00, 0.00000000e+00, 0.00000000e+00, 0.00000000e+00, 0.00000000e+00, 0.00000000e+00, 0.00000000e+00, 0.00000000e+00, 0.00000000e+00, -2.77243980e+00, -2.38011116e-01, -1.01221511e-01, 2.67645655e+00, 0.00000000e+00, 5.0000000000, 5.0000000000, 0.0663017667
          63, 0.00000000e+00, 0.00000000e+00, 0.00000000e+00, 0.00000000e+00, 0.00000000e+00, 0.00000000e+00, 0.00000000e+00, 0.00000000e+00, 0.00000000e+00, 0.00000000e+00, 0.00000000e+00, 0.00000000e+00, -2.76957092e+00, -2.46038854e-01, -1.04445976e-01, 2.67971223e+00, 0.00000000e+00, 5.0000000000, 5.0000000000, 0.0672418500
          64, 0.00000000e+00, 0.00000000e+00, 0.00000000e+00, 0.00000000e+00, 0.00000000e+00, 0.00000000e+00, 0.00000000e+00, 0.00000000e+00, 0.00000000e+00, 0.00000000e+00, 0.00000000e+00, 0.00000000e+00, -2.76734931e+00, -2.54642674e-01, -1.07835040e-01, 2.68229352e+00, 0.00000000e+00, 5.0000000000, 5.0000000000, 0.0681973667
          65, 0.00000000e+00, 0.00000000e+00, 0.00000000e+00, 0.00000000e+00, 0.00000000e+00, 0.00000000e+00, 0.00000000e+00, 0.00000000e+00, 0.00000000e+00, 0.00000000e+00, 0.00000000e+00, 0.00000000e+00, -2.76570078e+00, -2.63698541e-01, -1.11433412e-01, 2.68427215e+00, 0.00000000e+00, 5.0000000000, 5.0000000000, 0.0690947667
          66, 0.00000000e+00, 0.00000000e+00, 0.00000000e+00, 0.00000000e+00, 0.00000000e+00, 0.00000000e+00, 0.00000000e+00, 0.00000000e+00, 0.00000000e+00, 0.00000000e+00, 0.00000000e+00, 0.00000000e+00, -2.76459633e+00, -2.73113689e-01, -1.15276887e-01, 2.68567619e+00, 0.00000000e+00, 5.0000000000, 5.0000000000, 0.0700858333
          67, 0.00000000e+00, 0.00000000e+00, 0.00000000e+00, 0.00000000e+00, 0.00000000e+00, 0.00000000e+00, 0.00000000e+00, 0.00000000e+00, 0.00000000e+00, 0.00000000e+00, 0.00000000e+00, 0.00000000e+00, -2.76403973e+00, -2.82829241e-01, -1.19392942e-01, 2.68650245e+00, 0.00000000e+00, 5.0000000000, 5.0000000000, 0.0710208000
          68, 0.00000000e+00, 0.00000000e+00, 0.00000000e+00, 0.00000000e+00, 0.00000000e+00, 0.00000000e+00, 0.00000000e+00, 0.00000000e+00, 0.00000000e+00, 0.00000000e+00, 0.00000000e+00, 0.00000000e+00, -2.76405346e+00, -2.92821294e-01, -1.23801723e-01, 2.68673070e+00, 0.00000000e+00, 5.0000000000, 5.0000000000, 0.0719250667
          69, 0.00000000e+00, 0.00000000e+00, 0.00000000e+00, 0.00000000e+00, 0.00000000e+00, 0.00000000e+00, 0.00000000e+00, 0.00000000e+00, 0.00000000e+00, 0.00000000e+00, 0.00000000e+00, 0.00000000e+00, -2.76466505e+00, -3.03101225e-01, -1.28517293e-01, 2.68633701e+00, 0.00000000e+00, 5.0000000000, 5.0000000000, 0.0728738333
          70, 0.00000000e+00, 0.00000000e+00, 0.00000000e+00, 0.00000000e+00, 0.00000000e+00, 0.00000000e+00, 0.00000000e+00, 0.00000000e+00, 0.00000000e+00, 0.00000000e+00, 0.00000000e+00, 0.00000000e+00, -2.76589548e+00, -3.13715850e-01, -1.33549045e-01, 2.68530525e+00, 0.00000000e+00, 5.0000000000, 5.0000000000, 0.0737919500
          71, 0.00000000e+00, 0.00000000e+00, 0.00000000e+00, 0.00000000e+00, 0.00000000e+00, 0.00000000e+00, 0.00000000e+00, 0.00000000e+00, 0.00000000e+00, 0.00000000e+00, 0.00000000e+00, 0.00000000e+00, -2.76775008e+00, -3.24747714e-01, -1.38903212e-01, 2.68363600e+00, 0.00000000e+00, 5.0000000000, 5.0000000000, 0.0747027333
          72, 0.00000000e+00, 0.00000000e+00, 0.00000000e+00, 0.00000000e+00, 0.00000000e+00, 0.00000000e+00, 0.00000000e+00, 0.00000000e+00, 0.00000000e+00, 0.00000000e+00, 0.00000000e+00, 0.00000000e+00, -2.77021172e+00, -3.36315550e-01, -1.44584392e-01, 2.68135328e+00, 0.00000000e+00, 5.0000000000, 5.0000000000, 0.0756675333
          73, 0.00000000e+00, 0.00000000e+00, 0.00000000e+00, 0.00000000e+00, 0.00000000e+00, 0.00000000e+00, 0.00000000e+00, 0.00000000e+00, 0.00000000e+00, 0.00000000e+00, 0.00000000e+00, 0.00000000e+00, -2.77323546e+00, -3.48574596e-01, -1.50597061e-01, 2.67850985e+00, 0.00000000e+00, 5.0000000000, 5.0000000000, 0.0766006333
          74, 0.00000000e+00, 0.00000000e+00, 0.00000000e+00, 0.00000000e+00, 0.00000000e+00, 0.00000000e+00, 0.00000000e+00, 0.00000000e+00, 0.00000000e+00, 0.00000000e+00, 0.00000000e+00, 0.00000000e+00, -2.77674399e+00, -3.61716369e-01, -1.56947014e-01, 2.67519180e+00, 0.00000000e+00, 5.0000000000, 5.0000000000, 0.0775404667
          75, 0.00000000e+00, 0.00000000e+00, 0.00000000e+00, 0.00000000e+00, 0.00000000e+00, 0.00000000e+00, 0.00000000e+00, 0.00000000e+00, 0.00000000e+00, 0.00000000e+00, 0.00000000e+00, 0.00000000e+00, -2.78062303e+00, -3.75967255e-01, -1.63642736e-01, 2.67152322e+00, 0.00000000e+00, 5.0000000000, 5.0000000000, 0.0784798833
          76, 0.00000000e+00, 0.00000000e+00, 0.00000000e+00, 0.00000000e+00, 0.00000000e+00, 0.00000000e+00, 0.00000000e+00, 0.00000000e+00, 0.00000000e+00, 0.00000000e+00, 0.00000000e+00, 0.00000000e+00, -2.78471640e+00, -3.91585088e-01, -1.70696677e-01, 2.66767110e+00, 0.00000000e+00, 5.0000000000, 5.0000000000, 0.0793911500
          77, 0.00000000e+00, 0.00000000e+00, 0.00000000e+00, 0.00000000e+00, 0.00000000e+00, 0.00000000e+00, 0.00000000e+00, 0.00000000e+00, 0.00000000e+00, 0.00000000e+00, 0.00000000e+00, 0.00000000e+00, -2.78882115e+00, -4.08852273e-01, -1.78126433e-01, 2.66385002e+00, 0.00000000e+00, 5.0000000000, 5.0000000000, 0.0803663000
          78, 0.00000000e+00, 0.00000000e+00, 0.00000000e+00, 0.00000000e+00, 0.00000000e+00, 0.00000000e+00, 0.00000000e+00, 0.00000000e+00, 0.00000000e+00, 0.00000000e+00, 0.00000000e+00, 0.00000000e+00, -2.79268357e+00, -4.28062921e-01, -1.85955842e-01, 2.66032574e+00, 0.00000000e+00, 5.0000000000, 5.0000000000, 0.0812866333
          79, 0.00000000e+00, 0.00000000e+00, 0.00000000e+00, 0.00000000e+00, 0.00000000e+00, 0.00000000e+00, 0.00000000e+00, 0.00000000e+00, 0.00000000e+00, 0.00000000e+00, 0.00000000e+00, 0.00000000e+00, -2.79599802e+00, -4.49499154e-01, -1.94216005e-01, 2.65741550e+00, 0.00000000e+00, 5.0000000000, 5.0000000000, 0.0821954667
          80, 0.00000000e+00, 0.00000000e+00, 0.00000000e+00, 0.00000000e+00, 0.00000000e+00, 0.00000000e+00, 0.00000000e+00, 0.00000000e+00, 0.00000000e+00, 0.00000000e+00, 0.00000000e+00, 0.00000000e+00, -2.79841073e+00, -4.73387627e-01, -2.02946241e-01, 2.65548289e+00, 0.00000000e+00, 5.0000000000, 5.0000000000, 0.0831425667
          81, 0.00000000e+00, 0.00000000e+00, 0.00000000e+00, 0.00000000e+00, 0.00000000e+00, 0.00000000e+00, 0.00000000e+00, 0.00000000e+00, 0.00000000e+00, 0.00000000e+00, 0.00000000e+00, 0.00000000e+00, -2.79953166e+00, -4.99819942e-01, -2.12195005e-01, 2.65492415e+00, 0.00000000e+00, 5.0000000000, 5.0000000000, 0.0840779167
          82, 0.00000000e+00, 0.00000000e+00, 0.00000000e+00, 0.00000000e+00, 0.00000000e+00, 0.00000000e+00, 0.00000000e+00, 0.00000000e+00, 0.00000000e+00, 0.00000000e+00, 0.00000000e+00, 0.00000000e+00, -2.79895630e+00, -5.28609217e-01, -2.22020788e-01, 2.65614423e+00, 0.00000000e+00, 5.0000000000, 5.0000000000, 0.0850167667
          83, 0.00000000e+00, 0.00000000e+00, 0.00000000e+00, 0.00000000e+00, 0.00000000e+00, 0.00000000e+00, 0.00000000e+00, 0.00000000e+00, 0.00000000e+00, 0.00000000e+00, 0.00000000e+00, 0.00000000e+00, -2.79629828e+00, -5.59042018e-01, -2.32493046e-01, 2.65952235e+00, 0.00000000e+00, 5.0000000000, 5.0000000000, 0.0859545000
          84, 0.00000000e+00, 0.00000000e+00, 0.00000000e+00, 0.00000000e+00, 0.00000000e+00, 0.00000000e+00, 0.00000000e+00, 0.00000000e+00, 0.00000000e+00, 0.00000000e+00, 0.00000000e+00, 0.00000000e+00, -2.79123014e+00, -5.89488401e-01, -2.43693187e-01, 2.66537027e+00, 0.00000000e+00, 5.0000000000, 5.0000000000, 0.0869082000
          85, 0.00000000e+00, 0.00000000e+00, 0.00000000e+00, 0.00000000e+00, 0.00000000e+00, 0.00000000e+00, 0.00000000e+00, 0.00000000e+00, 0.00000000e+00, 0.00000000e+00, 0.00000000e+00, 0.00000000e+00, -2.78352584e+00, -6.16915180e-01, -2.55715684e-01, 2.67389050e+00, 0.00000000e+00, 5.0000000000, 5.0000000000, 0.0878724167
          86, 0.00000000e+00, 0.00000000e+00, 0.00000000e+00, 0.00000000e+00, 0.00000000e+00, 0.00000000e+00, 0.00000000e+00, 0.00000000e+00, 0.00000000e+00, 0.00000000e+00, 0.00000000e+00, 0.00000000e+00, -2.77309615e+00, -6.36629760e-01, -2.68669392e-01, 2.68514355e+00, 0.00000000e+00, 5.0000000000, 5.0000000000, 0.0887880667
          87, 0.00000000e+00, 0.00000000e+00, 0.00000000e+00, 0.00000000e+00, 0.00000000e+00, 0.00000000e+00, 0.00000000e+00, 0.00000000e+00, 0.00000000e+00, 0.00000000e+00, 0.00000000e+00, 0.00000000e+00, -2.76000770e+00, -6.43034635e-01, -2.82679156e-01, 2.69903289e+00, 0.00000000e+00, 5.0000000000, 5.0000000000, 0.0896965000
          88, 0.00000000e+00, 0.00000000e+00, 0.00000000e+00, 0.00000000e+00, 0.00000000e+00, 0.00000000e+00, 0.00000000e+00, 0.00000000e+00, 0.00000000e+00, 0.00000000e+00, 0.00000000e+00, 0.00000000e+00, -2.74448045e+00, -6.31980067e-01, -2.97887822e-01, 2.71531186e+00, 0.00000000e+00, 5.0000000000, 5.0000000000, 0.0906285500
          89, 0.00000000e+00, 0.00000000e+00, 0.00000000e+00, 0.00000000e+00, 0.00000000e+00, 0.00000000e+00, 0.00000000e+00, 0.00000000e+00, 0.00000000e+00, 0.00000000e+00, 0.00000000e+00, 0.00000000e+00, -2.72686459e+00, -6.03378123e-01, -3.14458757e-01, 2.73361019e+00, 0.00000000e+00, 5.0000000000, 5.0000000000, 0.0915528667