VARIABLES = "x"
 "y"
 "Density"
 "Momentum_x"
 "Momentum_y"
 "Energy"
 "Pressure"
 "Temperature"
 "Mach"
 "C<sub>p</sub>"
 "Roe_Dissipation"
ZONE
DT=(DOUBLE,DOUBLE,DOUBLE,DOUBLE,DOUBLE,DOUBLE,DOUBLE,DOUBLE,DOUBLE,DOUBLE,DOUBLE)
                     -2                     0.6        1.22505402565002        41.8063011169434   -1.56965199179687E-12                254015.5          101320.8984375        288.120391845703       0.100288398563862    -0.00583461998030543                       0 
      -1.99749874937469                     0.6        1.22505402565002        41.8063011169434    -4.3896603907224E-12                254015.5          101320.8984375        288.120391845703       0.100288398563862    -0.00583462002573012                       0 
      -1.99499749874937                     0.6        1.22505402565002        41.8063011169434   -7.20966878964818E-12                254015.5          101320.8984375        288.120391845703       0.100288398563862    -0.00583462007115481                       0 
      -1.99249624812406                     0.6        1.22505402565002        41.8063011169434   -1.00296771885737E-11                254015.5          101320.8984375        288.120391845703       0.100288398563862    -0.00583462011657951                       0 
      -1.98999499749875                     0.6        1.22505402565002        41.8063011169434   -1.28496855874992E-11                254015.5          101320.8984375        288.120391845703       0.100288398563862     -0.0058346201620042                       0 
      -1.98749374687344                     0.6        1.22505402565002        41.8063011169434   -1.56696939864248E-11                254015.5          101320.8984375        288.120391845703       0.100288398563862    -0.00583462020742889                       0 
      -1.98499249624812                     0.6        1.22505402565002        41.8063011169434   -1.84897023853505E-11                254015.5          101320.8984375        288.120391845703       0.100288398563862    -0.00583462025285358                       0 
      -1.98249124562281                     0.6        1.22505402565002        41.8063011169434   -2.13097107842761E-11                254015.5          101320.8984375        288.120391845703       0.100288398563862    -0.00583462029827827                       0 
       -1.9799899949975                     0.6        1.22505402565002        41.8063011169434   -2.41297191832016E-11                254015.5          101320.8984375        288.120391845703       0.100288398563862    -0.00583462034370296                       0 
      -1.97748874437219                     0.6        1.22505402565002        41.8063011169434   -2.69497275821274E-11                254015.5          101320.8984375        288.120391845703       0.100288398563862    -0.00583462038912765                       0 
      -1.97498749374687                     0.6        1.22505402565002        41.8063011169434   -2.96768635266146E-11                254015.5          101320.8984375        288.120391845703       0.100288398563862    -0.00583462043455234                       0 
      -1.97248624312156                     0.6        1.22505402565002        41.8063011169434   -3.23335989930977E-11                254015.5          101320.8984375        288.120391845703       0.100288398563862    -0.00583462047997703                       0 
      -1.96998499249625                     0.6        1.22505402565002        41.8063011169434    -3.5141952954789E-11                254015.5          101320.8984375        288.120391845703       0.100288398563862    -0.00583462052540172                       0 
      -1.96748374187094                     0.6        1.22505402565002        41.8063011169434   -3.79619613537146E-11                254015.5          101320.8984375        288.120391845703       0.100288398563862    -0.00583462057082641                       0 
      -1.96498249124562                     0.6        1.22505402565002        41.8063011169434   -4.07819697526401E-11                254015.5          101320.8984375        288.120391845703       0.100288398563862     -0.0058346206162511                       0 
      -1.96248124062031                     0.6        1.22505402565002        41.8063011169434   -4.36019781515656E-11                254015.5          101320.8984375        288.120391845703       0.100288398563862    -0.00583462066167579                       0 
        -1.959979989995                     0.6        1.22505402565002        41.8063011169434   -4.64219865504914E-11                254015.5          101320.8984375        288.120391845703       0.100288398563862    -0.00583462070710048                       0 
      -1.95747873936968                     0.6        1.22505402565002        41.8063011169434   -4.92419949494169E-11                254015.5          101320.8984375        288.120391845703       0.100288398563862    -0.00583462075252517                       0 
      -1.95497748874437                     0.6        1.22505402565002        41.8063011169434   -5.20620033483425E-11                254015.5          101320.8984375        288.120391845703       0.100288398563862    -0.00583462079794986                       0 
      -1.95247623811906                     0.6        1.22505402565002        41.8063011169434   -5.48820117472682E-11                254015.5          101320.8984375        288.120391845703       0.100288398563862    -0.00583462084337455                       0 
      -1.94997498749375                     0.6        1.22505402565002        41.8063011169434   -5.77020201461938E-11                254015.5          101320.8984375        288.120391845703       0.100288398563862    -0.00583462088879924                       0 
      -1.94747373686843                     0.6        1.22505402565002        41.8063011169434   -6.04916188219215E-11                254015.5          101320.8984375        288.120391845703       0.100288398563862    -0.00583462093422399                       0 
      -1.94497248624312                     0.6        1.22505402565002        41.8063011169434   -6.32504944223351E-11                254015.5          101320.8984375        288.120391845703       0.100288398563862    -0.00583462097964878                       0 
      -1.94247123561781                     0.6        1.22505402565002        41.8063011169434   -6.60093700227486E-11                254015.5          101320.8984375        288.120391845703       0.100288398563862    -0.00583462102507358                       0 
       -1.9399699849925                     0.6        1.22505402565002        41.8063011169434    -6.8768245623162E-11                254015.5          101320.8984375        288.120391845703       0.100288398563862    -0.00583462107049838                       0 
      -1.93746873436718                     0.6        1.22505402565002        41.8063011169434   -7.15271212235754E-11                254015.5          101320.8984375        288.120391845703       0.100288398563862    -0.00583462111592317                       0 
      -1.93496748374187                     0.6        1.22505402565002        41.8063011169434   -7.42859968239891E-11                254015.5          101320.8984375        288.120391845703       0.100288398563862    -0.00583462116134797                       0 
      -1.93246623311656                     0.6        1.22505402565002        41.8063011169434   -7.70448724244026E-11                254015.5          101320.8984375        288.120391845703       0.100288398563862    -0.00583462120677276                       0 
      -1.92996498249125                     0.6        1.22505402565002        41.8063011169434    -7.9803748024816E-11                254015.5          101320.8984375        288.120391845703       0.100288398563862    -0.00583462125219756                       0 
      -1.92746373186593                     0.6        1.22505402565002        41.8063011169434   -8.25626236252297E-11                254015.5          101320.8984375        288.120391845703       0.100288398563862    -0.00583462129762236                       0 
      -1.92496248124062                     0.6        1.22505402565002        41.8063011169434   -8.53108593445725E-11                254015.5          101320.8984375        288.120391845703       0.100288398563862    -0.00583462134304715                       0 
      -1.92246123061531                     0.6        1.22505402565002        41.8063011169434   -8.79091965914343E-11                254015.5          101320.8984375        288.120391845703       0.100288398563862    -0.00583462138847195                       0 
      -1.91995997998999                     0.6        1.22505402565002        41.8063011169434   -9.05759364633839E-11                254015.5          101320.8984375        288.120391845703       0.100288398563862    -0.00583462143389674                       0 
      -1.91745872936468                     0.6        1.22505402565002        41.8063011169434   -9.33348120637974E-11                254015.5          101320.8984375        288.120391845703       0.100288398563862    -0.00583462147932154                       0 
      -1.91495747873937                     0.6        1.22505402565002        41.8063011169434   -9.60936876642108E-11                254015.5          101320.8984375        288.120391845703       0.100288398563862    -0.00583462152474634                       0 
      -1.91245622811406                     0.6        1.22505402565002        41.8063011169434   -9.88525632646243E-11                254015.5          101320.8984375        288.120391845703       0.100288398563862    -0.00583462157017113                       0 
      -1.90995497748874                     0.6        1.22505402565002        41.8063011169434   -1.01611438865038E-10                254015.5          101320.8984375        288.120391845703       0.100288398563862    -0.00583462161559593                       0 
      -1.90745372686343                     0.6        1.22505402565002        41.8063011169434   -1.04370314465451E-10                254015.5          101320.8984375        288.120391845703       0.100288398563862    -0.00583462166102073                       0 
      -1.90495247623812                     0.6        1.22505402565002        41.8063011169434   -1.07129190065865E-10                254015.5          101320.8984375        288.120391845703       0.100288398563862    -0.00583462170644552                       0 
      -1.90245122561281                     0.6        1.22505402565002        41.8063011169434   -1.09888065666278E-10                254015.5          101320.8984375        288.120391845703       0.100288398563862    -0.00583462175187032                       0 
      -1.89994997498749                     0.6        1.22505402565002        41.8063011169434   -1.12646941266692E-10                254015.5          101320.8984375        288.120391845703       0.100288398563862    -0.00583462179729512                       0 
      -1.89744872436218                     0.6        1.22505402565002        41.8063011169434   -1.15405816867105E-10                254015.5          101320.8984375        288.120391845703       0.100288398563862    -0.00583462184271991                       0 
      -1.89494747373687                     0.6        1.22505402565002        41.8063011169434   -1.18187018647462E-10                254015.5          101320.8984375        288.120391845703       0.100288398563862     -0.0058346218881446                       0 
      -1.89244622311156                     0.6        1.22505402565002        41.8063011169434   -1.20968334381085E-10                254015.5          101320.8984375        288.120391845703       0.100288398563862    -0.00583462193356929                       0 
      -1.88994497248624                     0.6        1.22505402565002        41.8063011169434   -1.23749650114708E-10                254015.5          101320.8984375        288.120391845703       0.100288398563862    -0.00583462197899398                       0 
      -1.88744372186093                     0.6        1.22505402565002        41.8063011169434    -1.2653096584833E-10                254015.5          101320.8984375        288.120391845703       0.100288398563862    -0.00583462202441867                       0 
      -1.88494247123562                     0.6        1.22505402565002        41.8063011169434   -1.29312281581953E-10                254015.5          101320.8984375        288.120391845703       0.100288398563862    -0.00583462206984336                       0 
      -1.88244122061031                     0.6        1.22505402565002        41.8063011169434   -1.32093597315576E-10                254015.5          101320.8984375        288.120391845703       0.100288398563862    -0.00583462211526805                       0 
      -1.87993996998499                     0.6        1.22505402565002        41.8063011169434   -1.34874913049199E-10                254015.5          101320.8984375        288.120391845703       0.100288398563862    -0.00583462216069274                       0 
      -1.87743871935968                     0.6        1.22505402565002        41.8063011169434   -1.37656228782822E-10                254015.5          101320.8984375        288.120391845703       0.100288398563862    -0.00583462220611744                       0 
      -1.87493746873437                     0.6        1.22505402565002        41.8063011169434   -1.40437544516445E-10                254015.5          101320.8984375        288.120391845703       0.100288398563862    -0.00583462225154213                       0 
      -1.87243621810905                     0.6        1.22505402565002        41.8063011169434   -1.43134233103204E-10                254015.5          101320.8984375        288.120391845703       0.100288398563862    -0.00583462229696682                       0 
      -1.86993496748374                     0.6        1.22505402565002        41.8063011169434   -1.45765431264635E-10                254015.5          101320.8984375        288.120391845703       0.100288398563862    -0.00583462234239151                       0 
      -1.86743371685843                     0.6        1.22505402565002        41.8063011169434   -1.48535269279655E-10                254015.5          101320.8984375        288.120391845703       0.100288398563862     -0.0058346223878162                       0 
      -1.86493246623312                     0.6        1.22505402565002        41.8063011169434   -1.51316585013278E-10                254015.5          101320.8984375        288.120391845703       0.100288398563862    -0.00583462243324089                       0 
       -1.8624312156078                     0.6        1.22505402565002        41.8063011169434   -1.54097900746901E-10                254015.5          101320.8984375        288.120391845703       0.100288398563862    -0.00583462247866558                       0 
      -1.85992996498249                     0.6        1.22505402565002        41.8063011169434   -1.56879216480524E-10                254015.5          101320.8984375        288.120391845703       0.100288398563862    -0.00583462252409027                       0 
      -1.85742871435718                     0.6        1.22505402565002        41.8063011169434   -1.59660532214147E-10                254015.5          101320.8984375        288.120391845703       0.100288398563862    -0.00583462256951496                       0 
      -1.85492746373187                     0.6        1.22505402565002        41.8063011169434    -1.6244184794777E-10                254015.5          101320.8984375        288.120391845703       0.100288398563862    -0.00583462261493965                       0 
      -1.85242621310655                     0.6        1.22505402565002        41.8063011169434   -1.65223163681393E-10                254015.5          101320.8984375        288.120391845703       0.100288398563862    -0.00583462266036434                       0 
      -1.84992496248124                     0.6        1.22505402565002        41.8063011169434   -1.68004479415016E-10                254015.5          101320.8984375        288.120391845703       0.100288398563862    -0.00583462270578903                       0 
      -1.84742371185593                     0.6        1.22505402565002        41.8063011169434   -1.70785795148638E-10                254015.5          101320.8984375        288.120391845703       0.100288398563862    -0.00583462275121372                       0 
      -1.84492246123062                     0.6        1.22505402565002        41.8063011169434   -1.73542596293969E-10                254015.5          101320.8984375        288.120391845703       0.100288398563862    -0.00583462277427316                       0 
       -1.8424212106053                     0.6        1.22505402565002        41.8063011169434   -1.76274121961037E-10                254015.5          101320.8984375        288.120391845703       0.100288398563862    -0.00583462277427316                       0 
      -1.83991995997999                     0.6        1.22505402565002        41.8063011169434   -1.79005647628104E-10                254015.5          101320.8984375        288.120391845703       0.100288398563862    -0.00583462277427316                       0 
      -1.83741870935468                     0.6        1.22505402565002        41.8063011169434   -1.81737173295171E-10                254015.5          101320.8984375        288.120391845703       0.100288398563862    -0.00583462277427316                       0 
      -1.83491745872936                     0.6        1.22505402565002        41.8063011169434   -1.84468698962239E-10                254015.5          101320.8984375        288.120391845703       0.100288398563862    -0.00583462277427316                       0 
      -1.83241620810405                     0.6        1.22505402565002        41.8063011169434   -1.87200224629306E-10                254015.5          101320.8984375        288.120391845703       0.100288398563862    -0.00583462277427316                       0 
      -1.82991495747874                     0.6        1.22505402565002        41.8063011169434   -1.89931750296373E-10                254015.5          101320.8984375        288.120391845703       0.100288398563862    -0.00583462277427316                       0 
      -1.82741370685343                     0.6        1.22505402565002        41.8063011169434    -1.9266327596344E-10                254015.5          101320.8984375        288.120391845703       0.100288398563862    -0.00583462277427316                       0 
      -1.82491245622811                     0.6        1.22505402565002        41.8063011169434   -1.95394801630507E-10                254015.5          101320.8984375        288.120391845703       0.100288398563862    -0.00583462277427316                       0 
       -1.8224112056028                     0.6        1.22505402565002        41.8063011169434   -1.98117260797855E-10                254015.5          101320.8984375        288.120391845703       0.100288398563862    -0.00583462277427316                       0 
      -1.81990995497749                     0.6        1.22505402565002        41.8063011169434   -2.00700636578794E-10                254015.5          101320.8984375        288.120391845703       0.100288398563862    -0.00583462277427316                       0 
      -1.81740870435218                     0.6        1.22505402565002        41.8063011169434   -2.03346384152295E-10                254015.5          101320.8984375        288.120391845703       0.100288398563862    -0.00583462277427316                       0 
      -1.81490745372686                     0.6        1.22505402565002        41.8063011169434   -2.06077909819362E-10                254015.5          101320.8984375        288.120391845703       0.100288398563862    -0.00583462277427316                       0 
      -1.81240620310155                     0.6        1.22505402565002        41.8063011169434    -2.0880943548643E-10                254015.5          101320.8984375        288.120391845703       0.100288398563862    -0.00583462277427316                       0 
      -1.80990495247624                     0.6        1.22505402565002        41.8063011169434   -2.11540961153497E-10                254015.5          101320.8984375        288.120391845703       0.100288398563862    -0.00583462277427316                       0 
      -1.80740370185093                     0.6        1.22505402565002        41.8063011169434   -2.14272486820564E-10                254015.5          101320.8984375        288.120391845703       0.100288398563862    -0.00583462277427316                       0 
      -1.80490245122561                     0.6        1.22505402565002        41.8063011169434   -2.17004012487631E-10                254015.5          101320.8984375        288.120391845703       0.100288398563862    -0.00583462277427316                       0 
       -1.8024012006003                     0.6        1.22505402565002        41.8063011169434   -2.19735538154699E-10                254015.5          101320.8984375        288.120391845703       0.100288398563862    -0.00583462277427316                       0 
      -1.79989994997499                     0.6        1.22505402565002        41.8063011169434   -2.22467063821766E-10                254015.5          101320.8984375        288.120391845703       0.100288398563862    -0.00583462277427316                       0 
      -1.79739869934967                     0.6        1.22505402565002        41.8063011169434   -2.25198589488833E-10                254015.5          101320.8984375        288.120391845703       0.100288398563862    -0.00583462277427316                       0 
      -1.79489744872436                     0.6        1.22505402565002        41.8063011169434     -2.279301151559E-10                254015.5          101320.8984375        288.120391845703       0.100288398563862    -0.00583462277427316                       0 
      -1.79239619809905                     0.6        1.22505402565002        41.8063011169434   -2.30569991438504E-10                254015.5          101320.8984375        288.120391845703       0.100288398563862    -0.00583462284171818                       0 
      -1.78989494747374                     0.6        1.22505402565002        41.8063011169434   -2.33208927360928E-10                254015.5          101320.8984375        288.120391845703       0.100288398563862    -0.00583462290985521                       0 
      -1.78739369684842                     0.6        1.22505402565002        41.8063011169434   -2.35847863283353E-10                254015.5          101320.8984375        288.120391845703       0.100288398563862    -0.00583462297799225                       0 
      -1.78489244622311                     0.6        1.22505402565002        41.8063011169434   -2.38486799205778E-10                254015.5          101320.8984375        288.120391845703       0.100288398563862    -0.00583462304612929                       0 
       -1.7823911955978                     0.6        1.22505402565002        41.8063011169434   -2.41125735128202E-10                254015.5          101320.8984375        288.120391845703       0.100288398563862    -0.00583462311426632                       0 
      -1.77988994497249                     0.6        1.22505402565002        41.8063011169434   -2.43764671050626E-10                254015.5          101320.8984375        288.120391845703       0.100288398563862    -0.00583462318240336                       0 
      -1.77738869434717                     0.6        1.22505402565002        41.8063011169434   -2.46403606973051E-10                254015.5          101320.8984375        288.120391845703       0.100288398563862     -0.0058346232505404                       0 
      -1.77488744372186                     0.6        1.22505402565002        41.8063011169434   -2.49042542895476E-10                254015.5          101320.8984375        288.120391845703       0.100288398563862    -0.00583462331867743                       0 
      -1.77238619309655                     0.6        1.22505402565002        41.8063011169434     -2.516814788179E-10                254015.5          101320.8984375        288.120391845703       0.100288398563862    -0.00583462338681447                       0 
      -1.76988494247124                     0.6        1.22505402565002        41.8063011169434   -2.54242101479151E-10                254015.5          101320.8984375        288.120391845703       0.100288398563862     -0.0058346234549515                       0 
      -1.76738369184592                     0.6        1.22505402565002        41.8063011169434   -2.56740857114005E-10                254015.5          101320.8984375        288.120391845703       0.100288398563862    -0.00583462352308854                       0 
      -1.76488244122061                     0.6        1.22505402565002        41.8063011169434   -2.59368363254991E-10                254015.5          101320.8984375        288.120391845703       0.100288398563862    -0.00583462359122557                       0 
       -1.7623811905953                     0.6        1.22505402565002        41.8063011169434   -2.62007299177415E-10                254015.5          101320.8984375        288.120391845703       0.100288398563862    -0.00583462365936261                       0 
      -1.75987993996998                     0.6        1.22505402565002        41.8063011169434    -2.6464623509984E-10                254015.5          101320.8984375        288.120391845703       0.100288398563862    -0.00583462372749965                       0 
      -1.75737868934467                     0.6        1.22505402565002        41.8063011169434   -2.67285171022264E-10                254015.5          101320.8984375        288.120391845703       0.100288398563862    -0.00583462379563668                       0 
      -1.75487743871936                     0.6        1.22505402565002        41.8063011169434   -2.69924106944689E-10                254015.5          101320.8984375        288.120391845703       0.100288398563862    -0.00583462386377372                       0 
      -1.75237618809405                     0.6        1.22505402565002        41.8063011169434   -2.72563042867114E-10                254015.5          101320.8984375        288.120391845703       0.100288398563862    -0.00583462393191075                       0 
      -1.74987493746873                     0.6        1.22505402565002        41.8063011169434   -2.75201978789538E-10                254015.5          101320.8984375        288.120391845703       0.100288398563862    -0.00583462400004779                       0 
      -1.74737368684342                     0.6        1.22505402565002        41.8063011169434   -2.77840914711963E-10                254015.5          101320.8984375        288.120391845703       0.100288398563862    -0.00583462406818482                       0 
      -1.74487243621811                     0.6        1.22505402565002        41.8063011169434   -2.80479850634387E-10                254015.5          101320.8984375        288.120391845703       0.100288398563862    -0.00583462413632186                       0 
       -1.7423711855928                     0.6        1.22505402565002        41.8063011169434   -2.83046163538855E-10                254015.5          101320.8984375        288.120391845703       0.100288398563862     -0.0058346241933916                       0 
      -1.73986993496748                     0.6        1.22505402565002        41.8063011169434   -2.85536062190583E-10                254015.5          101320.8984375        288.120391845703       0.100288398563862    -0.00583462423881629                       0 
      -1.73736868434217                     0.6        1.22505402565002        41.8063011169434   -2.88025960842311E-10                254015.5          101320.8984375        288.120391845703       0.100288398563862    -0.00583462428424098                       0 
      -1.73486743371686                     0.6        1.22505402565002        41.8063011169434   -2.90515859494039E-10                254015.5          101320.8984375        288.120391845703       0.100288398563862    -0.00583462432966568                       0 
      -1.73236618309155                     0.6        1.22505402565002        41.8063011169434   -2.93005758145767E-10                254015.5          101320.8984375        288.120391845703       0.100288398563862    -0.00583462437509037                       0 
      -1.72986493246623                     0.6        1.22505402565002        41.8063011169434   -2.95495656797495E-10                254015.5          101320.8984375        288.120391845703       0.100288398563862    -0.00583462442051506                       0 
      -1.72736368184092                     0.6        1.22505402565002        41.8063011169434   -2.97985555449223E-10                254015.5          101320.8984375        288.120391845703       0.100288398563862    -0.00583462446593975                       0 
      -1.72486243121561                     0.6        1.22505402565002        41.8063011169434   -3.00475454100951E-10                254015.5          101320.8984375        288.120391845703       0.100288398563862    -0.00583462451136444                       0 
       -1.7223611805903                     0.6        1.22505402565002        41.8063011169434   -3.02965352752679E-10                254015.5          101320.8984375        288.120391845703       0.100288398563862    -0.00583462455678913                       0 