TITLE = "Visualization of the volumetric solution"
VARIABLES = "x","y","Density","Momentum_x","Momentum_y","Energy","Pressure","Temperature","Mach","C<sub>p</sub>","Roe_Dissipation"
ZONE NODES= 1294, ELEMENTS= 2458, DATAPACKING=POINT, ZONETYPE=FEQUADRILATERAL
0.000000e+00	1.501471e-03	1.222530e+00	6.060032e+01	-2.457001e-01	2.540780e+05	1.010304e+05	2.878876e+02	1.457333e-01	-2.457848e-01	0.000000e+00	
1.593660e-03	1.906215e-03	1.222165e+00	6.055940e+01	8.093074e-01	2.539649e+05	1.009857e+05	2.878462e+02	1.457006e-01	-2.830513e-01	0.000000e+00	
2.967304e-03	1.115707e-03	1.221621e+00	6.059846e+01	1.723026e+00	2.538217e+05	1.009270e+05	2.878069e+02	1.459154e-01	-3.320442e-01	0.000000e+00	
0.000000e+00	3.002941e-03	1.222518e+00	6.061536e+01	-2.443305e-01	2.540760e+05	1.010293e+05	2.878873e+02	1.457709e-01	-2.466939e-01	0.000000e+00	
2.856536e-03	2.649630e-03	1.221684e+00	6.060585e+01	1.641241e+00	2.538368e+05	1.009330e+05	2.878090e+02	1.459196e-01	-3.270574e-01	0.000000e+00	
1.605617e-03	3.509165e-03	1.222190e+00	6.056712e+01	7.993968e-01	2.539707e+05	1.009879e+05	2.878464e+02	1.457158e-01	-2.812364e-01	0.000000e+00	
4.181116e-03	1.820913e-03	1.221404e+00	6.058371e+01	2.307147e+00	2.537552e+05	1.009002e+05	2.877816e+02	1.459590e-01	-3.544012e-01	0.000000e+00	
0.000000e+00	4.504412e-03	1.222510e+00	6.061863e+01	-2.393867e-01	2.540743e+05	1.010286e+05	2.878870e+02	1.457798e-01	-2.473134e-01	0.000000e+00	
4.105300e-03	3.361449e-03	1.221469e+00	6.058024e+01	2.275042e+00	2.537696e+05	1.009061e+05	2.877831e+02	1.459396e-01	-3.494937e-01	0.000000e+00	
2.822900e-03	4.197749e-03	1.221677e+00	6.060464e+01	1.626161e+00	2.538360e+05	1.009327e+05	2.878100e+02	1.459164e-01	-3.272862e-01	0.000000e+00	
1.592685e-03	5.067396e-03	1.222186e+00	6.056891e+01	7.926281e-01	2.539702e+05	1.009876e+05	2.878466e+02	1.457203e-01	-2.814508e-01	0.000000e+00	
5.398695e-03	2.561298e-03	1.221239e+00	6.058312e+01	2.749119e+00	2.537052e+05	1.008797e+05	2.877623e+02	1.460266e-01	-3.714557e-01	0.000000e+00	
5.386332e-03	1.179361e-03	1.221180e+00	6.058035e+01	2.757137e+00	2.536934e+05	1.008751e+05	2.877626e+02	1.460277e-01	-3.753613e-01	0.000000e+00	
0.000000e+00	6.005882e-03	1.222514e+00	6.061705e+01	-2.436515e-01	2.540750e+05	1.010289e+05	2.878869e+02	1.457755e-01	-2.470603e-01	0.000000e+00	
5.405242e-03	4.086295e-03	1.221208e+00	6.059402e+01	2.754305e+00	2.536995e+05	1.008772e+05	2.877622e+02	1.460571e-01	-3.735534e-01	0.000000e+00	
4.080869e-03	4.898828e-03	1.221458e+00	6.058224e+01	2.271819e+00	2.537679e+05	1.009054e+05	2.877836e+02	1.459453e-01	-3.500807e-01	0.000000e+00	
2.803746e-03	5.740016e-03	1.221691e+00	6.060362e+01	1.612644e+00	2.538394e+05	1.009341e+05	2.878105e+02	1.459112e-01	-3.261339e-01	0.000000e+00	
1.578167e-03	6.596870e-03	1.222191e+00	6.056693e+01	7.828216e-01	2.539712e+05	1.009881e+05	2.878469e+02	1.457147e-01	-2.810664e-01	0.000000e+00	
6.791423e-03	1.443614e-03	1.221075e+00	6.057358e+01	3.074329e+00	2.536604e+05	1.008616e+05	2.877491e+02	1.460641e-01	-3.865547e-01	0.000000e+00	
6.763357e-03	3.300513e-03	1.221059e+00	6.058266e+01	3.080390e+00	2.536570e+05	1.008601e+05	2.877484e+02	1.460888e-01	-3.878585e-01	0.000000e+00	
0.000000e+00	7.507353e-03	1.222512e+00	6.061442e+01	-2.460065e-01	2.540744e+05	1.010287e+05	2.878870e+02	1.457695e-01	-2.472098e-01	0.000000e+00	
5.388284e-03	5.602550e-03	1.221211e+00	6.059250e+01	2.748424e+00	2.537004e+05	1.008776e+05	2.877626e+02	1.460523e-01	-3.732151e-01	0.000000e+00	
6.743764e-03	4.793716e-03	1.221084e+00	6.058663e+01	3.074839e+00	2.536624e+05	1.008622e+05	2.877486e+02	1.460947e-01	-3.860957e-01	0.000000e+00	
4.063878e-03	6.427379e-03	1.221468e+00	6.058141e+01	2.264093e+00	2.537702e+05	1.009063e+05	2.877839e+02	1.459413e-01	-3.493125e-01	0.000000e+00	
2.789365e-03	7.264837e-03	1.221693e+00	6.059986e+01	1.605533e+00	2.538398e+05	1.009343e+05	2.878108e+02	1.459014e-01	-3.259293e-01	0.000000e+00	
1.566586e-03	8.108290e-03	1.222194e+00	6.056451e+01	7.754271e-01	2.539720e+05	1.009885e+05	2.878472e+02	1.457082e-01	-2.807590e-01	0.000000e+00	
8.183319e-03	2.537978e-03	1.220990e+00	6.058223e+01	3.244918e+00	2.536370e+05	1.008519e+05	2.877415e+02	1.461185e-01	-3.946790e-01	0.000000e+00	
8.114645e-03	4.019048e-03	1.220987e+00	6.058462e+01	3.243753e+00	2.536364e+05	1.008516e+05	2.877413e+02	1.461245e-01	-3.949205e-01	0.000000e+00	
8.224260e-03	1.124312e-03	1.220986e+00	6.058325e+01	3.260680e+00	2.536358e+05	1.008514e+05	2.877408e+02	1.461236e-01	-3.951355e-01	0.000000e+00	
0.000000e+00	9.008824e-03	1.222511e+00	6.061262e+01	-2.469587e-01	2.540743e+05	1.010287e+05	2.878870e+02	1.457652e-01	-2.472126e-01	0.000000e+00	
6.726640e-03	6.313085e-03	1.221078e+00	6.058528e+01	3.075106e+00	2.536613e+05	1.008618e+05	2.877488e+02	1.460921e-01	-3.864498e-01	0.000000e+00	
5.374312e-03	7.122872e-03	1.221214e+00	6.059107e+01	2.744236e+00	2.537010e+05	1.008779e+05	2.877628e+02	1.460480e-01	-3.729867e-01	0.000000e+00	
8.087147e-03	5.520810e-03	1.220989e+00	6.058873e+01	3.244912e+00	2.536370e+05	1.008518e+05	2.877412e+02	1.461343e-01	-3.947896e-01	0.000000e+00	
4.052324e-03	7.942604e-03	1.221468e+00	6.057809e+01	2.260047e+00	2.537701e+05	1.009063e+05	2.877841e+02	1.459329e-01	-3.492647e-01	0.000000e+00	
2.779726e-03	8.768800e-03	1.221698e+00	6.059647e+01	1.599894e+00	2.538409e+05	1.009348e+05	2.878111e+02	1.458923e-01	-3.255241e-01	0.000000e+00	
1.558240e-03	9.602798e-03	1.222194e+00	6.056161e+01	7.713318e-01	2.539721e+05	1.009886e+05	2.878474e+02	1.457010e-01	-2.806814e-01	0.000000e+00	
9.478549e-03	1.779655e-03	1.220981e+00	6.058083e+01	3.279703e+00	2.536340e+05	1.008507e+05	2.877400e+02	1.461210e-01	-3.957008e-01	0.000000e+00	
9.472420e-03	3.241797e-03	1.220978e+00	6.058115e+01	3.278843e+00	2.536335e+05	1.008505e+05	2.877400e+02	1.461220e-01	-3.958851e-01	0.000000e+00	
9.439759e-03	4.740847e-03	1.220978e+00	6.058251e+01	3.279378e+00	2.536334e+05	1.008504e+05	2.877399e+02	1.461254e-01	-3.959330e-01	0.000000e+00	
0.000000e+00	1.051029e-02	1.222511e+00	6.060941e+01	-2.472776e-01	2.540741e+05	1.010287e+05	2.878871e+02	1.457575e-01	-2.472226e-01	0.000000e+00	
6.714409e-03	7.830852e-03	1.221082e+00	6.058267e+01	3.072729e+00	2.536621e+05	1.008621e+05	2.877490e+02	1.460850e-01	-3.861356e-01	0.000000e+00	
8.069638e-03	7.040853e-03	1.220991e+00	6.058747e+01	3.244907e+00	2.536374e+05	1.008520e+05	2.877413e+02	1.461310e-01	-3.946402e-01	0.000000e+00	
5.365895e-03	8.629747e-03	1.221215e+00	6.058729e+01	2.741928e+00	2.537012e+05	1.008781e+05	2.877630e+02	1.460385e-01	-3.728571e-01	0.000000e+00	
9.415672e-03	6.260710e-03	1.220978e+00	6.058404e+01	3.281822e+00	2.536334e+05	1.008504e+05	2.877398e+02	1.461294e-01	-3.959557e-01	0.000000e+00	
4.046920e-03	9.434109e-03	1.221469e+00	6.057509e+01	2.257784e+00	2.537703e+05	1.009065e+05	2.877842e+02	1.459254e-01	-3.491531e-01	0.000000e+00	
1.076627e-02	1.045537e-03	1.221003e+00	6.057936e+01	3.197108e+00	2.536418e+05	1.008539e+05	2.877440e+02	1.461032e-01	-3.930019e-01	0.000000e+00	
2.775277e-03	1.024550e-02	1.221699e+00	6.059295e+01	1.598320e+00	2.538411e+05	1.009350e+05	2.878113e+02	1.458835e-01	-3.253763e-01	0.000000e+00	
1.552584e-03	1.107536e-02	1.222195e+00	6.055941e+01	7.701405e-01	2.539724e+05	1.009887e+05	2.878476e+02	1.456955e-01	-2.805388e-01	0.000000e+00	
1.079971e-02	2.491274e-03	1.221016e+00	6.058271e+01	3.193473e+00	2.536441e+05	1.008548e+05	2.877436e+02	1.461094e-01	-3.922617e-01	0.000000e+00	
1.077403e-02	3.971043e-03	1.221012e+00	6.058336e+01	3.196647e+00	2.536433e+05	1.008545e+05	2.877434e+02	1.461119e-01	-3.925464e-01	0.000000e+00	
1.074566e-02	5.488710e-03	1.221014e+00	6.058476e+01	3.198529e+00	2.536437e+05	1.008546e+05	2.877433e+02	1.461152e-01	-3.924439e-01	0.000000e+00	
0.000000e+00	1.201176e-02	1.222513e+00	6.060556e+01	-2.495568e-01	2.540746e+05	1.010289e+05	2.878874e+02	1.457480e-01	-2.469842e-01	0.000000e+00	
8.057115e-03	8.555467e-03	1.220990e+00	6.058504e+01	3.244745e+00	2.536373e+05	1.008519e+05	2.877414e+02	1.461252e-01	-3.946486e-01	0.000000e+00	
6.707125e-03	9.331567e-03	1.221081e+00	6.057960e+01	3.071825e+00	2.536619e+05	1.008621e+05	2.877491e+02	1.460776e-01	-3.861554e-01	0.000000e+00	
9.398024e-03	7.784760e-03	1.220978e+00	6.058295e+01	3.283349e+00	2.536334e+05	1.008504e+05	2.877398e+02	1.461270e-01	-3.959477e-01	0.000000e+00	
5.364219e-03	1.011105e-02	1.221215e+00	6.058474e+01	2.741061e+00	2.537011e+05	1.008781e+05	2.877631e+02	1.460323e-01	-3.728329e-01	0.000000e+00	
1.072344e-02	7.019270e-03	1.221012e+00	6.058462e+01	3.202515e+00	2.536431e+05	1.008543e+05	2.877432e+02	1.461158e-01	-3.926518e-01	0.000000e+00	
4.049796e-03	1.089275e-02	1.221467e+00	6.057319e+01	2.259166e+00	2.537698e+05	1.009063e+05	2.877843e+02	1.459212e-01	-3.492800e-01	0.000000e+00	
1.213140e-02	1.742315e-03	1.221099e+00	6.057851e+01	3.014226e+00	2.536678e+05	1.008646e+05	2.877519e+02	1.460652e-01	-3.841190e-01	0.000000e+00	
2.778204e-03	1.168444e-02	1.221698e+00	6.059143e+01	1.599749e+00	2.538410e+05	1.009349e+05	2.878113e+02	1.458800e-01	-3.254019e-01	0.000000e+00	
1.549501e-03	1.251287e-02	1.222185e+00	6.056301e+01	7.678347e-01	2.539704e+05	1.009879e+05	2.878477e+02	1.457053e-01	-2.812578e-01	0.000000e+00	
1.209110e-02	3.216604e-03	1.221106e+00	6.058331e+01	3.020453e+00	2.536687e+05	1.008648e+05	2.877511e+02	1.460769e-01	-3.838851e-01	0.000000e+00	
1.205869e-02	4.727962e-03	1.221095e+00	6.058216e+01	3.027339e+00	2.536663e+05	1.008639e+05	2.877508e+02	1.460763e-01	-3.846874e-01	0.000000e+00	
1.203366e-02	6.259474e-03	1.221098e+00	6.058254e+01	3.030564e+00	2.536667e+05	1.008640e+05	2.877507e+02	1.460773e-01	-3.845578e-01	0.000000e+00	
0.000000e+00	1.351324e-02	1.222534e+00	6.061294e+01	-2.667200e-01	2.540801e+05	1.010310e+05	2.878883e+02	1.457632e-01	-2.452872e-01	0.000000e+00	
8.047852e-03	1.005130e-02	1.220991e+00	6.058279e+01	3.244025e+00	2.536374e+05	1.008520e+05	2.877415e+02	1.461196e-01	-3.945742e-01	0.000000e+00	
9.383441e-03	9.295837e-03	1.220978e+00	6.058071e+01	3.284127e+00	2.536332e+05	1.008504e+05	2.877399e+02	1.461218e-01	-3.959767e-01	0.000000e+00	
6.705142e-03	1.080775e-02	1.221080e+00	6.057865e+01	3.071062e+00	2.536617e+05	1.008621e+05	2.877492e+02	1.460753e-01	-3.861888e-01	0.000000e+00	
1.070482e-02	8.542636e-03	1.221012e+00	6.058346e+01	3.205094e+00	2.536431e+05	1.008544e+05	2.877432e+02	1.461133e-01	-3.926302e-01	0.000000e+00	
5.371519e-03	1.156192e-02	1.221216e+00	6.058502e+01	2.742904e+00	2.537012e+05	1.008781e+05	2.877630e+02	1.460331e-01	-3.728070e-01	0.000000e+00	
1.201230e-02	7.791409e-03	1.221094e+00	6.058123e+01	3.035610e+00	2.536658e+05	1.008637e+05	2.877506e+02	1.460753e-01	-3.848502e-01	0.000000e+00	
4.066450e-03	1.231246e-02	1.221459e+00	6.057713e+01	2.264641e+00	2.537682e+05	1.009056e+05	2.877839e+02	1.459321e-01	-3.499007e-01	0.000000e+00	
1.340839e-02	2.510743e-03	1.221202e+00	6.057490e+01	2.752713e+00	2.536982e+05	1.008771e+05	2.877633e+02	1.460113e-01	-3.736516e-01	0.000000e+00	
1.352987e-02	1.060063e-03	1.221233e+00	6.057509e+01	2.706893e+00	2.537060e+05	1.008803e+05	2.877651e+02	1.460027e-01	-3.710220e-01	0.000000e+00	
2.799069e-03	1.306964e-02	1.221705e+00	6.059680e+01	1.614108e+00	2.538421e+05	1.009353e+05	2.878107e+02	1.458932e-01	-3.251134e-01	0.000000e+00	
1.556746e-03	1.388224e-02	1.222181e+00	6.058016e+01	7.860997e-01	2.539697e+05	1.009872e+05	2.878466e+02	1.457478e-01	-2.817984e-01	0.000000e+00	
1.335976e-02	3.992385e-03	1.221221e+00	6.058455e+01	2.764091e+00	2.537014e+05	1.008782e+05	2.877620e+02	1.460339e-01	-3.727681e-01	0.000000e+00	
1.333244e-02	5.510339e-03	1.221210e+00	6.058301e+01	2.774125e+00	2.536989e+05	1.008772e+05	2.877617e+02	1.460326e-01	-3.735650e-01	0.000000e+00	
1.330959e-02	7.042693e-03	1.221211e+00	6.058285e+01	2.779008e+00	2.536989e+05	1.008772e+05	2.877615e+02	1.460327e-01	-3.735817e-01	0.000000e+00	
0.000000e+00	1.501471e-02	1.222518e+00	6.064126e+01	-3.343555e-01	2.540798e+05	1.010303e+05	2.878900e+02	1.458335e-01	-2.458429e-01	0.000000e+00	
9.370048e-03	1.078714e-02	1.220977e+00	6.057981e+01	3.284406e+00	2.536331e+05	1.008503e+05	2.877399e+02	1.461197e-01	-3.959914e-01	0.000000e+00	
8.040996e-03	1.152576e-02	1.220991e+00	6.058328e+01	3.243439e+00	2.536373e+05	1.008520e+05	2.877415e+02	1.461207e-01	-3.945981e-01	0.000000e+00	
1.068724e-02	1.004790e-02	1.221010e+00	6.058193e+01	3.207474e+00	2.536427e+05	1.008542e+05	2.877432e+02	1.461101e-01	-3.927577e-01	0.000000e+00	
6.708182e-03	1.226062e-02	1.221080e+00	6.058135e+01	3.071635e+00	2.536618e+05	1.008621e+05	2.877491e+02	1.460819e-01	-3.862135e-01	0.000000e+00	
1.199195e-02	9.308597e-03	1.221093e+00	6.058014e+01	3.039761e+00	2.536655e+05	1.008636e+05	2.877505e+02	1.460733e-01	-3.849391e-01	0.000000e+00	
5.388471e-03	1.298644e-02	1.221212e+00	6.059028e+01	2.746758e+00	2.537004e+05	1.008777e+05	2.877627e+02	1.460467e-01	-3.731602e-01	0.000000e+00	
1.328733e-02	8.568517e-03	1.221207e+00	6.058125e+01	2.784920e+00	2.536979e+05	1.008768e+05	2.877614e+02	1.460300e-01	-3.738719e-01	0.000000e+00	
4.103744e-03	1.369770e-02	1.221456e+00	6.058481e+01	2.280850e+00	2.537672e+05	1.009050e+05	2.877830e+02	1.459526e-01	-3.503752e-01	0.000000e+00	
1.465728e-02	3.286526e-03	1.221354e+00	6.057360e+01	2.421053e+00	2.537410e+05	1.008946e+05	2.877775e+02	1.459524e-01	-3.590650e-01	0.000000e+00	
1.474109e-02	1.827074e-03	1.221403e+00	6.057020e+01	2.382993e+00	2.537525e+05	1.008993e+05	2.877793e+02	1.459342e-01	-3.551247e-01	0.000000e+00	
2.877390e-03	1.438691e-02	1.221676e+00	6.060473e+01	1.653395e+00	2.538346e+05	1.009321e+05	2.878086e+02	1.459188e-01	-3.277672e-01	0.000000e+00	
1.744312e-03	1.504115e-02	1.222118e+00	6.058814e+01	9.541599e-01	2.539503e+05	1.009792e+05	2.878386e+02	1.457823e-01	-2.884751e-01	0.000000e+00	
1.462632e-02	4.777013e-03	1.221369e+00	6.058046e+01	2.433314e+00	2.537434e+05	1.008954e+05	2.877763e+02	1.459686e-01	-3.583729e-01	0.000000e+00	
1.460176e-02	6.297777e-03	1.221362e+00	6.058133e+01	2.443869e+00	2.537418e+05	1.008947e+05	2.877759e+02	1.459726e-01	-3.589434e-01	0.000000e+00	
1.457748e-02	7.826658e-03	1.221360e+00	6.058048e+01	2.451492e+00	2.537411e+05	1.008945e+05	2.877757e+02	1.459716e-01	-3.591564e-01	0.000000e+00	
1.538662e-03	1.619452e-02	1.222221e+00	6.057140e+01	7.712751e-01	2.539780e+05	1.009907e+05	2.878473e+02	1.457214e-01	-2.788699e-01	0.000000e+00	
1.066942e-02	1.153422e-02	1.221010e+00	6.058225e+01	3.209398e+00	2.536425e+05	1.008541e+05	2.877431e+02	1.461112e-01	-3.928171e-01	0.000000e+00	
9.356669e-03	1.226062e-02	1.220977e+00	6.058163e+01	3.284768e+00	2.536331e+05	1.008503e+05	2.877398e+02	1.461242e-01	-3.960267e-01	0.000000e+00	
8.034534e-03	1.298341e-02	1.220992e+00	6.058698e+01	3.243451e+00	2.536377e+05	1.008521e+05	2.877414e+02	1.461295e-01	-3.945316e-01	0.000000e+00	
1.197136e-02	1.080626e-02	1.221091e+00	6.057952e+01	3.043847e+00	2.536649e+05	1.008634e+05	2.877504e+02	1.460726e-01	-3.851304e-01	0.000000e+00	
6.711211e-03	1.369816e-02	1.221080e+00	6.058714e+01	3.072557e+00	2.536618e+05	1.008619e+05	2.877489e+02	1.460960e-01	-3.863072e-01	0.000000e+00	
1.326483e-02	1.007664e-02	1.221205e+00	6.058051e+01	2.790599e+00	2.536973e+05	1.008766e+05	2.877612e+02	1.460292e-01	-3.740815e-01	0.000000e+00	
5.402072e-03	1.439934e-02	1.221215e+00	6.059701e+01	2.752298e+00	2.537011e+05	1.008778e+05	2.877623e+02	1.460631e-01	-3.730370e-01	0.000000e+00	
1.455315e-02	9.344072e-03	1.221356e+00	6.057925e+01	2.458705e+00	2.537401e+05	1.008941e+05	2.877755e+02	1.459699e-01	-3.594641e-01	0.000000e+00	
4.123338e-03	1.508189e-02	1.221446e+00	6.059319e+01	2.287318e+00	2.537649e+05	1.009039e+05	2.877824e+02	1.459748e-01	-3.512831e-01	0.000000e+00	
1.592224e-02	4.058226e-03	1.221553e+00	6.057301e+01	2.017586e+00	2.537960e+05	1.009170e+05	2.877945e+02	1.458873e-01	-3.403744e-01	0.000000e+00	
1.594854e-02	2.629376e-03	1.221540e+00	6.057622e+01	2.012319e+00	2.537938e+05	1.009161e+05	2.877950e+02	1.458961e-01	-3.411426e-01	0.000000e+00	
1.597084e-02	1.244778e-03	1.221589e+00	6.058575e+01	2.005324e+00	2.538037e+05	1.009199e+05	2.877943e+02	1.459128e-01	-3.379732e-01	0.000000e+00	
2.867734e-03	1.573309e-02	1.221706e+00	6.061132e+01	1.652947e+00	2.538412e+05	1.009346e+05	2.878085e+02	1.459310e-01	-3.256859e-01	0.000000e+00	
0.000000e+00	1.651618e-02	1.222471e+00	6.061729e+01	-2.775382e-01	2.540671e+05	1.010257e+05	2.878880e+02	1.457813e-01	-2.497057e-01	0.000000e+00	
1.589415e-02	5.554688e-03	1.221545e+00	6.057978e+01	2.033229e+00	2.537938e+05	1.009160e+05	2.877934e+02	1.459061e-01	-3.412430e-01	0.000000e+00	
1.586619e-02	7.080910e-03	1.221545e+00	6.058123e+01	2.044254e+00	2.537934e+05	1.009158e+05	2.877929e+02	1.459106e-01	-3.413824e-01	0.000000e+00	
1.583923e-02	8.606398e-03	1.221539e+00	6.058080e+01	2.054486e+00	2.537919e+05	1.009152e+05	2.877926e+02	1.459112e-01	-3.418766e-01	0.000000e+00	
1.512335e-03	1.755977e-02	1.222213e+00	6.055800e+01	7.440525e-01	2.539768e+05	1.009905e+05	2.878486e+02	1.456889e-01	-2.790219e-01	0.000000e+00	
1.195009e-02	1.228744e-02	1.221089e+00	6.058088e+01	3.047877e+00	2.536645e+05	1.008632e+05	2.877502e+02	1.460766e-01	-3.852990e-01	0.000000e+00	
1.065064e-02	1.300631e-02	1.221009e+00	6.058480e+01	3.211774e+00	2.536424e+05	1.008540e+05	2.877429e+02	1.461177e-01	-3.929106e-01	0.000000e+00	
9.341614e-03	1.372198e-02	1.220978e+00	6.058543e+01	3.285843e+00	2.536333e+05	1.008503e+05	2.877397e+02	1.461334e-01	-3.960286e-01	0.000000e+00	
8.024047e-03	1.443120e-02	1.220993e+00	6.059106e+01	3.244020e+00	2.536380e+05	1.008521e+05	2.877413e+02	1.461393e-01	-3.944933e-01	0.000000e+00	
1.324190e-02	1.156654e-02	1.221202e+00	6.058090e+01	2.796303e+00	2.536966e+05	1.008763e+05	2.877610e+02	1.460311e-01	-3.743256e-01	0.000000e+00	
6.703652e-03	1.512912e-02	1.221081e+00	6.059039e+01	3.073502e+00	2.536622e+05	1.008620e+05	2.877488e+02	1.461038e-01	-3.862318e-01	0.000000e+00	
1.452881e-02	1.084314e-02	1.221353e+00	6.057894e+01	2.465964e+00	2.537392e+05	1.008937e+05	2.877753e+02	1.459703e-01	-3.597793e-01	0.000000e+00	
5.389073e-03	1.581012e-02	1.221216e+00	6.059647e+01	2.750869e+00	2.537013e+05	1.008779e+05	2.877624e+02	1.460616e-01	-3.729665e-01	0.000000e+00	
1.581323e-02	1.011570e-02	1.221536e+00	6.058014e+01	2.062991e+00	2.537910e+05	1.009148e+05	2.877924e+02	1.459108e-01	-3.421802e-01	0.000000e+00	
4.082282e-03	1.646307e-02	1.221450e+00	6.058854e+01	2.277003e+00	2.537663e+05	1.009046e+05	2.877832e+02	1.459619e-01	-3.507363e-01	0.000000e+00	
1.721195e-02	3.305979e-03	1.221767e+00	6.057188e+01	1.557015e+00	2.538563e+05	1.009415e+05	2.878141e+02	1.458214e-01	-3.199051e-01	0.000000e+00	
1.718672e-02	4.800381e-03	1.221755e+00	6.057454e+01	1.565585e+00	2.538536e+05	1.009404e+05	2.878135e+02	1.458299e-01	-3.208825e-01	0.000000e+00	
1.718109e-02	1.844481e-03	1.221748e+00	6.058639e+01	1.577077e+00	2.538516e+05	1.009393e+05	2.878123e+02	1.458603e-01	-3.217306e-01	0.000000e+00	
2.770237e-03	1.704385e-02	1.221690e+00	6.060083e+01	1.608140e+00	2.538394e+05	1.009341e+05	2.878110e+02	1.459043e-01	-3.260974e-01	0.000000e+00	
0.000000e+00	1.801765e-02	1.222503e+00	6.061078e+01	-2.661863e-01	2.540728e+05	1.010281e+05	2.878872e+02	1.457619e-01	-2.477043e-01	0.000000e+00	
1.715491e-02	6.326575e-03	1.221751e+00	6.057721e+01	1.579717e+00	2.538524e+05	1.009398e+05	2.878127e+02	1.458378e-01	-3.213366e-01	0.000000e+00	
1.712468e-02	7.860704e-03	1.221748e+00	6.057952e+01	1.592657e+00	2.538512e+05	1.009393e+05	2.878121e+02	1.458448e-01	-3.217721e-01	0.000000e+00	
1.709666e-02	9.382030e-03	1.221742e+00	6.057897e+01	1.604128e+00	2.538497e+05	1.009387e+05	2.878118e+02	1.458450e-01	-3.222668e-01	0.000000e+00	
1.840894e-02	1.087352e-03	1.221940e+00	6.057999e+01	1.092695e+00	2.539087e+05	1.009626e+05	2.878333e+02	1.457909e-01	-3.023090e-01	0.000000e+00	
2.730571e-03	1.842071e-02	1.221713e+00	6.058962e+01	1.576383e+00	2.538447e+05	1.009365e+05	2.878123e+02	1.458722e-01	-3.241215e-01	0.000000e+00	
1.494383e-03	1.899111e-02	1.222206e+00	6.055745e+01	7.362601e-01	2.539755e+05	1.009900e+05	2.878488e+02	1.456881e-01	-2.794472e-01	0.000000e+00	
1.321847e-02	1.304311e-02	1.221200e+00	6.058293e+01	2.802188e+00	2.536960e+05	1.008760e+05	2.877607e+02	1.460370e-01	-3.745683e-01	0.000000e+00	
1.192791e-02	1.375784e-02	1.221088e+00	6.058363e+01	3.052371e+00	2.536641e+05	1.008629e+05	2.877499e+02	1.460840e-01	-3.854742e-01	0.000000e+00	
1.063013e-02	1.446986e-02	1.221009e+00	6.058790e+01	3.214817e+00	2.536423e+05	1.008540e+05	2.877427e+02	1.461256e-01	-3.929748e-01	0.000000e+00	
9.322821e-03	1.517682e-02	1.220978e+00	6.058787e+01	3.287450e+00	2.536334e+05	1.008503e+05	2.877395e+02	1.461394e-01	-3.960188e-01	0.000000e+00	
8.005291e-03	1.587455e-02	1.220995e+00	6.059148e+01	3.244343e+00	2.536384e+05	1.008523e+05	2.877413e+02	1.461401e-01	-3.943688e-01	0.000000e+00	
1.450441e-02	1.232634e-02	1.221350e+00	6.058015e+01	2.473146e+00	2.537384e+05	1.008934e+05	2.877749e+02	1.459744e-01	-3.600801e-01	0.000000e+00	
6.679541e-03	1.655745e-02	1.221084e+00	6.058725e+01	3.070683e+00	2.536628e+05	1.008623e+05	2.877490e+02	1.460956e-01	-3.859882e-01	0.000000e+00	
1.578786e-02	1.160694e-02	1.221531e+00	6.058055e+01	2.071565e+00	2.537899e+05	1.009144e+05	2.877920e+02	1.459131e-01	-3.425779e-01	0.000000e+00	
5.349864e-03	1.721754e-02	1.221222e+00	6.059024e+01	2.740048e+00	2.537029e+05	1.008787e+05	2.877631e+02	1.460445e-01	-3.723434e-01	0.000000e+00	
1.707016e-02	1.088355e-02	1.221738e+00	6.057906e+01	1.613985e+00	2.538486e+05	1.009383e+05	2.878114e+02	1.458464e-01	-3.226459e-01	0.000000e+00	
4.024073e-03	1.784016e-02	1.221475e+00	6.057558e+01	2.249796e+00	2.537719e+05	1.009071e+05	2.877846e+02	1.459250e-01	-3.486169e-01	0.000000e+00	
1.847010e-02	4.034485e-03	1.221975e+00	6.057609e+01	1.060029e+00	2.539169e+05	1.009660e+05	2.878348e+02	1.457756e-01	-2.994859e-01	0.000000e+00	
1.847912e-02	2.547148e-03	1.222015e+00	6.058053e+01	1.051158e+00	2.539251e+05	1.009692e+05	2.878345e+02	1.457813e-01	-2.968324e-01	0.000000e+00	
1.844029e-02	5.562130e-03	1.221987e+00	6.057664e+01	1.065199e+00	2.539190e+05	1.009668e+05	2.878344e+02	1.457759e-01	-2.987985e-01	0.000000e+00	
0.000000e+00	1.951912e-02	1.222504e+00	6.060839e+01	-2.596202e-01	2.540727e+05	1.010281e+05	2.878873e+02	1.457560e-01	-2.476687e-01	0.000000e+00	
1.840879e-02	7.105350e-03	1.221973e+00	6.057845e+01	1.080920e+00	2.539156e+05	1.009654e+05	2.878337e+02	1.457828e-01	-2.999671e-01	0.000000e+00	
1.837936e-02	8.640253e-03	1.221972e+00	6.058007e+01	1.092956e+00	2.539151e+05	1.009652e+05	2.878331e+02	1.457874e-01	-3.001830e-01	0.000000e+00	
1.835190e-02	1.015457e-02	1.221965e+00	6.058005e+01	1.105090e+00	2.539132e+05	1.009644e+05	2.878327e+02	1.457889e-01	-3.008096e-01	0.000000e+00	
1.977224e-02	1.797840e-03	1.222235e+00	6.057142e+01	4.905306e-01	2.539905e+05	1.009958e+05	2.878585e+02	1.457099e-01	-2.746382e-01	0.000000e+00	
2.707983e-03	1.984637e-02	1.221718e+00	6.058789e+01	1.563150e+00	2.538460e+05	1.009371e+05	2.878128e+02	1.458665e-01	-3.236481e-01	0.000000e+00	
3.986968e-03	1.924626e-02	1.221476e+00	6.057050e+01	2.233526e+00	2.537725e+05	1.009075e+05	2.877853e+02	1.459110e-01	-3.483368e-01	0.000000e+00	
1.477650e-03	2.045351e-02	1.222210e+00	6.056056e+01	7.285246e-01	2.539767e+05	1.009904e+05	2.878490e+02	1.456949e-01	-2.791265e-01	0.000000e+00	
1.447988e-02	1.379922e-02	1.221347e+00	6.058236e+01	2.480595e+00	2.537376e+05	1.008930e+05	2.877745e+02	1.459808e-01	-3.603932e-01	0.000000e+00	
1.319451e-02	1.451186e-02	1.221198e+00	6.058538e+01	2.808428e+00	2.536954e+05	1.008757e+05	2.877603e+02	1.460439e-01	-3.748046e-01	0.000000e+00	
1.190462e-02	1.522241e-02	1.221086e+00	6.058567e+01	3.057380e+00	2.536637e+05	1.008627e+05	2.877496e+02	1.460897e-01	-3.856438e-01	0.000000e+00	
1.060734e-02	1.592925e-02	1.221009e+00	6.058863e+01	3.218235e+00	2.536421e+05	1.008539e+05	2.877425e+02	1.461279e-01	-3.930517e-01	0.000000e+00	
9.299467e-03	1.662906e-02	1.220978e+00	6.058629e+01	3.288919e+00	2.536334e+05	1.008503e+05	2.877396e+02	1.461358e-01	-3.960074e-01	0.000000e+00	
7.978628e-03	1.731685e-02	1.220995e+00	6.058688e+01	3.243235e+00	2.536384e+05	1.008524e+05	2.877415e+02	1.461288e-01	-3.942977e-01	0.000000e+00	
1.576277e-02	1.308484e-02	1.221528e+00	6.058233e+01	2.079944e+00	2.537890e+05	1.009140e+05	2.877916e+02	1.459185e-01	-3.429160e-01	0.000000e+00	
6.645574e-03	1.798628e-02	1.221085e+00	6.058016e+01	3.065321e+00	2.536631e+05	1.008626e+05	2.877495e+02	1.460776e-01	-3.857690e-01	0.000000e+00	
1.704449e-02	1.236821e-02	1.221734e+00	6.057999e+01	1.623718e+00	2.538474e+05	1.009377e+05	2.878110e+02	1.458499e-01	-3.230782e-01	0.000000e+00	
5.308157e-03	1.863027e-02	1.221222e+00	6.058277e+01	2.728375e+00	2.537030e+05	1.008789e+05	2.877638e+02	1.460251e-01	-3.721734e-01	0.000000e+00	
1.832569e-02	1.164832e-02	1.221961e+00	6.058076e+01	1.115494e+00	2.539121e+05	1.009640e+05	2.878323e+02	1.457916e-01	-3.012010e-01	0.000000e+00	
1.971851e-02	4.797622e-03	1.222224e+00	6.057560e+01	5.177762e-01	2.539875e+05	1.009945e+05	2.878572e+02	1.457220e-01	-2.757238e-01	0.000000e+00	
1.974704e-02	3.274718e-03	1.222239e+00	6.058291e+01	5.052650e-01	2.539910e+05	1.009958e+05	2.878573e+02	1.457376e-01	-2.746705e-01	0.000000e+00	
1.968912e-02	6.344301e-03	1.222224e+00	6.057765e+01	5.275880e-01	2.539871e+05	1.009943e+05	2.878567e+02	1.457273e-01	-2.758972e-01	0.000000e+00	
0.000000e+00	2.102059e-02	1.222505e+00	6.060884e+01	-2.583309e-01	2.540730e+05	1.010282e+05	2.878874e+02	1.457570e-01	-2.475813e-01	0.000000e+00	
1.966041e-02	7.890787e-03	1.222216e+00	6.057749e+01	5.411525e-01	2.539849e+05	1.009934e+05	2.878562e+02	1.457284e-01	-2.766352e-01	0.000000e+00	
1.963292e-02	9.419027e-03	1.222212e+00	6.057902e+01	5.535264e-01	2.539838e+05	1.009930e+05	2.878556e+02	1.457329e-01	-2.770119e-01	0.000000e+00	
1.960650e-02	1.092412e-02	1.222206e+00	6.057931e+01	5.657260e-01	2.539822e+05	1.009923e+05	2.878552e+02	1.457347e-01	-2.775572e-01	0.000000e+00	
2.103765e-02	2.567139e-03	1.222460e+00	6.056780e+01	-1.147891e-01	2.540587e+05	1.010233e+05	2.878839e+02	1.456634e-01	-2.516902e-01	0.000000e+00	
2.115052e-02	1.104294e-03	1.222545e+00	6.056342e+01	-2.017755e-01	2.540789e+05	1.010315e+05	2.878873e+02	1.456425e-01	-2.448437e-01	0.000000e+00	
3.963372e-03	2.068259e-02	1.221482e+00	6.057074e+01	2.222509e+00	2.537739e+05	1.009080e+05	2.877857e+02	1.459099e-01	-3.478491e-01	0.000000e+00	
2.691427e-03	2.130173e-02	1.221724e+00	6.058959e+01	1.554775e+00	2.538476e+05	1.009377e+05	2.878131e+02	1.458692e-01	-3.231203e-01	0.000000e+00	
5.276828e-03	2.006047e-02	1.221228e+00	6.057960e+01	2.717604e+00	2.537045e+05	1.008796e+05	2.877642e+02	1.460155e-01	-3.716015e-01	0.000000e+00	
1.461939e-03	2.193160e-02	1.222212e+00	6.056272e+01	7.218835e-01	2.539774e+05	1.009907e+05	2.878492e+02	1.456996e-01	-2.788999e-01	0.000000e+00	
1.445514e-02	1.526656e-02	1.221344e+00	6.058416e+01	2.488198e+00	2.537368e+05	1.008927e+05	2.877741e+02	1.459863e-01	-3.606888e-01	0.000000e+00	
1.573777e-02	1.455494e-02	1.221525e+00	6.058442e+01	2.088560e+00	2.537880e+05	1.009135e+05	2.877911e+02	1.459248e-01	-3.432758e-01	0.000000e+00	
1.317003e-02	1.597675e-02	1.221196e+00	6.058632e+01	2.814880e+00	2.536948e+05	1.008754e+05	2.877600e+02	1.460473e-01	-3.750411e-01	0.000000e+00	
1.188024e-02	1.668444e-02	1.221085e+00	6.058506e+01	3.062368e+00	2.536632e+05	1.008625e+05	2.877494e+02	1.460891e-01	-3.858151e-01	0.000000e+00	
1.058252e-02	1.738730e-02	1.221008e+00	6.058598e+01	3.221212e+00	2.536418e+05	1.008538e+05	2.877425e+02	1.461221e-01	-3.931323e-01	0.000000e+00	
9.272987e-03	1.808136e-02	1.220978e+00	6.058159e+01	3.289228e+00	2.536332e+05	1.008503e+05	2.877397e+02	1.461246e-01	-3.960005e-01	0.000000e+00	
7.948925e-03	1.876135e-02	1.220995e+00	6.058114e+01	3.240315e+00	2.536384e+05	1.008525e+05	2.877418e+02	1.461145e-01	-3.941875e-01	0.000000e+00	
1.701921e-02	1.384203e-02	1.221730e+00	6.058195e+01	1.633282e+00	2.538463e+05	1.009373e+05	2.878105e+02	1.458558e-01	-3.234602e-01	0.000000e+00	
6.612712e-03	1.942184e-02	1.221088e+00	6.057476e+01	3.058304e+00	2.536638e+05	1.008630e+05	2.877499e+02	1.460633e-01	-3.854413e-01	0.000000e+00	
1.830013e-02	1.312744e-02	1.221956e+00	6.058219e+01	1.125943e+00	2.539107e+05	1.009634e+05	2.878318e+02	1.457962e-01	-3.016850e-01	0.000000e+00	
1.958077e-02	1.241048e-02	1.222202e+00	6.058059e+01	5.769930e-01	2.539810e+05	1.009918e+05	2.878547e+02	1.457386e-01	-2.779914e-01	0.000000e+00	
2.099268e-02	4.056808e-03	1.222503e+00	6.058160e+01	-9.749351e-02	2.540667e+05	1.010262e+05	2.878820e+02	1.456918e-01	-2.492369e-01	0.000000e+00	
2.096468e-02	5.589271e-03	1.222474e+00	6.057772e+01	-7.674855e-02	2.540602e+05	1.010237e+05	2.878816e+02	1.456860e-01	-2.513633e-01	0.000000e+00	
2.093864e-02	7.138026e-03	1.222480e+00	6.057897e+01	-6.727713e-02	2.540609e+05	1.010240e+05	2.878811e+02	1.456884e-01	-2.511300e-01	0.000000e+00	
0.000000e+00	2.252206e-02	1.222504e+00	6.060873e+01	-2.592194e-01	2.540730e+05	1.010282e+05	2.878874e+02	1.457567e-01	-2.475787e-01	0.000000e+00	
2.091256e-02	8.677559e-03	1.222469e+00	6.057867e+01	-5.328806e-02	2.540583e+05	1.010229e+05	2.878806e+02	1.456891e-01	-2.520023e-01	0.000000e+00	
2.088668e-02	1.019496e-02	1.222466e+00	6.057977e+01	-4.081776e-02	2.540573e+05	1.010225e+05	2.878801e+02	1.456922e-01	-2.523606e-01	0.000000e+00	
2.086113e-02	1.169042e-02	1.222460e+00	6.058052e+01	-2.779134e-02	2.540555e+05	1.010218e+05	2.878796e+02	1.456949e-01	-2.529590e-01	0.000000e+00	
2.226877e-02	3.349975e-03	1.222750e+00	6.056721e+01	-7.558381e-01	2.541413e+05	1.010564e+05	2.879099e+02	1.456319e-01	-2.240673e-01	0.000000e+00	
2.235129e-02	1.889431e-03	1.222822e+00	6.057128e+01	-8.097236e-01	2.541584e+05	1.010632e+05	2.879122e+02	1.456342e-01	-2.184286e-01	0.000000e+00	
3.946849e-03	2.214046e-02	1.221484e+00	6.057282e+01	2.216061e+00	2.537746e+05	1.009083e+05	2.877859e+02	1.459140e-01	-3.476431e-01	0.000000e+00	
5.254545e-03	2.150909e-02	1.221231e+00	6.058052e+01	2.711305e+00	2.537052e+05	1.008798e+05	2.877644e+02	1.460167e-01	-3.713845e-01	0.000000e+00	
2.677846e-03	2.277377e-02	1.221729e+00	6.059041e+01	1.548468e+00	2.538488e+05	1.009382e+05	2.878134e+02	1.458702e-01	-3.227275e-01	0.000000e+00	