TITLE = "SU2 Simulation"
VARIABLES = "Iteration","CL","CD","CSF","CMx","CMy","CMz","CFx","CFy","CFz","CL/CD","AoA","Custom_ObjFunc","Res_Flow[0]","Res_Flow[1]","Res_Flow[2]","Res_Flow[3]","Res_Flow[4]","Linear_Solver_Iterations","CFL_Number","Time(min)"
ZONE T= "Convergence history"
           0, 0.00000000e+00, 0.00000000e+00, 0.00000000e+00, 0.00000000e+00, 0.00000000e+00, 0.00000000e+00, 0.00000000e+00, 0.00000000e+00, 0.00000000e+00, 0.00000000e+00, 0.00000000e+00, 0.00000000e+00, -1.71576924e+01, -1.38546603e+01, -1.39093197e+01, -1.17364656e+01, 0.00000000e+00, 5.0000000000, 6.0000000000, 0.0019005000
           1, 0.00000000e+00, 0.00000000e+00, 0.00000000e+00, 0.00000000e+00, 0.00000000e+00, 0.00000000e+00, 0.00000000e+00, 0.00000000e+00, 0.00000000e+00, 0.00000000e+00, 0.00000000e+00, 0.00000000e+00, -1.67056650e+01, -1.00919741e+00, -1.05637441e+00, 6.36604095e-01, 0.00000000e+00, 5.0000000000, 6.0000000000, 0.0038134667
           2, 0.00000000e+00, 0.00000000e+00, 0.00000000e+00, 0.00000000e+00, 0.00000000e+00, 0.00000000e+00, 0.00000000e+00, 0.00000000e+00, 0.00000000e+00, 0.00000000e+00, 0.00000000e+00, 0.00000000e+00, -4.43960832e+00, -1.04801993e+00, -1.06833726e+00, 1.02982946e+00, 0.00000000e+00, 5.0000000000, 6.0000000000, 0.0055679833
           3, 0.00000000e+00, 0.00000000e+00, 0.00000000e+00, 0.00000000e+00, 0.00000000e+00, 0.00000000e+00, 0.00000000e+00, 0.00000000e+00, 0.00000000e+00, 0.00000000e+00, 0.00000000e+00, 0.00000000e+00, -4.22337851e+00, -1.09240458e+00, -1.08030592e+00, 1.22990415e+00, 0.00000000e+00, 5.0000000000, 6.0000000000, 0.0073416500
           4, 0.00000000e+00, 0.00000000e+00, 0.00000000e+00, 0.00000000e+00, 0.00000000e+00, 0.00000000e+00, 0.00000000e+00, 0.00000000e+00, 0.00000000e+00, 0.00000000e+00, 0.00000000e+00, 0.00000000e+00, -4.11427465e+00, -1.14122423e+00, -1.09240819e+00, 1.33599528e+00, 0.00000000e+00, 5.0000000000, 6.0000000000, 0.0091812167
           5, 0.00000000e+00, 0.00000000e+00, 0.00000000e+00, 0.00000000e+00, 0.00000000e+00, 0.00000000e+00, 0.00000000e+00, 0.00000000e+00, 0.00000000e+00, 0.00000000e+00, 0.00000000e+00, 0.00000000e+00, -4.04576388e+00, -1.19421998e+00, -1.10465168e+00, 1.40358490e+00, 0.00000000e+00, 5.0000000000, 6.0000000000, 0.0109772167
           6, 0.00000000e+00, 0.00000000e+00, 0.00000000e+00, 0.00000000e+00, 0.00000000e+00, 0.00000000e+00, 0.00000000e+00, 0.00000000e+00, 0.00000000e+00, 0.00000000e+00, 0.00000000e+00, 0.00000000e+00, -4.00022130e+00, -1.25135355e+00, -1.11697508e+00, 1.44878087e+00, 0.00000000e+00, 5.0000000000, 6.0000000000, 0.0127355167
           7, 0.00000000e+00, 0.00000000e+00, 0.00000000e+00, 0.00000000e+00, 0.00000000e+00, 0.00000000e+00, 0.00000000e+00, 0.00000000e+00, 0.00000000e+00, 0.00000000e+00, 0.00000000e+00, 0.00000000e+00, -3.97068607e+00, -1.31222855e+00, -1.12930754e+00, 1.47809842e+00, 0.00000000e+00, 5.0000000000, 6.0000000000, 0.0144704667
           8, 0.00000000e+00, 0.00000000e+00, 0.00000000e+00, 0.00000000e+00, 0.00000000e+00, 0.00000000e+00, 0.00000000e+00, 0.00000000e+00, 0.00000000e+00, 0.00000000e+00, 0.00000000e+00, 0.00000000e+00, -3.95364171e+00, -1.37557083e+00, -1.14159400e+00, 1.49487143e+00, 0.00000000e+00, 5.0000000000, 6.0000000000, 0.0162673333
           9, 0.00000000e+00, 0.00000000e+00, 0.00000000e+00, 0.00000000e+00, 0.00000000e+00, 0.00000000e+00, 0.00000000e+00, 0.00000000e+00, 0.00000000e+00, 0.00000000e+00, 0.00000000e+00, 0.00000000e+00, -3.94703715e+00, -1.43865689e+00, -1.15379632e+00, 1.50106191e+00, 0.00000000e+00, 5.0000000000, 6.0000000000, 0.0180331167
          10, 0.00000000e+00, 0.00000000e+00, 0.00000000e+00, 0.00000000e+00, 0.00000000e+00, 0.00000000e+00, 0.00000000e+00, 0.00000000e+00, 0.00000000e+00, 0.00000000e+00, 0.00000000e+00, 0.00000000e+00, -3.94942866e+00, -1.49707932e+00, -1.16588782e+00, 1.49807065e+00, 0.00000000e+00, 5.0000000000, 6.0000000000, 0.0198852167
          11, 0.00000000e+00, 0.00000000e+00, 0.00000000e+00, 0.00000000e+00, 0.00000000e+00, 0.00000000e+00, 0.00000000e+00, 0.00000000e+00, 0.00000000e+00, 0.00000000e+00, 0.00000000e+00, 0.00000000e+00, -3.95948507e+00, -1.54568544e+00, -1.17784885e+00, 1.48722221e+00, 0.00000000e+00, 5.0000000000, 6.0000000000, 0.0216304500
          12, 0.00000000e+00, 0.00000000e+00, 0.00000000e+00, 0.00000000e+00, 0.00000000e+00, 0.00000000e+00, 0.00000000e+00, 0.00000000e+00, 0.00000000e+00, 0.00000000e+00, 0.00000000e+00, 0.00000000e+00, -3.97573694e+00, -1.58102481e+00, -1.18966478e+00, 1.47001876e+00, 0.00000000e+00, 5.0000000000, 6.0000000000, 0.0233562667
          13, 0.00000000e+00, 0.00000000e+00, 0.00000000e+00, 0.00000000e+00, 0.00000000e+00, 0.00000000e+00, 0.00000000e+00, 0.00000000e+00, 0.00000000e+00, 0.00000000e+00, 0.00000000e+00, 0.00000000e+00, -3.99655365e+00, -1.60356393e+00, -1.20132597e+00, 1.44816584e+00, 0.00000000e+00, 5.0000000000, 6.0000000000, 0.0251935333
          14, 0.00000000e+00, 0.00000000e+00, 0.00000000e+00, 0.00000000e+00, 0.00000000e+00, 0.00000000e+00, 0.00000000e+00, 0.00000000e+00, 0.00000000e+00, 0.00000000e+00, 0.00000000e+00, 0.00000000e+00, -4.02032393e+00, -1.61720514e+00, -1.21282807e+00, 1.42338296e+00, 0.00000000e+00, 5.0000000000, 6.0000000000, 0.0270337333
          15, 0.00000000e+00, 0.00000000e+00, 0.00000000e+00, 0.00000000e+00, 0.00000000e+00, 0.00000000e+00, 0.00000000e+00, 0.00000000e+00, 0.00000000e+00, 0.00000000e+00, 0.00000000e+00, 0.00000000e+00, -4.04575611e+00, -1.62672981e+00, -1.22417225e+00, 1.39707631e+00, 0.00000000e+00, 5.0000000000, 6.0000000000, 0.0288705333
          16, 0.00000000e+00, 0.00000000e+00, 0.00000000e+00, 0.00000000e+00, 0.00000000e+00, 0.00000000e+00, 0.00000000e+00, 0.00000000e+00, 0.00000000e+00, 0.00000000e+00, 0.00000000e+00, 0.00000000e+00, -4.07214462e+00, -1.63582651e+00, -1.23536537e+00, 1.37003527e+00, 0.00000000e+00, 5.0000000000, 6.0000000000, 0.0306505667
          17, 0.00000000e+00, 0.00000000e+00, 0.00000000e+00, 0.00000000e+00, 0.00000000e+00, 0.00000000e+00, 0.00000000e+00, 0.00000000e+00, 0.00000000e+00, 0.00000000e+00, 0.00000000e+00, 0.00000000e+00, -4.09945524e+00, -1.64666866e+00, -1.24642007e+00, 1.34232197e+00, 0.00000000e+00, 5.0000000000, 6.0000000000, 0.0323484167
          18, 0.00000000e+00, 0.00000000e+00, 0.00000000e+00, 0.00000000e+00, 0.00000000e+00, 0.00000000e+00, 0.00000000e+00, 0.00000000e+00, 0.00000000e+00, 0.00000000e+00, 0.00000000e+00, 0.00000000e+00, -4.12819666e+00, -1.66033354e+00, -1.25735447e+00, 1.31340170e+00, 0.00000000e+00, 5.0000000000, 6.0000000000, 0.0340566167
          19, 0.00000000e+00, 0.00000000e+00, 0.00000000e+00, 0.00000000e+00, 0.00000000e+00, 0.00000000e+00, 0.00000000e+00, 0.00000000e+00, 0.00000000e+00, 0.00000000e+00, 0.00000000e+00, 0.00000000e+00, -4.15917682e+00, -1.67731542e+00, -1.26819169e+00, 1.28240982e+00, 0.00000000e+00, 5.0000000000, 6.0000000000, 0.0357541000
          20, 0.00000000e+00, 0.00000000e+00, 0.00000000e+00, 0.00000000e+00, 0.00000000e+00, 0.00000000e+00, 0.00000000e+00, 0.00000000e+00, 0.00000000e+00, 0.00000000e+00, 0.00000000e+00, 0.00000000e+00, -4.19327485e+00, -1.69784782e+00, -1.27895862e+00, 1.24840600e+00, 0.00000000e+00, 5.0000000000, 6.0000000000, 0.0375324167
          21, 0.00000000e+00, 0.00000000e+00, 0.00000000e+00, 0.00000000e+00, 0.00000000e+00, 0.00000000e+00, 0.00000000e+00, 0.00000000e+00, 0.00000000e+00, 0.00000000e+00, 0.00000000e+00, 0.00000000e+00, -4.23129325e+00, -1.72202848e+00, -1.28968422e+00, 1.21053785e+00, 0.00000000e+00, 5.0000000000, 6.0000000000, 0.0392548667
          22, 0.00000000e+00, 0.00000000e+00, 0.00000000e+00, 0.00000000e+00, 0.00000000e+00, 0.00000000e+00, 0.00000000e+00, 0.00000000e+00, 0.00000000e+00, 0.00000000e+00, 0.00000000e+00, 0.00000000e+00, -4.27387606e+00, -1.74982326e+00, -1.30039737e+00, 1.16812696e+00, 0.00000000e+00, 5.0000000000, 6.0000000000, 0.0409812167
          23, 0.00000000e+00, 0.00000000e+00, 0.00000000e+00, 0.00000000e+00, 0.00000000e+00, 0.00000000e+00, 0.00000000e+00, 0.00000000e+00, 0.00000000e+00, 0.00000000e+00, 0.00000000e+00, 0.00000000e+00, -4.32143876e+00, -1.78101707e+00, -1.31112482e+00, 1.12073580e+00, 0.00000000e+00, 5.0000000000, 6.0000000000, 0.0427179167
          24, 0.00000000e+00, 0.00000000e+00, 0.00000000e+00, 0.00000000e+00, 0.00000000e+00, 0.00000000e+00, 0.00000000e+00, 0.00000000e+00, 0.00000000e+00, 0.00000000e+00, 0.00000000e+00, 0.00000000e+00, -4.37404910e+00, -1.81515120e+00, -1.32188944e+00, 1.06828078e+00, 0.00000000e+00, 5.0000000000, 6.0000000000, 0.0444071500
          25, 0.00000000e+00, 0.00000000e+00, 0.00000000e+00, 0.00000000e+00, 0.00000000e+00, 0.00000000e+00, 0.00000000e+00, 0.00000000e+00, 0.00000000e+00, 0.00000000e+00, 0.00000000e+00, 0.00000000e+00, -4.43119907e+00, -1.85146772e+00, -1.33270914e+00, 1.01125288e+00, 0.00000000e+00, 5.0000000000, 6.0000000000, 0.0462055667
          26, 0.00000000e+00, 0.00000000e+00, 0.00000000e+00, 0.00000000e+00, 0.00000000e+00, 0.00000000e+00, 0.00000000e+00, 0.00000000e+00, 0.00000000e+00, 0.00000000e+00, 0.00000000e+00, 0.00000000e+00, -4.49142025e+00, -1.88888339e+00, -1.34359644e+00, 9.51095385e-01, 0.00000000e+00, 5.0000000000, 6.0000000000, 0.0479216333
          27, 0.00000000e+00, 0.00000000e+00, 0.00000000e+00, 0.00000000e+00, 0.00000000e+00, 0.00000000e+00, 0.00000000e+00, 0.00000000e+00, 0.00000000e+00, 0.00000000e+00, 0.00000000e+00, 0.00000000e+00, -4.55177157e+00, -1.92602937e+00, -1.35455860e+00, 8.90712698e-01, 0.00000000e+00, 5.0000000000, 6.0000000000, 0.0496028000
          28, 0.00000000e+00, 0.00000000e+00, 0.00000000e+00, 0.00000000e+00, 0.00000000e+00, 0.00000000e+00, 0.00000000e+00, 0.00000000e+00, 0.00000000e+00, 0.00000000e+00, 0.00000000e+00, 0.00000000e+00, -4.60750754e+00, -1.96140134e+00, -1.36559836e+00, 8.34813196e-01, 0.00000000e+00, 5.0000000000, 6.0000000000, 0.0513230167
          29, 0.00000000e+00, 0.00000000e+00, 0.00000000e+00, 0.00000000e+00, 0.00000000e+00, 0.00000000e+00, 0.00000000e+00, 0.00000000e+00, 0.00000000e+00, 0.00000000e+00, 0.00000000e+00, 0.00000000e+00, -4.65273145e+00, -1.99363495e+00, -1.37671482e+00, 7.89293267e-01, 0.00000000e+00, 5.0000000000, 6.0000000000, 0.0530105167
          30, 0.00000000e+00, 0.00000000e+00, 0.00000000e+00, 0.00000000e+00, 0.00000000e+00, 0.00000000e+00, 0.00000000e+00, 0.00000000e+00, 0.00000000e+00, 0.00000000e+00, 0.00000000e+00, 0.00000000e+00, -4.68276399e+00, -2.02184040e+00, -1.38790436e+00, 7.58910197e-01, 0.00000000e+00, 5.0000000000, 6.0000000000, 0.0547223667
          31, 0.00000000e+00, 0.00000000e+00, 0.00000000e+00, 0.00000000e+00, 0.00000000e+00, 0.00000000e+00, 0.00000000e+00, 0.00000000e+00, 0.00000000e+00, 0.00000000e+00, 0.00000000e+00, 0.00000000e+00, -4.69700124e+00, -2.04584467e+00, -1.39916152e+00, 7.44400113e-01, 0.00000000e+00, 5.0000000000, 6.0000000000, 0.0564094167
          32, 0.00000000e+00, 0.00000000e+00, 0.00000000e+00, 0.00000000e+00, 0.00000000e+00, 0.00000000e+00, 0.00000000e+00, 0.00000000e+00, 0.00000000e+00, 0.00000000e+00, 0.00000000e+00, 0.00000000e+00, -4.69924289e+00, -2.06619996e+00, -1.41047997e+00, 7.42059172e-01, 0.00000000e+00, 5.0000000000, 6.0000000000, 0.0581681500
          33, 0.00000000e+00, 0.00000000e+00, 0.00000000e+00, 0.00000000e+00, 0.00000000e+00, 0.00000000e+00, 0.00000000e+00, 0.00000000e+00, 0.00000000e+00, 0.00000000e+00, 0.00000000e+00, 0.00000000e+00, -4.69508229e+00, -2.08395111e+00, -1.42185377e+00, 7.46307478e-01, 0.00000000e+00, 5.0000000000, 6.0000000000, 0.0599170500
          34, 0.00000000e+00, 0.00000000e+00, 0.00000000e+00, 0.00000000e+00, 0.00000000e+00, 0.00000000e+00, 0.00000000e+00, 0.00000000e+00, 0.00000000e+00, 0.00000000e+00, 0.00000000e+00, 0.00000000e+00, -4.68926527e+00, -2.10029760e+00, -1.43327825e+00, 7.52361906e-01, 0.00000000e+00, 5.0000000000, 6.0000000000, 0.0615848333
          35, 0.00000000e+00, 0.00000000e+00, 0.00000000e+00, 0.00000000e+00, 0.00000000e+00, 0.00000000e+00, 0.00000000e+00, 0.00000000e+00, 0.00000000e+00, 0.00000000e+00, 0.00000000e+00, 0.00000000e+00, -4.68475128e+00, -2.11630836e+00, -1.44475037e+00, 7.57217260e-01, 0.00000000e+00, 5.0000000000, 6.0000000000, 0.0633381000
          36, 0.00000000e+00, 0.00000000e+00, 0.00000000e+00, 0.00000000e+00, 0.00000000e+00, 0.00000000e+00, 0.00000000e+00, 0.00000000e+00, 0.00000000e+00, 0.00000000e+00, 0.00000000e+00, 0.00000000e+00, -4.68295355e+00, -2.13276627e+00, -1.45626866e+00, 7.59423643e-01, 0.00000000e+00, 5.0000000000, 6.0000000000, 0.0650827667
          37, 0.00000000e+00, 0.00000000e+00, 0.00000000e+00, 0.00000000e+00, 0.00000000e+00, 0.00000000e+00, 0.00000000e+00, 0.00000000e+00, 0.00000000e+00, 0.00000000e+00, 0.00000000e+00, 0.00000000e+00, -4.68427799e+00, -2.15013275e+00, -1.46783289e+00, 7.58548530e-01, 0.00000000e+00, 5.0000000000, 6.0000000000, 0.0667513000
          38, 0.00000000e+00, 0.00000000e+00, 0.00000000e+00, 0.00000000e+00, 0.00000000e+00, 0.00000000e+00, 0.00000000e+00, 0.00000000e+00, 0.00000000e+00, 0.00000000e+00, 0.00000000e+00, 0.00000000e+00, -4.68857068e+00, -2.16858618e+00, -1.47944374e+00, 7.54725975e-01, 0.00000000e+00, 5.0000000000, 6.0000000000, 0.0684051167
          39, 0.00000000e+00, 0.00000000e+00, 0.00000000e+00, 0.00000000e+00, 0.00000000e+00, 0.00000000e+00, 0.00000000e+00, 0.00000000e+00, 0.00000000e+00, 0.00000000e+00, 0.00000000e+00, 0.00000000e+00, -4.69541206e+00, -2.18809120e+00, -1.49110243e+00, 7.48359833e-01, 0.00000000e+00, 5.0000000000, 6.0000000000, 0.0702123833
          40, 0.00000000e+00, 0.00000000e+00, 0.00000000e+00, 0.00000000e+00, 0.00000000e+00, 0.00000000e+00, 0.00000000e+00, 0.00000000e+00, 0.00000000e+00, 0.00000000e+00, 0.00000000e+00, 0.00000000e+00, -4.70429384e+00, -2.20847193e+00, -1.50281044e+00, 7.39945687e-01, 0.00000000e+00, 5.0000000000, 6.0000000000, 0.0719441833
          41, 0.00000000e+00, 0.00000000e+00, 0.00000000e+00, 0.00000000e+00, 0.00000000e+00, 0.00000000e+00, 0.00000000e+00, 0.00000000e+00, 0.00000000e+00, 0.00000000e+00, 0.00000000e+00, 0.00000000e+00, -4.71471995e+00, -2.22947627e+00, -1.51456927e+00, 7.29969674e-01, 0.00000000e+00, 5.0000000000, 6.0000000000, 0.0736273833
          42, 0.00000000e+00, 0.00000000e+00, 0.00000000e+00, 0.00000000e+00, 0.00000000e+00, 0.00000000e+00, 0.00000000e+00, 0.00000000e+00, 0.00000000e+00, 0.00000000e+00, 0.00000000e+00, 0.00000000e+00, -4.72625944e+00, -2.25082654e+00, -1.52638033e+00, 7.18855723e-01, 0.00000000e+00, 5.0000000000, 6.0000000000, 0.0753776500
          43, 0.00000000e+00, 0.00000000e+00, 0.00000000e+00, 0.00000000e+00, 0.00000000e+00, 0.00000000e+00, 0.00000000e+00, 0.00000000e+00, 0.00000000e+00, 0.00000000e+00, 0.00000000e+00, 0.00000000e+00, -4.73856817e+00, -2.27225577e+00, -1.53824491e+00, 7.06943672e-01, 0.00000000e+00, 5.0000000000, 6.0000000000, 0.0771074667
          44, 0.00000000e+00, 0.00000000e+00, 0.00000000e+00, 0.00000000e+00, 0.00000000e+00, 0.00000000e+00, 0.00000000e+00, 0.00000000e+00, 0.00000000e+00, 0.00000000e+00, 0.00000000e+00, 0.00000000e+00, -4.75139074e+00, -2.29353088e+00, -1.55016414e+00, 6.94486945e-01, 0.00000000e+00, 5.0000000000, 6.0000000000, 0.0788673167
          45, 0.00000000e+00, 0.00000000e+00, 0.00000000e+00, 0.00000000e+00, 0.00000000e+00, 0.00000000e+00, 0.00000000e+00, 0.00000000e+00, 0.00000000e+00, 0.00000000e+00, 0.00000000e+00, 0.00000000e+00, -4.76455065e+00, -2.31446468e+00, -1.56213901e+00, 6.81661710e-01, 0.00000000e+00, 5.0000000000, 6.0000000000, 0.0806326333
          46, 0.00000000e+00, 0.00000000e+00, 0.00000000e+00, 0.00000000e+00, 0.00000000e+00, 0.00000000e+00, 0.00000000e+00, 0.00000000e+00, 0.00000000e+00, 0.00000000e+00, 0.00000000e+00, 0.00000000e+00, -4.77793492e+00, -2.33491936e+00, -1.57417044e+00, 6.68581506e-01, 0.00000000e+00, 5.0000000000, 6.0000000000, 0.0823670833
          47, 0.00000000e+00, 0.00000000e+00, 0.00000000e+00, 0.00000000e+00, 0.00000000e+00, 0.00000000e+00, 0.00000000e+00, 0.00000000e+00, 0.00000000e+00, 0.00000000e+00, 0.00000000e+00, 0.00000000e+00, -4.79147775e+00, -2.35480388e+00, -1.58625926e+00, 6.55313005e-01, 0.00000000e+00, 5.0000000000, 6.0000000000, 0.0841113000
          48, 0.00000000e+00, 0.00000000e+00, 0.00000000e+00, 0.00000000e+00, 0.00000000e+00, 0.00000000e+00, 0.00000000e+00, 0.00000000e+00, 0.00000000e+00, 0.00000000e+00, 0.00000000e+00, 0.00000000e+00, -4.80514587e+00, -2.37406773e+00, -1.59840627e+00, 6.41890314e-01, 0.00000000e+00, 5.0000000000, 6.0000000000, 0.0860084833
          49, 0.00000000e+00, 0.00000000e+00, 0.00000000e+00, 0.00000000e+00, 0.00000000e+00, 0.00000000e+00, 0.00000000e+00, 0.00000000e+00, 0.00000000e+00, 0.00000000e+00, 0.00000000e+00, 0.00000000e+00, -4.81892693e+00, -2.39269286e+00, -1.61061221e+00, 6.28326459e-01, 0.00000000e+00, 5.0000000000, 6.0000000000, 0.0878658167
          50, 0.00000000e+00, 0.00000000e+00, 0.00000000e+00, 0.00000000e+00, 0.00000000e+00, 0.00000000e+00, 0.00000000e+00, 0.00000000e+00, 0.00000000e+00, 0.00000000e+00, 0.00000000e+00, 0.00000000e+00, -4.83282114e+00, -2.41068539e+00, -1.62287777e+00, 6.14621767e-01, 0.00000000e+00, 5.0000000000, 6.0000000000, 0.0896346000
          51, 0.00000000e+00, 0.00000000e+00, 0.00000000e+00, 0.00000000e+00, 0.00000000e+00, 0.00000000e+00, 0.00000000e+00, 0.00000000e+00, 0.00000000e+00, 0.00000000e+00, 0.00000000e+00, 0.00000000e+00, -4.84683584e+00, -2.42806793e+00, -1.63520358e+00, 6.00769447e-01, 0.00000000e+00, 5.0000000000, 6.0000000000, 0.0913991000
          52, 0.00000000e+00, 0.00000000e+00, 0.00000000e+00, 0.00000000e+00, 0.00000000e+00, 0.00000000e+00, 0.00000000e+00, 0.00000000e+00, 0.00000000e+00, 0.00000000e+00, 0.00000000e+00, 0.00000000e+00, -4.86098209e+00, -2.44487305e+00, -1.64759019e+00, 5.86759087e-01, 0.00000000e+00, 5.0000000000, 6.0000000000, 0.0931980000
          53, 0.00000000e+00, 0.00000000e+00, 0.00000000e+00, 0.00000000e+00, 0.00000000e+00, 0.00000000e+00, 0.00000000e+00, 0.00000000e+00, 0.00000000e+00, 0.00000000e+00, 0.00000000e+00, 0.00000000e+00, -4.87527277e+00, -2.46113823e+00, -1.66003810e+00, 5.72578667e-01, 0.00000000e+00, 5.0000000000, 6.0000000000, 0.0949715000
          54, 0.00000000e+00, 0.00000000e+00, 0.00000000e+00, 0.00000000e+00, 0.00000000e+00, 0.00000000e+00, 0.00000000e+00, 0.00000000e+00, 0.00000000e+00, 0.00000000e+00, 0.00000000e+00, 0.00000000e+00, -4.88972143e+00, -2.47690208e+00, -1.67254774e+00, 5.58215802e-01, 0.00000000e+00, 5.0000000000, 6.0000000000, 0.0967897667
          55, 0.00000000e+00, 0.00000000e+00, 0.00000000e+00, 0.00000000e+00, 0.00000000e+00, 0.00000000e+00, 0.00000000e+00, 0.00000000e+00, 0.00000000e+00, 0.00000000e+00, 0.00000000e+00, 0.00000000e+00, -4.90434141e+00, -2.49220184e+00, -1.68511944e+00, 5.43658694e-01, 0.00000000e+00, 5.0000000000, 6.0000000000, 0.0985206500
          56, 0.00000000e+00, 0.00000000e+00, 0.00000000e+00, 0.00000000e+00, 0.00000000e+00, 0.00000000e+00, 0.00000000e+00, 0.00000000e+00, 0.00000000e+00, 0.00000000e+00, 0.00000000e+00, 0.00000000e+00, -4.91914492e+00, -2.50707179e+00, -1.69775354e+00, 5.28897119e-01, 0.00000000e+00, 5.0000000000, 6.0000000000, 0.1003030000
          57, 0.00000000e+00, 0.00000000e+00, 0.00000000e+00, 0.00000000e+00, 0.00000000e+00, 0.00000000e+00, 0.00000000e+00, 0.00000000e+00, 0.00000000e+00, 0.00000000e+00, 0.00000000e+00, 0.00000000e+00, -4.93414192e+00, -2.52154231e+00, -1.71045028e+00, 5.13923650e-01, 0.00000000e+00, 5.0000000000, 6.0000000000, 0.1020732667
          58, 0.00000000e+00, 0.00000000e+00, 0.00000000e+00, 0.00000000e+00, 0.00000000e+00, 0.00000000e+00, 0.00000000e+00, 0.00000000e+00, 0.00000000e+00, 0.00000000e+00, 0.00000000e+00, 0.00000000e+00, -4.94933884e+00, -2.53563923e+00, -1.72320992e+00, 4.98735186e-01, 0.00000000e+00, 5.0000000000, 6.0000000000, 0.1038110667
          59, 0.00000000e+00, 0.00000000e+00, 0.00000000e+00, 0.00000000e+00, 0.00000000e+00, 0.00000000e+00, 0.00000000e+00, 0.00000000e+00, 0.00000000e+00, 0.00000000e+00, 0.00000000e+00, 0.00000000e+00, -4.96473684e+00, -2.54938304e+00, -1.73603263e+00, 4.83334848e-01, 0.00000000e+00, 5.0000000000, 6.0000000000, 0.1055741500
          60, 0.00000000e+00, 0.00000000e+00, 0.00000000e+00, 0.00000000e+00, 0.00000000e+00, 0.00000000e+00, 0.00000000e+00, 0.00000000e+00, 0.00000000e+00, 0.00000000e+00, 0.00000000e+00, 0.00000000e+00, -4.98032984e+00, -2.56278764e+00, -1.74891847e+00, 4.67734360e-01, 0.00000000e+00, 5.0000000000, 6.0000000000, 0.1073399833
          61, 0.00000000e+00, 0.00000000e+00, 0.00000000e+00, 0.00000000e+00, 0.00000000e+00, 0.00000000e+00, 0.00000000e+00, 0.00000000e+00, 0.00000000e+00, 0.00000000e+00, 0.00000000e+00, 0.00000000e+00, -4.99610181e+00, -2.57585793e+00, -1.76186737e+00, 4.51957143e-01, 0.00000000e+00, 5.0000000000, 6.0000000000, 0.1091449500
          62, 0.00000000e+00, 0.00000000e+00, 0.00000000e+00, 0.00000000e+00, 0.00000000e+00, 0.00000000e+00, 0.00000000e+00, 0.00000000e+00, 0.00000000e+00, 0.00000000e+00, 0.00000000e+00, 0.00000000e+00, -5.01202304e+00, -2.58858561e+00, -1.77487896e+00, 4.36042584e-01, 0.00000000e+00, 5.0000000000, 6.0000000000, 0.1108865167
          63, 0.00000000e+00, 0.00000000e+00, 0.00000000e+00, 0.00000000e+00, 0.00000000e+00, 0.00000000e+00, 0.00000000e+00, 0.00000000e+00, 0.00000000e+00, 0.00000000e+00, 0.00000000e+00, 0.00000000e+00, -5.02804452e+00, -2.60094241e+00, -1.78795248e+00, 4.20052215e-01, 0.00000000e+00, 5.0000000000, 6.0000000000, 0.1127357500
          64, 0.00000000e+00, 0.00000000e+00, 0.00000000e+00, 0.00000000e+00, 0.00000000e+00, 0.00000000e+00, 0.00000000e+00, 0.00000000e+00, 0.00000000e+00, 0.00000000e+00, 0.00000000e+00, 0.00000000e+00, -5.04408928e+00, -2.61286969e+00, -1.80108660e+00, 4.04078918e-01, 0.00000000e+00, 5.0000000000, 6.0000000000, 0.1144958667
          65, 0.00000000e+00, 0.00000000e+00, 0.00000000e+00, 0.00000000e+00, 0.00000000e+00, 0.00000000e+00, 0.00000000e+00, 0.00000000e+00, 0.00000000e+00, 0.00000000e+00, 0.00000000e+00, 0.00000000e+00, -5.06003903e+00, -2.62426323e+00, -1.81427927e+00, 3.88260610e-01, 0.00000000e+00, 5.0000000000, 6.0000000000, 0.1162714667
          66, 0.00000000e+00, 0.00000000e+00, 0.00000000e+00, 0.00000000e+00, 0.00000000e+00, 0.00000000e+00, 0.00000000e+00, 0.00000000e+00, 0.00000000e+00, 0.00000000e+00, 0.00000000e+00, 0.00000000e+00, -5.07571407e+00, -2.63495241e+00, -1.82752748e+00, 3.72800178e-01, 0.00000000e+00, 5.0000000000, 6.0000000000, 0.1180437167
          67, 0.00000000e+00, 0.00000000e+00, 0.00000000e+00, 0.00000000e+00, 0.00000000e+00, 0.00000000e+00, 0.00000000e+00, 0.00000000e+00, 0.00000000e+00, 0.00000000e+00, 0.00000000e+00, 0.00000000e+00, -5.09084422e+00, -2.64467321e+00, -1.84082709e+00, 3.57993243e-01, 0.00000000e+00, 5.0000000000, 6.0000000000, 0.1197959333
          68, 0.00000000e+00, 0.00000000e+00, 0.00000000e+00, 0.00000000e+00, 0.00000000e+00, 0.00000000e+00, 0.00000000e+00, 0.00000000e+00, 0.00000000e+00, 0.00000000e+00, 0.00000000e+00, 0.00000000e+00, -5.10502977e+00, -2.65303691e+00, -1.85417259e+00, 3.44264059e-01, 0.00000000e+00, 5.0000000000, 6.0000000000, 0.1215385833
          69, 0.00000000e+00, 0.00000000e+00, 0.00000000e+00, 0.00000000e+00, 0.00000000e+00, 0.00000000e+00, 0.00000000e+00, 0.00000000e+00, 0.00000000e+00, 0.00000000e+00, 0.00000000e+00, 0.00000000e+00, -5.11769438e+00, -2.65949984e+00, -1.86755690e+00, 3.32206342e-01, 0.00000000e+00, 5.0000000000, 6.0000000000, 0.1232962000
          70, 0.00000000e+00, 0.00000000e+00, 0.00000000e+00, 0.00000000e+00, 0.00000000e+00, 0.00000000e+00, 0.00000000e+00, 0.00000000e+00, 0.00000000e+00, 0.00000000e+00, 0.00000000e+00, 0.00000000e+00, -5.12803957e+00, -2.66334613e+00, -1.88097117e+00, 3.22618586e-01, 0.00000000e+00, 5.0000000000, 6.0000000000, 0.1251144500
          71, 0.00000000e+00, 0.00000000e+00, 0.00000000e+00, 0.00000000e+00, 0.00000000e+00, 0.00000000e+00, 0.00000000e+00, 0.00000000e+00, 0.00000000e+00, 0.00000000e+00, 0.00000000e+00, 0.00000000e+00, -5.13502319e+00, -2.66370333e+00, -1.89440462e+00, 3.16512021e-01, 0.00000000e+00, 5.0000000000, 6.0000000000, 0.1268848167
          72, 0.00000000e+00, 0.00000000e+00, 0.00000000e+00, 0.00000000e+00, 0.00000000e+00, 0.00000000e+00, 0.00000000e+00, 0.00000000e+00, 0.00000000e+00, 0.00000000e+00, 0.00000000e+00, 0.00000000e+00, -5.13739987e+00, -2.65961498e+00, -1.90784442e+00, 3.15057722e-01, 0.00000000e+00, 5.0000000000, 6.0000000000, 0.1286389500
          73, 0.00000000e+00, 0.00000000e+00, 0.00000000e+00, 0.00000000e+00, 0.00000000e+00, 0.00000000e+00, 0.00000000e+00, 0.00000000e+00, 0.00000000e+00, 0.00000000e+00, 0.00000000e+00, 0.00000000e+00, -5.13386564e+00, -2.65018456e+00, -1.92127562e+00, 3.19440152e-01, 0.00000000e+00, 5.0000000000, 6.0000000000, 0.1303908000
          74, 0.00000000e+00, 0.00000000e+00, 0.00000000e+00, 0.00000000e+00, 0.00000000e+00, 0.00000000e+00, 0.00000000e+00, 0.00000000e+00, 0.00000000e+00, 0.00000000e+00, 0.00000000e+00, 0.00000000e+00, -5.12331938e+00, -2.63477399e+00, -1.93468126e+00, 3.30616058e-01, 0.00000000e+00, 5.0000000000, 6.0000000000, 0.1321484500
          75, 0.00000000e+00, 0.00000000e+00, 0.00000000e+00, 0.00000000e+00, 0.00000000e+00, 0.00000000e+00, 0.00000000e+00, 0.00000000e+00, 0.00000000e+00, 0.00000000e+00, 0.00000000e+00, 0.00000000e+00, -5.10517742e+00, -2.61319435e+00, -1.94804245e+00, 3.49043215e-01, 0.00000000e+00, 5.0000000000, 6.0000000000, 0.1339025833
          76, 0.00000000e+00, 0.00000000e+00, 0.00000000e+00, 0.00000000e+00, 0.00000000e+00, 0.00000000e+00, 0.00000000e+00, 0.00000000e+00, 0.00000000e+00, 0.00000000e+00, 0.00000000e+00, 0.00000000e+00, -5.07960045e+00, -2.58580400e+00, -1.96133867e+00, 3.74500354e-01, 0.00000000e+00, 5.0000000000, 6.0000000000, 0.1356463833
          77, 0.00000000e+00, 0.00000000e+00, 0.00000000e+00, 0.00000000e+00, 0.00000000e+00, 0.00000000e+00, 0.00000000e+00, 0.00000000e+00, 0.00000000e+00, 0.00000000e+00, 0.00000000e+00, 0.00000000e+00, -5.04750131e+00, -2.55346200e+00, -1.97454820e+00, 4.06099631e-01, 0.00000000e+00, 5.0000000000, 6.0000000000, 0.1374192333
          78, 0.00000000e+00, 0.00000000e+00, 0.00000000e+00, 0.00000000e+00, 0.00000000e+00, 0.00000000e+00, 0.00000000e+00, 0.00000000e+00, 0.00000000e+00, 0.00000000e+00, 0.00000000e+00, 0.00000000e+00, -5.01032572e+00, -2.51735906e+00, -1.98764868e+00, 4.42487312e-01, 0.00000000e+00, 5.0000000000, 6.0000000000, 0.1391418333
          79, 0.00000000e+00, 0.00000000e+00, 0.00000000e+00, 0.00000000e+00, 0.00000000e+00, 0.00000000e+00, 0.00000000e+00, 0.00000000e+00, 0.00000000e+00, 0.00000000e+00, 0.00000000e+00, 0.00000000e+00, -4.96972899e+00, -2.47880485e+00, -2.00061780e+00, 4.82126629e-01, 0.00000000e+00, 5.0000000000, 6.0000000000, 0.1408779000
          80, 0.00000000e+00, 0.00000000e+00, 0.00000000e+00, 0.00000000e+00, 0.00000000e+00, 0.00000000e+00, 0.00000000e+00, 0.00000000e+00, 0.00000000e+00, 0.00000000e+00, 0.00000000e+00, 0.00000000e+00, -4.92729481e+00, -2.43904909e+00, -2.01343421e+00, 5.23542754e-01, 0.00000000e+00, 5.0000000000, 6.0000000000, 0.1426404000
          81, 0.00000000e+00, 0.00000000e+00, 0.00000000e+00, 0.00000000e+00, 0.00000000e+00, 0.00000000e+00, 0.00000000e+00, 0.00000000e+00, 0.00000000e+00, 0.00000000e+00, 0.00000000e+00, 0.00000000e+00, -4.88437071e+00, -2.39917342e+00, -2.02607850e+00, 5.65469012e-01, 0.00000000e+00, 5.0000000000, 6.0000000000, 0.1443912667
          82, 0.00000000e+00, 0.00000000e+00, 0.00000000e+00, 0.00000000e+00, 0.00000000e+00, 0.00000000e+00, 0.00000000e+00, 0.00000000e+00, 0.00000000e+00, 0.00000000e+00, 0.00000000e+00, 0.00000000e+00, -4.84201429e+00, -2.36005065e+00, -2.03853432e+00, 6.06898180e-01, 0.00000000e+00, 5.0000000000, 6.0000000000, 0.1461446333
          83, 0.00000000e+00, 0.00000000e+00, 0.00000000e+00, 0.00000000e+00, 0.00000000e+00, 0.00000000e+00, 0.00000000e+00, 0.00000000e+00, 0.00000000e+00, 0.00000000e+00, 0.00000000e+00, 0.00000000e+00, -4.80100909e+00, -2.32234913e+00, -2.05078939e+00, 6.47072458e-01, 0.00000000e+00, 5.0000000000, 6.0000000000, 0.1479447167
          84, 0.00000000e+00, 0.00000000e+00, 0.00000000e+00, 0.00000000e+00, 0.00000000e+00, 0.00000000e+00, 0.00000000e+00, 0.00000000e+00, 0.00000000e+00, 0.00000000e+00, 0.00000000e+00, 0.00000000e+00, -4.76191020e+00, -2.28655908e+00, -2.06283653e+00, 6.85445518e-01, 0.00000000e+00, 5.0000000000, 6.0000000000, 0.1497074333
          85, 0.00000000e+00, 0.00000000e+00, 0.00000000e+00, 0.00000000e+00, 0.00000000e+00, 0.00000000e+00, 0.00000000e+00, 0.00000000e+00, 0.00000000e+00, 0.00000000e+00, 0.00000000e+00, 0.00000000e+00, -4.72509506e+00, -2.25302545e+00, -2.07467445e+00, 7.21638392e-01, 0.00000000e+00, 5.0000000000, 6.0000000000, 0.1514747667
          86, 0.00000000e+00, 0.00000000e+00, 0.00000000e+00, 0.00000000e+00, 0.00000000e+00, 0.00000000e+00, 0.00000000e+00, 0.00000000e+00, 0.00000000e+00, 0.00000000e+00, 0.00000000e+00, 0.00000000e+00, -4.69080752e+00, -2.22197829e+00, -2.08630821e+00, 7.55400124e-01, 0.00000000e+00, 5.0000000000, 6.0000000000, 0.1532582333
          87, 0.00000000e+00, 0.00000000e+00, 0.00000000e+00, 0.00000000e+00, 0.00000000e+00, 0.00000000e+00, 0.00000000e+00, 0.00000000e+00, 0.00000000e+00, 0.00000000e+00, 0.00000000e+00, 0.00000000e+00, -4.65919268e+00, -2.19355837e+00, -2.09774947e+00, 7.86575925e-01, 0.00000000e+00, 5.0000000000, 6.0000000000, 0.1550130667
          88, 0.00000000e+00, 0.00000000e+00, 0.00000000e+00, 0.00000000e+00, 0.00000000e+00, 0.00000000e+00, 0.00000000e+00, 0.00000000e+00, 0.00000000e+00, 0.00000000e+00, 0.00000000e+00, 0.00000000e+00, -4.63032259e+00, -2.16783702e+00, -2.10901618e+00, 8.15083208e-01, 0.00000000e+00, 5.0000000000, 6.0000000000, 0.1567632667
          89, 0.00000000e+00, 0.00000000e+00, 0.00000000e+00, 0.00000000e+00, 0.00000000e+00, 0.00000000e+00, 0.00000000e+00, 0.00000000e+00, 0.00000000e+00, 0.00000000e+00, 0.00000000e+00, 0.00000000e+00, -4.60421468e+00, -2.14483096e+00, -2.12013197e+00, 8.40894139e-01, 0.00000000e+00, 5.0000000000, 6.0000000000, 0.1585219500