TITLE = "Visualization of the volumetric solution"
VARIABLES = "x","y","Density","Momentum_x","Momentum_y","Energy","Pressure","Temperature","Mach","C<sub>p</sub>","Roe_Dissipation"
ZONE NODES= 1720, ELEMENTS= 3288, DATAPACKING=POINT, ZONETYPE=FEQUADRILATERAL
1.040621e+00	-1.209117e+00	1.343646e+00	1.050182e-02	-2.065193e+02	3.064034e+05	1.162129e+05	3.013004e+02	4.416995e-01	2.099034e+01	0.000000e+00	
1.000000e+00	-1.190476e+00	1.343584e+00	2.830665e-03	-2.070761e+02	3.064873e+05	1.162119e+05	3.013118e+02	4.429026e-01	2.098893e+01	0.000000e+00	
1.049910e+00	-1.157894e+00	1.343610e+00	1.039859e-03	-2.064128e+02	3.063761e+05	1.162084e+05	3.012968e+02	4.414862e-01	2.098395e+01	0.000000e+00	
1.093743e+00	-1.191849e+00	1.343701e+00	2.265759e-02	-2.057447e+02	3.062775e+05	1.162104e+05	3.012817e+02	4.400387e-01	2.098675e+01	0.000000e+00	
1.000000e+00	-1.130952e+00	1.343568e+00	-1.165160e-02	-2.070901e+02	3.064828e+05	1.162092e+05	3.013083e+02	4.429402e-01	2.098508e+01	0.000000e+00	
1.095476e+00	-1.132804e+00	1.343650e+00	3.930424e-04	-2.057115e+02	3.062616e+05	1.162058e+05	3.012811e+02	4.399848e-01	2.098027e+01	0.000000e+00	
1.048314e+00	-1.101041e+00	1.343625e+00	-5.551021e-03	-2.064187e+02	3.063778e+05	1.162088e+05	3.012946e+02	4.414958e-01	2.098450e+01	0.000000e+00	
1.144982e+00	-1.160302e+00	1.343768e+00	1.964722e-02	-2.050224e+02	3.061650e+05	1.162098e+05	3.012652e+02	4.384839e-01	2.098600e+01	0.000000e+00	
1.000000e+00	-1.071429e+00	1.343572e+00	-2.097126e-02	-2.071149e+02	3.064882e+05	1.162098e+05	3.013090e+02	4.429915e-01	2.098598e+01	0.000000e+00	
1.148009e+00	-1.206784e+00	1.343699e+00	3.144494e-02	-2.049547e+02	3.061370e+05	1.162025e+05	3.012614e+02	4.383643e-01	2.097558e+01	0.000000e+00	
1.095648e+00	-1.071244e+00	1.343680e+00	-4.064302e-03	-2.057323e+02	3.062695e+05	1.162078e+05	3.012797e+02	4.400205e-01	2.098315e+01	0.000000e+00	
1.145729e+00	-1.102380e+00	1.343720e+00	1.055766e-02	-2.050151e+02	3.061539e+05	1.162056e+05	3.012651e+02	4.384843e-01	2.098002e+01	0.000000e+00	
1.049733e+00	-1.041321e+00	1.343588e+00	-1.695008e-02	-2.064207e+02	3.063702e+05	1.162054e+05	3.012942e+02	4.415125e-01	2.097979e+01	0.000000e+00	
1.192761e+00	-1.192577e+00	1.343771e+00	1.065703e-02	-2.043368e+02	3.060449e+05	1.162036e+05	3.012483e+02	4.370289e-01	2.097716e+01	0.000000e+00	
1.195107e+00	-1.133762e+00	1.343789e+00	2.344774e-02	-2.043149e+02	3.060471e+05	1.162059e+05	3.012502e+02	4.369749e-01	2.098042e+01	0.000000e+00	
1.000000e+00	-1.011905e+00	1.343539e+00	-3.166630e-02	-2.071217e+02	3.064804e+05	1.162061e+05	3.013068e+02	4.430184e-01	2.098076e+01	0.000000e+00	
1.094413e+00	-1.012480e+00	1.343635e+00	-1.584014e-02	-2.057512e+02	3.062622e+05	1.162035e+05	3.012788e+02	4.400763e-01	2.097712e+01	0.000000e+00	
1.144800e+00	-1.042146e+00	1.343715e+00	1.519235e-03	-2.050383e+02	3.061552e+05	1.162047e+05	3.012638e+02	4.385363e-01	2.097877e+01	0.000000e+00	
1.194807e+00	-1.073419e+00	1.343779e+00	1.402535e-02	-2.043200e+02	3.060436e+05	1.162041e+05	3.012479e+02	4.369906e-01	2.097795e+01	0.000000e+00	
1.046483e+00	-9.824203e-01	1.343593e+00	-2.653762e-02	-2.064559e+02	3.063755e+05	1.162054e+05	3.012928e+02	4.415869e-01	2.097976e+01	0.000000e+00	
1.243114e+00	-1.166395e+00	1.343895e+00	2.007657e-02	-2.036645e+02	3.059556e+05	1.162092e+05	3.012353e+02	4.355603e-01	2.098515e+01	0.000000e+00	
1.243982e+00	-1.104797e+00	1.343830e+00	2.265543e-02	-2.036319e+02	3.059355e+05	1.162029e+05	3.012332e+02	4.355129e-01	2.097619e+01	0.000000e+00	
1.000000e+00	-9.523810e-01	1.343538e+00	-4.110514e-02	-2.071501e+02	3.064838e+05	1.162057e+05	3.013062e+02	4.430803e-01	2.098018e+01	0.000000e+00	
1.143063e+00	-9.807371e-01	1.343699e+00	-5.842748e-03	-2.050813e+02	3.061581e+05	1.162032e+05	3.012634e+02	4.386337e-01	2.097659e+01	0.000000e+00	
1.092059e+00	-9.503938e-01	1.343653e+00	-2.603436e-02	-2.058023e+02	3.062742e+05	1.162053e+05	3.012792e+02	4.401792e-01	2.097960e+01	0.000000e+00	
1.193442e+00	-1.011838e+00	1.343772e+00	5.670947e-03	-2.043449e+02	3.060460e+05	1.162035e+05	3.012479e+02	4.370462e-01	2.097707e+01	0.000000e+00	
1.243532e+00	-1.043138e+00	1.343846e+00	1.231944e-02	-2.036499e+02	3.059402e+05	1.162037e+05	3.012320e+02	4.355474e-01	2.097740e+01	0.000000e+00	
1.045466e+00	-9.241753e-01	1.343562e+00	-2.849279e-02	-2.064893e+02	3.063741e+05	1.162026e+05	3.012928e+02	4.416688e-01	2.097585e+01	0.000000e+00	
1.292216e+00	-1.195962e+00	1.343949e+00	4.306751e-02	-2.030107e+02	3.058537e+05	1.162083e+05	3.012206e+02	4.341551e-01	2.098382e+01	0.000000e+00	
1.293053e+00	-1.132219e+00	1.343895e+00	3.734058e-02	-2.029937e+02	3.058374e+05	1.162026e+05	3.012179e+02	4.341382e-01	2.097576e+01	0.000000e+00	
1.293488e+00	-1.073063e+00	1.343916e+00	1.961973e-02	-2.030082e+02	3.058429e+05	1.162040e+05	3.012168e+02	4.341631e-01	2.097776e+01	0.000000e+00	
1.000000e+00	-8.928571e-01	1.343517e+00	-4.070491e-02	-2.071747e+02	3.064814e+05	1.162031e+05	3.013041e+02	4.431413e-01	2.097655e+01	0.000000e+00	
1.139604e+00	-9.191736e-01	1.343697e+00	-1.602045e-02	-2.051399e+02	3.061673e+05	1.162032e+05	3.012640e+02	4.387593e-01	2.097669e+01	0.000000e+00	
1.191101e+00	-9.499658e-01	1.343745e+00	1.505286e-03	-2.043831e+02	3.060457e+05	1.162010e+05	3.012473e+02	4.371370e-01	2.097348e+01	0.000000e+00	
1.086165e+00	-8.914965e-01	1.343584e+00	-3.399958e-02	-2.058934e+02	3.062738e+05	1.161992e+05	3.012789e+02	4.403970e-01	2.097103e+01	0.000000e+00	
1.242086e+00	-9.812383e-01	1.343826e+00	7.584792e-03	-2.036699e+02	3.059391e+05	1.162020e+05	3.012319e+02	4.355966e-01	2.097493e+01	0.000000e+00	
1.292812e+00	-1.012013e+00	1.343890e+00	1.705108e-02	-2.030162e+02	3.058387e+05	1.162017e+05	3.012168e+02	4.341889e-01	2.097453e+01	0.000000e+00	
1.036811e+00	-8.675911e-01	1.343530e+00	-3.468005e-02	-2.065954e+02	3.063826e+05	1.161994e+05	3.012914e+02	4.419073e-01	2.097123e+01	0.000000e+00	
1.341812e+00	-1.209973e+00	1.344002e+00	5.119048e-02	-2.024654e+02	3.057702e+05	1.162081e+05	3.012081e+02	4.329809e-01	2.098349e+01	0.000000e+00	
1.346003e+00	-1.158948e+00	1.343933e+00	3.683617e-02	-2.023820e+02	3.057390e+05	1.162003e+05	3.012034e+02	4.328281e-01	2.097251e+01	0.000000e+00	
1.344501e+00	-1.101571e+00	1.343985e+00	3.017618e-02	-2.024082e+02	3.057512e+05	1.162038e+05	3.012009e+02	4.328691e-01	2.097750e+01	0.000000e+00	
1.343694e+00	-1.041833e+00	1.343953e+00	2.625987e-02	-2.024133e+02	3.057465e+05	1.162015e+05	3.012021e+02	4.328896e-01	2.097423e+01	0.000000e+00	
1.000000e+00	-8.333333e-01	1.343486e+00	-5.641594e-02	-2.072330e+02	3.064829e+05	1.162000e+05	3.013029e+02	4.432769e-01	2.097216e+01	0.000000e+00	
1.135849e+00	-8.580295e-01	1.343653e+00	-1.902811e-02	-2.052310e+02	3.061718e+05	1.161993e+05	3.012635e+02	4.389688e-01	2.097110e+01	0.000000e+00	
1.188203e+00	-8.888722e-01	1.343748e+00	-5.275802e-03	-2.044302e+02	3.060534e+05	1.162012e+05	3.012473e+02	4.372369e-01	2.097381e+01	0.000000e+00	
1.240135e+00	-9.198651e-01	1.343815e+00	2.467700e-03	-2.037025e+02	3.059412e+05	1.162008e+05	3.012313e+02	4.356703e-01	2.097329e+01	0.000000e+00	
1.060587e+00	-8.131532e-01	1.343555e+00	-3.908372e-02	-2.062418e+02	3.063250e+05	1.161982e+05	3.012827e+02	4.411488e-01	2.096958e+01	0.000000e+00	
1.291525e+00	-9.506591e-01	1.343887e+00	1.077349e-02	-2.030412e+02	3.058413e+05	1.162012e+05	3.012161e+02	4.342437e-01	2.097386e+01	0.000000e+00	
1.342746e+00	-9.809885e-01	1.343955e+00	1.975065e-02	-2.024348e+02	3.057495e+05	1.162014e+05	3.012014e+02	4.329354e-01	2.097412e+01	0.000000e+00	
1.396074e+00	-1.192578e+00	1.344044e+00	4.718566e-02	-2.018473e+02	3.056666e+05	1.162040e+05	3.011883e+02	4.316598e-01	2.097777e+01	0.000000e+00	
1.395764e+00	-1.131440e+00	1.344030e+00	2.733119e-02	-2.018481e+02	3.056628e+05	1.162024e+05	3.011870e+02	4.316669e-01	2.097544e+01	0.000000e+00	
1.394808e+00	-1.071143e+00	1.344018e+00	3.329787e-02	-2.018568e+02	3.056620e+05	1.162015e+05	3.011875e+02	4.316891e-01	2.097420e+01	0.000000e+00	
1.393992e+00	-1.010751e+00	1.344022e+00	2.862270e-02	-2.018747e+02	3.056649e+05	1.162016e+05	3.011868e+02	4.317266e-01	2.097431e+01	0.000000e+00	
1.000000e+00	-7.738095e-01	1.343461e+00	-5.425328e-02	-2.072249e+02	3.064756e+05	1.161975e+05	3.013020e+02	4.432687e-01	2.096854e+01	0.000000e+00	
1.136070e+00	-7.973420e-01	1.343647e+00	-8.164844e-03	-2.052331e+02	3.061698e+05	1.161983e+05	3.012625e+02	4.389762e-01	2.096973e+01	0.000000e+00	
1.187499e+00	-8.298549e-01	1.343726e+00	-8.439212e-03	-2.044467e+02	3.060508e+05	1.161990e+05	3.012465e+02	4.372799e-01	2.097075e+01	0.000000e+00	
1.238805e+00	-8.599060e-01	1.343803e+00	-8.646311e-04	-2.037235e+02	3.059416e+05	1.161996e+05	3.012310e+02	4.357195e-01	2.097162e+01	0.000000e+00	
1.290245e+00	-8.900452e-01	1.343873e+00	7.563615e-03	-2.030628e+02	3.058413e+05	1.161999e+05	3.012158e+02	4.342947e-01	2.097192e+01	0.000000e+00	
1.341669e+00	-9.201922e-01	1.343941e+00	1.704236e-02	-2.024521e+02	3.057490e+05	1.162001e+05	3.012011e+02	4.329771e-01	2.097225e+01	0.000000e+00	
1.393077e+00	-9.501287e-01	1.344006e+00	2.516277e-02	-2.018867e+02	3.056634e+05	1.162002e+05	3.011866e+02	4.317574e-01	2.097234e+01	0.000000e+00	
1.043305e+00	-7.483473e-01	1.343524e+00	-5.884764e-02	-2.065279e+02	3.063676e+05	1.161975e+05	3.012878e+02	4.417673e-01	2.096861e+01	0.000000e+00	
1.446081e+00	-1.157621e+00	1.344105e+00	4.629107e-02	-2.013272e+02	3.055854e+05	1.162030e+05	3.011720e+02	4.305398e-01	2.097632e+01	0.000000e+00	
1.450844e+00	-1.210365e+00	1.344092e+00	5.310101e-02	-2.012698e+02	3.055718e+05	1.162009e+05	3.011695e+02	4.304231e-01	2.097341e+01	0.000000e+00	
1.445809e+00	-1.099210e+00	1.344094e+00	3.912263e-02	-2.013526e+02	3.055887e+05	1.162027e+05	3.011736e+02	4.305962e-01	2.097597e+01	0.000000e+00	
1.091832e+00	-7.665481e-01	1.343618e+00	-2.294962e-02	-2.058609e+02	3.062722e+05	1.162007e+05	3.012751e+02	4.403191e-01	2.097314e+01	0.000000e+00	
1.445317e+00	-1.039826e+00	1.344079e+00	3.576797e-02	-2.013582e+02	3.055855e+05	1.162010e+05	3.011727e+02	4.306138e-01	2.097359e+01	0.000000e+00	
1.444508e+00	-9.797257e-01	1.344073e+00	3.210598e-02	-2.013705e+02	3.055858e+05	1.162004e+05	3.011723e+02	4.306421e-01	2.097271e+01	0.000000e+00	
1.000000e+00	-7.142857e-01	1.343435e+00	-5.984027e-02	-2.072099e+02	3.064656e+05	1.161943e+05	3.012995e+02	4.432471e-01	2.096403e+01	0.000000e+00	
1.188570e+00	-7.715395e-01	1.343725e+00	-1.228713e-02	-2.044315e+02	3.060469e+05	1.161984e+05	3.012452e+02	4.372488e-01	2.096986e+01	0.000000e+00	
1.141157e+00	-7.415263e-01	1.343626e+00	-8.377662e-03	-2.051524e+02	3.061514e+05	1.161958e+05	3.012606e+02	4.388115e-01	2.096621e+01	0.000000e+00	
1.238579e+00	-8.011049e-01	1.343791e+00	-4.873691e-03	-2.037326e+02	3.059395e+05	1.161982e+05	3.012300e+02	4.357436e-01	2.096961e+01	0.000000e+00	
1.289445e+00	-8.304909e-01	1.343865e+00	4.337807e-03	-2.030813e+02	3.058419e+05	1.161989e+05	3.012152e+02	4.343371e-01	2.097062e+01	0.000000e+00	
1.340723e+00	-8.600896e-01	1.343933e+00	1.401744e-02	-2.024712e+02	3.057498e+05	1.161992e+05	3.012006e+02	4.330207e-01	2.097103e+01	0.000000e+00	
1.392142e+00	-8.897883e-01	1.344002e+00	2.208964e-02	-2.019039e+02	3.056646e+05	1.161996e+05	3.011862e+02	4.317958e-01	2.097154e+01	0.000000e+00	
1.443585e+00	-9.194397e-01	1.344067e+00	2.883417e-02	-2.013842e+02	3.055863e+05	1.161997e+05	3.011720e+02	4.306736e-01	2.097177e+01	0.000000e+00	
1.090456e+00	-7.145167e-01	1.343582e+00	-2.391930e-02	-2.059059e+02	3.062717e+05	1.161976e+05	3.012751e+02	4.404270e-01	2.096874e+01	0.000000e+00	
1.039997e+00	-6.903901e-01	1.343490e+00	-5.083154e-02	-2.065978e+02	3.063701e+05	1.161940e+05	3.012867e+02	4.419291e-01	2.096372e+01	0.000000e+00	
1.498196e+00	-1.126038e+00	1.344144e+00	4.971741e-02	-2.008755e+02	3.055130e+05	1.162012e+05	3.011586e+02	4.295707e-01	2.097388e+01	0.000000e+00	
1.510399e+00	-1.196264e+00	1.344142e+00	4.963429e-02	-2.007954e+02	3.054980e+05	1.162000e+05	3.011559e+02	4.294019e-01	2.097215e+01	0.000000e+00	
1.497132e+00	-1.068254e+00	1.344142e+00	4.343427e-02	-2.008926e+02	3.055153e+05	1.162011e+05	3.011589e+02	4.296079e-01	2.097369e+01	0.000000e+00	
1.496082e+00	-1.009007e+00	1.344136e+00	3.792224e-02	-2.009046e+02	3.055156e+05	1.162005e+05	3.011584e+02	4.296355e-01	2.097281e+01	0.000000e+00	
1.495030e+00	-9.489896e-01	1.344129e+00	3.484773e-02	-2.009168e+02	3.055159e+05	1.161998e+05	3.011583e+02	4.296641e-01	2.097189e+01	0.000000e+00	
1.000000e+00	-6.547619e-01	1.343416e+00	-5.308784e-02	-2.072029e+02	3.064581e+05	1.161916e+05	3.012968e+02	4.432402e-01	2.096030e+01	0.000000e+00	
1.238355e+00	-7.426163e-01	1.343780e+00	-6.225855e-03	-2.037435e+02	3.059380e+05	1.161969e+05	3.012290e+02	4.357710e-01	2.096775e+01	0.000000e+00	
1.188580e+00	-7.135674e-01	1.343709e+00	-1.653260e-02	-2.044339e+02	3.060423e+05	1.161963e+05	3.012435e+02	4.372603e-01	2.096695e+01	0.000000e+00	
1.138284e+00	-6.855143e-01	1.343618e+00	-1.332529e-02	-2.051849e+02	3.061529e+05	1.161944e+05	3.012588e+02	4.388853e-01	2.096420e+01	0.000000e+00	
1.288905e+00	-7.716261e-01	1.343853e+00	3.156963e-03	-2.030972e+02	3.058413e+05	1.161977e+05	3.012146e+02	4.343754e-01	2.096887e+01	0.000000e+00	
1.339977e+00	-8.007426e-01	1.343923e+00	1.282298e-02	-2.024871e+02	3.057495e+05	1.161981e+05	3.012002e+02	4.330585e-01	2.096947e+01	0.000000e+00	
1.391303e+00	-8.300433e-01	1.343991e+00	2.031731e-02	-2.019178e+02	3.056641e+05	1.161985e+05	3.011858e+02	4.318291e-01	2.097004e+01	0.000000e+00	
1.442698e+00	-8.594594e-01	1.344058e+00	2.683513e-02	-2.013966e+02	3.055859e+05	1.161988e+05	3.011717e+02	4.307033e-01	2.097047e+01	0.000000e+00	
1.494070e+00	-8.889202e-01	1.344122e+00	3.255307e-02	-2.009287e+02	3.055159e+05	1.161991e+05	3.011581e+02	4.296921e-01	2.097086e+01	0.000000e+00	
1.087729e+00	-6.605235e-01	1.343548e+00	-2.014808e-02	-2.059840e+02	3.062755e+05	1.161942e+05	3.012739e+02	4.406063e-01	2.096391e+01	0.000000e+00	
1.036519e+00	-6.389016e-01	1.343490e+00	-4.732550e-02	-2.066569e+02	3.063788e+05	1.161939e+05	3.012862e+02	4.420558e-01	2.096350e+01	0.000000e+00	
1.547027e+00	-1.151126e+00	1.344207e+00	4.755057e-02	-2.004970e+02	3.054570e+05	1.162017e+05	3.011458e+02	4.287504e-01	2.097455e+01	0.000000e+00	
1.549649e+00	-1.096695e+00	1.344199e+00	4.676160e-02	-2.004799e+02	3.054530e+05	1.162011e+05	3.011458e+02	4.287161e-01	2.097366e+01	0.000000e+00	
1.572311e+00	-1.200555e+00	1.344227e+00	5.299021e-02	-2.002943e+02	3.054245e+05	1.162009e+05	3.011392e+02	4.283153e-01	2.097339e+01	0.000000e+00	
1.547814e+00	-1.038373e+00	1.344192e+00	4.327874e-02	-2.004890e+02	3.054521e+05	1.162002e+05	3.011451e+02	4.287384e-01	2.097239e+01	0.000000e+00	
1.546431e+00	-9.785191e-01	1.344189e+00	4.015861e-02	-2.005033e+02	3.054537e+05	1.162000e+05	3.011452e+02	4.287699e-01	2.097206e+01	0.000000e+00	
1.545361e+00	-9.183948e-01	1.344182e+00	3.793949e-02	-2.005144e+02	3.054538e+05	1.161993e+05	3.011451e+02	4.287961e-01	2.097112e+01	0.000000e+00	
1.000000e+00	-5.952381e-01	1.343414e+00	-4.966931e-02	-2.071791e+02	3.064535e+05	1.161913e+05	3.012964e+02	4.431903e-01	2.095979e+01	0.000000e+00	
1.236479e+00	-6.844404e-01	1.343765e+00	-5.017656e-03	-2.037791e+02	3.059399e+05	1.161954e+05	3.012285e+02	4.358524e-01	2.096565e+01	0.000000e+00	
1.287827e+00	-7.131044e-01	1.343843e+00	3.516127e-03	-2.031204e+02	3.058423e+05	1.161966e+05	3.012141e+02	4.344288e-01	2.096735e+01	0.000000e+00	
1.184572e+00	-6.562751e-01	1.343695e+00	-1.552347e-02	-2.044964e+02	3.060489e+05	1.161951e+05	3.012434e+02	4.373985e-01	2.096525e+01	0.000000e+00	
1.131451e+00	-6.297704e-01	1.343582e+00	-1.188204e-02	-2.052851e+02	3.061615e+05	1.161915e+05	3.012593e+02	4.391106e-01	2.096018e+01	0.000000e+00	
1.339147e+00	-7.419103e-01	1.343913e+00	1.226260e-02	-2.025042e+02	3.057497e+05	1.161971e+05	3.011997e+02	4.330986e-01	2.096804e+01	0.000000e+00	
1.390516e+00	-7.708705e-01	1.343984e+00	1.904997e-02	-2.019321e+02	3.056643e+05	1.161977e+05	3.011853e+02	4.318626e-01	2.096886e+01	0.000000e+00	
1.441888e+00	-7.999823e-01	1.344051e+00	2.521843e-02	-2.014094e+02	3.055861e+05	1.161981e+05	3.011713e+02	4.307331e-01	2.096942e+01	0.000000e+00	
1.493214e+00	-8.292045e-01	1.344116e+00	3.081111e-02	-2.009404e+02	3.055160e+05	1.161984e+05	3.011577e+02	4.297193e-01	2.096990e+01	0.000000e+00	
1.544461e+00	-8.584941e-01	1.344176e+00	3.609358e-02	-2.005251e+02	3.054539e+05	1.161987e+05	3.011448e+02	4.288210e-01	2.097027e+01	0.000000e+00	
1.076336e+00	-6.075870e-01	1.343552e+00	-2.495262e-02	-2.061586e+02	3.063061e+05	1.161957e+05	3.012770e+02	4.409762e-01	2.096611e+01	0.000000e+00	
1.600550e+00	-1.133089e+00	1.344260e+00	5.273212e-02	-2.001184e+02	3.053990e+05	1.162013e+05	3.011328e+02	4.279331e-01	2.097396e+01	0.000000e+00	
1.598755e+00	-1.069283e+00	1.344244e+00	4.579214e-02	-2.001273e+02	3.053973e+05	1.162001e+05	3.011331e+02	4.279569e-01	2.097220e+01	0.000000e+00	
1.634718e+00	-1.200848e+00	1.344281e+00	5.533533e-02	-1.999008e+02	3.053634e+05	1.162001e+05	3.011249e+02	4.274665e-01	2.097228e+01	0.000000e+00	
1.597484e+00	-1.008162e+00	1.344247e+00	4.468625e-02	-2.001414e+02	3.053996e+05	1.162001e+05	3.011328e+02	4.279867e-01	2.097232e+01	0.000000e+00	
1.596469e+00	-9.478281e-01	1.344238e+00	4.304729e-02	-2.001501e+02	3.053991e+05	1.161994e+05	3.011328e+02	4.280079e-01	2.097126e+01	0.000000e+00	
1.595591e+00	-8.877928e-01	1.344234e+00	4.097714e-02	-2.001597e+02	3.053994e+05	1.161989e+05	3.011325e+02	4.280299e-01	2.097059e+01	0.000000e+00	
1.069329e+00	-5.546983e-01	1.343496e+00	-3.046251e-02	-2.062848e+02	3.063150e+05	1.161913e+05	3.012780e+02	4.412636e-01	2.095983e+01	0.000000e+00	
1.232605e+00	-6.269239e-01	1.343749e+00	-1.875824e-03	-2.038399e+02	3.059462e+05	1.161942e+05	3.012289e+02	4.359874e-01	2.096391e+01	0.000000e+00	
1.285629e+00	-6.549535e-01	1.343830e+00	4.879737e-03	-2.031561e+02	3.058448e+05	1.161954e+05	3.012140e+02	4.345094e-01	2.096566e+01	0.000000e+00	
1.337846e+00	-6.834172e-01	1.343902e+00	1.260510e-02	-2.025258e+02	3.057504e+05	1.161961e+05	3.011993e+02	4.331485e-01	2.096656e+01	0.000000e+00	
1.178506e+00	-5.999571e-01	1.343674e+00	-1.186187e-02	-2.045908e+02	3.060599e+05	1.161937e+05	3.012443e+02	4.376067e-01	2.096317e+01	0.000000e+00	
1.123578e+00	-5.753637e-01	1.343576e+00	-1.324933e-02	-2.054089e+02	3.061807e+05	1.161916e+05	3.012610e+02	4.393764e-01	2.096029e+01	0.000000e+00	
1.389598e+00	-7.121037e-01	1.343975e+00	1.874964e-02	-2.019472e+02	3.056642e+05	1.161967e+05	3.011849e+02	4.318980e-01	2.096752e+01	0.000000e+00	
1.441092e+00	-7.409554e-01	1.344043e+00	2.463873e-02	-2.014215e+02	3.055858e+05	1.161972e+05	3.011709e+02	4.307621e-01	2.096819e+01	0.000000e+00	
1.492432e+00	-7.699347e-01	1.344108e+00	2.996600e-02	-2.009512e+02	3.055158e+05	1.161977e+05	3.011574e+02	4.297450e-01	2.096881e+01	0.000000e+00	
1.543664e+00	-7.990048e-01	1.344170e+00	3.505248e-02	-2.005349e+02	3.054538e+05	1.161980e+05	3.011445e+02	4.288442e-01	2.096931e+01	0.000000e+00	
1.594803e+00	-8.281254e-01	1.344227e+00	3.981710e-02	-2.001682e+02	3.053992e+05	1.161983e+05	3.011323e+02	4.280504e-01	2.096972e+01	0.000000e+00	
1.000000e+00	-5.357143e-01	1.343395e+00	-4.000047e-02	-2.071454e+02	3.064405e+05	1.161880e+05	3.012922e+02	4.431274e-01	2.095523e+01	0.000000e+00	
1.648946e+00	-1.094829e+00	1.344305e+00	5.249167e-02	-1.998118e+02	3.053515e+05	1.162008e+05	3.011213e+02	4.272714e-01	2.097318e+01	0.000000e+00	
1.654747e+00	-1.149486e+00	1.344304e+00	5.516030e-02	-1.997705e+02	3.053435e+05	1.162000e+05	3.011196e+02	4.271845e-01	2.097213e+01	0.000000e+00	
1.648102e+00	-1.036534e+00	1.344299e+00	4.948725e-02	-1.998236e+02	3.053520e+05	1.162002e+05	3.011214e+02	4.272986e-01	2.097243e+01	0.000000e+00	
1.696459e+00	-1.196388e+00	1.344355e+00	5.798187e-02	-1.995450e+02	3.053121e+05	1.162011e+05	3.011110e+02	4.266924e-01	2.097362e+01	0.000000e+00	
1.647343e+00	-9.768803e-01	1.344291e+00	4.772658e-02	-1.998296e+02	3.053511e+05	1.161995e+05	3.011212e+02	4.273141e-01	2.097137e+01	0.000000e+00	
1.646583e+00	-9.169782e-01	1.344288e+00	4.551110e-02	-1.998377e+02	3.053514e+05	1.161991e+05	3.011209e+02	4.273325e-01	2.097086e+01	0.000000e+00	
1.645850e+00	-8.572406e-01	1.344282e+00	4.425942e-02	-1.998447e+02	3.053511e+05	1.161985e+05	3.011207e+02	4.273495e-01	2.097004e+01	0.000000e+00	
1.118466e+00	-5.207647e-01	1.343564e+00	-1.218448e-02	-2.054967e+02	3.061921e+05	1.161907e+05	3.012615e+02	4.395678e-01	2.095908e+01	0.000000e+00	
1.067657e+00	-4.976080e-01	1.343492e+00	-2.257855e-02	-2.063335e+02	3.063209e+05	1.161906e+05	3.012772e+02	4.413698e-01	2.095888e+01	0.000000e+00	
1.282527e+00	-5.972533e-01	1.343817e+00	6.908285e-03	-2.032018e+02	3.058492e+05	1.161943e+05	3.012141e+02	4.346113e-01	2.096413e+01	0.000000e+00	
1.227972e+00	-5.700864e-01	1.343733e+00	1.078732e-03	-2.039092e+02	3.059540e+05	1.161930e+05	3.012295e+02	4.361406e-01	2.096226e+01	0.000000e+00	
1.335955e+00	-6.252197e-01	1.343892e+00	1.366465e-02	-2.025541e+02	3.057524e+05	1.161951e+05	3.011991e+02	4.332124e-01	2.096517e+01	0.000000e+00	
1.388405e+00	-6.536085e-01	1.343966e+00	1.927208e-02	-2.019654e+02	3.056649e+05	1.161959e+05	3.011846e+02	4.319400e-01	2.096628e+01	0.000000e+00	
1.172776e+00	-5.443829e-01	1.343653e+00	-6.536881e-03	-2.046785e+02	3.060700e+05	1.161923e+05	3.012454e+02	4.378003e-01	2.096123e+01	0.000000e+00	
1.440217e+00	-6.822398e-01	1.344035e+00	2.475679e-02	-2.014349e+02	3.055859e+05	1.161964e+05	3.011705e+02	4.307934e-01	2.096708e+01	0.000000e+00	
1.491668e+00	-7.110241e-01	1.344101e+00	2.974829e-02	-2.009623e+02	3.055157e+05	1.161969e+05	3.011570e+02	4.297710e-01	2.096781e+01	0.000000e+00	
1.542926e+00	-7.399089e-01	1.344164e+00	3.455672e-02	-2.005446e+02	3.054537e+05	1.161974e+05	3.011442e+02	4.288671e-01	2.096840e+01	0.000000e+00	
1.594075e+00	-7.688581e-01	1.344222e+00	3.908627e-02	-2.001768e+02	3.053991e+05	1.161977e+05	3.011320e+02	4.280705e-01	2.096891e+01	0.000000e+00	
1.645149e+00	-7.978403e-01	1.344277e+00	4.334492e-02	-1.998522e+02	3.053510e+05	1.161980e+05	3.011205e+02	4.273671e-01	2.096935e+01	0.000000e+00	
1.000000e+00	-4.761905e-01	1.343395e+00	-3.298344e-02	-2.071554e+02	3.064413e+05	1.161877e+05	3.012915e+02	4.431494e-01	2.095483e+01	0.000000e+00	
1.699338e+00	-1.064432e+00	1.344344e+00	5.532884e-02	-1.995371e+02	3.053079e+05	1.161998e+05	3.011102e+02	4.266794e-01	2.097186e+01	0.000000e+00	
1.701258e+00	-1.122386e+00	1.344350e+00	5.761659e-02	-1.995295e+02	3.053082e+05	1.162004e+05	3.011103e+02	4.266610e-01	2.097271e+01	0.000000e+00	
1.698266e+00	-1.005530e+00	1.344341e+00	5.162159e-02	-1.995447e+02	3.053084e+05	1.161996e+05	3.011101e+02	4.266965e-01	2.097150e+01	0.000000e+00	
1.751835e+00	-1.208439e+00	1.344400e+00	6.319919e-02	-1.992704e+02	3.052696e+05	1.162006e+05	3.010996e+02	4.260988e-01	2.097295e+01	0.000000e+00	
1.697504e+00	-9.459863e-01	1.344338e+00	4.970966e-02	-1.995514e+02	3.053086e+05	1.161992e+05	3.011099e+02	4.267120e-01	2.097102e+01	0.000000e+00	
1.696824e+00	-8.863085e-01	1.344333e+00	4.831819e-02	-1.995572e+02	3.053083e+05	1.161987e+05	3.011098e+02	4.267262e-01	2.097031e+01	0.000000e+00	
1.696166e+00	-8.268316e-01	1.344329e+00	4.727825e-02	-1.995636e+02	3.053082e+05	1.161983e+05	3.011096e+02	4.267414e-01	2.096971e+01	0.000000e+00	
1.116174e+00	-4.640064e-01	1.343547e+00	-6.931447e-03	-2.055400e+02	3.061954e+05	1.161893e+05	3.012616e+02	4.396661e-01	2.095705e+01	0.000000e+00	
1.168895e+00	-4.883350e-01	1.343638e+00	-2.508618e-03	-2.047413e+02	3.060769e+05	1.161911e+05	3.012458e+02	4.379391e-01	2.095960e+01	0.000000e+00	
1.066592e+00	-4.393951e-01	1.343464e+00	-1.266979e-02	-2.063530e+02	3.063175e+05	1.161879e+05	3.012766e+02	4.414212e-01	2.095512e+01	0.000000e+00	
1.751889e+00	-1.152379e+00	1.344396e+00	6.182435e-02	-1.992778e+02	3.052703e+05	1.162004e+05	3.011000e+02	4.261156e-01	2.097268e+01	0.000000e+00	
1.333726e+00	-5.672619e-01	1.343881e+00	1.581313e-02	-2.025858e+02	3.057549e+05	1.161941e+05	3.011991e+02	4.332838e-01	2.096387e+01	0.000000e+00	
1.279278e+00	-5.398617e-01	1.343804e+00	9.927823e-03	-2.032489e+02	3.058538e+05	1.161933e+05	3.012143e+02	4.347161e-01	2.096267e+01	0.000000e+00	
1.223918e+00	-5.134628e-01	1.343720e+00	4.480779e-03	-2.039707e+02	3.059612e+05	1.161921e+05	3.012299e+02	4.362758e-01	2.096098e+01	0.000000e+00	
1.386957e+00	-5.953011e-01	1.343957e+00	2.079897e-02	-2.019860e+02	3.056659e+05	1.161950e+05	3.011843e+02	4.319873e-01	2.096506e+01	0.000000e+00	
1.439218e+00	-6.237155e-01	1.344027e+00	2.573542e-02	-2.014492e+02	3.055862e+05	1.161956e+05	3.011702e+02	4.308267e-01	2.096596e+01	0.000000e+00	
1.490873e+00	-6.523436e-01	1.344094e+00	3.029241e-02	-2.009733e+02	3.055156e+05	1.161962e+05	3.011567e+02	4.297971e-01	2.096679e+01	0.000000e+00	
1.542206e+00	-6.810933e-01	1.344157e+00	3.474359e-02	-2.005539e+02	3.054535e+05	1.161967e+05	3.011439e+02	4.288893e-01	2.096747e+01	0.000000e+00	
1.593379e+00	-7.099137e-01	1.344216e+00	3.898335e-02	-2.001850e+02	3.053989e+05	1.161971e+05	3.011318e+02	4.280901e-01	2.096807e+01	0.000000e+00	
1.644471e+00	-7.387760e-01	1.344272e+00	4.301308e-02	-1.998593e+02	3.053508e+05	1.161975e+05	3.011203e+02	4.273843e-01	2.096858e+01	0.000000e+00	
1.695515e+00	-7.676637e-01	1.344324e+00	4.677240e-02	-1.995698e+02	3.053079e+05	1.161978e+05	3.011094e+02	4.267562e-01	2.096902e+01	0.000000e+00	
1.000000e+00	-4.166667e-01	1.343379e+00	-2.165946e-02	-2.071703e+02	3.064391e+05	1.161859e+05	3.012903e+02	4.431876e-01	2.095218e+01	0.000000e+00	
1.750541e+00	-1.093258e+00	1.344389e+00	5.774685e-02	-1.992783e+02	3.052682e+05	1.161995e+05	3.010993e+02	4.261196e-01	2.097141e+01	0.000000e+00	
1.749304e+00	-1.034386e+00	1.344391e+00	5.478473e-02	-1.992876e+02	3.052703e+05	1.161998e+05	3.010995e+02	4.261385e-01	2.097181e+01	0.000000e+00	
1.748434e+00	-9.750108e-01	1.344385e+00	5.357230e-02	-1.992930e+02	3.052699e+05	1.161993e+05	3.010995e+02	4.261520e-01	2.097108e+01	0.000000e+00	
1.800221e+00	-1.182159e+00	1.344438e+00	6.297043e-02	-1.990532e+02	3.052361e+05	1.162002e+05	3.010902e+02	4.256292e-01	2.097243e+01	0.000000e+00	
1.747758e+00	-9.153829e-01	1.344382e+00	5.195469e-02	-1.992985e+02	3.052698e+05	1.161989e+05	3.010993e+02	4.261649e-01	2.097056e+01	0.000000e+00	
1.747140e+00	-8.558444e-01	1.344378e+00	5.093339e-02	-1.993039e+02	3.052697e+05	1.161985e+05	3.010991e+02	4.261779e-01	2.097001e+01	0.000000e+00	
1.746524e+00	-7.965773e-01	1.344374e+00	5.025152e-02	-1.993093e+02	3.052694e+05	1.161981e+05	3.010990e+02	4.261908e-01	2.096939e+01	0.000000e+00	
1.114880e+00	-4.060739e-01	1.343542e+00	-6.494062e-04	-2.055689e+02	3.061981e+05	1.161886e+05	3.012609e+02	4.397299e-01	2.095609e+01	0.000000e+00	
1.166696e+00	-4.311516e-01	1.343627e+00	3.256360e-03	-2.047808e+02	3.060805e+05	1.161901e+05	3.012457e+02	4.380274e-01	2.095817e+01	0.000000e+00	
1.221074e+00	-4.564179e-01	1.343708e+00	9.087944e-03	-2.040155e+02	3.059657e+05	1.161912e+05	3.012301e+02	4.363752e-01	2.095965e+01	0.000000e+00	
1.065819e+00	-3.806343e-01	1.343456e+00	-1.527243e-03	-2.063718e+02	3.063180e+05	1.161869e+05	3.012756e+02	4.414646e-01	2.095368e+01	0.000000e+00	
1.800616e+00	-1.123297e+00	1.344433e+00	5.933001e-02	-1.990458e+02	3.052332e+05	1.161995e+05	3.010894e+02	4.256155e-01	2.097137e+01	0.000000e+00	
1.849631e+00	-1.210478e+00	1.344480e+00	6.661960e-02	-1.988356e+02	3.052031e+05	1.162001e+05	3.010804e+02	4.251574e-01	2.097221e+01	0.000000e+00	
1.385424e+00	-5.370981e-01	1.343948e+00	2.311956e-02	-2.020073e+02	3.056672e+05	1.161942e+05	3.011842e+02	4.320357e-01	2.096392e+01	0.000000e+00	
1.331571e+00	-5.093972e-01	1.343872e+00	1.883497e-02	-2.026164e+02	3.057575e+05	1.161933e+05	3.011991e+02	4.333523e-01	2.096266e+01	0.000000e+00	
1.276546e+00	-4.824460e-01	1.343792e+00	1.396653e-02	-2.032890e+02	3.058576e+05	1.161923e+05	3.012144e+02	4.348055e-01	2.096133e+01	0.000000e+00	
1.438132e+00	-5.652974e-01	1.344020e+00	2.738820e-02	-2.014642e+02	3.055867e+05	1.161949e+05	3.011700e+02	4.308613e-01	2.096493e+01	0.000000e+00	
1.490036e+00	-5.937899e-01	1.344088e+00	3.145045e-02	-2.009847e+02	3.055157e+05	1.161955e+05	3.011564e+02	4.298238e-01	2.096583e+01	0.000000e+00	
1.541481e+00	-6.224415e-01	1.344151e+00	3.549556e-02	-2.005633e+02	3.054534e+05	1.161961e+05	3.011436e+02	4.289115e-01	2.096660e+01	0.000000e+00	
1.592697e+00	-6.511767e-01	1.344211e+00	3.940324e-02	-2.001931e+02	3.053988e+05	1.161966e+05	3.011315e+02	4.281094e-01	2.096728e+01	0.000000e+00	
1.643806e+00	-6.799565e-01	1.344267e+00	4.315190e-02	-1.998665e+02	3.053506e+05	1.161970e+05	3.011200e+02	4.274013e-01	2.096786e+01	0.000000e+00	
1.694866e+00	-7.087628e-01	1.344320e+00	4.667099e-02	-1.995761e+02	3.053078e+05	1.161973e+05	3.011091e+02	4.267713e-01	2.096837e+01	0.000000e+00	
1.745898e+00	-7.375912e-01	1.344370e+00	4.997141e-02	-1.993148e+02	3.052692e+05	1.161977e+05	3.010988e+02	4.262041e-01	2.096882e+01	0.000000e+00	
1.000000e+00	-3.571429e-01	1.343382e+00	-5.369027e-03	-2.071787e+02	3.064405e+05	1.161859e+05	3.012898e+02	4.432050e-01	2.095227e+01	0.000000e+00	
1.799997e+00	-1.063912e+00	1.344438e+00	5.823412e-02	-1.990539e+02	3.052356e+05	1.161999e+05	3.010894e+02	4.256310e-01	2.097205e+01	0.000000e+00	
1.799274e+00	-1.004360e+00	1.344429e+00	5.711105e-02	-1.990566e+02	3.052342e+05	1.161992e+05	3.010895e+02	4.256397e-01	2.097100e+01	0.000000e+00	
1.798648e+00	-9.446210e-01	1.344429e+00	5.530637e-02	-1.990623e+02	3.052347e+05	1.161991e+05	3.010893e+02	4.256521e-01	2.097083e+01	0.000000e+00	
1.850071e+00	-1.152401e+00	1.344480e+00	6.210471e-02	-1.988349e+02	3.052027e+05	1.162000e+05	3.010800e+02	4.251560e-01	2.097206e+01	0.000000e+00	
1.798078e+00	-8.849494e-01	1.344424e+00	5.430390e-02	-1.990666e+02	3.052344e+05	1.161987e+05	3.010892e+02	4.256627e-01	2.097022e+01	0.000000e+00	
1.797506e+00	-8.255463e-01	1.344421e+00	5.347510e-02	-1.990713e+02	3.052342e+05	1.161983e+05	3.010890e+02	4.256740e-01	2.096972e+01	0.000000e+00	
1.796910e+00	-7.664523e-01	1.344417e+00	5.306915e-02	-1.990762e+02	3.052340e+05	1.161979e+05	3.010888e+02	4.256857e-01	2.096920e+01	0.000000e+00	
1.165428e+00	-3.731207e-01	1.343615e+00	1.048520e-02	-2.048049e+02	3.060816e+05	1.161890e+05	3.012455e+02	4.380830e-01	2.095662e+01	0.000000e+00	
1.114066e+00	-3.475137e-01	1.343531e+00	7.630019e-03	-2.055862e+02	3.061982e+05	1.161875e+05	3.012606e+02	4.397708e-01	2.095455e+01	0.000000e+00	