TITLE = "SU2 Simulation"
VARIABLES = "Iteration","CL","CD","CSF","CMx","CMy","CMz","CFx","CFy","CFz","CL/CD","AoA","Custom_ObjFunc","Res_Flow[0]","Res_Flow[1]","Res_Flow[2]","Res_Flow[3]","Res_Flow[4]","Linear_Solver_Iterations","CFL_Number","Time(min)"
ZONE T= "Convergence history"
           0, 0.00000000e+00, 0.00000000e+00, 0.00000000e+00, 0.00000000e+00, 0.00000000e+00, 0.00000000e+00, 0.00000000e+00, 0.00000000e+00, 0.00000000e+00, 0.00000000e+00, 0.00000000e+00, 0.00000000e+00, -1.56881189e+01, 3.00239570e+00, 2.33813398e+00, 4.53425386e+00, 0.00000000e+00, 5.0000000000, 5.0000000000, 0.0019016368
           1, 0.00000000e+00, 0.00000000e+00, 0.00000000e+00, 0.00000000e+00, 0.00000000e+00, 0.00000000e+00, 0.00000000e+00, 0.00000000e+00, 0.00000000e+00, 0.00000000e+00, 0.00000000e+00, 0.00000000e+00, -4.15519216e-01, 2.75811824e+00, 2.55377174e+00, 5.08740232e+00, 0.00000000e+00, 5.0000000000, 5.0000000000, 0.0039384835
           2, 0.00000000e+00, 0.00000000e+00, 0.00000000e+00, 0.00000000e+00, 0.00000000e+00, 0.00000000e+00, 0.00000000e+00, 0.00000000e+00, 0.00000000e+00, 0.00000000e+00, 0.00000000e+00, 0.00000000e+00, -3.32330519e-01, 2.44142861e+00, 2.47725818e+00, 5.14106820e+00, 0.00000000e+00, 5.0000000000, 5.0000000000, 0.0056329226
           3, 0.00000000e+00, 0.00000000e+00, 0.00000000e+00, 0.00000000e+00, 0.00000000e+00, 0.00000000e+00, 0.00000000e+00, 0.00000000e+00, 0.00000000e+00, 0.00000000e+00, 0.00000000e+00, 0.00000000e+00, -3.60752453e-01, 2.10555764e+00, 2.34071447e+00, 5.10185234e+00, 0.00000000e+00, 5.0000000000, 5.0000000000, 0.0073663568
           4, 0.00000000e+00, 0.00000000e+00, 0.00000000e+00, 0.00000000e+00, 0.00000000e+00, 0.00000000e+00, 0.00000000e+00, 0.00000000e+00, 0.00000000e+00, 0.00000000e+00, 0.00000000e+00, 0.00000000e+00, -4.05233359e-01, 1.89458461e+00, 2.20202557e+00, 5.05493977e+00, 0.00000000e+00, 5.0000000000, 5.0000000000, 0.0090709159
           5, 0.00000000e+00, 0.00000000e+00, 0.00000000e+00, 0.00000000e+00, 0.00000000e+00, 0.00000000e+00, 0.00000000e+00, 0.00000000e+00, 0.00000000e+00, 0.00000000e+00, 0.00000000e+00, 0.00000000e+00, -4.43849132e-01, 1.90483316e+00, 2.08136388e+00, 5.01815607e+00, 0.00000000e+00, 5.0000000000, 5.0000000000, 0.0112149981
           6, 0.00000000e+00, 0.00000000e+00, 0.00000000e+00, 0.00000000e+00, 0.00000000e+00, 0.00000000e+00, 0.00000000e+00, 0.00000000e+00, 0.00000000e+00, 0.00000000e+00, 0.00000000e+00, 0.00000000e+00, -4.83672570e-01, 1.96259451e+00, 1.98301740e+00, 4.98088477e+00, 0.00000000e+00, 5.0000000000, 5.0000000000, 0.0133505152
           7, 0.00000000e+00, 0.00000000e+00, 0.00000000e+00, 0.00000000e+00, 0.00000000e+00, 0.00000000e+00, 0.00000000e+00, 0.00000000e+00, 0.00000000e+00, 0.00000000e+00, 0.00000000e+00, 0.00000000e+00, -5.37486012e-01, 2.01048939e+00, 1.90392132e+00, 4.92874084e+00, 0.00000000e+00, 5.0000000000, 5.0000000000, 0.0151559547
           8, 0.00000000e+00, 0.00000000e+00, 0.00000000e+00, 0.00000000e+00, 0.00000000e+00, 0.00000000e+00, 0.00000000e+00, 0.00000000e+00, 0.00000000e+00, 0.00000000e+00, 0.00000000e+00, 0.00000000e+00, -6.16072892e-01, 2.04676275e+00, 1.84043392e+00, 4.85085349e+00, 0.00000000e+00, 5.0000000000, 5.0000000000, 0.0175884868
           9, 0.00000000e+00, 0.00000000e+00, 0.00000000e+00, 0.00000000e+00, 0.00000000e+00, 0.00000000e+00, 0.00000000e+00, 0.00000000e+00, 0.00000000e+00, 0.00000000e+00, 0.00000000e+00, 0.00000000e+00, -7.29175066e-01, 2.07179191e+00, 1.79012992e+00, 4.73851475e+00, 0.00000000e+00, 5.0000000000, 5.0000000000, 0.0198699193
          10, 0.00000000e+00, 0.00000000e+00, 0.00000000e+00, 0.00000000e+00, 0.00000000e+00, 0.00000000e+00, 0.00000000e+00, 0.00000000e+00, 0.00000000e+00, 0.00000000e+00, 0.00000000e+00, 0.00000000e+00, -8.83201524e-01, 2.08449381e+00, 1.75116347e+00, 4.58887361e+00, 0.00000000e+00, 5.0000000000, 5.0000000000, 0.0219663868
          11, 0.00000000e+00, 0.00000000e+00, 0.00000000e+00, 0.00000000e+00, 0.00000000e+00, 0.00000000e+00, 0.00000000e+00, 0.00000000e+00, 0.00000000e+00, 0.00000000e+00, 0.00000000e+00, 0.00000000e+00, -1.04546283e+00, 2.08378037e+00, 1.72174175e+00, 4.44236790e+00, 0.00000000e+00, 5.0000000000, 5.0000000000, 0.0238723090
          12, 0.00000000e+00, 0.00000000e+00, 0.00000000e+00, 0.00000000e+00, 0.00000000e+00, 0.00000000e+00, 0.00000000e+00, 0.00000000e+00, 0.00000000e+00, 0.00000000e+00, 0.00000000e+00, 0.00000000e+00, -1.06331861e+00, 2.06938177e+00, 1.70004795e+00, 4.43329591e+00, 0.00000000e+00, 5.0000000000, 5.0000000000, 0.0257323756
          13, 0.00000000e+00, 0.00000000e+00, 0.00000000e+00, 0.00000000e+00, 0.00000000e+00, 0.00000000e+00, 0.00000000e+00, 0.00000000e+00, 0.00000000e+00, 0.00000000e+00, 0.00000000e+00, 0.00000000e+00, -9.49502147e-01, 2.04199511e+00, 1.68419626e+00, 4.53456860e+00, 0.00000000e+00, 5.0000000000, 5.0000000000, 0.0276221608
          14, 0.00000000e+00, 0.00000000e+00, 0.00000000e+00, 0.00000000e+00, 0.00000000e+00, 0.00000000e+00, 0.00000000e+00, 0.00000000e+00, 0.00000000e+00, 0.00000000e+00, 0.00000000e+00, 0.00000000e+00, -8.49004070e-01, 2.00323796e+00, 1.67215434e+00, 4.62479245e+00, 0.00000000e+00, 5.0000000000, 5.0000000000, 0.0295056154
          15, 0.00000000e+00, 0.00000000e+00, 0.00000000e+00, 0.00000000e+00, 0.00000000e+00, 0.00000000e+00, 0.00000000e+00, 0.00000000e+00, 0.00000000e+00, 0.00000000e+00, 0.00000000e+00, 0.00000000e+00, -7.86323793e-01, 1.95553028e+00, 1.66194064e+00, 4.68117366e+00, 0.00000000e+00, 5.0000000000, 5.0000000000, 0.0312521632
          16, 0.00000000e+00, 0.00000000e+00, 0.00000000e+00, 0.00000000e+00, 0.00000000e+00, 0.00000000e+00, 0.00000000e+00, 0.00000000e+00, 0.00000000e+00, 0.00000000e+00, 0.00000000e+00, 0.00000000e+00, -7.53689189e-01, 1.90186322e+00, 1.65203863e+00, 4.70968502e+00, 0.00000000e+00, 5.0000000000, 5.0000000000, 0.0330378945
          17, 0.00000000e+00, 0.00000000e+00, 0.00000000e+00, 0.00000000e+00, 0.00000000e+00, 0.00000000e+00, 0.00000000e+00, 0.00000000e+00, 0.00000000e+00, 0.00000000e+00, 0.00000000e+00, 0.00000000e+00, -7.42111615e-01, 1.84543169e+00, 1.64166208e+00, 4.71832532e+00, 0.00000000e+00, 5.0000000000, 5.0000000000, 0.0348273222
          18, 0.00000000e+00, 0.00000000e+00, 0.00000000e+00, 0.00000000e+00, 0.00000000e+00, 0.00000000e+00, 0.00000000e+00, 0.00000000e+00, 0.00000000e+00, 0.00000000e+00, 0.00000000e+00, 0.00000000e+00, -7.44210647e-01, 1.78919264e+00, 1.63067752e+00, 4.71397229e+00, 0.00000000e+00, 5.0000000000, 5.0000000000, 0.0372639153
          19, 0.00000000e+00, 0.00000000e+00, 0.00000000e+00, 0.00000000e+00, 0.00000000e+00, 0.00000000e+00, 0.00000000e+00, 0.00000000e+00, 0.00000000e+00, 0.00000000e+00, 0.00000000e+00, 0.00000000e+00, -7.54098828e-01, 1.73553566e+00, 1.61928195e+00, 4.70223592e+00, 0.00000000e+00, 5.0000000000, 5.0000000000, 0.0404414261
          20, 0.00000000e+00, 0.00000000e+00, 0.00000000e+00, 0.00000000e+00, 0.00000000e+00, 0.00000000e+00, 0.00000000e+00, 0.00000000e+00, 0.00000000e+00, 0.00000000e+00, 0.00000000e+00, 0.00000000e+00, -7.67381191e-01, 1.68616168e+00, 1.60765491e+00, 4.68735037e+00, 0.00000000e+00, 5.0000000000, 5.0000000000, 0.0429493265
          21, 0.00000000e+00, 0.00000000e+00, 0.00000000e+00, 0.00000000e+00, 0.00000000e+00, 0.00000000e+00, 0.00000000e+00, 0.00000000e+00, 0.00000000e+00, 0.00000000e+00, 0.00000000e+00, 0.00000000e+00, -7.81349320e-01, 1.64206372e+00, 1.59574172e+00, 4.67193790e+00, 0.00000000e+00, 5.0000000000, 5.0000000000, 0.0447178490
          22, 0.00000000e+00, 0.00000000e+00, 0.00000000e+00, 0.00000000e+00, 0.00000000e+00, 0.00000000e+00, 0.00000000e+00, 0.00000000e+00, 0.00000000e+00, 0.00000000e+00, 0.00000000e+00, 0.00000000e+00, -7.94997203e-01, 1.60350623e+00, 1.58321512e+00, 4.65699022e+00, 0.00000000e+00, 5.0000000000, 5.0000000000, 0.0467171061
          23, 0.00000000e+00, 0.00000000e+00, 0.00000000e+00, 0.00000000e+00, 0.00000000e+00, 0.00000000e+00, 0.00000000e+00, 0.00000000e+00, 0.00000000e+00, 0.00000000e+00, 0.00000000e+00, 0.00000000e+00, -8.08709630e-01, 1.56997876e+00, 1.56959602e+00, 4.64218969e+00, 0.00000000e+00, 5.0000000000, 5.0000000000, 0.0487128576
          24, 0.00000000e+00, 0.00000000e+00, 0.00000000e+00, 0.00000000e+00, 0.00000000e+00, 0.00000000e+00, 0.00000000e+00, 0.00000000e+00, 0.00000000e+00, 0.00000000e+00, 0.00000000e+00, 0.00000000e+00, -8.23729045e-01, 1.54027788e+00, 1.55437885e+00, 4.62641607e+00, 0.00000000e+00, 5.0000000000, 5.0000000000, 0.0508609978
          25, 0.00000000e+00, 0.00000000e+00, 0.00000000e+00, 0.00000000e+00, 0.00000000e+00, 0.00000000e+00, 0.00000000e+00, 0.00000000e+00, 0.00000000e+00, 0.00000000e+00, 0.00000000e+00, 0.00000000e+00, -8.41576331e-01, 1.51281197e+00, 1.53719465e+00, 4.60829921e+00, 0.00000000e+00, 5.0000000000, 5.0000000000, 0.0528190541
          26, 0.00000000e+00, 0.00000000e+00, 0.00000000e+00, 0.00000000e+00, 0.00000000e+00, 0.00000000e+00, 0.00000000e+00, 0.00000000e+00, 0.00000000e+00, 0.00000000e+00, 0.00000000e+00, 0.00000000e+00, -8.63562017e-01, 1.48609608e+00, 1.51795723e+00, 4.58669191e+00, 0.00000000e+00, 5.0000000000, 5.0000000000, 0.0547162891
          27, 0.00000000e+00, 0.00000000e+00, 0.00000000e+00, 0.00000000e+00, 0.00000000e+00, 0.00000000e+00, 0.00000000e+00, 0.00000000e+00, 0.00000000e+00, 0.00000000e+00, 0.00000000e+00, 0.00000000e+00, -8.90354011e-01, 1.45936357e+00, 1.49698122e+00, 4.56109741e+00, 0.00000000e+00, 5.0000000000, 5.0000000000, 0.0565953641
          28, 0.00000000e+00, 0.00000000e+00, 0.00000000e+00, 0.00000000e+00, 0.00000000e+00, 0.00000000e+00, 0.00000000e+00, 0.00000000e+00, 0.00000000e+00, 0.00000000e+00, 0.00000000e+00, 0.00000000e+00, -9.21502304e-01, 1.43322836e+00, 1.47506639e+00, 4.53214176e+00, 0.00000000e+00, 5.0000000000, 5.0000000000, 0.0585754834
          29, 0.00000000e+00, 0.00000000e+00, 0.00000000e+00, 0.00000000e+00, 0.00000000e+00, 0.00000000e+00, 0.00000000e+00, 0.00000000e+00, 0.00000000e+00, 0.00000000e+00, 0.00000000e+00, 0.00000000e+00, -9.54858283e-01, 1.41024528e+00, 1.45352234e+00, 4.50211899e+00, 0.00000000e+00, 5.0000000000, 5.0000000000, 0.0604736583
          30, 0.00000000e+00, 0.00000000e+00, 0.00000000e+00, 0.00000000e+00, 0.00000000e+00, 0.00000000e+00, 0.00000000e+00, 0.00000000e+00, 0.00000000e+00, 0.00000000e+00, 0.00000000e+00, 0.00000000e+00, -9.86083559e-01, 1.39486477e+00, 1.43407813e+00, 4.47535660e+00, 0.00000000e+00, 5.0000000000, 5.0000000000, 0.0624277283
          31, 0.00000000e+00, 0.00000000e+00, 0.00000000e+00, 0.00000000e+00, 0.00000000e+00, 0.00000000e+00, 0.00000000e+00, 0.00000000e+00, 0.00000000e+00, 0.00000000e+00, 0.00000000e+00, 0.00000000e+00, -1.00896065e+00, 1.39196254e+00, 1.41862468e+00, 4.45768416e+00, 0.00000000e+00, 5.0000000000, 5.0000000000, 0.0642619088
          32, 0.00000000e+00, 0.00000000e+00, 0.00000000e+00, 0.00000000e+00, 0.00000000e+00, 0.00000000e+00, 0.00000000e+00, 0.00000000e+00, 0.00000000e+00, 0.00000000e+00, 0.00000000e+00, 0.00000000e+00, -1.01765486e+00, 1.40392173e+00, 1.40876451e+00, 4.45410569e+00, 0.00000000e+00, 5.0000000000, 5.0000000000, 0.0660234615
          33, 0.00000000e+00, 0.00000000e+00, 0.00000000e+00, 0.00000000e+00, 0.00000000e+00, 0.00000000e+00, 0.00000000e+00, 0.00000000e+00, 0.00000000e+00, 0.00000000e+00, 0.00000000e+00, 0.00000000e+00, -1.01040178e+00, 1.42856665e+00, 1.40527115e+00, 4.46556491e+00, 0.00000000e+00, 5.0000000000, 5.0000000000, 0.0680179499
          34, 0.00000000e+00, 0.00000000e+00, 0.00000000e+00, 0.00000000e+00, 0.00000000e+00, 0.00000000e+00, 0.00000000e+00, 0.00000000e+00, 0.00000000e+00, 0.00000000e+00, 0.00000000e+00, 0.00000000e+00, -9.90951041e-01, 1.46032966e+00, 1.40774022e+00, 4.48809650e+00, 0.00000000e+00, 5.0000000000, 5.0000000000, 0.0697907637
          35, 0.00000000e+00, 0.00000000e+00, 0.00000000e+00, 0.00000000e+00, 0.00000000e+00, 0.00000000e+00, 0.00000000e+00, 0.00000000e+00, 0.00000000e+00, 0.00000000e+00, 0.00000000e+00, 0.00000000e+00, -9.65937035e-01, 1.49320076e+00, 1.41468515e+00, 4.51540893e+00, 0.00000000e+00, 5.0000000000, 5.0000000000, 0.0717944376
          36, 0.00000000e+00, 0.00000000e+00, 0.00000000e+00, 0.00000000e+00, 0.00000000e+00, 0.00000000e+00, 0.00000000e+00, 0.00000000e+00, 0.00000000e+00, 0.00000000e+00, 0.00000000e+00, 0.00000000e+00, -9.41353695e-01, 1.52272586e+00, 1.42404658e+00, 4.54193884e+00, 0.00000000e+00, 5.0000000000, 5.0000000000, 0.0735637228
          37, 0.00000000e+00, 0.00000000e+00, 0.00000000e+00, 0.00000000e+00, 0.00000000e+00, 0.00000000e+00, 0.00000000e+00, 0.00000000e+00, 0.00000000e+00, 0.00000000e+00, 0.00000000e+00, 0.00000000e+00, -9.20996375e-01, 1.54642416e+00, 1.43380798e+00, 4.56414673e+00, 0.00000000e+00, 5.0000000000, 5.0000000000, 0.0753461369
          38, 0.00000000e+00, 0.00000000e+00, 0.00000000e+00, 0.00000000e+00, 0.00000000e+00, 0.00000000e+00, 0.00000000e+00, 0.00000000e+00, 0.00000000e+00, 0.00000000e+00, 0.00000000e+00, 0.00000000e+00, -9.06571033e-01, 1.56342924e+00, 1.44242072e+00, 4.58040995e+00, 0.00000000e+00, 5.0000000000, 5.0000000000, 0.0771319807
          39, 0.00000000e+00, 0.00000000e+00, 0.00000000e+00, 0.00000000e+00, 0.00000000e+00, 0.00000000e+00, 0.00000000e+00, 0.00000000e+00, 0.00000000e+00, 0.00000000e+00, 0.00000000e+00, 0.00000000e+00, -8.98313670e-01, 1.57398389e+00, 1.44895248e+00, 4.59048058e+00, 0.00000000e+00, 5.0000000000, 5.0000000000, 0.0789211661
          40, 0.00000000e+00, 0.00000000e+00, 0.00000000e+00, 0.00000000e+00, 0.00000000e+00, 0.00000000e+00, 0.00000000e+00, 0.00000000e+00, 0.00000000e+00, 0.00000000e+00, 0.00000000e+00, 0.00000000e+00, -8.95559866e-01, 1.57898540e+00, 1.45302881e+00, 4.59497350e+00, 0.00000000e+00, 5.0000000000, 5.0000000000, 0.0806888341
          41, 0.00000000e+00, 0.00000000e+00, 0.00000000e+00, 0.00000000e+00, 0.00000000e+00, 0.00000000e+00, 0.00000000e+00, 0.00000000e+00, 0.00000000e+00, 0.00000000e+00, 0.00000000e+00, 0.00000000e+00, -8.97164950e-01, 1.57959608e+00, 1.45467807e+00, 4.59497253e+00, 0.00000000e+00, 5.0000000000, 5.0000000000, 0.0825257750
          42, 0.00000000e+00, 0.00000000e+00, 0.00000000e+00, 0.00000000e+00, 0.00000000e+00, 0.00000000e+00, 0.00000000e+00, 0.00000000e+00, 0.00000000e+00, 0.00000000e+00, 0.00000000e+00, 0.00000000e+00, -9.01798166e-01, 1.57693308e+00, 1.45415732e+00, 4.59174479e+00, 0.00000000e+00, 5.0000000000, 5.0000000000, 0.0843483852
          43, 0.00000000e+00, 0.00000000e+00, 0.00000000e+00, 0.00000000e+00, 0.00000000e+00, 0.00000000e+00, 0.00000000e+00, 0.00000000e+00, 0.00000000e+00, 0.00000000e+00, 0.00000000e+00, 0.00000000e+00, -9.08154098e-01, 1.57185901e+00, 1.45180872e+00, 4.58653181e+00, 0.00000000e+00, 5.0000000000, 5.0000000000, 0.0861372816
          44, 0.00000000e+00, 0.00000000e+00, 0.00000000e+00, 0.00000000e+00, 0.00000000e+00, 0.00000000e+00, 0.00000000e+00, 0.00000000e+00, 0.00000000e+00, 0.00000000e+00, 0.00000000e+00, 0.00000000e+00, -9.15099937e-01, 1.56489542e+00, 1.44795927e+00, 4.58040847e+00, 0.00000000e+00, 5.0000000000, 5.0000000000, 0.0879982967
          45, 0.00000000e+00, 0.00000000e+00, 0.00000000e+00, 0.00000000e+00, 0.00000000e+00, 0.00000000e+00, 0.00000000e+00, 0.00000000e+00, 0.00000000e+00, 0.00000000e+00, 0.00000000e+00, 0.00000000e+00, -9.21773629e-01, 1.55624113e+00, 1.44285976e+00, 4.57419509e+00, 0.00000000e+00, 5.0000000000, 5.0000000000, 0.0898400992
          46, 0.00000000e+00, 0.00000000e+00, 0.00000000e+00, 0.00000000e+00, 0.00000000e+00, 0.00000000e+00, 0.00000000e+00, 0.00000000e+00, 0.00000000e+00, 0.00000000e+00, 0.00000000e+00, 0.00000000e+00, -9.27630132e-01, 1.54584861e+00, 1.43665714e+00, 4.56842275e+00, 0.00000000e+00, 5.0000000000, 5.0000000000, 0.0926251940
          47, 0.00000000e+00, 0.00000000e+00, 0.00000000e+00, 0.00000000e+00, 0.00000000e+00, 0.00000000e+00, 0.00000000e+00, 0.00000000e+00, 0.00000000e+00, 0.00000000e+00, 0.00000000e+00, 0.00000000e+00, -9.32434310e-01, 1.53350527e+00, 1.42939144e+00, 4.56334712e+00, 0.00000000e+00, 5.0000000000, 5.0000000000, 0.0954911784
          48, 0.00000000e+00, 0.00000000e+00, 0.00000000e+00, 0.00000000e+00, 0.00000000e+00, 0.00000000e+00, 0.00000000e+00, 0.00000000e+00, 0.00000000e+00, 0.00000000e+00, 0.00000000e+00, 0.00000000e+00, -9.36208217e-01, 1.51888930e+00, 1.42101006e+00, 4.55899987e+00, 0.00000000e+00, 5.0000000000, 5.0000000000, 0.0972610021
          49, 0.00000000e+00, 0.00000000e+00, 0.00000000e+00, 0.00000000e+00, 0.00000000e+00, 0.00000000e+00, 0.00000000e+00, 0.00000000e+00, 0.00000000e+00, 0.00000000e+00, 0.00000000e+00, 0.00000000e+00, -9.39152380e-01, 1.50159898e+00, 1.41139101e+00, 4.55525853e+00, 0.00000000e+00, 5.0000000000, 5.0000000000, 0.0990942657
          50, 0.00000000e+00, 0.00000000e+00, 0.00000000e+00, 0.00000000e+00, 0.00000000e+00, 0.00000000e+00, 0.00000000e+00, 0.00000000e+00, 0.00000000e+00, 0.00000000e+00, 0.00000000e+00, 0.00000000e+00, -9.41564781e-01, 1.48117543e+00, 1.40037138e+00, 4.55191509e+00, 0.00000000e+00, 5.0000000000, 5.0000000000, 0.1008840521
          51, 0.00000000e+00, 0.00000000e+00, 0.00000000e+00, 0.00000000e+00, 0.00000000e+00, 0.00000000e+00, 0.00000000e+00, 0.00000000e+00, 0.00000000e+00, 0.00000000e+00, 0.00000000e+00, 0.00000000e+00, -9.43772933e-01, 1.45715106e+00, 1.38777709e+00, 4.54873139e+00, 0.00000000e+00, 5.0000000000, 5.0000000000, 0.1026508481
          52, 0.00000000e+00, 0.00000000e+00, 0.00000000e+00, 0.00000000e+00, 0.00000000e+00, 0.00000000e+00, 0.00000000e+00, 0.00000000e+00, 0.00000000e+00, 0.00000000e+00, 0.00000000e+00, 0.00000000e+00, -9.46084105e-01, 1.42916382e+00, 1.37345295e+00, 4.54547812e+00, 0.00000000e+00, 5.0000000000, 5.0000000000, 0.1044184178
          53, 0.00000000e+00, 0.00000000e+00, 0.00000000e+00, 0.00000000e+00, 0.00000000e+00, 0.00000000e+00, 0.00000000e+00, 0.00000000e+00, 0.00000000e+00, 0.00000000e+00, 0.00000000e+00, 0.00000000e+00, -9.48748299e-01, 1.39719330e+00, 1.35729162e+00, 4.54196414e+00, 0.00000000e+00, 5.0000000000, 5.0000000000, 0.1062034410
          54, 0.00000000e+00, 0.00000000e+00, 0.00000000e+00, 0.00000000e+00, 0.00000000e+00, 0.00000000e+00, 0.00000000e+00, 0.00000000e+00, 0.00000000e+00, 0.00000000e+00, 0.00000000e+00, 0.00000000e+00, -9.51929332e-01, 1.36200140e+00, 1.33926098e+00, 4.53806037e+00, 0.00000000e+00, 5.0000000000, 5.0000000000, 0.1079837452
          55, 0.00000000e+00, 0.00000000e+00, 0.00000000e+00, 0.00000000e+00, 0.00000000e+00, 0.00000000e+00, 0.00000000e+00, 0.00000000e+00, 0.00000000e+00, 0.00000000e+00, 0.00000000e+00, 0.00000000e+00, -9.55681312e-01, 1.32586643e+00, 1.31942951e+00, 4.53372115e+00, 0.00000000e+00, 5.0000000000, 5.0000000000, 0.1097499478
          56, 0.00000000e+00, 0.00000000e+00, 0.00000000e+00, 0.00000000e+00, 0.00000000e+00, 0.00000000e+00, 0.00000000e+00, 0.00000000e+00, 0.00000000e+00, 0.00000000e+00, 0.00000000e+00, 0.00000000e+00, -9.59938133e-01, 1.29349442e+00, 1.29798529e+00, 4.52899602e+00, 0.00000000e+00, 5.0000000000, 5.0000000000, 0.1115292227
          57, 0.00000000e+00, 0.00000000e+00, 0.00000000e+00, 0.00000000e+00, 0.00000000e+00, 0.00000000e+00, 0.00000000e+00, 0.00000000e+00, 0.00000000e+00, 0.00000000e+00, 0.00000000e+00, 0.00000000e+00, -9.64527353e-01, 1.27222713e+00, 1.27523823e+00, 4.52402071e+00, 0.00000000e+00, 5.0000000000, 5.0000000000, 0.1132982455
          58, 0.00000000e+00, 0.00000000e+00, 0.00000000e+00, 0.00000000e+00, 0.00000000e+00, 0.00000000e+00, 0.00000000e+00, 0.00000000e+00, 0.00000000e+00, 0.00000000e+00, 0.00000000e+00, 0.00000000e+00, -9.69205626e-01, 1.26973091e+00, 1.25161170e+00, 4.51898960e+00, 0.00000000e+00, 5.0000000000, 5.0000000000, 0.1151551893
          59, 0.00000000e+00, 0.00000000e+00, 0.00000000e+00, 0.00000000e+00, 0.00000000e+00, 0.00000000e+00, 0.00000000e+00, 0.00000000e+00, 0.00000000e+00, 0.00000000e+00, 0.00000000e+00, 0.00000000e+00, -9.73720607e-01, 1.28904516e+00, 1.22761441e+00, 4.51410352e+00, 0.00000000e+00, 5.0000000000, 5.0000000000, 0.1170026819
          60, 0.00000000e+00, 0.00000000e+00, 0.00000000e+00, 0.00000000e+00, 0.00000000e+00, 0.00000000e+00, 0.00000000e+00, 0.00000000e+00, 0.00000000e+00, 0.00000000e+00, 0.00000000e+00, 0.00000000e+00, -9.77883926e-01, 1.32604678e+00, 1.20380072e+00, 4.50950683e+00, 0.00000000e+00, 5.0000000000, 5.0000000000, 0.1187844200
          61, 0.00000000e+00, 0.00000000e+00, 0.00000000e+00, 0.00000000e+00, 0.00000000e+00, 0.00000000e+00, 0.00000000e+00, 0.00000000e+00, 0.00000000e+00, 0.00000000e+00, 0.00000000e+00, 0.00000000e+00, -9.81633183e-01, 1.37284571e+00, 1.18072949e+00, 4.50523242e+00, 0.00000000e+00, 5.0000000000, 5.0000000000, 0.1213797284
          62, 0.00000000e+00, 0.00000000e+00, 0.00000000e+00, 0.00000000e+00, 0.00000000e+00, 0.00000000e+00, 0.00000000e+00, 0.00000000e+00, 0.00000000e+00, 0.00000000e+00, 0.00000000e+00, 0.00000000e+00, -9.85066085e-01, 1.42247918e+00, 1.15893244e+00, 4.50117072e+00, 0.00000000e+00, 5.0000000000, 5.0000000000, 0.1234035495
          63, 0.00000000e+00, 0.00000000e+00, 0.00000000e+00, 0.00000000e+00, 0.00000000e+00, 0.00000000e+00, 0.00000000e+00, 0.00000000e+00, 0.00000000e+00, 0.00000000e+00, 0.00000000e+00, 0.00000000e+00, -9.88438957e-01, 1.47065388e+00, 1.13891182e+00, 4.49706944e+00, 0.00000000e+00, 5.0000000000, 5.0000000000, 0.1256170051
          64, 0.00000000e+00, 0.00000000e+00, 0.00000000e+00, 0.00000000e+00, 0.00000000e+00, 0.00000000e+00, 0.00000000e+00, 0.00000000e+00, 0.00000000e+00, 0.00000000e+00, 0.00000000e+00, 0.00000000e+00, -9.92134649e-01, 1.51529390e+00, 1.12116987e+00, 4.49256053e+00, 0.00000000e+00, 5.0000000000, 5.0000000000, 0.1273732851
          65, 0.00000000e+00, 0.00000000e+00, 0.00000000e+00, 0.00000000e+00, 0.00000000e+00, 0.00000000e+00, 0.00000000e+00, 0.00000000e+00, 0.00000000e+00, 0.00000000e+00, 0.00000000e+00, 0.00000000e+00, -9.96614489e-01, 1.55564567e+00, 1.10627037e+00, 4.48720216e+00, 0.00000000e+00, 5.0000000000, 5.0000000000, 0.1291148337
          66, 0.00000000e+00, 0.00000000e+00, 0.00000000e+00, 0.00000000e+00, 0.00000000e+00, 0.00000000e+00, 0.00000000e+00, 0.00000000e+00, 0.00000000e+00, 0.00000000e+00, 0.00000000e+00, 0.00000000e+00, -1.00237239e+00, 1.59162118e+00, 1.09490086e+00, 4.48051955e+00, 0.00000000e+00, 5.0000000000, 5.0000000000, 0.1308913107
          67, 0.00000000e+00, 0.00000000e+00, 0.00000000e+00, 0.00000000e+00, 0.00000000e+00, 0.00000000e+00, 0.00000000e+00, 0.00000000e+00, 0.00000000e+00, 0.00000000e+00, 0.00000000e+00, 0.00000000e+00, -1.00990130e+00, 1.62342153e+00, 1.08790320e+00, 4.47203553e+00, 0.00000000e+00, 5.0000000000, 5.0000000000, 0.1326435196
          68, 0.00000000e+00, 0.00000000e+00, 0.00000000e+00, 0.00000000e+00, 0.00000000e+00, 0.00000000e+00, 0.00000000e+00, 0.00000000e+00, 0.00000000e+00, 0.00000000e+00, 0.00000000e+00, 0.00000000e+00, -1.01967578e+00, 1.65134461e+00, 1.08621628e+00, 4.46128724e+00, 0.00000000e+00, 5.0000000000, 5.0000000000, 0.1344072765
          69, 0.00000000e+00, 0.00000000e+00, 0.00000000e+00, 0.00000000e+00, 0.00000000e+00, 0.00000000e+00, 0.00000000e+00, 0.00000000e+00, 0.00000000e+00, 0.00000000e+00, 0.00000000e+00, 0.00000000e+00, -1.03215281e+00, 1.67569364e+00, 1.09070116e+00, 4.44782553e+00, 0.00000000e+00, 5.0000000000, 5.0000000000, 0.1361580539
          70, 0.00000000e+00, 0.00000000e+00, 0.00000000e+00, 0.00000000e+00, 0.00000000e+00, 0.00000000e+00, 0.00000000e+00, 0.00000000e+00, 0.00000000e+00, 0.00000000e+00, 0.00000000e+00, 0.00000000e+00, -1.04778099e+00, 1.69673803e+00, 1.10187230e+00, 4.43120767e+00, 0.00000000e+00, 5.0000000000, 5.0000000000, 0.1378797434
          71, 0.00000000e+00, 0.00000000e+00, 0.00000000e+00, 0.00000000e+00, 0.00000000e+00, 0.00000000e+00, 0.00000000e+00, 0.00000000e+00, 0.00000000e+00, 0.00000000e+00, 0.00000000e+00, 0.00000000e+00, -1.06701853e+00, 1.71470048e+00, 1.11964296e+00, 4.41098185e+00, 0.00000000e+00, 5.0000000000, 5.0000000000, 0.1396250831
          72, 0.00000000e+00, 0.00000000e+00, 0.00000000e+00, 0.00000000e+00, 0.00000000e+00, 0.00000000e+00, 0.00000000e+00, 0.00000000e+00, 0.00000000e+00, 0.00000000e+00, 0.00000000e+00, 0.00000000e+00, -1.09036332e+00, 1.72975618e+00, 1.14323335e+00, 4.38665955e+00, 0.00000000e+00, 5.0000000000, 5.0000000000, 0.1413654986
          73, 0.00000000e+00, 0.00000000e+00, 0.00000000e+00, 0.00000000e+00, 0.00000000e+00, 0.00000000e+00, 0.00000000e+00, 0.00000000e+00, 0.00000000e+00, 0.00000000e+00, 0.00000000e+00, 0.00000000e+00, -1.11837825e+00, 1.74203741e+00, 1.17128989e+00, 4.35769498e+00, 0.00000000e+00, 5.0000000000, 5.0000000000, 0.1436063869
          74, 0.00000000e+00, 0.00000000e+00, 0.00000000e+00, 0.00000000e+00, 0.00000000e+00, 0.00000000e+00, 0.00000000e+00, 0.00000000e+00, 0.00000000e+00, 0.00000000e+00, 0.00000000e+00, 0.00000000e+00, -1.15172864e+00, 1.75164103e+00, 1.20216477e+00, 4.32345341e+00, 0.00000000e+00, 5.0000000000, 5.0000000000, 0.1457049703
          75, 0.00000000e+00, 0.00000000e+00, 0.00000000e+00, 0.00000000e+00, 0.00000000e+00, 0.00000000e+00, 0.00000000e+00, 0.00000000e+00, 0.00000000e+00, 0.00000000e+00, 0.00000000e+00, 0.00000000e+00, -1.19120608e+00, 1.75863681e+00, 1.23420523e+00, 4.28319696e+00, 0.00000000e+00, 5.0000000000, 5.0000000000, 0.1494293412
          76, 0.00000000e+00, 0.00000000e+00, 0.00000000e+00, 0.00000000e+00, 0.00000000e+00, 0.00000000e+00, 0.00000000e+00, 0.00000000e+00, 0.00000000e+00, 0.00000000e+00, 0.00000000e+00, 0.00000000e+00, -1.23770955e+00, 1.76307351e+00, 1.26595153e+00, 4.23612611e+00, 0.00000000e+00, 5.0000000000, 5.0000000000, 0.1513451516
          77, 0.00000000e+00, 0.00000000e+00, 0.00000000e+00, 0.00000000e+00, 0.00000000e+00, 0.00000000e+00, 0.00000000e+00, 0.00000000e+00, 0.00000000e+00, 0.00000000e+00, 0.00000000e+00, 0.00000000e+00, -1.29211196e+00, 1.76498508e+00, 1.29622646e+00, 4.18155467e+00, 0.00000000e+00, 5.0000000000, 5.0000000000, 0.1531246118
          78, 0.00000000e+00, 0.00000000e+00, 0.00000000e+00, 0.00000000e+00, 0.00000000e+00, 0.00000000e+00, 0.00000000e+00, 0.00000000e+00, 0.00000000e+00, 0.00000000e+00, 0.00000000e+00, 0.00000000e+00, -1.35474003e+00, 1.76439809e+00, 1.32414138e+00, 4.11951323e+00, 0.00000000e+00, 5.0000000000, 5.0000000000, 0.1548637286
          79, 0.00000000e+00, 0.00000000e+00, 0.00000000e+00, 0.00000000e+00, 0.00000000e+00, 0.00000000e+00, 0.00000000e+00, 0.00000000e+00, 0.00000000e+00, 0.00000000e+00, 0.00000000e+00, 0.00000000e+00, -1.42377748e+00, 1.76133717e+00, 1.34905975e+00, 4.05246634e+00, 0.00000000e+00, 5.0000000000, 5.0000000000, 0.1566785266
          80, 0.00000000e+00, 0.00000000e+00, 0.00000000e+00, 0.00000000e+00, 0.00000000e+00, 0.00000000e+00, 0.00000000e+00, 0.00000000e+00, 0.00000000e+00, 0.00000000e+00, 0.00000000e+00, 0.00000000e+00, -1.49114951e+00, 1.75582967e+00, 1.37054931e+00, 3.98934889e+00, 0.00000000e+00, 5.0000000000, 5.0000000000, 0.1586102024
          81, 0.00000000e+00, 0.00000000e+00, 0.00000000e+00, 0.00000000e+00, 0.00000000e+00, 0.00000000e+00, 0.00000000e+00, 0.00000000e+00, 0.00000000e+00, 0.00000000e+00, 0.00000000e+00, 0.00000000e+00, -1.53642760e+00, 1.74790924e+00, 1.38833641e+00, 3.95034523e+00, 0.00000000e+00, 5.0000000000, 5.0000000000, 0.1604373423
          82, 0.00000000e+00, 0.00000000e+00, 0.00000000e+00, 0.00000000e+00, 0.00000000e+00, 0.00000000e+00, 0.00000000e+00, 0.00000000e+00, 0.00000000e+00, 0.00000000e+00, 0.00000000e+00, 0.00000000e+00, -1.53311125e+00, 1.73761883e+00, 1.40226697e+00, 3.95845231e+00, 0.00000000e+00, 5.0000000000, 5.0000000000, 0.1622554224
          83, 0.00000000e+00, 0.00000000e+00, 0.00000000e+00, 0.00000000e+00, 0.00000000e+00, 0.00000000e+00, 0.00000000e+00, 0.00000000e+00, 0.00000000e+00, 0.00000000e+00, 0.00000000e+00, 0.00000000e+00, -1.47935963e+00, 1.72501020e+00, 1.41227580e+00, 4.01258500e+00, 0.00000000e+00, 5.0000000000, 5.0000000000, 0.1641229505
          84, 0.00000000e+00, 0.00000000e+00, 0.00000000e+00, 0.00000000e+00, 0.00000000e+00, 0.00000000e+00, 0.00000000e+00, 0.00000000e+00, 0.00000000e+00, 0.00000000e+00, 0.00000000e+00, 0.00000000e+00, -1.40103119e+00, 1.71013853e+00, 1.41836429e+00, 4.08884273e+00, 0.00000000e+00, 5.0000000000, 5.0000000000, 0.1659386978
          85, 0.00000000e+00, 0.00000000e+00, 0.00000000e+00, 0.00000000e+00, 0.00000000e+00, 0.00000000e+00, 0.00000000e+00, 0.00000000e+00, 0.00000000e+00, 0.00000000e+00, 0.00000000e+00, 0.00000000e+00, -1.32050530e+00, 1.69305122e+00, 1.42058158e+00, 4.16726720e+00, 0.00000000e+00, 5.0000000000, 5.0000000000, 0.1677701760
          86, 0.00000000e+00, 0.00000000e+00, 0.00000000e+00, 0.00000000e+00, 0.00000000e+00, 0.00000000e+00, 0.00000000e+00, 0.00000000e+00, 0.00000000e+00, 0.00000000e+00, 0.00000000e+00, 0.00000000e+00, -1.24735509e+00, 1.67377055e+00, 1.41900783e+00, 4.23908186e+00, 0.00000000e+00, 5.0000000000, 5.0000000000, 0.1699910711
          87, 0.00000000e+00, 0.00000000e+00, 0.00000000e+00, 0.00000000e+00, 0.00000000e+00, 0.00000000e+00, 0.00000000e+00, 0.00000000e+00, 0.00000000e+00, 0.00000000e+00, 0.00000000e+00, 0.00000000e+00, -1.18413427e+00, 1.65227044e+00, 1.41373870e+00, 4.30175779e+00, 0.00000000e+00, 5.0000000000, 5.0000000000, 0.1718604712
          88, 0.00000000e+00, 0.00000000e+00, 0.00000000e+00, 0.00000000e+00, 0.00000000e+00, 0.00000000e+00, 0.00000000e+00, 0.00000000e+00, 0.00000000e+00, 0.00000000e+00, 0.00000000e+00, 0.00000000e+00, -1.13084112e+00, 1.62845085e+00, 1.40487150e+00, 4.35514415e+00, 0.00000000e+00, 5.0000000000, 5.0000000000, 0.1736906407
          89, 0.00000000e+00, 0.00000000e+00, 0.00000000e+00, 0.00000000e+00, 0.00000000e+00, 0.00000000e+00, 0.00000000e+00, 0.00000000e+00, 0.00000000e+00, 0.00000000e+00, 0.00000000e+00, 0.00000000e+00, -1.08671533e+00, 1.60211344e+00, 1.39249408e+00, 4.39984207e+00, 0.00000000e+00, 5.0000000000, 5.0000000000, 0.1754961677