/*--------------------------------*- C++ -*----------------------------------*\
  =========                 |
  \\      /  F ield         | OpenFOAM: The Open Source CFD Toolbox
   \\    /   O peration     | Website:  https://openfoam.org
    \\  /    A nd           | Version:  6
     \\/     M anipulation  |
\*---------------------------------------------------------------------------*/
FoamFile
{
    version     2.0;
    format      ascii;
    class       volVectorField;
    location    "387";
    object      U;
}
// * * * * * * * * * * * * * * * * * * * * * * * * * * * * * * * * * * * * * //

dimensions      [0 1 -1 0 0 0 0];

internalField   nonuniform List<vector> 
3200
(
(400 -1.32204e-06 0)
(400 -2.36404e-06 0)
(400 -3.23566e-06 0)
(400 -3.94908e-06 0)
(400 -4.51552e-06 0)
(400 -4.94056e-06 0)
(400 -5.2287e-06 0)
(400 -5.38116e-06 0)
(400 -5.40061e-06 0)
(400 -5.28643e-06 0)
(400 -5.04048e-06 0)
(400 -4.66101e-06 0)
(400 -4.14966e-06 0)
(400 -3.50383e-06 0)
(400 -2.725e-06 0)
(400.002 -1.80988e-06 0)
(399.983 -7.58507e-07 0)
(400.123 4.29036e-07 0)
(399.12 1.75855e-06 0)
(406.3 0.000166869 0)
(394.062 81.7834 0)
(399.083 149.933 0)
(400.882 207.505 0)
(400.245 256.74 0)
(399.995 299.194 0)
(400.04 336.063 0)
(400.045 368.296 0)
(400.027 396.639 0)
(400.019 421.689 0)
(400.015 443.928 0)
(400.011 463.751 0)
(400.008 481.484 0)
(400.006 497.398 0)
(400.005 511.721 0)
(400.004 524.646 0)
(400.003 536.336 0)
(400.002 546.931 0)
(400.002 556.553 0)
(400.001 565.305 0)
(400.001 573.279 0)
(400.001 580.555 0)
(400 587.203 0)
(400 593.283 0)
(400 598.85 0)
(400 603.953 0)
(400 608.634 0)
(400 612.933 0)
(399.999 616.882 0)
(399.999 620.514 0)
(399.999 623.856 0)
(399.999 626.932 0)
(399.999 629.766 0)
(399.999 632.378 0)
(399.999 634.786 0)
(399.999 637.007 0)
(399.999 639.057 0)
(399.999 640.949 0)
(399.999 642.696 0)
(400 644.31 0)
(399.995 645.801 0)
(400.002 645.801 0)
(399.999 645.801 0)
(399.999 645.801 0)
(399.999 645.801 0)
(399.999 645.801 0)
(399.999 645.801 0)
(399.999 645.801 0)
(399.999 645.801 0)
(399.999 645.801 0)
(399.999 645.801 0)
(399.999 645.801 0)
(399.999 645.801 0)
(399.998 645.801 0)
(399.998 645.801 0)
(399.998 645.801 0)
(399.998 645.801 0)
(399.998 645.801 0)
(399.998 645.801 0)
(399.998 645.801 0)
(399.998 645.801 0)
(400 -9.3723e-07 0)
(400 -1.55367e-06 0)
(400 -1.96412e-06 0)
(400 -2.17434e-06 0)
(400 -2.18594e-06 0)
(400 -1.99567e-06 0)
(400 -1.59554e-06 0)
(400 -9.75379e-07 0)
(400 -1.21476e-07 0)
(400 9.82053e-07 0)
(400 2.35544e-06 0)
(400 4.02152e-06 0)
(400 6.00851e-06 0)
(400 8.3482e-06 0)
(400 1.10794e-05 0)
(400.002 1.42457e-05 0)
(399.983 1.78993e-05 0)
(400.123 2.20952e-05 0)
(399.12 2.69101e-05 0)
(406.3 0.000196046 0)
(394.062 81.7834 0)
(399.083 149.933 0)
(400.882 207.505 0)
(400.245 256.74 0)
(399.995 299.194 0)
(400.04 336.063 0)
(400.045 368.296 0)
(400.027 396.639 0)
(400.019 421.689 0)
(400.015 443.928 0)
(400.011 463.751 0)
(400.008 481.484 0)
(400.006 497.398 0)
(400.005 511.721 0)
(400.004 524.646 0)
(400.003 536.336 0)
(400.002 546.931 0)
(400.002 556.553 0)
(400.001 565.305 0)
(400.001 573.279 0)
(400.001 580.555 0)
(400 587.203 0)
(400 593.283 0)
(400 598.85 0)
(400 603.953 0)
(400 608.634 0)
(400 612.933 0)
(400 616.882 0)
(399.999 620.514 0)
(399.999 623.856 0)
(399.999 626.932 0)
(399.999 629.766 0)
(399.999 632.378 0)
(399.999 634.786 0)
(399.999 637.007 0)
(399.999 639.057 0)
(399.999 640.949 0)
(399.999 642.696 0)
(400 644.31 0)
(399.995 645.801 0)
(400.002 645.801 0)
(399.999 645.801 0)
(399.999 645.801 0)
(399.999 645.801 0)
(399.999 645.801 0)
(399.999 645.801 0)
(399.999 645.801 0)
(399.999 645.801 0)
(399.999 645.801 0)
(399.999 645.801 0)
(399.999 645.801 0)
(399.999 645.801 0)
(399.998 645.801 0)
(399.998 645.801 0)
(399.998 645.801 0)
(399.998 645.801 0)
(399.998 645.801 0)
(399.998 645.801 0)
(399.998 645.801 0)
(399.998 645.801 0)
(400 -5.2407e-07 0)
(400 -7.0012e-07 0)
(400 -6.4204e-07 0)
(400 -3.45991e-07 0)
(400 1.95371e-07 0)
(400 9.94782e-07 0)
(400 2.07111e-06 0)
(400 3.44676e-06 0)
(400 5.14984e-06 0)
(400 7.21262e-06 0)
(400 9.6749e-06 0)
(400 1.2582e-05 0)
(400 1.59889e-05 0)
(400 1.99584e-05 0)
(400 2.45662e-05 0)
(400.002 2.98987e-05 0)
(399.983 3.606e-05 0)
(400.123 4.31665e-05 0)
(399.12 5.13683e-05 0)
(406.3 0.00022448 0)
(394.062 81.7834 0)
(399.083 149.933 0)
(400.882 207.505 0)
(400.245 256.74 0)
(399.995 299.194 0)
(400.04 336.064 0)
(400.045 368.296 0)
(400.027 396.639 0)
(400.019 421.689 0)
(400.015 443.928 0)
(400.011 463.751 0)
(400.008 481.484 0)
(400.006 497.398 0)
(400.005 511.721 0)
(400.004 524.646 0)
(400.003 536.336 0)
(400.002 546.931 0)
(400.002 556.553 0)
(400.001 565.305 0)
(400.001 573.279 0)
(400.001 580.555 0)
(400 587.203 0)
(400 593.283 0)
(400 598.85 0)
(400 603.953 0)
(400 608.634 0)
(400 612.933 0)
(400 616.882 0)
(399.999 620.514 0)
(399.999 623.856 0)
(399.999 626.932 0)
(399.999 629.766 0)
(399.999 632.378 0)
(399.999 634.786 0)
(399.999 637.007 0)
(399.999 639.057 0)
(399.999 640.949 0)
(399.999 642.696 0)
(400 644.31 0)
(399.995 645.801 0)
(400.002 645.801 0)
(399.999 645.801 0)
(399.999 645.801 0)
(399.999 645.801 0)
(399.999 645.801 0)
(399.999 645.801 0)
(399.999 645.801 0)
(399.999 645.801 0)
(399.999 645.801 0)
(399.999 645.801 0)
(399.999 645.801 0)
(399.999 645.801 0)
(399.999 645.801 0)
(399.999 645.801 0)
(399.998 645.801 0)
(399.998 645.801 0)
(399.998 645.801 0)
(399.998 645.801 0)
(399.998 645.801 0)
(399.998 645.801 0)
(400 -1.01465e-07 0)
(400 1.65348e-07 0)
(400 6.89884e-07 0)
(400 1.48513e-06 0)
(400 2.56643e-06 0)
(400 3.95593e-06 0)
(400 5.68235e-06 0)
(400 7.78045e-06 0)
(400 1.02914e-05 0)
(400 1.3264e-05 0)
(400 1.67559e-05 0)
(400 2.08347e-05 0)
(400 2.55802e-05 0)
(400 3.10858e-05 0)
(400 3.74613e-05 0)
(400.002 4.48359e-05 0)
(399.983 5.33619e-05 0)
(400.123 6.32175e-05 0)
(399.12 7.46212e-05 0)
(406.3 0.000251495 0)
(394.062 81.7834 0)
(399.083 149.933 0)
(400.882 207.505 0)
(400.245 256.74 0)
(399.995 299.194 0)
(400.04 336.064 0)
(400.045 368.296 0)
(400.027 396.639 0)
(400.019 421.689 0)
(400.015 443.928 0)
(400.011 463.751 0)
(400.009 481.484 0)
(400.007 497.398 0)
(400.005 511.721 0)
(400.004 524.646 0)
(400.003 536.336 0)
(400.002 546.931 0)
(400.002 556.553 0)
(400.001 565.305 0)
(400.001 573.279 0)
(400.001 580.555 0)
(400 587.203 0)
(400 593.283 0)
(400 598.85 0)
(400 603.953 0)
(400 608.634 0)
(400 612.933 0)
(400 616.882 0)
(400 620.514 0)
(399.999 623.856 0)
(399.999 626.932 0)
(399.999 629.766 0)
(399.999 632.378 0)
(399.999 634.786 0)
(399.999 637.007 0)
(399.999 639.057 0)
(399.999 640.949 0)
(399.999 642.696 0)
(400 644.31 0)
(399.995 645.801 0)
(400.003 645.801 0)
(399.999 645.801 0)
(399.999 645.801 0)
(399.999 645.801 0)
(399.999 645.801 0)
(399.999 645.801 0)
(399.999 645.801 0)
(399.999 645.801 0)
(399.999 645.801 0)
(399.999 645.801 0)
(399.999 645.801 0)
(399.999 645.801 0)
(399.999 645.801 0)
(399.999 645.801 0)
(399.999 645.801 0)
(399.999 645.801 0)
(399.999 645.801 0)
(399.998 645.801 0)
(399.998 645.801 0)
(399.998 645.801 0)
(400 3.2591e-07 0)
(400 1.03125e-06 0)
(400 2.01142e-06 0)
(400 3.28784e-06 0)
(400 4.88389e-06 0)
(400 6.83022e-06 0)
(400 9.16529e-06 0)
(400 1.19348e-05 0)
(400 1.51926e-05 0)
(400 1.90022e-05 0)
(400 2.34382e-05 0)
(400 2.85882e-05 0)
(400 3.45555e-05 0)
(400 4.14608e-05 0)
(400 4.94464e-05 0)
(400.002 5.86789e-05 0)
(399.983 6.93554e-05 0)
(400.123 8.1707e-05 0)
(399.12 9.60078e-05 0)
(406.3 0.000276262 0)
(394.062 81.7835 0)
(399.083 149.933 0)
(400.883 207.506 0)
(400.245 256.74 0)
(399.995 299.194 0)
(400.04 336.064 0)
(400.045 368.296 0)
(400.027 396.639 0)
(400.019 421.689 0)
(400.015 443.928 0)
(400.011 463.751 0)
(400.009 481.484 0)
(400.007 497.398 0)
(400.005 511.721 0)
(400.004 524.646 0)
(400.003 536.336 0)
(400.002 546.931 0)
(400.002 556.553 0)
(400.001 565.305 0)
(400.001 573.28 0)
(400.001 580.555 0)
(400.001 587.203 0)
(400 593.283 0)
(400 598.85 0)
(400 603.953 0)
(400 608.634 0)
(400 612.933 0)
(400 616.882 0)
(400 620.514 0)
(400 623.856 0)
(400 626.932 0)
(399.999 629.766 0)
(399.999 632.378 0)
(399.999 634.786 0)
(399.999 637.007 0)
(399.999 639.057 0)
(399.999 640.949 0)
(399.999 642.696 0)
(400 644.31 0)
(399.995 645.801 0)
(400.003 645.801 0)
(399.999 645.801 0)
(399.999 645.801 0)
(399.999 645.801 0)
(399.999 645.801 0)
(399.999 645.801 0)
(399.999 645.801 0)
(399.999 645.801 0)
(399.999 645.801 0)
(399.999 645.801 0)
(399.999 645.801 0)
(399.999 645.801 0)
(399.999 645.801 0)
(399.999 645.801 0)
(399.999 645.801 0)
(399.999 645.801 0)
(399.999 645.801 0)
(399.999 645.801 0)
(399.999 645.801 0)
(399.998 645.801 0)
(400 7.43604e-07 0)
(400 1.86884e-06 0)
(400 3.27915e-06 0)
(400 5.00375e-06 0)
(400 7.07351e-06 0)
(400 9.52708e-06 0)
(400 1.24116e-05 0)
(400 1.57828e-05 0)
(400 1.97057e-05 0)
(400 2.42569e-05 0)
(400 2.95263e-05 0)
(400 3.56194e-05 0)
(400 4.26599e-05 0)
(400 5.07932e-05 0)
(400 6.01899e-05 0)
(400.002 7.10505e-05 0)
(399.983 8.36104e-05 0)
(400.123 9.81473e-05 0)
(399.12 0.000114984 0)
(406.3 0.00029819 0)
(394.062 81.7835 0)
(399.083 149.933 0)
(400.883 207.506 0)
(400.245 256.74 0)
(399.995 299.194 0)
(400.04 336.064 0)
(400.045 368.296 0)
(400.027 396.639 0)
(400.019 421.689 0)
(400.015 443.928 0)
(400.011 463.751 0)
(400.009 481.484 0)
(400.007 497.398 0)
(400.005 511.721 0)
(400.004 524.646 0)
(400.003 536.336 0)
(400.002 546.931 0)
(400.002 556.553 0)
(400.002 565.305 0)
(400.001 573.28 0)
(400.001 580.555 0)
(400.001 587.203 0)
(400 593.283 0)
(400 598.85 0)
(400 603.953 0)
(400 608.634 0)
(400 612.933 0)
(400 616.882 0)
(400 620.514 0)
(400 623.856 0)
(400 626.932 0)
(400 629.766 0)
(400 632.378 0)
(399.999 634.786 0)
(399.999 637.007 0)
(399.999 639.057 0)
(400 640.949 0)
(399.999 642.696 0)
(400.001 644.31 0)
(399.996 645.801 0)
(400.003 645.801 0)
(399.999 645.801 0)
(399.999 645.801 0)
(399.999 645.801 0)
(399.999 645.801 0)
(399.999 645.801 0)
(399.999 645.801 0)
(399.999 645.801 0)
(399.999 645.801 0)
(399.999 645.801 0)
(399.999 645.801 0)
(399.999 645.801 0)
(399.999 645.801 0)
(399.999 645.801 0)
(399.999 645.801 0)
(399.999 645.801 0)
(399.999 645.801 0)
(399.999 645.801 0)
(399.999 645.801 0)
(399.999 645.801 0)
(400 1.1447e-06 0)
(400 2.66287e-06 0)
(400 4.46911e-06 0)
(400 6.6001e-06 0)
(400 9.09349e-06 0)
(400 1.19948e-05 0)
(400 1.53588e-05 0)
(400 1.92496e-05 0)
(400 2.37421e-05 0)
(400 2.89239e-05 0)
(400 3.48978e-05 0)
(400 4.17845e-05 0)
(400 4.97255e-05 0)
(400 5.88868e-05 0)
(400 6.94631e-05 0)
(400.002 8.1683e-05 0)
(399.983 9.58147e-05 0)
(400.123 0.000112175 0)
(399.12 0.000131124 0)
(406.3 0.000316789 0)
(394.062 81.7835 0)
(399.083 149.933 0)
(400.883 207.506 0)
(400.245 256.74 0)
(399.995 299.194 0)
(400.04 336.064 0)
(400.045 368.296 0)
(400.027 396.639 0)
(400.019 421.689 0)
(400.015 443.928 0)
(400.011 463.751 0)
(400.009 481.484 0)
(400.007 497.398 0)
(400.005 511.721 0)
(400.004 524.646 0)
(400.003 536.336 0)
(400.003 546.931 0)
(400.002 556.553 0)
(400.002 565.305 0)
(400.001 573.28 0)
(400.001 580.555 0)
(400.001 587.203 0)
(400.001 593.283 0)
(400 598.85 0)
(400 603.953 0)
(400 608.634 0)
(400 612.933 0)
(400 616.882 0)
(400 620.514 0)
(400 623.856 0)
(400 626.932 0)
(400 629.766 0)
(400 632.378 0)
(400 634.786 0)
(400 637.007 0)
(400 639.057 0)
(400 640.949 0)
(399.999 642.696 0)
(400.001 644.31 0)
(399.996 645.801 0)
(400.003 645.801 0)
(399.999 645.801 0)
(399.999 645.801 0)
(399.999 645.801 0)
(399.999 645.801 0)
(399.999 645.801 0)
(399.999 645.801 0)
(399.999 645.801 0)
(399.999 645.801 0)
(399.999 645.801 0)
(399.999 645.801 0)
(399.999 645.801 0)
(399.999 645.801 0)
(399.999 645.801 0)
(399.999 645.801 0)
(399.999 645.801 0)
(399.999 645.801 0)
(399.999 645.801 0)
(399.999 645.801 0)
(399.999 645.801 0)
(400 1.51568e-06 0)
(400 3.38867e-06 0)
(400 5.54607e-06 0)
(400 8.0306e-06 0)
(400 1.08857e-05 0)
(400 1.41628e-05 0)
(400 1.79228e-05 0)
(400 2.22368e-05 0)
(400 2.71874e-05 0)
(400 3.28713e-05 0)
(400 3.94017e-05 0)
(400 4.69114e-05 0)
(400 5.5556e-05 0)
(400 6.5518e-05 0)
(400 7.70113e-05 0)
(400.002 9.0287e-05 0)
(399.983 0.000105639 0)
(400.123 0.000123414 0)
(399.12 0.000144005 0)
(406.301 0.000331578 0)
(394.062 81.7835 0)
(399.083 149.933 0)
(400.883 207.506 0)
(400.245 256.74 0)
(399.995 299.194 0)
(400.04 336.064 0)
(400.045 368.296 0)
(400.027 396.639 0)
(400.019 421.689 0)
(400.015 443.928 0)
(400.011 463.751 0)
(400.009 481.484 0)
(400.007 497.398 0)
(400.005 511.721 0)
(400.004 524.646 0)
(400.003 536.336 0)
(400.003 546.931 0)
(400.002 556.553 0)
(400.002 565.305 0)
(400.001 573.28 0)
(400.001 580.555 0)
(400.001 587.203 0)
(400.001 593.283 0)
(400 598.85 0)
(400 603.953 0)
(400 608.634 0)
(400 612.933 0)
(400 616.882 0)
(400 620.514 0)
(400 623.856 0)
(400 626.932 0)
(400 629.766 0)
(400 632.378 0)
(400 634.786 0)
(400 637.007 0)
(400 639.057 0)
(400 640.949 0)
(399.999 642.696 0)
(400.001 644.31 0)
(399.996 645.801 0)
(400.003 645.801 0)
(399.999 645.801 0)
(399.999 645.801 0)
(400 645.801 0)
(400 645.801 0)
(400 645.801 0)
(400 645.801 0)
(400 645.801 0)
(400 645.801 0)
(400 645.801 0)
(399.999 645.801 0)
(399.999 645.801 0)
(399.999 645.801 0)
(399.999 645.801 0)
(399.999 645.801 0)
(399.999 645.801 0)
(399.999 645.801 0)
(399.999 645.801 0)
(399.999 645.801 0)
(399.999 645.801 0)
(400 1.85142e-06 0)
(400 4.03381e-06 0)
(400 6.48941e-06 0)
(400 9.26647e-06 0)
(400 1.24132e-05 0)
(400 1.59856e-05 0)
(400 2.00492e-05 0)
(400 2.46803e-05 0)
(400 2.99674e-05 0)
(400 3.60136e-05 0)
(400 4.29398e-05 0)
(400 5.08875e-05 0)
(400 6.00228e-05 0)
(400 7.05399e-05 0)
(400 8.26668e-05 0)
(400.002 9.66703e-05 0)
(399.983 0.000112863 0)
(400.123 0.000131614 0)
(399.12 0.000153337 0)
(406.301 0.000342225 0)
(394.062 81.7835 0)
(399.083 149.933 0)
(400.883 207.506 0)
(400.245 256.74 0)
(399.995 299.194 0)
(400.04 336.064 0)
(400.045 368.296 0)
(400.027 396.639 0)
(400.019 421.689 0)
(400.015 443.928 0)
(400.012 463.751 0)
(400.009 481.484 0)
(400.007 497.398 0)
(400.005 511.721 0)
(400.004 524.646 0)
(400.003 536.336 0)
(400.003 546.931 0)
(400.002 556.553 0)
(400.002 565.305 0)
(400.001 573.28 0)
(400.001 580.555 0)
(400.001 587.203 0)
(400.001 593.283 0)
(400.001 598.85 0)
(400 603.953 0)
(400 608.634 0)
(400 612.933 0)
(400 616.882 0)
(400 620.514 0)
(400 623.856 0)
(400 626.932 0)
(400 629.766 0)
(400 632.378 0)
(400 634.786 0)
(400 637.007 0)
(400 639.057 0)
(400 640.949 0)
(399.999 642.696 0)
(400.001 644.31 0)
(399.996 645.801 0)
(400.003 645.801 0)
(400 645.801 0)
(400 645.801 0)
(400 645.801 0)
(400 645.801 0)
(400 645.801 0)
(400 645.801 0)
(400 645.801 0)
(400 645.801 0)
(400 645.801 0)
(400 645.801 0)
(400 645.801 0)
(400 645.801 0)
(400 645.801 0)
(400 645.801 0)
(400 645.801 0)
(400 645.801 0)
(399.999 645.801 0)
(399.999 645.801 0)
(399.999 645.801 0)
(400 2.1393e-06 0)
(400 4.57664e-06 0)
(400 7.26981e-06 0)
(400 1.02709e-05 0)
(400 1.36316e-05 0)
(400 1.74111e-05 0)
(400 2.16781e-05 0)
(400 2.65121e-05 0)
(400 3.20052e-05 0)
(400 3.82646e-05 0)
(400 4.54158e-05 0)
(400 5.36056e-05 0)
(400 6.30061e-05 0)
(400 7.38188e-05 0)
(400 8.62797e-05 0)
(400.002 0.000100665 0)
(399.983 0.000117299 0)
(400.123 0.000136563 0)
(399.12 0.000158882 0)
(406.301 0.000348461 0)
(394.062 81.7835 0)
(399.083 149.933 0)
(400.883 207.506 0)
(400.245 256.74 0)
(399.995 299.194 0)
(400.04 336.064 0)
(400.045 368.296 0)
(400.027 396.639 0)
(400.019 421.689 0)
(400.015 443.928 0)
(400.012 463.751 0)
(400.009 481.484 0)
(400.007 497.398 0)
(400.006 511.721 0)
(400.004 524.646 0)
(400.004 536.336 0)
(400.003 546.931 0)
(400.002 556.553 0)
(400.002 565.305 0)
(400.002 573.28 0)
(400.001 580.555 0)
(400.001 587.203 0)
(400.001 593.283 0)
(400.001 598.85 0)
(400.001 603.953 0)
(400.001 608.634 0)
(400 612.933 0)
(400 616.882 0)
(400 620.514 0)
(400 623.856 0)
(400 626.932 0)
(400 629.766 0)
(400 632.378 0)
(400 634.786 0)
(400 637.007 0)
(400 639.057 0)
(400 640.949 0)
(400 642.696 0)
(400.001 644.31 0)
(399.996 645.801 0)
(400.004 645.801 0)
(400 645.801 0)
(400 645.801 0)
(400 645.801 0)
(400 645.801 0)
(400 645.801 0)
(400 645.801 0)
(400 645.801 0)
(400 645.801 0)
(400 645.801 0)
(400 645.801 0)
(400 645.801 0)
(400 645.801 0)
(400 645.801 0)
(400 645.801 0)
(400 645.801 0)
(400 645.801 0)
(400 645.801 0)
(400 645.801 0)
(400 645.801 0)
(400 2.37684e-06 0)
(400 5.00982e-06 0)
(400 7.87437e-06 0)
(400 1.10256e-05 0)
(400 1.45177e-05 0)
(400 1.84113e-05 0)
(400 2.27767e-05 0)
(400 2.76947e-05 0)
(400 3.32586e-05 0)
(400 3.95771e-05 0)
(400 4.67771e-05 0)
(400 5.50072e-05 0)
(400 6.44414e-05 0)
(400 7.52833e-05 0)
(400 8.77714e-05 0)
(400.002 0.000102185 0)
(399.983 0.00011885 0)
(400.123 0.000138152 0)
(399.12 0.000160518 0)
(406.301 0.000350149 0)
(394.062 81.7835 0)
(399.083 149.933 0)
(400.883 207.506 0)
(400.245 256.74 0)
(399.995 299.194 0)
(400.04 336.064 0)
(400.045 368.296 0)
(400.027 396.639 0)
(400.019 421.689 0)
(400.015 443.928 0)
(400.012 463.751 0)
(400.009 481.484 0)
(400.007 497.398 0)
(400.006 511.721 0)
(400.004 524.646 0)
(400.004 536.336 0)
(400.003 546.931 0)
(400.002 556.553 0)
(400.002 565.305 0)
(400.002 573.28 0)
(400.001 580.555 0)
(400.001 587.203 0)
(400.001 593.283 0)
(400.001 598.85 0)
(400.001 603.953 0)
(400.001 608.634 0)
(400.001 612.933 0)
(400 616.882 0)
(400 620.514 0)
(400 623.856 0)
(400 626.932 0)
(400 629.766 0)
(400 632.378 0)
(400 634.786 0)
(400 637.007 0)
(400 639.057 0)
(400 640.949 0)
(400 642.696 0)
(400.001 644.31 0)
(399.996 645.801 0)
(400.004 645.801 0)
(400 645.801 0)
(400 645.801 0)
(400 645.801 0)
(400 645.801 0)
(400 645.801 0)
(400 645.801 0)
(400 645.801 0)
(400 645.801 0)
(400 645.801 0)
(400 645.801 0)
(400 645.801 0)
(400 645.801 0)
(400 645.801 0)
(400 645.801 0)
(400 645.801 0)
(400 645.801 0)
(400 645.801 0)
(400 645.801 0)
(400 645.801 0)
(400 2.55345e-06 0)
(400 5.31653e-06 0)
(400 8.28184e-06 0)
(400 1.15057e-05 0)
(400 1.50431e-05 0)
(400 1.8955e-05 0)
(400 2.33112e-05 0)
(400 2.8192e-05 0)
(400 3.36898e-05 0)
(400 3.99119e-05 0)
(400 4.69835e-05 0)
(400 5.50514e-05 0)
(400 6.42871e-05 0)
(400 7.48915e-05 0)
(400 8.70994e-05 0)
(400.002 0.000101186 0)
(399.983 0.000117472 0)
(400.123 0.000136338 0)
(399.12 0.000158203 0)
(406.301 0.000347245 0)
(394.062 81.7835 0)
(399.083 149.933 0)
(400.883 207.505 0)
(400.245 256.74 0)
(399.995 299.194 0)
(400.04 336.064 0)
(400.045 368.296 0)
(400.027 396.639 0)
(400.019 421.689 0)
(400.015 443.928 0)
(400.012 463.751 0)
(400.009 481.484 0)
(400.007 497.398 0)
(400.006 511.721 0)
(400.005 524.646 0)
(400.004 536.336 0)
(400.003 546.931 0)
(400.003 556.553 0)
(400.002 565.305 0)
(400.002 573.28 0)
(400.001 580.555 0)
(400.001 587.203 0)
(400.001 593.283 0)
(400.001 598.85 0)
(400.001 603.953 0)
(400.001 608.634 0)
(400.001 612.933 0)
(400.001 616.882 0)
(400.001 620.514 0)
(400.001 623.856 0)
(400 626.932 0)
(400 629.766 0)
(400 632.378 0)
(400 634.786 0)
(400 637.007 0)
(400 639.057 0)
(400.001 640.949 0)
(400 642.696 0)
(400.002 644.31 0)
(399.997 645.801 0)
(400.004 645.801 0)
(400 645.801 0)
(400 645.801 0)
(400 645.801 0)
(400 645.801 0)
(400 645.801 0)
(400 645.801 0)
(400 645.801 0)
(400 645.801 0)
(400 645.801 0)
(400 645.801 0)
(400 645.801 0)
(400 645.801 0)
(400 645.801 0)
(400 645.801 0)
(400 645.801 0)
(400 645.801 0)
(400 645.801 0)
(400 645.801 0)
(400 645.801 0)
(400 2.66953e-06 0)
(400 5.49536e-06 0)
(400 8.48851e-06 0)
(400 1.17056e-05 0)
(400 1.52012e-05 0)
(400 1.90351e-05 0)
(400 2.3275e-05 0)
(400 2.79985e-05 0)
(400 3.32947e-05 0)
(400 3.92672e-05 0)
(400 4.60364e-05 0)
(400 5.37435e-05 0)
(400 6.25534e-05 0)
(400 7.26593e-05 0)
(400 8.4287e-05 0)
(400.002 9.77005e-05 0)
(399.983 0.000113208 0)
(400.123 0.000131175 0)
(399.12 0.000152001 0)
(406.301 0.00033983 0)
(394.062 81.7835 0)
(399.083 149.933 0)
(400.883 207.505 0)
(400.245 256.74 0)
(399.995 299.194 0)
(400.04 336.064 0)
(400.045 368.296 0)
(400.028 396.639 0)
(400.019 421.689 0)
(400.015 443.928 0)
(400.012 463.751 0)
(400.009 481.484 0)
(400.007 497.398 0)
(400.006 511.721 0)
(400.005 524.646 0)
(400.004 536.336 0)
(400.003 546.931 0)
(400.003 556.553 0)
(400.002 565.305 0)
(400.002 573.28 0)
(400.002 580.555 0)
(400.001 587.203 0)
(400.001 593.283 0)
(400.001 598.85 0)
(400.001 603.953 0)
(400.001 608.634 0)
(400.001 612.933 0)
(400.001 616.882 0)
(400.001 620.514 0)
(400.001 623.856 0)
(400.001 626.932 0)
(400.001 629.766 0)
(400.001 632.378 0)
(400.001 634.786 0)
(400.001 637.007 0)
(400 639.057 0)
(400.001 640.949 0)
(400 642.696 0)
(400.002 644.31 0)
(399.997 645.801 0)
(400.004 645.801 0)
(400 645.801 0)
(400 645.801 0)
(400.001 645.801 0)
(400.001 645.801 0)
(400.001 645.801 0)
(400.001 645.801 0)
(400.001 645.801 0)
(400.001 645.801 0)
(400.001 645.801 0)
(400.001 645.801 0)
(400.001 645.801 0)
(400.001 645.801 0)
(400.001 645.801 0)
(400.001 645.801 0)
(400.001 645.801 0)
(400.001 645.801 0)
(400.001 645.801 0)
(400.001 645.801 0)
(400 645.801 0)
(400 2.71758e-06 0)
(400 5.53597e-06 0)
(400 8.48323e-06 0)
(400 1.16144e-05 0)
(400 1.49823e-05 0)
(400 1.86438e-05 0)
(400 2.26631e-05 0)
(400 2.71131e-05 0)
(400 3.20777e-05 0)
(400 3.76537e-05 0)
(400 4.39541e-05 0)
(400 5.1111e-05 0)
(400 5.92788e-05 0)
(400 6.86381e-05 0)
(400 7.93999e-05 0)
(400.002 9.18113e-05 0)
(399.983 0.00010616 0)
(400.123 0.000122787 0)
(399.12 0.000142066 0)
(406.301 0.000328087 0)
(394.062 81.7835 0)
(399.083 149.933 0)
(400.883 207.505 0)
(400.245 256.74 0)
(399.995 299.194 0)
(400.04 336.063 0)
(400.045 368.296 0)
(400.028 396.639 0)
(400.019 421.689 0)
(400.015 443.928 0)
(400.012 463.751 0)
(400.009 481.484 0)
(400.007 497.398 0)
(400.006 511.721 0)
(400.005 524.646 0)
(400.004 536.336 0)
(400.003 546.931 0)
(400.003 556.553 0)
(400.002 565.305 0)
(400.002 573.28 0)
(400.002 580.555 0)
(400.001 587.203 0)
(400.001 593.283 0)
(400.001 598.85 0)
(400.001 603.953 0)
(400.001 608.634 0)
(400.001 612.933 0)
(400.001 616.882 0)
(400.001 620.514 0)
(400.001 623.856 0)
(400.001 626.932 0)
(400.001 629.766 0)
(400.001 632.378 0)
(400.001 634.786 0)
(400.001 637.007 0)
(400.001 639.057 0)
(400.001 640.949 0)
(400 642.696 0)
(400.002 644.31 0)
(399.997 645.801 0)
(400.004 645.801 0)
(400 645.801 0)
(400 645.801 0)
(400.001 645.801 0)
(400.001 645.801 0)
(400.001 645.801 0)
(400.001 645.801 0)
(400.001 645.801 0)
(400.001 645.801 0)
(400.001 645.801 0)
(400.001 645.801 0)
(400.001 645.801 0)
(400.001 645.801 0)
(400.001 645.801 0)
(400.001 645.801 0)
(400.001 645.801 0)
(400.001 645.801 0)
(400.001 645.801 0)
(400.001 645.801 0)
(400.001 645.801 0)
(400 2.70088e-06 0)
(400 5.44299e-06 0)
(400 8.27184e-06 0)
(400 1.124e-05 0)
(400 1.43971e-05 0)
(400 1.77962e-05 0)
(400 2.14959e-05 0)
(400 2.55629e-05 0)
(400 3.00734e-05 0)
(400 3.51157e-05 0)
(400 4.07923e-05 0)
(400 4.7223e-05 0)
(400 5.45477e-05 0)
(400 6.29303e-05 0)
(400 7.25621e-05 0)
(400.002 8.36666e-05 0)
(399.983 9.65051e-05 0)
(400.123 0.000111385 0)
(399.12 0.000128644 0)
(406.301 0.000312307 0)
(394.062 81.7834 0)
(399.083 149.933 0)
(400.883 207.505 0)
(400.245 256.74 0)
(399.996 299.194 0)
(400.04 336.063 0)
(400.045 368.296 0)
(400.028 396.639 0)
(400.019 421.689 0)
(400.015 443.928 0)
(400.012 463.751 0)
(400.009 481.484 0)
(400.007 497.398 0)
(400.006 511.721 0)
(400.005 524.646 0)
(400.004 536.336 0)
(400.003 546.931 0)
(400.003 556.553 0)
(400.002 565.305 0)
(400.002 573.28 0)
(400.002 580.555 0)
(400.002 587.203 0)
(400.001 593.283 0)
(400.001 598.85 0)
(400.001 603.953 0)
(400.001 608.634 0)
(400.001 612.933 0)
(400.001 616.882 0)
(400.001 620.514 0)
(400.001 623.856 0)
(400.001 626.932 0)
(400.001 629.766 0)
(400.001 632.378 0)
(400.001 634.786 0)
(400.001 637.007 0)
(400.001 639.057 0)
(400.001 640.949 0)
(400 642.696 0)
(400.002 644.31 0)
(399.997 645.801 0)
(400.004 645.801 0)
(400.001 645.801 0)
(400.001 645.801 0)
(400.001 645.801 0)
(400.001 645.801 0)
(400.001 645.801 0)
(400.001 645.801 0)
(400.001 645.801 0)
(400.001 645.801 0)
(400.001 645.801 0)
(400.001 645.801 0)
(400.001 645.801 0)
(400.001 645.801 0)
(400.001 645.801 0)
(400.001 645.801 0)
(400.001 645.801 0)
(400.001 645.801 0)
(400.001 645.801 0)
(400.001 645.801 0)
(400.001 645.801 0)
(400 2.6157e-06 0)
(400 5.21357e-06 0)
(400 7.8544e-06 0)
(400 1.05865e-05 0)
(400 1.34554e-05 0)
(400 1.65084e-05 0)
(400 1.97977e-05 0)
(400 2.33817e-05 0)
(400 2.73276e-05 0)
(400 3.17124e-05 0)
(400 3.66258e-05 0)
(400 4.21724e-05 0)
(400 4.84744e-05 0)
(400 5.56748e-05 0)
(400 6.39404e-05 0)
(400.002 7.3466e-05 0)
(399.983 8.44798e-05 0)
(400.123 9.72471e-05 0)
(399.12 0.000112068 0)
(406.301 0.00029288 0)
(394.062 81.7834 0)
(399.083 149.933 0)
(400.883 207.505 0)
(400.245 256.74 0)
(399.996 299.194 0)
(400.04 336.063 0)
(400.045 368.296 0)
(400.028 396.639 0)
(400.019 421.689 0)
(400.015 443.928 0)
(400.012 463.751 0)
(400.009 481.484 0)
(400.007 497.398 0)
(400.006 511.721 0)
(400.005 524.646 0)
(400.004 536.336 0)
(400.003 546.931 0)
(400.003 556.553 0)
(400.002 565.305 0)
(400.002 573.28 0)
(400.002 580.555 0)
(400.002 587.203 0)
(400.001 593.283 0)
(400.001 598.85 0)
(400.001 603.953 0)
(400.001 608.634 0)
(400.001 612.933 0)
(400.001 616.882 0)
(400.001 620.514 0)
(400.001 623.856 0)
(400.001 626.932 0)
(400.001 629.766 0)
(400.001 632.378 0)
(400.001 634.786 0)
(400.001 637.007 0)
(400.001 639.057 0)
(400.001 640.949 0)
(400.001 642.696 0)
(400.002 644.31 0)
(399.997 645.801 0)
(400.004 645.801 0)
(400.001 645.801 0)
(400.001 645.801 0)
(400.001 645.801 0)
(400.001 645.801 0)
(400.001 645.801 0)
(400.001 645.801 0)
(400.001 645.801 0)
(400.001 645.801 0)
(400.001 645.801 0)
(400.001 645.801 0)
(400.001 645.801 0)
(400.001 645.801 0)
(400.001 645.801 0)
(400.001 645.801 0)
(400.001 645.801 0)
(400.001 645.801 0)
(400.001 645.801 0)
(400.001 645.801 0)
(400.001 645.801 0)
(400 2.46786e-06 0)
(400 4.85793e-06 0)
(400 7.2457e-06 0)
(400 9.67448e-06 0)
(400 1.21844e-05 0)
(400 1.48161e-05 0)
(400 1.76138e-05 0)
(400 2.06266e-05 0)
(400 2.39106e-05 0)
(400 2.75299e-05 0)
(400 3.15592e-05 0)
(400 3.60853e-05 0)
(400 4.12096e-05 0)
(400 4.70509e-05 0)
(400 5.37473e-05 0)
(400.002 6.14605e-05 0)
(399.983 7.03797e-05 0)
(400.123 8.07225e-05 0)
(399.12 9.27432e-05 0)
(406.301 0.000270283 0)
(394.062 81.7834 0)
(399.083 149.933 0)
(400.883 207.505 0)
(400.245 256.74 0)
(399.996 299.194 0)
(400.04 336.063 0)
(400.045 368.296 0)
(400.028 396.639 0)
(400.019 421.689 0)
(400.015 443.928 0)
(400.012 463.751 0)
(400.009 481.484 0)
(400.007 497.398 0)
(400.006 511.721 0)
(400.005 524.646 0)
(400.004 536.336 0)
(400.003 546.931 0)
(400.003 556.553 0)
(400.002 565.305 0)
(400.002 573.28 0)
(400.002 580.555 0)
(400.002 587.203 0)
(400.002 593.283 0)
(400.001 598.85 0)
(400.001 603.953 0)
(400.001 608.634 0)
(400.001 612.933 0)
(400.001 616.882 0)
(400.001 620.514 0)
(400.001 623.856 0)
(400.001 626.932 0)
(400.001 629.766 0)
(400.001 632.378 0)
(400.001 634.786 0)
(400.001 637.007 0)
(400.001 639.057 0)
(400.001 640.949 0)
(400.001 642.696 0)
(400.002 644.31 0)
(399.997 645.801 0)
(400.005 645.801 0)
(400.001 645.801 0)
(400.001 645.801 0)
(400.001 645.801 0)
(400.001 645.801 0)
(400.001 645.801 0)
(400.001 645.801 0)
(400.001 645.801 0)
(400.001 645.801 0)
(400.001 645.801 0)
(400.001 645.801 0)
(400.001 645.801 0)
(400.001 645.801 0)
(400.001 645.801 0)
(400.001 645.801 0)
(400.001 645.801 0)
(400.001 645.801 0)
(400.001 645.801 0)
(400.001 645.801 0)
(400.001 645.801 0)
(400 2.25781e-06 0)
(400 4.38097e-06 0)
(400 6.457e-06 0)
(400 8.52281e-06 0)
(400 1.06121e-05 0)
(400 1.27581e-05 0)
(400 1.49956e-05 0)
(400 1.73633e-05 0)
(400 1.99048e-05 0)
(400 2.26699e-05 0)
(400 2.57163e-05 0)
(400 2.91109e-05 0)
(400 3.2932e-05 0)
(400 3.7271e-05 0)
(400 4.22343e-05 0)
(400.002 4.7946e-05 0)
(399.983 5.45523e-05 0)
(400.123 6.22162e-05 0)
(399.12 7.11474e-05 0)
(406.301 0.000245072 0)
(394.063 81.7834 0)
(399.083 149.933 0)
(400.883 207.505 0)
(400.245 256.74 0)
(399.996 299.194 0)
(400.041 336.063 0)
(400.045 368.296 0)
(400.028 396.639 0)
(400.019 421.689 0)
(400.015 443.928 0)
(400.012 463.751 0)
(400.009 481.484 0)
(400.007 497.398 0)
(400.006 511.721 0)
(400.005 524.646 0)
(400.004 536.336 0)
(400.003 546.931 0)
(400.003 556.553 0)
(400.002 565.305 0)
(400.002 573.279 0)
(400.002 580.555 0)
(400.002 587.203 0)
(400.002 593.283 0)
(400.001 598.85 0)
(400.001 603.953 0)
(400.001 608.634 0)
(400.001 612.933 0)
(400.001 616.882 0)
(400.001 620.514 0)
(400.001 623.856 0)
(400.001 626.932 0)
(400.001 629.766 0)
(400.001 632.378 0)
(400.001 634.786 0)
(400.001 637.007 0)
(400.001 639.057 0)
(400.001 640.949 0)
(400.001 642.696 0)
(400.002 644.31 0)
(399.997 645.801 0)
(400.005 645.801 0)
(400.001 645.801 0)
(400.001 645.801 0)
(400.001 645.801 0)
(400.001 645.801 0)
(400.001 645.801 0)
(400.001 645.801 0)
(400.001 645.801 0)
(400.001 645.801 0)
(400.001 645.801 0)
(400.001 645.801 0)
(400.001 645.801 0)
(400.001 645.801 0)
(400.001 645.801 0)
(400.001 645.801 0)
(400.001 645.801 0)
(400.001 645.801 0)
(400.002 645.801 0)
(400.002 645.801 0)
(400.002 645.801 0)
(400 1.99333e-06 0)
(400 3.7975e-06 0)
(400 5.51059e-06 0)
(400 7.16245e-06 0)
(400 8.7796e-06 0)
(400 1.03867e-05 0)
(400 1.20088e-05 0)
(400 1.36729e-05 0)
(400 1.54093e-05 0)
(400 1.72521e-05 0)
(400 1.92404e-05 0)
(400 2.14201e-05 0)
(400 2.3844e-05 0)
(400 2.65741e-05 0)
(400 2.96824e-05 0)
(400.002 3.32525e-05 0)
(399.983 3.73837e-05 0)
(400.123 4.21807e-05 0)
(399.12 4.78059e-05 0)
(406.301 0.000217862 0)
(394.063 81.7833 0)
(399.083 149.933 0)
(400.883 207.505 0)
(400.245 256.74 0)
(399.996 299.194 0)
(400.041 336.063 0)
(400.045 368.296 0)
(400.028 396.639 0)
(400.019 421.689 0)
(400.015 443.928 0)
(400.012 463.751 0)
(400.009 481.484 0)
(400.007 497.398 0)
(400.006 511.721 0)
(400.005 524.646 0)
(400.004 536.336 0)
(400.003 546.931 0)
(400.003 556.553 0)
(400.002 565.305 0)
(400.002 573.279 0)
(400.002 580.555 0)
(400.002 587.203 0)
(400.002 593.283 0)
(400.001 598.85 0)
(400.001 603.953 0)
(400.001 608.634 0)
(400.001 612.933 0)
(400.001 616.882 0)
(400.001 620.514 0)
(400.001 623.856 0)
(400.001 626.932 0)
(400.001 629.766 0)
(400.001 632.378 0)
(400.001 634.786 0)
(400.001 637.007 0)
(400.001 639.057 0)