TITLE = "Visualization of the volumetric solution"
VARIABLES = "x","y","Density","Momentum_x","Momentum_y","Energy","Pressure","Temperature","Mach","C<sub>p</sub>","Roe_Dissipation"
ZONE NODES= 1054, ELEMENTS= 1972, DATAPACKING=POINT, ZONETYPE=FEQUADRILATERAL
-1.500000e-01	3.002941e-03	1.224514e+00	5.563766e+01	-5.222579e-06	2.544124e+05	1.012594e+05	2.880726e+02	1.335382e-01	-5.475382e-02	0.000000e+00	
-1.462057e-01	2.741604e-03	1.224514e+00	5.563765e+01	-9.225806e-06	2.544124e+05	1.012594e+05	2.880726e+02	1.335381e-01	-5.474528e-02	0.000000e+00	
-1.480039e-01	5.803974e-03	1.224514e+00	5.563765e+01	-4.195211e-06	2.544124e+05	1.012594e+05	2.880726e+02	1.335381e-01	-5.474856e-02	0.000000e+00	
-1.500000e-01	6.005882e-03	1.224514e+00	5.563766e+01	-9.200497e-07	2.544124e+05	1.012594e+05	2.880726e+02	1.335382e-01	-5.475380e-02	0.000000e+00	
-1.447476e-01	5.454265e-03	1.224514e+00	5.563765e+01	-7.446703e-06	2.544124e+05	1.012594e+05	2.880726e+02	1.335381e-01	-5.474325e-02	0.000000e+00	
-1.428598e-01	2.595994e-03	1.224514e+00	5.563765e+01	-8.393149e-06	2.544125e+05	1.012594e+05	2.880726e+02	1.335381e-01	-5.473975e-02	0.000000e+00	
-1.500000e-01	9.008824e-03	1.224514e+00	5.563766e+01	1.329146e-06	2.544124e+05	1.012594e+05	2.880726e+02	1.335382e-01	-5.475352e-02	0.000000e+00	
-1.466154e-01	8.273641e-03	1.224514e+00	5.563765e+01	-2.622637e-06	2.544124e+05	1.012594e+05	2.880726e+02	1.335381e-01	-5.474605e-02	0.000000e+00	
-1.432957e-01	8.029385e-03	1.224514e+00	5.563765e+01	-5.754593e-06	2.544125e+05	1.012594e+05	2.880726e+02	1.335381e-01	-5.474028e-02	0.000000e+00	
-1.415253e-01	5.300643e-03	1.224514e+00	5.563764e+01	-8.565667e-06	2.544125e+05	1.012594e+05	2.880726e+02	1.335381e-01	-5.473714e-02	0.000000e+00	
-1.397477e-01	2.544736e-03	1.224514e+00	5.563766e+01	-5.931809e-06	2.544125e+05	1.012594e+05	2.880726e+02	1.335381e-01	-5.473379e-02	0.000000e+00	
-1.478165e-01	1.064613e-02	1.224514e+00	5.563765e+01	8.524052e-07	2.544124e+05	1.012594e+05	2.880726e+02	1.335381e-01	-5.474812e-02	0.000000e+00	
-1.450285e-01	1.067262e-02	1.224514e+00	5.563765e+01	-1.486626e-06	2.544124e+05	1.012594e+05	2.880726e+02	1.335381e-01	-5.474350e-02	0.000000e+00	
-1.500000e-01	1.201176e-02	1.224514e+00	5.563766e+01	2.282287e-06	2.544124e+05	1.012594e+05	2.880726e+02	1.335382e-01	-5.475373e-02	0.000000e+00	
-1.401210e-01	7.911109e-03	1.224514e+00	5.563764e+01	-6.670239e-06	2.544125e+05	1.012594e+05	2.880726e+02	1.335381e-01	-5.473449e-02	0.000000e+00	
-1.418071e-01	1.055517e-02	1.224514e+00	5.563765e+01	-3.534621e-06	2.544125e+05	1.012594e+05	2.880726e+02	1.335381e-01	-5.473754e-02	0.000000e+00	
-1.384198e-01	5.232070e-03	1.224514e+00	5.563764e+01	-6.405840e-06	2.544125e+05	1.012594e+05	2.880726e+02	1.335381e-01	-5.473145e-02	0.000000e+00	
-1.367026e-01	2.525804e-03	1.224514e+00	5.563766e+01	-2.314847e-06	2.544125e+05	1.012594e+05	2.880726e+02	1.335381e-01	-5.472811e-02	0.000000e+00	
-1.471689e-01	1.336196e-02	1.224514e+00	5.563765e+01	2.538312e-07	2.544124e+05	1.012594e+05	2.880726e+02	1.335381e-01	-5.474696e-02	0.000000e+00	
-1.435344e-01	1.319164e-02	1.224514e+00	5.563765e+01	-1.098521e-06	2.544125e+05	1.012594e+05	2.880726e+02	1.335381e-01	-5.474058e-02	0.000000e+00	
-1.500000e-01	1.501471e-02	1.224514e+00	5.563766e+01	-8.129082e-07	2.544124e+05	1.012594e+05	2.880726e+02	1.335382e-01	-5.475373e-02	0.000000e+00	
-1.370402e-01	7.844068e-03	1.224514e+00	5.563763e+01	-5.616680e-06	2.544125e+05	1.012594e+05	2.880726e+02	1.335381e-01	-5.472878e-02	0.000000e+00	
-1.386821e-01	1.046779e-02	1.224514e+00	5.563764e+01	-4.447481e-06	2.544125e+05	1.012594e+05	2.880726e+02	1.335381e-01	-5.473184e-02	0.000000e+00	
-1.403121e-01	1.307978e-02	1.224514e+00	5.563765e+01	-2.712614e-06	2.544125e+05	1.012594e+05	2.880726e+02	1.335381e-01	-5.473484e-02	0.000000e+00	
-1.353734e-01	5.193863e-03	1.224514e+00	5.563764e+01	-3.049714e-06	2.544125e+05	1.012594e+05	2.880726e+02	1.335381e-01	-5.472574e-02	0.000000e+00	
-1.336823e-01	2.514887e-03	1.224514e+00	5.563766e+01	1.419033e-06	2.544125e+05	1.012594e+05	2.880726e+02	1.335381e-01	-5.472247e-02	0.000000e+00	
-1.450990e-01	1.583037e-02	1.224514e+00	5.563765e+01	-2.904361e-07	2.544124e+05	1.012594e+05	2.880726e+02	1.335381e-01	-5.474359e-02	0.000000e+00	
-1.478707e-01	1.613585e-02	1.224514e+00	5.563765e+01	-2.105512e-07	2.544124e+05	1.012594e+05	2.880726e+02	1.335381e-01	-5.474819e-02	0.000000e+00	
-1.419022e-01	1.568881e-02	1.224514e+00	5.563765e+01	-1.350813e-06	2.544125e+05	1.012594e+05	2.880726e+02	1.335381e-01	-5.473763e-02	0.000000e+00	
-1.500000e-01	1.801765e-02	1.224514e+00	5.563766e+01	-3.896739e-07	2.544124e+05	1.012594e+05	2.880726e+02	1.335382e-01	-5.475369e-02	0.000000e+00	
-1.356289e-01	1.040407e-02	1.224514e+00	5.563764e+01	-4.428208e-06	2.544125e+05	1.012594e+05	2.880726e+02	1.335381e-01	-5.472618e-02	0.000000e+00	
-1.340050e-01	7.796619e-03	1.224514e+00	5.563763e+01	-3.277442e-06	2.544125e+05	1.012594e+05	2.880726e+02	1.335381e-01	-5.472314e-02	0.000000e+00	
-1.372258e-01	1.299953e-02	1.224514e+00	5.563764e+01	-3.873597e-06	2.544125e+05	1.012594e+05	2.880726e+02	1.335381e-01	-5.472909e-02	0.000000e+00	
-1.387956e-01	1.559308e-02	1.224514e+00	5.563765e+01	-2.766924e-06	2.544125e+05	1.012594e+05	2.880726e+02	1.335381e-01	-5.473198e-02	0.000000e+00	
-1.323510e-01	5.164541e-03	1.224514e+00	5.563764e+01	8.997121e-07	2.544125e+05	1.012594e+05	2.880726e+02	1.335381e-01	-5.472013e-02	0.000000e+00	
-1.306712e-01	2.504964e-03	1.224514e+00	5.563766e+01	5.032052e-06	2.544125e+05	1.012594e+05	2.880726e+02	1.335381e-01	-5.471688e-02	0.000000e+00	
-1.467319e-01	1.834610e-02	1.224514e+00	5.563766e+01	-8.435655e-07	2.544124e+05	1.012594e+05	2.880726e+02	1.335382e-01	-5.474618e-02	0.000000e+00	
-1.434885e-01	1.827187e-02	1.224514e+00	5.563765e+01	-1.000661e-06	2.544125e+05	1.012594e+05	2.880726e+02	1.335381e-01	-5.474053e-02	0.000000e+00	
-1.403520e-01	1.818206e-02	1.224514e+00	5.563765e+01	-1.599579e-06	2.544125e+05	1.012594e+05	2.880726e+02	1.335381e-01	-5.473479e-02	0.000000e+00	
-1.481715e-01	2.097905e-02	1.224514e+00	5.563766e+01	-2.223503e-07	2.544124e+05	1.012594e+05	2.880726e+02	1.335382e-01	-5.474869e-02	0.000000e+00	
-1.326057e-01	1.035220e-02	1.224514e+00	5.563763e+01	-3.280294e-06	2.544125e+05	1.012594e+05	2.880726e+02	1.335381e-01	-5.472058e-02	0.000000e+00	
-1.341945e-01	1.293647e-02	1.224514e+00	5.563764e+01	-4.308973e-06	2.544125e+05	1.012594e+05	2.880726e+02	1.335381e-01	-5.472349e-02	0.000000e+00	
-1.309873e-01	7.756649e-03	1.224514e+00	5.563763e+01	-1.634960e-07	2.544125e+05	1.012594e+05	2.880726e+02	1.335381e-01	-5.471756e-02	0.000000e+00	
-1.357556e-01	1.551994e-02	1.224514e+00	5.563764e+01	-3.660633e-06	2.544125e+05	1.012594e+05	2.880726e+02	1.335381e-01	-5.472635e-02	0.000000e+00	
-1.372955e-01	1.810520e-02	1.224514e+00	5.563765e+01	-2.452737e-06	2.544125e+05	1.012594e+05	2.880726e+02	1.335381e-01	-5.472917e-02	0.000000e+00	
-1.293393e-01	5.138454e-03	1.224514e+00	5.563764e+01	5.004264e-06	2.544125e+05	1.012594e+05	2.880726e+02	1.335381e-01	-5.471457e-02	0.000000e+00	
-1.276663e-01	2.495584e-03	1.224514e+00	5.563766e+01	8.360811e-06	2.544125e+05	1.012594e+05	2.880726e+02	1.335381e-01	-5.471135e-02	0.000000e+00	
-1.450777e-01	2.086378e-02	1.224514e+00	5.563766e+01	-5.166955e-07	2.544124e+05	1.012594e+05	2.880726e+02	1.335382e-01	-5.474350e-02	0.000000e+00	
-1.419106e-01	2.076874e-02	1.224514e+00	5.563765e+01	-8.009382e-07	2.544125e+05	1.012594e+05	2.880726e+02	1.335381e-01	-5.473761e-02	0.000000e+00	
-1.500000e-01	2.102059e-02	1.224514e+00	5.563767e+01	3.021969e-09	2.544124e+05	1.012594e+05	2.880726e+02	1.335382e-01	-5.475398e-02	0.000000e+00	
-1.388253e-01	2.068998e-02	1.224514e+00	5.563765e+01	-1.179270e-06	2.544125e+05	1.012594e+05	2.880726e+02	1.335381e-01	-5.473198e-02	0.000000e+00	
-1.467610e-01	2.347826e-02	1.224514e+00	5.563766e+01	2.669984e-07	2.544124e+05	1.012594e+05	2.880726e+02	1.335382e-01	-5.474621e-02	0.000000e+00	
-1.500000e-01	2.402353e-02	1.224514e+00	5.563766e+01	4.421640e-07	2.544124e+05	1.012594e+05	2.880726e+02	1.335382e-01	-5.475368e-02	0.000000e+00	
-1.295943e-01	1.030755e-02	1.224514e+00	5.563763e+01	-1.260625e-06	2.544125e+05	1.012594e+05	2.880726e+02	1.335381e-01	-5.471503e-02	0.000000e+00	
-1.311803e-01	1.288319e-02	1.224514e+00	5.563764e+01	-3.923077e-06	2.544125e+05	1.012594e+05	2.880726e+02	1.335381e-01	-5.471791e-02	0.000000e+00	
-1.327406e-01	1.545913e-02	1.224514e+00	5.563764e+01	-4.206139e-06	2.544125e+05	1.012594e+05	2.880726e+02	1.335381e-01	-5.472078e-02	0.000000e+00	
-1.279810e-01	7.721967e-03	1.224514e+00	5.563763e+01	3.440442e-06	2.544125e+05	1.012594e+05	2.880726e+02	1.335381e-01	-5.471203e-02	0.000000e+00	
-1.342778e-01	1.803944e-02	1.224514e+00	5.563764e+01	-3.172636e-06	2.544125e+05	1.012594e+05	2.880726e+02	1.335381e-01	-5.472359e-02	0.000000e+00	
-1.357969e-01	2.062199e-02	1.224514e+00	5.563765e+01	-1.671153e-06	2.544125e+05	1.012594e+05	2.880726e+02	1.335381e-01	-5.472638e-02	0.000000e+00	
-1.263393e-01	5.115896e-03	1.224514e+00	5.563764e+01	9.035205e-06	2.544125e+05	1.012594e+05	2.880726e+02	1.335381e-01	-5.470907e-02	0.000000e+00	
-1.246694e-01	2.487703e-03	1.224514e+00	5.563766e+01	1.130220e-05	2.544126e+05	1.012594e+05	2.880726e+02	1.335381e-01	-5.470587e-02	0.000000e+00	
-1.435019e-01	2.334987e-02	1.224514e+00	5.563765e+01	-1.626583e-07	2.544125e+05	1.012594e+05	2.880726e+02	1.335381e-01	-5.474053e-02	0.000000e+00	
-1.403617e-01	2.326932e-02	1.224514e+00	5.563765e+01	-3.078042e-07	2.544125e+05	1.012594e+05	2.880726e+02	1.335381e-01	-5.473478e-02	0.000000e+00	
-1.373061e-01	2.320168e-02	1.224514e+00	5.563765e+01	-4.098122e-07	2.544125e+05	1.012594e+05	2.880726e+02	1.335381e-01	-5.472916e-02	0.000000e+00	
-1.479067e-01	2.576030e-02	1.224514e+00	5.563765e+01	2.006469e-07	2.544124e+05	1.012594e+05	2.880726e+02	1.335381e-01	-5.474821e-02	0.000000e+00	
-1.451321e-01	2.588081e-02	1.224514e+00	5.563765e+01	-1.865400e-07	2.544124e+05	1.012594e+05	2.880726e+02	1.335381e-01	-5.474361e-02	0.000000e+00	
-1.265964e-01	1.027024e-02	1.224514e+00	5.563763e+01	1.413908e-06	2.544125e+05	1.012594e+05	2.880726e+02	1.335381e-01	-5.470954e-02	0.000000e+00	
-1.281752e-01	1.283792e-02	1.224514e+00	5.563764e+01	-2.778316e-06	2.544125e+05	1.012594e+05	2.880726e+02	1.335381e-01	-5.471240e-02	0.000000e+00	
-1.297321e-01	1.540691e-02	1.224514e+00	5.563764e+01	-4.204931e-06	2.544125e+05	1.012594e+05	2.880726e+02	1.335381e-01	-5.471525e-02	0.000000e+00	
-1.312690e-01	1.798184e-02	1.224514e+00	5.563764e+01	-3.697179e-06	2.544125e+05	1.012594e+05	2.880726e+02	1.335381e-01	-5.471804e-02	0.000000e+00	
-1.249921e-01	7.693725e-03	1.224514e+00	5.563763e+01	7.221551e-06	2.544126e+05	1.012594e+05	2.880726e+02	1.335380e-01	-5.470657e-02	0.000000e+00	
-1.327874e-01	2.056130e-02	1.224514e+00	5.563764e+01	-2.236956e-06	2.544125e+05	1.012594e+05	2.880726e+02	1.335381e-01	-5.472082e-02	0.000000e+00	
-1.342900e-01	2.314049e-02	1.224514e+00	5.563764e+01	-8.064534e-07	2.544125e+05	1.012594e+05	2.880726e+02	1.335381e-01	-5.472357e-02	0.000000e+00	
-1.233565e-01	5.098229e-03	1.224514e+00	5.563764e+01	1.277686e-05	2.544126e+05	1.012594e+05	2.880726e+02	1.335381e-01	-5.470364e-02	0.000000e+00	
-1.216838e-01	2.482090e-03	1.224514e+00	5.563765e+01	1.375786e-05	2.544126e+05	1.012594e+05	2.880726e+02	1.335381e-01	-5.470046e-02	0.000000e+00	
-1.419244e-01	2.583345e-02	1.224514e+00	5.563765e+01	3.127205e-08	2.544125e+05	1.012594e+05	2.880726e+02	1.335381e-01	-5.473762e-02	0.000000e+00	
-1.388173e-01	2.577346e-02	1.224514e+00	5.563765e+01	3.755874e-07	2.544125e+05	1.012594e+05	2.880726e+02	1.335381e-01	-5.473196e-02	0.000000e+00	
-1.500000e-01	2.702647e-02	1.224514e+00	5.563766e+01	1.166575e-06	2.544124e+05	1.012594e+05	2.880726e+02	1.335382e-01	-5.475374e-02	0.000000e+00	
-1.357815e-01	2.571460e-02	1.224514e+00	5.563764e+01	1.018543e-07	2.544125e+05	1.012594e+05	2.880726e+02	1.335381e-01	-5.472633e-02	0.000000e+00	
-1.472305e-01	2.847952e-02	1.224514e+00	5.563765e+01	-2.910082e-07	2.544124e+05	1.012594e+05	2.880726e+02	1.335381e-01	-5.474702e-02	0.000000e+00	
-1.435741e-01	2.840552e-02	1.224514e+00	5.563765e+01	6.259225e-08	2.544125e+05	1.012594e+05	2.880726e+02	1.335381e-01	-5.474060e-02	0.000000e+00	
-1.251869e-01	1.280142e-02	1.224514e+00	5.563764e+01	-1.023528e-06	2.544126e+05	1.012594e+05	2.880726e+02	1.335381e-01	-5.470695e-02	0.000000e+00	
-1.236210e-01	1.024159e-02	1.224514e+00	5.563764e+01	4.430043e-06	2.544126e+05	1.012594e+05	2.880726e+02	1.335380e-01	-5.470413e-02	0.000000e+00	
-1.267332e-01	1.536305e-02	1.224514e+00	5.563764e+01	-3.683304e-06	2.544125e+05	1.012594e+05	2.880726e+02	1.335381e-01	-5.470976e-02	0.000000e+00	
-1.282637e-01	1.793172e-02	1.224514e+00	5.563764e+01	-3.944132e-06	2.544125e+05	1.012594e+05	2.880726e+02	1.335381e-01	-5.471253e-02	0.000000e+00	
-1.297796e-01	2.050686e-02	1.224514e+00	5.563764e+01	-2.790051e-06	2.544125e+05	1.012594e+05	2.880726e+02	1.335381e-01	-5.471529e-02	0.000000e+00	
-1.220279e-01	7.673345e-03	1.224514e+00	5.563764e+01	1.089041e-05	2.544126e+05	1.012594e+05	2.880726e+02	1.335380e-01	-5.470121e-02	0.000000e+00	
-1.312812e-01	2.308427e-02	1.224514e+00	5.563764e+01	-1.390087e-06	2.544125e+05	1.012594e+05	2.880726e+02	1.335381e-01	-5.471802e-02	0.000000e+00	
-1.327690e-01	2.565905e-02	1.224514e+00	5.563764e+01	-4.004017e-07	2.544125e+05	1.012594e+05	2.880726e+02	1.335381e-01	-5.472075e-02	0.000000e+00	
-1.203962e-01	5.086842e-03	1.224514e+00	5.563764e+01	1.604171e-05	2.544126e+05	1.012594e+05	2.880727e+02	1.335380e-01	-5.469830e-02	0.000000e+00	
-1.187131e-01	2.480038e-03	1.224514e+00	5.563765e+01	1.574775e-05	2.544126e+05	1.012594e+05	2.880727e+02	1.335381e-01	-5.469513e-02	0.000000e+00	
-1.403484e-01	2.834124e-02	1.224514e+00	5.563765e+01	4.060626e-07	2.544125e+05	1.012594e+05	2.880726e+02	1.335381e-01	-5.473484e-02	0.000000e+00	
-1.372683e-01	2.828227e-02	1.224514e+00	5.563764e+01	3.702682e-07	2.544125e+05	1.012594e+05	2.880726e+02	1.335381e-01	-5.472908e-02	0.000000e+00	
-1.500000e-01	3.002941e-02	1.224514e+00	5.563766e+01	-1.714987e-06	2.544124e+05	1.012594e+05	2.880726e+02	1.335382e-01	-5.475373e-02	0.000000e+00	
-1.342442e-01	2.822796e-02	1.224514e+00	5.563764e+01	-5.372597e-08	2.544125e+05	1.012594e+05	2.880726e+02	1.335381e-01	-5.472348e-02	0.000000e+00	
-1.450978e-01	3.098985e-02	1.224514e+00	5.563765e+01	3.321389e-07	2.544124e+05	1.012594e+05	2.880726e+02	1.335381e-01	-5.474355e-02	0.000000e+00	
-1.479001e-01	3.122529e-02	1.224514e+00	5.563765e+01	-6.549301e-07	2.544124e+05	1.012594e+05	2.880726e+02	1.335381e-01	-5.474818e-02	0.000000e+00	
-1.418678e-01	3.090732e-02	1.224514e+00	5.563765e+01	7.914653e-07	2.544125e+05	1.012594e+05	2.880726e+02	1.335381e-01	-5.473754e-02	0.000000e+00	
-1.237538e-01	1.532821e-02	1.224514e+00	5.563763e+01	-2.695699e-06	2.544126e+05	1.012594e+05	2.880726e+02	1.335380e-01	-5.470434e-02	0.000000e+00	
-1.222238e-01	1.277456e-02	1.224514e+00	5.563764e+01	1.104341e-06	2.544126e+05	1.012594e+05	2.880726e+02	1.335380e-01	-5.470158e-02	0.000000e+00	
-1.206743e-01	1.022252e-02	1.224514e+00	5.563764e+01	7.489492e-06	2.544126e+05	1.012594e+05	2.880726e+02	1.335380e-01	-5.469881e-02	0.000000e+00	
-1.252707e-01	1.788953e-02	1.224514e+00	5.563763e+01	-3.874199e-06	2.544125e+05	1.012594e+05	2.880726e+02	1.335380e-01	-5.470707e-02	0.000000e+00	
-1.267769e-01	2.045899e-02	1.224514e+00	5.563763e+01	-3.238748e-06	2.544125e+05	1.012594e+05	2.880726e+02	1.335380e-01	-5.470980e-02	0.000000e+00	
-1.282729e-01	2.303321e-02	1.224514e+00	5.563764e+01	-2.057502e-06	2.544125e+05	1.012594e+05	2.880726e+02	1.335381e-01	-5.471251e-02	0.000000e+00	
-1.190936e-01	7.662065e-03	1.224514e+00	5.563764e+01	1.412903e-05	2.544126e+05	1.012594e+05	2.880727e+02	1.335380e-01	-5.469593e-02	0.000000e+00	
-1.297579e-01	2.560753e-02	1.224514e+00	5.563764e+01	-1.136850e-06	2.544125e+05	1.012594e+05	2.880726e+02	1.335381e-01	-5.471521e-02	0.000000e+00	
-1.312312e-01	2.817793e-02	1.224514e+00	5.563764e+01	-7.851142e-07	2.544125e+05	1.012594e+05	2.880726e+02	1.335381e-01	-5.471790e-02	0.000000e+00	
-1.174648e-01	5.084400e-03	1.224514e+00	5.563764e+01	1.872529e-05	2.544126e+05	1.012594e+05	2.880727e+02	1.335380e-01	-5.469308e-02	0.000000e+00	
-1.157653e-01	2.485996e-03	1.224514e+00	5.563764e+01	1.741572e-05	2.544126e+05	1.012594e+05	2.880727e+02	1.335380e-01	-5.468990e-02	0.000000e+00	
-1.387490e-01	3.084427e-02	1.224514e+00	5.563764e+01	4.958276e-07	2.544125e+05	1.012594e+05	2.880726e+02	1.335381e-01	-5.473183e-02	0.000000e+00	
-1.357075e-01	3.079001e-02	1.224514e+00	5.563764e+01	2.414325e-08	2.544125e+05	1.012594e+05	2.880726e+02	1.335381e-01	-5.472619e-02	0.000000e+00	
-1.500000e-01	3.303235e-02	1.224514e+00	5.563766e+01	-9.827346e-07	2.544124e+05	1.012594e+05	2.880726e+02	1.335382e-01	-5.475362e-02	0.000000e+00	
-1.326916e-01	3.074206e-02	1.224514e+00	5.563764e+01	-8.095327e-07	2.544125e+05	1.012594e+05	2.880726e+02	1.335381e-01	-5.472059e-02	0.000000e+00	
-1.433984e-01	3.345105e-02	1.224514e+00	5.563765e+01	1.560506e-06	2.544125e+05	1.012594e+05	2.880726e+02	1.335381e-01	-5.474039e-02	0.000000e+00	
-1.467150e-01	3.345256e-02	1.224514e+00	5.563765e+01	3.861772e-07	2.544124e+05	1.012594e+05	2.880726e+02	1.335381e-01	-5.474617e-02	0.000000e+00	
-1.402294e-01	3.339861e-02	1.224514e+00	5.563765e+01	1.388990e-06	2.544125e+05	1.012594e+05	2.880726e+02	1.335381e-01	-5.473458e-02	0.000000e+00	
-1.208001e-01	1.530241e-02	1.224514e+00	5.563763e+01	-1.372715e-06	2.544126e+05	1.012594e+05	2.880726e+02	1.335380e-01	-5.469900e-02	0.000000e+00	
-1.222989e-01	1.785543e-02	1.224514e+00	5.563763e+01	-3.486163e-06	2.544126e+05	1.012594e+05	2.880726e+02	1.335380e-01	-5.470168e-02	0.000000e+00	
-1.192895e-01	1.275713e-02	1.224514e+00	5.563764e+01	3.366303e-06	2.544126e+05	1.012594e+05	2.880727e+02	1.335380e-01	-5.469629e-02	0.000000e+00	
-1.177590e-01	1.021303e-02	1.224514e+00	5.563764e+01	1.020755e-05	2.544126e+05	1.012594e+05	2.880727e+02	1.335381e-01	-5.469358e-02	0.000000e+00	
-1.237898e-01	2.041796e-02	1.224514e+00	5.563763e+01	-3.518071e-06	2.544126e+05	1.012594e+05	2.880726e+02	1.335380e-01	-5.470437e-02	0.000000e+00	
-1.252738e-01	2.298767e-02	1.224514e+00	5.563763e+01	-2.704930e-06	2.544125e+05	1.012594e+05	2.880726e+02	1.335380e-01	-5.470704e-02	0.000000e+00	
-1.267505e-01	2.556038e-02	1.224514e+00	5.563764e+01	-1.956560e-06	2.544125e+05	1.012594e+05	2.880726e+02	1.335381e-01	-5.470971e-02	0.000000e+00	
-1.161950e-01	7.661606e-03	1.224514e+00	5.563764e+01	1.661894e-05	2.544126e+05	1.012594e+05	2.880727e+02	1.335380e-01	-5.469079e-02	0.000000e+00	
-1.282190e-01	2.813183e-02	1.224514e+00	5.563764e+01	-1.687478e-06	2.544125e+05	1.012594e+05	2.880726e+02	1.335381e-01	-5.471237e-02	0.000000e+00	
-1.296778e-01	3.069874e-02	1.224514e+00	5.563764e+01	-1.811010e-06	2.544125e+05	1.012594e+05	2.880726e+02	1.335381e-01	-5.471504e-02	0.000000e+00	
-1.145775e-01	5.097497e-03	1.224514e+00	5.563764e+01	2.051698e-05	2.544126e+05	1.012594e+05	2.880727e+02	1.335380e-01	-5.468798e-02	0.000000e+00	
-1.128668e-01	2.514714e-03	1.224514e+00	5.563763e+01	1.857817e-05	2.544126e+05	1.012595e+05	2.880727e+02	1.335380e-01	-5.468481e-02	0.000000e+00	
-1.371612e-01	3.334556e-02	1.224514e+00	5.563764e+01	4.659613e-07	2.544125e+05	1.012594e+05	2.880726e+02	1.335381e-01	-5.472888e-02	0.000000e+00	
-1.341389e-01	3.329935e-02	1.224514e+00	5.563764e+01	-6.795283e-07	2.544125e+05	1.012594e+05	2.880726e+02	1.335381e-01	-5.472327e-02	0.000000e+00	
-1.481313e-01	3.605411e-02	1.224514e+00	5.563766e+01	2.018109e-06	2.544124e+05	1.012594e+05	2.880726e+02	1.335382e-01	-5.474856e-02	0.000000e+00	
-1.311255e-01	3.325922e-02	1.224514e+00	5.563764e+01	-1.894861e-06	2.544125e+05	1.012594e+05	2.880726e+02	1.335381e-01	-5.471769e-02	0.000000e+00	
-1.417091e-01	3.595705e-02	1.224514e+00	5.563765e+01	2.590998e-06	2.544125e+05	1.012594e+05	2.880726e+02	1.335381e-01	-5.473726e-02	0.000000e+00	
-1.449274e-01	3.602256e-02	1.224514e+00	5.563765e+01	2.862732e-06	2.544124e+05	1.012594e+05	2.880726e+02	1.335381e-01	-5.474334e-02	0.000000e+00	
-1.500000e-01	3.603529e-02	1.224514e+00	5.563766e+01	7.843575e-07	2.544124e+05	1.012594e+05	2.880726e+02	1.335382e-01	-5.475385e-02	0.000000e+00	
-1.386080e-01	3.589867e-02	1.224514e+00	5.563764e+01	1.168256e-06	2.544125e+05	1.012594e+05	2.880726e+02	1.335381e-01	-5.473160e-02	0.000000e+00	
-1.193509e-01	1.782842e-02	1.224514e+00	5.563763e+01	-2.811467e-06	2.544126e+05	1.012594e+05	2.880727e+02	1.335380e-01	-5.469637e-02	0.000000e+00	
-1.178716e-01	1.528399e-02	1.224514e+00	5.563764e+01	1.560687e-07	2.544126e+05	1.012594e+05	2.880727e+02	1.335380e-01	-5.469374e-02	0.000000e+00	
-1.208243e-01	2.038324e-02	1.224514e+00	5.563763e+01	-3.574495e-06	2.544126e+05	1.012594e+05	2.880726e+02	1.335380e-01	-5.469900e-02	0.000000e+00	
-1.163825e-01	1.274706e-02	1.224514e+00	5.563764e+01	5.447992e-06	2.544126e+05	1.012594e+05	2.880727e+02	1.335380e-01	-5.469109e-02	0.000000e+00	
-1.148769e-01	1.021185e-02	1.224514e+00	5.563765e+01	1.218809e-05	2.544126e+05	1.012594e+05	2.880727e+02	1.335381e-01	-5.468847e-02	0.000000e+00	
-1.222928e-01	2.294743e-02	1.224514e+00	5.563763e+01	-3.243878e-06	2.544126e+05	1.012594e+05	2.880726e+02	1.335380e-01	-5.470163e-02	0.000000e+00	
-1.237565e-01	2.551750e-02	1.224514e+00	5.563763e+01	-2.765604e-06	2.544126e+05	1.012594e+05	2.880726e+02	1.335380e-01	-5.470426e-02	0.000000e+00	
-1.252149e-01	2.808922e-02	1.224514e+00	5.563764e+01	-2.648228e-06	2.544126e+05	1.012594e+05	2.880726e+02	1.335380e-01	-5.470689e-02	0.000000e+00	
-1.133458e-01	7.674878e-03	1.224514e+00	5.563764e+01	1.760978e-05	2.544126e+05	1.012594e+05	2.880727e+02	1.335380e-01	-5.468574e-02	0.000000e+00	
-1.266671e-01	3.065869e-02	1.224514e+00	5.563764e+01	-2.907322e-06	2.544125e+05	1.012594e+05	2.880726e+02	1.335381e-01	-5.470952e-02	0.000000e+00	
-1.281122e-01	3.322293e-02	1.224514e+00	5.563764e+01	-3.188933e-06	2.544125e+05	1.012594e+05	2.880726e+02	1.335381e-01	-5.471215e-02	0.000000e+00	
-1.117759e-01	5.141788e-03	1.224514e+00	5.563763e+01	2.085890e-05	2.544126e+05	1.012595e+05	2.880727e+02	1.335380e-01	-5.468317e-02	0.000000e+00	
-1.101166e-01	2.618483e-03	1.224514e+00	5.563762e+01	1.818866e-05	2.544126e+05	1.012595e+05	2.880727e+02	1.335380e-01	-5.468001e-02	0.000000e+00	
-1.355741e-01	3.585144e-02	1.224514e+00	5.563764e+01	-1.591354e-07	2.544125e+05	1.012594e+05	2.880726e+02	1.335381e-01	-5.472593e-02	0.000000e+00	
-1.325610e-01	3.581326e-02	1.224514e+00	5.563764e+01	-1.594691e-06	2.544125e+05	1.012594e+05	2.880726e+02	1.335381e-01	-5.472034e-02	0.000000e+00	
-1.500000e-01	3.903824e-02	1.224514e+00	5.563766e+01	2.826714e-06	2.544124e+05	1.012594e+05	2.880726e+02	1.335382e-01	-5.475386e-02	0.000000e+00	
-1.465444e-01	3.868542e-02	1.224514e+00	5.563765e+01	4.413990e-06	2.544124e+05	1.012594e+05	2.880726e+02	1.335381e-01	-5.474586e-02	0.000000e+00	
-1.295487e-01	3.578061e-02	1.224514e+00	5.563764e+01	-3.092497e-06	2.544125e+05	1.012594e+05	2.880726e+02	1.335381e-01	-5.471478e-02	0.000000e+00	
-1.400472e-01	3.845313e-02	1.224514e+00	5.563765e+01	2.139527e-06	2.544125e+05	1.012594e+05	2.880726e+02	1.335381e-01	-5.473420e-02	0.000000e+00	
-1.431856e-01	3.852925e-02	1.224514e+00	5.563765e+01	3.169104e-06	2.544125e+05	1.012594e+05	2.880726e+02	1.335381e-01	-5.474018e-02	0.000000e+00	
-1.369984e-01	3.840085e-02	1.224514e+00	5.563764e+01	9.760877e-07	2.544125e+05	1.012594e+05	2.880726e+02	1.335381e-01	-5.472859e-02	0.000000e+00	
-1.164233e-01	1.780566e-02	1.224514e+00	5.563763e+01	-1.851597e-06	2.544126e+05	1.012594e+05	2.880727e+02	1.335380e-01	-5.469112e-02	0.000000e+00	
-1.178795e-01	2.035309e-02	1.224514e+00	5.563763e+01	-3.354057e-06	2.544126e+05	1.012594e+05	2.880727e+02	1.335380e-01	-5.469371e-02	0.000000e+00	
-1.149635e-01	1.526873e-02	1.224514e+00	5.563764e+01	1.763169e-06	2.544126e+05	1.012594e+05	2.880727e+02	1.335380e-01	-5.468855e-02	0.000000e+00	
-1.193324e-01	2.291144e-02	1.224514e+00	5.563763e+01	-3.587800e-06	2.544126e+05	1.012594e+05	2.880727e+02	1.335380e-01	-5.469629e-02	0.000000e+00	
-1.134993e-01	1.273894e-02	1.224514e+00	5.563765e+01	7.154634e-06	2.544126e+05	1.012594e+05	2.880727e+02	1.335380e-01	-5.468597e-02	0.000000e+00	
-1.120315e-01	1.021386e-02	1.224514e+00	5.563765e+01	1.313619e-05	2.544126e+05	1.012595e+05	2.880727e+02	1.335381e-01	-5.468343e-02	0.000000e+00	
-1.207818e-01	2.547823e-02	1.224514e+00	5.563763e+01	-3.460981e-06	2.544126e+05	1.012594e+05	2.880726e+02	1.335380e-01	-5.469888e-02	0.000000e+00	
-1.222273e-01	2.804948e-02	1.224514e+00	5.563763e+01	-3.558823e-06	2.544126e+05	1.012594e+05	2.880726e+02	1.335380e-01	-5.470147e-02	0.000000e+00	
-1.236687e-01	3.062089e-02	1.224514e+00	5.563763e+01	-4.001193e-06	2.544126e+05	1.012594e+05	2.880726e+02	1.335380e-01	-5.470407e-02	0.000000e+00	
-1.105707e-01	7.703226e-03	1.224514e+00	5.563765e+01	1.758462e-05	2.544126e+05	1.012595e+05	2.880727e+02	1.335380e-01	-5.468089e-02	0.000000e+00	
-1.251059e-01	3.318866e-02	1.224514e+00	5.563763e+01	-4.514793e-06	2.544126e+05	1.012594e+05	2.880726e+02	1.335380e-01	-5.470666e-02	0.000000e+00	
-1.265384e-01	3.575042e-02	1.224514e+00	5.563763e+01	-4.720233e-06	2.544125e+05	1.012594e+05	2.880726e+02	1.335380e-01	-5.470927e-02	0.000000e+00	
-1.091538e-01	5.256503e-03	1.224514e+00	5.563763e+01	2.002925e-05	2.544126e+05	1.012595e+05	2.880727e+02	1.335380e-01	-5.467843e-02	0.000000e+00	
-1.079433e-01	3.123314e-03	1.224514e+00	5.563762e+01	1.800862e-05	2.544126e+05	1.012595e+05	2.880727e+02	1.335380e-01	-5.467621e-02	0.000000e+00	
-1.339844e-01	3.836253e-02	1.224514e+00	5.563764e+01	-3.455174e-07	2.544125e+05	1.012594e+05	2.880726e+02	1.335381e-01	-5.472296e-02	0.000000e+00	
-1.309755e-01	3.833245e-02	1.224514e+00	5.563764e+01	-1.993686e-06	2.544125e+05	1.012594e+05	2.880726e+02	1.335381e-01	-5.471739e-02	0.000000e+00	
-1.474691e-01	4.123429e-02	1.224514e+00	5.563766e+01	3.346109e-06	2.544124e+05	1.012594e+05	2.880726e+02	1.335382e-01	-5.474770e-02	0.000000e+00	
-1.445937e-01	4.109491e-02	1.224514e+00	5.563766e+01	4.209953e-06	2.544124e+05	1.012594e+05	2.880726e+02	1.335382e-01	-5.474265e-02	0.000000e+00	
-1.279654e-01	3.830614e-02	1.224514e+00	5.563763e+01	-3.920614e-06	2.544125e+05	1.012594e+05	2.880726e+02	1.335380e-01	-5.471186e-02	0.000000e+00	
-1.057941e-01	2.601948e-03	1.224514e+00	5.563761e+01	1.388354e-05	2.544127e+05	1.012595e+05	2.880727e+02	1.335379e-01	-5.467235e-02	0.000000e+00	
-1.384111e-01	4.094598e-02	1.224514e+00	5.563765e+01	3.270464e-06	2.544125e+05	1.012594e+05	2.880726e+02	1.335381e-01	-5.473122e-02	0.000000e+00	
-1.414634e-01	4.099907e-02	1.224514e+00	5.563765e+01	3.322563e-06	2.544125e+05	1.012594e+05	2.880726e+02	1.335381e-01	-5.473685e-02	0.000000e+00	
-1.500000e-01	4.204118e-02	1.224514e+00	5.563767e+01	2.587258e-07	2.544124e+05	1.012594e+05	2.880726e+02	1.335382e-01	-5.475414e-02	0.000000e+00	
-1.353965e-01	4.090846e-02	1.224514e+00	5.563764e+01	2.078827e-06	2.544125e+05	1.012594e+05	2.880726e+02	1.335381e-01	-5.472561e-02	0.000000e+00	
-1.135094e-01	1.778191e-02	1.224514e+00	5.563763e+01	-5.877565e-07	2.544126e+05	1.012594e+05	2.880727e+02	1.335380e-01	-5.468594e-02	0.000000e+00	
-1.149502e-01	2.032420e-02	1.224514e+00	5.563762e+01	-2.786689e-06	2.544126e+05	1.012594e+05	2.880727e+02	1.335380e-01	-5.468848e-02	0.000000e+00	
-1.163894e-01	2.287770e-02	1.224514e+00	5.563762e+01	-3.642684e-06	2.544126e+05	1.012594e+05	2.880727e+02	1.335380e-01	-5.469102e-02	0.000000e+00	
-1.120689e-01	1.524885e-02	1.224514e+00	5.563764e+01	3.459900e-06	2.544126e+05	1.012595e+05	2.880727e+02	1.335380e-01	-5.468342e-02	0.000000e+00	
-1.178258e-01	2.544133e-02	1.224514e+00	5.563763e+01	-3.945500e-06	2.544126e+05	1.012594e+05	2.880727e+02	1.335380e-01	-5.469357e-02	0.000000e+00	
-1.106337e-01	1.272133e-02	1.224514e+00	5.563765e+01	8.735861e-06	2.544126e+05	1.012595e+05	2.880727e+02	1.335381e-01	-5.468090e-02	0.000000e+00	
-1.092184e-01	1.019917e-02	1.224514e+00	5.563765e+01	1.418033e-05	2.544126e+05	1.012595e+05	2.880727e+02	1.335381e-01	-5.467846e-02	0.000000e+00	
-1.192587e-01	2.801177e-02	1.224514e+00	5.563763e+01	-4.324524e-06	2.544126e+05	1.012594e+05	2.880727e+02	1.335380e-01	-5.469612e-02	0.000000e+00	
-1.206881e-01	3.058457e-02	1.224514e+00	5.563763e+01	-5.006646e-06	2.544126e+05	1.012594e+05	2.880726e+02	1.335380e-01	-5.469868e-02	0.000000e+00	
-1.221144e-01	3.315530e-02	1.224514e+00	5.563763e+01	-5.816887e-06	2.544126e+05	1.012594e+05	2.880726e+02	1.335380e-01	-5.470123e-02	0.000000e+00	
-1.078613e-01	7.693796e-03	1.224514e+00	5.563765e+01	1.832880e-05	2.544126e+05	1.012595e+05	2.880727e+02	1.335380e-01	-5.467603e-02	0.000000e+00	
-1.235384e-01	3.572083e-02	1.224514e+00	5.563763e+01	-6.411973e-06	2.544126e+05	1.012594e+05	2.880726e+02	1.335380e-01	-5.470381e-02	0.000000e+00	
-1.249602e-01	3.828066e-02	1.224514e+00	5.563763e+01	-6.062606e-06	2.544126e+05	1.012594e+05	2.880726e+02	1.335380e-01	-5.470637e-02	0.000000e+00	
-1.066573e-01	5.228838e-03	1.224514e+00	5.563763e+01	1.921370e-05	2.544126e+05	1.012595e+05	2.880727e+02	1.335380e-01	-5.467391e-02	0.000000e+00	
-1.323921e-01	4.088067e-02	1.224514e+00	5.563764e+01	4.139690e-07	2.544125e+05	1.012594e+05	2.880726e+02	1.335381e-01	-5.472003e-02	0.000000e+00	
-1.293855e-01	4.085818e-02	1.224514e+00	5.563763e+01	-1.808917e-06	2.544125e+05	1.012594e+05	2.880726e+02	1.335381e-01	-5.471448e-02	0.000000e+00	
-1.457965e-01	4.349798e-02	1.224514e+00	5.563767e+01	5.338739e-06	2.544124e+05	1.012594e+05	2.880726e+02	1.335382e-01	-5.474485e-02	0.000000e+00	
-1.480845e-01	4.353964e-02	1.224514e+00	5.563767e+01	2.295805e-06	2.544124e+05	1.012594e+05	2.880726e+02	1.335382e-01	-5.474916e-02	0.000000e+00	
-1.428762e-01	4.350876e-02	1.224514e+00	5.563766e+01	7.125148e-06	2.544125e+05	1.012594e+05	2.880726e+02	1.335382e-01	-5.473924e-02	0.000000e+00	
-1.263790e-01	4.083733e-02	1.224514e+00	5.563763e+01	-4.337010e-06	2.544125e+05	1.012594e+05	2.880726e+02	1.335380e-01	-5.470897e-02	0.000000e+00	
-1.030540e-01	2.477423e-03	1.224514e+00	5.563760e+01	8.237917e-06	2.544127e+05	1.012595e+05	2.880727e+02	1.335379e-01	-5.466780e-02	0.000000e+00	