VARIABLES = "x"
 "y"
 "Density"
 "Momentum_x"
 "Momentum_y"
 "Energy"
 "Pressure"
 "Temperature"
 "Mach"
 "C<sub>p</sub>"
 "Roe_Dissipation"
ZONE
DT=(DOUBLE,DOUBLE,DOUBLE,DOUBLE,DOUBLE,DOUBLE,DOUBLE,DOUBLE,DOUBLE,DOUBLE,DOUBLE)
                     -3                       0        1.22555696964264        124.619003295898    3.48535907573151E-13                  259772                101374.5        288.154388427734       0.298805892467499     0.00774806411936879                       0 
      -2.99674837418709                       0        1.22555696964264        124.619003295898   -7.32881486646113E-12                  259772                101374.5        288.154388427734       0.298805892467499     0.00774806248460151                       0 
      -2.99349674837419                       0        1.22555696964264        124.619003295898   -1.50061656404954E-11                  259772                101374.5        288.154388427734       0.298805892467499     0.00774806084983422                       0 
      -2.99024512256128                       0        1.22555696964264        124.619003295898   -2.26835164145297E-11                  259772                101374.5        288.154388427734       0.298805892467499     0.00774805921506694                       0 
      -2.98699349674837                       0        1.22555696964264        124.619003295898    -3.0360867188564E-11                  259772                101374.5        288.154388427734       0.298805892467499     0.00774805758029965                       0 
      -2.98374187093547                       0        1.22555696964264        124.619003295898   -3.80382179625972E-11                  259772                101374.5        288.154388427734       0.298805892467499     0.00774805594553237                       0 
      -2.98049024512256                       0        1.22555696964264        124.619003295898   -4.57155687366315E-11                  259772                101374.5        288.154388427734       0.298805892467499     0.00774805431076509                       0 
      -2.97723861930965                       0        1.22555696964264        124.619003295898   -5.33929195106658E-11                  259772                101374.5        288.154388427734       0.298805892467499      0.0077480526759978                       0 
      -2.97398699349675                       0        1.22555696964264        124.619003295898   -6.10702702847001E-11                  259772                101374.5        288.154388427734       0.298805892467499     0.00774805104123052                       0 
      -2.97073536768384                       0        1.22555696964264        124.619003295898   -6.87476210587344E-11                  259772                101374.5        288.154388427734       0.298805892467499     0.00774804940646323                       0 
      -2.96748374187094                       0        1.22555696964264        124.619003295898   -7.64249718327686E-11                  259772                101374.5        288.154388427734       0.298805892467499     0.00774804777169595                       0 
      -2.96423211605803                       0        1.22555696964264        124.619003295898   -8.41023226068029E-11                  259772                101374.5        288.154388427734       0.298805892467499     0.00774804613692866                       0 
      -2.96098049024512                       0        1.22555696964264        124.619003295898   -9.22798343539984E-11                  259772                101374.5        288.154388427734       0.298805892467499     0.00774804469425872                       0 
      -2.95772886443222                       0        1.22555696964264        124.619003295898   -1.01514326914227E-10                  259772                101374.5        288.154388427734       0.298805892467499     0.00774804365754448                       0 
      -2.95447723861931                       0        1.22555696964264        124.619003295898   -1.10748819474456E-10                  259772                101374.5        288.154388427734       0.298805892467499     0.00774804262083024                       0 
       -2.9512256128064                       0        1.22555696964264        124.619003295898   -1.19983312034683E-10                  259772                101374.5        288.154388427734       0.298805892467499     0.00774804158411601                       0 
       -2.9479739869935                       0        1.22555696964264        124.619003295898   -1.29217804594912E-10                  259772                101374.5        288.154388427734       0.298805892467499     0.00774804054740177                       0 
      -2.94472236118059                       0        1.22555696964264        124.619003295898    -1.3845229715514E-10                  259772                101374.5        288.154388427734       0.298805892467499     0.00774803951068754                       0 
      -2.94147073536768                       0        1.22555696964264        124.619003295898   -1.47686789715369E-10                  259772                101374.5        288.154388427734       0.298805892467499      0.0077480384739733                       0 
      -2.93821910955478                       0        1.22555696964264        124.619003295898   -1.56921282275597E-10                  259772                101374.5        288.154388427734       0.298805892467499     0.00774803743725906                       0 
      -2.93496748374187                       0        1.22555696964264        124.619003295898   -1.66155774835826E-10                  259772                101374.5        288.154388427734       0.298805892467499     0.00774803640054482                       0 
      -2.93171585792896                       0        1.22555696964264        124.619003295898   -1.75390267396055E-10                  259772                101374.5        288.154388427734       0.298805892467499     0.00774803536383059                       0 
      -2.92846423211606                       0        1.22555696964264        124.619003295898   -1.84624759956283E-10                  259772                101374.5        288.154388427734       0.298805892467499     0.00774803432711635                       0 
      -2.92521260630315                       0        1.22555696964264        124.619003295898   -1.93859252516512E-10                  259772                101374.5        288.154388427734       0.298805892467499     0.00774803329040212                       0 
      -2.92196098049025                       0        1.22555696964264        124.619003295898   -2.07705156893226E-10                  259772                101374.5        288.154388427734       0.298805892467499     0.00774803209993486                       0 
      -2.91870935467734                       0        1.22555696964264        124.619003295898    -2.2411386622394E-10                  259772                101374.5        288.154388427734       0.298805892467499     0.00774803082401893                       0 
      -2.91545772886443                       0        1.22555696964264        124.619003295898   -2.40522575554654E-10                  259772                101374.5        288.154388427734       0.298805892467499       0.007748029548103                       0 
      -2.91220610305153                       0        1.22555696964264        124.619003295898   -2.56931284885368E-10                  259772                101374.5        288.154388427734       0.298805892467499     0.00774802827218707                       0 
      -2.90895447723862                       0        1.22555696964264        124.619003295898   -2.73339994216082E-10                  259772                101374.5        288.154388427734       0.298805892467499     0.00774802699627114                       0 
      -2.90570285142571                       0        1.22555696964264        124.619003295898   -2.89748703546797E-10                  259772                101374.5        288.154388427734       0.298805892467499     0.00774802572035521                       0 
      -2.90245122561281                       0        1.22555696964264        124.619003295898   -3.06157412877511E-10                  259772                101374.5        288.154388427734       0.298805892467499     0.00774802444443928                       0 
       -2.8991995997999                       0        1.22555696964264        124.619003295898   -3.22566122208225E-10                  259772                101374.5        288.154388427734       0.298805892467499     0.00774802316852335                       0 
      -2.89594797398699                       0        1.22555696964264        124.619003295898   -3.38974831538939E-10                  259772                101374.5        288.154388427734       0.298805892467499     0.00774802189260742                       0 
      -2.89269634817409                       0        1.22555696964264        124.619003295898   -3.55383540869653E-10                  259772                101374.5        288.154388427734       0.298805892467499     0.00774802061669149                       0 
      -2.88944472236118                       0        1.22555696964264        124.619003295898   -3.71792250200365E-10                  259772                101374.5        288.154388427734       0.298805892467499     0.00774801934077556                       0 
      -2.88619309654827                       0        1.22555696964264        124.619003295898   -3.88200959531079E-10                  259772                101374.5        288.154388427734       0.298805892467499     0.00774801806485963                       0 
      -2.88294147073537                       0        1.22555696964264        124.619003295898   -4.11468918950417E-10                  259772                101374.5        288.154388427734       0.298805892467499     0.00774801678894371                       0 
      -2.87968984492246                       0        1.22555696964264        124.619003295898   -4.34993179372863E-10                  259772                101374.5        288.154388427734       0.298805892467499     0.00774801551302778                       0 
      -2.87643821910955                       0        1.22555696964264        124.619003295898   -4.58517439795308E-10                  259772                101374.5        288.154388427734       0.298805892467499     0.00774801423711185                       0 
      -2.87318659329665                       0        1.22555696964264        124.619003295898   -4.82041700217754E-10                  259772                101374.5        288.154388427734       0.298805892467499     0.00774801296119592                       0 
      -2.86993496748374                       0        1.22555696964264        124.619003295898     -5.055659606402E-10                  259772                101374.5        288.154388427734       0.298805892467499     0.00774801168527999                       0 
      -2.86668334167084                       0        1.22555696964264        124.619003295898   -5.29090221062645E-10                  259772                101374.5        288.154388427734       0.298805892467499     0.00774801040936406                       0 
      -2.86343171585793                       0        1.22555696964264        124.619003295898   -5.52614481485091E-10                  259772                101374.5        288.154388427734       0.298805892467499     0.00774800913344813                       0 
      -2.86018009004502                       0        1.22555696964264        124.619003295898   -5.76138741907533E-10                  259772                101374.5        288.154388427734       0.298805892467499      0.0077480078575322                       0 
      -2.85692846423212                       0        1.22555696964264        124.619003295898   -5.99663002329979E-10                  259772                101374.5        288.154388427734       0.298805892467499     0.00774800658161627                       0 
      -2.85367683841921                       0        1.22555696964264        124.619003295898   -6.23187262752424E-10                  259772                101374.5        288.154388427734       0.298805892467499     0.00774800530570034                       0 
       -2.8504252126063                       0        1.22555696964264        124.619003295898    -6.4671152317487E-10                  259772                101374.5        288.154388427734       0.298805892467499     0.00774800402978441                       0 
       -2.8471735867934                       0        1.22555696964264        124.619003295898   -6.71780808059217E-10                  259772                101374.5        288.154388427734       0.298805892467499     0.00774800277659975                       0 
      -2.84392196098049                       0        1.22555696964264        124.619003295898   -7.00722696381844E-10                  259772                101374.5        288.154388427734       0.298805892467499     0.00774800158039102                       0 
      -2.84067033516758                       0        1.22555696964264        124.619003295898   -7.29664584704472E-10                  259772                101374.5        288.154388427734       0.298805892467499     0.00774800038418228                       0 
      -2.83741870935468                       0        1.22555696964264        124.619003295898   -7.58606473027099E-10                  259772                101374.5        288.154388427734       0.298805892467499     0.00774799918797355                       0 
      -2.83416708354177                       0        1.22555696964264        124.619003295898   -7.87548361349726E-10                  259772                101374.5        288.154388427734       0.298805892467499     0.00774799799176482                       0 
      -2.83091545772886                       0        1.22555696964264        124.619003295898    -8.1649024967235E-10                  259772                101374.5        288.154388427734       0.298805892467499     0.00774799679555608                       0 
      -2.82766383191596                       0        1.22555696964264        124.619003295898   -8.45432137994977E-10                  259772                101374.5        288.154388427734       0.298805892467499     0.00774799559934735                       0 
      -2.82441220610305                       0        1.22555696964264        124.619003295898   -8.74374026317605E-10                  259772                101374.5        288.154388427734       0.298805892467499     0.00774799440313861                       0 
      -2.82116058029015                       0        1.22555696964264        124.619003295898   -9.03315914640232E-10                  259772                101374.5        288.154388427734       0.298805892467499     0.00774799320692988                       0 
      -2.81790895447724                       0        1.22555696964264        124.619003295898    -9.3225780296286E-10                  259772                101374.5        288.154388427734       0.298805892467499     0.00774799201072114                       0 
      -2.81465732866433                       0        1.22555696964264        124.619003295898   -9.61199691285487E-10                  259772                101374.5        288.154388427734       0.298805892467499     0.00774799081451241                       0 
      -2.81140570285143                       0        1.22555696964264        124.619003295898   -9.90141579608114E-10                  259772                101374.5        288.154388427734       0.298805892467499     0.00774798961830367                       0 
      -2.80815407703852                       0        1.22555696964264        124.619003295898   -1.02131951576991E-09                  259772                101374.5        288.154388427734       0.298805892467499     0.00774798834953934                       0 
      -2.80490245122561                       0        1.22555696964264        124.619003295898   -1.05394665574391E-09                  259772                101374.5        288.154388427734       0.298805892467499     0.00774798703375104                       0 
      -2.80165082541271                       0        1.22555696964264        124.619003295898   -1.08657379571791E-09                  259772                101374.5        288.154388427734       0.298805892467499     0.00774798571796274                       0 
       -2.7983991995998                       0        1.22555696964264        124.619003295898    -1.1192009356919E-09                  259772                101374.5        288.154388427734       0.298805892467499     0.00774798440217444                       0 
      -2.79514757378689                       0        1.22555696964264        124.619003295898    -1.1518280756659E-09                  259772                101374.5        288.154388427734       0.298805892467499     0.00774798308638613                       0 
      -2.79189594797399                       0        1.22555696964264        124.619003295898    -1.1844552156399E-09                  259772                101374.5        288.154388427734       0.298805892467499     0.00774798177059783                       0 
      -2.78864432216108                       0        1.22555696964264        124.619003295898    -1.2170823556139E-09                  259772                101374.5        288.154388427734       0.298805892467499     0.00774798045480953                       0 
      -2.78539269634817                       0        1.22555696964264        124.619003295898    -1.2497094955879E-09                  259772                101374.5        288.154388427734       0.298805892467499     0.00774797913902123                       0 
      -2.78214107053527                       0        1.22555696964264        124.619003295898   -1.28233663556189E-09                  259772                101374.5        288.154388427734       0.298805892467499     0.00774797782323293                       0 
      -2.77888944472236                       0        1.22555696964264        124.619003295898   -1.31496377553589E-09                  259772                101374.5        288.154388427734       0.298805892467499     0.00774797650744462                       0 
      -2.77563781890945                       0        1.22555696964264        124.619003295898   -1.34759091550989E-09                  259772                101374.5        288.154388427734       0.298805892467499     0.00774797519165632                       0 
      -2.77238619309655                       0        1.22555696964264        124.619003295898   -1.38021805548389E-09                  259772                101374.5        288.154388427734       0.298805892467499     0.00774797387586802                       0 
      -2.76913456728364                       0        1.22555696964264        124.619003295898   -1.41491897186159E-09                  259772                101374.5        288.154388427734       0.298805892467499     0.00774797267107269                       0 
      -2.76588294147074                       0        1.22555696964264        124.619003295898    -1.4497808802341E-09                  259772                101374.5        288.154388427734       0.298805892467499     0.00774797147489399                       0 
      -2.76263131565783                       0        1.22555696964264        124.619003295898   -1.48464278860662E-09                  259772                101374.5        288.154388427734       0.298805892467499      0.0077479702787153                       0 
      -2.75937968984492                       0        1.22555696964264        124.619003295898   -1.51950469697914E-09                  259772                101374.5        288.154388427734       0.298805892467499     0.00774796908253661                       0 
      -2.75612806403202                       0        1.22555696964264        124.619003295898   -1.55436660535166E-09                  259772                101374.5        288.154388427734       0.298805892467499     0.00774796788635791                       0 
      -2.75287643821911                       0        1.22555696964264        124.619003295898   -1.58922851372418E-09                  259772                101374.5        288.154388427734       0.298805892467499     0.00774796669017922                       0 
       -2.7496248124062                       0        1.22555696964264        124.619003295898    -1.6240904220967E-09                  259772                101374.5        288.154388427734       0.298805892467499     0.00774796549400053                       0 
       -2.7463731865933                       0        1.22555696964264        124.619003295898   -1.65895233046922E-09                  259772                101374.5        288.154388427734       0.298805892467499     0.00774796429782183                       0 
      -2.74312156078039                       0        1.22555696964264        124.619003295898   -1.69381423884173E-09                  259772                101374.5        288.154388427734       0.298805892467499     0.00774796310164314                       0 
      -2.73986993496748                       0        1.22555696964264        124.619003295898   -1.72867614721425E-09                  259772                101374.5        288.154388427734       0.298805892467499     0.00774796190546444                       0 
      -2.73661830915458                       0        1.22555696964264        124.619003295898   -1.76353805558677E-09                  259772                101374.5        288.154388427734       0.298805892467499     0.00774796070928575                       0 
      -2.73336668334167                       0        1.22555696964264        124.619003295898    -1.7987223310958E-09                  259772                101374.5        288.154388427734       0.298805892467499     0.00774795949322551                       0 
      -2.73011505752876                       0        1.22555696964264        124.619003295898   -1.83487764949547E-09                  259772                101374.5        288.154388427734       0.298805892467499     0.00774795821727754                       0 
      -2.72686343171586                       0        1.22555696964264        124.619003295898   -1.87103296789514E-09                  259772                101374.5        288.154388427734       0.298805892467499     0.00774795694132956                       0 
      -2.72361180590295                       0        1.22555696964264        124.619003295898   -1.90718828629482E-09                  259772                101374.5        288.154388427734       0.298805892467499     0.00774795566538159                       0 
      -2.72036018009004                       0        1.22555696964264        124.619003295898   -1.94334360469449E-09                  259772                101374.5        288.154388427734       0.298805892467499     0.00774795438943362                       0 
      -2.71710855427714                       0        1.22555696964264        124.619003295898   -1.97949892309417E-09                  259772                101374.5        288.154388427734       0.298805892467499     0.00774795311348565                       0 
      -2.71385692846423                       0        1.22555696964264        124.619003295898   -2.01565424149384E-09                  259772                101374.5        288.154388427734       0.298805892467499     0.00774795183753767                       0 
      -2.71060530265133                       0        1.22555696964264        124.619003295898   -2.05180955989352E-09                  259772                101374.5        288.154388427734       0.298805892467499      0.0077479505615897                       0 
      -2.70735367683842                       0        1.22555696964264        124.619003295898   -2.08796487829319E-09                  259772                101374.5        288.154388427734       0.298805892467499     0.00774794928564173                       0 
      -2.70410205102551                       0        1.22555696964264        124.619003295898   -2.12412019669286E-09                  259772                101374.5        288.154388427734       0.298805892467499     0.00774794800969376                       0 
      -2.70085042521261                       0        1.22555696964264        124.619003295898   -2.16027551509253E-09                  259772                101374.5        288.154388427734       0.298805892467499     0.00774794673374578                       0 
       -2.6975987993997                       0        1.22555696964264        124.619003295898   -2.19643083349221E-09                  259772                101374.5        288.154388427734       0.298805892467499     0.00774794545779781                       0 
      -2.69434717358679                       0        1.22555696964264        124.619003295898   -2.23309021406801E-09                  259772                101374.5        288.154388427734       0.298805892467499     0.00774794422738132                       0 
      -2.69109554777389                       0        1.22555696964264        124.619003295898   -2.27012871173854E-09                  259772                101374.5        288.154388427734       0.298805892467499     0.00774794303121014                       0 
      -2.68784392196098                       0        1.22555696964264        124.619003295898   -2.30716720940906E-09                  259772                101374.5        288.154388427734       0.298805892467499     0.00774794183503896                       0 
      -2.68459229614807                       0        1.22555696964264        124.619003295898   -2.34420570707958E-09                  259772                101374.5        288.154388427734       0.298805892467499     0.00774794063886777                       0 
      -2.68134067033517                       0        1.22555696964264        124.619003295898    -2.3812442047501E-09                  259772                101374.5        288.154388427734       0.298805892467499     0.00774793944269659                       0 
      -2.67808904452226                       0        1.22555696964264        124.619003295898   -2.41828270242062E-09                  259772                101374.5        288.154388427734       0.298805892467499      0.0077479382465254                       0 
      -2.67483741870935                       0        1.22555696964264        124.619003295898   -2.45532120009114E-09                  259772                101374.5        288.154388427734       0.298805892467499     0.00774793705035422                       0 
      -2.67158579289645                       0        1.22555696964264        124.619003295898   -2.49235969776166E-09                  259772                101374.5        288.154388427734       0.298805892467499     0.00774793585418304                       0 
      -2.66833416708354                       0        1.22555696964264        124.619003295898   -2.52939819543219E-09                  259772                101374.5        288.154388427734       0.298805892467499     0.00774793465801185                       0 
      -2.66508254127064                       0        1.22555696964264        124.619003295898   -2.56643669310271E-09                  259772                101374.5        288.154388427734       0.298805892467499     0.00774793346184067                       0 
      -2.66183091545773                       0        1.22555696964264        124.619003295898   -2.60347519077323E-09                  259772                101374.5        288.154388427734       0.298805892467499     0.00774793226566949                       0 
      -2.65857928964482                       0        1.22555696964264        124.619003295898   -2.64051368844375E-09                  259772                101374.5        288.154388427734       0.298805892467499      0.0077479310694983                       0 
      -2.65532766383192                       0        1.22555696964264        124.619003295898   -2.67833768298137E-09                  259772                101374.5        288.154388427734       0.298805892467499     0.00774792987332042                       0 
      -2.65207603801901                       0        1.22555696964264        124.619003295898   -2.71625684128056E-09                  259772                101374.5        288.154388427734       0.298805892467499     0.00774792867714173                       0 
       -2.6488244122061                       0        1.22555696964264        124.619003295898   -2.75417599957975E-09                  259772                101374.5        288.154388427734       0.298805892467499     0.00774792748096303                       0 
       -2.6455727863932                       0        1.22555696964264        124.619003295898   -2.79209515787895E-09                  259772                101374.5        288.154388427734       0.298805892467499     0.00774792628478434                       0 
      -2.64232116058029                       0        1.22555696964264        124.619003295898   -2.83001431617814E-09                  259772                101374.5        288.154388427734       0.298805892467499     0.00774792508860564                       0 
      -2.63906953476738                       0        1.22555696964264        124.619003295898   -2.86793347447734E-09                  259772                101374.5        288.154388427734       0.298805892467499     0.00774792389242695                       0 