TITLE = "Visualization of the volumetric solution"
VARIABLES = "x","y","Density","Momentum_x","Momentum_y","Energy","Pressure","Temperature","Mach","C<sub>p</sub>","Roe_Dissipation"
ZONE NODES= 2400, ELEMENTS= 2291, DATAPACKING=POINT, ZONETYPE=FEQUADRILATERAL
0.000000e+00	1.250000e+00	1.225092e+00	4.167968e+01	4.096536e-02	2.540221e+05	1.013252e+05	2.881240e+02	9.998102e-02	3.170330e-04	0.000000e+00	
0.000000e+00	1.218354e+00	1.225091e+00	4.167969e+01	4.082236e-02	2.540220e+05	1.013252e+05	2.881240e+02	9.998103e-02	3.043747e-04	0.000000e+00	
3.448276e-02	1.218354e+00	1.225091e+00	4.167962e+01	2.225248e-01	2.540221e+05	1.013252e+05	2.881240e+02	9.998224e-02	2.990171e-04	0.000000e+00	
3.448276e-02	1.250000e+00	1.225091e+00	4.167966e+01	2.224930e-01	2.540220e+05	1.013252e+05	2.881240e+02	9.998235e-02	2.908937e-04	0.000000e+00	
0.000000e+00	1.186709e+00	1.225091e+00	4.167969e+01	4.076147e-02	2.540221e+05	1.013252e+05	2.881240e+02	9.998104e-02	3.129067e-04	0.000000e+00	
3.448276e-02	1.186709e+00	1.225091e+00	4.167963e+01	2.225099e-01	2.540220e+05	1.013252e+05	2.881240e+02	9.998228e-02	2.941755e-04	0.000000e+00	
0.000000e+00	1.155063e+00	1.225091e+00	4.167969e+01	4.072708e-02	2.540221e+05	1.013252e+05	2.881240e+02	9.998103e-02	3.155602e-04	0.000000e+00	
3.448276e-02	1.155063e+00	1.225091e+00	4.167964e+01	2.225051e-01	2.540220e+05	1.013252e+05	2.881240e+02	9.998231e-02	2.932813e-04	0.000000e+00	
0.000000e+00	1.123418e+00	1.225092e+00	4.167968e+01	4.071035e-02	2.540221e+05	1.013252e+05	2.881240e+02	9.998102e-02	3.162211e-04	0.000000e+00	
3.448276e-02	1.123418e+00	1.225091e+00	4.167965e+01	2.225020e-01	2.540220e+05	1.013252e+05	2.881240e+02	9.998232e-02	2.921322e-04	0.000000e+00	
0.000000e+00	1.091772e+00	1.225092e+00	4.167968e+01	4.070332e-02	2.540221e+05	1.013252e+05	2.881240e+02	9.998101e-02	3.166711e-04	0.000000e+00	
3.448276e-02	1.091772e+00	1.225091e+00	4.167965e+01	2.225023e-01	2.540220e+05	1.013252e+05	2.881240e+02	9.998233e-02	2.917914e-04	0.000000e+00	
0.000000e+00	1.060127e+00	1.225092e+00	4.167968e+01	4.069960e-02	2.540221e+05	1.013252e+05	2.881240e+02	9.998101e-02	3.167926e-04	0.000000e+00	
3.448276e-02	1.060127e+00	1.225091e+00	4.167965e+01	2.225024e-01	2.540220e+05	1.013252e+05	2.881240e+02	9.998234e-02	2.914067e-04	0.000000e+00	
0.000000e+00	1.028481e+00	1.225092e+00	4.167968e+01	4.069758e-02	2.540221e+05	1.013252e+05	2.881240e+02	9.998102e-02	3.168983e-04	0.000000e+00	
3.448276e-02	1.028481e+00	1.225091e+00	4.167966e+01	2.225028e-01	2.540220e+05	1.013252e+05	2.881240e+02	9.998234e-02	2.912675e-04	0.000000e+00	
0.000000e+00	9.968354e-01	1.225092e+00	4.167968e+01	4.069638e-02	2.540221e+05	1.013252e+05	2.881240e+02	9.998102e-02	3.169417e-04	0.000000e+00	
3.448276e-02	9.968354e-01	1.225091e+00	4.167966e+01	2.225030e-01	2.540220e+05	1.013252e+05	2.881240e+02	9.998235e-02	2.911385e-04	0.000000e+00	
0.000000e+00	9.651899e-01	1.225092e+00	4.167968e+01	4.069577e-02	2.540221e+05	1.013252e+05	2.881240e+02	9.998102e-02	3.169783e-04	0.000000e+00	
3.448276e-02	9.651899e-01	1.225091e+00	4.167966e+01	2.225031e-01	2.540220e+05	1.013252e+05	2.881240e+02	9.998235e-02	2.910822e-04	0.000000e+00	
0.000000e+00	9.335443e-01	1.225092e+00	4.167968e+01	4.069546e-02	2.540221e+05	1.013252e+05	2.881240e+02	9.998102e-02	3.169929e-04	0.000000e+00	
3.448276e-02	9.335443e-01	1.225091e+00	4.167966e+01	2.225033e-01	2.540220e+05	1.013252e+05	2.881240e+02	9.998235e-02	2.910353e-04	0.000000e+00	
0.000000e+00	9.018987e-01	1.225092e+00	4.167968e+01	4.069534e-02	2.540221e+05	1.013252e+05	2.881240e+02	9.998102e-02	3.170034e-04	0.000000e+00	
3.448276e-02	9.018987e-01	1.225091e+00	4.167966e+01	2.225034e-01	2.540220e+05	1.013252e+05	2.881240e+02	9.998235e-02	2.910124e-04	0.000000e+00	
0.000000e+00	8.702532e-01	1.225092e+00	4.167969e+01	4.069529e-02	2.540221e+05	1.013252e+05	2.881240e+02	9.998102e-02	3.170071e-04	0.000000e+00	
3.448276e-02	8.702532e-01	1.225091e+00	4.167966e+01	2.225035e-01	2.540220e+05	1.013252e+05	2.881240e+02	9.998235e-02	2.909946e-04	0.000000e+00	
0.000000e+00	8.386076e-01	1.225092e+00	4.167969e+01	4.069527e-02	2.540221e+05	1.013252e+05	2.881240e+02	9.998102e-02	3.170097e-04	0.000000e+00	
3.448276e-02	8.386076e-01	1.225091e+00	4.167966e+01	2.225036e-01	2.540220e+05	1.013252e+05	2.881240e+02	9.998235e-02	2.909853e-04	0.000000e+00	
0.000000e+00	8.069620e-01	1.225092e+00	4.167969e+01	4.069527e-02	2.540221e+05	1.013252e+05	2.881240e+02	9.998102e-02	3.170104e-04	0.000000e+00	
3.448276e-02	8.069620e-01	1.225091e+00	4.167966e+01	2.225036e-01	2.540220e+05	1.013252e+05	2.881240e+02	9.998235e-02	2.909785e-04	0.000000e+00	
0.000000e+00	7.753165e-01	1.225092e+00	4.167969e+01	4.069528e-02	2.540221e+05	1.013252e+05	2.881240e+02	9.998102e-02	3.170110e-04	0.000000e+00	
3.448276e-02	7.753165e-01	1.225091e+00	4.167966e+01	2.225037e-01	2.540220e+05	1.013252e+05	2.881240e+02	9.998235e-02	2.909747e-04	0.000000e+00	
0.000000e+00	7.436709e-01	1.225092e+00	4.167969e+01	4.069530e-02	2.540221e+05	1.013252e+05	2.881240e+02	9.998102e-02	3.170110e-04	0.000000e+00	
3.448276e-02	7.436709e-01	1.225091e+00	4.167966e+01	2.225037e-01	2.540220e+05	1.013252e+05	2.881240e+02	9.998235e-02	2.909720e-04	0.000000e+00	
0.000000e+00	7.120253e-01	1.225092e+00	4.167969e+01	4.069531e-02	2.540221e+05	1.013252e+05	2.881240e+02	9.998102e-02	3.170110e-04	0.000000e+00	
3.448276e-02	7.120253e-01	1.225091e+00	4.167966e+01	2.225037e-01	2.540220e+05	1.013252e+05	2.881240e+02	9.998235e-02	2.909704e-04	0.000000e+00	
0.000000e+00	6.803797e-01	1.225092e+00	4.167969e+01	4.069533e-02	2.540221e+05	1.013252e+05	2.881240e+02	9.998102e-02	3.170109e-04	0.000000e+00	
3.448276e-02	6.803797e-01	1.225091e+00	4.167966e+01	2.225037e-01	2.540220e+05	1.013252e+05	2.881240e+02	9.998235e-02	2.909694e-04	0.000000e+00	
0.000000e+00	6.487342e-01	1.225092e+00	4.167969e+01	4.069534e-02	2.540221e+05	1.013252e+05	2.881240e+02	9.998102e-02	3.170108e-04	0.000000e+00	
3.448276e-02	6.487342e-01	1.225091e+00	4.167966e+01	2.225037e-01	2.540220e+05	1.013252e+05	2.881240e+02	9.998235e-02	2.909688e-04	0.000000e+00	
0.000000e+00	6.170886e-01	1.225092e+00	4.167969e+01	4.069536e-02	2.540221e+05	1.013252e+05	2.881240e+02	9.998102e-02	3.170108e-04	0.000000e+00	
3.448276e-02	6.170886e-01	1.225091e+00	4.167966e+01	2.225038e-01	2.540220e+05	1.013252e+05	2.881240e+02	9.998235e-02	2.909684e-04	0.000000e+00	
0.000000e+00	5.854430e-01	1.225092e+00	4.167969e+01	4.069537e-02	2.540221e+05	1.013252e+05	2.881240e+02	9.998102e-02	3.170107e-04	0.000000e+00	
3.448276e-02	5.854430e-01	1.225091e+00	4.167966e+01	2.225038e-01	2.540220e+05	1.013252e+05	2.881240e+02	9.998235e-02	2.909683e-04	0.000000e+00	
0.000000e+00	5.537975e-01	1.225092e+00	4.167969e+01	4.069537e-02	2.540221e+05	1.013252e+05	2.881240e+02	9.998102e-02	3.170107e-04	0.000000e+00	
3.448276e-02	5.537975e-01	1.225091e+00	4.167966e+01	2.225038e-01	2.540220e+05	1.013252e+05	2.881240e+02	9.998235e-02	2.909682e-04	0.000000e+00	
0.000000e+00	5.221519e-01	1.225092e+00	4.167969e+01	4.069538e-02	2.540221e+05	1.013252e+05	2.881240e+02	9.998102e-02	3.170107e-04	0.000000e+00	
3.448276e-02	5.221519e-01	1.225091e+00	4.167966e+01	2.225038e-01	2.540220e+05	1.013252e+05	2.881240e+02	9.998235e-02	2.909681e-04	0.000000e+00	
0.000000e+00	4.905063e-01	1.225092e+00	4.167969e+01	4.069539e-02	2.540221e+05	1.013252e+05	2.881240e+02	9.998102e-02	3.170107e-04	0.000000e+00	
3.448276e-02	4.905063e-01	1.225091e+00	4.167966e+01	2.225038e-01	2.540220e+05	1.013252e+05	2.881240e+02	9.998235e-02	2.909682e-04	0.000000e+00	
0.000000e+00	4.588608e-01	1.225092e+00	4.167969e+01	4.069539e-02	2.540221e+05	1.013252e+05	2.881240e+02	9.998102e-02	3.170107e-04	0.000000e+00	
3.448276e-02	4.588608e-01	1.225091e+00	4.167966e+01	2.225038e-01	2.540220e+05	1.013252e+05	2.881240e+02	9.998235e-02	2.909682e-04	0.000000e+00	
0.000000e+00	4.272152e-01	1.225092e+00	4.167969e+01	4.069540e-02	2.540221e+05	1.013252e+05	2.881240e+02	9.998102e-02	3.170107e-04	0.000000e+00	
3.448276e-02	4.272152e-01	1.225091e+00	4.167966e+01	2.225038e-01	2.540220e+05	1.013252e+05	2.881240e+02	9.998235e-02	2.909683e-04	0.000000e+00	
0.000000e+00	3.955696e-01	1.225092e+00	4.167969e+01	4.069540e-02	2.540221e+05	1.013252e+05	2.881240e+02	9.998102e-02	3.170108e-04	0.000000e+00	
3.448276e-02	3.955696e-01	1.225091e+00	4.167966e+01	2.225038e-01	2.540220e+05	1.013252e+05	2.881240e+02	9.998235e-02	2.909683e-04	0.000000e+00	
0.000000e+00	3.639241e-01	1.225092e+00	4.167969e+01	4.069540e-02	2.540221e+05	1.013252e+05	2.881240e+02	9.998102e-02	3.170108e-04	0.000000e+00	
3.448276e-02	3.639241e-01	1.225091e+00	4.167966e+01	2.225038e-01	2.540220e+05	1.013252e+05	2.881240e+02	9.998235e-02	2.909684e-04	0.000000e+00	
0.000000e+00	3.322785e-01	1.225092e+00	4.167969e+01	4.069541e-02	2.540221e+05	1.013252e+05	2.881240e+02	9.998102e-02	3.170108e-04	0.000000e+00	
3.448276e-02	3.322785e-01	1.225091e+00	4.167966e+01	2.225038e-01	2.540220e+05	1.013252e+05	2.881240e+02	9.998235e-02	2.909684e-04	0.000000e+00	
0.000000e+00	3.006329e-01	1.225092e+00	4.167969e+01	4.069541e-02	2.540221e+05	1.013252e+05	2.881240e+02	9.998102e-02	3.170109e-04	0.000000e+00	
3.448276e-02	3.006329e-01	1.225091e+00	4.167966e+01	2.225038e-01	2.540220e+05	1.013252e+05	2.881240e+02	9.998235e-02	2.909685e-04	0.000000e+00	
0.000000e+00	2.689873e-01	1.225092e+00	4.167969e+01	4.069541e-02	2.540221e+05	1.013252e+05	2.881240e+02	9.998102e-02	3.170109e-04	0.000000e+00	
3.448276e-02	2.689873e-01	1.225091e+00	4.167966e+01	2.225038e-01	2.540220e+05	1.013252e+05	2.881240e+02	9.998235e-02	2.909686e-04	0.000000e+00	
0.000000e+00	2.373418e-01	1.225092e+00	4.167969e+01	4.069541e-02	2.540221e+05	1.013252e+05	2.881240e+02	9.998102e-02	3.170109e-04	0.000000e+00	
3.448276e-02	2.373418e-01	1.225091e+00	4.167966e+01	2.225038e-01	2.540220e+05	1.013252e+05	2.881240e+02	9.998235e-02	2.909686e-04	0.000000e+00	
0.000000e+00	2.056962e-01	1.225092e+00	4.167969e+01	4.069541e-02	2.540221e+05	1.013252e+05	2.881240e+02	9.998102e-02	3.170110e-04	0.000000e+00	
3.448276e-02	2.056962e-01	1.225091e+00	4.167966e+01	2.225038e-01	2.540220e+05	1.013252e+05	2.881240e+02	9.998235e-02	2.909687e-04	0.000000e+00	
0.000000e+00	1.740506e-01	1.225092e+00	4.167969e+01	4.069541e-02	2.540221e+05	1.013252e+05	2.881240e+02	9.998102e-02	3.170110e-04	0.000000e+00	
3.448276e-02	1.740506e-01	1.225091e+00	4.167966e+01	2.225038e-01	2.540220e+05	1.013252e+05	2.881240e+02	9.998235e-02	2.909687e-04	0.000000e+00	
0.000000e+00	1.424051e-01	1.225092e+00	4.167969e+01	4.069542e-02	2.540221e+05	1.013252e+05	2.881240e+02	9.998102e-02	3.170110e-04	0.000000e+00	
3.448276e-02	1.424051e-01	1.225091e+00	4.167966e+01	2.225038e-01	2.540220e+05	1.013252e+05	2.881240e+02	9.998235e-02	2.909687e-04	0.000000e+00	
0.000000e+00	1.107595e-01	1.225092e+00	4.167969e+01	4.069542e-02	2.540221e+05	1.013252e+05	2.881240e+02	9.998102e-02	3.170111e-04	0.000000e+00	
3.448276e-02	1.107595e-01	1.225091e+00	4.167966e+01	2.225038e-01	2.540220e+05	1.013252e+05	2.881240e+02	9.998235e-02	2.909688e-04	0.000000e+00	
0.000000e+00	7.911392e-02	1.225092e+00	4.167969e+01	4.069542e-02	2.540221e+05	1.013252e+05	2.881240e+02	9.998102e-02	3.170111e-04	0.000000e+00	
3.448276e-02	7.911392e-02	1.225091e+00	4.167966e+01	2.225038e-01	2.540220e+05	1.013252e+05	2.881240e+02	9.998235e-02	2.909688e-04	0.000000e+00	
0.000000e+00	4.746835e-02	1.225092e+00	4.167969e+01	4.069542e-02	2.540221e+05	1.013252e+05	2.881240e+02	9.998102e-02	3.170111e-04	0.000000e+00	
3.448276e-02	4.746835e-02	1.225091e+00	4.167966e+01	2.225038e-01	2.540220e+05	1.013252e+05	2.881240e+02	9.998235e-02	2.909688e-04	0.000000e+00	
0.000000e+00	1.582278e-02	1.225092e+00	4.167969e+01	4.069542e-02	2.540221e+05	1.013252e+05	2.881240e+02	9.998102e-02	3.170111e-04	0.000000e+00	
3.448276e-02	1.582278e-02	1.225091e+00	4.167966e+01	2.225038e-01	2.540220e+05	1.013252e+05	2.881240e+02	9.998235e-02	2.909689e-04	0.000000e+00	
0.000000e+00	-1.582278e-02	1.225092e+00	4.167969e+01	4.069542e-02	2.540221e+05	1.013252e+05	2.881240e+02	9.998102e-02	3.170111e-04	0.000000e+00	
3.448276e-02	-1.582278e-02	1.225091e+00	4.167966e+01	2.225038e-01	2.540220e+05	1.013252e+05	2.881240e+02	9.998235e-02	2.909689e-04	0.000000e+00	
0.000000e+00	-4.746835e-02	1.225092e+00	4.167969e+01	4.069542e-02	2.540221e+05	1.013252e+05	2.881240e+02	9.998102e-02	3.170112e-04	0.000000e+00	
3.448276e-02	-4.746835e-02	1.225091e+00	4.167966e+01	2.225038e-01	2.540220e+05	1.013252e+05	2.881240e+02	9.998235e-02	2.909689e-04	0.000000e+00	
0.000000e+00	-7.911392e-02	1.225092e+00	4.167969e+01	4.069542e-02	2.540221e+05	1.013252e+05	2.881240e+02	9.998102e-02	3.170112e-04	0.000000e+00	
3.448276e-02	-7.911392e-02	1.225091e+00	4.167966e+01	2.225038e-01	2.540220e+05	1.013252e+05	2.881240e+02	9.998235e-02	2.909689e-04	0.000000e+00	
0.000000e+00	-1.107595e-01	1.225092e+00	4.167969e+01	4.069542e-02	2.540221e+05	1.013252e+05	2.881240e+02	9.998102e-02	3.170112e-04	0.000000e+00	
3.448276e-02	-1.107595e-01	1.225091e+00	4.167966e+01	2.225038e-01	2.540220e+05	1.013252e+05	2.881240e+02	9.998235e-02	2.909690e-04	0.000000e+00	
0.000000e+00	-1.424051e-01	1.225092e+00	4.167969e+01	4.069542e-02	2.540221e+05	1.013252e+05	2.881240e+02	9.998102e-02	3.170112e-04	0.000000e+00	
3.448276e-02	-1.424051e-01	1.225091e+00	4.167966e+01	2.225038e-01	2.540220e+05	1.013252e+05	2.881240e+02	9.998235e-02	2.909690e-04	0.000000e+00	
0.000000e+00	-1.740506e-01	1.225092e+00	4.167969e+01	4.069542e-02	2.540221e+05	1.013252e+05	2.881240e+02	9.998102e-02	3.170113e-04	0.000000e+00	
3.448276e-02	-1.740506e-01	1.225091e+00	4.167966e+01	2.225038e-01	2.540220e+05	1.013252e+05	2.881240e+02	9.998235e-02	2.909690e-04	0.000000e+00	
0.000000e+00	-2.056962e-01	1.225092e+00	4.167969e+01	4.069542e-02	2.540221e+05	1.013252e+05	2.881240e+02	9.998102e-02	3.170113e-04	0.000000e+00	
3.448276e-02	-2.056962e-01	1.225091e+00	4.167966e+01	2.225038e-01	2.540220e+05	1.013252e+05	2.881240e+02	9.998235e-02	2.909691e-04	0.000000e+00	
0.000000e+00	-2.373418e-01	1.225092e+00	4.167969e+01	4.069542e-02	2.540221e+05	1.013252e+05	2.881240e+02	9.998102e-02	3.170113e-04	0.000000e+00	
3.448276e-02	-2.373418e-01	1.225091e+00	4.167966e+01	2.225038e-01	2.540220e+05	1.013252e+05	2.881240e+02	9.998235e-02	2.909691e-04	0.000000e+00	
0.000000e+00	-2.689873e-01	1.225092e+00	4.167969e+01	4.069542e-02	2.540221e+05	1.013252e+05	2.881240e+02	9.998102e-02	3.170113e-04	0.000000e+00	
3.448276e-02	-2.689873e-01	1.225091e+00	4.167966e+01	2.225038e-01	2.540220e+05	1.013252e+05	2.881240e+02	9.998235e-02	2.909691e-04	0.000000e+00	
0.000000e+00	-3.006329e-01	1.225092e+00	4.167969e+01	4.069542e-02	2.540221e+05	1.013252e+05	2.881240e+02	9.998102e-02	3.170114e-04	0.000000e+00	
3.448276e-02	-3.006329e-01	1.225091e+00	4.167966e+01	2.225038e-01	2.540220e+05	1.013252e+05	2.881240e+02	9.998235e-02	2.909692e-04	0.000000e+00	
0.000000e+00	-3.322785e-01	1.225092e+00	4.167969e+01	4.069542e-02	2.540221e+05	1.013252e+05	2.881240e+02	9.998102e-02	3.170114e-04	0.000000e+00	
3.448276e-02	-3.322785e-01	1.225091e+00	4.167966e+01	2.225038e-01	2.540220e+05	1.013252e+05	2.881240e+02	9.998235e-02	2.909692e-04	0.000000e+00	
0.000000e+00	-3.639241e-01	1.225092e+00	4.167969e+01	4.069542e-02	2.540221e+05	1.013252e+05	2.881240e+02	9.998102e-02	3.170114e-04	0.000000e+00	
3.448276e-02	-3.639241e-01	1.225091e+00	4.167966e+01	2.225038e-01	2.540220e+05	1.013252e+05	2.881240e+02	9.998235e-02	2.909693e-04	0.000000e+00	
0.000000e+00	-3.955696e-01	1.225092e+00	4.167969e+01	4.069542e-02	2.540221e+05	1.013252e+05	2.881240e+02	9.998102e-02	3.170114e-04	0.000000e+00	
3.448276e-02	-3.955696e-01	1.225091e+00	4.167966e+01	2.225038e-01	2.540220e+05	1.013252e+05	2.881240e+02	9.998235e-02	2.909693e-04	0.000000e+00	
0.000000e+00	-4.272152e-01	1.225092e+00	4.167969e+01	4.069542e-02	2.540221e+05	1.013252e+05	2.881240e+02	9.998102e-02	3.170115e-04	0.000000e+00	
3.448276e-02	-4.272152e-01	1.225091e+00	4.167966e+01	2.225038e-01	2.540220e+05	1.013252e+05	2.881240e+02	9.998235e-02	2.909693e-04	0.000000e+00	
0.000000e+00	-4.588608e-01	1.225092e+00	4.167969e+01	4.069542e-02	2.540221e+05	1.013252e+05	2.881240e+02	9.998102e-02	3.170115e-04	0.000000e+00	
3.448276e-02	-4.588608e-01	1.225091e+00	4.167966e+01	2.225038e-01	2.540220e+05	1.013252e+05	2.881240e+02	9.998235e-02	2.909694e-04	0.000000e+00	
0.000000e+00	-4.905063e-01	1.225092e+00	4.167969e+01	4.069541e-02	2.540221e+05	1.013252e+05	2.881240e+02	9.998102e-02	3.170115e-04	0.000000e+00	
3.448276e-02	-4.905063e-01	1.225091e+00	4.167966e+01	2.225038e-01	2.540220e+05	1.013252e+05	2.881240e+02	9.998235e-02	2.909694e-04	0.000000e+00	
0.000000e+00	-5.221519e-01	1.225092e+00	4.167969e+01	4.069541e-02	2.540221e+05	1.013252e+05	2.881240e+02	9.998102e-02	3.170115e-04	0.000000e+00	
3.448276e-02	-5.221519e-01	1.225091e+00	4.167966e+01	2.225038e-01	2.540220e+05	1.013252e+05	2.881240e+02	9.998235e-02	2.909694e-04	0.000000e+00	
0.000000e+00	-5.537975e-01	1.225092e+00	4.167969e+01	4.069541e-02	2.540221e+05	1.013252e+05	2.881240e+02	9.998102e-02	3.170115e-04	0.000000e+00	
3.448276e-02	-5.537975e-01	1.225091e+00	4.167966e+01	2.225038e-01	2.540220e+05	1.013252e+05	2.881240e+02	9.998235e-02	2.909693e-04	0.000000e+00	
0.000000e+00	-5.854430e-01	1.225092e+00	4.167969e+01	4.069540e-02	2.540221e+05	1.013252e+05	2.881240e+02	9.998102e-02	3.170114e-04	0.000000e+00	
3.448276e-02	-5.854430e-01	1.225091e+00	4.167966e+01	2.225038e-01	2.540220e+05	1.013252e+05	2.881240e+02	9.998235e-02	2.909692e-04	0.000000e+00	
0.000000e+00	-6.170886e-01	1.225092e+00	4.167969e+01	4.069539e-02	2.540221e+05	1.013252e+05	2.881240e+02	9.998102e-02	3.170114e-04	0.000000e+00	
3.448276e-02	-6.170886e-01	1.225091e+00	4.167966e+01	2.225038e-01	2.540220e+05	1.013252e+05	2.881240e+02	9.998235e-02	2.909690e-04	0.000000e+00	
0.000000e+00	-6.487342e-01	1.225092e+00	4.167969e+01	4.069539e-02	2.540221e+05	1.013252e+05	2.881240e+02	9.998102e-02	3.170113e-04	0.000000e+00	
3.448276e-02	-6.487342e-01	1.225091e+00	4.167966e+01	2.225038e-01	2.540220e+05	1.013252e+05	2.881240e+02	9.998235e-02	2.909686e-04	0.000000e+00	
0.000000e+00	-6.803797e-01	1.225092e+00	4.167969e+01	4.069538e-02	2.540221e+05	1.013252e+05	2.881240e+02	9.998102e-02	3.170112e-04	0.000000e+00	
3.448276e-02	-6.803797e-01	1.225091e+00	4.167966e+01	2.225038e-01	2.540220e+05	1.013252e+05	2.881240e+02	9.998235e-02	2.909680e-04	0.000000e+00	
0.000000e+00	-7.120253e-01	1.225092e+00	4.167969e+01	4.069537e-02	2.540221e+05	1.013252e+05	2.881240e+02	9.998102e-02	3.170111e-04	0.000000e+00	
3.448276e-02	-7.120253e-01	1.225091e+00	4.167966e+01	2.225038e-01	2.540220e+05	1.013252e+05	2.881240e+02	9.998235e-02	2.909669e-04	0.000000e+00	
0.000000e+00	-7.436709e-01	1.225092e+00	4.167969e+01	4.069536e-02	2.540221e+05	1.013252e+05	2.881240e+02	9.998102e-02	3.170111e-04	0.000000e+00	
3.448276e-02	-7.436709e-01	1.225091e+00	4.167966e+01	2.225037e-01	2.540220e+05	1.013252e+05	2.881240e+02	9.998235e-02	2.909653e-04	0.000000e+00	
0.000000e+00	-7.753165e-01	1.225092e+00	4.167969e+01	4.069535e-02	2.540221e+05	1.013252e+05	2.881240e+02	9.998102e-02	3.170112e-04	0.000000e+00	
3.448276e-02	-7.753165e-01	1.225091e+00	4.167966e+01	2.225037e-01	2.540220e+05	1.013252e+05	2.881240e+02	9.998235e-02	2.909626e-04	0.000000e+00	
0.000000e+00	-8.069620e-01	1.225092e+00	4.167969e+01	4.069535e-02	2.540221e+05	1.013252e+05	2.881240e+02	9.998102e-02	3.170119e-04	0.000000e+00	
3.448276e-02	-8.069620e-01	1.225091e+00	4.167966e+01	2.225037e-01	2.540220e+05	1.013252e+05	2.881240e+02	9.998235e-02	2.909588e-04	0.000000e+00	
0.000000e+00	-8.386076e-01	1.225092e+00	4.167969e+01	4.069536e-02	2.540221e+05	1.013252e+05	2.881240e+02	9.998102e-02	3.170127e-04	0.000000e+00	
3.448276e-02	-8.386076e-01	1.225091e+00	4.167966e+01	2.225036e-01	2.540220e+05	1.013252e+05	2.881240e+02	9.998235e-02	2.909519e-04	0.000000e+00	
0.000000e+00	-8.702532e-01	1.225092e+00	4.167969e+01	4.069538e-02	2.540221e+05	1.013252e+05	2.881240e+02	9.998102e-02	3.170155e-04	0.000000e+00	
3.448276e-02	-8.702532e-01	1.225091e+00	4.167966e+01	2.225036e-01	2.540220e+05	1.013252e+05	2.881240e+02	9.998235e-02	2.909426e-04	0.000000e+00	
0.000000e+00	-9.018987e-01	1.225092e+00	4.167969e+01	4.069544e-02	2.540221e+05	1.013252e+05	2.881240e+02	9.998102e-02	3.170193e-04	0.000000e+00	
3.448276e-02	-9.018987e-01	1.225091e+00	4.167966e+01	2.225035e-01	2.540220e+05	1.013252e+05	2.881240e+02	9.998235e-02	2.909249e-04	0.000000e+00	
0.000000e+00	-9.335443e-01	1.225092e+00	4.167969e+01	4.069558e-02	2.540221e+05	1.013252e+05	2.881240e+02	9.998102e-02	3.170300e-04	0.000000e+00	
3.448276e-02	-9.335443e-01	1.225091e+00	4.167966e+01	2.225034e-01	2.540220e+05	1.013252e+05	2.881240e+02	9.998235e-02	2.909019e-04	0.000000e+00	
0.000000e+00	-9.651899e-01	1.225092e+00	4.167969e+01	4.069589e-02	2.540221e+05	1.013252e+05	2.881240e+02	9.998102e-02	3.170449e-04	0.000000e+00	
3.448276e-02	-9.651899e-01	1.225091e+00	4.167966e+01	2.225032e-01	2.540220e+05	1.013252e+05	2.881240e+02	9.998235e-02	2.908551e-04	0.000000e+00	
0.000000e+00	-9.968354e-01	1.225092e+00	4.167969e+01	4.069653e-02	2.540221e+05	1.013252e+05	2.881240e+02	9.998102e-02	3.170818e-04	0.000000e+00	
3.448276e-02	-9.968354e-01	1.225091e+00	4.167966e+01	2.225031e-01	2.540220e+05	1.013252e+05	2.881240e+02	9.998236e-02	2.907986e-04	0.000000e+00	
0.000000e+00	-1.028481e+00	1.225092e+00	4.167969e+01	4.069774e-02	2.540221e+05	1.013252e+05	2.881240e+02	9.998103e-02	3.171257e-04	0.000000e+00	
3.448276e-02	-1.028481e+00	1.225091e+00	4.167966e+01	2.225030e-01	2.540220e+05	1.013252e+05	2.881240e+02	9.998236e-02	2.906694e-04	0.000000e+00	
0.000000e+00	-1.060127e+00	1.225092e+00	4.167969e+01	4.069979e-02	2.540221e+05	1.013252e+05	2.881240e+02	9.998103e-02	3.172319e-04	0.000000e+00	
3.448276e-02	-1.060127e+00	1.225091e+00	4.167966e+01	2.225026e-01	2.540220e+05	1.013252e+05	2.881240e+02	9.998236e-02	2.905294e-04	0.000000e+00	
0.000000e+00	-1.091772e+00	1.225092e+00	4.167969e+01	4.070353e-02	2.540221e+05	1.013252e+05	2.881240e+02	9.998103e-02	3.173544e-04	0.000000e+00	
3.448276e-02	-1.091772e+00	1.225091e+00	4.167967e+01	2.225025e-01	2.540220e+05	1.013252e+05	2.881240e+02	9.998237e-02	2.901438e-04	0.000000e+00	
0.000000e+00	-1.123418e+00	1.225092e+00	4.167969e+01	4.071060e-02	2.540221e+05	1.013252e+05	2.881240e+02	9.998103e-02	3.178053e-04	0.000000e+00	
3.448276e-02	-1.123418e+00	1.225091e+00	4.167967e+01	2.225023e-01	2.540220e+05	1.013252e+05	2.881240e+02	9.998238e-02	2.898000e-04	0.000000e+00	
0.000000e+00	-1.155063e+00	1.225092e+00	4.167968e+01	4.072734e-02	2.540221e+05	1.013252e+05	2.881240e+02	9.998102e-02	3.184700e-04	0.000000e+00	
3.448276e-02	-1.155063e+00	1.225091e+00	4.167968e+01	2.225054e-01	2.540220e+05	1.013252e+05	2.881240e+02	9.998240e-02	2.886465e-04	0.000000e+00	
0.000000e+00	-1.186709e+00	1.225092e+00	4.167968e+01	4.076172e-02	2.540221e+05	1.013252e+05	2.881240e+02	9.998100e-02	3.211277e-04	0.000000e+00	
3.448276e-02	-1.186709e+00	1.225091e+00	4.167969e+01	2.225102e-01	2.540220e+05	1.013252e+05	2.881240e+02	9.998242e-02	2.877350e-04	0.000000e+00	
0.000000e+00	-1.218354e+00	1.225092e+00	4.167968e+01	4.082253e-02	2.540221e+05	1.013252e+05	2.881240e+02	9.998101e-02	3.296569e-04	0.000000e+00	
3.448276e-02	-1.218354e+00	1.225091e+00	4.167970e+01	2.225249e-01	2.540220e+05	1.013252e+05	2.881240e+02	9.998246e-02	2.828933e-04	0.000000e+00	
6.896552e-02	1.218354e+00	1.225091e+00	4.167967e+01	3.652237e-01	2.540220e+05	1.013252e+05	2.881239e+02	9.998482e-02	2.325687e-04	0.000000e+00	
6.896552e-02	1.250000e+00	1.225091e+00	4.167967e+01	3.651900e-01	2.540220e+05	1.013252e+05	2.881239e+02	9.998484e-02	2.303846e-04	0.000000e+00	
6.896552e-02	1.186709e+00	1.225091e+00	4.167966e+01	3.652329e-01	2.540220e+05	1.013252e+05	2.881239e+02	9.998481e-02	2.294752e-04	0.000000e+00	
6.896552e-02	1.155063e+00	1.225091e+00	4.167967e+01	3.652433e-01	2.540220e+05	1.013252e+05	2.881239e+02	9.998482e-02	2.304627e-04	0.000000e+00	
6.896552e-02	1.123418e+00	1.225091e+00	4.167967e+01	3.652454e-01	2.540220e+05	1.013252e+05	2.881239e+02	9.998482e-02	2.300387e-04	0.000000e+00	
6.896552e-02	1.091772e+00	1.225091e+00	4.167967e+01	3.652477e-01	2.540220e+05	1.013252e+05	2.881239e+02	9.998483e-02	2.302697e-04	0.000000e+00	
6.896552e-02	1.060127e+00	1.225091e+00	4.167967e+01	3.652485e-01	2.540220e+05	1.013252e+05	2.881239e+02	9.998483e-02	2.302031e-04	0.000000e+00	
6.896552e-02	1.028481e+00	1.225091e+00	4.167967e+01	3.652492e-01	2.540220e+05	1.013252e+05	2.881239e+02	9.998483e-02	2.302750e-04	0.000000e+00	
6.896552e-02	9.968354e-01	1.225091e+00	4.167967e+01	3.652495e-01	2.540220e+05	1.013252e+05	2.881239e+02	9.998484e-02	2.302655e-04	0.000000e+00	
6.896552e-02	9.651899e-01	1.225091e+00	4.167967e+01	3.652498e-01	2.540220e+05	1.013252e+05	2.881239e+02	9.998484e-02	2.302887e-04	0.000000e+00	
6.896552e-02	9.335443e-01	1.225091e+00	4.167967e+01	3.652499e-01	2.540220e+05	1.013252e+05	2.881239e+02	9.998484e-02	2.302882e-04	0.000000e+00	
6.896552e-02	9.018987e-01	1.225091e+00	4.167967e+01	3.652500e-01	2.540220e+05	1.013252e+05	2.881239e+02	9.998484e-02	2.302958e-04	0.000000e+00	
6.896552e-02	8.702532e-01	1.225091e+00	4.167967e+01	3.652501e-01	2.540220e+05	1.013252e+05	2.881239e+02	9.998484e-02	2.302964e-04	0.000000e+00	
6.896552e-02	8.386076e-01	1.225091e+00	4.167967e+01	3.652502e-01	2.540220e+05	1.013252e+05	2.881239e+02	9.998484e-02	2.302992e-04	0.000000e+00	
6.896552e-02	8.069620e-01	1.225091e+00	4.167967e+01	3.652502e-01	2.540220e+05	1.013252e+05	2.881239e+02	9.998484e-02	2.302997e-04	0.000000e+00	
6.896552e-02	7.753165e-01	1.225091e+00	4.167967e+01	3.652503e-01	2.540220e+05	1.013252e+05	2.881239e+02	9.998484e-02	2.303007e-04	0.000000e+00	
6.896552e-02	7.436709e-01	1.225091e+00	4.167967e+01	3.652503e-01	2.540220e+05	1.013252e+05	2.881239e+02	9.998484e-02	2.303010e-04	0.000000e+00	
6.896552e-02	7.120253e-01	1.225091e+00	4.167967e+01	3.652503e-01	2.540220e+05	1.013252e+05	2.881239e+02	9.998484e-02	2.303014e-04	0.000000e+00	
6.896552e-02	6.803797e-01	1.225091e+00	4.167967e+01	3.652503e-01	2.540220e+05	1.013252e+05	2.881239e+02	9.998484e-02	2.303016e-04	0.000000e+00	
6.896552e-02	6.487342e-01	1.225091e+00	4.167967e+01	3.652503e-01	2.540220e+05	1.013252e+05	2.881239e+02	9.998484e-02	2.303018e-04	0.000000e+00	
6.896552e-02	6.170886e-01	1.225091e+00	4.167967e+01	3.652504e-01	2.540220e+05	1.013252e+05	2.881239e+02	9.998484e-02	2.303020e-04	0.000000e+00	
6.896552e-02	5.854430e-01	1.225091e+00	4.167967e+01	3.652504e-01	2.540220e+05	1.013252e+05	2.881239e+02	9.998484e-02	2.303022e-04	0.000000e+00	
6.896552e-02	5.537975e-01	1.225091e+00	4.167967e+01	3.652504e-01	2.540220e+05	1.013252e+05	2.881239e+02	9.998484e-02	2.303023e-04	0.000000e+00	
6.896552e-02	5.221519e-01	1.225091e+00	4.167967e+01	3.652504e-01	2.540220e+05	1.013252e+05	2.881239e+02	9.998484e-02	2.303025e-04	0.000000e+00	
6.896552e-02	4.905063e-01	1.225091e+00	4.167967e+01	3.652504e-01	2.540220e+05	1.013252e+05	2.881239e+02	9.998484e-02	2.303026e-04	0.000000e+00	
6.896552e-02	4.588608e-01	1.225091e+00	4.167967e+01	3.652504e-01	2.540220e+05	1.013252e+05	2.881239e+02	9.998484e-02	2.303027e-04	0.000000e+00	
6.896552e-02	4.272152e-01	1.225091e+00	4.167967e+01	3.652504e-01	2.540220e+05	1.013252e+05	2.881239e+02	9.998484e-02	2.303028e-04	0.000000e+00	
6.896552e-02	3.955696e-01	1.225091e+00	4.167967e+01	3.652504e-01	2.540220e+05	1.013252e+05	2.881239e+02	9.998484e-02	2.303029e-04	0.000000e+00	
6.896552e-02	3.639241e-01	1.225091e+00	4.167967e+01	3.652504e-01	2.540220e+05	1.013252e+05	2.881239e+02	9.998484e-02	2.303030e-04	0.000000e+00	
6.896552e-02	3.322785e-01	1.225091e+00	4.167967e+01	3.652504e-01	2.540220e+05	1.013252e+05	2.881239e+02	9.998484e-02	2.303031e-04	0.000000e+00	
6.896552e-02	3.006329e-01	1.225091e+00	4.167967e+01	3.652504e-01	2.540220e+05	1.013252e+05	2.881239e+02	9.998484e-02	2.303031e-04	0.000000e+00	
6.896552e-02	2.689873e-01	1.225091e+00	4.167967e+01	3.652504e-01	2.540220e+05	1.013252e+05	2.881239e+02	9.998484e-02	2.303032e-04	0.000000e+00	
6.896552e-02	2.373418e-01	1.225091e+00	4.167967e+01	3.652504e-01	2.540220e+05	1.013252e+05	2.881239e+02	9.998484e-02	2.303032e-04	0.000000e+00	
6.896552e-02	2.056962e-01	1.225091e+00	4.167967e+01	3.652504e-01	2.540220e+05	1.013252e+05	2.881239e+02	9.998484e-02	2.303033e-04	0.000000e+00	
6.896552e-02	1.740506e-01	1.225091e+00	4.167967e+01	3.652504e-01	2.540220e+05	1.013252e+05	2.881239e+02	9.998484e-02	2.303033e-04	0.000000e+00	
6.896552e-02	1.424051e-01	1.225091e+00	4.167967e+01	3.652504e-01	2.540220e+05	1.013252e+05	2.881239e+02	9.998484e-02	2.303034e-04	0.000000e+00	
6.896552e-02	1.107595e-01	1.225091e+00	4.167967e+01	3.652504e-01	2.540220e+05	1.013252e+05	2.881239e+02	9.998484e-02	2.303034e-04	0.000000e+00	
6.896552e-02	7.911392e-02	1.225091e+00	4.167967e+01	3.652504e-01	2.540220e+05	1.013252e+05	2.881239e+02	9.998484e-02	2.303034e-04	0.000000e+00	
6.896552e-02	4.746835e-02	1.225091e+00	4.167967e+01	3.652504e-01	2.540220e+05	1.013252e+05	2.881239e+02	9.998484e-02	2.303035e-04	0.000000e+00	
6.896552e-02	1.582278e-02	1.225091e+00	4.167967e+01	3.652504e-01	2.540220e+05	1.013252e+05	2.881239e+02	9.998484e-02	2.303035e-04	0.000000e+00	
6.896552e-02	-1.582278e-02	1.225091e+00	4.167967e+01	3.652504e-01	2.540220e+05	1.013252e+05	2.881239e+02	9.998484e-02	2.303035e-04	0.000000e+00	
6.896552e-02	-4.746835e-02	1.225091e+00	4.167967e+01	3.652504e-01	2.540220e+05	1.013252e+05	2.881239e+02	9.998484e-02	2.303036e-04	0.000000e+00	
6.896552e-02	-7.911392e-02	1.225091e+00	4.167967e+01	3.652504e-01	2.540220e+05	1.013252e+05	2.881239e+02	9.998484e-02	2.303036e-04	0.000000e+00	
6.896552e-02	-1.107595e-01	1.225091e+00	4.167967e+01	3.652504e-01	2.540220e+05	1.013252e+05	2.881239e+02	9.998484e-02	2.303036e-04	0.000000e+00	
6.896552e-02	-1.424051e-01	1.225091e+00	4.167967e+01	3.652504e-01	2.540220e+05	1.013252e+05	2.881239e+02	9.998484e-02	2.303037e-04	0.000000e+00	
6.896552e-02	-1.740506e-01	1.225091e+00	4.167967e+01	3.652504e-01	2.540220e+05	1.013252e+05	2.881239e+02	9.998484e-02	2.303037e-04	0.000000e+00	
6.896552e-02	-2.056962e-01	1.225091e+00	4.167967e+01	3.652504e-01	2.540220e+05	1.013252e+05	2.881239e+02	9.998484e-02	2.303037e-04	0.000000e+00	