VARIABLES = "x"
 "y"
 "Density"
 "Momentum_x"
 "Momentum_y"
 "Energy"
 "Pressure"
 "Temperature"
 "Mach"
 "C<sub>p</sub>"
 "Roe_Dissipation"
ZONE
DT=(DOUBLE,DOUBLE,DOUBLE,DOUBLE,DOUBLE,DOUBLE,DOUBLE,DOUBLE,DOUBLE,DOUBLE,DOUBLE)
                     -2                       0        1.22509098052979        41.6796684265137     5.7741320405591E-12            254022.09375           101325.203125        288.123992919922      0.0999809429049492    0.000310444593196735                       0 
      -1.99749874937469                       0        1.22509098052979        41.6796684265137    6.27440402717945E-12            254022.09375           101325.203125        288.123992919922      0.0999809429049492     0.00031044464287999                       0 
      -1.99499749874937                       0        1.22509098052979        41.6796684265137    6.77467601379984E-12            254022.09375           101325.203125        288.123992919922      0.0999809429049492    0.000310444692563245                       0 
      -1.99249624812406                       0        1.22509098052979        41.6796684265137    7.27494800042019E-12            254022.09375           101325.203125        288.123992919922      0.0999809429049492    0.000310444742246501                       0 
      -1.98999499749875                       0        1.22509098052979        41.6796684265137    7.77521998704054E-12            254022.09375           101325.203125        288.123992919922      0.0999809429049492    0.000310444791929756                       0 
      -1.98749374687344                       0        1.22509098052979        41.6796684265137    8.27549197366088E-12            254022.09375           101325.203125        288.123992919922      0.0999809429049492    0.000310444841613011                       0 
      -1.98499249624812                       0        1.22509098052979        41.6796684265137    8.77576396028128E-12            254022.09375           101325.203125        288.123992919922      0.0999809429049492    0.000310444891296267                       0 
      -1.98249124562281                       0        1.22509098052979        41.6796684265137    9.27603594690162E-12            254022.09375           101325.203125        288.123992919922      0.0999809429049492    0.000310444940979522                       0 
       -1.9799899949975                       0        1.22509098052979        41.6796684265137    9.77630793352197E-12            254022.09375           101325.203125        288.123992919922      0.0999809429049492    0.000310444990662777                       0 
      -1.97748874437219                       0        1.22509098052979        41.6796684265137    1.02765799201424E-11            254022.09375           101325.203125        288.123992919922      0.0999809429049492    0.000310445040346033                       0 
      -1.97498749374687                       0        1.22509098052979        41.6796684265137    1.07768519067627E-11            254022.09375           101325.203125        288.123992919922      0.0999809429049492    0.000310445090029288                       0 
      -1.97248624312156                       0        1.22509098052979        41.6796684265137    1.12771238933831E-11            254022.09375           101325.203125        288.123992919922      0.0999809429049492    0.000310445139712543                       0 
      -1.96998499249625                       0        1.22509098052979        41.6796684265137    1.17773958800035E-11            254022.09375           101325.203125        288.123992919922      0.0999809429049492    0.000310445189395798                       0 
      -1.96748374187094                       0        1.22509098052979        41.6796684265137    1.22776678666238E-11            254022.09375           101325.203125        288.123992919922      0.0999809429049492    0.000310445239079054                       0 
      -1.96498249124562                       0        1.22509098052979        41.6796684265137    1.27779398532441E-11            254022.09375           101325.203125        288.123992919922      0.0999809429049492    0.000310445288762309                       0 
      -1.96248124062031                       0        1.22509098052979        41.6796684265137    1.32782118398645E-11            254022.09375           101325.203125        288.123992919922      0.0999809429049492    0.000310445338445564                       0 
        -1.959979989995                       0        1.22509098052979        41.6796684265137    1.37784838264849E-11            254022.09375           101325.203125        288.123992919922      0.0999809429049492     0.00031044538812882                       0 
      -1.95747873936968                       0        1.22509098052979        41.6796684265137    1.42787558131052E-11            254022.09375           101325.203125        288.123992919922      0.0999809429049492    0.000310445437812075                       0 
      -1.95497748874437                       0        1.22509098052979        41.6796684265137    1.47790277997256E-11            254022.09375           101325.203125        288.123992919922      0.0999809429049492     0.00031044548749533                       0 
      -1.95247623811906                       0        1.22509098052979        41.6796684265137     1.5279299786346E-11            254022.09375           101325.203125        288.123992919922      0.0999809429049492    0.000310445537178586                       0 
      -1.94997498749375                       0        1.22509098052979        41.6796684265137    1.57795717729663E-11            254022.09375           101325.203125        288.123992919922      0.0999809429049492    0.000310445586861841                       0 
      -1.94747373686843                       0        1.22509098052979        41.6796684265137    1.62645890367657E-11            254022.09375           101325.203125        288.123992919922      0.0999809429049492    0.000310445630896159                       0 
      -1.94497248624312                       0        1.22509098052979        41.6796684265137    1.67341943878989E-11            254022.09375           101325.203125        288.123992919922      0.0999809429049492     0.00031044566922333                       0 
      -1.94247123561781                       0        1.22509098052979        41.6796684265137    1.72037997390321E-11            254022.09375           101325.203125        288.123992919922      0.0999809429049492    0.000310445707550502                       0 
       -1.9399699849925                       0        1.22509098052979        41.6796684265137    1.76734050901654E-11            254022.09375           101325.203125        288.123992919922      0.0999809429049492    0.000310445745877674                       0 
      -1.93746873436718                       0        1.22509098052979        41.6796684265137    1.81430104412986E-11            254022.09375           101325.203125        288.123992919922      0.0999809429049492    0.000310445784204846                       0 
      -1.93496748374187                       0        1.22509098052979        41.6796684265137    1.86126157924318E-11            254022.09375           101325.203125        288.123992919922      0.0999809429049492    0.000310445822532017                       0 
      -1.93246623311656                       0        1.22509098052979        41.6796684265137     1.9082221143565E-11            254022.09375           101325.203125        288.123992919922      0.0999809429049492    0.000310445860859189                       0 
      -1.92996498249125                       0        1.22509098052979        41.6796684265137    1.95518264946982E-11            254022.09375           101325.203125        288.123992919922      0.0999809429049492    0.000310445899186361                       0 
      -1.92746373186593                       0        1.22509098052979        41.6796684265137    2.00214318458315E-11            254022.09375           101325.203125        288.123992919922      0.0999809429049492    0.000310445937513533                       0 
      -1.92496248124062                       0        1.22509098052979        41.6796684265137    2.04910371969647E-11            254022.09375           101325.203125        288.123992919922      0.0999809429049492    0.000310445975840705                       0 
      -1.92246123061531                       0        1.22509098052979        41.6796684265137    2.09606425480979E-11            254022.09375           101325.203125        288.123992919922      0.0999809429049492    0.000310446014167876                       0 
      -1.91995997998999                       0        1.22509098052979        41.6796684265137    2.14302478992311E-11            254022.09375           101325.203125        288.123992919922      0.0999809429049492    0.000310446052495048                       0 
      -1.91745872936468                       0        1.22509098052979        41.6796684265137    2.18998532503644E-11            254022.09375           101325.203125        288.123992919922      0.0999809429049492     0.00031044609082222                       0 
      -1.91495747873937                       0        1.22509098052979        41.6796684265137    2.23694586014976E-11            254022.09375           101325.203125        288.123992919922      0.0999809429049492    0.000310446129149392                       0 
      -1.91245622811406                       0        1.22509098052979        41.6796684265137    2.28390639526308E-11            254022.09375           101325.203125        288.123992919922      0.0999809429049492    0.000310446167476563                       0 
      -1.90995497748874                       0        1.22509098052979        41.6796684265137     2.3308669303764E-11            254022.09375           101325.203125        288.123992919922      0.0999809429049492    0.000310446205803735                       0 
      -1.90745372686343                       0        1.22509098052979        41.6796684265137    2.37782746548972E-11            254022.09375           101325.203125        288.123992919922      0.0999809429049492    0.000310446244130907                       0 
      -1.90495247623812                       0        1.22509098052979        41.6796684265137    2.42478800060304E-11            254022.09375           101325.203125        288.123992919922      0.0999809429049492    0.000310446282458079                       0 
      -1.90245122561281                       0        1.22509098052979        41.6796684265137    2.47174853571637E-11            254022.09375           101325.203125        288.123992919922      0.0999809429049492     0.00031044632078525                       0 
      -1.89994997498749                       0        1.22509098052979        41.6796684265137    2.51870907082969E-11            254022.09375           101325.203125        288.123992919922      0.0999809429049492    0.000310446359112422                       0 
      -1.89744872436218                       0        1.22509098052979        41.6796684265137    2.56566960594301E-11            254022.09375           101325.203125        288.123992919922      0.0999809429049492    0.000310446397439594                       0 
      -1.89494747373687                       0        1.22509098052979        41.6796684265137    2.61282194276185E-11            254022.09375           101325.203125        288.123992919922      0.0999809429049492    0.000310446441415929                       0 
      -1.89244622311156                       0        1.22509098052979        41.6796684265137    2.65997525854041E-11            254022.09375           101325.203125        288.123992919922      0.0999809429049492    0.000310446485421098                       0 
      -1.88994497248624                       0        1.22509098052979        41.6796684265137    2.70712857431897E-11            254022.09375           101325.203125        288.123992919922      0.0999809429049492    0.000310446529426267                       0 
      -1.88744372186093                       0        1.22509098052979        41.6796684265137    2.75428189009753E-11            254022.09375           101325.203125        288.123992919922      0.0999809429049492    0.000310446573431436                       0 
      -1.88494247123562                       0        1.22509098052979        41.6796684265137    2.80143520587609E-11            254022.09375           101325.203125        288.123992919922      0.0999809429049492    0.000310446617436605                       0 
      -1.88244122061031                       0        1.22509098052979        41.6796684265137    2.84858852165465E-11            254022.09375           101325.203125        288.123992919922      0.0999809429049492    0.000310446661441774                       0 
      -1.87993996998499                       0        1.22509098052979        41.6796684265137    2.89574183743321E-11            254022.09375           101325.203125        288.123992919922      0.0999809429049492    0.000310446705446943                       0 
      -1.87743871935968                       0        1.22509098052979        41.6796684265137    2.94289515321177E-11            254022.09375           101325.203125        288.123992919922      0.0999809429049492    0.000310446749452112                       0 
      -1.87493746873437                       0        1.22509098052979        41.6796684265137    2.99004846899033E-11            254022.09375           101325.203125        288.123992919922      0.0999809429049492    0.000310446793457281                       0 
      -1.87243621810905                       0        1.22509098052979        41.6796684265137    3.03720178476888E-11            254022.09375           101325.203125        288.123992919922      0.0999809429049492     0.00031044683746245                       0 
      -1.86993496748374                       0        1.22509098052979        41.6796684265137    3.08435510054745E-11            254022.09375           101325.203125        288.123992919922      0.0999809429049492    0.000310446881467619                       0 
      -1.86743371685843                       0        1.22509098052979        41.6796684265137      3.131508416326E-11            254022.09375           101325.203125        288.123992919922      0.0999809429049492    0.000310446925472788                       0 
      -1.86493246623312                       0        1.22509098052979        41.6796684265137    3.17866173210456E-11            254022.09375           101325.203125        288.123992919922      0.0999809429049492    0.000310446969477957                       0 
       -1.8624312156078                       0        1.22509098052979        41.6796684265137    3.22581504788312E-11            254022.09375           101325.203125        288.123992919922      0.0999809429049492    0.000310447013483126                       0 
      -1.85992996498249                       0        1.22509098052979        41.6796684265137    3.27296836366168E-11            254022.09375           101325.203125        288.123992919922      0.0999809429049492    0.000310447057488295                       0 
      -1.85742871435718                       0        1.22509098052979        41.6796684265137    3.32012167944024E-11            254022.09375           101325.203125        288.123992919922      0.0999809429049492    0.000310447101493464                       0 
      -1.85492746373187                       0        1.22509098052979        41.6796684265137     3.3672749952188E-11            254022.09375           101325.203125        288.123992919922      0.0999809429049492    0.000310447145498633                       0 
      -1.85242621310655                       0        1.22509098052979        41.6796684265137    3.41442831099736E-11            254022.09375           101325.203125        288.123992919922      0.0999809429049492    0.000310447189503802                       0 
      -1.84992496248124                       0        1.22509098052979        41.6796684265137    3.46158162677592E-11            254022.09375           101325.203125        288.123992919922      0.0999809429049492    0.000310447233508971                       0 
      -1.84742371185593                       0        1.22509098052979        41.6796684265137    3.50873494255448E-11            254022.09375           101325.203125        288.123992919922      0.0999809429049492     0.00031044727751414                       0 
      -1.84492246123062                       0        1.22509098052979        41.6796684265137    3.55410654759261E-11            254022.09375           101325.203125        288.123992919922      0.0999809429049492    0.000310447318723696                       0 
       -1.8424212106053                       0        1.22509098052979        41.6796684265137    3.59764114070314E-11            254022.09375           101325.203125        288.123992919922      0.0999809429049492    0.000310447357050868                       0 
      -1.83991995997999                       0        1.22509098052979        41.6796684265137    3.64117573381368E-11            254022.09375           101325.203125        288.123992919922      0.0999809429049492    0.000310447395378039                       0 
      -1.83741870935468                       0        1.22509098052979        41.6796684265137    3.68471032692421E-11            254022.09375           101325.203125        288.123992919922      0.0999809429049492    0.000310447433705211                       0 
      -1.83491745872936                       0        1.22509098052979        41.6796684265137    3.72824492003474E-11            254022.09375           101325.203125        288.123992919922      0.0999809429049492    0.000310447472032383                       0 
      -1.83241620810405                       0        1.22509098052979        41.6796684265137    3.77177951314527E-11            254022.09375           101325.203125        288.123992919922      0.0999809429049492    0.000310447510359555                       0 
      -1.82991495747874                       0        1.22509098052979        41.6796684265137     3.8153141062558E-11            254022.09375           101325.203125        288.123992919922      0.0999809429049492    0.000310447548686727                       0 
      -1.82741370685343                       0        1.22509098052979        41.6796684265137    3.85884869936633E-11            254022.09375           101325.203125        288.123992919922      0.0999809429049492    0.000310447587013898                       0 
      -1.82491245622811                       0        1.22509098052979        41.6796684265137    3.90238329247686E-11            254022.09375           101325.203125        288.123992919922      0.0999809429049492     0.00031044762534107                       0 
       -1.8224112056028                       0        1.22509098052979        41.6796684265137    3.94591788558739E-11            254022.09375           101325.203125        288.123992919922      0.0999809429049492    0.000310447663668242                       0 
      -1.81990995497749                       0        1.22509098052979        41.6796684265137    3.98945247869793E-11            254022.09375           101325.203125        288.123992919922      0.0999809429049492    0.000310447701995414                       0 
      -1.81740870435218                       0        1.22509098052979        41.6796684265137    4.03298707180846E-11            254022.09375           101325.203125        288.123992919922      0.0999809429049492    0.000310447740322585                       0 
      -1.81490745372686                       0        1.22509098052979        41.6796684265137    4.07652166491899E-11            254022.09375           101325.203125        288.123992919922      0.0999809429049492    0.000310447778649757                       0 
      -1.81240620310155                       0        1.22509098052979        41.6796684265137    4.12005625802952E-11            254022.09375           101325.203125        288.123992919922      0.0999809429049492    0.000310447816976929                       0 
      -1.80990495247624                       0        1.22509098052979        41.6796684265137    4.16359085114005E-11            254022.09375           101325.203125        288.123992919922      0.0999809429049492    0.000310447855304101                       0 
      -1.80740370185093                       0        1.22509098052979        41.6796684265137    4.20712544425058E-11            254022.09375           101325.203125        288.123992919922      0.0999809429049492    0.000310447893631272                       0 
      -1.80490245122561                       0        1.22509098052979        41.6796684265137    4.25066003736111E-11            254022.09375           101325.203125        288.123992919922      0.0999809429049492    0.000310447931958444                       0 
       -1.8024012006003                       0        1.22509098052979        41.6796684265137    4.29419463047165E-11            254022.09375           101325.203125        288.123992919922      0.0999809429049492    0.000310447970285616                       0 
      -1.79989994997499                       0        1.22509098052979        41.6796684265137    4.33772922358218E-11            254022.09375           101325.203125        288.123992919922      0.0999809429049492    0.000310448008612788                       0 
      -1.79739869934967                       0        1.22509098052979        41.6796684265137    4.38126381669271E-11            254022.09375           101325.203125        288.123992919922      0.0999809429049492    0.000310448046939959                       0 
      -1.79489744872436                       0        1.22509098052979        41.6796684265137    4.42479840980324E-11            254022.09375           101325.203125        288.123992919922      0.0999809429049492    0.000310448085267131                       0 
      -1.79239619809905                       0        1.22509098052979        41.6796684265137    4.46470028042128E-11            254022.09375           101325.203125        288.123992919922      0.0999809429049492    0.000310448124999319                       0 
      -1.78989494747374                       0        1.22509098052979        41.6796684265137    4.50456487782037E-11            254022.09375           101325.203125        288.123992919922      0.0999809429049492    0.000310448164745924                       0 
      -1.78739369684842                       0        1.22509098052979        41.6796684265137    4.54442947521947E-11            254022.09375           101325.203125        288.123992919922      0.0999809429049492    0.000310448204492528                       0 
      -1.78489244622311                       0        1.22509098052979        41.6796684265137    4.58429407261857E-11            254022.09375           101325.203125        288.123992919922      0.0999809429049492    0.000310448244239132                       0 
       -1.7823911955978                       0        1.22509098052979        41.6796684265137    4.62415867001766E-11            254022.09375           101325.203125        288.123992919922      0.0999809429049492    0.000310448283985736                       0 
      -1.77988994497249                       0        1.22509098052979        41.6796684265137    4.66402326741676E-11            254022.09375           101325.203125        288.123992919922      0.0999809429049492     0.00031044832373234                       0 
      -1.77738869434717                       0        1.22509098052979        41.6796684265137    4.70388786481585E-11            254022.09375           101325.203125        288.123992919922      0.0999809429049492    0.000310448363478945                       0 
      -1.77488744372186                       0        1.22509098052979        41.6796684265137    4.74375246221495E-11            254022.09375           101325.203125        288.123992919922      0.0999809429049492    0.000310448403225549                       0 
      -1.77238619309655                       0        1.22509098052979        41.6796684265137    4.78361705961404E-11            254022.09375           101325.203125        288.123992919922      0.0999809429049492    0.000310448442972153                       0 
      -1.76988494247124                       0        1.22509098052979        41.6796684265137    4.82348165701314E-11            254022.09375           101325.203125        288.123992919922      0.0999809429049492    0.000310448482718757                       0 
      -1.76738369184592                       0        1.22509098052979        41.6796684265137    4.86334625441224E-11            254022.09375           101325.203125        288.123992919922      0.0999809429049492    0.000310448522465362                       0 
      -1.76488244122061                       0        1.22509098052979        41.6796684265137    4.90321085181133E-11            254022.09375           101325.203125        288.123992919922      0.0999809429049492    0.000310448562211966                       0 
       -1.7623811905953                       0        1.22509098052979        41.6796684265137    4.94307544921042E-11            254022.09375           101325.203125        288.123992919922      0.0999809429049492     0.00031044860195857                       0 
      -1.75987993996998                       0        1.22509098052979        41.6796684265137    4.98294004660952E-11            254022.09375           101325.203125        288.123992919922      0.0999809429049492    0.000310448641705174                       0 
      -1.75737868934467                       0        1.22509098052979        41.6796684265137    5.02280464400862E-11            254022.09375           101325.203125        288.123992919922      0.0999809429049492    0.000310448681451779                       0 
      -1.75487743871936                       0        1.22509098052979        41.6796684265137    5.06266924140771E-11            254022.09375           101325.203125        288.123992919922      0.0999809429049492    0.000310448721198383                       0 
      -1.75237618809405                       0        1.22509098052979        41.6796684265137    5.10253383880681E-11            254022.09375           101325.203125        288.123992919922      0.0999809429049492    0.000310448760944987                       0 
      -1.74987493746873                       0        1.22509098052979        41.6796684265137     5.1423984362059E-11            254022.09375           101325.203125        288.123992919922      0.0999809429049492    0.000310448800691591                       0 
      -1.74737368684342                       0        1.22509098052979        41.6796684265137      5.182263033605E-11            254022.09375           101325.203125        288.123992919922      0.0999809429049492    0.000310448840438196                       0 
      -1.74487243621811                       0        1.22509098052979        41.6796684265137    5.22212763100409E-11            254022.09375           101325.203125        288.123992919922      0.0999809429049492      0.0003104488801848                       0 
       -1.7423711855928                       0        1.22509098052979        41.6796684265137    5.26247610699706E-11            254022.09375           101325.203125        288.123992919922      0.0999809429049492    0.000310448922006521                       0 
      -1.73986993496748                       0        1.22509098052979        41.6796684265137     5.3033337221336E-11            254022.09375           101325.203125        288.123992919922      0.0999809429049492    0.000310448966011691                       0 
      -1.73736868434217                       0        1.22509098052979        41.6796684265137    5.34419133727014E-11            254022.09375           101325.203125        288.123992919922      0.0999809429049492    0.000310449010016859                       0 
      -1.73486743371686                       0        1.22509098052979        41.6796684265137    5.38504895240668E-11            254022.09375           101325.203125        288.123992919922      0.0999809429049492    0.000310449054022028                       0 
      -1.73236618309155                       0        1.22509098052979        41.6796684265137    5.42590656754322E-11            254022.09375           101325.203125        288.123992919922      0.0999809429049492    0.000310449098027197                       0 
      -1.72986493246623                       0        1.22509098052979        41.6796684265137    5.46676418267976E-11            254022.09375           101325.203125        288.123992919922      0.0999809429049492    0.000310449142032366                       0 
      -1.72736368184092                       0        1.22509098052979        41.6796684265137     5.5076217978163E-11            254022.09375           101325.203125        288.123992919922      0.0999809429049492    0.000310449186037535                       0 
      -1.72486243121561                       0        1.22509098052979        41.6796684265137    5.54847941295285E-11            254022.09375           101325.203125        288.123992919922      0.0999809429049492    0.000310449230042704                       0 
       -1.7223611805903                       0        1.22509098052979        41.6796684265137    5.58933702808939E-11            254022.09375           101325.203125        288.123992919922      0.0999809429049492    0.000310449274047873                       0 