VARIABLES = "x"
 "y"
 "Density"
 "Momentum_x"
 "Momentum_y"
 "Energy"
 "Pressure"
 "Temperature"
 "Mach"
 "C<sub>p</sub>"
 "Roe_Dissipation"
ZONE
DT=(DOUBLE,DOUBLE,DOUBLE,DOUBLE,DOUBLE,DOUBLE,DOUBLE,DOUBLE,DOUBLE,DOUBLE,DOUBLE)
                     -2                    -0.6        1.22509098052979        41.6796684265137     7.9468224427377E-12            254022.09375           101325.203125        288.123992919922      0.0999809429049492    0.000310444593196735                       0 
      -1.99749874937469                    -0.6        1.22509098052979        41.6796684265137     5.2321260628277E-12            254022.09375           101325.203125        288.123992919922      0.0999809429049492     0.00031044464287999                       0 
      -1.99499749874937                    -0.6        1.22509098052979        41.6796684265137    2.51742968291746E-12            254022.09375           101325.203125        288.123992919922      0.0999809429049492    0.000310444692563245                       0 
      -1.99249624812406                    -0.6        1.22509098052979        41.6796684265137   -1.97266696992534E-13            254022.09375           101325.203125        288.123992919922      0.0999809429049492    0.000310444742246501                       0 
      -1.98999499749875                    -0.6        1.22509098052979        41.6796684265137   -2.91196307690253E-12            254022.09375           101325.203125        288.123992919922      0.0999809429049492    0.000310444791929756                       0 
      -1.98749374687344                    -0.6        1.22509098052979        41.6796684265137   -5.62665945681253E-12            254022.09375           101325.203125        288.123992919922      0.0999809429049492    0.000310444841613011                       0 
      -1.98499249624812                    -0.6        1.22509098052979        41.6796684265137   -8.34135583672276E-12            254022.09375           101325.203125        288.123992919922      0.0999809429049492    0.000310444891296267                       0 
      -1.98249124562281                    -0.6        1.22509098052979        41.6796684265137   -1.10560522166328E-11            254022.09375           101325.203125        288.123992919922      0.0999809429049492    0.000310444940979522                       0 
       -1.9799899949975                    -0.6        1.22509098052979        41.6796684265137   -1.37707485965428E-11            254022.09375           101325.203125        288.123992919922      0.0999809429049492    0.000310444990662777                       0 
      -1.97748874437219                    -0.6        1.22509098052979        41.6796684265137    -1.6485444976453E-11            254022.09375           101325.203125        288.123992919922      0.0999809429049492    0.000310445040346033                       0 
      -1.97498749374687                    -0.6        1.22509098052979        41.6796684265137   -1.90460425981429E-11            254022.09375           101325.203125        288.123992919922      0.0999809429049492    0.000310445090029288                       0 
      -1.97248624312156                    -0.6        1.22509098052979        41.6796684265137   -2.14898281219492E-11            254022.09375           101325.203125        288.123992919922      0.0999809429049492    0.000310445139712543                       0 
      -1.96998499249625                    -0.6        1.22509098052979        41.6796684265137   -2.41851868595365E-11            254022.09375           101325.203125        288.123992919922      0.0999809429049492    0.000310445189395798                       0 
      -1.96748374187094                    -0.6        1.22509098052979        41.6796684265137   -2.68998832394465E-11            254022.09375           101325.203125        288.123992919922      0.0999809429049492    0.000310445239079054                       0 
      -1.96498249124562                    -0.6        1.22509098052979        41.6796684265137   -2.96145796193565E-11            254022.09375           101325.203125        288.123992919922      0.0999809429049492    0.000310445288762309                       0 
      -1.96248124062031                    -0.6        1.22509098052979        41.6796684265137   -3.23292759992665E-11            254022.09375           101325.203125        288.123992919922      0.0999809429049492    0.000310445338445564                       0 
        -1.959979989995                    -0.6        1.22509098052979        41.6796684265137   -3.50439723791767E-11            254022.09375           101325.203125        288.123992919922      0.0999809429049492     0.00031044538812882                       0 
      -1.95747873936968                    -0.6        1.22509098052979        41.6796684265137   -3.77586687590867E-11            254022.09375           101325.203125        288.123992919922      0.0999809429049492    0.000310445437812075                       0 
      -1.95497748874437                    -0.6        1.22509098052979        41.6796684265137   -4.04733651389967E-11            254022.09375           101325.203125        288.123992919922      0.0999809429049492     0.00031044548749533                       0 
      -1.95247623811906                    -0.6        1.22509098052979        41.6796684265137   -4.31880615189069E-11            254022.09375           101325.203125        288.123992919922      0.0999809429049492    0.000310445537178586                       0 
      -1.94997498749375                    -0.6        1.22509098052979        41.6796684265137   -4.59027578988169E-11            254022.09375           101325.203125        288.123992919922      0.0999809429049492    0.000310445586861841                       0 
      -1.94747373686843                    -0.6        1.22509098052979        41.6796684265137   -4.85120177022424E-11            254022.09375           101325.203125        288.123992919922      0.0999809429049492    0.000310445630896159                       0 
      -1.94497248624312                    -0.6        1.22509098052979        41.6796684265137   -5.10147544748882E-11            254022.09375           101325.203125        288.123992919922      0.0999809429049492     0.00031044566922333                       0 
      -1.94247123561781                    -0.6        1.22509098052979        41.6796684265137   -5.35174912475337E-11            254022.09375           101325.203125        288.123992919922      0.0999809429049492    0.000310445707550502                       0 
       -1.9399699849925                    -0.6        1.22509098052979        41.6796684265137   -5.60202280201793E-11            254022.09375           101325.203125        288.123992919922      0.0999809429049492    0.000310445745877674                       0 
      -1.93746873436718                    -0.6        1.22509098052979        41.6796684265137   -5.85229647928249E-11            254022.09375           101325.203125        288.123992919922      0.0999809429049492    0.000310445784204846                       0 
      -1.93496748374187                    -0.6        1.22509098052979        41.6796684265137   -6.10257015654707E-11            254022.09375           101325.203125        288.123992919922      0.0999809429049492    0.000310445822532017                       0 
      -1.93246623311656                    -0.6        1.22509098052979        41.6796684265137   -6.35284383381163E-11            254022.09375           101325.203125        288.123992919922      0.0999809429049492    0.000310445860859189                       0 
      -1.92996498249125                    -0.6        1.22509098052979        41.6796684265137   -6.60311751107619E-11            254022.09375           101325.203125        288.123992919922      0.0999809429049492    0.000310445899186361                       0 
      -1.92746373186593                    -0.6        1.22509098052979        41.6796684265137   -6.85339118834076E-11            254022.09375           101325.203125        288.123992919922      0.0999809429049492    0.000310445937513533                       0 
      -1.92496248124062                    -0.6        1.22509098052979        41.6796684265137   -7.10195758220002E-11            254022.09375           101325.203125        288.123992919922      0.0999809429049492    0.000310445975840705                       0 
      -1.92246123061531                    -0.6        1.22509098052979        41.6796684265137   -7.32647115320843E-11            254022.09375           101325.203125        288.123992919922      0.0999809429049492    0.000310446014167876                       0 
      -1.91995997998999                    -0.6        1.22509098052979        41.6796684265137   -7.56196066143981E-11            254022.09375           101325.203125        288.123992919922      0.0999809429049492    0.000310446052495048                       0 
      -1.91745872936468                    -0.6        1.22509098052979        41.6796684265137   -7.81223433870437E-11            254022.09375           101325.203125        288.123992919922      0.0999809429049492     0.00031044609082222                       0 
      -1.91495747873937                    -0.6        1.22509098052979        41.6796684265137   -8.06250801596893E-11            254022.09375           101325.203125        288.123992919922      0.0999809429049492    0.000310446129149392                       0 
      -1.91245622811406                    -0.6        1.22509098052979        41.6796684265137   -8.31278169323348E-11            254022.09375           101325.203125        288.123992919922      0.0999809429049492    0.000310446167476563                       0 
      -1.90995497748874                    -0.6        1.22509098052979        41.6796684265137   -8.56305537049806E-11            254022.09375           101325.203125        288.123992919922      0.0999809429049492    0.000310446205803735                       0 
      -1.90745372686343                    -0.6        1.22509098052979        41.6796684265137   -8.81332904776262E-11            254022.09375           101325.203125        288.123992919922      0.0999809429049492    0.000310446244130907                       0 
      -1.90495247623812                    -0.6        1.22509098052979        41.6796684265137   -9.06360272502718E-11            254022.09375           101325.203125        288.123992919922      0.0999809429049492    0.000310446282458079                       0 
      -1.90245122561281                    -0.6        1.22509098052979        41.6796684265137   -9.31387640229176E-11            254022.09375           101325.203125        288.123992919922      0.0999809429049492     0.00031044632078525                       0 
      -1.89994997498749                    -0.6        1.22509098052979        41.6796684265137   -9.56415007955632E-11            254022.09375           101325.203125        288.123992919922      0.0999809429049492    0.000310446359112422                       0 
      -1.89744872436218                    -0.6        1.22509098052979        41.6796684265137   -9.81442375682088E-11            254022.09375           101325.203125        288.123992919922      0.0999809429049492    0.000310446397439594                       0 
      -1.89494747373687                    -0.6        1.22509098052979        41.6796684265137   -1.00386749530132E-10            254022.09375           101325.203125        288.123992919922      0.0999809429049492    0.000310446441415929                       0 
      -1.89244622311156                    -0.6        1.22509098052979        41.6796684265137   -1.02627933299446E-10            254022.09375           101325.203125        288.123992919922      0.0999809429049492    0.000310446485421098                       0 
      -1.88994497248624                    -0.6        1.22509098052979        41.6796684265137   -1.04869117068759E-10            254022.09375           101325.203125        288.123992919922      0.0999809429049492    0.000310446529426267                       0 
      -1.88744372186093                    -0.6        1.22509098052979        41.6796684265137   -1.07110300838073E-10            254022.09375           101325.203125        288.123992919922      0.0999809429049492    0.000310446573431436                       0 
      -1.88494247123562                    -0.6        1.22509098052979        41.6796684265137   -1.09351484607387E-10            254022.09375           101325.203125        288.123992919922      0.0999809429049492    0.000310446617436605                       0 
      -1.88244122061031                    -0.6        1.22509098052979        41.6796684265137   -1.11592668376701E-10            254022.09375           101325.203125        288.123992919922      0.0999809429049492    0.000310446661441774                       0 
      -1.87993996998499                    -0.6        1.22509098052979        41.6796684265137   -1.13833852146014E-10            254022.09375           101325.203125        288.123992919922      0.0999809429049492    0.000310446705446943                       0 
      -1.87743871935968                    -0.6        1.22509098052979        41.6796684265137   -1.16075035915328E-10            254022.09375           101325.203125        288.123992919922      0.0999809429049492    0.000310446749452112                       0 
      -1.87493746873437                    -0.6        1.22509098052979        41.6796684265137   -1.18316219684642E-10            254022.09375           101325.203125        288.123992919922      0.0999809429049492    0.000310446793457281                       0 
      -1.87243621810905                    -0.6        1.22509098052979        41.6796684265137   -1.20419447736558E-10            254022.09375           101325.203125        288.123992919922      0.0999809429049492     0.00031044683746245                       0 
      -1.86993496748374                    -0.6        1.22509098052979        41.6796684265137   -1.22415915972697E-10            254022.09375           101325.203125        288.123992919922      0.0999809429049492    0.000310446881467619                       0 
      -1.86743371685843                    -0.6        1.22509098052979        41.6796684265137   -1.24638389234063E-10            254022.09375           101325.203125        288.123992919922      0.0999809429049492    0.000310446925472788                       0 
      -1.86493246623312                    -0.6        1.22509098052979        41.6796684265137   -1.26879573003377E-10            254022.09375           101325.203125        288.123992919922      0.0999809429049492    0.000310446969477957                       0 
       -1.8624312156078                    -0.6        1.22509098052979        41.6796684265137   -1.29120756772691E-10            254022.09375           101325.203125        288.123992919922      0.0999809429049492    0.000310447013483126                       0 
      -1.85992996498249                    -0.6        1.22509098052979        41.6796684265137   -1.31361940542004E-10            254022.09375           101325.203125        288.123992919922      0.0999809429049492    0.000310447057488295                       0 
      -1.85742871435718                    -0.6        1.22509098052979        41.6796684265137   -1.33603124311318E-10            254022.09375           101325.203125        288.123992919922      0.0999809429049492    0.000310447101493464                       0 
      -1.85492746373187                    -0.6        1.22509098052979        41.6796684265137   -1.35844308080632E-10            254022.09375           101325.203125        288.123992919922      0.0999809429049492    0.000310447145498633                       0 
      -1.85242621310655                    -0.6        1.22509098052979        41.6796684265137   -1.38085491849946E-10            254022.09375           101325.203125        288.123992919922      0.0999809429049492    0.000310447189503802                       0 
      -1.84992496248124                    -0.6        1.22509098052979        41.6796684265137    -1.4032667561926E-10            254022.09375           101325.203125        288.123992919922      0.0999809429049492    0.000310447233508971                       0 
      -1.84742371185593                    -0.6        1.22509098052979        41.6796684265137   -1.42567859388573E-10            254022.09375           101325.203125        288.123992919922      0.0999809429049492     0.00031044727751414                       0 
      -1.84492246123062                    -0.6        1.22509098052979        41.6796684265137   -1.44602248855061E-10            254022.09375           101325.203125        288.123992919922      0.0999809429049492    0.000310447318723696                       0 
       -1.8424212106053                    -0.6        1.22509098052979        41.6796684265137   -1.46423425485013E-10            254022.09375           101325.203125        288.123992919922      0.0999809429049492    0.000310447357050868                       0 
      -1.83991995997999                    -0.6        1.22509098052979        41.6796684265137   -1.48244602114966E-10            254022.09375           101325.203125        288.123992919922      0.0999809429049492    0.000310447395378039                       0 
      -1.83741870935468                    -0.6        1.22509098052979        41.6796684265137   -1.50065778744918E-10            254022.09375           101325.203125        288.123992919922      0.0999809429049492    0.000310447433705211                       0 
      -1.83491745872936                    -0.6        1.22509098052979        41.6796684265137    -1.5188695537487E-10            254022.09375           101325.203125        288.123992919922      0.0999809429049492    0.000310447472032383                       0 
      -1.83241620810405                    -0.6        1.22509098052979        41.6796684265137   -1.53708132004822E-10            254022.09375           101325.203125        288.123992919922      0.0999809429049492    0.000310447510359555                       0 
      -1.82991495747874                    -0.6        1.22509098052979        41.6796684265137   -1.55529308634775E-10            254022.09375           101325.203125        288.123992919922      0.0999809429049492    0.000310447548686727                       0 
      -1.82741370685343                    -0.6        1.22509098052979        41.6796684265137   -1.57350485264727E-10            254022.09375           101325.203125        288.123992919922      0.0999809429049492    0.000310447587013898                       0 
      -1.82491245622811                    -0.6        1.22509098052979        41.6796684265137   -1.59171661894679E-10            254022.09375           101325.203125        288.123992919922      0.0999809429049492     0.00031044762534107                       0 
       -1.8224112056028                    -0.6        1.22509098052979        41.6796684265137    -1.6097869543791E-10            254022.09375           101325.203125        288.123992919922      0.0999809429049492    0.000310447663668242                       0 
      -1.81990995497749                    -0.6        1.22509098052979        41.6796684265137   -1.62568768913165E-10            254022.09375           101325.203125        288.123992919922      0.0999809429049492    0.000310447701995414                       0 
      -1.81740870435218                    -0.6        1.22509098052979        41.6796684265137   -1.64256137893683E-10            254022.09375           101325.203125        288.123992919922      0.0999809429049492    0.000310447740322585                       0 
      -1.81490745372686                    -0.6        1.22509098052979        41.6796684265137   -1.66077314523635E-10            254022.09375           101325.203125        288.123992919922      0.0999809429049492    0.000310447778649757                       0 
      -1.81240620310155                    -0.6        1.22509098052979        41.6796684265137   -1.67898491153587E-10            254022.09375           101325.203125        288.123992919922      0.0999809429049492    0.000310447816976929                       0 
      -1.80990495247624                    -0.6        1.22509098052979        41.6796684265137   -1.69719667783539E-10            254022.09375           101325.203125        288.123992919922      0.0999809429049492    0.000310447855304101                       0 
      -1.80740370185093                    -0.6        1.22509098052979        41.6796684265137   -1.71540844413492E-10            254022.09375           101325.203125        288.123992919922      0.0999809429049492    0.000310447893631272                       0 
      -1.80490245122561                    -0.6        1.22509098052979        41.6796684265137   -1.73362021043444E-10            254022.09375           101325.203125        288.123992919922      0.0999809429049492    0.000310447931958444                       0 
       -1.8024012006003                    -0.6        1.22509098052979        41.6796684265137   -1.75183197673396E-10            254022.09375           101325.203125        288.123992919922      0.0999809429049492    0.000310447970285616                       0 
      -1.79989994997499                    -0.6        1.22509098052979        41.6796684265137   -1.77004374303348E-10            254022.09375           101325.203125        288.123992919922      0.0999809429049492    0.000310448008612788                       0 
      -1.79739869934967                    -0.6        1.22509098052979        41.6796684265137   -1.78825550933301E-10            254022.09375           101325.203125        288.123992919922      0.0999809429049492    0.000310448046939959                       0 
      -1.79489744872436                    -0.6        1.22509098052979        41.6796684265137   -1.80646727563253E-10            254022.09375           101325.203125        288.123992919922      0.0999809429049492    0.000310448085267131                       0 
      -1.79239619809905                    -0.6        1.22509098052979        41.6796684265137   -1.81957817324048E-10            254022.09375           101325.203125        288.123992919922      0.0999809429049492    0.000310448124999319                       0 
      -1.78989494747374                    -0.6        1.22509098052979        41.6796684265137   -1.83263673384884E-10            254022.09375           101325.203125        288.123992919922      0.0999809429049492    0.000310448164745924                       0 
      -1.78739369684842                    -0.6        1.22509098052979        41.6796684265137   -1.84569529445721E-10            254022.09375           101325.203125        288.123992919922      0.0999809429049492    0.000310448204492528                       0 
      -1.78489244622311                    -0.6        1.22509098052979        41.6796684265137   -1.85875385506558E-10            254022.09375           101325.203125        288.123992919922      0.0999809429049492    0.000310448244239132                       0 
       -1.7823911955978                    -0.6        1.22509098052979        41.6796684265137   -1.87181241567395E-10            254022.09375           101325.203125        288.123992919922      0.0999809429049492    0.000310448283985736                       0 
      -1.77988994497249                    -0.6        1.22509098052979        41.6796684265137   -1.88487097628232E-10            254022.09375           101325.203125        288.123992919922      0.0999809429049492     0.00031044832373234                       0 
      -1.77738869434717                    -0.6        1.22509098052979        41.6796684265137   -1.89792953689069E-10            254022.09375           101325.203125        288.123992919922      0.0999809429049492    0.000310448363478945                       0 
      -1.77488744372186                    -0.6        1.22509098052979        41.6796684265137   -1.91098809749906E-10            254022.09375           101325.203125        288.123992919922      0.0999809429049492    0.000310448403225549                       0 
      -1.77238619309655                    -0.6        1.22509098052979        41.6796684265137   -1.92404665810743E-10            254022.09375           101325.203125        288.123992919922      0.0999809429049492    0.000310448442972153                       0 
      -1.76988494247124                    -0.6        1.22509098052979        41.6796684265137     -1.935917000104E-10            254022.09375           101325.203125        288.123992919922      0.0999809429049492    0.000310448482718757                       0 
      -1.76738369184592                    -0.6        1.22509098052979        41.6796684265137   -1.94684865622386E-10            254022.09375           101325.203125        288.123992919922      0.0999809429049492    0.000310448522465362                       0 
      -1.76488244122061                    -0.6        1.22509098052979        41.6796684265137   -1.95973379691802E-10            254022.09375           101325.203125        288.123992919922      0.0999809429049492    0.000310448562211966                       0 
       -1.7623811905953                    -0.6        1.22509098052979        41.6796684265137   -1.97279235752639E-10            254022.09375           101325.203125        288.123992919922      0.0999809429049492     0.00031044860195857                       0 
      -1.75987993996998                    -0.6        1.22509098052979        41.6796684265137   -1.98585091813476E-10            254022.09375           101325.203125        288.123992919922      0.0999809429049492    0.000310448641705174                       0 
      -1.75737868934467                    -0.6        1.22509098052979        41.6796684265137   -1.99890947874313E-10            254022.09375           101325.203125        288.123992919922      0.0999809429049492    0.000310448681451779                       0 
      -1.75487743871936                    -0.6        1.22509098052979        41.6796684265137   -2.01196803935149E-10            254022.09375           101325.203125        288.123992919922      0.0999809429049492    0.000310448721198383                       0 
      -1.75237618809405                    -0.6        1.22509098052979        41.6796684265137   -2.02502659995986E-10            254022.09375           101325.203125        288.123992919922      0.0999809429049492    0.000310448760944987                       0 
      -1.74987493746873                    -0.6        1.22509098052979        41.6796684265137   -2.03808516056823E-10            254022.09375           101325.203125        288.123992919922      0.0999809429049492    0.000310448800691591                       0 
      -1.74737368684342                    -0.6        1.22509098052979        41.6796684265137    -2.0511437211766E-10            254022.09375           101325.203125        288.123992919922      0.0999809429049492    0.000310448840438196                       0 
      -1.74487243621811                    -0.6        1.22509098052979        41.6796684265137   -2.06420228178497E-10            254022.09375           101325.203125        288.123992919922      0.0999809429049492      0.0003104488801848                       0 
       -1.7423711855928                    -0.6        1.22509098052979        41.6796684265137    -2.0737624864105E-10            254022.09375           101325.203125        288.123992919922      0.0999809429049492    0.000310448922006521                       0 
      -1.73986993496748                    -0.6        1.22509098052979        41.6796684265137   -2.07964170578142E-10            254022.09375           101325.203125        288.123992919922      0.0999809429049492    0.000310448966011691                       0 
      -1.73736868434217                    -0.6        1.22509098052979        41.6796684265137   -2.08552092515234E-10            254022.09375           101325.203125        288.123992919922      0.0999809429049492    0.000310449010016859                       0 
      -1.73486743371686                    -0.6        1.22509098052979        41.6796684265137   -2.09140014452326E-10            254022.09375           101325.203125        288.123992919922      0.0999809429049492    0.000310449054022028                       0 
      -1.73236618309155                    -0.6        1.22509098052979        41.6796684265137   -2.09727936389418E-10            254022.09375           101325.203125        288.123992919922      0.0999809429049492    0.000310449098027197                       0 
      -1.72986493246623                    -0.6        1.22509098052979        41.6796684265137   -2.10315858326511E-10            254022.09375           101325.203125        288.123992919922      0.0999809429049492    0.000310449142032366                       0 
      -1.72736368184092                    -0.6        1.22509098052979        41.6796684265137   -2.10903780263603E-10            254022.09375           101325.203125        288.123992919922      0.0999809429049492    0.000310449186037535                       0 
      -1.72486243121561                    -0.6        1.22509098052979        41.6796684265137   -2.11491702200695E-10            254022.09375           101325.203125        288.123992919922      0.0999809429049492    0.000310449230042704                       0 
       -1.7223611805903                    -0.6        1.22509098052979        41.6796684265137   -2.12079624137787E-10            254022.09375           101325.203125        288.123992919922      0.0999809429049492    0.000310449274047873                       0 