VARIABLES = "x"
 "y"
 "Density"
 "Momentum_x"
 "Momentum_y"
 "Energy"
 "Pressure"
 "Temperature"
 "Mach"
 "C<sub>p</sub>"
 "Roe_Dissipation"
ZONE
DT=(DOUBLE,DOUBLE,DOUBLE,DOUBLE,DOUBLE,DOUBLE,DOUBLE,DOUBLE,DOUBLE,DOUBLE,DOUBLE)
                     -1                    1.25        1.22509098052979        41.6796684265137   -1.99576923709374E-09            254022.09375           101325.203125        288.123992919922      0.0999809429049492    0.000310461706248468                       0 
                     -1        1.24874937468734        1.22509098052979        41.6796684265137   -1.97305089104743E-09            254022.09375           101325.203125        288.123992919922      0.0999809429049492    0.000310461706248468                       0 
                     -1        1.24749874937469        1.22509098052979        41.6796684265137   -1.95033254500112E-09            254022.09375           101325.203125        288.123992919922      0.0999809429049492    0.000310461706248468                       0 
                     -1        1.24624812406203        1.22509098052979        41.6796684265137   -1.92761419895481E-09            254022.09375           101325.203125        288.123992919922      0.0999809429049492    0.000310461706248468                       0 
                     -1        1.24499749874937        1.22509098052979        41.6796684265137    -1.9048958529085E-09            254022.09375           101325.203125        288.123992919922      0.0999809429049492    0.000310461706248468                       0 
                     -1        1.24374687343672        1.22509098052979        41.6796684265137   -1.88217750686219E-09            254022.09375           101325.203125        288.123992919922      0.0999809429049492    0.000310461706248468                       0 
                     -1        1.24249624812406        1.22509098052979        41.6796684265137   -1.85945916081588E-09            254022.09375           101325.203125        288.123992919922      0.0999809429049492    0.000310461706248468                       0 
                     -1        1.24124562281141        1.22509098052979        41.6796684265137   -1.83674081476957E-09            254022.09375           101325.203125        288.123992919922      0.0999809429049492    0.000310461706248468                       0 
                     -1        1.23999499749875        1.22509098052979        41.6796684265137   -1.81402246872326E-09            254022.09375           101325.203125        288.123992919922      0.0999809429049492    0.000310461706248468                       0 
                     -1        1.23874437218609        1.22509098052979        41.6796684265137   -1.79130412267696E-09            254022.09375           101325.203125        288.123992919922      0.0999809429049492    0.000310461706248468                       0 
                     -1        1.23749374687344        1.22509098052979        41.6796684265137   -1.76858577663065E-09            254022.09375           101325.203125        288.123992919922      0.0999809429049492    0.000310461706248468                       0 
                     -1        1.23624312156078        1.22509098052979        41.6796684265137   -1.74586743058433E-09            254022.09375           101325.203125        288.123992919922      0.0999809429049492    0.000310461706248468                       0 
                     -1        1.23499249624812        1.22509098052979        41.6796684265137   -1.72314908453803E-09            254022.09375           101325.203125        288.123992919922      0.0999809429049492    0.000310461706248468                       0 
                     -1        1.23374187093547        1.22509098052979        41.6796684265137   -1.70043072984021E-09            254022.09375           101325.203125        288.123992919922      0.0999809429049492    0.000310461706248468                       0 
                     -1        1.23249124562281        1.22509098052979        41.6796684265137    -1.6777123837939E-09            254022.09375           101325.203125        288.123992919922      0.0999809429049492    0.000310461706248468                       0 
                     -1        1.23124062031016        1.22509098052979        41.6796684265137   -1.65499403774759E-09            254022.09375           101325.203125        288.123992919922      0.0999809429049492    0.000310461706248468                       0 
                     -1         1.2299899949975        1.22509098052979        41.6796684265137   -1.63227569170128E-09            254022.09375           101325.203125        288.123992919922      0.0999809429049492    0.000310461706248468                       0 
                     -1        1.22873936968484        1.22509098052979        41.6796684265137   -1.60955734565497E-09            254022.09375           101325.203125        288.123992919922      0.0999809429049492    0.000310461706248468                       0 
                     -1        1.22748874437219        1.22509098052979        41.6796684265137   -1.58683899960866E-09            254022.09375           101325.203125        288.123992919922      0.0999809429049492    0.000310461706248468                       0 
                     -1        1.22623811905953        1.22509098052979        41.6796684265137   -1.56412065356235E-09            254022.09375           101325.203125        288.123992919922      0.0999809429049492    0.000310461706248468                       0 
                     -1        1.22498749374687        1.22509098052979        41.6796684265137   -1.54140230751604E-09            254022.09375           101325.203125        288.123992919922      0.0999809429049492    0.000310461706248468                       0 
                     -1        1.22373686843422        1.22509098052979        41.6796684265137   -1.51868396146973E-09            254022.09375           101325.203125        288.123992919922      0.0999809429049492    0.000310461706248468                       0 
                     -1        1.22248624312156        1.22509098052979        41.6796684265137   -1.49596561542342E-09            254022.09375           101325.203125        288.123992919922      0.0999809429049492    0.000310461706248468                       0 
                     -1         1.2212356178089        1.22509098052979        41.6796684265137   -1.47324726937711E-09            254022.09375           101325.203125        288.123992919922      0.0999809429049492    0.000310461706248468                       0 
                     -1        1.21998499249625        1.22509098052979        41.6796684265137    -1.4505289233308E-09            254022.09375           101325.203125        288.123992919922      0.0999809429049492    0.000310461706248468                       0 
                     -1        1.21873436718359        1.22509098052979        41.6796684265137   -1.42781057728449E-09            254022.09375           101325.203125        288.123992919922      0.0999809429049492    0.000310461706248468                       0 
                     -1        1.21748374187094        1.22509098052979        41.6796684265137   -1.40744185281166E-09            254022.09375           101325.203125        288.123992919922      0.0999809429049492    0.000310461706248468                       0 
                     -1        1.21623311655828        1.22509098052979        41.6796684265137    -1.3881001382389E-09            254022.09375           101325.203125        288.123992919922      0.0999809429049492    0.000310461706248468                       0 
                     -1        1.21498249124562        1.22509098052979        41.6796684265137   -1.36875842366613E-09            254022.09375           101325.203125        288.123992919922      0.0999809429049492    0.000310461706248468                       0 
                     -1        1.21373186593297        1.22509098052979        41.6796684265137   -1.34941670909337E-09            254022.09375           101325.203125        288.123992919922      0.0999809429049492    0.000310461706248468                       0 
                     -1        1.21248124062031        1.22509098052979        41.6796684265137   -1.33007499452061E-09            254022.09375           101325.203125        288.123992919922      0.0999809429049492    0.000310461706248468                       0 
                     -1        1.21123061530765        1.22509098052979        41.6796684265137   -1.31073327994784E-09            254022.09375           101325.203125        288.123992919922      0.0999809429049492    0.000310461706248468                       0 
                     -1          1.209979989995        1.22509098052979        41.6796684265137   -1.29139156537508E-09            254022.09375           101325.203125        288.123992919922      0.0999809429049492    0.000310461706248468                       0 
                     -1        1.20872936468234        1.22509098052979        41.6796684265137   -1.27204985080232E-09            254022.09375           101325.203125        288.123992919922      0.0999809429049492    0.000310461706248468                       0 
                     -1        1.20747873936968        1.22509098052979        41.6796684265137   -1.25270813622955E-09            254022.09375           101325.203125        288.123992919922      0.0999809429049492    0.000310461706248468                       0 
                     -1        1.20622811405703        1.22509098052979        41.6796684265137   -1.23336642165679E-09            254022.09375           101325.203125        288.123992919922      0.0999809429049492    0.000310461706248468                       0 
                     -1        1.20497748874437        1.22509098052979        41.6796684265137   -1.21402470708403E-09            254022.09375           101325.203125        288.123992919922      0.0999809429049492    0.000310461706248468                       0 
                     -1        1.20372686343172        1.22509098052979        41.6796684265137   -1.19468299251127E-09            254022.09375           101325.203125        288.123992919922      0.0999809429049492    0.000310461706248468                       0 
                     -1        1.20247623811906        1.22509098052979        41.6796684265137   -1.17534127470485E-09            254022.09375           101325.203125        288.123992919922      0.0999809429049492    0.000310461706248468                       0 
                     -1         1.2012256128064        1.22509098052979        41.6796684265137   -1.15599956013208E-09            254022.09375           101325.203125        288.123992919922      0.0999809429049492    0.000310461706248468                       0 
                     -1        1.19997498749375        1.22509098052979        41.6796684265137   -1.13665784555932E-09            254022.09375           101325.203125        288.123992919922      0.0999809429049492    0.000310461706248468                       0 
                     -1        1.19872436218109        1.22509098052979        41.6796684265137   -1.11731613098656E-09            254022.09375           101325.203125        288.123992919922      0.0999809429049492    0.000310461706248468                       0 
                     -1        1.19747373686843        1.22509098052979        41.6796684265137    -1.0979744164138E-09            254022.09375           101325.203125        288.123992919922      0.0999809429049492    0.000310461706248468                       0 
                     -1        1.19622311155578        1.22509098052979        41.6796684265137   -1.07863270184103E-09            254022.09375           101325.203125        288.123992919922      0.0999809429049492    0.000310461706248468                       0 
                     -1        1.19497248624312        1.22509098052979        41.6796684265137   -1.05929098726827E-09            254022.09375           101325.203125        288.123992919922      0.0999809429049492    0.000310461706248468                       0 
                     -1        1.19372186093047        1.22509098052979        41.6796684265137    -1.0399492726955E-09            254022.09375           101325.203125        288.123992919922      0.0999809429049492    0.000310461706248468                       0 
                     -1        1.19247123561781        1.22509098052979        41.6796684265137   -1.02060755812274E-09            254022.09375           101325.203125        288.123992919922      0.0999809429049492    0.000310461706248468                       0 
                     -1        1.19122061030515        1.22509098052979        41.6796684265137   -1.00126584354998E-09            254022.09375           101325.203125        288.123992919922      0.0999809429049492    0.000310461706248468                       0 
                     -1         1.1899699849925        1.22509098052979        41.6796684265137   -9.81924128977216E-10            254022.09375           101325.203125        288.123992919922      0.0999809429049492    0.000310461706248468                       0 
                     -1        1.18871935967984        1.22509098052979        41.6796684265137   -9.62582414404453E-10            254022.09375           101325.203125        288.123992919922      0.0999809429049492    0.000310461706248468                       0 
                     -1        1.18746873436718        1.22509098052979        41.6796684265137    -9.4324069983169E-10            254022.09375           101325.203125        288.123992919922      0.0999809429049492    0.000310461706248468                       0 
                     -1        1.18621810905453        1.22509098052979        41.6796684265137   -9.26608523080725E-10            254022.09375           101325.203125        288.123992919922      0.0999809429049492    0.000310461705571219                       0 
                     -1        1.18496748374187        1.22509098052979        41.6796684265137   -9.14169149237273E-10            254022.09375           101325.203125        288.123992919922      0.0999809429049492    0.000310461703845979                       0 
                     -1        1.18371685842921        1.22509098052979        41.6796684265137   -9.01729775393821E-10            254022.09375           101325.203125        288.123992919922      0.0999809429049492    0.000310461702120738                       0 
                     -1        1.18246623311656        1.22509098052979        41.6796684265137   -8.89290401550369E-10            254022.09375           101325.203125        288.123992919922      0.0999809429049492    0.000310461700395498                       0 
                     -1         1.1812156078039        1.22509098052979        41.6796684265137   -8.76851027706918E-10            254022.09375           101325.203125        288.123992919922      0.0999809429049492    0.000310461698670258                       0 
                     -1        1.17996498249125        1.22509098052979        41.6796684265137   -8.64411653863466E-10            254022.09375           101325.203125        288.123992919922      0.0999809429049492    0.000310461696945017                       0 
                     -1        1.17871435717859        1.22509098052979        41.6796684265137   -8.51972280020012E-10            254022.09375           101325.203125        288.123992919922      0.0999809429049492    0.000310461695219777                       0 
                     -1        1.17746373186593        1.22509098052979        41.6796684265137    -8.3953290617656E-10            254022.09375           101325.203125        288.123992919922      0.0999809429049492    0.000310461693494536                       0 
                     -1        1.17621310655328        1.22509098052979        41.6796684265137   -8.27093532333109E-10            254022.09375           101325.203125        288.123992919922      0.0999809429049492    0.000310461691769296                       0 
                     -1        1.17496248124062        1.22509098052979        41.6796684265137   -8.14654158489657E-10            254022.09375           101325.203125        288.123992919922      0.0999809429049492    0.000310461690044056                       0 
                     -1        1.17371185592796        1.22509098052979        41.6796684265137   -8.02214784646205E-10            254022.09375           101325.203125        288.123992919922      0.0999809429049492    0.000310461688318815                       0 
                     -1        1.17246123061531        1.22509098052979        41.6796684265137   -7.89775410802754E-10            254022.09375           101325.203125        288.123992919922      0.0999809429049492    0.000310461686593575                       0 
                     -1        1.17121060530265        1.22509098052979        41.6796684265137   -7.77336036959302E-10            254022.09375           101325.203125        288.123992919922      0.0999809429049492    0.000310461684868334                       0 
                     -1        1.16995997998999        1.22509098052979        41.6796684265137   -7.64896664646863E-10            254022.09375           101325.203125        288.123992919922      0.0999809429049492    0.000310461683143145                       0 
                     -1        1.16870935467734        1.22509098052979        41.6796684265137   -7.52457290803411E-10            254022.09375           101325.203125        288.123992919922      0.0999809429049492    0.000310461681417904                       0 
                     -1        1.16745872936468        1.22509098052979        41.6796684265137    -7.4001791695996E-10            254022.09375           101325.203125        288.123992919922      0.0999809429049492    0.000310461679692664                       0 
                     -1        1.16620810405203        1.22509098052979        41.6796684265137   -7.27578543116508E-10            254022.09375           101325.203125        288.123992919922      0.0999809429049492    0.000310461677967424                       0 
                     -1        1.16495747873937        1.22509098052979        41.6796684265137   -7.15139169273056E-10            254022.09375           101325.203125        288.123992919922      0.0999809429049492    0.000310461676242183                       0 
                     -1        1.16370685342671        1.22509098052979        41.6796684265137   -7.02699795429605E-10            254022.09375           101325.203125        288.123992919922      0.0999809429049492    0.000310461674516943                       0 
                     -1        1.16245622811406        1.22509098052979        41.6796684265137   -6.90260421586153E-10            254022.09375           101325.203125        288.123992919922      0.0999809429049492    0.000310461672791702                       0 
                     -1         1.1612056028014        1.22509098052979        41.6796684265137   -6.77821047742699E-10            254022.09375           101325.203125        288.123992919922      0.0999809429049492    0.000310461671066462                       0 
                     -1        1.15995497748874        1.22509098052979        41.6796684265137   -6.65381673899247E-10            254022.09375           101325.203125        288.123992919922      0.0999809429049492    0.000310461669341221                       0 
                     -1        1.15870435217609        1.22509098052979        41.6796684265137   -6.52942300055796E-10            254022.09375           101325.203125        288.123992919922      0.0999809429049492    0.000310461667615981                       0 
                     -1        1.15745372686343        1.22509098052979        41.6796684265137   -6.40502926212344E-10            254022.09375           101325.203125        288.123992919922      0.0999809429049492    0.000310461665890741                       0 
                     -1        1.15620310155078        1.22509098052979        41.6796684265137   -6.28063552368892E-10            254022.09375           101325.203125        288.123992919922      0.0999809429049492      0.0003104616641655                       0 
                     -1        1.15495247623812        1.22509098052979        41.6796684265137   -6.16268084368916E-10            254022.09375           101325.203125        288.123992919922      0.0999809429049492    0.000310461662592773                       0 
                     -1        1.15370185092546        1.22509098052979        41.6796684265137   -6.11112608642677E-10            254022.09375           101325.203125        288.123992919922      0.0999809429049492    0.000310461662592773                       0 
                     -1        1.15245122561281        1.22509098052979        41.6796684265137   -6.05957132916437E-10            254022.09375           101325.203125        288.123992919922      0.0999809429049492    0.000310461662592773                       0 
                     -1        1.15120060030015        1.22509098052979        41.6796684265137   -6.00801657190198E-10            254022.09375           101325.203125        288.123992919922      0.0999809429049492    0.000310461662592773                       0 
                     -1        1.14994997498749        1.22509098052979        41.6796684265137   -5.95646181463959E-10            254022.09375           101325.203125        288.123992919922      0.0999809429049492    0.000310461662592773                       0 
                     -1        1.14869934967484        1.22509098052979        41.6796684265137    -5.9049070573772E-10            254022.09375           101325.203125        288.123992919922      0.0999809429049492    0.000310461662592773                       0 
                     -1        1.14744872436218        1.22509098052979        41.6796684265137   -5.85335230011481E-10            254022.09375           101325.203125        288.123992919922      0.0999809429049492    0.000310461662592773                       0 
                     -1        1.14619809904952        1.22509098052979        41.6796684265137   -5.80179754285242E-10            254022.09375           101325.203125        288.123992919922      0.0999809429049492    0.000310461662592773                       0 
                     -1        1.14494747373687        1.22509098052979        41.6796684265137   -5.75024278559002E-10            254022.09375           101325.203125        288.123992919922      0.0999809429049492    0.000310461662592773                       0 
                     -1        1.14369684842421        1.22509098052979        41.6796684265137   -5.69868802832763E-10            254022.09375           101325.203125        288.123992919922      0.0999809429049492    0.000310461662592773                       0 
                     -1        1.14244622311156        1.22509098052979        41.6796684265137   -5.64713327106524E-10            254022.09375           101325.203125        288.123992919922      0.0999809429049492    0.000310461662592773                       0 
                     -1         1.1411955977989        1.22509098052979        41.6796684265137   -5.59557851380284E-10            254022.09375           101325.203125        288.123992919922      0.0999809429049492    0.000310461662592773                       0 
                     -1        1.13994497248624        1.22509098052979        41.6796684265137   -5.54402375654045E-10            254022.09375           101325.203125        288.123992919922      0.0999809429049492    0.000310461662592773                       0 
                     -1        1.13869434717359        1.22509098052979        41.6796684265137   -5.49246905378825E-10            254022.09375           101325.203125        288.123992919922      0.0999809429049492    0.000310461662592773                       0 
                     -1        1.13744372186093        1.22509098052979        41.6796684265137   -5.44091429652586E-10            254022.09375           101325.203125        288.123992919922      0.0999809429049492    0.000310461662592773                       0 
                     -1        1.13619309654827        1.22509098052979        41.6796684265137   -5.38935953926346E-10            254022.09375           101325.203125        288.123992919922      0.0999809429049492    0.000310461662592773                       0 
                     -1        1.13494247123562        1.22509098052979        41.6796684265137   -5.33780478200106E-10            254022.09375           101325.203125        288.123992919922      0.0999809429049492    0.000310461662592773                       0 
                     -1        1.13369184592296        1.22509098052979        41.6796684265137   -5.28625002473867E-10            254022.09375           101325.203125        288.123992919922      0.0999809429049492    0.000310461662592773                       0 
                     -1        1.13244122061031        1.22509098052979        41.6796684265137   -5.23469526747628E-10            254022.09375           101325.203125        288.123992919922      0.0999809429049492    0.000310461662592773                       0 
                     -1        1.13119059529765        1.22509098052979        41.6796684265137   -5.18314051021389E-10            254022.09375           101325.203125        288.123992919922      0.0999809429049492    0.000310461662592773                       0 
                     -1        1.12993996998499        1.22509098052979        41.6796684265137    -5.1315857529515E-10            254022.09375           101325.203125        288.123992919922      0.0999809429049492    0.000310461662592773                       0 
                     -1        1.12868934467234        1.22509098052979        41.6796684265137    -5.0800309956891E-10            254022.09375           101325.203125        288.123992919922      0.0999809429049492    0.000310461662592773                       0 
                     -1        1.12743871935968        1.22509098052979        41.6796684265137   -5.02847623842671E-10            254022.09375           101325.203125        288.123992919922      0.0999809429049492    0.000310461662592773                       0 
                     -1        1.12618809404702        1.22509098052979        41.6796684265137   -4.97692148116432E-10            254022.09375           101325.203125        288.123992919922      0.0999809429049492    0.000310461662592773                       0 
                     -1        1.12493746873437        1.22509098052979        41.6796684265137   -4.92536672390193E-10            254022.09375           101325.203125        288.123992919922      0.0999809429049492    0.000310461662592773                       0 
                     -1        1.12368684342171        1.22509098052979        41.6796684265137   -4.87381196663953E-10            254022.09375           101325.203125        288.123992919922      0.0999809429049492    0.000310461662592773                       0 
                     -1        1.12243621810905        1.22509098052979        41.6796684265137   -4.87434736777049E-10            254022.09375           101325.203125        288.123992919922      0.0999809429049492    0.000310461662592773                       0 
                     -1         1.1211855927964        1.22509098052979        41.6796684265137   -4.88914851749751E-10            254022.09375           101325.203125        288.123992919922      0.0999809429049492    0.000310461662592773                       0 
                     -1        1.11993496748374        1.22509098052979        41.6796684265137   -4.90394966722453E-10            254022.09375           101325.203125        288.123992919922      0.0999809429049492    0.000310461662592773                       0 
                     -1        1.11868434217109        1.22509098052979        41.6796684265137   -4.91875081695155E-10            254022.09375           101325.203125        288.123992919922      0.0999809429049492    0.000310461662592773                       0 
                     -1        1.11743371685843        1.22509098052979        41.6796684265137   -4.93355196667857E-10            254022.09375           101325.203125        288.123992919922      0.0999809429049492    0.000310461662592773                       0 
                     -1        1.11618309154577        1.22509098052979        41.6796684265137   -4.94835311640559E-10            254022.09375           101325.203125        288.123992919922      0.0999809429049492    0.000310461662592773                       0 
                     -1        1.11493246623312        1.22509098052979        41.6796684265137   -4.96315426613261E-10            254022.09375           101325.203125        288.123992919922      0.0999809429049492    0.000310461662592773                       0 
                     -1        1.11368184092046        1.22509098052979        41.6796684265137   -4.97795541585963E-10            254022.09375           101325.203125        288.123992919922      0.0999809429049492    0.000310461662592773                       0 
                     -1         1.1124312156078        1.22509098052979        41.6796684265137   -4.99275656558665E-10            254022.09375           101325.203125        288.123992919922      0.0999809429049492    0.000310461662592773                       0 
                     -1        1.11118059029515        1.22509098052979        41.6796684265137   -5.00755771531368E-10            254022.09375           101325.203125        288.123992919922      0.0999809429049492    0.000310461662592773                       0 