TITLE = "Visualization of the volumetric solution"
VARIABLES = "x","y","Density","Momentum_x","Momentum_y","Energy","Pressure","Temperature","Mach","C<sub>p</sub>","Roe_Dissipation"
ZONE NODES= 3200, ELEMENTS= 3081, DATAPACKING=POINT, ZONETYPE=FEQUADRILATERAL
1.000000e+00	1.250000e+00	1.347327e+00	5.320459e+01	-1.669629e+02	3.011105e+05	1.158859e+05	2.996319e+02	3.748047e-01	2.052934e+01	0.000000e+00	
1.000000e+00	1.218354e+00	1.347327e+00	5.320466e+01	-1.669627e+02	3.011105e+05	1.158860e+05	2.996319e+02	3.748045e-01	2.052936e+01	0.000000e+00	
1.051282e+00	1.218354e+00	1.347335e+00	5.320346e+01	-1.669554e+02	3.011116e+05	1.158868e+05	2.996324e+02	3.747863e-01	2.053055e+01	0.000000e+00	
1.051282e+00	1.250000e+00	1.347334e+00	5.320342e+01	-1.669555e+02	3.011116e+05	1.158868e+05	2.996324e+02	3.747867e-01	2.053050e+01	0.000000e+00	
1.000000e+00	1.186709e+00	1.347327e+00	5.320460e+01	-1.669626e+02	3.011106e+05	1.158860e+05	2.996320e+02	3.748041e-01	2.052940e+01	0.000000e+00	
1.051282e+00	1.186709e+00	1.347335e+00	5.320340e+01	-1.669553e+02	3.011116e+05	1.158868e+05	2.996325e+02	3.747860e-01	2.053057e+01	0.000000e+00	
1.000000e+00	1.155063e+00	1.347327e+00	5.320452e+01	-1.669625e+02	3.011106e+05	1.158860e+05	2.996320e+02	3.748038e-01	2.052942e+01	0.000000e+00	
1.051282e+00	1.155063e+00	1.347335e+00	5.320332e+01	-1.669552e+02	3.011117e+05	1.158868e+05	2.996325e+02	3.747857e-01	2.053059e+01	0.000000e+00	
1.000000e+00	1.123418e+00	1.347327e+00	5.320444e+01	-1.669623e+02	3.011106e+05	1.158860e+05	2.996321e+02	3.748034e-01	2.052944e+01	0.000000e+00	
1.051282e+00	1.123418e+00	1.347335e+00	5.320325e+01	-1.669551e+02	3.011117e+05	1.158868e+05	2.996325e+02	3.747854e-01	2.053061e+01	0.000000e+00	
1.000000e+00	1.091772e+00	1.347327e+00	5.320437e+01	-1.669622e+02	3.011106e+05	1.158860e+05	2.996321e+02	3.748031e-01	2.052947e+01	0.000000e+00	
1.051282e+00	1.091772e+00	1.347335e+00	5.320317e+01	-1.669549e+02	3.011117e+05	1.158869e+05	2.996326e+02	3.747851e-01	2.053063e+01	0.000000e+00	
1.000000e+00	1.060127e+00	1.347327e+00	5.320431e+01	-1.669621e+02	3.011107e+05	1.158861e+05	2.996321e+02	3.748028e-01	2.052949e+01	0.000000e+00	
1.051282e+00	1.060127e+00	1.347335e+00	5.320311e+01	-1.669548e+02	3.011117e+05	1.158869e+05	2.996326e+02	3.747848e-01	2.053066e+01	0.000000e+00	
1.000000e+00	1.028481e+00	1.347327e+00	5.320426e+01	-1.669620e+02	3.011107e+05	1.158861e+05	2.996322e+02	3.748025e-01	2.052951e+01	0.000000e+00	
1.051282e+00	1.028481e+00	1.347335e+00	5.320305e+01	-1.669547e+02	3.011117e+05	1.158869e+05	2.996326e+02	3.747844e-01	2.053068e+01	0.000000e+00	
1.000000e+00	9.968354e-01	1.347327e+00	5.320422e+01	-1.669619e+02	3.011107e+05	1.158861e+05	2.996322e+02	3.748023e-01	2.052954e+01	0.000000e+00	
1.051282e+00	9.968354e-01	1.347335e+00	5.320299e+01	-1.669546e+02	3.011118e+05	1.158869e+05	2.996327e+02	3.747841e-01	2.053070e+01	0.000000e+00	
1.000000e+00	9.651899e-01	1.347327e+00	5.320419e+01	-1.669618e+02	3.011108e+05	1.158861e+05	2.996323e+02	3.748021e-01	2.052956e+01	0.000000e+00	
1.051282e+00	9.651899e-01	1.347335e+00	5.320294e+01	-1.669545e+02	3.011118e+05	1.158869e+05	2.996327e+02	3.747839e-01	2.053072e+01	0.000000e+00	
1.000000e+00	9.335443e-01	1.347327e+00	5.320417e+01	-1.669617e+02	3.011108e+05	1.158861e+05	2.996323e+02	3.748019e-01	2.052958e+01	0.000000e+00	
1.051282e+00	9.335443e-01	1.347335e+00	5.320290e+01	-1.669544e+02	3.011118e+05	1.158869e+05	2.996327e+02	3.747836e-01	2.053074e+01	0.000000e+00	
1.000000e+00	9.018987e-01	1.347327e+00	5.320415e+01	-1.669617e+02	3.011108e+05	1.158861e+05	2.996324e+02	3.748017e-01	2.052961e+01	0.000000e+00	
1.051282e+00	9.018987e-01	1.347335e+00	5.320286e+01	-1.669543e+02	3.011118e+05	1.158870e+05	2.996328e+02	3.747834e-01	2.053076e+01	0.000000e+00	
1.000000e+00	8.702532e-01	1.347327e+00	5.320415e+01	-1.669617e+02	3.011109e+05	1.158862e+05	2.996324e+02	3.748016e-01	2.052963e+01	0.000000e+00	
1.051282e+00	8.702532e-01	1.347335e+00	5.320283e+01	-1.669542e+02	3.011119e+05	1.158870e+05	2.996328e+02	3.747832e-01	2.053078e+01	0.000000e+00	
1.000000e+00	8.386076e-01	1.347327e+00	5.320414e+01	-1.669616e+02	3.011109e+05	1.158862e+05	2.996324e+02	3.748016e-01	2.052965e+01	0.000000e+00	
1.051282e+00	8.386076e-01	1.347335e+00	5.320281e+01	-1.669541e+02	3.011119e+05	1.158870e+05	2.996329e+02	3.747830e-01	2.053080e+01	0.000000e+00	
1.000000e+00	8.069620e-01	1.347327e+00	5.320415e+01	-1.669616e+02	3.011109e+05	1.158862e+05	2.996325e+02	3.748016e-01	2.052966e+01	0.000000e+00	
1.051282e+00	8.069620e-01	1.347335e+00	5.320279e+01	-1.669540e+02	3.011119e+05	1.158870e+05	2.996329e+02	3.747828e-01	2.053082e+01	0.000000e+00	
1.000000e+00	7.753165e-01	1.347327e+00	5.320416e+01	-1.669616e+02	3.011110e+05	1.158862e+05	2.996325e+02	3.748015e-01	2.052968e+01	0.000000e+00	
1.051282e+00	7.753165e-01	1.347335e+00	5.320278e+01	-1.669540e+02	3.011119e+05	1.158870e+05	2.996329e+02	3.747827e-01	2.053083e+01	0.000000e+00	
1.000000e+00	7.436709e-01	1.347327e+00	5.320417e+01	-1.669617e+02	3.011110e+05	1.158862e+05	2.996325e+02	3.748016e-01	2.052970e+01	0.000000e+00	
1.051282e+00	7.436709e-01	1.347335e+00	5.320277e+01	-1.669540e+02	3.011119e+05	1.158870e+05	2.996330e+02	3.747826e-01	2.053085e+01	0.000000e+00	
1.000000e+00	7.120253e-01	1.347328e+00	5.320418e+01	-1.669617e+02	3.011110e+05	1.158862e+05	2.996325e+02	3.748016e-01	2.052971e+01	0.000000e+00	
1.051282e+00	7.120253e-01	1.347335e+00	5.320277e+01	-1.669539e+02	3.011120e+05	1.158870e+05	2.996330e+02	3.747826e-01	2.053086e+01	0.000000e+00	
1.000000e+00	6.803797e-01	1.347328e+00	5.320420e+01	-1.669617e+02	3.011110e+05	1.158862e+05	2.996325e+02	3.748017e-01	2.052973e+01	0.000000e+00	
1.051282e+00	6.803797e-01	1.347335e+00	5.320277e+01	-1.669539e+02	3.011120e+05	1.158870e+05	2.996330e+02	3.747825e-01	2.053087e+01	0.000000e+00	
1.000000e+00	6.487342e-01	1.347328e+00	5.320422e+01	-1.669618e+02	3.011111e+05	1.158862e+05	2.996325e+02	3.748017e-01	2.052974e+01	0.000000e+00	
1.051282e+00	6.487342e-01	1.347335e+00	5.320278e+01	-1.669539e+02	3.011120e+05	1.158870e+05	2.996330e+02	3.747825e-01	2.053089e+01	0.000000e+00	
1.000000e+00	6.170886e-01	1.347328e+00	5.320424e+01	-1.669618e+02	3.011111e+05	1.158862e+05	2.996325e+02	3.748018e-01	2.052975e+01	0.000000e+00	
1.051282e+00	6.170886e-01	1.347335e+00	5.320279e+01	-1.669540e+02	3.011120e+05	1.158871e+05	2.996330e+02	3.747825e-01	2.053090e+01	0.000000e+00	
1.000000e+00	5.854430e-01	1.347328e+00	5.320426e+01	-1.669619e+02	3.011111e+05	1.158862e+05	2.996325e+02	3.748019e-01	2.052977e+01	0.000000e+00	
1.051282e+00	5.854430e-01	1.347335e+00	5.320280e+01	-1.669540e+02	3.011121e+05	1.158871e+05	2.996330e+02	3.747826e-01	2.053091e+01	0.000000e+00	
1.000000e+00	5.537975e-01	1.347328e+00	5.320428e+01	-1.669620e+02	3.011112e+05	1.158863e+05	2.996324e+02	3.748020e-01	2.052978e+01	0.000000e+00	
1.051282e+00	5.537975e-01	1.347335e+00	5.320281e+01	-1.669540e+02	3.011121e+05	1.158871e+05	2.996330e+02	3.747826e-01	2.053092e+01	0.000000e+00	
1.000000e+00	5.221519e-01	1.347329e+00	5.320430e+01	-1.669620e+02	3.011112e+05	1.158863e+05	2.996324e+02	3.748021e-01	2.052979e+01	0.000000e+00	
1.051282e+00	5.221519e-01	1.347335e+00	5.320282e+01	-1.669540e+02	3.011121e+05	1.158871e+05	2.996330e+02	3.747827e-01	2.053092e+01	0.000000e+00	
1.000000e+00	4.905063e-01	1.347329e+00	5.320432e+01	-1.669621e+02	3.011112e+05	1.158863e+05	2.996324e+02	3.748023e-01	2.052979e+01	0.000000e+00	
1.051282e+00	4.905063e-01	1.347335e+00	5.320284e+01	-1.669541e+02	3.011121e+05	1.158871e+05	2.996330e+02	3.747828e-01	2.053093e+01	0.000000e+00	
1.000000e+00	4.588608e-01	1.347329e+00	5.320434e+01	-1.669622e+02	3.011112e+05	1.158863e+05	2.996323e+02	3.748024e-01	2.052980e+01	0.000000e+00	
1.051282e+00	4.588608e-01	1.347335e+00	5.320286e+01	-1.669541e+02	3.011121e+05	1.158871e+05	2.996330e+02	3.747829e-01	2.053094e+01	0.000000e+00	
1.000000e+00	4.272152e-01	1.347329e+00	5.320436e+01	-1.669622e+02	3.011112e+05	1.158863e+05	2.996323e+02	3.748025e-01	2.052981e+01	0.000000e+00	
1.051282e+00	4.272152e-01	1.347336e+00	5.320287e+01	-1.669542e+02	3.011121e+05	1.158871e+05	2.996330e+02	3.747830e-01	2.053094e+01	0.000000e+00	
1.000000e+00	3.955696e-01	1.347329e+00	5.320438e+01	-1.669623e+02	3.011113e+05	1.158863e+05	2.996323e+02	3.748026e-01	2.052981e+01	0.000000e+00	
1.051282e+00	3.955696e-01	1.347336e+00	5.320289e+01	-1.669543e+02	3.011122e+05	1.158871e+05	2.996330e+02	3.747831e-01	2.053095e+01	0.000000e+00	
1.000000e+00	3.639241e-01	1.347330e+00	5.320440e+01	-1.669624e+02	3.011113e+05	1.158863e+05	2.996322e+02	3.748027e-01	2.052982e+01	0.000000e+00	
1.051282e+00	3.639241e-01	1.347336e+00	5.320291e+01	-1.669543e+02	3.011122e+05	1.158871e+05	2.996329e+02	3.747832e-01	2.053095e+01	0.000000e+00	
1.000000e+00	3.322785e-01	1.347330e+00	5.320442e+01	-1.669624e+02	3.011113e+05	1.158863e+05	2.996322e+02	3.748028e-01	2.052982e+01	0.000000e+00	
1.051282e+00	3.322785e-01	1.347336e+00	5.320293e+01	-1.669544e+02	3.011122e+05	1.158871e+05	2.996329e+02	3.747833e-01	2.053096e+01	0.000000e+00	
1.000000e+00	3.006329e-01	1.347330e+00	5.320444e+01	-1.669625e+02	3.011113e+05	1.158863e+05	2.996321e+02	3.748029e-01	2.052983e+01	0.000000e+00	
1.051282e+00	3.006329e-01	1.347336e+00	5.320295e+01	-1.669545e+02	3.011122e+05	1.158871e+05	2.996329e+02	3.747834e-01	2.053096e+01	0.000000e+00	
1.000000e+00	2.689873e-01	1.347330e+00	5.320445e+01	-1.669625e+02	3.011113e+05	1.158863e+05	2.996321e+02	3.748030e-01	2.052983e+01	0.000000e+00	
1.051282e+00	2.689873e-01	1.347336e+00	5.320297e+01	-1.669545e+02	3.011122e+05	1.158871e+05	2.996329e+02	3.747836e-01	2.053097e+01	0.000000e+00	
1.000000e+00	2.373418e-01	1.347331e+00	5.320447e+01	-1.669626e+02	3.011113e+05	1.158863e+05	2.996321e+02	3.748031e-01	2.052983e+01	0.000000e+00	
1.051282e+00	2.373418e-01	1.347336e+00	5.320299e+01	-1.669546e+02	3.011122e+05	1.158871e+05	2.996328e+02	3.747837e-01	2.053097e+01	0.000000e+00	
1.000000e+00	2.056962e-01	1.347331e+00	5.320449e+01	-1.669626e+02	3.011113e+05	1.158863e+05	2.996320e+02	3.748032e-01	2.052984e+01	0.000000e+00	
1.051282e+00	2.056962e-01	1.347337e+00	5.320301e+01	-1.669547e+02	3.011122e+05	1.158871e+05	2.996328e+02	3.747838e-01	2.053097e+01	0.000000e+00	
1.000000e+00	1.740506e-01	1.347331e+00	5.320450e+01	-1.669627e+02	3.011113e+05	1.158863e+05	2.996320e+02	3.748032e-01	2.052984e+01	0.000000e+00	
1.051282e+00	1.740506e-01	1.347337e+00	5.320303e+01	-1.669547e+02	3.011123e+05	1.158871e+05	2.996328e+02	3.747839e-01	2.053097e+01	0.000000e+00	
1.000000e+00	1.424051e-01	1.347331e+00	5.320451e+01	-1.669627e+02	3.011113e+05	1.158863e+05	2.996320e+02	3.748033e-01	2.052984e+01	0.000000e+00	
1.051282e+00	1.424051e-01	1.347337e+00	5.320305e+01	-1.669548e+02	3.011123e+05	1.158871e+05	2.996327e+02	3.747841e-01	2.053097e+01	0.000000e+00	
1.000000e+00	1.107595e-01	1.347331e+00	5.320453e+01	-1.669628e+02	3.011114e+05	1.158863e+05	2.996320e+02	3.748034e-01	2.052984e+01	0.000000e+00	
1.051282e+00	1.107595e-01	1.347337e+00	5.320307e+01	-1.669549e+02	3.011123e+05	1.158871e+05	2.996327e+02	3.747842e-01	2.053097e+01	0.000000e+00	
1.000000e+00	7.911392e-02	1.347331e+00	5.320454e+01	-1.669628e+02	3.011114e+05	1.158863e+05	2.996319e+02	3.748035e-01	2.052984e+01	0.000000e+00	
1.051282e+00	7.911392e-02	1.347337e+00	5.320308e+01	-1.669549e+02	3.011123e+05	1.158871e+05	2.996327e+02	3.747843e-01	2.053097e+01	0.000000e+00	
1.000000e+00	4.746835e-02	1.347331e+00	5.320455e+01	-1.669628e+02	3.011114e+05	1.158863e+05	2.996319e+02	3.748035e-01	2.052984e+01	0.000000e+00	
1.051282e+00	4.746835e-02	1.347337e+00	5.320310e+01	-1.669550e+02	3.011123e+05	1.158871e+05	2.996326e+02	3.747844e-01	2.053097e+01	0.000000e+00	
1.000000e+00	1.582278e-02	1.347331e+00	5.320456e+01	-1.669629e+02	3.011114e+05	1.158863e+05	2.996319e+02	3.748036e-01	2.052983e+01	0.000000e+00	
1.051282e+00	1.582278e-02	1.347337e+00	5.320312e+01	-1.669550e+02	3.011123e+05	1.158871e+05	2.996326e+02	3.747845e-01	2.053097e+01	0.000000e+00	
1.000000e+00	-1.582278e-02	1.347331e+00	5.320457e+01	-1.669629e+02	3.011114e+05	1.158863e+05	2.996319e+02	3.748036e-01	2.052983e+01	0.000000e+00	
1.051282e+00	-1.582278e-02	1.347338e+00	5.320313e+01	-1.669551e+02	3.011123e+05	1.158871e+05	2.996326e+02	3.747846e-01	2.053096e+01	0.000000e+00	
1.000000e+00	-4.746835e-02	1.347331e+00	5.320458e+01	-1.669629e+02	3.011113e+05	1.158863e+05	2.996319e+02	3.748037e-01	2.052983e+01	0.000000e+00	
1.051282e+00	-4.746835e-02	1.347338e+00	5.320315e+01	-1.669551e+02	3.011123e+05	1.158871e+05	2.996326e+02	3.747847e-01	2.053096e+01	0.000000e+00	
1.000000e+00	-7.911392e-02	1.347331e+00	5.320459e+01	-1.669629e+02	3.011113e+05	1.158863e+05	2.996319e+02	3.748038e-01	2.052982e+01	0.000000e+00	
1.051282e+00	-7.911392e-02	1.347338e+00	5.320316e+01	-1.669552e+02	3.011123e+05	1.158871e+05	2.996325e+02	3.747849e-01	2.053096e+01	0.000000e+00	
1.000000e+00	-1.107595e-01	1.347331e+00	5.320460e+01	-1.669629e+02	3.011113e+05	1.158863e+05	2.996319e+02	3.748038e-01	2.052982e+01	0.000000e+00	
1.051282e+00	-1.107595e-01	1.347338e+00	5.320317e+01	-1.669552e+02	3.011123e+05	1.158871e+05	2.996325e+02	3.747849e-01	2.053095e+01	0.000000e+00	
1.000000e+00	-1.424051e-01	1.347331e+00	5.320461e+01	-1.669630e+02	3.011113e+05	1.158863e+05	2.996319e+02	3.748039e-01	2.052981e+01	0.000000e+00	
1.051282e+00	-1.424051e-01	1.347338e+00	5.320318e+01	-1.669553e+02	3.011123e+05	1.158871e+05	2.996325e+02	3.747850e-01	2.053095e+01	0.000000e+00	
1.000000e+00	-1.740506e-01	1.347331e+00	5.320461e+01	-1.669630e+02	3.011113e+05	1.158863e+05	2.996319e+02	3.748039e-01	2.052981e+01	0.000000e+00	
1.051282e+00	-1.740506e-01	1.347338e+00	5.320319e+01	-1.669553e+02	3.011123e+05	1.158871e+05	2.996325e+02	3.747851e-01	2.053094e+01	0.000000e+00	
1.000000e+00	-2.056962e-01	1.347331e+00	5.320462e+01	-1.669630e+02	3.011113e+05	1.158863e+05	2.996319e+02	3.748039e-01	2.052980e+01	0.000000e+00	
1.051282e+00	-2.056962e-01	1.347338e+00	5.320320e+01	-1.669554e+02	3.011123e+05	1.158871e+05	2.996325e+02	3.747852e-01	2.053094e+01	0.000000e+00	
1.000000e+00	-2.373418e-01	1.347331e+00	5.320463e+01	-1.669630e+02	3.011113e+05	1.158863e+05	2.996319e+02	3.748040e-01	2.052979e+01	0.000000e+00	
1.051282e+00	-2.373418e-01	1.347338e+00	5.320321e+01	-1.669554e+02	3.011123e+05	1.158871e+05	2.996325e+02	3.747853e-01	2.053093e+01	0.000000e+00	
1.000000e+00	-2.689873e-01	1.347331e+00	5.320463e+01	-1.669630e+02	3.011113e+05	1.158863e+05	2.996319e+02	3.748040e-01	2.052978e+01	0.000000e+00	
1.051282e+00	-2.689873e-01	1.347338e+00	5.320322e+01	-1.669554e+02	3.011123e+05	1.158871e+05	2.996325e+02	3.747854e-01	2.053092e+01	0.000000e+00	
1.000000e+00	-3.006329e-01	1.347331e+00	5.320463e+01	-1.669630e+02	3.011113e+05	1.158863e+05	2.996319e+02	3.748041e-01	2.052977e+01	0.000000e+00	
1.051282e+00	-3.006329e-01	1.347338e+00	5.320323e+01	-1.669555e+02	3.011122e+05	1.158871e+05	2.996325e+02	3.747855e-01	2.053091e+01	0.000000e+00	
1.000000e+00	-3.322785e-01	1.347331e+00	5.320463e+01	-1.669630e+02	3.011113e+05	1.158862e+05	2.996319e+02	3.748041e-01	2.052976e+01	0.000000e+00	
1.051282e+00	-3.322785e-01	1.347338e+00	5.320323e+01	-1.669555e+02	3.011122e+05	1.158871e+05	2.996325e+02	3.747856e-01	2.053090e+01	0.000000e+00	
1.000000e+00	-3.639241e-01	1.347330e+00	5.320464e+01	-1.669630e+02	3.011112e+05	1.158862e+05	2.996319e+02	3.748042e-01	2.052975e+01	0.000000e+00	
1.051282e+00	-3.639241e-01	1.347337e+00	5.320323e+01	-1.669555e+02	3.011122e+05	1.158870e+05	2.996325e+02	3.747857e-01	2.053089e+01	0.000000e+00	
1.000000e+00	-3.955696e-01	1.347330e+00	5.320464e+01	-1.669630e+02	3.011112e+05	1.158862e+05	2.996320e+02	3.748042e-01	2.052974e+01	0.000000e+00	
1.051282e+00	-3.955696e-01	1.347337e+00	5.320323e+01	-1.669555e+02	3.011122e+05	1.158870e+05	2.996325e+02	3.747857e-01	2.053088e+01	0.000000e+00	
1.000000e+00	-4.272152e-01	1.347330e+00	5.320463e+01	-1.669631e+02	3.011112e+05	1.158862e+05	2.996320e+02	3.748043e-01	2.052973e+01	0.000000e+00	
1.051282e+00	-4.272152e-01	1.347337e+00	5.320323e+01	-1.669556e+02	3.011122e+05	1.158870e+05	2.996325e+02	3.747858e-01	2.053087e+01	0.000000e+00	
1.000000e+00	-4.588608e-01	1.347330e+00	5.320463e+01	-1.669631e+02	3.011112e+05	1.158862e+05	2.996320e+02	3.748043e-01	2.052972e+01	0.000000e+00	
1.051282e+00	-4.588608e-01	1.347337e+00	5.320323e+01	-1.669556e+02	3.011122e+05	1.158870e+05	2.996325e+02	3.747859e-01	2.053086e+01	0.000000e+00	
1.000000e+00	-4.905063e-01	1.347330e+00	5.320463e+01	-1.669631e+02	3.011112e+05	1.158862e+05	2.996320e+02	3.748044e-01	2.052970e+01	0.000000e+00	
1.051282e+00	-4.905063e-01	1.347337e+00	5.320323e+01	-1.669556e+02	3.011122e+05	1.158870e+05	2.996325e+02	3.747860e-01	2.053085e+01	0.000000e+00	
1.000000e+00	-5.221519e-01	1.347330e+00	5.320462e+01	-1.669631e+02	3.011111e+05	1.158862e+05	2.996320e+02	3.748045e-01	2.052969e+01	0.000000e+00	
1.051282e+00	-5.221519e-01	1.347337e+00	5.320322e+01	-1.669557e+02	3.011121e+05	1.158870e+05	2.996325e+02	3.747861e-01	2.053083e+01	0.000000e+00	
1.000000e+00	-5.537975e-01	1.347330e+00	5.320461e+01	-1.669631e+02	3.011111e+05	1.158862e+05	2.996320e+02	3.748045e-01	2.052968e+01	0.000000e+00	
1.051282e+00	-5.537975e-01	1.347337e+00	5.320321e+01	-1.669557e+02	3.011121e+05	1.158870e+05	2.996325e+02	3.747861e-01	2.053082e+01	0.000000e+00	
1.000000e+00	-5.854430e-01	1.347329e+00	5.320460e+01	-1.669631e+02	3.011111e+05	1.158862e+05	2.996320e+02	3.748046e-01	2.052966e+01	0.000000e+00	
1.051282e+00	-5.854430e-01	1.347337e+00	5.320320e+01	-1.669557e+02	3.011121e+05	1.158870e+05	2.996325e+02	3.747862e-01	2.053081e+01	0.000000e+00	
1.000000e+00	-6.170886e-01	1.347329e+00	5.320458e+01	-1.669631e+02	3.011111e+05	1.158862e+05	2.996320e+02	3.748046e-01	2.052965e+01	0.000000e+00	
1.051282e+00	-6.170886e-01	1.347337e+00	5.320318e+01	-1.669557e+02	3.011121e+05	1.158870e+05	2.996325e+02	3.747863e-01	2.053079e+01	0.000000e+00	
1.000000e+00	-6.487342e-01	1.347329e+00	5.320457e+01	-1.669632e+02	3.011110e+05	1.158862e+05	2.996320e+02	3.748047e-01	2.052963e+01	0.000000e+00	
1.051282e+00	-6.487342e-01	1.347336e+00	5.320317e+01	-1.669557e+02	3.011120e+05	1.158870e+05	2.996325e+02	3.747864e-01	2.053078e+01	0.000000e+00	
1.000000e+00	-6.803797e-01	1.347329e+00	5.320454e+01	-1.669632e+02	3.011110e+05	1.158861e+05	2.996320e+02	3.748047e-01	2.052961e+01	0.000000e+00	
1.051282e+00	-6.803797e-01	1.347336e+00	5.320315e+01	-1.669558e+02	3.011120e+05	1.158870e+05	2.996325e+02	3.747864e-01	2.053076e+01	0.000000e+00	
1.000000e+00	-7.120253e-01	1.347329e+00	5.320452e+01	-1.669632e+02	3.011110e+05	1.158861e+05	2.996320e+02	3.748048e-01	2.052960e+01	0.000000e+00	
1.051282e+00	-7.120253e-01	1.347336e+00	5.320312e+01	-1.669558e+02	3.011120e+05	1.158869e+05	2.996325e+02	3.747865e-01	2.053075e+01	0.000000e+00	
1.000000e+00	-7.436709e-01	1.347329e+00	5.320449e+01	-1.669632e+02	3.011110e+05	1.158861e+05	2.996319e+02	3.748048e-01	2.052958e+01	0.000000e+00	
1.051282e+00	-7.436709e-01	1.347336e+00	5.320310e+01	-1.669558e+02	3.011120e+05	1.158869e+05	2.996325e+02	3.747866e-01	2.053073e+01	0.000000e+00	
1.000000e+00	-7.753165e-01	1.347329e+00	5.320446e+01	-1.669632e+02	3.011109e+05	1.158861e+05	2.996319e+02	3.748049e-01	2.052956e+01	0.000000e+00	
1.051282e+00	-7.753165e-01	1.347336e+00	5.320307e+01	-1.669558e+02	3.011120e+05	1.158869e+05	2.996325e+02	3.747866e-01	2.053072e+01	0.000000e+00	
1.000000e+00	-8.069620e-01	1.347329e+00	5.320443e+01	-1.669632e+02	3.011109e+05	1.158861e+05	2.996319e+02	3.748049e-01	2.052955e+01	0.000000e+00	
1.051282e+00	-8.069620e-01	1.347336e+00	5.320303e+01	-1.669559e+02	3.011119e+05	1.158869e+05	2.996325e+02	3.747867e-01	2.053070e+01	0.000000e+00	
1.000000e+00	-8.386076e-01	1.347329e+00	5.320439e+01	-1.669632e+02	3.011109e+05	1.158861e+05	2.996319e+02	3.748049e-01	2.052953e+01	0.000000e+00	
1.051282e+00	-8.386076e-01	1.347336e+00	5.320300e+01	-1.669559e+02	3.011119e+05	1.158869e+05	2.996325e+02	3.747867e-01	2.053069e+01	0.000000e+00	
1.000000e+00	-8.702532e-01	1.347329e+00	5.320435e+01	-1.669633e+02	3.011108e+05	1.158861e+05	2.996319e+02	3.748050e-01	2.052951e+01	0.000000e+00	
1.051282e+00	-8.702532e-01	1.347336e+00	5.320296e+01	-1.669559e+02	3.011119e+05	1.158869e+05	2.996325e+02	3.747867e-01	2.053067e+01	0.000000e+00	
1.000000e+00	-9.018987e-01	1.347329e+00	5.320430e+01	-1.669633e+02	3.011108e+05	1.158861e+05	2.996319e+02	3.748050e-01	2.052950e+01	0.000000e+00	
1.051282e+00	-9.018987e-01	1.347336e+00	5.320292e+01	-1.669559e+02	3.011119e+05	1.158869e+05	2.996325e+02	3.747868e-01	2.053066e+01	0.000000e+00	
1.000000e+00	-9.335443e-01	1.347328e+00	5.320425e+01	-1.669633e+02	3.011108e+05	1.158860e+05	2.996319e+02	3.748050e-01	2.052948e+01	0.000000e+00	
1.051282e+00	-9.335443e-01	1.347335e+00	5.320287e+01	-1.669559e+02	3.011118e+05	1.158869e+05	2.996325e+02	3.747868e-01	2.053065e+01	0.000000e+00	
1.000000e+00	-9.651899e-01	1.347328e+00	5.320420e+01	-1.669633e+02	3.011108e+05	1.158860e+05	2.996319e+02	3.748050e-01	2.052947e+01	0.000000e+00	
1.051282e+00	-9.651899e-01	1.347335e+00	5.320283e+01	-1.669559e+02	3.011118e+05	1.158869e+05	2.996324e+02	3.747868e-01	2.053063e+01	0.000000e+00	
1.000000e+00	-9.968354e-01	1.347328e+00	5.320415e+01	-1.669633e+02	3.011107e+05	1.158860e+05	2.996319e+02	3.748050e-01	2.052946e+01	0.000000e+00	
1.051282e+00	-9.968354e-01	1.347335e+00	5.320278e+01	-1.669559e+02	3.011118e+05	1.158869e+05	2.996324e+02	3.747868e-01	2.053062e+01	0.000000e+00	
1.000000e+00	-1.028481e+00	1.347328e+00	5.320410e+01	-1.669633e+02	3.011107e+05	1.158860e+05	2.996318e+02	3.748050e-01	2.052945e+01	0.000000e+00	
1.051282e+00	-1.028481e+00	1.347335e+00	5.320273e+01	-1.669559e+02	3.011118e+05	1.158869e+05	2.996324e+02	3.747868e-01	2.053061e+01	0.000000e+00	
1.000000e+00	-1.060127e+00	1.347328e+00	5.320404e+01	-1.669632e+02	3.011107e+05	1.158860e+05	2.996318e+02	3.748049e-01	2.052944e+01	0.000000e+00	
1.051282e+00	-1.060127e+00	1.347335e+00	5.320269e+01	-1.669559e+02	3.011117e+05	1.158868e+05	2.996324e+02	3.747867e-01	2.053060e+01	0.000000e+00	
1.000000e+00	-1.091772e+00	1.347328e+00	5.320398e+01	-1.669632e+02	3.011107e+05	1.158860e+05	2.996318e+02	3.748049e-01	2.052943e+01	0.000000e+00	
1.051282e+00	-1.091772e+00	1.347335e+00	5.320263e+01	-1.669559e+02	3.011117e+05	1.158868e+05	2.996324e+02	3.747867e-01	2.053060e+01	0.000000e+00	
1.000000e+00	-1.123418e+00	1.347328e+00	5.320394e+01	-1.669632e+02	3.011107e+05	1.158860e+05	2.996319e+02	3.748048e-01	2.052942e+01	0.000000e+00	
1.051282e+00	-1.123418e+00	1.347335e+00	5.320259e+01	-1.669558e+02	3.011117e+05	1.158868e+05	2.996324e+02	3.747866e-01	2.053058e+01	0.000000e+00	
1.000000e+00	-1.155063e+00	1.347328e+00	5.320391e+01	-1.669632e+02	3.011107e+05	1.158860e+05	2.996319e+02	3.748048e-01	2.052943e+01	0.000000e+00	
1.051282e+00	-1.155063e+00	1.347335e+00	5.320259e+01	-1.669559e+02	3.011117e+05	1.158868e+05	2.996324e+02	3.747867e-01	2.053060e+01	0.000000e+00	
1.000000e+00	-1.186709e+00	1.347328e+00	5.320377e+01	-1.669631e+02	3.011106e+05	1.158860e+05	2.996319e+02	3.748045e-01	2.052939e+01	0.000000e+00	
1.051282e+00	-1.186709e+00	1.347335e+00	5.320250e+01	-1.669557e+02	3.011116e+05	1.158868e+05	2.996324e+02	3.747863e-01	2.053055e+01	0.000000e+00	
1.000000e+00	-1.218354e+00	1.347328e+00	5.320357e+01	-1.669633e+02	3.011107e+05	1.158860e+05	2.996319e+02	3.748046e-01	2.052947e+01	0.000000e+00	
1.051282e+00	-1.218354e+00	1.347336e+00	5.320212e+01	-1.669559e+02	3.011118e+05	1.158869e+05	2.996324e+02	3.747863e-01	2.053064e+01	0.000000e+00	
1.102564e+00	1.218354e+00	1.347340e+00	5.320261e+01	-1.669491e+02	3.011126e+05	1.158875e+05	2.996330e+02	3.747709e-01	2.053157e+01	0.000000e+00	
1.102564e+00	1.250000e+00	1.347340e+00	5.320255e+01	-1.669492e+02	3.011125e+05	1.158875e+05	2.996330e+02	3.747713e-01	2.053152e+01	0.000000e+00	
1.102564e+00	1.186709e+00	1.347340e+00	5.320256e+01	-1.669490e+02	3.011126e+05	1.158875e+05	2.996331e+02	3.747707e-01	2.053158e+01	0.000000e+00	
1.102564e+00	1.155063e+00	1.347341e+00	5.320249e+01	-1.669489e+02	3.011126e+05	1.158876e+05	2.996331e+02	3.747705e-01	2.053160e+01	0.000000e+00	
1.102564e+00	1.123418e+00	1.347341e+00	5.320242e+01	-1.669488e+02	3.011126e+05	1.158876e+05	2.996331e+02	3.747702e-01	2.053162e+01	0.000000e+00	
1.102564e+00	1.091772e+00	1.347341e+00	5.320236e+01	-1.669487e+02	3.011126e+05	1.158876e+05	2.996331e+02	3.747699e-01	2.053164e+01	0.000000e+00	
1.102564e+00	1.060127e+00	1.347341e+00	5.320230e+01	-1.669486e+02	3.011127e+05	1.158876e+05	2.996331e+02	3.747696e-01	2.053166e+01	0.000000e+00	
1.102564e+00	1.028481e+00	1.347341e+00	5.320224e+01	-1.669485e+02	3.011127e+05	1.158876e+05	2.996332e+02	3.747693e-01	2.053168e+01	0.000000e+00	
1.102564e+00	9.968354e-01	1.347341e+00	5.320219e+01	-1.669484e+02	3.011127e+05	1.158876e+05	2.996332e+02	3.747690e-01	2.053170e+01	0.000000e+00	
1.102564e+00	9.651899e-01	1.347341e+00	5.320213e+01	-1.669483e+02	3.011127e+05	1.158876e+05	2.996332e+02	3.747687e-01	2.053172e+01	0.000000e+00	
1.102564e+00	9.335443e-01	1.347341e+00	5.320209e+01	-1.669481e+02	3.011127e+05	1.158876e+05	2.996332e+02	3.747684e-01	2.053174e+01	0.000000e+00	
1.102564e+00	9.018987e-01	1.347341e+00	5.320204e+01	-1.669480e+02	3.011127e+05	1.158877e+05	2.996333e+02	3.747682e-01	2.053175e+01	0.000000e+00	
1.102564e+00	8.702532e-01	1.347341e+00	5.320200e+01	-1.669479e+02	3.011128e+05	1.158877e+05	2.996333e+02	3.747679e-01	2.053177e+01	0.000000e+00	
1.102564e+00	8.386076e-01	1.347341e+00	5.320196e+01	-1.669478e+02	3.011128e+05	1.158877e+05	2.996333e+02	3.747677e-01	2.053179e+01	0.000000e+00	
1.102564e+00	8.069620e-01	1.347341e+00	5.320193e+01	-1.669477e+02	3.011128e+05	1.158877e+05	2.996334e+02	3.747674e-01	2.053180e+01	0.000000e+00	
1.102564e+00	7.753165e-01	1.347341e+00	5.320190e+01	-1.669476e+02	3.011128e+05	1.158877e+05	2.996334e+02	3.747672e-01	2.053182e+01	0.000000e+00	
1.102564e+00	7.436709e-01	1.347341e+00	5.320187e+01	-1.669476e+02	3.011128e+05	1.158877e+05	2.996334e+02	3.747670e-01	2.053183e+01	0.000000e+00	
1.102564e+00	7.120253e-01	1.347341e+00	5.320185e+01	-1.669475e+02	3.011128e+05	1.158877e+05	2.996335e+02	3.747669e-01	2.053185e+01	0.000000e+00	
1.102564e+00	6.803797e-01	1.347341e+00	5.320183e+01	-1.669474e+02	3.011128e+05	1.158877e+05	2.996335e+02	3.747667e-01	2.053186e+01	0.000000e+00	
1.102564e+00	6.487342e-01	1.347341e+00	5.320181e+01	-1.669474e+02	3.011129e+05	1.158877e+05	2.996335e+02	3.747666e-01	2.053187e+01	0.000000e+00	
1.102564e+00	6.170886e-01	1.347341e+00	5.320180e+01	-1.669473e+02	3.011129e+05	1.158877e+05	2.996336e+02	3.747665e-01	2.053188e+01	0.000000e+00	
1.102564e+00	5.854430e-01	1.347341e+00	5.320179e+01	-1.669473e+02	3.011129e+05	1.158878e+05	2.996336e+02	3.747664e-01	2.053189e+01	0.000000e+00	
1.102564e+00	5.537975e-01	1.347341e+00	5.320179e+01	-1.669473e+02	3.011129e+05	1.158878e+05	2.996336e+02	3.747664e-01	2.053190e+01	0.000000e+00	
1.102564e+00	5.221519e-01	1.347341e+00	5.320179e+01	-1.669473e+02	3.011129e+05	1.158878e+05	2.996336e+02	3.747664e-01	2.053191e+01	0.000000e+00	
1.102564e+00	4.905063e-01	1.347341e+00	5.320179e+01	-1.669473e+02	3.011129e+05	1.158878e+05	2.996336e+02	3.747664e-01	2.053192e+01	0.000000e+00	
1.102564e+00	4.588608e-01	1.347341e+00	5.320179e+01	-1.669473e+02	3.011129e+05	1.158878e+05	2.996336e+02	3.747664e-01	2.053192e+01	0.000000e+00	
1.102564e+00	4.272152e-01	1.347341e+00	5.320180e+01	-1.669474e+02	3.011130e+05	1.158878e+05	2.996336e+02	3.747665e-01	2.053193e+01	0.000000e+00	
1.102564e+00	3.955696e-01	1.347341e+00	5.320181e+01	-1.669474e+02	3.011130e+05	1.158878e+05	2.996336e+02	3.747665e-01	2.053193e+01	0.000000e+00	
1.102564e+00	3.639241e-01	1.347341e+00	5.320182e+01	-1.669474e+02	3.011130e+05	1.158878e+05	2.996336e+02	3.747666e-01	2.053194e+01	0.000000e+00	
1.102564e+00	3.322785e-01	1.347341e+00	5.320183e+01	-1.669475e+02	3.011130e+05	1.158878e+05	2.996336e+02	3.747667e-01	2.053194e+01	0.000000e+00	
1.102564e+00	3.006329e-01	1.347341e+00	5.320184e+01	-1.669475e+02	3.011130e+05	1.158878e+05	2.996336e+02	3.747668e-01	2.053195e+01	0.000000e+00	
1.102564e+00	2.689873e-01	1.347341e+00	5.320186e+01	-1.669476e+02	3.011130e+05	1.158878e+05	2.996336e+02	3.747669e-01	2.053195e+01	0.000000e+00	
1.102564e+00	2.373418e-01	1.347341e+00	5.320187e+01	-1.669477e+02	3.011130e+05	1.158878e+05	2.996336e+02	3.747671e-01	2.053195e+01	0.000000e+00	
1.102564e+00	2.056962e-01	1.347341e+00	5.320189e+01	-1.669477e+02	3.011131e+05	1.158878e+05	2.996336e+02	3.747672e-01	2.053195e+01	0.000000e+00	
1.102564e+00	1.740506e-01	1.347341e+00	5.320191e+01	-1.669478e+02	3.011131e+05	1.158878e+05	2.996335e+02	3.747673e-01	2.053196e+01	0.000000e+00	
1.102564e+00	1.424051e-01	1.347342e+00	5.320193e+01	-1.669479e+02	3.011131e+05	1.158878e+05	2.996335e+02	3.747675e-01	2.053196e+01	0.000000e+00	
1.102564e+00	1.107595e-01	1.347342e+00	5.320195e+01	-1.669480e+02	3.011131e+05	1.158878e+05	2.996335e+02	3.747676e-01	2.053196e+01	0.000000e+00	
1.102564e+00	7.911392e-02	1.347342e+00	5.320197e+01	-1.669480e+02	3.011131e+05	1.158878e+05	2.996334e+02	3.747678e-01	2.053196e+01	0.000000e+00	
1.102564e+00	4.746835e-02	1.347342e+00	5.320199e+01	-1.669481e+02	3.011131e+05	1.158878e+05	2.996334e+02	3.747679e-01	2.053195e+01	0.000000e+00	
1.102564e+00	1.582278e-02	1.347342e+00	5.320201e+01	-1.669482e+02	3.011131e+05	1.158878e+05	2.996334e+02	3.747681e-01	2.053195e+01	0.000000e+00	
1.102564e+00	-1.582278e-02	1.347342e+00	5.320203e+01	-1.669483e+02	3.011131e+05	1.158878e+05	2.996334e+02	3.747682e-01	2.053195e+01	0.000000e+00	
1.102564e+00	-4.746835e-02	1.347342e+00	5.320205e+01	-1.669483e+02	3.011131e+05	1.158878e+05	2.996333e+02	3.747684e-01	2.053195e+01	0.000000e+00	
1.102564e+00	-7.911392e-02	1.347342e+00	5.320206e+01	-1.669484e+02	3.011131e+05	1.158878e+05	2.996333e+02	3.747685e-01	2.053194e+01	0.000000e+00	
1.102564e+00	-1.107595e-01	1.347342e+00	5.320208e+01	-1.669485e+02	3.011131e+05	1.158878e+05	2.996333e+02	3.747687e-01	2.053194e+01	0.000000e+00	
1.102564e+00	-1.424051e-01	1.347343e+00	5.320210e+01	-1.669485e+02	3.011131e+05	1.158878e+05	2.996332e+02	3.747688e-01	2.053193e+01	0.000000e+00	
1.102564e+00	-1.740506e-01	1.347343e+00	5.320211e+01	-1.669486e+02	3.011131e+05	1.158878e+05	2.996332e+02	3.747689e-01	2.053193e+01	0.000000e+00	