TITLE = "SU2 Simulation"
VARIABLES = "Iteration","CL","CD","CSF","CMx","CMy","CMz","CFx","CFy","CFz","CL/CD","AoA","Custom_ObjFunc","Res_Flow[0]","Res_Flow[1]","Res_Flow[2]","Res_Flow[3]","Res_Flow[4]","Linear_Solver_Iterations","CFL_Number","Time(min)"
ZONE T= "Convergence history"
           0, 0.00000000e+00, 0.00000000e+00, 0.00000000e+00, 0.00000000e+00, 0.00000000e+00, 0.00000000e+00, 0.00000000e+00, 0.00000000e+00, 0.00000000e+00, 0.00000000e+00, 0.00000000e+00, 0.00000000e+00, -3.70734323e+00, -1.09757952e+00, -1.29867072e+01, 1.81212178e+00, 0.00000000e+00, 5.0000000000, 5.0000000000, 0.0012336833
           1, 0.00000000e+00, 0.00000000e+00, 0.00000000e+00, 0.00000000e+00, 0.00000000e+00, 0.00000000e+00, 0.00000000e+00, 0.00000000e+00, 0.00000000e+00, 0.00000000e+00, 0.00000000e+00, 0.00000000e+00, -3.99302781e+00, -1.36998898e+00, -3.48553279e+00, 1.54589397e+00, 0.00000000e+00, 5.0000000000, 5.0000000000, 0.0024491833
           2, 0.00000000e+00, 0.00000000e+00, 0.00000000e+00, 0.00000000e+00, 0.00000000e+00, 0.00000000e+00, 0.00000000e+00, 0.00000000e+00, 0.00000000e+00, 0.00000000e+00, 0.00000000e+00, 0.00000000e+00, -1.20109445e+00, 1.27355680e+00, -9.15066621e-01, 4.23793916e+00, 0.00000000e+00, 5.0000000000, 5.0000000000, 0.0035723667
           3, 0.00000000e+00, 0.00000000e+00, 0.00000000e+00, 0.00000000e+00, 0.00000000e+00, 0.00000000e+00, 0.00000000e+00, 0.00000000e+00, 0.00000000e+00, 0.00000000e+00, 0.00000000e+00, 0.00000000e+00, -1.05972445e+00, 1.40232706e+00, -5.07225485e-01, 4.37290124e+00, 0.00000000e+00, 5.0000000000, 5.0000000000, 0.0047952500
           4, 0.00000000e+00, 0.00000000e+00, 0.00000000e+00, 0.00000000e+00, 0.00000000e+00, 0.00000000e+00, 0.00000000e+00, 0.00000000e+00, 0.00000000e+00, 0.00000000e+00, 0.00000000e+00, 0.00000000e+00, -1.02801740e+00, 1.42508503e+00, -3.87171419e-01, 4.39970212e+00, 0.00000000e+00, 5.0000000000, 5.0000000000, 0.0060033500
           5, 0.00000000e+00, 0.00000000e+00, 0.00000000e+00, 0.00000000e+00, 0.00000000e+00, 0.00000000e+00, 0.00000000e+00, 0.00000000e+00, 0.00000000e+00, 0.00000000e+00, 0.00000000e+00, 0.00000000e+00, -1.02788900e+00, 1.41947402e+00, -3.93097020e-01, 4.39655282e+00, 0.00000000e+00, 5.0000000000, 5.0000000000, 0.0072561333
           6, 0.00000000e+00, 0.00000000e+00, 0.00000000e+00, 0.00000000e+00, 0.00000000e+00, 0.00000000e+00, 0.00000000e+00, 0.00000000e+00, 0.00000000e+00, 0.00000000e+00, 0.00000000e+00, 0.00000000e+00, -1.03609912e+00, 1.40758646e+00, -4.51043788e-01, 4.38604889e+00, 0.00000000e+00, 5.0000000000, 5.0000000000, 0.0084920333
           7, 0.00000000e+00, 0.00000000e+00, 0.00000000e+00, 0.00000000e+00, 0.00000000e+00, 0.00000000e+00, 0.00000000e+00, 0.00000000e+00, 0.00000000e+00, 0.00000000e+00, 0.00000000e+00, 0.00000000e+00, -1.04542529e+00, 1.39552390e+00, -4.98852140e-01, 4.37487738e+00, 0.00000000e+00, 5.0000000000, 5.0000000000, 0.0097297000
           8, 0.00000000e+00, 0.00000000e+00, 0.00000000e+00, 0.00000000e+00, 0.00000000e+00, 0.00000000e+00, 0.00000000e+00, 0.00000000e+00, 0.00000000e+00, 0.00000000e+00, 0.00000000e+00, 0.00000000e+00, -1.05423101e+00, 1.38433335e+00, -5.03493370e-01, 4.36453808e+00, 0.00000000e+00, 5.0000000000, 5.0000000000, 0.0109586833
           9, 0.00000000e+00, 0.00000000e+00, 0.00000000e+00, 0.00000000e+00, 0.00000000e+00, 0.00000000e+00, 0.00000000e+00, 0.00000000e+00, 0.00000000e+00, 0.00000000e+00, 0.00000000e+00, 0.00000000e+00, -1.06249623e+00, 1.37395472e+00, -4.86173589e-01, 4.35508856e+00, 0.00000000e+00, 5.0000000000, 5.0000000000, 0.0121238667
          10, 0.00000000e+00, 0.00000000e+00, 0.00000000e+00, 0.00000000e+00, 0.00000000e+00, 0.00000000e+00, 0.00000000e+00, 0.00000000e+00, 0.00000000e+00, 0.00000000e+00, 0.00000000e+00, 0.00000000e+00, -1.07044988e+00, 1.36428698e+00, -4.72928071e-01, 4.34631562e+00, 0.00000000e+00, 5.0000000000, 5.0000000000, 0.0133037667
          11, 0.00000000e+00, 0.00000000e+00, 0.00000000e+00, 0.00000000e+00, 0.00000000e+00, 0.00000000e+00, 0.00000000e+00, 0.00000000e+00, 0.00000000e+00, 0.00000000e+00, 0.00000000e+00, 0.00000000e+00, -1.07826521e+00, 1.35525134e+00, -4.70733691e-01, 4.33796923e+00, 0.00000000e+00, 5.0000000000, 5.0000000000, 0.0145132667
          12, 0.00000000e+00, 0.00000000e+00, 0.00000000e+00, 0.00000000e+00, 0.00000000e+00, 0.00000000e+00, 0.00000000e+00, 0.00000000e+00, 0.00000000e+00, 0.00000000e+00, 0.00000000e+00, 0.00000000e+00, -1.08593986e+00, 1.34680102e+00, -4.77048550e-01, 4.32994261e+00, 0.00000000e+00, 5.0000000000, 5.0000000000, 0.0156811000
          13, 0.00000000e+00, 0.00000000e+00, 0.00000000e+00, 0.00000000e+00, 0.00000000e+00, 0.00000000e+00, 0.00000000e+00, 0.00000000e+00, 0.00000000e+00, 0.00000000e+00, 0.00000000e+00, 0.00000000e+00, -1.09338064e+00, 1.33887688e+00, -4.87274930e-01, 4.32224481e+00, 0.00000000e+00, 5.0000000000, 5.0000000000, 0.0168445833
          14, 0.00000000e+00, 0.00000000e+00, 0.00000000e+00, 0.00000000e+00, 0.00000000e+00, 0.00000000e+00, 0.00000000e+00, 0.00000000e+00, 0.00000000e+00, 0.00000000e+00, 0.00000000e+00, 0.00000000e+00, -1.10051733e+00, 1.33139425e+00, -4.97978131e-01, 4.31489393e+00, 0.00000000e+00, 5.0000000000, 5.0000000000, 0.0180135333
          15, 0.00000000e+00, 0.00000000e+00, 0.00000000e+00, 0.00000000e+00, 0.00000000e+00, 0.00000000e+00, 0.00000000e+00, 0.00000000e+00, 0.00000000e+00, 0.00000000e+00, 0.00000000e+00, 0.00000000e+00, -1.10732559e+00, 1.32428330e+00, -5.07645088e-01, 4.30789152e+00, 0.00000000e+00, 5.0000000000, 5.0000000000, 0.0191350167
          16, 0.00000000e+00, 0.00000000e+00, 0.00000000e+00, 0.00000000e+00, 0.00000000e+00, 0.00000000e+00, 0.00000000e+00, 0.00000000e+00, 0.00000000e+00, 0.00000000e+00, 0.00000000e+00, 0.00000000e+00, -1.11381921e+00, 1.31749682e+00, -5.16351962e-01, 4.30121959e+00, 0.00000000e+00, 5.0000000000, 5.0000000000, 0.0205986000
          17, 0.00000000e+00, 0.00000000e+00, 0.00000000e+00, 0.00000000e+00, 0.00000000e+00, 0.00000000e+00, 0.00000000e+00, 0.00000000e+00, 0.00000000e+00, 0.00000000e+00, 0.00000000e+00, 0.00000000e+00, -1.12003127e+00, 1.31099749e+00, -5.24390543e-01, 4.29484726e+00, 0.00000000e+00, 5.0000000000, 5.0000000000, 0.0220371667
          18, 0.00000000e+00, 0.00000000e+00, 0.00000000e+00, 0.00000000e+00, 0.00000000e+00, 0.00000000e+00, 0.00000000e+00, 0.00000000e+00, 0.00000000e+00, 0.00000000e+00, 0.00000000e+00, 0.00000000e+00, -1.12599419e+00, 1.30475897e+00, -5.32072378e-01, 4.28874482e+00, 0.00000000e+00, 5.0000000000, 5.0000000000, 0.0232481500
          19, 0.00000000e+00, 0.00000000e+00, 0.00000000e+00, 0.00000000e+00, 0.00000000e+00, 0.00000000e+00, 0.00000000e+00, 0.00000000e+00, 0.00000000e+00, 0.00000000e+00, 0.00000000e+00, 0.00000000e+00, -1.13173396e+00, 1.29875959e+00, -5.39507609e-01, 4.28288635e+00, 0.00000000e+00, 5.0000000000, 5.0000000000, 0.0244602833
          20, 0.00000000e+00, 0.00000000e+00, 0.00000000e+00, 0.00000000e+00, 0.00000000e+00, 0.00000000e+00, 0.00000000e+00, 0.00000000e+00, 0.00000000e+00, 0.00000000e+00, 0.00000000e+00, 0.00000000e+00, -1.13726918e+00, 1.29298152e+00, -5.46770483e-01, 4.27725035e+00, 0.00000000e+00, 5.0000000000, 5.0000000000, 0.0255436167
          21, 0.00000000e+00, 0.00000000e+00, 0.00000000e+00, 0.00000000e+00, 0.00000000e+00, 0.00000000e+00, 0.00000000e+00, 0.00000000e+00, 0.00000000e+00, 0.00000000e+00, 0.00000000e+00, 0.00000000e+00, -1.14261333e+00, 1.28741171e+00, -5.53871568e-01, 4.27181927e+00, 0.00000000e+00, 5.0000000000, 5.0000000000, 0.0266711667
          22, 0.00000000e+00, 0.00000000e+00, 0.00000000e+00, 0.00000000e+00, 0.00000000e+00, 0.00000000e+00, 0.00000000e+00, 0.00000000e+00, 0.00000000e+00, 0.00000000e+00, 0.00000000e+00, 0.00000000e+00, -1.14777925e+00, 1.28203924e+00, -5.60826193e-01, 4.26657538e+00, 0.00000000e+00, 5.0000000000, 5.0000000000, 0.0277505167
          23, 0.00000000e+00, 0.00000000e+00, 0.00000000e+00, 0.00000000e+00, 0.00000000e+00, 0.00000000e+00, 0.00000000e+00, 0.00000000e+00, 0.00000000e+00, 0.00000000e+00, 0.00000000e+00, 0.00000000e+00, -1.15277899e+00, 1.27685699e+00, -5.67657458e-01, 4.26150294e+00, 0.00000000e+00, 5.0000000000, 5.0000000000, 0.0287983333
          24, 0.00000000e+00, 0.00000000e+00, 0.00000000e+00, 0.00000000e+00, 0.00000000e+00, 0.00000000e+00, 0.00000000e+00, 0.00000000e+00, 0.00000000e+00, 0.00000000e+00, 0.00000000e+00, 0.00000000e+00, -1.15762543e+00, 1.27185880e+00, -5.74409490e-01, 4.25658653e+00, 0.00000000e+00, 5.0000000000, 5.0000000000, 0.0298857833
          25, 0.00000000e+00, 0.00000000e+00, 0.00000000e+00, 0.00000000e+00, 0.00000000e+00, 0.00000000e+00, 0.00000000e+00, 0.00000000e+00, 0.00000000e+00, 0.00000000e+00, 0.00000000e+00, 0.00000000e+00, -1.16233137e+00, 1.26703791e+00, -5.81132968e-01, 4.25181205e+00, 0.00000000e+00, 5.0000000000, 5.0000000000, 0.0310145167
          26, 0.00000000e+00, 0.00000000e+00, 0.00000000e+00, 0.00000000e+00, 0.00000000e+00, 0.00000000e+00, 0.00000000e+00, 0.00000000e+00, 0.00000000e+00, 0.00000000e+00, 0.00000000e+00, 0.00000000e+00, -1.16690816e+00, 1.26238668e+00, -5.87914141e-01, 4.24716811e+00, 0.00000000e+00, 5.0000000000, 5.0000000000, 0.0321673167
          27, 0.00000000e+00, 0.00000000e+00, 0.00000000e+00, 0.00000000e+00, 0.00000000e+00, 0.00000000e+00, 0.00000000e+00, 0.00000000e+00, 0.00000000e+00, 0.00000000e+00, 0.00000000e+00, 0.00000000e+00, -1.17136531e+00, 1.25789514e+00, -5.94845255e-01, 4.24264590e+00, 0.00000000e+00, 5.0000000000, 5.0000000000, 0.0332960167
          28, 0.00000000e+00, 0.00000000e+00, 0.00000000e+00, 0.00000000e+00, 0.00000000e+00, 0.00000000e+00, 0.00000000e+00, 0.00000000e+00, 0.00000000e+00, 0.00000000e+00, 0.00000000e+00, 0.00000000e+00, -1.17571007e+00, 1.25355122e+00, -6.02032874e-01, 4.23823920e+00, 0.00000000e+00, 5.0000000000, 5.0000000000, 0.0343377833
          29, 0.00000000e+00, 0.00000000e+00, 0.00000000e+00, 0.00000000e+00, 0.00000000e+00, 0.00000000e+00, 0.00000000e+00, 0.00000000e+00, 0.00000000e+00, 0.00000000e+00, 0.00000000e+00, 0.00000000e+00, -1.17994744e+00, 1.24934194e+00, -6.09570376e-01, 4.23394421e+00, 0.00000000e+00, 5.0000000000, 5.0000000000, 0.0353792167
          30, 0.00000000e+00, 0.00000000e+00, 0.00000000e+00, 0.00000000e+00, 0.00000000e+00, 0.00000000e+00, 0.00000000e+00, 0.00000000e+00, 0.00000000e+00, 0.00000000e+00, 0.00000000e+00, 0.00000000e+00, -1.18408111e+00, 1.24525421e+00, -6.17503890e-01, 4.22975795e+00, 0.00000000e+00, 5.0000000000, 5.0000000000, 0.0364887833
          31, 0.00000000e+00, 0.00000000e+00, 0.00000000e+00, 0.00000000e+00, 0.00000000e+00, 0.00000000e+00, 0.00000000e+00, 0.00000000e+00, 0.00000000e+00, 0.00000000e+00, 0.00000000e+00, 0.00000000e+00, -1.18811403e+00, 1.24127698e+00, -6.25803757e-01, 4.22567779e+00, 0.00000000e+00, 5.0000000000, 5.0000000000, 0.0375738000
          32, 0.00000000e+00, 0.00000000e+00, 0.00000000e+00, 0.00000000e+00, 0.00000000e+00, 0.00000000e+00, 0.00000000e+00, 0.00000000e+00, 0.00000000e+00, 0.00000000e+00, 0.00000000e+00, 0.00000000e+00, -1.19204941e+00, 1.23740320e+00, -6.34331407e-01, 4.22170015e+00, 0.00000000e+00, 5.0000000000, 5.0000000000, 0.0386171167
          33, 0.00000000e+00, 0.00000000e+00, 0.00000000e+00, 0.00000000e+00, 0.00000000e+00, 0.00000000e+00, 0.00000000e+00, 0.00000000e+00, 0.00000000e+00, 0.00000000e+00, 0.00000000e+00, 0.00000000e+00, -1.19589169e+00, 1.23363177e+00, -6.42819391e-01, 4.21781925e+00, 0.00000000e+00, 5.0000000000, 5.0000000000, 0.0398150500
          34, 0.00000000e+00, 0.00000000e+00, 0.00000000e+00, 0.00000000e+00, 0.00000000e+00, 0.00000000e+00, 0.00000000e+00, 0.00000000e+00, 0.00000000e+00, 0.00000000e+00, 0.00000000e+00, 0.00000000e+00, -1.19964729e+00, 1.22997076e+00, -6.50891050e-01, 4.21402627e+00, 0.00000000e+00, 5.0000000000, 5.0000000000, 0.0409288000
          35, 0.00000000e+00, 0.00000000e+00, 0.00000000e+00, 0.00000000e+00, 0.00000000e+00, 0.00000000e+00, 0.00000000e+00, 0.00000000e+00, 0.00000000e+00, 0.00000000e+00, 0.00000000e+00, 0.00000000e+00, -1.20332578e+00, 1.22644081e+00, -6.58102324e-01, 4.21030777e+00, 0.00000000e+00, 5.0000000000, 5.0000000000, 0.0420178000
          36, 0.00000000e+00, 0.00000000e+00, 0.00000000e+00, 0.00000000e+00, 0.00000000e+00, 0.00000000e+00, 0.00000000e+00, 0.00000000e+00, 0.00000000e+00, 0.00000000e+00, 0.00000000e+00, 0.00000000e+00, -1.20694122e+00, 1.22307969e+00, -6.64026102e-01, 4.20664373e+00, 0.00000000e+00, 5.0000000000, 5.0000000000, 0.0431917333
          37, 0.00000000e+00, 0.00000000e+00, 0.00000000e+00, 0.00000000e+00, 0.00000000e+00, 0.00000000e+00, 0.00000000e+00, 0.00000000e+00, 0.00000000e+00, 0.00000000e+00, 0.00000000e+00, 0.00000000e+00, -1.21051387e+00, 1.21994807e+00, -6.68356593e-01, 4.20300536e+00, 0.00000000e+00, 5.0000000000, 5.0000000000, 0.0443642500
          38, 0.00000000e+00, 0.00000000e+00, 0.00000000e+00, 0.00000000e+00, 0.00000000e+00, 0.00000000e+00, 0.00000000e+00, 0.00000000e+00, 0.00000000e+00, 0.00000000e+00, 0.00000000e+00, 0.00000000e+00, -1.21407245e+00, 1.21713543e+00, -6.70993227e-01, 4.19935198e+00, 0.00000000e+00, 5.0000000000, 5.0000000000, 0.0455247833
          39, 0.00000000e+00, 0.00000000e+00, 0.00000000e+00, 0.00000000e+00, 0.00000000e+00, 0.00000000e+00, 0.00000000e+00, 0.00000000e+00, 0.00000000e+00, 0.00000000e+00, 0.00000000e+00, 0.00000000e+00, -1.21765666e+00, 1.21476547e+00, -6.72084003e-01, 4.19562789e+00, 0.00000000e+00, 5.0000000000, 5.0000000000, 0.0467159167
          40, 0.00000000e+00, 0.00000000e+00, 0.00000000e+00, 0.00000000e+00, 0.00000000e+00, 0.00000000e+00, 0.00000000e+00, 0.00000000e+00, 0.00000000e+00, 0.00000000e+00, 0.00000000e+00, 0.00000000e+00, -1.22131966e+00, 1.21299890e+00, -6.71996457e-01, 4.19175940e+00, 0.00000000e+00, 5.0000000000, 5.0000000000, 0.0478904000
          41, 0.00000000e+00, 0.00000000e+00, 0.00000000e+00, 0.00000000e+00, 0.00000000e+00, 0.00000000e+00, 0.00000000e+00, 0.00000000e+00, 0.00000000e+00, 0.00000000e+00, 0.00000000e+00, 0.00000000e+00, -1.22513043e+00, 1.21203100e+00, -6.71232600e-01, 4.18765244e+00, 0.00000000e+00, 5.0000000000, 5.0000000000, 0.0490369667
          42, 0.00000000e+00, 0.00000000e+00, 0.00000000e+00, 0.00000000e+00, 0.00000000e+00, 0.00000000e+00, 0.00000000e+00, 0.00000000e+00, 0.00000000e+00, 0.00000000e+00, 0.00000000e+00, 0.00000000e+00, -1.22917523e+00, 1.21208168e+00, -6.70319684e-01, 4.18319154e+00, 0.00000000e+00, 5.0000000000, 5.0000000000, 0.0502064333
          43, 0.00000000e+00, 0.00000000e+00, 0.00000000e+00, 0.00000000e+00, 0.00000000e+00, 0.00000000e+00, 0.00000000e+00, 0.00000000e+00, 0.00000000e+00, 0.00000000e+00, 0.00000000e+00, 0.00000000e+00, -1.23355796e+00, 1.21337604e+00, -6.69706781e-01, 4.17824044e+00, 0.00000000e+00, 5.0000000000, 5.0000000000, 0.0513819833
          44, 0.00000000e+00, 0.00000000e+00, 0.00000000e+00, 0.00000000e+00, 0.00000000e+00, 0.00000000e+00, 0.00000000e+00, 0.00000000e+00, 0.00000000e+00, 0.00000000e+00, 0.00000000e+00, 0.00000000e+00, -1.23839951e+00, 1.21611613e+00, -6.69683003e-01, 4.17264434e+00, 0.00000000e+00, 5.0000000000, 5.0000000000, 0.0525054667
          45, 0.00000000e+00, 0.00000000e+00, 0.00000000e+00, 0.00000000e+00, 0.00000000e+00, 0.00000000e+00, 0.00000000e+00, 0.00000000e+00, 0.00000000e+00, 0.00000000e+00, 0.00000000e+00, 0.00000000e+00, -1.24383563e+00, 1.22044771e+00, -6.70333013e-01, 4.16623373e+00, 0.00000000e+00, 5.0000000000, 5.0000000000, 0.0536918000
          46, 0.00000000e+00, 0.00000000e+00, 0.00000000e+00, 0.00000000e+00, 0.00000000e+00, 0.00000000e+00, 0.00000000e+00, 0.00000000e+00, 0.00000000e+00, 0.00000000e+00, 0.00000000e+00, 0.00000000e+00, -1.25001380e+00, 1.22642870e+00, -6.71521536e-01, 4.15882929e+00, 0.00000000e+00, 5.0000000000, 5.0000000000, 0.0548298500
          47, 0.00000000e+00, 0.00000000e+00, 0.00000000e+00, 0.00000000e+00, 0.00000000e+00, 0.00000000e+00, 0.00000000e+00, 0.00000000e+00, 0.00000000e+00, 0.00000000e+00, 0.00000000e+00, 0.00000000e+00, -1.25708850e+00, 1.23400775e+00, -6.72916697e-01, 4.15024841e+00, 0.00000000e+00, 5.0000000000, 5.0000000000, 0.0559716167
          48, 0.00000000e+00, 0.00000000e+00, 0.00000000e+00, 0.00000000e+00, 0.00000000e+00, 0.00000000e+00, 0.00000000e+00, 0.00000000e+00, 0.00000000e+00, 0.00000000e+00, 0.00000000e+00, 0.00000000e+00, -1.26521573e+00, 1.24301934e+00, -6.74048634e-01, 4.14031143e+00, 0.00000000e+00, 5.0000000000, 5.0000000000, 0.0571434833
          49, 0.00000000e+00, 0.00000000e+00, 0.00000000e+00, 0.00000000e+00, 0.00000000e+00, 0.00000000e+00, 0.00000000e+00, 0.00000000e+00, 0.00000000e+00, 0.00000000e+00, 0.00000000e+00, 0.00000000e+00, -1.27454570e+00, 1.25319762e+00, -6.74393884e-01, 4.12884962e+00, 0.00000000e+00, 5.0000000000, 5.0000000000, 0.0582471333
          50, 0.00000000e+00, 0.00000000e+00, 0.00000000e+00, 0.00000000e+00, 0.00000000e+00, 0.00000000e+00, 0.00000000e+00, 0.00000000e+00, 0.00000000e+00, 0.00000000e+00, 0.00000000e+00, 0.00000000e+00, -1.28521363e+00, 1.26420539e+00, -6.73470371e-01, 4.11571475e+00, 0.00000000e+00, 5.0000000000, 5.0000000000, 0.0593270833
          51, 0.00000000e+00, 0.00000000e+00, 0.00000000e+00, 0.00000000e+00, 0.00000000e+00, 0.00000000e+00, 0.00000000e+00, 0.00000000e+00, 0.00000000e+00, 0.00000000e+00, 0.00000000e+00, 0.00000000e+00, -1.29732811e+00, 1.27567048e+00, -6.70929356e-01, 4.10079136e+00, 0.00000000e+00, 5.0000000000, 5.0000000000, 0.0604407000
          52, 0.00000000e+00, 0.00000000e+00, 0.00000000e+00, 0.00000000e+00, 0.00000000e+00, 0.00000000e+00, 0.00000000e+00, 0.00000000e+00, 0.00000000e+00, 0.00000000e+00, 0.00000000e+00, 0.00000000e+00, -1.31095702e+00, 1.28722135e+00, -6.66622553e-01, 4.08401308e+00, 0.00000000e+00, 5.0000000000, 5.0000000000, 0.0616849000
          53, 0.00000000e+00, 0.00000000e+00, 0.00000000e+00, 0.00000000e+00, 0.00000000e+00, 0.00000000e+00, 0.00000000e+00, 0.00000000e+00, 0.00000000e+00, 0.00000000e+00, 0.00000000e+00, 0.00000000e+00, -1.32611037e+00, 1.29851549e+00, -6.60629031e-01, 4.06538460e+00, 0.00000000e+00, 5.0000000000, 5.0000000000, 0.0628850000
          54, 0.00000000e+00, 0.00000000e+00, 0.00000000e+00, 0.00000000e+00, 0.00000000e+00, 0.00000000e+00, 0.00000000e+00, 0.00000000e+00, 0.00000000e+00, 0.00000000e+00, 0.00000000e+00, 0.00000000e+00, -1.34271988e+00, 1.30925782e+00, -6.53240354e-01, 4.04501126e+00, 0.00000000e+00, 5.0000000000, 5.0000000000, 0.0642259167
          55, 0.00000000e+00, 0.00000000e+00, 0.00000000e+00, 0.00000000e+00, 0.00000000e+00, 0.00000000e+00, 0.00000000e+00, 0.00000000e+00, 0.00000000e+00, 0.00000000e+00, 0.00000000e+00, 0.00000000e+00, -1.36061522e+00, 1.31920906e+00, -6.44911754e-01, 4.02313804e+00, 0.00000000e+00, 5.0000000000, 5.0000000000, 0.0654110667
          56, 0.00000000e+00, 0.00000000e+00, 0.00000000e+00, 0.00000000e+00, 0.00000000e+00, 0.00000000e+00, 0.00000000e+00, 0.00000000e+00, 0.00000000e+00, 0.00000000e+00, 0.00000000e+00, 0.00000000e+00, -1.37949705e+00, 1.32818626e+00, -6.36197515e-01, 4.00019889e+00, 0.00000000e+00, 5.0000000000, 5.0000000000, 0.0666043667
          57, 0.00000000e+00, 0.00000000e+00, 0.00000000e+00, 0.00000000e+00, 0.00000000e+00, 0.00000000e+00, 0.00000000e+00, 0.00000000e+00, 0.00000000e+00, 0.00000000e+00, 0.00000000e+00, 0.00000000e+00, -1.39890841e+00, 1.33605794e+00, -6.27689337e-01, 3.97687384e+00, 0.00000000e+00, 5.0000000000, 5.0000000000, 0.0677607167
          58, 0.00000000e+00, 0.00000000e+00, 0.00000000e+00, 0.00000000e+00, 0.00000000e+00, 0.00000000e+00, 0.00000000e+00, 0.00000000e+00, 0.00000000e+00, 0.00000000e+00, 0.00000000e+00, 0.00000000e+00, -1.41820995e+00, 1.34273659e+00, -6.19965109e-01, 3.95414181e+00, 0.00000000e+00, 5.0000000000, 5.0000000000, 0.0688789167
          59, 0.00000000e+00, 0.00000000e+00, 0.00000000e+00, 0.00000000e+00, 0.00000000e+00, 0.00000000e+00, 0.00000000e+00, 0.00000000e+00, 0.00000000e+00, 0.00000000e+00, 0.00000000e+00, 0.00000000e+00, -1.43656943e+00, 1.34816999e+00, -6.13555724e-01, 3.93330140e+00, 0.00000000e+00, 5.0000000000, 5.0000000000, 0.0700129500
          60, 0.00000000e+00, 0.00000000e+00, 0.00000000e+00, 0.00000000e+00, 0.00000000e+00, 0.00000000e+00, 0.00000000e+00, 0.00000000e+00, 0.00000000e+00, 0.00000000e+00, 0.00000000e+00, 0.00000000e+00, -1.45298187e+00, 1.35233276e+00, -6.08928235e-01, 3.91591518e+00, 0.00000000e+00, 5.0000000000, 5.0000000000, 0.0711436333
          61, 0.00000000e+00, 0.00000000e+00, 0.00000000e+00, 0.00000000e+00, 0.00000000e+00, 0.00000000e+00, 0.00000000e+00, 0.00000000e+00, 0.00000000e+00, 0.00000000e+00, 0.00000000e+00, 0.00000000e+00, -1.46634103e+00, 1.35521862e+00, -6.06478574e-01, 3.90362666e+00, 0.00000000e+00, 5.0000000000, 5.0000000000, 0.0722744500
          62, 0.00000000e+00, 0.00000000e+00, 0.00000000e+00, 0.00000000e+00, 0.00000000e+00, 0.00000000e+00, 0.00000000e+00, 0.00000000e+00, 0.00000000e+00, 0.00000000e+00, 0.00000000e+00, 0.00000000e+00, -1.47557432e+00, 1.35683368e+00, -6.06539030e-01, 3.89784110e+00, 0.00000000e+00, 5.0000000000, 5.0000000000, 0.0734311000
          63, 0.00000000e+00, 0.00000000e+00, 0.00000000e+00, 0.00000000e+00, 0.00000000e+00, 0.00000000e+00, 0.00000000e+00, 0.00000000e+00, 0.00000000e+00, 0.00000000e+00, 0.00000000e+00, 0.00000000e+00, -1.47982624e+00, 1.35719074e+00, -6.09389365e-01, 3.89935876e+00, 0.00000000e+00, 5.0000000000, 5.0000000000, 0.0745714500
          64, 0.00000000e+00, 0.00000000e+00, 0.00000000e+00, 0.00000000e+00, 0.00000000e+00, 0.00000000e+00, 0.00000000e+00, 0.00000000e+00, 0.00000000e+00, 0.00000000e+00, 0.00000000e+00, 0.00000000e+00, -1.47863791e+00, 1.35630469e+00, -6.15270905e-01, 3.90813808e+00, 0.00000000e+00, 5.0000000000, 5.0000000000, 0.0760190000
          65, 0.00000000e+00, 0.00000000e+00, 0.00000000e+00, 0.00000000e+00, 0.00000000e+00, 0.00000000e+00, 0.00000000e+00, 0.00000000e+00, 0.00000000e+00, 0.00000000e+00, 0.00000000e+00, 0.00000000e+00, -1.47205010e+00, 1.35418904e+00, -6.24402026e-01, 3.92332853e+00, 0.00000000e+00, 5.0000000000, 5.0000000000, 0.0772830833
          66, 0.00000000e+00, 0.00000000e+00, 0.00000000e+00, 0.00000000e+00, 0.00000000e+00, 0.00000000e+00, 0.00000000e+00, 0.00000000e+00, 0.00000000e+00, 0.00000000e+00, 0.00000000e+00, 0.00000000e+00, -1.46058096e+00, 1.35085365e+00, -6.36994268e-01, 3.94355093e+00, 0.00000000e+00, 5.0000000000, 5.0000000000, 0.0784663167
          67, 0.00000000e+00, 0.00000000e+00, 0.00000000e+00, 0.00000000e+00, 0.00000000e+00, 0.00000000e+00, 0.00000000e+00, 0.00000000e+00, 0.00000000e+00, 0.00000000e+00, 0.00000000e+00, 0.00000000e+00, -1.44509109e+00, 1.34630369e+00, -6.53268514e-01, 3.96725987e+00, 0.00000000e+00, 5.0000000000, 5.0000000000, 0.0796386833
          68, 0.00000000e+00, 0.00000000e+00, 0.00000000e+00, 0.00000000e+00, 0.00000000e+00, 0.00000000e+00, 0.00000000e+00, 0.00000000e+00, 0.00000000e+00, 0.00000000e+00, 0.00000000e+00, 0.00000000e+00, -1.42659981e+00, 1.34053990e+00, -6.73463021e-01, 3.99302681e+00, 0.00000000e+00, 5.0000000000, 5.0000000000, 0.0807929000
          69, 0.00000000e+00, 0.00000000e+00, 0.00000000e+00, 0.00000000e+00, 0.00000000e+00, 0.00000000e+00, 0.00000000e+00, 0.00000000e+00, 0.00000000e+00, 0.00000000e+00, 0.00000000e+00, 0.00000000e+00, -1.40612098e+00, 1.33356024e+00, -6.97844839e-01, 4.01968380e+00, 0.00000000e+00, 5.0000000000, 5.0000000000, 0.0819550167
          70, 0.00000000e+00, 0.00000000e+00, 0.00000000e+00, 0.00000000e+00, 0.00000000e+00, 0.00000000e+00, 0.00000000e+00, 0.00000000e+00, 0.00000000e+00, 0.00000000e+00, 0.00000000e+00, 0.00000000e+00, -1.38455630e+00, 1.32536276e+00, -7.26701891e-01, 4.04635232e+00, 0.00000000e+00, 5.0000000000, 5.0000000000, 0.0830728000
          71, 0.00000000e+00, 0.00000000e+00, 0.00000000e+00, 0.00000000e+00, 0.00000000e+00, 0.00000000e+00, 0.00000000e+00, 0.00000000e+00, 0.00000000e+00, 0.00000000e+00, 0.00000000e+00, 0.00000000e+00, -1.36264680e+00, 1.31594937e+00, -7.60318672e-01, 4.07241061e+00, 0.00000000e+00, 5.0000000000, 5.0000000000, 0.0842163833
          72, 0.00000000e+00, 0.00000000e+00, 0.00000000e+00, 0.00000000e+00, 0.00000000e+00, 0.00000000e+00, 0.00000000e+00, 0.00000000e+00, 0.00000000e+00, 0.00000000e+00, 0.00000000e+00, 0.00000000e+00, -1.34096691e+00, 1.30533048e+00, -7.98893080e-01, 4.09743950e+00, 0.00000000e+00, 5.0000000000, 5.0000000000, 0.0855117167
          73, 0.00000000e+00, 0.00000000e+00, 0.00000000e+00, 0.00000000e+00, 0.00000000e+00, 0.00000000e+00, 0.00000000e+00, 0.00000000e+00, 0.00000000e+00, 0.00000000e+00, 0.00000000e+00, 0.00000000e+00, -1.31994020e+00, 1.29352952e+00, -8.42361052e-01, 4.12117086e+00, 0.00000000e+00, 5.0000000000, 5.0000000000, 0.0867814833
          74, 0.00000000e+00, 0.00000000e+00, 0.00000000e+00, 0.00000000e+00, 0.00000000e+00, 0.00000000e+00, 0.00000000e+00, 0.00000000e+00, 0.00000000e+00, 0.00000000e+00, 0.00000000e+00, 0.00000000e+00, -1.29986331e+00, 1.28058737e+00, -8.90010837e-01, 4.14344600e+00, 0.00000000e+00, 5.0000000000, 5.0000000000, 0.0879811833
          75, 0.00000000e+00, 0.00000000e+00, 0.00000000e+00, 0.00000000e+00, 0.00000000e+00, 0.00000000e+00, 0.00000000e+00, 0.00000000e+00, 0.00000000e+00, 0.00000000e+00, 0.00000000e+00, 0.00000000e+00, -1.28092939e+00, 1.26656555e+00, -9.39745220e-01, 4.16418588e+00, 0.00000000e+00, 5.0000000000, 5.0000000000, 0.0891714333
          76, 0.00000000e+00, 0.00000000e+00, 0.00000000e+00, 0.00000000e+00, 0.00000000e+00, 0.00000000e+00, 0.00000000e+00, 0.00000000e+00, 0.00000000e+00, 0.00000000e+00, 0.00000000e+00, 0.00000000e+00, -1.26324859e+00, 1.25154779e+00, -9.86907997e-01, 4.18337035e+00, 0.00000000e+00, 5.0000000000, 5.0000000000, 0.0903041833
          77, 0.00000000e+00, 0.00000000e+00, 0.00000000e+00, 0.00000000e+00, 0.00000000e+00, 0.00000000e+00, 0.00000000e+00, 0.00000000e+00, 0.00000000e+00, 0.00000000e+00, 0.00000000e+00, 0.00000000e+00, -1.24686450e+00, 1.23563923e+00, -1.02334244e+00, 4.20102415e+00, 0.00000000e+00, 5.0000000000, 5.0000000000, 0.0913775500
          78, 0.00000000e+00, 0.00000000e+00, 0.00000000e+00, 0.00000000e+00, 0.00000000e+00, 0.00000000e+00, 0.00000000e+00, 0.00000000e+00, 0.00000000e+00, 0.00000000e+00, 0.00000000e+00, 0.00000000e+00, -1.23176751e+00, 1.21896238e+00, -1.03906901e+00, 4.21720709e+00, 0.00000000e+00, 5.0000000000, 5.0000000000, 0.0925587833
          79, 0.00000000e+00, 0.00000000e+00, 0.00000000e+00, 0.00000000e+00, 0.00000000e+00, 0.00000000e+00, 0.00000000e+00, 0.00000000e+00, 0.00000000e+00, 0.00000000e+00, 0.00000000e+00, 0.00000000e+00, -1.21790620e+00, 1.20164987e+00, -1.02848085e+00, 4.23200627e+00, 0.00000000e+00, 5.0000000000, 5.0000000000, 0.0937293667
          80, 0.00000000e+00, 0.00000000e+00, 0.00000000e+00, 0.00000000e+00, 0.00000000e+00, 0.00000000e+00, 0.00000000e+00, 0.00000000e+00, 0.00000000e+00, 0.00000000e+00, 0.00000000e+00, 0.00000000e+00, -1.20519758e+00, 1.18383333e+00, -9.95429520e-01, 4.24552937e+00, 0.00000000e+00, 5.0000000000, 5.0000000000, 0.0949306000
          81, 0.00000000e+00, 0.00000000e+00, 0.00000000e+00, 0.00000000e+00, 0.00000000e+00, 0.00000000e+00, 0.00000000e+00, 0.00000000e+00, 0.00000000e+00, 0.00000000e+00, 0.00000000e+00, 0.00000000e+00, -1.19353715e+00, 1.16562918e+00, -9.49748451e-01, 4.25789773e+00, 0.00000000e+00, 5.0000000000, 5.0000000000, 0.0960829667
          82, 0.00000000e+00, 0.00000000e+00, 0.00000000e+00, 0.00000000e+00, 0.00000000e+00, 0.00000000e+00, 0.00000000e+00, 0.00000000e+00, 0.00000000e+00, 0.00000000e+00, 0.00000000e+00, 0.00000000e+00, -1.18280912e+00, 1.14712235e+00, -9.00481493e-01, 4.26923887e+00, 0.00000000e+00, 5.0000000000, 5.0000000000, 0.0972650167
          83, 0.00000000e+00, 0.00000000e+00, 0.00000000e+00, 0.00000000e+00, 0.00000000e+00, 0.00000000e+00, 0.00000000e+00, 0.00000000e+00, 0.00000000e+00, 0.00000000e+00, 0.00000000e+00, 0.00000000e+00, -1.17289683e+00, 1.12834907e+00, -8.53199785e-01, 4.27967840e+00, 0.00000000e+00, 5.0000000000, 5.0000000000, 0.0986247333
          84, 0.00000000e+00, 0.00000000e+00, 0.00000000e+00, 0.00000000e+00, 0.00000000e+00, 0.00000000e+00, 0.00000000e+00, 0.00000000e+00, 0.00000000e+00, 0.00000000e+00, 0.00000000e+00, 0.00000000e+00, -1.16369307e+00, 1.10928159e+00, -8.10628884e-01, 4.28933159e+00, 0.00000000e+00, 5.0000000000, 5.0000000000, 0.0998237333
          85, 0.00000000e+00, 0.00000000e+00, 0.00000000e+00, 0.00000000e+00, 0.00000000e+00, 0.00000000e+00, 0.00000000e+00, 0.00000000e+00, 0.00000000e+00, 0.00000000e+00, 0.00000000e+00, 0.00000000e+00, -1.15510932e+00, 1.08981595e+00, -7.73876372e-01, 4.29829538e+00, 0.00000000e+00, 5.0000000000, 5.0000000000, 0.1009074167
          86, 0.00000000e+00, 0.00000000e+00, 0.00000000e+00, 0.00000000e+00, 0.00000000e+00, 0.00000000e+00, 0.00000000e+00, 0.00000000e+00, 0.00000000e+00, 0.00000000e+00, 0.00000000e+00, 0.00000000e+00, -1.14708319e+00, 1.06976521e+00, -7.43270895e-01, 4.30664163e+00, 0.00000000e+00, 5.0000000000, 5.0000000000, 0.1019949000
          87, 0.00000000e+00, 0.00000000e+00, 0.00000000e+00, 0.00000000e+00, 0.00000000e+00, 0.00000000e+00, 0.00000000e+00, 0.00000000e+00, 0.00000000e+00, 0.00000000e+00, 0.00000000e+00, 0.00000000e+00, -1.13958265e+00, 1.04885889e+00, -7.18808061e-01, 4.31441283e+00, 0.00000000e+00, 5.0000000000, 5.0000000000, 0.1031349333
          88, 0.00000000e+00, 0.00000000e+00, 0.00000000e+00, 0.00000000e+00, 0.00000000e+00, 0.00000000e+00, 0.00000000e+00, 0.00000000e+00, 0.00000000e+00, 0.00000000e+00, 0.00000000e+00, 0.00000000e+00, -1.13260672e+00, 1.02674806e+00, -7.00364805e-01, 4.32162086e+00, 0.00000000e+00, 5.0000000000, 5.0000000000, 0.1043051000
          89, 0.00000000e+00, 0.00000000e+00, 0.00000000e+00, 0.00000000e+00, 0.00000000e+00, 0.00000000e+00, 0.00000000e+00, 0.00000000e+00, 0.00000000e+00, 0.00000000e+00, 0.00000000e+00, 0.00000000e+00, -1.12618221e+00, 1.00301605e+00, -6.87788881e-01, 4.32824926e+00, 0.00000000e+00, 5.0000000000, 5.0000000000, 0.1055180667