/*--------------------------------*- C++ -*----------------------------------*\
  =========                 |
  \\      /  F ield         | OpenFOAM: The Open Source CFD Toolbox
   \\    /   O peration     | Website:  https://openfoam.org
    \\  /    A nd           | Version:  6
     \\/     M anipulation  |
\*---------------------------------------------------------------------------*/
FoamFile
{
    version     2.0;
    format      ascii;
    class       volScalarField;
    location    "192";
    object      p;
}
// * * * * * * * * * * * * * * * * * * * * * * * * * * * * * * * * * * * * * //

dimensions      [0 2 -2 0 0 0 0];

internalField   nonuniform List<scalar> 
4000
(
-429343
-429343
-429343
-429343
-429343
-429343
-429343
-429343
-429343
-429343
-429343
-429343
-429343
-429343
-429343
-429343
-429343
-429343
-429343
-429343
-429343
-429343
-429343
-429343
-429343
-429343
-429343
-429343
-429343
-429343
-429343
-429343
-429343
-429343
-429343
-429343
-429342
-429353
-429203
-431285
-402259
-329720
-264997
-219014
-183041
-152622
-127145
-106041
-88462.3
-73724.3
-61324.9
-50861.6
-42003.9
-34483.2
-28081.7
-22621.1
-17954.9
-13962.4
-10544
-7616.54
-5111.05
-2969.65
-1143.75
407.617
1719.12
2820.19
3735.91
4487.73
5094.06
5570.72
5931.4
6187.92
6350.56
6428.27
6428.84
6359.1
6225.03
6031.87
5784.23
5486.16
5141.24
4752.6
4323.03
3854.93
3350.59
2811.3
2241.04
1632.45
1020.04
279.06
-112.312
-19.7639
11.7678
1.21411
-1.14703
-0.0154249
0.141288
0.0252153
0.0168482
0.0279382
0.0277392
0.0263584
0.0261098
0.0259018
0.0255747
0.0252342
0.0248867
0.0245196
0.0241347
0.0237344
0.0233217
0.0228976
0.0224633
0.0220177
0.02156
0.0210884
0.0206036
0.0201075
0.0196066
0.0191104
0.018633
0.0181901
0.0177999
0.0174772
0.0172351
0.0170768
0.0169995
0.0169852
0.0170079
0.0170258
0.016992
0.0168511
0.0165518
0.0160504
0.01532
0.01436
0.0131968
0.0118921
0.0105326
0.00922985
0.00810106
0.00725852
0.00679072
0.00674602
0.00712689
0.00787732
0.00889761
0.0100431
0.0111553
0.0120712
0.0126559
0.0128137
0.0125044
0.0117474
0.0106139
0.00922027
0.00770286
0.00620736
0.00486121
0.0037677
0.00299035
0.00255552
0.00245282
0.00264294
0.00306855
0.00366064
0.0043515
0.00507532
0.00577799
0.00641285
0.00694643
0.00735315
0.00761803
0.00773349
0.00769952
0.00752346
0.00721746
0.00680035
0.00629298
0.00572094
0.00510929
0.00448508
0.00387316
0.00329752
0.00277907
0.00233482
0.00197764
0.0017134
0.00154236
0.00145551
0.00143764
0.00146495
0.00150951
0.00153944
0.00152347
0.00143446
0.00125573
0.00098677
0.000639062
0.000227728
-429343
-429343
-429343
-429343
-429343
-429343
-429343
-429343
-429343
-429343
-429343
-429343
-429343
-429343
-429343
-429343
-429343
-429343
-429343
-429343
-429343
-429343
-429343
-429343
-429343
-429343
-429343
-429343
-429343
-429343
-429343
-429343
-429343
-429343
-429343
-429343
-429342
-429353
-429203
-431285
-402259
-329720
-264997
-219014
-183041
-152622
-127145
-106041
-88462.3
-73724.3
-61324.9
-50861.6
-42003.9
-34483.2
-28081.7
-22621.1
-17954.9
-13962.4
-10544
-7616.54
-5111.05
-2969.65
-1143.75
407.617
1719.12
2820.19
3735.91
4487.73
5094.06
5570.72
5931.4
6187.92
6350.56
6428.27
6428.84
6359.1
6225.03
6031.87
5784.23
5486.16
5141.24
4752.6
4323.03
3854.93
3350.59
2811.3
2241.04
1632.45
1020.04
279.06
-112.312
-19.7639
11.7678
1.21411
-1.14703
-0.0154321
0.141277
0.025201
0.016831
0.0279193
0.0277203
0.0263412
0.0260963
0.0258936
0.0255733
0.0252404
0.0249012
0.0245427
0.024167
0.0237763
0.0233744
0.0229618
0.0225403
0.0221076
0.0216621
0.0211996
0.0207188
0.0202186
0.019703
0.0191791
0.0186597
0.0181611
0.0177026
0.0173039
0.0169832
0.0167528
0.0166183
0.0165729
0.0165994
0.0166642
0.0167251
0.0167255
0.0166093
0.0163175
0.0158075
0.0150513
0.0140524
0.0128439
0.0114935
0.0100987
0.00877482
0.00764739
0.00682687
0.00640142
0.00641263
0.00685378
0.00766201
0.00872543
0.00989871
0.0110157
0.0119216
0.0124817
0.0126129
0.0122806
0.0115131
0.0103854
0.00901291
0.00753082
0.00607473
0.00476764
0.00370105
0.00293617
0.00249366
0.00236647
0.00251824
0.0028992
0.0034485
0.00410523
0.00481111
0.00551391
0.00616997
0.00674196
0.00720239
0.00752883
0.00770873
0.00773417
0.00760677
0.00733292
0.00692727
0.0064089
0.00580272
0.00513693
0.00444232
0.00375101
0.00309395
0.00250034
0.00199398
0.00159289
0.00130585
0.00113225
0.00106069
0.00106957
0.00112909
0.00120266
0.00125201
0.00124025
0.00114015
0.000937802
0.000633656
0.000230867
-429343
-429343
-429343
-429343
-429343
-429343
-429343
-429343
-429343
-429343
-429343
-429343
-429343
-429343
-429343
-429343
-429343
-429343
-429343
-429343
-429343
-429343
-429343
-429343
-429343
-429343
-429343
-429343
-429343
-429343
-429343
-429343
-429343
-429343
-429343
-429343
-429342
-429353
-429203
-431285
-402259
-329720
-264997
-219014
-183041
-152622
-127145
-106041
-88462.3
-73724.3
-61324.9
-50861.6
-42003.9
-34483.2
-28081.7
-22621.1
-17954.9
-13962.4
-10544
-7616.54
-5111.05
-2969.65
-1143.75
407.617
1719.12
2820.19
3735.91
4487.73
5094.06
5570.72
5931.4
6187.92
6350.56
6428.27
6428.84
6359.1
6225.03
6031.87
5784.23
5486.16
5141.24
4752.6
4323.03
3854.93
3350.59
2811.3
2241.04
1632.45
1020.04
279.06
-112.312
-19.7639
11.7678
1.21411
-1.14703
-0.0154367
0.141268
0.0251882
0.0168137
0.0278987
0.0276972
0.0263178
0.0260741
0.025875
0.0255593
0.025233
0.0249007
0.0245504
0.0241831
0.0238024
0.0234112
0.0230118
0.0226046
0.0221886
0.0217599
0.0213141
0.0208463
0.0203536
0.0198356
0.0192973
0.0187482
0.0182034
0.0176821
0.0172063
0.0167984
0.0164778
0.0162589
0.0161462
0.0161334
0.016199
0.0163079
0.0164106
0.0164478
0.0163563
0.0160756
0.0155598
0.0147831
0.013752
0.0125053
0.0111188
0.00969563
0.00835915
0.00723614
0.00643945
0.00605263
0.00611211
0.00660352
0.00745496
0.00854993
0.00973658
0.0108519
0.011741
0.0122791
0.0123882
0.0120433
0.011277
0.0101669
0.00882746
0.00738726
0.00597631
0.00470713
0.00366637
0.00290827
0.0024542
0.0022978
0.00240922
0.00274532
0.00325323
0.00387947
0.00457027
0.00527715
0.00595529
0.00656621
0.0070766
0.00745941
0.00769442
0.00776806
0.00767541
0.00741864
0.00700942
0.00646611
0.00581557
0.00508964
0.00432549
0.00356191
0.00283775
0.00218856
0.00164345
0.00122287
0.000935382
0.000777547
0.000732453
0.000772141
0.000858833
0.000949336
0.00100016
0.000973669
0.000843781
0.000595426
0.000221397
-429343
-429343
-429343
-429343
-429343
-429343
-429343
-429343
-429343
-429343
-429343
-429343
-429343
-429343
-429343
-429343
-429343
-429343
-429343
-429343
-429343
-429343
-429343
-429343
-429343
-429343
-429343
-429343
-429343
-429343
-429343
-429343
-429343
-429343
-429343
-429343
-429342
-429353
-429203
-431285
-402259
-329720
-264997
-219014
-183041
-152622
-127145
-106041
-88462.3
-73724.3
-61324.9
-50861.6
-42003.9
-34483.2
-28081.7
-22621.1
-17954.9
-13962.4
-10544
-7616.54
-5111.05
-2969.65
-1143.75
407.617
1719.12
2820.19
3735.91
4487.73
5094.06
5570.72
5931.4
6187.92
6350.56
6428.27
6428.84
6359.1
6225.03
6031.87
5784.23
5486.16
5141.24
4752.6
4323.03
3854.93
3350.59
2811.3
2241.04
1632.45
1020.04
279.06
-112.312
-19.7639
11.7678
1.21411
-1.14703
-0.0154381
0.141263
0.0251782
0.0167987
0.0278787
0.0276731
0.0262909
0.0260462
0.025848
0.025535
0.025213
0.0248862
0.0245425
0.0241827
0.0238107
0.02343
0.023043
0.0226511
0.022253
0.0218449
0.0214208
0.0209742
0.0204989
0.0199918
0.0194534
0.01889
0.0183134
0.0177411
0.0171951
0.0167
0.0162807
0.0159587
0.0157497
0.0156587
0.0156783
0.0157847
0.0159389
0.0160867
0.0161633
0.0161007
0.0158348
0.0153181
0.0145258
0.013468
0.0121888
0.0107708
0.00932357
0.00797594
0.00685761
0.0060815
0.005728
0.00582808
0.00636029
0.00724595
0.00836313
0.00955756
0.010667
0.0115408
0.0120605
0.0121555
0.0118072
0.0110522
0.00996879
0.00866838
0.00727379
0.00590726
0.00467368
0.00365352
0.00289764
0.0024275
0.00223998
0.00231119
0.00260511
0.0030763
0.00367728
0.00435854
0.00507312
0.00577529
0.00642334
0.006979
0.00740923
0.00768741
0.00779409
0.00771941
0.00746242
0.00703363
0.00645274
0.00575009
0.00496302
0.0041354
0.00331306
0.00254124
0.00186018
0.00130144
0.000885093
0.000616833
0.000488045
0.000475262
0.000543105
0.000647037
0.00073927
0.000774349
0.000713915
0.000528514
0.000201368
-429343
-429343
-429343
-429343
-429343
-429343
-429343
-429343
-429343
-429343
-429343
-429343
-429343
-429343
-429343
-429343
-429343
-429343
-429343
-429343
-429343
-429343
-429343
-429343
-429343
-429343
-429343
-429343
-429343
-429343
-429343
-429343
-429343
-429343
-429343
-429343
-429342
-429353
-429203
-431285
-402259
-329720
-264997
-219014
-183041
-152622
-127145
-106041
-88462.3
-73724.3
-61324.9
-50861.6
-42003.9
-34483.2
-28081.7
-22621.1
-17954.9
-13962.4
-10544
-7616.54
-5111.05
-2969.65
-1143.75
407.617
1719.12
2820.19
3735.91
4487.73
5094.06
5570.72
5931.4
6187.92
6350.56
6428.27
6428.84
6359.1
6225.03
6031.87
5784.23
5486.16
5141.24
4752.6
4323.03
3854.93
3350.59
2811.3
2241.04
1632.45
1020.04
279.06
-112.312
-19.7639
11.7678
1.21412
-1.14703
-0.0154367
0.141261
0.0251718
0.0167867
0.0278609
0.0276496
0.0262627
0.0260147
0.0258148
0.0255021
0.0251819
0.0248585
0.0245192
0.0241651
0.0238001
0.0234279
0.023052
0.0226742
0.0222939
0.0219073
0.0215082
0.0210882
0.0206394
0.0201547
0.0196312
0.0190703
0.01848
0.017874
0.0172725
0.0166997
0.0161831
0.0157503
0.0154251
0.015225
0.0151555
0.0152085
0.0153575
0.0155599
0.0157559
0.0158757
0.0158459
0.015599
0.0150857
0.0142821
0.0132016
0.0118935
0.0104467
0.00897699
0.00761838
0.00650321
0.00574447
0.00541955
0.00555419
0.00612062
0.00703391
0.00816784
0.00936625
0.0104686
0.0113285
0.011834
0.0119208
0.011576
0.0108389
0.0097875
0.00852937
0.00718107
0.00585759
0.00465669
0.00365397
0.00289782
0.0024109
0.00219371
0.00222842
0.00248563
0.00292636
0.00350818
0.00418443
0.00490881
0.00563365
0.00631362
0.00690517
0.00736964
0.00767459
0.00779588
0.00772023
0.00744547
0.00698301
0.00635574
0.00559907
0.0047566
0.00387881
0.00301743
0.00222207
0.001535
0.000987243
0.00059583
0.000361344
0.000268641
0.000287087
0.000374854
0.000483062
0.000561215
0.000561197
0.000440565
0.000171894
-429343
-429343
-429343
-429343
-429343
-429343
-429343
-429343
-429343
-429343
-429343
-429343
-429343
-429343
-429343
-429343
-429343
-429343
-429343
-429343
-429343
-429343
-429343
-429343
-429343
-429343
-429343
-429343
-429343
-429343
-429343
-429343
-429343
-429343
-429343
-429343
-429342
-429353
-429203
-431285
-402259
-329720
-264997
-219014
-183041
-152622
-127145
-106041
-88462.3
-73724.3
-61324.9
-50861.6
-42003.9
-34483.2
-28081.7
-22621.1
-17954.9
-13962.4
-10544
-7616.54
-5111.05
-2969.65
-1143.75
407.617
1719.12
2820.19
3735.91
4487.73
5094.06
5570.72
5931.4
6187.92
6350.56
6428.27
6428.84
6359.1
6225.03
6031.87
5784.23
5486.16
5141.24
4752.6
4323.03
3854.93
3350.59
2811.3
2241.04
1632.45
1020.04
279.06
-112.312
-19.7639
11.7678
1.21412
-1.14702
-0.015433
0.141262
0.025169
0.0167785
0.0278464
0.0276285
0.0262354
0.025982
0.0257782
0.025463
0.0251422
0.0248195
0.0244823
0.0241314
0.0237709
0.0234049
0.0230374
0.0226713
0.0223068
0.0219409
0.0215673
0.0211772
0.0207606
0.020308
0.0198123
0.0192709
0.018686
0.0180673
0.0174301
0.0167969
0.0161948
0.015654
0.0152052
0.0148752
0.0146835
0.0146363
0.0147248
0.0149197
0.0151742
0.0154231
0.0155905
0.015598
0.0153738
0.0148671
0.0140545
0.0129528
0.0116165
0.0101409
0.00864816
0.00727746
0.00616391
0.00542039
0.00512133
0.00528719
0.00588403
0.006821
0.00796805
0.0091678
0.0102619
0.0111085
0.011602
0.0116844
0.0113476
0.0106329
0.009617
0.00840326
0.00710179
0.00582059
0.00465107
0.00366469
0.00290837
0.00240636
0.00216319
0.00216662
0.00239331
0.00280969
0.00337721
0.004051
0.00478434
0.00552707
0.00622983
0.00684407
0.00732604
0.00763875
0.0077549
0.00765986
0.00735226
0.00684647
0.00617012
0.00536454
0.00447947
0.0035709
0.00269443
0.00190133
0.001233
0.000717236
0.000365854
0.000172962
0.000116473
0.000159725
0.000256672
0.000355019
0.000400104
0.000337849
0.000135901
-429343
-429343
-429343
-429343
-429343
-429343
-429343
-429343
-429343
-429343
-429343
-429343
-429343
-429343
-429343
-429343
-429343
-429343
-429343
-429343
-429343
-429343
-429343
-429343
-429343
-429343
-429343
-429343
-429343
-429343
-429343
-429343
-429343
-429343
-429343
-429343
-429342
-429353
-429203
-431285
-402259
-329720
-264997
-219014
-183041
-152622
-127145
-106041
-88462.3
-73724.3
-61324.9
-50861.6
-42003.9
-34483.2
-28081.7
-22621.1
-17954.9
-13962.4
-10544
-7616.54
-5111.05
-2969.65
-1143.75
407.617
1719.12
2820.19
3735.91
4487.73
5094.06
5570.72
5931.4
6187.92
6350.56
6428.27
6428.84
6359.1
6225.03
6031.87
5784.23
5486.16
5141.24
4752.6
4323.03
3854.93
3350.59
2811.3
2241.04
1632.45
1020.04
279.06
-112.312
-19.7639
11.7678
1.21413
-1.14702
-0.0154277
0.141266
0.0251695
0.0167744
0.0278363
0.0276115
0.0262111
0.0259507
0.025741
0.0254211
0.025097
0.0247725
0.0244348
0.0240845
0.0237256
0.0233626
0.0230003
0.0226424
0.0222903
0.021942
0.021592
0.0212316
0.02085
0.0204356
0.0199783
0.0194707
0.0189104
0.0183006
0.0176519
0.0169815
0.0163141
0.0156797
0.015112
0.0146452
0.0143093
0.0141263
0.0141031
0.0142301
0.014475
0.0147863
0.0150926
0.0153121
0.0153604
0.0151616
0.0146628
0.0138415
0.012718
0.0113522
0.00984654
0.00832972
0.00694613
0.00583369
0.00510487
0.0048308
0.0050264
0.00565134
0.00660914
0.00776619
0.00896457
0.0100485
0.0108814
0.011364
0.0114443
0.0111185
0.0104292
0.00945122
0.00828332
0.0070293
0.00579043
0.00465246
0.00368339
0.00292922
0.00241613
0.00215243
0.00213104
0.0023337
0.00273119
0.00328761
0.00395889
0.00469707
0.00544909
0.00616166
0.00678182
0.00726189
0.007562
0.00765373
0.00752326
0.00717216
0.00661933
0.00589809
0.00505555
0.00414658
0.00323058
0.00236441
0.00159809
0.000969481
0.000501008
0.000197982
4.77648e-05
2.2617e-05
8.19152e-05
0.000175524
0.000245411
0.000232386
9.67035e-05
-429343
-429343
-429343
-429343
-429343
-429343
-429343
-429343
-429343
-429343
-429343
-429343
-429343
-429343
-429343
-429343
-429343
-429343
-429343
-429343
-429343
-429343
-429343
-429343
-429343
-429343
-429343
-429343
-429343
-429343
-429343
-429343
-429343
-429343
-429343
-429343
-429342
-429353
-429203
-431285
-402259
-329720
-264997
-219014
-183041
-152622
-127145
-106041
-88462.3
-73724.3
-61324.9
-50861.6
-42003.9
-34483.2
-28081.7
-22621.1
-17954.9
-13962.4
-10544
-7616.54
-5111.05
-2969.65
-1143.75
407.617
1719.12
2820.19
3735.91
4487.73
5094.06
5570.72
5931.4
6187.92
6350.56
6428.27
6428.84
6359.1
6225.03
6031.87
5784.23
5486.16
5141.24
4752.6
4323.03
3854.93
3350.59
2811.3
2241.04
1632.45
1020.04
279.06
-112.312
-19.7639
11.7678
1.21413
-1.14701
-0.0154217
0.141271
0.0251732
0.0167745
0.0278312
0.0275998
0.0261918
0.0259237
0.0257065
0.02538
0.0250504
0.0247216
0.0243808
0.0240282
0.023668
0.0233048
0.0229439
0.0225899
0.0222456
0.0219102
0.0215798
0.0212463
0.020899
0.0205253
0.0201127
0.0196502
0.0191303
0.0185507
0.0179148
0.0172344
0.0165281
0.0158233
0.0151533
0.0145557
0.014069
0.0137268
0.0135538
0.0135577
0.0137276
0.0140277
0.0144012
0.0147702
0.0150458
0.0151373
0.0149645
0.0144726
0.0136401
0.0124916
0.0110934
0.00955534
0.00801347
0.00661744
0.00550756
0.00479527
0.00454758
0.00477313
0.00542491
0.0064008
0.00756414
0.00875725
0.00982781
0.010645
0.0111162
0.0111955
0.0108829
0.0102216
0.00928431
0.00816459
0.0069599
0.00576509
0.00466073
0.00371178
0.00296378
0.00244477
0.00216661
0.00212662
0.00231068
0.00269279
0.00323865
0.00390405
0.00463927
0.00538832
0.00609442
0.00670134
0.00715908
0.00742698
0.00747772
0.00730045
0.00690135
0.0063048
0.00554977
0.00468812
0.00377781
0.00287907
0.00204711
0.0013281
0.000754276
0.000341492
8.84977e-05
-2.26172e-05
-2.35708e-05
4.05917e-05
0.000113651
0.000132189
5.79853e-05
-429343
-429343
-429343
-429343
-429343
-429343
-429343
-429343
-429343
-429343
-429343
-429343
-429343
-429343
-429343
-429343
-429343
-429343
-429343
-429343
-429343
-429343
-429343
-429343
-429343
-429343
-429343
-429343
-429343
-429343
-429343
-429343
-429343
-429343
-429343
-429343
-429342
-429353
-429203
-431285
-402259
-329720
-264997
-219014
-183041
-152622
-127145
-106041
-88462.3
-73724.3
-61324.9
-50861.6
-42003.9
-34483.2
-28081.7
-22621.1
-17954.9
-13962.4
-10544
-7616.54
-5111.05
-2969.65
-1143.75
407.617
1719.12
2820.19
3735.91
4487.73
5094.06
5570.72
5931.4
6187.92
6350.56
6428.27
6428.84
6359.1
6225.03
6031.87
5784.23
5486.16
5141.24
4752.6
4323.03
3854.93
3350.59
2811.3
2241.04
1632.45
1020.04
279.06
-112.312
-19.7639
11.7678
1.21413
-1.14701
-0.0154155
0.141278
0.0251797
0.0167789
0.0278316
0.0275945
0.0261796
0.0259035
0.025678
0.0253436
0.0250067
0.0246716
0.0243252
0.0239679
0.0236035
0.0232368
0.0228734
0.0225188
0.0221768
0.0218486
0.0215316
0.0212196
0.0209025
0.0205678
0.020202
0.0197912
0.019324
0.0187919
0.0181925
0.0175293
0.0168148
0.0160697
0.015324
0.0146151
0.0139852
0.0134777
0.0131299
0.0129693
0.0130041
0.013222
0.0135829
0.0140239
0.0144598
0.014794
0.0149293
0.0147807
0.0142921
0.0134441
0.0122662
0.0108323
0.00926055
0.00769431
0.00628829
0.00518446
0.00449213
0.0042731
0.00452907
0.00520593
0.0061963
0.00736112
0.00854401
0.00959702
0.0103958
0.010855
0.0109341
0.0106368
0.0100064
0.00911269
0.00804393
0.00689126
0.00574333
0.00467591
0.00375133
0.00301472
0.00249588
0.00220963
0.00215683
0.00232644
0.00269456
0.0032275
0.00388028
0.0046012
0.00533173
0.00601262
0.00658597
0.00700155
0.00722016
0.00721779
0.00698829
0.00654347
0.00591323
0.00514117
0.00428193
0.003394
0.00253557
0.00175765
0.00110047
0.000589604
0.000234401
2.85983e-05
-4.95427e-05
-3.65063e-05
1.59145e-05
4.91931e-05
2.38196e-05
-429343
-429343
-429343
-429343
-429343
-429343
-429343
-429343
-429343
-429343
-429343
-429343
-429343
-429343
-429343
-429343
-429343
-429343
-429343
-429343
-429343
-429343
-429343
-429343
-429343
-429343
-429343
-429343
-429343
-429343
-429343
-429343
-429343
-429343
-429343
-429343
-429342
-429353
-429203
-431285
-402259
-329720
-264997
-219014
-183041
-152622
-127145
-106041
-88462.3
-73724.3
-61324.9
-50861.6
-42003.9
-34483.2
-28081.7
-22621.1
-17954.9
-13962.4
-10544
-7616.54
-5111.05
-2969.65
-1143.75
407.617
1719.12
2820.19
3735.91
4487.73
5094.06
5570.72
5931.4
6187.92
6350.56
6428.27
6428.84
6359.1
6225.03
6031.87
5784.23
5486.16
5141.24
4752.6
4323.03
3854.93
3350.59
2811.3
2241.04
1632.45
1020.04
279.06
-112.312
-19.7639
11.7678
1.21413
-1.147
-0.0154095
0.141286
0.0251886
0.0167873
0.0278378
0.0275965
0.0261756
0.0258922
0.0256585
0.0253156
0.0249703
0.0246272
0.0242734
0.0239091
0.023538
0.0231648
0.0227952
0.0224353
0.0220904
0.0217628
0.0214522
0.021154
0.0208603
0.0205595
0.0202379
0.0198805
0.0194725
0.0190012
0.0184573
0.0178374
0.017145
0.0163935
0.0156057
0.0148154
0.0140643
0.0134002
0.0128714
0.0125197
0.0123752
0.0124463
0.0127184
0.0131463
0.0136601
0.0141662
0.0145599
0.0147368
0.014608
0.0141168
0.0132469
0.0120345
0.010562
0.00895645
0.00736861
0.00595748
0.00486535
0.00419793
0.00401056
0.00429709
0.00499627
0.00599595
0.00715582
0.00832201
0.0093522
0.0101294
0.0105754
0.0106557
0.0103765
0.0097807
0.00893466
0.007921
0.00682444
0.0057276
0.00470174
0.0038067
0.00308723
0.0025745
0.00228564
0.00222414
0.00238097
0.00273334
0.00324743
0.00387713
0.00456907
0.00526303
0.00589887
0.00641902
0.0067753
0.00693218
0.00687076
0.00659067
0.00610937
0.00546134
0.00469286
0.00385881
0.00301538
0.00221617
0.00150601
0.000918229
0.000471993
0.000171778
7.38202e-06
-4.76127e-05
-3.5462e-05
-9.79851e-06
-2.72575e-06
-429343
-429343
-429343
-429343
-429343
-429343
-429343
-429343
-429343
-429343
-429343
-429343
-429343
-429343
-429343
-429343
-429343
-429343
-429343
-429343
-429343
-429343
-429343
-429343
-429343
-429343
-429343
-429343
-429343
-429343
-429343
-429343
-429343
-429343
-429343
-429343
-429342
-429353
-429203
-431285
-402259
-329720
-264997
-219014
-183041
-152622
-127145
-106041
-88462.3
-73724.3
-61324.9
-50861.6
-42003.9
-34483.2
-28081.7
-22621.1
-17954.9
-13962.4
-10544
-7616.54
-5111.05
-2969.65
-1143.75
407.617
1719.12
2820.19
3735.91
4487.73
5094.06
5570.72
5931.4
6187.92
6350.56
6428.27
6428.84
6359.1
6225.03
6031.87
5784.23
5486.16
5141.24
4752.6
4323.03
3854.93
3350.59
2811.3
2241.04
1632.45
1020.04
279.06
-112.312
-19.7639
11.7678
1.21413
-1.147
-0.0154041
0.141295
0.0251992
0.0167992
0.0278494
0.0276059
0.0261807
0.0258913
0.0256502
0.0252989
0.0249449
0.024593
0.0242306
0.0238578
0.023478
0.0230958
0.0227168
0.0223478
0.0219944
0.021661
0.0213488
0.0210559
0.0207764
0.0205009
0.0202168
0.019909
0.0195615
0.0191577
0.0186836
0.0181278
0.0174863
0.0167623
0.0159704
0.0151362
0.0142976
0.0135019
0.0128025
0.0122535
0.0119008
0.0117771
0.0118905
0.0122231
0.0127237
0.0133142
0.0138918
0.014343
0.014557
0.0144413
0.0139401
0.0130418
0.0117907
0.0102787
0.0086419
0.00703787
0.00562849
0.00455479
0.00391724
0.00376345
0.00407903
0.00479583
0.00579799
0.00694526
0.00808779
0.00908999
0.00984285
0.0102757
0.0103591
0.0101017
0.00954495
0.00875133
0.00779749
0.00676173
0.00572082
0.00474166
0.00388171
0.0031851
0.00268385
0.00239661
0.00232849
0.00247147
0.00280306
0.00328886
0.00388184
0.00452766
0.00516594
0.00573753
0.00618751
0.00647195
0.00656081
0.00644139
0.0061192
0.00561645
0.00497026
0.00422711
0.0034393
0.0026582
0.00193088
0.00129511
0.000777734
0.000393083
0.000141639
8.65725e-06
-3.75719e-05
-3.76357e-05
-1.83743e-05
-429343
-429343
-429343
-429343
-429343
-429343
-429343
-429343
-429343
-429343
-429343
-429343
-429343
-429343
-429343
-429343
-429343
-429343
-429343
-429343
-429343
-429343
-429343
-429343
-429343
-429343
-429343
-429343
-429343
-429343
-429343
-429343
-429343
-429343
-429343
-429343
-429342
-429353
-429203
-431285
-402259
-329720
-264997
-219014
-183041
-152622
-127145
-106041
-88462.3
-73724.3
-61324.9
-50861.6
-42003.9
-34483.2
-28081.7
-22621.1
-17954.9
-13962.4
-10544
-7616.54
-5111.05
-2969.65
-1143.75
407.617
1719.12
2820.19
3735.91
4487.73
5094.06
5570.72
5931.4
6187.92
6350.56
6428.27
6428.84
6359.1
6225.03
6031.87
5784.23
5486.16
5141.24
4752.6
4323.03
3854.93
3350.59
2811.3
2241.04
1632.45
1020.04
279.06
-112.312
-19.7639
11.7678
1.21413
-1.147
-0.0153992
0.141303
0.025211
0.0168139
0.0278656
0.027622
0.0261948
0.0259013
0.0256543
0.0252957
0.0249335
0.0245729
0.0242013
0.0238191
0.0234294
0.0230365
0.0226459
0.0222643
0.0218981
0.0215527
0.0212315
0.0209345
0.0206589
0.0203978
0.020141
0.0198748
0.0195829
0.0192474
0.0188498
0.0183736
0.0178057
0.0171407
0.016382
0.0155459
0.0146612
0.0137711
0.0129286
0.0121939
0.0116266
0.0112773
0.0111804
0.011343
0.0117428
0.0123213
0.012991
0.0136392
0.0141437
0.0143875
0.0142763
0.0137568
0.012824
0.0115315
0.00998141
0.00831853
0.00670602
0.00530693
0.00425896
0.00365569
0.00353602
0.00387714
0.00460481
0.00560077
0.00672659
0.00783794
0.00880715
0.00953373
0.00995434
0.0100443
0.00981352
0.0093016
0.00856629
0.00767801
0.00670856
0.00572894
0.0048018
0.00398211
0.00331307
0.00282694
0.00254304
0.00246718
0.00259158
0.00289355
0.00333818
0.00387816
0.00445955
0.00502366
0.00551457
0.00588218
0.0060886
0.00611042
0.00594124
0.00559153
0.00508638
0.00446303
0.00376534
0.00304056
0.00233331
0.00168336
0.00112197
0.000670941
0.000340481
0.000126997
1.23769e-05
-3.18247e-05
-2.21239e-05
-429343
-429343
-429343
-429343
-429343
-429343
-429343
-429343
-429343
-429343
-429343
-429343
-429343
-429343
-429343
-429343
-429343
-429343
-429343
-429343
-429343
-429343
-429343
-429343
-429343
-429343
-429343
-429343
-429343
-429343
-429343
-429343
-429343
-429343
-429343
-429343
-429342
-429353
-429203
-431285
-402259
-329720
-264997
-219014
-183041
-152622
-127145
-106041
-88462.3
-73724.3
-61324.9
-50861.6
-42003.9
-34483.2
-28081.7
-22621.1
-17954.9
-13962.4
-10544
-7616.54
-5111.05
-2969.65
-1143.75
407.617
1719.12
2820.19
3735.91
4487.73
5094.06
5570.72
5931.4
6187.92
6350.56
6428.27
6428.84
6359.1
6225.03
6031.87
5784.23
5486.16
5141.24
4752.6
4323.03
3854.93
3350.59
2811.3
2241.04
1632.45
1020.04
279.06
-112.312
-19.7639
11.7678
1.21413
-1.147
-0.015395
0.141311
0.0252232
0.0168302
0.0278854
0.0276439
0.0262169
0.0259216
0.0256709
0.0253068
0.0249377
0.0245691
0.024189
0.0237974
0.0233976
0.0229933
0.0225898
0.0221935
0.0218112
0.021449
0.0211116
0.0208018
0.0205192
0.0202604
0.020018
0.0197811
0.0195349
0.0192614
0.0189403
0.0185506
0.0180729
0.017492
0.0168014
0.0160046
0.0151206
0.0141821
0.0132379
0.012348
0.0115791
0.0109972
0.0106568
0.0105936
0.0108124
0.0112852
0.0119449
0.0126937
0.0134088
0.0139594
0.0142241
0.0141082
0.013563
0.0125916
0.011258
0.00967431
0.00799311
0.00638143
0.00500131
0.00398523
0.00341851
0.00333083
0.0036915
0.00442133
0.0054015
0.00649704
0.00757064
0.00850338
0.00920342
0.00961443
0.00971556
0.00951731
0.00905638
0.00838542
0.00756833
0.00667042
0.005757
0.00488645
0.00411108
0.00347268
0.00300306
0.00272137
0.0026334
0.00273104
0.00299141
0.00337965
0.0038494
0.0043489
0.00482328
0.00522197
0.00550147
0.00563104
0.00559402
0.00538938
0.00503069
0.0045434
0.00396212
0.00332561
0.00267414
0.00204493
0.00147099
0.000978376
0.000584562
0.000296231
0.000107872
7.15513e-06
-1.28406e-05
-429343
-429343
-429343
-429343
-429343
-429343
-429343
-429343
-429343
-429343
-429343
-429343
-429343
-429343
-429343
-429343
-429343
-429343
-429343
-429343
-429343
-429343
-429343
-429343
-429343
-429343
-429343
-429343
-429343
-429343
-429343
-429343
-429343
-429343
-429343
-429343
-429342
-429353
-429203
-431285
-402259
-329720
-264997
-219014
-183041
-152622
-127145
-106041
-88462.3
-73724.3
-61324.9
-50861.6
-42003.9
-34483.2
-28081.7
-22621.1
-17954.9
-13962.4
-10544
-7616.54
-5111.05
-2969.65
-1143.75
407.617
1719.12
2820.19
3735.91
4487.73
5094.06
5570.72
5931.4
6187.92
6350.56
6428.27
6428.84
6359.1
6225.03
6031.87
5784.23
5486.16
5141.24
4752.6
4323.03
3854.93
3350.59
2811.3
2241.04
1632.45
1020.04
279.06
-112.312
-19.7639
11.7678
1.21413
-1.147
-0.0153915
0.141318
0.025235
0.016847
0.027907
0.0276695
0.0262452
0.0259507
0.0256987
0.0253315
0.0249576
0.0245829
0.0241954
0.0237956
0.0233863
0.0229711
0.0225546
0.0221428
0.0217424
0.0213599
0.0210012
0.0206707
0.0203711
0.0201019
0.0198599
0.0196373
0.0194225
0.0191993
0.0189473
0.0186434
0.0182631
0.0177841
0.0171887
0.0164698
0.0156315
0.0146959
0.0137005
0.0127005
0.0117634
0.0109631
0.0103716
0.0100468
0.0100249
0.0103068
0.0108575
0.0115999
0.0124254
0.013201
0.0137888
0.0140643
0.0139346
0.0133575
0.0123457
0.0109738
0.00936348
0.0076736
0.00607277
0.00471992
0.00374044
0.0032104
0.00315027
0.00352238
0.0042443
0.00519843
0.00625515
0.00728536
0.00817949
0.00885432
0.00925979
0.00937803
0.00921905
0.00881593
0.00821563
0.00747535
0.00665384
0.00581073
0.00500009
0.00427123
0.00366405
0.00320923
0.00292512
0.00281696
0.00287631
0.00308057
0.00339607
0.00377907
0.00418204
0.00455596
0.00485737
0.00505042
0.00511162
0.00503012
0.00480841
0.00446065
0.00400987
0.00348553
0.00291941
0.00234416
0.00179013
0.00128472
0.000849542
0.000499267
0.000240795
7.64251e-05
8.08533e-06
-429343
-429343
-429343
-429343
-429343
-429343
-429343
-429343
-429343
-429343
-429343
-429343
-429343
-429343
-429343
-429343
-429343
-429343
-429343
-429343
-429343
-429343
-429343
-429343
-429343
-429343
-429343
-429343
-429343
-429343
-429343
-429343
-429343
-429343
-429343
-429343
-429342
-429353
-429203
-431285
-402259
-329720
-264997
-219014
-183041
-152622
-127145
-106041
-88462.3
-73724.3
-61324.9
-50861.6
-42003.9
-34483.2
-28081.7
-22621.1
-17954.9
-13962.4
-10544
-7616.54
-5111.05
-2969.65
-1143.75
407.617
1719.12
2820.19
3735.91
4487.73
5094.06
5570.72
5931.4
6187.92
6350.56
6428.27
6428.84
6359.1
6225.03
6031.87
5784.23
5486.16
5141.24
4752.6
4323.03
3854.93
3350.59
2811.3
2241.04
1632.45
1020.04
279.06
-112.312
-19.7639
11.7678
1.21413
-1.14699
-0.0153891
0.141324
0.0252452
0.0168627
0.0279285
0.0276967
0.0262771
0.0259859
0.0257354
0.0253677
0.0249916
0.0246131
0.0242205
0.0238143
0.0233974
0.0229727
0.0225445
0.0221181
0.0216996
0.0212953
0.0209117
0.0205549
0.0202294
0.0199385
0.0196822
0.0194577
0.0192568
0.0190672
0.0188702
0.0186428
0.0183583
0.0179884
0.0175077
0.0168962
0.0161462
0.0152635
0.0142734
0.0132193
0.0121635
0.0111814
0.0103541
0.00975946
0.00945791
0.00948456
0.00983515
0.0104662
0.0112898
0.0121865
0.0130139
0.0136284
0.0139045
0.0137535
0.0131409
0.0120901
0.0106859
0.00905829
0.00737025
0.00578982
0.00447069
0.00352985
0.00303376
0.00299427
0.00336819
0.00407165
0.00499027
0.00600119
0.00698445
0.00784
0.0084927
0.00889798
0.00903982
0.00892686
0.0085878
0.00806359
0.00740454
0.0066629
0.00589256
0.00514311
0.00446053
0.00388227
0.00343734
0.00314283
0.0030034
0.0030107
0.00314347
0.00337078
0.00365346
0.00395016
0.00421941
0.00442585
0.00454134
0.00454872
0.00444106
0.00422187
0.00390312
0.00350287
0.0030436
0.00254943
0.00204589
0.00155741
0.00110671
0.000713408
0.000394298
0.000164694
3.71309e-05
-429343
-429343
-429343
-429343
-429343
-429343
-429343
-429343
-429343
-429343
-429343
-429343
-429343
-429343
-429343
-429343
-429343
-429343
-429343
-429343
-429343
-429343
-429343
-429343
-429343
-429343
-429343
-429343
-429343
-429343
-429343
-429343
-429343
-429343
-429343
-429343
-429342
-429353
-429203
-431285
-402259
-329720
-264997
-219014
-183041
-152622
-127145
-106041
-88462.3
-73724.3
-61324.9
-50861.6
-42003.9
-34483.2
-28081.7
-22621.1
-17954.9
-13962.4
-10544
-7616.54
-5111.05
-2969.65
-1143.75
407.617
1719.12
2820.19
3735.91
4487.73
5094.06
5570.72
5931.4
6187.92
6350.56
6428.27
6428.84
6359.1
6225.03
6031.87
5784.23
5486.16
5141.24
4752.6
4323.03
3854.93
3350.59
2811.3
2241.04
1632.45
1020.04
279.06
-112.312
-19.7639
11.7678
1.21413
-1.14699
-0.0153881
0.141327
0.0252528
0.0168756
0.0279477
0.0277225
0.0263093
0.0260236
0.0257771
0.0254119
0.0250364
0.024657
0.0242621
0.0238522
0.0234301
0.0229987
0.0225613
0.0221225
0.0216874
0.021262
0.0208527
0.020466
0.0201086
0.0197861
0.0195028
0.0192597
0.0190542
0.0188779
0.0187167
0.0185495
0.0183497
0.0180865
0.0177277
0.0172447
0.0166153
0.0158318
0.0149018
0.0138552
0.0127415
0.0116314
0.0106077
0.00975953
0.00916911
0.0088987
0.00898062
0.009404
0.0101157
0.0110166
0.0119767
0.0128454
0.0134758
0.0137432
0.0135649