/*--------------------------------*- C++ -*----------------------------------*\
  =========                 |
  \\      /  F ield         | OpenFOAM: The Open Source CFD Toolbox
   \\    /   O peration     | Website:  https://openfoam.org
    \\  /    A nd           | Version:  6
     \\/     M anipulation  |
\*---------------------------------------------------------------------------*/
FoamFile
{
    version     2.0;
    format      ascii;
    class       volVectorField;
    location    "192";
    object      U;
}
// * * * * * * * * * * * * * * * * * * * * * * * * * * * * * * * * * * * * * //

dimensions      [0 1 -1 0 0 0 0];

internalField   nonuniform List<vector> 
4000
(
(400 -1.90712e-09 0)
(400 -3.92402e-09 0)
(400 -5.87465e-09 0)
(400 -7.76055e-09 0)
(400 -9.36595e-09 0)
(400 -1.08558e-08 0)
(400 -1.1821e-08 0)
(400 -1.25627e-08 0)
(400 -1.23785e-08 0)
(400 -1.17373e-08 0)
(400 -9.66973e-09 0)
(400 -6.85797e-09 0)
(400 -2.21797e-09 0)
(400 3.33763e-09 0)
(400 1.07595e-08 0)
(400 1.896e-08 0)
(400 2.85209e-08 0)
(400 3.83365e-08 0)
(400 4.85129e-08 0)
(400 5.81404e-08 0)
(400 6.69065e-08 0)
(400 7.42656e-08 0)
(400 7.96732e-08 0)
(400 8.29836e-08 0)
(400 8.36731e-08 0)
(400 8.18991e-08 0)
(400 7.74052e-08 0)
(400 7.04799e-08 0)
(400 6.12959e-08 0)
(400 5.01096e-08 0)
(400 3.75332e-08 0)
(400 2.372e-08 0)
(400 9.56225e-09 0)
(400 -4.8424e-09 0)
(400 -1.8617e-08 0)
(399.999 -3.16489e-08 0)
(400.012 -4.34854e-08 0)
(399.838 -5.41639e-08 0)
(402.254 -6.41331e-08 0)
(368.573 -8.70185e-05 0)
(427.372 -86.9463 0)
(408.775 -161.528 0)
(396.824 -226.38 0)
(397.828 -283.846 0)
(399.693 -334.836 0)
(399.88 -380.021 0)
(399.768 -420.082 0)
(399.808 -455.624 0)
(399.871 -487.171 0)
(399.903 -515.178 0)
(399.923 -540.044 0)
(399.94 -562.118 0)
(399.953 -581.706 0)
(399.963 -599.076 0)
(399.97 -614.467 0)
(399.976 -628.087 0)
(399.98 -640.121 0)
(399.984 -650.734 0)
(399.987 -660.072 0)
(399.989 -668.263 0)
(399.991 -675.423 0)
(399.993 -681.656 0)
(399.994 -687.054 0)
(399.995 -691.698 0)
(399.996 -695.662 0)
(399.996 -699.014 0)
(399.997 -701.81 0)
(399.997 -704.106 0)
(399.998 -705.948 0)
(399.998 -707.379 0)
(399.998 -708.438 0)
(399.998 -709.159 0)
(399.999 -709.573 0)
(399.999 -709.708 0)
(399.999 -709.589 0)
(399.999 -709.239 0)
(399.999 -708.677 0)
(399.999 -707.923 0)
(399.999 -706.992 0)
(399.999 -705.899 0)
(400 -704.657 0)
(400 -703.278 0)
(400 -701.773 0)
(400 -700.152 0)
(400 -698.422 0)
(399.999 -696.592 0)
(400.004 -694.668 0)
(399.985 -692.658 0)
(400.055 -690.56 0)
(399.792 -688.407 0)
(400.165 -688.407 0)
(400.01 -688.407 0)
(399.984 -688.407 0)
(400 -688.407 0)
(400.002 -688.407 0)
(400 -688.407 0)
(400 -688.407 0)
(400 -688.407 0)
(400 -688.407 0)
(400 -688.407 0)
(400 -688.407 0)
(400 -688.407 0)
(400 -688.407 0)
(400 -688.407 0)
(400 -688.407 0)
(400 -688.407 0)
(400 -688.407 0)
(400 -688.407 0)
(400 -688.407 0)
(400 -688.407 0)
(400 -688.407 0)
(400 -688.407 0)
(400 -688.407 0)
(400 -688.407 0)
(400 -688.407 0)
(400 -688.407 0)
(400 -688.407 0)
(400 -688.407 0)
(400 -688.407 0)
(400 -688.407 0)
(400 -688.407 0)
(400 -688.407 0)
(400 -688.407 0)
(400 -688.407 0)
(400 -688.407 0)
(400 -688.407 0)
(400 -688.407 0)
(400 -688.407 0)
(400 -688.407 0)
(400 -688.407 0)
(400 -688.407 0)
(400 -688.407 0)
(400 -688.407 0)
(400 -688.407 0)
(400 -688.407 0)
(400 -688.407 0)
(400 -688.407 0)
(400 -688.407 0)
(400 -688.407 0)
(400 -688.407 0)
(400 -688.407 0)
(400 -688.407 0)
(400 -688.407 0)
(400 -688.407 0)
(400 -688.407 0)
(400 -688.407 0)
(400 -688.407 0)
(400 -688.407 0)
(400 -688.407 0)
(400 -688.407 0)
(400 -688.406 0)
(400 -688.406 0)
(400 -688.406 0)
(400 -688.406 0)
(400 -688.406 0)
(400 -688.406 0)
(400 -688.405 0)
(400 -688.405 0)
(400 -688.404 0)
(400 -688.403 0)
(400 -688.402 0)
(400 -688.4 0)
(400 -688.399 0)
(400 -688.396 0)
(400 -688.393 0)
(400 -688.389 0)
(400 -688.384 0)
(400 -688.378 0)
(400 -688.37 0)
(400 -688.361 0)
(400 -688.349 0)
(400 -688.335 0)
(400 -688.317 0)
(400 -688.296 0)
(400 -688.271 0)
(400 -688.24 0)
(400 -688.204 0)
(400 -688.16 0)
(400 -688.109 0)
(400 -688.048 0)
(400 -687.978 0)
(400 -687.895 0)
(400 -687.799 0)
(400 -687.687 0)
(400 -687.559 0)
(400 -687.411 0)
(400 -687.243 0)
(400 -687.051 0)
(400 -686.833 0)
(400 -686.587 0)
(400 -686.309 0)
(400 -685.999 0)
(400 -685.651 0)
(400 -685.264 0)
(400 -684.835 0)
(400 -684.361 0)
(400 -683.838 0)
(400 -683.264 0)
(400 -682.636 0)
(400 -681.951 0)
(400 3.24902e-09 0)
(400 6.10302e-09 0)
(400 8.58284e-09 0)
(400 1.07968e-08 0)
(400 1.27964e-08 0)
(400 1.48172e-08 0)
(400 1.68785e-08 0)
(400 1.92658e-08 0)
(400 2.18343e-08 0)
(400 2.48458e-08 0)
(400 2.79357e-08 0)
(400 3.1299e-08 0)
(400 3.43678e-08 0)
(400 3.72615e-08 0)
(400 3.93367e-08 0)
(400 4.06916e-08 0)
(400 4.08045e-08 0)
(400 3.98059e-08 0)
(400 3.74349e-08 0)
(400 3.385e-08 0)
(400 2.90752e-08 0)
(400 2.32556e-08 0)
(400 1.66235e-08 0)
(400 9.2754e-09 0)
(400 1.51765e-09 0)
(400 -6.60866e-09 0)
(400 -1.48607e-08 0)
(400 -2.32222e-08 0)
(400 -3.15959e-08 0)
(400 -3.99289e-08 0)
(400 -4.82515e-08 0)
(400 -5.64076e-08 0)
(400 -6.44561e-08 0)
(400 -7.21358e-08 0)
(400 -7.94548e-08 0)
(399.999 -8.61726e-08 0)
(400.012 -9.23113e-08 0)
(399.838 -9.78184e-08 0)
(402.254 -1.02524e-07 0)
(368.573 -8.7051e-05 0)
(427.372 -86.9463 0)
(408.775 -161.528 0)
(396.824 -226.38 0)
(397.828 -283.846 0)
(399.693 -334.836 0)
(399.88 -380.021 0)
(399.768 -420.082 0)
(399.808 -455.624 0)
(399.871 -487.171 0)
(399.903 -515.178 0)
(399.923 -540.044 0)
(399.94 -562.118 0)
(399.953 -581.706 0)
(399.963 -599.076 0)
(399.97 -614.467 0)
(399.976 -628.087 0)
(399.98 -640.121 0)
(399.984 -650.734 0)
(399.987 -660.072 0)
(399.989 -668.263 0)
(399.991 -675.423 0)
(399.993 -681.656 0)
(399.994 -687.054 0)
(399.995 -691.698 0)
(399.996 -695.662 0)
(399.996 -699.014 0)
(399.997 -701.81 0)
(399.997 -704.106 0)
(399.998 -705.948 0)
(399.998 -707.379 0)
(399.998 -708.438 0)
(399.998 -709.159 0)
(399.999 -709.573 0)
(399.999 -709.708 0)
(399.999 -709.589 0)
(399.999 -709.239 0)
(399.999 -708.677 0)
(399.999 -707.923 0)
(399.999 -706.992 0)
(399.999 -705.899 0)
(400 -704.657 0)
(400 -703.278 0)
(400 -701.773 0)
(400 -700.152 0)
(400 -698.422 0)
(399.999 -696.592 0)
(400.004 -694.668 0)
(399.985 -692.658 0)
(400.055 -690.56 0)
(399.792 -688.407 0)
(400.165 -688.407 0)
(400.01 -688.407 0)
(399.984 -688.407 0)
(400 -688.407 0)
(400.002 -688.407 0)
(400 -688.407 0)
(400 -688.407 0)
(400 -688.407 0)
(400 -688.407 0)
(400 -688.407 0)
(400 -688.407 0)
(400 -688.407 0)
(400 -688.407 0)
(400 -688.407 0)
(400 -688.407 0)
(400 -688.407 0)
(400 -688.407 0)
(400 -688.407 0)
(400 -688.407 0)
(400 -688.407 0)
(400 -688.407 0)
(400 -688.407 0)
(400 -688.407 0)
(400 -688.407 0)
(400 -688.407 0)
(400 -688.407 0)
(400 -688.407 0)
(400 -688.407 0)
(400 -688.407 0)
(400 -688.407 0)
(400 -688.407 0)
(400 -688.407 0)
(400 -688.407 0)
(400 -688.407 0)
(400 -688.407 0)
(400 -688.407 0)
(400 -688.407 0)
(400 -688.407 0)
(400 -688.407 0)
(400 -688.407 0)
(400 -688.407 0)
(400 -688.407 0)
(400 -688.407 0)
(400 -688.407 0)
(400 -688.407 0)
(400 -688.407 0)
(400 -688.407 0)
(400 -688.407 0)
(400 -688.407 0)
(400 -688.407 0)
(400 -688.407 0)
(400 -688.407 0)
(400 -688.407 0)
(400 -688.407 0)
(400 -688.407 0)
(400 -688.407 0)
(400 -688.407 0)
(400 -688.407 0)
(400 -688.407 0)
(400 -688.407 0)
(400 -688.406 0)
(400 -688.406 0)
(400 -688.406 0)
(400 -688.406 0)
(400 -688.406 0)
(400 -688.406 0)
(400 -688.405 0)
(400 -688.405 0)
(400 -688.404 0)
(400 -688.403 0)
(400 -688.402 0)
(400 -688.4 0)
(400 -688.399 0)
(400 -688.396 0)
(400 -688.393 0)
(400 -688.389 0)
(400 -688.384 0)
(400 -688.378 0)
(400 -688.37 0)
(400 -688.361 0)
(400 -688.349 0)
(400 -688.335 0)
(400 -688.317 0)
(400 -688.296 0)
(400 -688.271 0)
(400 -688.24 0)
(400 -688.204 0)
(400 -688.16 0)
(400 -688.109 0)
(400 -688.048 0)
(400 -687.978 0)
(400 -687.895 0)
(400 -687.799 0)
(400 -687.687 0)
(400 -687.559 0)
(400 -687.411 0)
(400 -687.243 0)
(400 -687.051 0)
(400 -686.833 0)
(400 -686.587 0)
(400 -686.309 0)
(400 -685.999 0)
(400 -685.651 0)
(400 -685.264 0)
(400 -684.835 0)
(400 -684.361 0)
(400 -683.838 0)
(400 -683.264 0)
(400 -682.636 0)
(400 -681.951 0)
(400 3.5423e-09 0)
(400 6.81327e-09 0)
(400 9.76589e-09 0)
(400 1.24693e-08 0)
(400 1.49675e-08 0)
(400 1.7509e-08 0)
(400 2.01111e-08 0)
(400 2.30399e-08 0)
(400 2.60691e-08 0)
(400 2.93488e-08 0)
(400 3.23219e-08 0)
(400 3.49899e-08 0)
(400 3.65322e-08 0)
(400 3.68828e-08 0)
(400 3.52167e-08 0)
(400 3.15941e-08 0)
(400 2.5514e-08 0)
(400 1.72993e-08 0)
(400 6.94449e-09 0)
(400 -5.01092e-09 0)
(400 -1.81451e-08 0)
(400 -3.18714e-08 0)
(400 -4.55603e-08 0)
(400 -5.87398e-08 0)
(400 -7.08206e-08 0)
(400 -8.15257e-08 0)
(400 -9.05003e-08 0)
(400 -9.76538e-08 0)
(400 -1.02958e-07 0)
(400 -1.06439e-07 0)
(400 -1.08352e-07 0)
(400 -1.08745e-07 0)
(400 -1.08003e-07 0)
(400 -1.06149e-07 0)
(400 -1.03526e-07 0)
(399.999 -1.00181e-07 0)
(400.012 -9.63131e-08 0)
(399.838 -9.1964e-08 0)
(402.254 -8.7003e-08 0)
(368.573 -8.70263e-05 0)
(427.372 -86.9463 0)
(408.775 -161.528 0)
(396.824 -226.38 0)
(397.828 -283.846 0)
(399.693 -334.836 0)
(399.88 -380.021 0)
(399.768 -420.082 0)
(399.808 -455.624 0)
(399.871 -487.171 0)
(399.903 -515.178 0)
(399.923 -540.044 0)
(399.94 -562.118 0)
(399.953 -581.706 0)
(399.963 -599.076 0)
(399.97 -614.467 0)
(399.976 -628.087 0)
(399.98 -640.121 0)
(399.984 -650.734 0)
(399.987 -660.072 0)
(399.989 -668.263 0)
(399.991 -675.423 0)
(399.993 -681.656 0)
(399.994 -687.054 0)
(399.995 -691.698 0)
(399.996 -695.662 0)
(399.996 -699.014 0)
(399.997 -701.81 0)
(399.997 -704.106 0)
(399.998 -705.948 0)
(399.998 -707.379 0)
(399.998 -708.438 0)
(399.998 -709.159 0)
(399.999 -709.573 0)
(399.999 -709.708 0)
(399.999 -709.589 0)
(399.999 -709.239 0)
(399.999 -708.677 0)
(399.999 -707.923 0)
(399.999 -706.992 0)
(399.999 -705.899 0)
(400 -704.657 0)
(400 -703.278 0)
(400 -701.773 0)
(400 -700.152 0)
(400 -698.422 0)
(399.999 -696.592 0)
(400.004 -694.668 0)
(399.985 -692.658 0)
(400.055 -690.56 0)
(399.792 -688.407 0)
(400.165 -688.407 0)
(400.01 -688.407 0)
(399.984 -688.407 0)
(400 -688.407 0)
(400.002 -688.407 0)
(400 -688.407 0)
(400 -688.407 0)
(400 -688.407 0)
(400 -688.407 0)
(400 -688.407 0)
(400 -688.407 0)
(400 -688.407 0)
(400 -688.407 0)
(400 -688.407 0)
(400 -688.407 0)
(400 -688.407 0)
(400 -688.407 0)
(400 -688.407 0)
(400 -688.407 0)
(400 -688.407 0)
(400 -688.407 0)
(400 -688.407 0)
(400 -688.407 0)
(400 -688.407 0)
(400 -688.407 0)
(400 -688.407 0)
(400 -688.407 0)
(400 -688.407 0)
(400 -688.407 0)
(400 -688.407 0)
(400 -688.407 0)
(400 -688.407 0)
(400 -688.407 0)
(400 -688.407 0)
(400 -688.407 0)
(400 -688.407 0)
(400 -688.407 0)
(400 -688.407 0)
(400 -688.407 0)
(400 -688.407 0)
(400 -688.407 0)
(400 -688.407 0)
(400 -688.407 0)
(400 -688.407 0)
(400 -688.407 0)
(400 -688.407 0)
(400 -688.407 0)
(400 -688.407 0)
(400 -688.407 0)
(400 -688.407 0)
(400 -688.407 0)
(400 -688.407 0)
(400 -688.407 0)
(400 -688.407 0)
(400 -688.407 0)
(400 -688.407 0)
(400 -688.407 0)
(400 -688.407 0)
(400 -688.407 0)
(400 -688.407 0)
(400 -688.406 0)
(400 -688.406 0)
(400 -688.406 0)
(400 -688.406 0)
(400 -688.406 0)
(400 -688.406 0)
(400 -688.405 0)
(400 -688.405 0)
(400 -688.404 0)
(400 -688.403 0)
(400 -688.402 0)
(400 -688.4 0)
(400 -688.399 0)
(400 -688.396 0)
(400 -688.393 0)
(400 -688.389 0)
(400 -688.384 0)
(400 -688.378 0)
(400 -688.37 0)
(400 -688.361 0)
(400 -688.349 0)
(400 -688.335 0)
(400 -688.317 0)
(400 -688.296 0)
(400 -688.271 0)
(400 -688.24 0)
(400 -688.204 0)
(400 -688.16 0)
(400 -688.109 0)
(400 -688.048 0)
(400 -687.978 0)
(400 -687.895 0)
(400 -687.799 0)
(400 -687.687 0)
(400 -687.559 0)
(400 -687.411 0)
(400 -687.243 0)
(400 -687.051 0)
(400 -686.833 0)
(400 -686.587 0)
(400 -686.309 0)
(400 -685.999 0)
(400 -685.651 0)
(400 -685.264 0)
(400 -684.835 0)
(400 -684.361 0)
(400 -683.838 0)
(400 -683.264 0)
(400 -682.636 0)
(400 -681.951 0)
(400 3.77031e-09 0)
(400 7.40179e-09 0)
(400 1.0818e-08 0)
(400 1.40256e-08 0)
(400 1.71032e-08 0)
(400 2.01696e-08 0)
(400 2.33293e-08 0)
(400 2.66159e-08 0)
(400 2.99626e-08 0)
(400 3.3165e-08 0)
(400 3.59029e-08 0)
(400 3.77299e-08 0)
(400 3.81551e-08 0)
(400 3.66652e-08 0)
(400 3.28524e-08 0)
(400 2.64344e-08 0)
(400 1.73597e-08 0)
(400 5.77528e-09 0)
(400 -7.93904e-09 0)
(400 -2.32513e-08 0)
(400 -3.9503e-08 0)
(400 -5.59927e-08 0)
(400 -7.20195e-08 0)
(400 -8.6936e-08 0)
(400 -1.00181e-07 0)
(400 -1.11299e-07 0)
(400 -1.19955e-07 0)
(400 -1.25938e-07 0)
(400 -1.29156e-07 0)
(400 -1.29632e-07 0)
(400 -1.27476e-07 0)
(400 -1.22887e-07 0)
(400 -1.16114e-07 0)
(400 -1.07459e-07 0)
(400 -9.72529e-08 0)
(399.999 -8.58497e-08 0)
(400.012 -7.3617e-08 0)
(399.838 -6.0804e-08 0)
(402.254 -4.75267e-08 0)
(368.573 -8.69792e-05 0)
(427.372 -86.9463 0)
(408.775 -161.528 0)
(396.824 -226.38 0)
(397.828 -283.846 0)
(399.693 -334.836 0)
(399.88 -380.021 0)
(399.768 -420.082 0)
(399.808 -455.624 0)
(399.871 -487.171 0)
(399.903 -515.178 0)
(399.923 -540.044 0)
(399.94 -562.118 0)
(399.953 -581.706 0)
(399.963 -599.076 0)
(399.97 -614.467 0)
(399.976 -628.087 0)
(399.98 -640.121 0)
(399.984 -650.734 0)
(399.987 -660.072 0)
(399.989 -668.263 0)
(399.991 -675.423 0)
(399.993 -681.656 0)
(399.994 -687.054 0)
(399.995 -691.698 0)
(399.996 -695.662 0)
(399.996 -699.014 0)
(399.997 -701.81 0)
(399.997 -704.106 0)
(399.998 -705.948 0)
(399.998 -707.379 0)
(399.998 -708.438 0)
(399.998 -709.159 0)
(399.999 -709.573 0)
(399.999 -709.708 0)
(399.999 -709.589 0)
(399.999 -709.239 0)
(399.999 -708.677 0)
(399.999 -707.923 0)
(399.999 -706.992 0)
(399.999 -705.899 0)
(400 -704.657 0)
(400 -703.278 0)
(400 -701.773 0)
(400 -700.152 0)
(400 -698.422 0)
(399.999 -696.592 0)
(400.004 -694.668 0)
(399.985 -692.658 0)
(400.055 -690.56 0)
(399.792 -688.407 0)
(400.165 -688.407 0)
(400.01 -688.407 0)
(399.984 -688.407 0)
(400 -688.407 0)
(400.002 -688.407 0)
(400 -688.407 0)
(400 -688.407 0)
(400 -688.407 0)
(400 -688.407 0)
(400 -688.407 0)
(400 -688.407 0)
(400 -688.407 0)
(400 -688.407 0)
(400 -688.407 0)
(400 -688.407 0)
(400 -688.407 0)
(400 -688.407 0)
(400 -688.407 0)
(400 -688.407 0)
(400 -688.407 0)
(400 -688.407 0)
(400 -688.407 0)
(400 -688.407 0)
(400 -688.407 0)
(400 -688.407 0)
(400 -688.407 0)
(400 -688.407 0)
(400 -688.407 0)
(400 -688.407 0)
(400 -688.407 0)
(400 -688.407 0)
(400 -688.407 0)
(400 -688.407 0)
(400 -688.407 0)
(400 -688.407 0)
(400 -688.407 0)
(400 -688.407 0)
(400 -688.407 0)
(400 -688.407 0)
(400 -688.407 0)
(400 -688.407 0)
(400 -688.407 0)
(400 -688.407 0)
(400 -688.407 0)
(400 -688.407 0)
(400 -688.407 0)
(400 -688.407 0)
(400 -688.407 0)
(400 -688.407 0)
(400 -688.407 0)
(400 -688.407 0)
(400 -688.407 0)
(400 -688.407 0)
(400 -688.407 0)
(400 -688.407 0)
(400 -688.407 0)
(400 -688.407 0)
(400 -688.407 0)
(400 -688.407 0)
(400 -688.407 0)
(400 -688.406 0)
(400 -688.406 0)
(400 -688.406 0)
(400 -688.406 0)
(400 -688.406 0)
(400 -688.406 0)
(400 -688.405 0)
(400 -688.405 0)
(400 -688.404 0)
(400 -688.403 0)
(400 -688.402 0)
(400 -688.4 0)
(400 -688.399 0)
(400 -688.396 0)
(400 -688.393 0)
(400 -688.389 0)
(400 -688.384 0)
(400 -688.378 0)
(400 -688.37 0)
(400 -688.361 0)
(400 -688.349 0)
(400 -688.335 0)
(400 -688.317 0)
(400 -688.296 0)
(400 -688.271 0)
(400 -688.24 0)
(400 -688.204 0)
(400 -688.16 0)
(400 -688.109 0)
(400 -688.048 0)
(400 -687.978 0)
(400 -687.895 0)
(400 -687.799 0)
(400 -687.687 0)
(400 -687.559 0)
(400 -687.411 0)
(400 -687.243 0)
(400 -687.051 0)
(400 -686.833 0)
(400 -686.587 0)
(400 -686.309 0)
(400 -685.999 0)
(400 -685.651 0)
(400 -685.264 0)
(400 -684.835 0)
(400 -684.361 0)
(400 -683.838 0)
(400 -683.264 0)
(400 -682.636 0)
(400 -681.951 0)
(400 3.80959e-09 0)
(400 7.61292e-09 0)
(400 1.13137e-08 0)
(400 1.49035e-08 0)
(400 1.84205e-08 0)
(400 2.19398e-08 0)
(400 2.5484e-08 0)
(400 2.90396e-08 0)
(400 3.24408e-08 0)
(400 3.54597e-08 0)
(400 3.7689e-08 0)
(400 3.87177e-08 0)
(400 3.8023e-08 0)
(400 3.52117e-08 0)
(400 2.99111e-08 0)
(400 2.20048e-08 0)
(400 1.14988e-08 0)
(400 -1.32529e-09 0)
(400 -1.60578e-08 0)
(400 -3.21139e-08 0)
(400 -4.8848e-08 0)
(400 -6.55787e-08 0)
(400 -8.16332e-08 0)
(400 -9.64033e-08 0)
(400 -1.09326e-07 0)
(400 -1.19947e-07 0)
(400 -1.27879e-07 0)
(400 -1.32848e-07 0)
(400 -1.34677e-07 0)
(400 -1.3329e-07 0)
(400 -1.28737e-07 0)
(400 -1.21147e-07 0)
(400 -1.10785e-07 0)
(400 -9.79835e-08 0)
(400 -8.31922e-08 0)
(399.999 -6.69123e-08 0)
(400.012 -4.96794e-08 0)
(399.838 -3.1974e-08 0)
(402.254 -1.41381e-08 0)
(368.573 -8.69424e-05 0)
(427.372 -86.9463 0)
(408.775 -161.528 0)
(396.824 -226.38 0)
(397.828 -283.846 0)
(399.693 -334.836 0)
(399.88 -380.021 0)
(399.768 -420.082 0)
(399.808 -455.624 0)
(399.871 -487.171 0)
(399.903 -515.178 0)
(399.923 -540.044 0)
(399.94 -562.118 0)
(399.953 -581.706 0)
(399.963 -599.076 0)
(399.97 -614.467 0)
(399.976 -628.087 0)
(399.98 -640.121 0)
(399.984 -650.734 0)
(399.987 -660.072 0)
(399.989 -668.263 0)
(399.991 -675.423 0)
(399.993 -681.656 0)
(399.994 -687.054 0)
(399.995 -691.698 0)
(399.996 -695.662 0)
(399.996 -699.014 0)
(399.997 -701.81 0)
(399.997 -704.106 0)
(399.998 -705.948 0)
(399.998 -707.379 0)
(399.998 -708.438 0)
(399.998 -709.159 0)
(399.999 -709.573 0)
(399.999 -709.708 0)
(399.999 -709.589 0)
(399.999 -709.239 0)
(399.999 -708.677 0)
(399.999 -707.923 0)
(399.999 -706.992 0)
(399.999 -705.899 0)
(400 -704.657 0)
(400 -703.278 0)
(400 -701.773 0)
(400 -700.152 0)
(400 -698.422 0)
(399.999 -696.592 0)
(400.004 -694.668 0)
(399.985 -692.658 0)
(400.055 -690.56 0)
(399.792 -688.407 0)
(400.165 -688.407 0)
(400.01 -688.407 0)
(399.984 -688.407 0)
(400 -688.407 0)
(400.002 -688.407 0)
(400 -688.407 0)
(400 -688.407 0)
(400 -688.407 0)
(400 -688.407 0)
(400 -688.407 0)
(400 -688.407 0)
(400 -688.407 0)
(400 -688.407 0)
(400 -688.407 0)
(400 -688.407 0)
(400 -688.407 0)
(400 -688.407 0)
(400 -688.407 0)
(400 -688.407 0)
(400 -688.407 0)
(400 -688.407 0)
(400 -688.407 0)
(400 -688.407 0)
(400 -688.407 0)
(400 -688.407 0)
(400 -688.407 0)
(400 -688.407 0)
(400 -688.407 0)
(400 -688.407 0)
(400 -688.407 0)
(400 -688.407 0)
(400 -688.407 0)
(400 -688.407 0)
(400 -688.407 0)
(400 -688.407 0)
(400 -688.407 0)
(400 -688.407 0)
(400 -688.407 0)
(400 -688.407 0)
(400 -688.407 0)
(400 -688.407 0)
(400 -688.407 0)
(400 -688.407 0)
(400 -688.407 0)
(400 -688.407 0)
(400 -688.407 0)
(400 -688.407 0)
(400 -688.407 0)
(400 -688.407 0)
(400 -688.407 0)
(400 -688.407 0)
(400 -688.407 0)
(400 -688.407 0)
(400 -688.407 0)
(400 -688.407 0)
(400 -688.407 0)
(400 -688.407 0)
(400 -688.407 0)
(400 -688.407 0)
(400 -688.407 0)
(400 -688.406 0)
(400 -688.406 0)
(400 -688.406 0)
(400 -688.406 0)
(400 -688.406 0)
(400 -688.406 0)
(400 -688.405 0)
(400 -688.405 0)
(400 -688.404 0)
(400 -688.403 0)
(400 -688.402 0)
(400 -688.4 0)
(400 -688.399 0)
(400 -688.396 0)
(400 -688.393 0)
(400 -688.389 0)
(400 -688.384 0)
(400 -688.378 0)
(400 -688.37 0)
(400 -688.361 0)
(400 -688.349 0)
(400 -688.335 0)
(400 -688.317 0)
(400 -688.296 0)
(400 -688.271 0)
(400 -688.24 0)
(400 -688.204 0)
(400 -688.16 0)
(400 -688.109 0)
(400 -688.048 0)
(400 -687.978 0)
(400 -687.895 0)
(400 -687.799 0)
(400 -687.687 0)
(400 -687.559 0)
(400 -687.411 0)
(400 -687.243 0)
(400 -687.051 0)
(400 -686.833 0)
(400 -686.587 0)
(400 -686.309 0)
(400 -685.999 0)
(400 -685.651 0)
(400 -685.264 0)
(400 -684.835 0)
(400 -684.361 0)
(400 -683.838 0)
(400 -683.264 0)
(400 -682.636 0)
(400 -681.951 0)
(400 3.68008e-09 0)
(400 7.43964e-09 0)
(400 1.11738e-08 0)
(400 1.48456e-08 0)
(400 1.84673e-08 0)
(400 2.20549e-08 0)
(400 2.55988e-08 0)
(400 2.9007e-08 0)
(400 3.21061e-08 0)
(400 3.4602e-08 0)
(400 3.61388e-08 0)
(400 3.62918e-08 0)
(400 3.46718e-08 0)
(400 3.09326e-08 0)
(400 2.48771e-08 0)
(400 1.64441e-08 0)
(400 5.76779e-09 0)
(400 -6.87064e-09 0)
(400 -2.10424e-08 0)
(400 -3.62301e-08 0)
(400 -5.18588e-08 0)
(400 -6.73352e-08 0)
(400 -8.20767e-08 0)
(400 -9.55228e-08 0)
(400 -1.07156e-07 0)
(400 -1.16503e-07 0)
(400 -1.23155e-07 0)
(400 -1.26778e-07 0)
(400 -1.27127e-07 0)
(400 -1.24077e-07 0)
(400 -1.17618e-07 0)
(400 -1.07889e-07 0)
(400 -9.51576e-08 0)
(400 -7.9838e-08 0)
(400 -6.24618e-08 0)
(399.999 -4.3657e-08 0)
(400.012 -2.40942e-08 0)
(399.838 -4.40076e-09 0)
(402.254 1.48242e-08 0)
(368.573 -8.69132e-05 0)
(427.372 -86.9463 0)
(408.775 -161.528 0)
(396.824 -226.38 0)
(397.828 -283.846 0)
(399.693 -334.836 0)
(399.88 -380.021 0)
(399.768 -420.082 0)
(399.808 -455.624 0)
(399.871 -487.171 0)
(399.903 -515.178 0)
(399.923 -540.044 0)
(399.94 -562.118 0)
(399.953 -581.706 0)
(399.963 -599.076 0)
(399.97 -614.467 0)
(399.976 -628.087 0)
(399.98 -640.121 0)
(399.984 -650.734 0)
(399.987 -660.072 0)
(399.989 -668.263 0)
(399.991 -675.423 0)
(399.993 -681.656 0)
(399.994 -687.054 0)
(399.995 -691.698 0)
(399.996 -695.662 0)
(399.996 -699.014 0)
(399.997 -701.81 0)
(399.997 -704.106 0)
(399.998 -705.948 0)
(399.998 -707.379 0)
(399.998 -708.438 0)
(399.998 -709.159 0)
(399.999 -709.573 0)
(399.999 -709.708 0)
(399.999 -709.589 0)
(399.999 -709.239 0)
(399.999 -708.677 0)
(399.999 -707.923 0)
(399.999 -706.992 0)
(399.999 -705.899 0)
(400 -704.657 0)
(400 -703.278 0)
(400 -701.773 0)
(400 -700.152 0)
(400 -698.422 0)
(399.999 -696.592 0)
(400.004 -694.668 0)
(399.985 -692.658 0)
(400.055 -690.56 0)
(399.792 -688.407 0)
(400.165 -688.407 0)
(400.01 -688.407 0)
(399.984 -688.407 0)
(400 -688.407 0)
(400.002 -688.407 0)
(400 -688.407 0)
(400 -688.407 0)
(400 -688.407 0)
(400 -688.407 0)
(400 -688.407 0)
(400 -688.407 0)
(400 -688.407 0)
(400 -688.407 0)
(400 -688.407 0)
(400 -688.407 0)
(400 -688.407 0)
(400 -688.407 0)
(400 -688.407 0)
(400 -688.407 0)
(400 -688.407 0)
(400 -688.407 0)
(400 -688.407 0)
(400 -688.407 0)
(400 -688.407 0)
(400 -688.407 0)
(400 -688.407 0)
(400 -688.407 0)
(400 -688.407 0)
(400 -688.407 0)
(400 -688.407 0)
(400 -688.407 0)
(400 -688.407 0)
(400 -688.407 0)
(400 -688.407 0)
(400 -688.407 0)
(400 -688.407 0)
(400 -688.407 0)
(400 -688.407 0)
(400 -688.407 0)
(400 -688.407 0)
(400 -688.407 0)
(400 -688.407 0)
(400 -688.407 0)
(400 -688.407 0)
(400 -688.407 0)
(400 -688.407 0)
(400 -688.407 0)
(400 -688.407 0)
(400 -688.407 0)
(400 -688.407 0)
(400 -688.407 0)
(400 -688.407 0)
(400 -688.407 0)
(400 -688.407 0)
(400 -688.407 0)
(400 -688.407 0)
(400 -688.407 0)
(400 -688.407 0)
(400 -688.407 0)
(400 -688.407 0)
(400 -688.406 0)
(400 -688.406 0)
(400 -688.406 0)
(400 -688.406 0)
(400 -688.406 0)
(400 -688.406 0)
(400 -688.405 0)
(400 -688.405 0)
(400 -688.404 0)
(400 -688.403 0)
(400 -688.402 0)
(400 -688.4 0)
(400 -688.399 0)
(400 -688.396 0)
(400 -688.393 0)
(400 -688.389 0)
(400 -688.384 0)
(400 -688.378 0)
(400 -688.37 0)
(400 -688.361 0)
(400 -688.349 0)
(400 -688.335 0)
(400 -688.317 0)
(400 -688.296 0)
(400 -688.271 0)
(400 -688.24 0)
(400 -688.204 0)
(400 -688.16 0)
(400 -688.109 0)
(400 -688.048 0)
(400 -687.978 0)
(400 -687.895 0)
(400 -687.799 0)
(400 -687.687 0)
(400 -687.559 0)
(400 -687.411 0)
(400 -687.243 0)
(400 -687.051 0)
(400 -686.833 0)
(400 -686.587 0)
(400 -686.309 0)
(400 -685.999 0)
(400 -685.651 0)
(400 -685.264 0)
(400 -684.835 0)
(400 -684.361 0)
(400 -683.838 0)
(400 -683.264 0)
(400 -682.636 0)
(400 -681.951 0)
(400 3.37737e-09 0)
(400 6.89956e-09 0)
(400 1.04544e-08 0)
(400 1.39907e-08 0)
(400 1.74914e-08 0)
(400 2.09415e-08 0)
(400 2.42863e-08 0)
(400 2.74063e-08 0)
(400 3.00923e-08 0)
(400 3.20599e-08 0)
(400 3.29622e-08 0)
(400 3.24452e-08 0)
(400 3.01825e-08 0)
(400 2.59378e-08 0)
(400 1.95871e-08 0)
(400 1.11537e-08 0)
(400 7.94197e-10 0)
(400 -1.12019e-08 0)
(400 -2.44506e-08 0)
(400 -3.84941e-08 0)
(400 -5.28329e-08 0)
(400 -6.69441e-08 0)
(400 -8.02983e-08 0)
(400 -9.23704e-08 0)
(400 -1.0265e-07 0)
(400 -1.10659e-07 0)
(400 -1.15967e-07 0)
(400 -1.18225e-07 0)
(400 -1.17183e-07 0)
(400 -1.12722e-07 0)
(400 -1.0487e-07 0)
(400 -9.38145e-08 0)
(400 -7.98986e-08 0)
(400 -6.36143e-08 0)
(400 -4.55759e-08 0)
(399.999 -2.64783e-08 0)
(400.012 -7.04483e-09 0)
(399.838 1.20245e-08 0)
(402.254 3.00399e-08 0)
(368.573 -8.69e-05 0)
(427.372 -86.9463 0)
(408.775 -161.528 0)
(396.824 -226.38 0)
(397.828 -283.846 0)
(399.693 -334.836 0)
(399.88 -380.021 0)
(399.768 -420.082 0)
(399.808 -455.624 0)
(399.871 -487.171 0)
(399.903 -515.178 0)
(399.923 -540.044 0)
(399.94 -562.118 0)
(399.953 -581.706 0)
(399.963 -599.076 0)
(399.97 -614.467 0)
(399.976 -628.087 0)
(399.98 -640.121 0)
(399.984 -650.734 0)
(399.987 -660.072 0)
(399.989 -668.263 0)
(399.991 -675.423 0)
(399.993 -681.656 0)
(399.994 -687.054 0)
(399.995 -691.698 0)
(399.996 -695.662 0)
(399.996 -699.014 0)
(399.997 -701.81 0)
(399.997 -704.106 0)
(399.998 -705.948 0)
(399.998 -707.379 0)
(399.998 -708.438 0)
(399.998 -709.159 0)
(399.999 -709.573 0)
(399.999 -709.708 0)
(399.999 -709.589 0)
(399.999 -709.239 0)
(399.999 -708.677 0)
(399.999 -707.923 0)
(399.999 -706.992 0)
(399.999 -705.899 0)
(400 -704.657 0)
(400 -703.278 0)
(400 -701.773 0)
(400 -700.152 0)
(400 -698.422 0)
(399.999 -696.592 0)
(400.004 -694.668 0)
(399.985 -692.658 0)
(400.055 -690.56 0)
(399.792 -688.407 0)
(400.165 -688.407 0)
(400.01 -688.407 0)
(399.984 -688.407 0)
(400 -688.407 0)
(400.002 -688.407 0)
(400 -688.407 0)
(400 -688.407 0)
(400 -688.407 0)
(400 -688.407 0)
(400 -688.407 0)
(400 -688.407 0)
(400 -688.407 0)
(400 -688.407 0)
(400 -688.407 0)
(400 -688.407 0)
(400 -688.407 0)
(400 -688.407 0)
(400 -688.407 0)
(400 -688.407 0)
(400 -688.407 0)
(400 -688.407 0)
(400 -688.407 0)
(400 -688.407 0)
(400 -688.407 0)
(400 -688.407 0)
(400 -688.407 0)
(400 -688.407 0)
(400 -688.407 0)
(400 -688.407 0)
(400 -688.407 0)
(400 -688.407 0)
(400 -688.407 0)
(400 -688.407 0)
(400 -688.407 0)
(400 -688.407 0)
(400 -688.407 0)
(400 -688.407 0)
(400 -688.407 0)
(400 -688.407 0)
(400 -688.407 0)
(400 -688.407 0)
(400 -688.407 0)
(400 -688.407 0)
(400 -688.407 0)
(400 -688.407 0)
(400 -688.407 0)
(400 -688.407 0)
(400 -688.407 0)
(400 -688.407 0)
(400 -688.407 0)
(400 -688.407 0)
(400 -688.407 0)
(400 -688.407 0)
(400 -688.407 0)
(400 -688.407 0)
(400 -688.407 0)
(400 -688.407 0)
(400 -688.407 0)
(400 -688.407 0)
(400 -688.407 0)
(400 -688.406 0)
(400 -688.406 0)
(400 -688.406 0)
(400 -688.406 0)
(400 -688.406 0)
(400 -688.406 0)
(400 -688.405 0)
(400 -688.405 0)
(400 -688.404 0)
(400 -688.403 0)
(400 -688.402 0)
(400 -688.4 0)
(400 -688.399 0)
(400 -688.396 0)
(400 -688.393 0)
(400 -688.389 0)
(400 -688.384 0)
(400 -688.378 0)
(400 -688.37 0)
(400 -688.361 0)
(400 -688.349 0)
(400 -688.335 0)
(400 -688.317 0)
(400 -688.296 0)
(400 -688.271 0)
(400 -688.24 0)
(400 -688.204 0)
(400 -688.16 0)
(400 -688.109 0)
(400 -688.048 0)
(400 -687.978 0)
(400 -687.895 0)
(400 -687.799 0)
(400 -687.687 0)
(400 -687.559 0)
(400 -687.411 0)
(400 -687.243 0)
(400 -687.051 0)
(400 -686.833 0)
(400 -686.587 0)
(400 -686.309 0)
(400 -685.999 0)
(400 -685.651 0)
(400 -685.264 0)
(400 -684.835 0)
(400 -684.361 0)
(400 -683.838 0)
(400 -683.264 0)
(400 -682.636 0)
(400 -681.951 0)
(400 2.9588e-09 0)
(400 6.0936e-09 0)
(400 9.29762e-09 0)
(400 1.25088e-08 0)
(400 1.56906e-08 0)
(400 1.87972e-08 0)
(400 2.17477e-08 0)
(400 2.43966e-08 0)
(400 2.65329e-08 0)
(400 2.78826e-08 0)
(400 2.81451e-08 0)
(400 2.70192e-08 0)
(400 2.42568e-08 0)
(400 1.9687e-08 0)
(400 1.32525e-08 0)
(400 5.00879e-09 0)
(400 -4.86919e-09 0)
(400 -1.611e-08 0)
(400 -2.83587e-08 0)
(400 -4.12036e-08 0)
(400 -5.41902e-08 0)
(400 -6.6836e-08 0)
(400 -7.86438e-08 0)
(400 -8.91103e-08 0)
(400 -9.77469e-08 0)
(400 -1.04096e-07 0)
(400 -1.07764e-07 0)
(400 -1.08443e-07 0)
(400 -1.05947e-07 0)
(400 -1.00233e-07 0)
(400 -9.14123e-08 0)
(400 -7.97568e-08 0)
(400 -6.5687e-08 0)
(400 -4.97508e-08 0)
(400 -3.2588e-08 0)
(399.999 -1.48862e-08 0)
(400.012 2.67117e-09 0)
(399.838 1.94417e-08 0)
(402.254 3.47281e-08 0)
(368.573 -8.68984e-05 0)
(427.372 -86.9463 0)
(408.775 -161.528 0)
(396.824 -226.38 0)
(397.828 -283.846 0)
(399.693 -334.836 0)
(399.88 -380.021 0)
(399.768 -420.082 0)
(399.808 -455.624 0)
(399.871 -487.171 0)
(399.903 -515.178 0)
(399.923 -540.044 0)
(399.94 -562.118 0)
(399.953 -581.706 0)
(399.963 -599.076 0)
(399.97 -614.467 0)
(399.976 -628.087 0)
(399.98 -640.121 0)
(399.984 -650.734 0)
(399.987 -660.072 0)
(399.989 -668.263 0)
(399.991 -675.423 0)
(399.993 -681.656 0)
(399.994 -687.054 0)
(399.995 -691.698 0)
(399.996 -695.662 0)
(399.996 -699.014 0)
(399.997 -701.81 0)
(399.997 -704.106 0)
(399.998 -705.948 0)
(399.998 -707.379 0)
(399.998 -708.438 0)
(399.998 -709.159 0)
(399.999 -709.573 0)
(399.999 -709.708 0)
(399.999 -709.589 0)
(399.999 -709.239 0)
(399.999 -708.677 0)
(399.999 -707.923 0)
(399.999 -706.992 0)
(399.999 -705.899 0)
(400 -704.657 0)
(400 -703.278 0)
(400 -701.773 0)
(400 -700.152 0)
(400 -698.422 0)
(399.999 -696.592 0)
(400.004 -694.668 0)
(399.985 -692.658 0)
(400.055 -690.56 0)
(399.792 -688.407 0)
(400.165 -688.407 0)
(400.01 -688.407 0)
(399.984 -688.407 0)
(400 -688.407 0)
(400.002 -688.407 0)
(400 -688.407 0)
(400 -688.407 0)
(400 -688.407 0)
(400 -688.407 0)
(400 -688.407 0)
(400 -688.407 0)
(400 -688.407 0)
(400 -688.407 0)
(400 -688.407 0)
(400 -688.407 0)
(400 -688.407 0)
(400 -688.407 0)
(400 -688.407 0)
(400 -688.407 0)
(400 -688.407 0)
(400 -688.407 0)
(400 -688.407 0)
(400 -688.407 0)
(400 -688.407 0)
(400 -688.407 0)
(400 -688.407 0)
(400 -688.407 0)
(400 -688.407 0)
(400 -688.407 0)
(400 -688.407 0)
(400 -688.407 0)
(400 -688.407 0)
(400 -688.407 0)
(400 -688.407 0)
(400 -688.407 0)
(400 -688.407 0)
(400 -688.407 0)
(400 -688.407 0)
(400 -688.407 0)
(400 -688.407 0)
(400 -688.407 0)
(400 -688.407 0)
(400 -688.407 0)
(400 -688.407 0)
(400 -688.407 0)
(400 -688.407 0)
(400 -688.407 0)
(400 -688.407 0)
(400 -688.407 0)
(400 -688.407 0)
(400 -688.407 0)
(400 -688.407 0)
(400 -688.407 0)
(400 -688.407 0)
(400 -688.407 0)
(400 -688.407 0)
(400 -688.407 0)
(400 -688.407 0)
(400 -688.407 0)
(400 -688.407 0)
(400 -688.406 0)
(400 -688.406 0)
(400 -688.406 0)
(400 -688.406 0)
(400 -688.406 0)
(400 -688.406 0)
(400 -688.405 0)
(400 -688.405 0)
(400 -688.404 0)
(400 -688.403 0)
(400 -688.402 0)
(400 -688.4 0)
(400 -688.399 0)
(400 -688.396 0)
(400 -688.393 0)