 VARIABLES = "X",  "Y"
 ZONE N=          84 , E=         132 , F=FEPOINT, ET=TRIANGLE
        1.0000000000       -0.1570790000
        0.0000000000       -0.1570790000
        1.0000000000        0.1570790000
        0.0000000000        0.1570790000
        0.9230769231       -0.1570790000
        0.8461538462       -0.1570790000
        0.7692307692       -0.1570790000
        0.6923076923       -0.1570790000
        0.6153846154       -0.1570790000
        0.5384615385       -0.1570790000
        0.4615384615       -0.1570790000
        0.3846153846       -0.1570790000
        0.3076923077       -0.1570790000
        0.2307692308       -0.1570790000
        0.1538461538       -0.1570790000
        0.0769230769       -0.1570790000
        1.0000000000        0.0785395000
        1.0000000000       -0.0000000000
        1.0000000000       -0.0785395000
        0.0769230769        0.1570790000
        0.1538461538        0.1570790000
        0.2307692308        0.1570790000
        0.3076923077        0.1570790000
        0.3846153846        0.1570790000
        0.4615384615        0.1570790000
        0.5384615385        0.1570790000
        0.6153846154        0.1570790000
        0.6923076923        0.1570790000
        0.7692307692        0.1570790000
        0.8461538462        0.1570790000
        0.9230769231        0.1570790000
        0.0000000000       -0.0785395000
        0.0000000000        0.0000000000
        0.0000000000        0.0785395000
        0.0426333865        0.0418037906
        0.2628648767       -0.0953833531
        0.8786523499       -0.0991786796
        0.8028968944       -0.1001769334
        0.7259232179       -0.1005121514
        0.6487754412       -0.1009251604
        0.5717243775       -0.1019667337
        0.4949608288       -0.1002711760
        0.9432705374       -0.0927139561
        0.9538483133       -0.0378342333
        0.9025729523       -0.0371613782
        0.8304036557       -0.0354745100
        0.7538753750       -0.0347847132
        0.6768867838       -0.0346117234
        0.6001407377       -0.0346835566
        0.5231575880       -0.0356413038
        0.4179741383       -0.0986774101
        0.9434180653        0.0229817680
        0.8644398326        0.0277247984
        0.7848547725        0.0298179008
        0.7067759358        0.0304262464
        0.6295484646        0.0303343230
        0.5526967999        0.0298745814
        0.4756623524        0.0286931613
        0.4468665484       -0.0342770323
        0.3407280759       -0.0971190493
        0.3703148404       -0.0330569703
        0.3993074983        0.0297100812
        0.9086547781        0.0888444546
        0.8180566830        0.0924779040
        0.7377939414        0.0931369128
        0.6598413552        0.0928924478
        0.5825565981        0.0922690775
        0.5054574893        0.0914312163
        0.4281402334        0.0903234632
        0.3513155383        0.0916899381
        0.2933903618       -0.0317448367
        0.3226855446        0.0308061195
        0.2741304665        0.0934243178
        0.0537344737        0.0964869242
        0.1227702811        0.0970445787
        0.1974907248        0.0953165615
        0.2460234526        0.0322449660
        0.0993248920        0.0365857975
        0.1701915711        0.0341249542
        0.0590109850       -0.0221601301
        0.2158034049       -0.0299600393
        0.1370230547       -0.0270371574
        0.1828157462       -0.0929471846
        0.0926180450       -0.0881031881
 
         2        16        32
        16        84        32
        32        84        80
        16        15        84
        84        82        80
        32        80        33
        83        84        15
        82        78        80
        83        82        84
        33        80        35
        14        83        15
        35        80        78
        82        79        78
        83        81        82
        33        35        34
        83        14        36
        35        78        74
        75        78        79
        81        79        82
        83        36        81
        35        74        34
        36        14        13
        75        74        78
        76        75        79
        81        77        79
        36        71        81
        34        74         4
        60        36        13
        75        20        74
        79        77        76
        76        21        75
        77        81        71
        60        71        36
        74        20         4
        12        60        13
        21        20        75
        77        73        76
        22        21        76
        77        71        72
        61        71        60
        12        51        60
        76        73        22
        72        73        77
        61        72        71
        51        61        60
        11        51        12
        73        23        22
        72        70        73
        62        72        61
        59        61        51
        11        42        51
        73        70        23
        70        72        62
        59        62        61
        42        59        51
        42        11        10
        70        24        23
        70        62        69
        58        62        59
        50        59        42
        42        10        41
        69        24        70
        69        62        58
        59        50        58
        50        42        41
        41        10         9
        25        24        69
        69        58        68
        50        57        58
        50        41        49
        40        41         9
        68        25        69
        68        58        57
        49        57        50
        40        49        41
         8        40         9
        26        25        68
        68        57        67
        56        57        49
        48        49        40
        39        40         8
        67        26        68
        56        67        57
        48        56        49
        39        48        40
         7        39         8
        27        26        67
        66        67        56
        55        56        48
        47        48        39
         7        38        39
        67        66        27
        55        66        56
        47        55        48
        38        47        39
         6        38         7
        66        28        27
        65        66        55
        54        55        47
        46        47        38
         6        37        38
        66        65        28
        54        65        55
        46        54        47
        37        46        38
         6         5        37
        65        29        28
        64        65        54
        53        54        46
        37        45        46
        37         5        43
        65        64        29
        53        64        54
        46        45        53
        37        43        45
        43         5         1
        64        30        29
        63        64        53
        45        52        53
        45        43        44
        19        43         1
        64        63        30
        52        63        53
        44        52        45
        44        43        19
        63        31        30
        17        63        52
        18        52        44
        18        44        19
        17        31        63
        17        52        18
        17         3        31
