VARIABLES = "x"
 "y"
 "Density"
 "Momentum_x"
 "Momentum_y"
 "Energy"
 "Pressure"
 "Temperature"
 "Mach"
 "C<sub>p</sub>"
 "Roe_Dissipation"
ZONE
DT=(DOUBLE,DOUBLE,DOUBLE,DOUBLE,DOUBLE,DOUBLE,DOUBLE,DOUBLE,DOUBLE,DOUBLE,DOUBLE)
                  -0.15                   0.025        1.22451305389404         55.638069197613    4.29592919566885E-09            254412.40625        101259.296875631        288.072601318359       0.133539199829102     -0.0547716617384747                       0 
      -0.14965965965966                   0.025        1.22451305389404         55.638069152832   -7.14850696488157E-08            254412.40625        101259.332958104        288.072601318359       0.133539199829102     -0.0547705225796101                       0 
     -0.149319319319319                   0.025        1.22451305389404         55.638069152832   -1.47040375920497E-07            254412.40625        101259.369042073        288.072601318359       0.133539199829102     -0.0547693834174286                       0 
     -0.148978978978979                   0.025        1.22451305389404         55.638069152832   -2.19063802609952E-07            254412.40625          101259.3984375        288.072601318359       0.133539199829102     -0.0547682914525363                       0 
     -0.148638638638639                   0.025        1.22451305389404         55.638069152832    -2.7556499646397E-07            254412.40625          101259.3984375        288.072601318359       0.133539199829102     -0.0547674069146797                       0 
     -0.148298298298298                   0.025        1.22451305389404         55.638069152832   -3.34374326568502E-07            254412.40625          101259.3984375        288.072601318359       0.133539199829102      -0.054766522348474                       0 
     -0.147957957957958                   0.025        1.22451305389404         55.638069152832   -3.85514994456973E-07            254412.40625          101259.3984375        288.072601318359       0.133539199829102     -0.0547655906003363                       0 
     -0.147617617617618                   0.025        1.22451305389404         55.638069152832   -4.23301334989728E-07            254412.40625          101259.3984375        288.072601318359       0.133539199829102     -0.0547646290966259                       0 
     -0.147277277277277                   0.025        1.22451305389404         55.638069152832   -4.60950345632126E-07            254412.40625          101259.3984375        288.072601318359       0.133539199829102     -0.0547636675788728                       0 
     -0.146936936936937                   0.025         1.2245134045608         55.638069152832   -4.74660545770949E-07            254412.40625          101259.3984375        288.072601318359       0.133539199829102      -0.054762745973589                       0 
     -0.146596596596597                   0.025        1.22451376074945         55.638069152832   -4.90066069113866E-07            254412.40625          101259.3984375        288.072601318359       0.133539199829102     -0.0547618253702286                       0 
     -0.146256256256256                   0.025        1.22451400756836         55.638069152832   -5.02646319121536E-07            254412.40625          101259.3984375        288.072601318359       0.133539199829102     -0.0547609018543979                       0 
     -0.145915915915916                   0.025        1.22451400756836         55.638069152832   -5.01829500842711E-07            254412.40625          101259.3984375        288.072601318359       0.133539199829102     -0.0547599705495868                       0 
     -0.145575575575576                   0.025        1.22451400756836         55.638069152832   -5.05641924495753E-07            254412.40625          101259.3984375        288.072601318359       0.133539199829102     -0.0547590398704187                       0 
     -0.145235235235235                   0.025        1.22451400756836         55.638069152832   -5.02927688379495E-07            254412.40625          101259.3984375        288.072601318359       0.133539199829102     -0.0547581121268109                       0 
     -0.144894894894895                   0.025        1.22451400756836         55.638069152832    -4.9487704785847E-07            254412.40625          101259.3984375        288.072601318359       0.133539199829102     -0.0547571856634986                       0 
     -0.144554554554555                   0.025        1.22451400756836         55.638069152832   -4.85761437638313E-07            254412.40625          101259.3984375        288.072601318359       0.133539199829102     -0.0547562585802278                       0 
     -0.144214214214214                   0.025        1.22451400756836         55.638069152832    -4.6822233618435E-07            254412.40625          101259.3984375        288.072601318359       0.133539164082413     -0.0547553254612667                       0 
     -0.143873873873874                   0.025        1.22451400756836         55.638069152832      -4.50515498604E-07            254412.40625          101259.3984375        288.072601318359       0.133539125078885     -0.0547543917575099                       0 
     -0.143533533533534                   0.025        1.22451400756836        55.6380684562543    -4.3717993224941E-07            254412.40625          101259.3984375        288.072601318359       0.133539095520973     -0.0547534582442816                       0 
     -0.143193193193193                   0.025        1.22451400756836        55.6380655840073   -4.16494246668086E-07            254412.40625          101259.3984375        288.072601318359       0.133539095520973     -0.0547525266601195                       0 
     -0.142852852852853                   0.025        1.22451400756836         55.638062712514   -3.93392501623978E-07            254412.40625          101259.3984375        288.072601318359       0.133539095520973     -0.0547515953175322                       0 
     -0.142512512512513                   0.025        1.22451400756836        55.6380615234375   -3.67597980692658E-07            254412.40625          101259.3984375        288.072601318359       0.133539095520973      -0.054750660785972                       0 
     -0.142172172172172                   0.025        1.22451400756836        55.6380615234375   -3.39900294964541E-07            254412.40625          101259.3984375        288.072601318359       0.133539095520973     -0.0547497240005515                       0 
     -0.141831831831832                   0.025        1.22451400756836        55.6380615234375   -3.14665577529999E-07            254412.40625          101259.3984375        288.072601318359       0.133539095520973     -0.0547487871955518                       0 
     -0.141491491491491                   0.025        1.22451400756836        55.6380615234375   -2.87380409559936E-07        254412.439661815          101259.3984375        288.072601318359       0.133539095520973     -0.0547478526482581                       0 
     -0.141151151151151                   0.025        1.22451400756836        55.6380615234375   -2.57275960165186E-07        254412.475179473          101259.3984375        288.072601318359       0.133539095520973     -0.0547469172822781                       0 
     -0.140810810810811                   0.025        1.22451400756836        55.6380615234375   -2.27222953655579E-07                254412.5          101259.3984375        288.072601318359       0.133539095520973     -0.0547459823932505                       0 
      -0.14047047047047                   0.025        1.22451400756836        55.6380615234375   -1.97289309945494E-07                254412.5          101259.3984375        288.072601318359       0.133539095520973     -0.0547450486108943                       0 
      -0.14013013013013                   0.025        1.22451400756836        55.6380615234375   -1.67355666235412E-07                254412.5          101259.3984375        288.072601318359       0.133539095520973     -0.0547441148285381                       0 
      -0.13978978978979                   0.025        1.22451400756836        55.6380615234375   -1.40217716689665E-07                254412.5          101259.3984375        288.072601318359       0.133539095520973     -0.0547431785109415                       0 
     -0.139449449449449                   0.025        1.22451400756836        55.6380615234375   -1.11062605235365E-07                254412.5          101259.3984375        288.072601318359       0.133539095520973     -0.0547422417677622                       0 
     -0.139109109109109                   0.025        1.22451400756836        55.6380615234375   -8.20205186461125E-08                254412.5          101259.3984375        288.072601318359       0.133539095520973      -0.054741305110535                       0 
     -0.138768768768769                   0.025        1.22451400756836        55.6380615234375   -5.63839414093538E-08                254412.5          101259.3984375        288.072601318359       0.133539095520973     -0.0547403710430942                       0 
     -0.138428428428428                   0.025        1.22451400756836        55.6380615234375   -3.07473641725973E-08                254412.5          101259.3984375        288.072601318359       0.133539095520973     -0.0547394369756534                       0 
     -0.138088088088088                   0.025        1.22451400756836        55.6380615234375   -6.52624506835684E-09                254412.5          101259.3984375        288.072601318359       0.133539095520973     -0.0547385022203681                       0 
     -0.137747747747748                   0.025        1.22451400756836        55.6380615234375    1.72230149491608E-08                254412.5          101259.3984375        288.072601318359       0.133539095520973     -0.0547375664725572                       0 
     -0.137407407407407                   0.025        1.22451400756836        55.6380615234375    4.09722749666803E-08                254412.5          101259.3984375        288.072601318359       0.133539095520973     -0.0547366307247463                       0 
     -0.137067067067067                   0.025        1.22451400756836        55.6380615234375    6.13547297841825E-08                254412.5          101259.3984375        288.072601318359       0.133539095520973     -0.0547356970832109                       0 
     -0.136726726726727                   0.025        1.22451400756836        55.6380615234375    8.07846981508912E-08                254412.5          101259.3984375        288.072601318359       0.133539095520973     -0.0547347640375515                       0 
     -0.136386386386386                   0.025        1.22451400756836        55.6380608236913    1.00248920405019E-07                254412.5          101259.3984375        288.072601318359       0.133539095520973     -0.0547338307948465                       0 
     -0.136046046046046                   0.025        1.22451400756836        55.6380564490038    1.18607593025715E-07                254412.5          101259.3984375        288.072601318359       0.133539095520973     -0.0547328964941626                       0 
     -0.135705705705706                   0.025        1.22451400756836        55.6380520743163     1.3696626564641E-07                254412.5          101259.3984375        288.072601318359       0.133539095520973     -0.0547319621934787                       0 
     -0.135365365365365                   0.025        1.22451400756836        55.6380500793457    1.53268585650769E-07                254412.5          101259.3984375        288.072601318359       0.133539095520973     -0.0547310265466082                       0 
     -0.135025025025025                   0.025        1.22451400756836        55.6380500793457    1.67847018651471E-07                254412.5          101259.3984375        288.072601318359       0.133539095520973     -0.0547300897711991                       0 
     -0.134684684684685                   0.025        1.22451400756836        55.6380500793457    1.82757045546072E-07                254412.5          101259.3984375        288.072601318359       0.133539095520973     -0.0547291529957899                       0 
     -0.134344344344344                   0.025        1.22451400756836        55.6380500793457    1.97896227516032E-07                254412.5          101259.3984375        288.072601318359       0.133539095520973     -0.0547282208400066                       0 
     -0.134004004004004                   0.025        1.22451400756836        55.6380500793457    2.12742800379796E-07                254412.5          101259.3984375        288.072601318359       0.133539095520973     -0.0547272890256648                       0 
     -0.133663663663664                   0.025        1.22451400756836        55.6380500793457    2.26602043541291E-07                254412.5          101259.3984375        288.072601318359       0.133539095520973     -0.0547263566194382                       0 
     -0.133323323323323                   0.025        1.22451400756836        55.6380500793457    2.38363272974344E-07                254412.5          101259.3984375        288.072601318359       0.133539095520973     -0.0547254229554938                       0 
     -0.132982982982983                   0.025        1.22451400756836        55.6380500793457    2.50124502407396E-07                254412.5          101259.3984375        288.072601318359       0.133539095520973     -0.0547244892915494                       0 
     -0.132642642642643                   0.025        1.22451400756836        55.6380500793457    2.63679963970983E-07                254412.5          101259.3984375        288.072601318359       0.133539095520973       -0.05472355540851                       0 
     -0.132302302302302                   0.025        1.22451400756836        55.6380500793457    2.76748145392374E-07                254412.5          101259.3984375        288.072601318359       0.133539095520973     -0.0547226214388323                       0 
     -0.131961961961962                   0.025        1.22451400756836        55.6380500793457    2.89551065223886E-07                254412.5          101259.3984375        288.072601318359       0.133539095520973     -0.0547216878923101                       0 
     -0.131621621621622                   0.025        1.22451400756836        55.6380500793457    3.00002386539505E-07                254412.5          101259.3984375        288.072601318359       0.133539095520973     -0.0547207580971478                       0 
     -0.131281281281281                   0.025        1.22451400756836        55.6380500793457    3.10453707855123E-07                254412.5          101259.3984375        288.072601318359       0.133539095520973     -0.0547198283019854                       0 
     -0.130940940940941                   0.025        1.22451400756836        55.6380500793457    3.22828867539058E-07                254412.5          101259.3984375        288.072601318359       0.133539095520973     -0.0547188984596166                       0 
     -0.130600600600601                   0.025        1.22451400756836        55.6380500793457    3.35168184379072E-07                254412.5          101259.3984375        288.072601318359       0.133539095520973     -0.0547179685631431                       0 
      -0.13026026026026                   0.025        1.22451400756836        55.6380500793457    3.47507501219087E-07                254412.5          101259.3984375        288.072601318359       0.133539095520973     -0.0547170386666697                       0 
      -0.12991991991992                   0.025        1.22451400756836        55.6380500793457    3.57752176788052E-07                254412.5          101259.3984375        288.072601318359        0.13353906520283     -0.0547161087701937                       0 
      -0.12957957957958                   0.025        1.22451400756836        55.6380500793457    3.67723278406892E-07                254412.5          101259.3984375        288.072601318359       0.133539030924938     -0.0547151788737174                       0 
     -0.129239239239239                   0.025        1.22451400756836        55.6380500793457    3.79478923221097E-07        254412.509927049          101259.3984375        288.072601318359       0.133539006114006     -0.0547142501549478                       0 
     -0.128898898898899                   0.025        1.22451400756836        55.6380500793457     3.9140678017272E-07        254412.545872033          101259.3984375        288.072601318359       0.133539006114006     -0.0547133244915366                       0 
     -0.128558558558559                   0.025        1.22451400756836        55.6380500793457    4.03467035614168E-07         254412.58181739          101259.3984375        288.072601318359       0.133539006114006     -0.0547123988185277                       0 
     -0.128218218218218                   0.025        1.22451400756836        55.6380471481511    4.14013638449915E-07            254412.59375          101259.3984375        288.072601318359       0.133539006114006     -0.0547114731558974                       0 
     -0.127877877877878                   0.025        1.22451400756836        55.6380427603633     4.2380806466275E-07            254412.59375          101259.3984375        288.072601318359       0.133539006114006     -0.0547105474984245                       0 
     -0.127537537537538                   0.025        1.22451400756836        55.6380386352539    4.35181461578218E-07            254412.59375          101259.3984375        288.072601318359       0.133539006114006      -0.054709621984594                       0 
     -0.127197197197197                   0.025        1.22451400756836        55.6380386352539     4.4663611049867E-07            254412.59375          101259.3984375        288.072601318359       0.133539006114006     -0.0547086991947103                       0 
     -0.126856856856857                   0.025        1.22451400756836        55.6380386352539    4.58428106788121E-07            254412.59375          101259.3984375        288.072601318359       0.133539006114006     -0.0547077763783816                       0 
     -0.126516516516517                   0.025        1.22451400756836        55.6380386352539    4.69203034533105E-07            254412.59375          101259.3984375        288.072601318359       0.133539006114006     -0.0547068542142778                       0 
     -0.126176176176176                   0.025        1.22451400756836        55.6380386352539    4.78743585731777E-07            254412.59375          101259.3984375        288.072601318359       0.133539006114006     -0.0547059328417539                       0 
     -0.125835835835836                   0.025        1.22451400756836        55.6380386352539    4.89401947445823E-07            254412.59375          101259.3984375        288.072601318359       0.133539006114006       -0.05470501146923                       0 
     -0.125495495495495                   0.025        1.22451400756836        55.6380386352539    5.00356300187788E-07            254412.59375          101259.3984375        288.072601318359       0.133539006114006     -0.0547040888937413                       0 
     -0.125155155155155                   0.025        1.22451400756836        55.6380386352539    5.11578984430228E-07            254412.59375          101259.3984375        288.072601318359       0.133539006114006     -0.0547031661307451                       0 
     -0.124814814814815                   0.025        1.22451400756836        55.6380386352539    5.22264987920542E-07            254412.59375          101259.3984375        288.072601318359       0.133539006114006     -0.0547022443524897                       0 
     -0.124474474474474                   0.025        1.22451400756836        55.6380386352539    5.31207106875348E-07            254412.59375          101259.3984375        288.072601318359       0.133539006114006     -0.0547013257740404                       0 
     -0.124134134134134                   0.025        1.22451400756836        55.6380386352539    5.40804341903551E-07            254412.59375          101259.3984375        288.072601318359       0.133539006114006     -0.0547004072138781                       0 
     -0.123793793793794                   0.025        1.22451400756836        55.6380386352539     5.5090698028829E-07            254412.59375          101259.3984375        288.072623338162       0.133539006114006     -0.0546994886864965                       0 
     -0.123453453453453                   0.025        1.22451400756836        55.6380386352539    5.60960407955856E-07            254412.59375          101259.3984375        288.072658439145       0.133539006114006     -0.0546985702050776                       0 
     -0.123113113113113                   0.025        1.22451400756836        55.6380386352539    5.71022753228211E-07            254412.59375          101259.3984375        288.072692871094       0.133539006114006     -0.0546976518103721                       0 
     -0.122772772772773                   0.025        1.22451400756836        55.6380386352539    5.78822306064239E-07            254412.59375          101259.3984375        288.072692871094       0.133539006114006     -0.0546967375209277                       0 
     -0.122432432432432                   0.025        1.22451400756836        55.6380386352539    5.86915568443419E-07            254412.59375          101259.3984375        288.072692871094       0.133539006114006     -0.0546958232445684                       0 
     -0.122092092092092                   0.025        1.22451400756836        55.6380386352539    5.95561221824304E-07            254412.59375          101259.3984375        288.072692871094       0.133539006114006     -0.0546949090067093                       0 
     -0.121751751751752                   0.025        1.22451400756836        55.6380386352539    6.03773859642329E-07            254412.59375          101259.3984375        288.072692871094       0.133539006114006     -0.0546939947933583                       0 
     -0.121411411411411                   0.025        1.22451400756836        55.6380386352539    6.12080461268227E-07            254412.59375          101259.3984375        288.072692871094       0.133539006114006     -0.0546930806036716                       0 
     -0.121071071071071                   0.025        1.22451400756836        55.6380386352539    6.18592595203676E-07            254412.59375          101259.3984375        288.072692871094       0.133539006114006     -0.0546921686272512                       0 
     -0.120730730730731                   0.025        1.22451400756836        55.6380386352539    6.24724933972773E-07            254412.59375          101259.3984375        288.072692871094       0.133539006114006     -0.0546912572011683                       0 
      -0.12039039039039                   0.025        1.22451400756836        55.6380380656929    6.31164137108226E-07            254412.59375          101259.3984375        288.072692871094       0.133539006114006     -0.0546903460997231                       0 
      -0.12005005005005                   0.025        1.22451400756836        55.6380351405039    6.37037845428955E-07            254412.59375          101259.3984375        288.072692871094       0.133539006114006     -0.0546894361545989                       0 
      -0.11970970970971                   0.025        1.22451400756836         55.638032215444    6.42973877581524E-07            254412.59375          101259.3984375        288.072692871094       0.133539006114006     -0.0546885262496678                       0 
     -0.119369369369369                   0.025        1.22451400756836        55.6380310058594     6.4771164479063E-07            254412.59375          101259.3984375        288.072692871094       0.133539006114006     -0.0546876179619569                       0 
     -0.119029029029029                   0.025        1.22451400756836        55.6380310058594    6.51604224327741E-07            254412.59375          101259.3984375        288.072692871094       0.133539006114006     -0.0546867108145983                       0 
     -0.118688688688689                   0.025        1.22451400756836        55.6380310058594    6.55167089022521E-07            254412.59375          101259.3984375        288.072692871094       0.133539006114006     -0.0546858037215031                       0 
     -0.118348348348348                   0.025        1.22451400756836        55.6380310058594    6.58301794077489E-07            254412.59375        101259.436537492        288.072692871094       0.133539006114006     -0.0546849008134567                       0 
     -0.118008008008008                   0.025        1.22451400756836        55.6380310058594    6.61465323941322E-07            254412.59375        101259.475476077        288.072692871094       0.133539006114006     -0.0546839980454339                       0 
     -0.117667667667668                   0.025        1.22451400756836        55.6380310058594    6.64002501520996E-07            254412.59375                101259.5        288.072692871094       0.133539006114006     -0.0546830952452947                       0 
     -0.117327327327327                   0.025        1.22451400756836        55.6380310058594    6.65468099046762E-07            254412.59375                101259.5        288.072692871094       0.133539006114006     -0.0546821923831117                       0 
     -0.116986986986987                   0.025        1.22451400756836        55.6380310058594    6.65827576147505E-07            254412.59375                101259.5        288.072692871094       0.133539006114006     -0.0546812895651888                       0 
     -0.116646646646647                   0.025        1.22451400756836        55.6380310058594    6.66028745071787E-07        254412.625710287                101259.5        288.072692871094       0.133539006114006     -0.0546803889303213                       0 
     -0.116306306306306                   0.025        1.22451400756836        55.6380310058594    6.66276746519531E-07        254412.667644847                101259.5        288.072692871094       0.133539006114006     -0.0546794890038452                       0 
     -0.115965965965966                   0.025        1.22451400756836        55.6380310058594    6.66358736484092E-07           254412.703125                101259.5        288.072692871094       0.133539006114006     -0.0546785893013941                       0 
     -0.115625625625626                   0.025        1.22451400756836        55.6380310058594    6.65344242422196E-07           254412.703125                101259.5        288.072692871094       0.133539006114006     -0.0546776907244349                       0 
     -0.115285285285285                   0.025        1.22451400756836        55.6380310058594    6.62639014279088E-07           254412.703125                101259.5        288.072692871094       0.133539006114006     -0.0546767921855745                       0 
     -0.114944944944945                   0.025        1.22451400756836        55.6380310058594    6.59643663306125E-07           254412.703125                101259.5        288.072692871094        0.13353898428458     -0.0546758952178149                       0 
     -0.114604604604605                   0.025        1.22451400756836        55.6380310058594    6.56864900982866E-07           254412.703125                101259.5        288.072692871094       0.133538944291988     -0.0546749995609809                       0 
     -0.114264264264264                   0.025        1.22451400756836        55.6380310058594    6.54137600049845E-07           254412.703125                101259.5        288.072692871094       0.133538904300935     -0.0546741039385688                       0 
     -0.113923923923924                   0.025        1.22451400756836        55.6380310058594    6.50697112804044E-07           254412.703125                101259.5        288.072692871094       0.133538901805878     -0.0546732122423887                       0 
     -0.113583583583584                   0.025        1.22451400756836        55.6380310058594    6.45157119176684E-07           254412.703125                101259.5        288.072692871094       0.133538901805878     -0.0546723208393606                       0 
     -0.113243243243243                   0.025        1.22451400756836        55.6380310058594    6.38805775216327E-07           254412.703125                101259.5        288.072692871094       0.133538901805878     -0.0546714303953643                       0 
     -0.112902902902903                   0.025        1.22451400756836        55.6380310058594    6.33116197328097E-07           254412.703125                101259.5        288.072692871094       0.133538901805878     -0.0546705418666576                       0 
     -0.112562562562563                   0.025        1.22451400756836        55.6380310058594    6.27447577503151E-07           254412.703125                101259.5        288.072692871094       0.133538901805878     -0.0546696533838215                       0 
     -0.112222222222222                   0.025        1.22451400756836        55.6380278406283    6.21720655628532E-07           254412.703125                101259.5        288.072692871094       0.133538901805878     -0.0546687658577022                       0 