VARIABLES = "x"
 "y"
 "Density"
 "Momentum_x"
 "Momentum_y"
 "Energy"
 "Grid_Velocity_x"
 "Grid_Velocity_y"
 "Pressure"
 "Temperature"
 "Mach"
 "C<sub>p</sub>"
 "Roe_Dissipation"
ZONE
DT=(DOUBLE,DOUBLE,DOUBLE,DOUBLE,DOUBLE,DOUBLE,DOUBLE,DOUBLE,DOUBLE,DOUBLE,DOUBLE,DOUBLE,DOUBLE)
                  -0.15                   0.045        1.22807502746582        45.8138809204102    5.90327236054445E-09           255034.203125                       0       -30.6800003051758          101671.8984375        288.407409667969        0.10957720130682        0.48906010389328                       0 
     -0.149824912456228                   0.045        1.22807502746582        45.8138809204102    8.77414646447844E-09           255034.203125                       0       -30.6800003051758          101671.8984375        288.407409667969        0.10957720130682        0.48906010389328                       0 
     -0.149649824912456                   0.045        1.22807502746582        45.8138809204102     1.1347063901744E-08           255034.203125                       0       -30.6800003051758          101671.8984375        288.407409667969        0.10957720130682        0.48906010389328                       0 
     -0.149474737368684                   0.045        1.22807502746582        45.8138809204102      1.391998133901E-08           255034.203125                       0       -30.6800003051758          101671.8984375        288.407409667969        0.10957720130682        0.48906010389328                       0 
     -0.149299649824912                   0.045        1.22807502746582        45.8138809204102    1.64928987762756E-08           255034.203125                       0       -30.6800003051758          101671.8984375        288.407409667969        0.10957720130682        0.48906010389328                       0 
     -0.149124562281141                   0.045        1.22807502746582        45.8138809204102      1.863715104699E-08           255034.203125                       0       -30.6800003051758          101671.8984375        288.407409667969        0.10957720130682       0.489060092325423                       0 
     -0.148949474737369                   0.045        1.22807502746582        45.8138809204102     2.0532390119767E-08           255034.203125                       0       -30.6800003051758          101671.8984375        288.407409667969        0.10957720130682       0.489060073969223                       0 
     -0.148774387193597                   0.045        1.22807502746582        45.8138809204102      2.281537032012E-08           255034.203125                       0       -30.6800003051758          101671.8984375        288.407409667969        0.10957720130682       0.489060059416066                       0 
     -0.148599299649825                   0.045        1.22807502746582        45.8138809204102    2.50983505204727E-08           255034.203125                       0       -30.6800003051758          101671.8984375        288.407409667969        0.10957720130682       0.489060044862909                       0 
     -0.148424212106053                   0.045        1.22807502746582        45.8138809204102    2.73813307208254E-08           255034.203125                       0       -30.6800003051758          101671.8984375        288.407409667969        0.10957720130682       0.489060030309752                       0 
     -0.148249124562281                   0.045        1.22807502746582        45.8138809204102    2.96643109211781E-08           255034.203125                       0       -30.6800003051758          101671.8984375        288.407409667969        0.10957720130682       0.489060015756596                       0 
     -0.148074037018509                   0.045        1.22807502746582        45.8138809204102    3.32192054350204E-08           255034.203125                       0       -30.6800003051758          101671.8984375        288.407409667969        0.10957720130682       0.489060014486313                       0 
     -0.147898949474737                   0.045        1.22807502746582        45.8138809204102    3.68957370815597E-08           255034.203125                       0       -30.6800003051758          101671.8984375        288.407409667969        0.10957720130682       0.489060014486313                       0 
     -0.147723861930965                   0.045        1.22807502746582        45.8138809204102    4.02451058233165E-08           255034.203125                       0       -30.6800003051758          101671.8984375        288.407409667969        0.10957720130682       0.489059997749942                       0 
     -0.147548774387194                   0.045        1.22807502746582        45.8138809204102    4.35508753073399E-08           255034.203125                       0       -30.6800003051758          101671.8984375        288.407409667969        0.10957720130682       0.489059978783205                       0 
     -0.147373686843422                   0.045        1.22807502746582        45.8138809204102    4.68566447913638E-08           255034.203125                       0       -30.6800003051758          101671.8984375        288.407409667969        0.10957720130682       0.489059959816468                       0 
      -0.14719859929965                   0.045        1.22807502746582        45.8138809204102    5.01624142753873E-08           255034.203125                       0       -30.6800003051758          101671.8984375        288.407409667969        0.10957720130682       0.489059940849731                       0 
     -0.147023511755878                   0.045        1.22807502746582        45.8138809204102    5.48643591641011E-08           255034.203125                       0       -30.6800003051758          101671.8984375        288.407409667969        0.10957720130682       0.489059920993396                       0 
     -0.146848424212106                   0.045        1.22807502746582        45.8138809204102    5.95921543768873E-08           255034.203125                       0       -30.6800003051758          101671.8984375        288.407409667969        0.10957720130682       0.489059901120591                       0 
     -0.146673336668334                   0.045        1.22807502746582        45.8138809204102    6.46934567748973E-08           255034.203125                       0       -30.6800003051758          101671.8984375        288.407409667969        0.10957720130682       0.489059895277023                       0 
     -0.146498249124562                   0.045        1.22807502746582        45.8138809204102    6.99503353233409E-08           255034.203125                       0       -30.6800003051758          101671.8984375        288.407409667969        0.10957720130682       0.489059895277023                       0 
      -0.14632316158079                   0.045        1.22807502746582        45.8138809204102    7.52072138717846E-08           255034.203125                       0       -30.6800003051758          101671.8984375        288.407409667969        0.10957720130682       0.489059895277023                       0 
     -0.146148074037019                   0.045        1.22807502746582        45.8138809204102    8.02553022993766E-08           255034.203125                       0       -30.6800003051758          101671.8984375        288.407409667969        0.10957720130682       0.489059891101596                       0 
     -0.145972986493247                   0.045        1.22807502746582        45.8138809204102    8.47156905170051E-08           255034.203125                       0       -30.6800003051758          101671.8984375        288.407409667969        0.10957720130682       0.489059875173221                       0 
     -0.145797898949475                   0.045        1.22807502746582        45.8138809204102    8.91760787346328E-08           255034.203125                       0       -30.6800003051758          101671.8984375        288.407409667969        0.10957720130682       0.489059859244846                       0 
     -0.145622811405703                   0.045        1.22807502746582        45.8138809204102    9.39465922050871E-08           255034.203125                       0       -30.6800003051758          101671.8984375        288.407409667969        0.10957720130682       0.489059843249802                       0 
     -0.145447723861931                   0.045        1.22807502746582        45.8138809204102    9.88345253420253E-08           255034.203125                       0       -30.6800003051758          101671.8984375        288.407409667969        0.10957720130682       0.489059827229515                       0 
     -0.145272636318159                   0.045        1.22807502746582        45.8138809204102    1.03722458478964E-07           255034.203125                       0       -30.6800003051758          101671.8984375        288.407409667969        0.10957720130682       0.489059811209229                       0 
     -0.145097548774387                   0.045        1.22807502746582        45.8138809204102    1.08173225375457E-07           255034.203125                       0       -30.6800003051758          101671.8984375        288.407409667969        0.10957720130682       0.489059805870056                       0 
     -0.144922461230615                   0.045        1.22807502746582        45.8138809204102    1.12405465825217E-07           255034.203125                       0       -30.6800003051758          101671.8984375        288.407409667969        0.10957720130682       0.489059805870056                       0 
     -0.144747373686843                   0.045        1.22807502746582        45.8138809204102    1.16637706274978E-07           255034.203125                       0       -30.6800003051758          101671.8984375        288.407409667969        0.10957720130682       0.489059805870056                       0 
     -0.144572286143072                   0.045        1.22807502746582        45.8138809204102    1.20885197427644E-07           255034.203125                       0       -30.6800003051758          101671.8984375        288.407409667969        0.10957720130682       0.489059788529555                       0 
       -0.1443971985993                   0.045        1.22807502746582        45.8138809204102     1.2513536046872E-07           255034.203125                       0       -30.6800003051758          101671.8984375        288.407409667969        0.10957720130682       0.489059768151038                       0 
     -0.144222111055528                   0.045        1.22807502746582        45.8138809204102    1.29313975617503E-07           255034.203125                       0       -30.6800003051758          101671.8984375        288.407409667969        0.10957720130682       0.489059747760709                       0 
     -0.144047023511756                   0.045        1.22807502746582        45.8138809204102    1.32859448285491E-07           255034.203125                       0       -30.6800003051758          101671.8984375        288.407409667969        0.10957720130682       0.489059727265855                       0 
     -0.143871935967984                   0.045        1.22807502746582        45.8138809204102     1.3640492095348E-07           255034.203125                       0       -30.6800003051758          101671.8984375        288.407409667969        0.10957720130682       0.489059706771001                       0 
     -0.143696848424212                   0.045        1.22807502746582        45.8138809204102    1.39950579085176E-07           255034.203125                       0       -30.6800003051758          101671.8984375        288.407409667969        0.10957720130682       0.489059686660767                       0 
      -0.14352176088044                   0.045        1.22807502746582        45.8138809204102    1.43505934371343E-07           255034.203125                       0       -30.6800003051758          101671.8984375        288.407409667969        0.10957720130682       0.489059686660767                       0 
     -0.143346673336668                   0.045        1.22807502746582        45.8138809204102    1.47061289657509E-07           255034.203125                       0       -30.6800003051758          101671.8984375        288.407409667969        0.10957720130682       0.489059686660767                       0 
     -0.143171585792896                   0.045        1.22807502746582        45.8138809204102    1.50405041938614E-07           255034.203125                       0       -30.6800003051758          101671.8984375        288.407409667969        0.10957720130682       0.489059686660767                       0 
     -0.142996498249125                   0.045        1.22807502746582        45.8138809204102    1.53555389131973E-07           255034.203125                       0       -30.6800003051758          101671.8984375        288.407409667969        0.10957720130682       0.489059686660767                       0 
     -0.142821410705353                   0.045        1.22807502746582        45.8138809204102    1.56705736325332E-07           255034.203125                       0       -30.6800003051758          101671.8984375        288.407409667969        0.10957720130682       0.489059686660767                       0 
     -0.142646323161581                   0.045        1.22807502746582        45.8138809204102    1.59874383901813E-07           255034.203125                       0       -30.6800003051758          101671.8984375        288.407409667969        0.10957720130682        0.48905968341662                       0 
     -0.142471235617809                   0.045        1.22807502746582        45.8138809204102    1.63111741089266E-07           255034.203125                       0       -30.6800003051758          101671.8984375        288.407409667969        0.10957720130682       0.489059667992179                       0 
     -0.142296148074037                   0.045        1.22807502746582        45.8138809204102    1.66349098276718E-07           255034.203125                       0       -30.6800003051758          101671.8984375        288.407409667969        0.10957720130682       0.489059652567739                       0 
     -0.142121060530265                   0.045        1.22807502746582        45.8138809204102    1.69398683964137E-07           255034.203125                       0       -30.6800003051758          101671.8984375        288.407409667969        0.10957720130682       0.489059637077882                       0 
     -0.141945972986493                   0.045        1.22807502746582        45.8138809204102    1.72433737605645E-07           255034.203125                       0       -30.6800003051758          101671.8984375        288.407409667969        0.10957720130682       0.489059621582963                       0 
     -0.141770885442721                   0.045        1.22807502746582        45.8138809204102    1.75468791247154E-07           255034.203125                       0       -30.6800003051758          101671.8984375        288.407409667969        0.10957720130682       0.489059606088044                       0 
     -0.141595797898949                   0.045        1.22807502746582        45.8138809204102     1.7860580653992E-07           255034.203125                       0       -30.6800003051758          101671.8984375        288.407409667969        0.10957720130682       0.489059597253799                       0 
     -0.141420710355178                   0.045        1.22807502746582        45.8138809204102     1.8187805651845E-07           255034.203125                       0       -30.6800003051758          101671.8984375        288.407409667969        0.10957720130682       0.489059597253799                       0 
     -0.141245622811406                   0.045        1.22807502746582        45.8138809204102    1.85136415397794E-07           255034.203125                       0       -30.6800003051758          101671.8984375        288.407409667969        0.10957720130682       0.489059591922384                       0 
     -0.141070535267634                   0.045        1.22807502746582        45.8138809204102    1.88366940061146E-07           255034.203125                       0       -30.6800003051758          101671.8984375        288.407409667969        0.10957720130682       0.489059575908175                       0 
     -0.140895447723862                   0.045        1.22807502746582        45.8138809204102    1.91597464724497E-07           255034.203125                       0       -30.6800003051758          101671.8984375        288.407409667969        0.10957720130682       0.489059559893966                       0 
      -0.14072036018009                   0.045        1.22807502746582        45.8138809204102    1.94827989387848E-07           255034.203125                       0       -30.6800003051758          101671.8984375        288.407409667969        0.10957720130682       0.489059543879756                       0 
     -0.140545272636318                   0.045        1.22807502746582        45.8138809204102    1.98319680375966E-07           255034.203125                       0       -30.6800003051758          101671.8984375        288.407409667969        0.10957720130682       0.489059527876019                       0 
     -0.140370185092546                   0.045        1.22807502746582        45.8138809204102    2.01932599936991E-07           255034.203125                       0       -30.6800003051758          101671.8984375        288.407409667969        0.10957720130682       0.489059511877142                       0 
     -0.140195097548774                   0.045        1.22807502746582        45.8138809204102    2.05535180822958E-07           255034.203125                       0       -30.6800003051758          101671.8984375        288.407409667969        0.10957720130682       0.489059507846832                       0 
     -0.140020010005002                   0.045        1.22807502746582        45.8138809204102    2.09134280251154E-07           255034.203125                       0       -30.6800003051758          101671.8984375        288.407409667969        0.10957720130682       0.489059507846832                       0 
     -0.139844922461231                   0.045        1.22807502746582        45.8138809204102    2.12733379679351E-07           255034.203125                       0       -30.6800003051758          101671.8984375        288.407409667969        0.10957720130682       0.489059507846832                       0 
     -0.139669834917459                   0.045        1.22807502746582        45.8138809204102    2.16332479107548E-07           255034.203125                       0       -30.6800003051758          101671.8984375        288.407409667969        0.10957720130682       0.489059507846832                       0 
     -0.139494747373687                   0.045        1.22807502746582        45.8138809204102    2.20439479452305E-07           255034.203125                       0       -30.6800003051758          101671.8984375        288.407409667969        0.10957720130682       0.489059487614957                       0 
     -0.139319659829915                   0.045        1.22807502746582        45.8138809204102    2.24551358228209E-07           255034.203125                       0       -30.6800003051758          101671.8984375        288.407409667969        0.10957720130682       0.489059466698413                       0 
     -0.139144572286143                   0.045        1.22807502746582        45.8138809204102    2.28606955453824E-07           255034.203125                       0       -30.6800003051758          101671.8984375        288.407409667969        0.10957720130682       0.489059445729386                       0 
     -0.138969484742371                   0.045        1.22807502746582        45.8138809204102     2.3266255267944E-07           255034.203125                       0       -30.6800003051758          101671.8984375        288.407409667969        0.10957720130682        0.48905942476036                       0 
     -0.138794397198599                   0.045        1.22807502746582        45.8138809204102    2.36718149905054E-07           255034.203125                       0       -30.6800003051758          101671.8984375        288.407409667969        0.10957720130682       0.489059403791333                       0 
     -0.138619309654827                   0.045        1.22807502746582        45.8138809204102    2.40958231840748E-07           255034.203125                       0       -30.6800003051758          101671.8984375        288.407409667969        0.10957720130682       0.489059388637543                       0 
     -0.138444222111056                   0.045        1.22807502746582        45.8138809204102     2.4567905825012E-07           255034.203125                       0       -30.6800003051758          101671.8984375        288.407409667969        0.10957720130682       0.489059388637543                       0 
     -0.138269134567284                   0.045        1.22807502746582        45.8138809204102    2.50254883574554E-07           255034.203125                       0       -30.6800003051758          101671.8984375        288.407409667969        0.10957720130682       0.489059388637543                       0 
     -0.138094047023512                   0.045        1.22807502746582        45.8138809204102    2.54740234876699E-07           255034.203125                       0       -30.6800003051758          101671.8984375        288.407409667969        0.10957720130682       0.489059388637543                       0 
      -0.13791895947974                   0.045        1.22807502746582        45.8138809204102    2.59225586178845E-07           255034.203125                       0       -30.6800003051758          101671.8984375        288.407409667969        0.10957720130682       0.489059388637543                       0 
     -0.137743871935968                   0.045        1.22807502746582        45.8138809204102    2.63710937480991E-07           255034.203125                       0       -30.6800003051758          101671.8984375        288.407409667969        0.10957720130682       0.489059388637543                       0 
     -0.137568784392196                   0.045        1.22807502746582        45.8138809204102    2.68682461418448E-07           255034.203125                       0       -30.6800003051758          101671.8984375        288.407409667969        0.10957720130682       0.489059379119223                       0 
     -0.137393696848424                   0.045        1.22807502746582        45.8138809204102    2.73944813150253E-07           255034.203125                       0       -30.6800003051758          101671.8984375        288.407409667969        0.10957720130682       0.489059363350355                       0 
     -0.137218609304652                   0.045        1.22807502746582        45.8138809204102    2.78788649517259E-07           255034.203125                       0       -30.6800003051758          101671.8984375        288.407409667969        0.10957720130682       0.489059347558001                       0 
      -0.13704352176088                   0.045        1.22807502746582        45.8138809204102    2.83632485884264E-07           255034.203125                       0       -30.6800003051758          101671.8984375        288.407409667969        0.10957720130682       0.489059331765647                       0 
     -0.136868434217109                   0.045        1.22807502746582        45.8138809204102     2.8847632225127E-07           255034.203125                       0       -30.6800003051758          101671.8984375        288.407409667969        0.10957720130682       0.489059315973293                       0 
     -0.136693346673337                   0.045        1.22807502746582        45.8138809204102    2.93320158618276E-07           255034.203125                       0       -30.6800003051758          101671.8984375        288.407409667969        0.10957720130682       0.489059300180939                       0 
     -0.136518259129565                   0.045        1.22807502746582        45.8138809204102    2.99042388861585E-07           255034.203125                       0       -30.6800003051758          101671.8984375        288.407409667969        0.10957720130682       0.489059299230576                       0 
     -0.136343171585793                   0.045        1.22807502746582        45.8138809204102    3.04481230340757E-07           255034.203125                       0       -30.6800003051758          101671.8984375        288.407409667969        0.10957720130682       0.489059290911503                       0 
     -0.136168084042021                   0.045        1.22807502746582        45.8138809204102    3.09600988583525E-07           255034.203125                       0       -30.6800003051758          101671.8984375        288.407409667969        0.10957720130682       0.489059274776736                       0 
     -0.135992996498249                   0.045        1.22807502746582        45.8138809204102    3.14720746826294E-07           255034.203125                       0       -30.6800003051758          101671.8984375        288.407409667969        0.10957720130682        0.48905925864197                       0 
     -0.135817908954477                   0.045        1.22807502746582        45.8138809204102    3.19840505069062E-07           255034.203125                       0       -30.6800003051758          101671.8984375        288.407409667969        0.10957720130682       0.489059242507203                       0 
     -0.135642821410705                   0.045        1.22807502746582        45.8138809204102    3.25256693356359E-07           255034.203125                       0       -30.6800003051758          101671.8984375        288.407409667969        0.10957720130682       0.489059226382009                       0 
     -0.135467733866933                   0.045        1.22807502746582        45.8138809204102    3.31425438669577E-07           255034.203125                       0       -30.6800003051758          101671.8984375        288.407409667969        0.10957720130682        0.48905921028112                       0 
     -0.135292646323162                   0.045        1.22807502746582        45.8138809204102    3.36818437242211E-07           255034.203125                       0       -30.6800003051758          101671.8984375        288.407409667969        0.10957720130682       0.489059209823608                       0 
      -0.13511755877939                   0.045        1.22807502746582        45.8138809204102    3.42188748068758E-07           255034.203125                       0       -30.6800003051758          101671.8984375        288.407409667969        0.10957720130682       0.489059209823608                       0 
     -0.134942471235618                   0.045        1.22807502746582        45.8138809204102    3.47559058895304E-07           255034.203125                       0       -30.6800003051758          101671.8984375        288.407409667969        0.10957720130682       0.489059209823608                       0 
     -0.134767383691846                   0.045        1.22807502746582        45.8138809204102    3.52929369721851E-07           255034.203125                       0       -30.6800003051758          101671.8984375        288.407409667969        0.10957720130682       0.489059209823608                       0 
     -0.134592296148074                   0.045        1.22807502746582        45.8138809204102    3.59014950606829E-07           255034.203125                       0       -30.6800003051758          101671.8984375        288.407409667969        0.10957720130682       0.489059196516116                       0 
     -0.134417208604302                   0.045        1.22807502746582        45.8138809204102    3.65168781790594E-07           255034.203125                       0       -30.6800003051758          101671.8984375        288.407409667969        0.10957720130682        0.48905917540971                       0 
      -0.13424212106053                   0.045        1.22807502746582        45.8138809204102    3.70860111859361E-07           255034.203125                       0       -30.6800003051758          101671.8984375        288.407409667969        0.10957720130682       0.489059154288575                       0 
     -0.134067033516758                   0.045        1.22807502746582        45.8138809204102    3.76551441928129E-07           255034.203125                       0       -30.6800003051758          101671.8984375        288.407409667969        0.10957720130682        0.48905913316744                       0 
     -0.133891945972986                   0.045        1.22807502746582        45.8138809204102    3.82242771996896E-07           255034.203125                       0       -30.6800003051758          101671.8984375        288.407409667969        0.10957720130682       0.489059112046305                       0 
     -0.133716858429215                   0.045        1.22807502746582        45.8138809204102    3.87934102065663E-07           255034.203125                       0       -30.6800003051758          101671.8984375        288.407409667969        0.10957720130682        0.48905909092517                       0 