VARIABLES = "x"
 "y"
 "Density"
 "Momentum_x"
 "Momentum_y"
 "Energy"
 "Pressure"
 "Temperature"
 "Mach"
 "C<sub>p</sub>"
 "Roe_Dissipation"
ZONE
DT=(DOUBLE,DOUBLE,DOUBLE,DOUBLE,DOUBLE,DOUBLE,DOUBLE,DOUBLE,DOUBLE,DOUBLE,DOUBLE)
                  -0.15                   0.025        1.22243702411652        60.5983810424805    9.18740370218174E-09            254049.59375                  101019        287.877105712891       0.145741105429503      -0.255259811838956                       0 
      -0.14965965965966                   0.025        1.22243702411652        60.5983810424805   -1.27026410567674E-07            254049.59375                  101019        287.877105712891       0.145741105079651      -0.255257567187656                       0 
     -0.149319319319319                   0.025        1.22243702411652        60.5983810424805   -2.62836854619164E-07            254049.59375                  101019        287.877105712891       0.145741105079651      -0.255255322443302                       0 
     -0.148978978978979                   0.025        1.22243702411652        60.5983802176686   -3.92135835816126E-07            254049.59375                  101019        287.877105712891       0.145741105079651      -0.255253178037556                       0 
     -0.148638638638639                   0.025        1.22243702411652        60.5983757678967   -4.92817634525916E-07            254049.59375                  101019        287.877105712891       0.145741105079651      -0.255251474609255                       0 
     -0.148298298298298                   0.025        1.22243702411652        60.5983713179898   -5.97600409375971E-07            254049.59375                  101019        287.877105712891       0.145741105079651      -0.255249771129292                       0 
     -0.147957957957958                   0.025        1.22243702411652        60.5983695983887   -6.88949364957983E-07            254049.59375                  101019        287.877105712891       0.145741105079651      -0.255247965457559                       0 
     -0.147617617617618                   0.025        1.22243702411652        60.5983695983887   -7.56566303727911E-07            254049.59375                  101019        287.877105712891       0.145741105079651      -0.255246095330192                       0 
     -0.147277277277277                   0.025        1.22243702411652        60.5983695983887   -8.23926227412283E-07            254049.59375                  101019        287.877105712891       0.145741105079651       -0.25524422517476                       0 
     -0.146936936936937                   0.025        1.22243702411652        60.5983695983887   -8.48816471704919E-07            254049.59375        101019.037344607        287.877105712891       0.145741105079651      -0.255242464044162                       0 
     -0.146596596596597                   0.025        1.22243702411652        60.5983695983887   -8.76600083753487E-07            254049.59375        101019.075277273        287.877105712891       0.145741105079651      -0.255240697945345                       0 
     -0.146256256256256                   0.025        1.22243702411652        60.5983695983887   -8.99385637870635E-07            254049.59375          101019.1015625        287.877105712891       0.145741105079651      -0.255238915680912                       0 
     -0.145915915915916                   0.025        1.22243702411652        60.5983695983887   -8.98820545424278E-07            254049.59375          101019.1015625        287.877105712891       0.145741105079651      -0.255237119518613                       0 
     -0.145575575575576                   0.025        1.22243702411652        60.5983695983887   -9.06176967008198E-07            254049.59375          101019.1015625        287.877105712891       0.145741105079651      -0.255235307926462                       0 
     -0.145235235235235                   0.025        1.22243702411652        60.5983670085425   -9.02329736656414E-07            254049.59375          101019.1015625        287.877105712891       0.145741105079651      -0.255233513266499                       0 
     -0.144894894894895                   0.025        1.22243702411652        60.5983627574843   -8.89043603489865E-07            254049.59375          101019.1015625        287.877105712891       0.145741105079651      -0.255231722158905                       0 
     -0.144554554554555                   0.025        1.22243702411652        60.5983585089114   -8.73634492391142E-07            254049.59375          101019.1015625        287.877105712891       0.145741105079651      -0.255229922838371                       0 
     -0.144214214214214                   0.025        1.22243702411652        60.5983581542969   -8.44074376879513E-07        254049.631233119          101019.1015625        287.877105712891       0.145741069332963      -0.255228111873799                       0 
     -0.143873873873874                   0.025        1.22243702411652        60.5983581542969   -8.14243716739212E-07        254049.672131283          101019.1015625        287.877105712891       0.145741030329434      -0.255226299780567                       0 
     -0.143533533533534                   0.025        1.22243702411652        60.5983581542969   -7.91881872937118E-07           254049.703125          101019.1015625        287.877105712891       0.145741000771523      -0.255224481391146                       0 
     -0.143193193193193                   0.025        1.22243702411652        60.5983581542969   -7.56896036811483E-07           254049.703125          101019.1015625        287.877105712891       0.145741000771523      -0.255222654961767                       0 
     -0.142852852852853                   0.025        1.22243702411652        60.5983581542969   -7.17538337340148E-07           254049.703125          101019.1015625        287.877105712891       0.145741000771523      -0.255220837844918                       0 
     -0.142512512512513                   0.025        1.22243702411652        60.5983581542969   -6.73725978671955E-07           254049.703125          101019.1015625        287.877105712891       0.145741000771523      -0.255219022652056                       0 
     -0.142172172172172                   0.025        1.22243702411652        60.5983581542969   -6.26765214447457E-07           254049.703125          101019.1015625        287.877105712891       0.145741000771523      -0.255217208819003                       0 
     -0.141831831831832                   0.025        1.22243702411652        60.5983581542969    -5.8394834051921E-07           254049.703125          101019.1015625        287.877105712891       0.145741000771523      -0.255215404398729                       0 
     -0.141491491491491                   0.025        1.22243702411652        60.5983554352364   -5.37742182561419E-07           254049.703125          101019.1015625        287.877105712891       0.145741000771523      -0.255213608179411                       0 
     -0.141151151151151                   0.025        1.22243702411652         60.598352544802   -4.86734176761574E-07           254049.703125          101019.1015625        287.877105712891       0.145741000771523      -0.255211811930587                       0 
     -0.140810810810811                   0.025        1.22243702411652        60.5983505249023   -4.35830164854432E-07           254049.703125          101019.1015625        287.877105712891       0.145741000771523       -0.25521001497881                       0 
      -0.14047047047047                   0.025        1.22243702411652        60.5983505249023   -3.85167449720057E-07           254049.703125          101019.1015625        287.877105712891       0.145741000771523      -0.255208216395976                       0 
      -0.14013013013013                   0.025        1.22243702411652        60.5983505249023   -3.34504734585685E-07           254049.703125          101019.1015625        287.877105712891       0.145741000771523      -0.255206417813141                       0 
      -0.13978978978979                   0.025        1.22243702411652        60.5983505249023   -2.88842881033399E-07           254049.703125          101019.1015625        287.877105712891       0.145741000771523      -0.255204597724788                       0 
     -0.139449449449449                   0.025        1.22243702411652        60.5983505249023   -2.40052861458318E-07           254049.703125          101019.1015625        287.877105712891       0.145741000771523      -0.255202775543762                       0 
     -0.139109109109109                   0.025        1.22243703577037        60.5983505249023   -1.91449840444164E-07           254049.703125          101019.1015625        287.877105712891       0.145741000771523      -0.255200953262704                       0 
     -0.138768768768769                   0.025        1.22243739856193        60.5983505249023   -1.48481202164003E-07           254049.703125          101019.1015625        287.877105712891       0.145741000771523      -0.255199127967657                       0 
     -0.138428428428428                   0.025        1.22243776135349        60.5983505249023   -1.05512563883846E-07           254049.703125          101019.1015625        287.877105712891       0.145741000771523      -0.255197302672609                       0 
     -0.138088088088088                   0.025        1.22243797779083        60.5983487654127   -6.52129655217089E-08        254049.717538739          101019.1015625        287.877105712891       0.145741000771523      -0.255195489765573                       0 
     -0.137747747747748                   0.025        1.22243797779083        60.5983444039992   -2.62362689248665E-08        254049.753267438          101019.1015625        287.877105712891       0.145741000771523      -0.255193695225629                       0 
     -0.137407407407407                   0.025        1.22243797779083        60.5983400425857     1.2740427671979E-08        254049.788996138          101019.1015625        287.877105712891       0.145741000771523      -0.255191900685685                       0 
     -0.137067067067067                   0.025        1.22243797779083        60.5983390808105     4.6333430938934E-08           254049.796875          101019.1015625        287.877105712891       0.145740969732981      -0.255190077182365                       0 
     -0.136726726726727                   0.025        1.22243797779083        60.5983390808105    7.84033597637081E-08           254049.796875          101019.1015625        287.877105712891       0.145740929913476      -0.255188245485158                       0 
     -0.136386386386386                   0.025        1.22243797779083        60.5983390808105    1.10396909109557E-07           254049.796875          101019.1015625        287.877105712891       0.145740896463394      -0.255186418864998                       0 
     -0.136046046046046                   0.025        1.22243797779083        60.5983390808105    1.39918156800135E-07           254049.796875          101019.1015625        287.877105712891       0.145740896463394      -0.255184618863365                       0 
     -0.135705705705706                   0.025        1.22243797779083        60.5983390808105    1.69439404490712E-07           254049.796875          101019.1015625        287.877105712891       0.145740896463394      -0.255182818861733                       0 
     -0.135365365365365                   0.025        1.22243797779083        60.5983390808105    1.95815403116382E-07           254049.796875          101019.1015625        287.877124772127       0.145740896463394      -0.255181017754242                       0 
     -0.135025025025025                   0.025        1.22243797779083        60.5983390808105    2.19554668166704E-07           254049.796875          101019.1015625        287.877159809153       0.145740896463394      -0.255179215719684                       0 
     -0.134684684684685                   0.025        1.22243797779083        60.5983390808105    2.43804538310673E-07           254049.796875          101019.1015625         287.87719484618       0.145740896463394      -0.255177412391212                       0 
     -0.134344344344344                   0.025        1.22243797779083        60.5983363605068    2.68022643399832E-07           254049.796875          101019.1015625        287.877197265625       0.145740896463394      -0.255175595930196                       0 
     -0.134004004004004                   0.025        1.22243797779083        60.5983334384178    2.91695728905666E-07           254049.796875          101019.1015625        287.877197265625       0.145740896463394      -0.255173780586547                       0 
     -0.133663663663664                   0.025        1.22243797779083         60.598331451416    3.13917233214048E-07           254049.796875          101019.1015625        287.877197265625       0.145740896463394      -0.255171964981174                       0 
     -0.133323323323323                   0.025        1.22243797779083         60.598331451416    3.33054218467449E-07           254049.796875          101019.1015625        287.877197265625       0.145740896463394      -0.255170148819655                       0 
     -0.132982982982983                   0.025        1.22243797779083         60.598331451416    3.52191203720849E-07           254049.796875          101019.1015625        287.877197265625       0.145740896463394      -0.255168332658135                       0 
     -0.132642642642643                   0.025        1.22243797779083         60.598331451416    3.74193556254747E-07           254049.796875          101019.1015625        287.877197265625       0.145740896463394      -0.255166537851955                       0 
     -0.132302302302302                   0.025        1.22243797779083         60.598331451416    3.95289411659886E-07           254049.796875          101019.1015625        287.877197265625       0.145740896463394      -0.255164749766351                       0 
     -0.131961961961962                   0.025        1.22243797779083         60.598331451416    4.15999092259447E-07        254049.801125178          101019.1015625        287.877197265625       0.145740896463394      -0.255162958185276                       0 
     -0.131621621621622                   0.025        1.22243797779083         60.598331451416    4.33285253833582E-07        254049.843054058          101019.1015625        287.877197265625       0.145740896463394      -0.255161135616133                       0 
     -0.131281281281281                   0.025        1.22243797779083         60.598331451416    4.50571415407714E-07        254049.884982938          101019.1015625        287.877197265625       0.145740896463394      -0.255159313046991                       0 
     -0.130940940940941                   0.025        1.22243797779083        60.5983292893115    4.71249690413306E-07            254049.90625        101019.120750457        287.877197265625       0.145740896463394       -0.25515750804952                       0 
     -0.130600600600601                   0.025        1.22243797779083        60.5983249017418    4.91754948583723E-07            254049.90625        101019.159688676        287.877197265625       0.145740896463394      -0.255155725164314                       0 
      -0.13026026026026                   0.025        1.22243797779083        60.5983205141721    5.12260206754142E-07            254049.90625        101019.198626894        287.877197265625       0.145740896463394      -0.255153942279107                       0 
      -0.12991991991992                   0.025        1.22243797779083        60.5983200073242     5.2962511735188E-07            254049.90625           101019.203125        287.877197265625       0.145740866145251      -0.255152129075944                       0 
      -0.12957957957958                   0.025        1.22243797779083        60.5983200073242    5.46579877867073E-07            254049.90625           101019.203125        287.877197265625       0.145740831867359      -0.255150311913057                       0 
     -0.129239239239239                   0.025        1.22243797779083        60.5983200073242    5.66901670948084E-07            254049.90625           101019.203125        287.877197265625       0.145740807056427      -0.255148508239194                       0 
     -0.128898898898899                   0.025        1.22243797779083        60.5983200073242     5.8750154859929E-07            254049.90625           101019.203125        287.877197265625       0.145740807056427      -0.255146716625434                       0 
     -0.128558558558559                   0.025        1.22243797779083        60.5983200073242    6.08284276353705E-07            254049.90625           101019.203125        287.877197265625       0.145740807056427      -0.255144928017789                       0 
     -0.128218218218218                   0.025        1.22243797779083        60.5983200073242    6.26664594762502E-07            254049.90625           101019.203125        287.877197265625       0.145740807056427      -0.255143147063591                       0 
     -0.127877877877878                   0.025        1.22243797779083        60.5983200073242    6.43851088285965E-07            254049.90625           101019.203125        287.877197265625       0.145740807056427      -0.255141369912606                       0 
     -0.127537537537538                   0.025        1.22243797779083        60.5983197445157    6.64217286842893E-07            254049.90625           101019.203125        287.877197265625       0.145740807056427      -0.255139589237925                       0 
     -0.127197197197197                   0.025        1.22243797779083        60.5983153567805    6.84826399138167E-07            254049.90625           101019.203125        287.877197265625       0.145740807056427      -0.255137795014033                       0 
     -0.126856856856857                   0.025        1.22243797779083        60.5983109689196    7.05933986214438E-07            254049.90625           101019.203125        287.877197265625       0.145740807056427      -0.255135989592088                       0 
     -0.126516516516517                   0.025        1.22243797779083        60.5983085632324    7.25316286081324E-07            254049.90625           101019.203125        287.877197265625       0.145740807056427      -0.255134204831038                       0 
     -0.126176176176176                   0.025        1.22243797779083        60.5983085632324    7.42604671945556E-07            254049.90625           101019.203125        287.877197265625       0.145740807056427      -0.255132445145314                       0 
     -0.125835835835836                   0.025        1.22243797779083        60.5983085632324    7.62378810735386E-07            254049.90625           101019.203125        287.877197265625       0.145740807056427      -0.255130674348523                       0 
     -0.125495495495495                   0.025        1.22243797779083        60.5983085632324    7.82943471512073E-07            254049.90625           101019.203125        287.877197265625       0.145740807056427      -0.255128887221233                       0 
     -0.125155155155155                   0.025        1.22243797779083        60.5983085632324    8.03847564395788E-07            254049.90625           101019.203125        287.877197265625       0.145740807056427      -0.255127081903485                       0 
     -0.124814814814815                   0.025        1.22243797779083        60.5983085632324    8.23783086855092E-07        254049.914709382           101019.203125        287.877197265625       0.145740807056427      -0.255125287296046                       0 
     -0.124474474474474                   0.025        1.22243797779083        60.5983085632324    8.40571347226094E-07        254049.950656585           101019.203125        287.877197265625       0.145740807056427      -0.255123527490572                       0 
     -0.124134134134134                   0.025        1.22243797779083        60.5983085632324    8.59032348352306E-07        254049.986603072           101019.203125        287.877197265625       0.145740807056427      -0.255121759381255                       0 
     -0.123793793793794                   0.025        1.22243797779083        60.5983067282488    8.78975271463314E-07                  254050           101019.203125        287.877197265625       0.145740807056427      -0.255119976386137                       0 
     -0.123453453453453                   0.025        1.22243797779083        60.5983038031669    8.98621414303595E-07                  254050           101019.203125        287.877197265625       0.145740807056427      -0.255118188614391                       0 
     -0.123113113113113                   0.025        1.22243797779083        60.5983009338379    9.18275767676339E-07                  254050           101019.203125        287.877197265625       0.145740806294401      -0.255116400331538                       0 
     -0.122772772772773                   0.025        1.22243797779083        60.5983009338379    9.33629301320444E-07                  254050           101019.203125        287.877197265625       0.145740766298987      -0.255114623066779                       0 
     -0.122432432432432                   0.025        1.22243797779083        60.5983009338379    9.49922778199643E-07                  254050           101019.203125        287.877197265625       0.145740726304145       -0.25511285000247                       0 
     -0.122092092092092                   0.025        1.22243797779083        60.5983009338379    9.68246955289624E-07                  254050           101019.203125        287.877197265625       0.145740702748299      -0.255111085607156                       0 
     -0.121751751751752                   0.025        1.22243797779083        60.5983009338379    9.85428116018411E-07                  254050           101019.203125        287.877197265625       0.145740702748299      -0.255109314529025                       0 
     -0.121411411411411                   0.025        1.22243797779083        60.5983009338379    1.00280071508813E-06                  254050           101019.203125        287.877197265625       0.145740702748299      -0.255107543496693                       0 
     -0.121071071071071                   0.025        1.22243830803301        60.5983009338379    1.01659550331497E-06                  254050           101019.203125        287.877197265625       0.145740702748299      -0.255105781482615                       0 
     -0.120730730730731                   0.025        1.22243871941148        60.5983009338379    1.02986383075182E-06                  254050           101019.203125        287.877197265625       0.145740702748299      -0.255104018903175                       0 
      -0.12039039039039                   0.025        1.22243905067444        60.5983009338379    1.04531123669841E-06                  254050           101019.203125        287.877197265625       0.145740702748299      -0.255102242594725                       0 
      -0.12005005005005                   0.025        1.22243905067444        60.5983004310295    1.05912825094387E-06                  254050           101019.203125        287.877197265625       0.145740702748299      -0.255100488665667                       0 
      -0.11970970970971                   0.025        1.22243905067444        60.5982982788883    1.07312361422339E-06                  254050           101019.203125        287.877197265625       0.145740702748299      -0.255098717633316                       0 
     -0.119369369369369                   0.025        1.22243905067444        60.5982961266094    1.08461151478125E-06                  254050           101019.203125        287.877197265625       0.145740702748299       -0.25509695318943                       0 
     -0.119029029029029                   0.025        1.22243905067444        60.5982939722758    1.09433287292654E-06                  254050           101019.203125        287.877197265625       0.145740702748299      -0.255095193391174                       0 
     -0.118688688688689                   0.025        1.22243905067444        60.5982895844699    1.10573590711516E-06                  254050           101019.203125        287.877197265625       0.145740702748299      -0.255093433698185                       0 
     -0.118348348348348                   0.025        1.22243905067444        60.5982894897461    1.11552859261612E-06        254050.035169224           101019.203125        287.877197265625       0.145740702748299      -0.255091673990746                       0 
     -0.118008008008008                   0.025        1.22243905067444        60.5982894897461    1.12544252196771E-06        254050.071112532           101019.203125        287.877197265625       0.145740702748299      -0.255089929783546                       0 
     -0.117667667667668                   0.025        1.22243905067444        60.5982894897461    1.13396833615114E-06            254050.09375           101019.203125        287.877197265625       0.145740702748299      -0.255088186920401                       0 
     -0.117327327327327                   0.025        1.22243905067444        60.5982894897461    1.14010815476261E-06            254050.09375           101019.203125        287.877197265625       0.145740702748299       -0.25508644393748                       0 
     -0.116986986986987                   0.025        1.22243905067444        60.5982894897461    1.14644990616513E-06            254050.09375           101019.203125        287.877197265625       0.145740702748299      -0.255084716440712                       0 
     -0.116646646646647                   0.025        1.22243905067444        60.5982894897461    1.15214080424679E-06            254050.09375           101019.203125        287.877197265625       0.145740702748299      -0.255082991020098                       0 
     -0.116306306306306                   0.025        1.22243905067444        60.5982894897461    1.15776811764024E-06            254050.09375           101019.203125        287.877197265625       0.145740702748299      -0.255081265654738                       0 
     -0.115965965965966                   0.025        1.22243905067444         60.598289039536    1.16301259344592E-06            254050.09375           101019.203125        287.877202668146       0.145740696593083      -0.255079540297376                       0 
     -0.115625625625626                   0.025        1.22243905067444        60.5982861141568    1.16560780172891E-06            254050.09375           101019.203125        287.877237772697       0.145740656597663      -0.255077814780717                       0 
     -0.115285285285285                   0.025        1.22243905067444        60.5982831889016    1.16718185353608E-06            254050.09375           101019.203125        287.877272875759        0.14574061660394      -0.255076071577055                       0 
     -0.114944944944945                   0.025        1.22243905067444        60.5982818603516    1.16842433111628E-06            254050.09375        101019.222744839        287.877288818359        0.14574059844017      -0.255074322869357                       0 
     -0.114604604604605                   0.025        1.22243905067444        60.5982818603516    1.16971462316292E-06            254050.09375        101019.258689358        287.877288818359        0.14574059844017      -0.255072574188013                       0 
     -0.114264264264264                   0.025        1.22243905067444        60.5982818603516    1.17115595644214E-06            254050.09375        101019.294632494        287.877288818359        0.14574059844017      -0.255070825573799                       0 
     -0.113923923923924                   0.025        1.22243905067444        60.5982818603516    1.17054632418676E-06            254050.09375           101019.296875        287.877288818359        0.14574059844017      -0.255069119637921                       0 
     -0.113583583583584                   0.025        1.22243905067444        60.5982818603516    1.16788694369692E-06            254050.09375           101019.296875        287.877288818359        0.14574059844017      -0.255067416602803                       0 
     -0.113243243243243                   0.025        1.22243905067444        60.5982818603516    1.16452357732865E-06            254050.09375           101019.296875        287.877288818359        0.14574059844017      -0.255065698539513                       0 
     -0.112902902902903                   0.025        1.22243905067444        60.5982818603516    1.16188402681421E-06            254050.09375           101019.296875        287.877288818359        0.14574059844017      -0.255063949831559                       0 
     -0.112562562562563                   0.025        1.22243905067444        60.5982818603516    1.15931540132499E-06            254050.09375           101019.296875        287.877288818359        0.14574059844017      -0.255062201213882                       0 
     -0.112222222222222                   0.025        1.22243905067444        60.5982786951205    1.15604694158444E-06        254050.124001168           101019.296875        287.877288818359        0.14574059844017      -0.255060485422479                       0 