VARIABLES = "x"
 "y"
 "Density"
 "Momentum_x"
 "Momentum_y"
 "Energy"
 "Grid_Velocity_x"
 "Grid_Velocity_y"
 "Pressure"
 "Temperature"
 "Mach"
 "C<sub>p</sub>"
 "Roe_Dissipation"
ZONE
DT=(DOUBLE,DOUBLE,DOUBLE,DOUBLE,DOUBLE,DOUBLE,DOUBLE,DOUBLE,DOUBLE,DOUBLE,DOUBLE,DOUBLE,DOUBLE)
                 -0.125                    0.05        1.22807502746582        45.8138809204102    1.27288271479795E-06           255034.203125                       0       -30.6800003051758          101671.8984375        288.407409667969        0.10957720130682       0.489058494567871                       0 
                 -0.125      0.0498997995991984        1.22807502746582        45.8138809204102    1.27173868755745E-06           255034.203125                       0       -30.6800003051758          101671.8984375        288.407409667969        0.10957720130682       0.489058494567871                       0 
                 -0.125      0.0497995991983968        1.22807502746582        45.8138809204102    1.27059466031694E-06           255034.203125                       0       -30.6800003051758          101671.8984375        288.407409667969        0.10957720130682       0.489058494567871                       0 
                 -0.125      0.0496993987975952        1.22807502746582        45.8138809204102    1.26872761142992E-06           255034.203125                       0       -30.6800003051758          101671.8984375        288.407409667969        0.10957720130682       0.489058500489939                       0 
                 -0.125      0.0495991983967936        1.22807502746582        45.8138809204102    1.26651872531408E-06           255034.203125                       0       -30.6800003051758          101671.8984375        288.407409667969        0.10957720130682         0.4890585092119                       0 
                 -0.125       0.049498997995992        1.22807502746582        45.8138809204102    1.26430983919825E-06           255034.203125                       0       -30.6800003051758          101671.8984375        288.407409667969        0.10957720130682       0.489058517933862                       0 
                 -0.125      0.0493987975951904        1.22807502746582        45.8138809204102    1.26210095308242E-06           255034.203125                       0       -30.6800003051758          101671.8984375        288.407409667969        0.10957720130682       0.489058526655823                       0 
                 -0.125      0.0492985971943888        1.22807502746582        45.8138809204102    1.25989206696659E-06           255034.203125                       0       -30.6800003051758          101671.8984375        288.407409667969        0.10957720130682       0.489058535377784                       0 
                 -0.125      0.0491983967935872        1.22807502746582        45.8138809204102    1.25716885749903E-06           255034.203125                       0       -30.6800003051758          101671.8984375        288.407409667969        0.10957720130682       0.489058533771391                       0 
                 -0.125      0.0490981963927856        1.22807502746582        45.8138809204102    1.25424527904265E-06           255034.203125                       0       -30.6800003051758          101671.8984375        288.407409667969        0.10957720130682       0.489058528141299                       0 
                 -0.125       0.048997995991984        1.22807502746582        45.8138809204102    1.25132170058627E-06           255034.203125                       0       -30.6800003051758          101671.8984375        288.407409667969        0.10957720130682       0.489058522511208                       0 
                 -0.125      0.0488977955911824        1.22807502746582        45.8138809204102     1.2483981221299E-06           255034.203125                       0       -30.6800003051758          101671.8984375        288.407409667969        0.10957720130682       0.489058516881117                       0 
                 -0.125      0.0487975951903808        1.22807502746582        45.8138809204102    1.24547454367352E-06           255034.203125                       0       -30.6800003051758          101671.8984375        288.407409667969        0.10957720130682       0.489058511251025                       0 
                 -0.125      0.0486973947895792        1.22807502746582        45.8138809204102    1.24255096521714E-06           255034.203125                       0       -30.6800003051758          101671.8984375        288.407409667969        0.10957720130682       0.489058505620934                       0 
                 -0.125      0.0485971943887776        1.22807502746582        45.8138809204102    1.23962738676076E-06           255034.203125                       0       -30.6800003051758          101671.8984375        288.407409667969        0.10957720130682       0.489058499990843                       0 
                 -0.125       0.048496993987976        1.22807502746582        45.8138809204102    1.23673722121684E-06           255034.203125                       0       -30.6800003051758          101671.8984375        288.407409667969        0.10957720130682       0.489058494567871                       0 
                 -0.125      0.0483967935871744        1.22807502746582        45.8138809204102    1.23472189898327E-06           255034.203125                       0       -30.6800003051758          101671.8984375        288.407409667969        0.10957720130682       0.489058494567871                       0 
                 -0.125      0.0482965931863727        1.22807502746582        45.8138809204102     1.2310750236022E-06           255034.203125                       0       -30.6800003051758          101671.8984375        288.407409667969        0.10957720130682        0.48905849507921                       0 
                 -0.125      0.0481963927855711        1.22807502746582        45.8138809204102    1.22779453580979E-06           255034.203125                       0       -30.6800003051758          101671.8984375        288.407409667969        0.10957720130682       0.489058502773622                       0 
                 -0.125      0.0480961923847695        1.22807502746582        45.8138809204102    1.22451404801737E-06           255034.203125                       0       -30.6800003051758          101671.8984375        288.407409667969        0.10957720130682       0.489058510468034                       0 
                 -0.125      0.0479959919839679        1.22807502746582        45.8138809204102    1.22123356022496E-06           255034.203125                       0       -30.6800003051758          101671.8984375        288.407409667969        0.10957720130682       0.489058518162445                       0 
                 -0.125      0.0478957915831663        1.22807502746582        45.8138809204102    1.21795307243255E-06           255034.203125                       0       -30.6800003051758          101671.8984375        288.407409667969        0.10957720130682       0.489058525856857                       0 
                 -0.125      0.0477955911823647        1.22807502746582        45.8138809204102    1.21467258464013E-06           255034.203125                       0       -30.6800003051758          101671.8984375        288.407409667969        0.10957720130682       0.489058533551269                       0 
                 -0.125      0.0476953907815631        1.22807502746582        45.8138809204102    1.21139209684772E-06           255034.203125                       0       -30.6800003051758          101671.8984375        288.407409667969        0.10957720130682       0.489058541245681                       0 
                 -0.125      0.0475951903807615        1.22807502746582        45.8138809204102    1.20811160905531E-06           255034.203125                       0       -30.6800003051758          101671.8984375        288.407409667969        0.10957720130682       0.489058548940093                       0 
                 -0.125      0.0474949899799599        1.22807502746582        45.8138809204102     1.2043876418757E-06           255034.203125                       0       -30.6800003051758          101671.8984375        288.407409667969        0.10957720130682       0.489058556599022                       0 
                 -0.125      0.0473947895791583        1.22807502746582        45.8138809204102    1.19918062890582E-06           255034.203125                       0       -30.6800003051758          101671.8984375        288.407409667969        0.10957720130682       0.489058564139296                       0 
                 -0.125      0.0472945891783567        1.22807502746582        45.8138809204102    1.19397361593594E-06           255034.203125                       0       -30.6800003051758          101671.8984375        288.407409667969        0.10957720130682        0.48905857167957                       0 
                 -0.125      0.0471943887775551        1.22807502746582        45.8138809204102    1.18876660296606E-06           255034.203125                       0       -30.6800003051758          101671.8984375        288.407409667969        0.10957720130682       0.489058579219844                       0 
                 -0.125      0.0470941883767535        1.22807502746582        45.8138809204102    1.18355958999618E-06           255034.203125                       0       -30.6800003051758          101671.8984375        288.407409667969        0.10957720130682       0.489058586760117                       0 
                 -0.125      0.0469939879759519        1.22807502746582        45.8138809204102     1.1783525770263E-06           255034.203125                       0       -30.6800003051758          101671.8984375        288.407409667969        0.10957720130682       0.489058594300391                       0 
                 -0.125      0.0468937875751503        1.22807502746582        45.8138809204102    1.17314556405642E-06           255034.203125                       0       -30.6800003051758          101671.8984375        288.407409667969        0.10957720130682       0.489058601840665                       0 
                 -0.125      0.0467935871743487        1.22807502746582        45.8138809204102    1.16793855108654E-06           255034.203125                       0       -30.6800003051758          101671.8984375        288.407409667969        0.10957720130682       0.489058609380938                       0 
                 -0.125      0.0466933867735471        1.22807502746582        45.8138809204102    1.16317199686926E-06           255034.203125                       0       -30.6800003051758          101671.8984375        288.407409667969        0.10957720130682       0.489058613777161                       0 
                 -0.125      0.0465931863727455        1.22807502746582        45.8138809204102    1.15781857150627E-06           255034.203125                       0       -30.6800003051758          101671.8984375        288.407409667969        0.10957720130682       0.489058613777161                       0 
                 -0.125      0.0464929859719439        1.22807502746582        45.8138809204102    1.15202119340448E-06           255034.203125                       0       -30.6800003051758          101671.8984375        288.407409667969        0.10957720130682       0.489058608104414                       0 
                 -0.125      0.0463927855711423        1.22807502746582        45.8138809204102    1.14623948586275E-06           255034.203125                       0       -30.6800003051758          101671.8984375        288.407409667969        0.10957720130682       0.489058601559285                       0 
                 -0.125      0.0462925851703407        1.22807502746582        45.8138809204102    1.14045777832101E-06           255034.203125                       0       -30.6800003051758          101671.8984375        288.407409667969        0.10957720130682       0.489058595014155                       0 
                 -0.125      0.0461923847695391        1.22807502746582        45.8138809204102    1.13467607077928E-06           255034.203125                       0       -30.6800003051758          101671.8984375        288.407409667969        0.10957720130682       0.489058588469025                       0 
                 -0.125      0.0460921843687375        1.22807502746582        45.8138809204102    1.12889436323755E-06           255034.203125                       0       -30.6800003051758          101671.8984375        288.407409667969        0.10957720130682       0.489058581923896                       0 
                 -0.125      0.0459919839679359        1.22807502746582        45.8138809204102    1.12311265569581E-06           255034.203125                       0       -30.6800003051758          101671.8984375        288.407409667969        0.10957720130682       0.489058575378766                       0 
                 -0.125      0.0458917835671343        1.22807502746582        45.8138809204102    1.11733094815408E-06           255034.203125                       0       -30.6800003051758          101671.8984375        288.407409667969        0.10957720130682       0.489058568833637                       0 
                 -0.125      0.0457915831663327        1.22807502746582        45.8138809204102    1.11112775558703E-06           255034.203125                       0       -30.6800003051758          101671.8984375        288.407409667969        0.10957720130682       0.489058565032405                       0 
                 -0.125      0.0456913827655311        1.22807502746582        45.8138809204102    1.10319908169152E-06           255034.203125                       0       -30.6800003051758          101671.8984375        288.407409667969        0.10957720130682       0.489058572464184                       0 
                 -0.125      0.0455911823647295        1.22807502746582        45.8138809204102      1.095270407796E-06           255034.203125                       0       -30.6800003051758          101671.8984375        288.407409667969        0.10957720130682       0.489058579895963                       0 
                 -0.125      0.0454909819639279        1.22807502746582        45.8138809204102    1.08734173390049E-06           255034.203125                       0       -30.6800003051758          101671.8984375        288.407409667969        0.10957720130682       0.489058587327742                       0 
                 -0.125      0.0453907815631263        1.22807502746582        45.8138809204102    1.07941306000497E-06           255034.203125                       0       -30.6800003051758          101671.8984375        288.407409667969        0.10957720130682       0.489058594759521                       0 
                 -0.125      0.0452905811623247        1.22807502746582        45.8138809204102    1.07148438610945E-06           255034.203125                       0       -30.6800003051758          101671.8984375        288.407409667969        0.10957720130682         0.4890586021913                       0 
                 -0.125       0.045190380761523        1.22807502746582        45.8138809204102    1.06355571221394E-06           255034.203125                       0       -30.6800003051758          101671.8984375        288.407409667969        0.10957720130682       0.489058609623079                       0 
                 -0.125      0.0450901803607214        1.22807502746582        45.8138809204102     1.0561337423717E-06           255034.203125                       0       -30.6800003051758          101671.8984375        288.407409667969        0.10957720130682       0.489058613777161                       0 
                 -0.125      0.0449899799599198        1.22807502746582        45.8138809204102    1.04935395819536E-06           255034.203125                       0       -30.6800003051758          101671.8984375        288.407409667969        0.10957720130682       0.489058613777161                       0 
                 -0.125      0.0448897795591182        1.22807502746582        45.8138809204102    1.04119815826697E-06           255034.203125                       0       -30.6800003051758          101671.8984375        288.407409667969        0.10957720130682       0.489058613777161                       0 
                 -0.125      0.0447895791583166        1.22807502746582        45.8138809204102    1.03244788556756E-06           255034.203125                       0       -30.6800003051758          101671.8984375        288.407409667969        0.10957720130682       0.489058613777161                       0 
                 -0.125       0.044689378757515        1.22807502746582        45.8138809204102    1.02350773953398E-06           255034.203125                       0       -30.6800003051758          101671.8984375        288.407409667969        0.10957720130682       0.489058613777161                       0 
                 -0.125      0.0445891783567134        1.22807502746582        45.8138809204102    1.01450791378249E-06           255034.203125                       0       -30.6800003051758          101671.8984375        288.407409667969        0.10957720130682       0.489058613777161                       0 
                 -0.125      0.0444889779559118        1.22807502746582        45.8138809204102      1.005508088031E-06           255034.203125                       0       -30.6800003051758          101671.8984375        288.407409667969        0.10957720130682       0.489058613777161                       0 
                 -0.125      0.0443887775551102        1.22807502746582        45.8138809204102    9.96508262279512E-07           255034.203125                       0       -30.6800003051758          101671.8984375        288.407409667969        0.10957720130682       0.489058613777161                       0 
                 -0.125      0.0442885771543086        1.22807502746582        45.8138809204102    9.87508436528023E-07           255034.203125                       0       -30.6800003051758          101671.8984375        288.407409667969        0.10957720130682       0.489058613777161                       0 
                 -0.125       0.044188376753507        1.22807502746582        45.8138809204102    9.78508610776534E-07           255034.203125                       0       -30.6800003051758          101671.8984375        288.407409667969        0.10957720130682       0.489058613777161                       0 
                 -0.125      0.0440881763527054        1.22807502746582        45.8138809204102    9.69099377989872E-07           255034.203125                       0       -30.6800003051758          101671.8984375        288.407409667969        0.10957720130682       0.489058613777161                       0 
                 -0.125      0.0439879759519038        1.22807502746582        45.8138809204102    9.57971580123349E-07           255034.203125                       0       -30.6800003051758          101671.8984375        288.407409667969        0.10957720130682       0.489058613777161                       0 
                 -0.125      0.0438877755511022        1.22807502746582        45.8138809204102    9.46843782256827E-07           255034.203125                       0       -30.6800003051758          101671.8984375        288.407409667969        0.10957720130682       0.489058613777161                       0 
                 -0.125      0.0437875751503006        1.22807502746582        45.8138809204102    9.35715984390303E-07           255034.203125                       0       -30.6800003051758          101671.8984375        288.407409667969        0.10957720130682       0.489058613777161                       0 
                 -0.125       0.043687374749499        1.22807502746582        45.8138809204102     9.2458818652378E-07           255034.203125                       0       -30.6800003051758          101671.8984375        288.407409667969        0.10957720130682       0.489058613777161                       0 
                 -0.125      0.0435871743486974        1.22807502746582        45.8138809204102    9.13460388657258E-07           255034.203125                       0       -30.6800003051758          101671.8984375        288.407409667969        0.10957720130682       0.489058613777161                       0 
                 -0.125      0.0434869739478958        1.22807502746582        45.8138809204102     9.0269119604763E-07           255034.203125                       0       -30.6800003051758          101671.8984375        288.407409667969        0.10957720130682       0.489058613777161                       0 
                 -0.125      0.0433867735470942        1.22807502746582        45.8138809204102    8.92830510318031E-07           255034.203125                       0       -30.6800003051758          101671.8984375        288.407409667969        0.10957720130682       0.489058613777161                       0 
                 -0.125      0.0432865731462926        1.22807502746582        45.8138809204102    8.82969824588432E-07           255034.203125                       0       -30.6800003051758          101671.8984375        288.407409667969        0.10957720130682       0.489058613777161                       0 
                 -0.125       0.043186372745491        1.22807502746582        45.8138809204102    8.71812466674913E-07           255034.203125                       0       -30.6800003051758          101671.8984375        288.407409667969        0.10957720130682       0.489058613777161                       0 
                 -0.125      0.0430861723446894        1.22807502746582        45.8138809204102    8.60042163286802E-07           255034.203125                       0       -30.6800003051758          101671.8984375        288.407409667969        0.10957720130682       0.489058613777161                       0 
                 -0.125      0.0429859719438878        1.22807502746582        45.8138809204102     8.4827185989869E-07           255034.203125                       0       -30.6800003051758          101671.8984375        288.407409667969        0.10957720130682       0.489058613777161                       0 
                 -0.125      0.0428857715430862        1.22807502746582        45.8138803989921    8.35996545795178E-07           255034.203125                       0       -30.6800003051758          101671.8984375        288.407409667969        0.10957720130682       0.489058613777161                       0 
                 -0.125      0.0427855711422846        1.22807502746582        45.8138797590581    8.23606445137195E-07           255034.203125                       0       -30.6800003051758          101671.8984375        288.407409667969        0.10957720130682       0.489058613777161                       0 
                 -0.125       0.042685370741483        1.22807502746582        45.8138791191242    8.11216344479213E-07           255034.203125                       0       -30.6800003051758          101671.8984375        288.407409667969        0.10957720130682       0.489058613777161                       0 
                 -0.125      0.0425851703406814        1.22807502746582        45.8138784791902    7.98826243821231E-07           255034.203125                       0       -30.6800003051758          101671.8984375        288.407409667969        0.10957720130682       0.489058613777161                       0 
                 -0.125      0.0424849699398798        1.22807502746582        45.8138778392563    7.86436143163249E-07           255034.203125                       0       -30.6800003051758          101671.8984375        288.407409667969        0.10957720130682       0.489058613777161                       0 
                 -0.125      0.0423847695390782        1.22807502746582        45.8138771989304    7.73719692930478E-07           255034.203125                       0       -30.6800003051758          101671.8984375        288.407409667969        0.10957720130682       0.489058613777161                       0 
                 -0.125      0.0422845691382766        1.22807502746582        45.8138765567303    7.59442522143062E-07           255034.203125                       0       -30.6800003051758          101671.8984375        288.407409667969        0.10957720130682       0.489058613777161                       0 
                 -0.125       0.042184368737475        1.22807502746582        45.8138759145303    7.45165351355646E-07           255034.203125                       0       -30.6800003051758          101671.8984375        288.407409667969        0.10957720130682       0.489058613777161                       0 
                 -0.125      0.0420841683366733        1.22807502746582        45.8138752723302     7.3088818056823E-07           255034.203125                       0       -30.6800003051758          101671.8984375        288.407409667969        0.10957720130682       0.489058613777161                       0 
                 -0.125      0.0419839679358717        1.22807502746582        45.8138746301301    7.16611009780814E-07           255034.203125                       0       -30.6800003051758          101671.8984375        288.407409667969        0.10957720130682       0.489058613777161                       0 
                 -0.125      0.0418837675350701        1.22807502746582        45.8138739878825    7.02405753067566E-07           255034.203125                       0       -30.6800003051758          101671.8984375        288.407409667969        0.10957720130682       0.489058614076604                       0 
                 -0.125      0.0417835671342685        1.22807502746582        45.8138733448098    6.89450118322664E-07           255034.203125                       0       -30.6800003051758          101671.8984375        288.407409667969        0.10957720130682       0.489058619579355                       0 
                 -0.125      0.0416833667334669        1.22807502746582        45.8138727017371    6.76494483577761E-07           255034.203125                       0       -30.6800003051758          101671.8984375        288.407409667969        0.10957720130682       0.489058625082106                       0 
                 -0.125      0.0415831663326653        1.22807502746582        45.8138720586643    6.63538848832858E-07           255034.203125                       0       -30.6800003051758          101671.8984375        288.407409667969        0.10957720130682       0.489058630584857                       0 
                 -0.125      0.0414829659318637        1.22807502746582        45.8138714142612    6.49504390022837E-07           255034.203125                       0       -30.6800003051758          101671.8984375        288.407409667969        0.10957720130682       0.489058628917339                       0 
                 -0.125      0.0413827655310621        1.22807502746582        45.8138707692325    6.34962621572075E-07           255034.203125                       0       -30.6800003051758          101671.8984375        288.407409667969        0.10957720130682       0.489058623878052                       0 
                 -0.125      0.0412825651302605        1.22807502746582        45.8138701242037    6.20420853121314E-07           255034.203125                       0       -30.6800003051758          101671.8984375        288.407409667969        0.10957720130682       0.489058618838765                       0 
                 -0.125      0.0411823647294589        1.22807502746582         45.813869479175    6.05879084670552E-07           255034.203125                       0       -30.6800003051758          101671.8984375        288.407409667969        0.10957720130682       0.489058613799478                       0 
                 -0.125      0.0410821643286573        1.22807502746582        45.8138694763184    5.90574119952713E-07           255034.203125                       0       -30.6800003051758          101671.8984375        288.407409667969        0.10957720130682       0.489058613777161                       0 
                 -0.125      0.0409819639278557        1.22807502746582        45.8138694763184    5.75265760249044E-07           255034.203125                       0       -30.6800003051758          101671.8984375        288.407409667969        0.10957720130682       0.489058613777161                       0 
                 -0.125      0.0408817635270541        1.22807502746582        45.8138694763184    5.59957400545375E-07           255034.203125                       0       -30.6800003051758          101671.8984375        288.407409667969        0.10957720130682       0.489058613777161                       0 
                 -0.125      0.0407815631262525        1.22807502746582        45.8138694763184    5.44649040841706E-07           255034.203125                       0       -30.6800003051758          101671.8984375        288.407409667969        0.10957720130682       0.489058613777161                       0 
                 -0.125      0.0406813627254509        1.22807502746582        45.8138694763184    5.29079528483191E-07           255034.203125                       0       -30.6800003051758          101671.8984375        288.407409667969        0.10957720130682       0.489058613777161                       0 