TITLE = "Visualization of the volumetric solution"
VARIABLES = "x","y","Density","Momentum_x","Momentum_y","Energy","Pressure","Temperature","Mach","C<sub>p</sub>","Roe_Dissipation"
ZONE NODES= 648, ELEMENTS= 1162, DATAPACKING=POINT, ZONETYPE=FEQUADRILATERAL
1.000000e+00	-1.221726e-01	1.225046e+00	4.167086e+01	3.645630e+00	2.540142e+05	1.013200e+05	2.881198e+02	1.003460e-01	-7.031536e-03	0.000000e+00	
1.030704e+00	-1.144048e-01	1.225046e+00	4.167072e+01	3.645616e+00	2.540142e+05	1.013200e+05	2.881198e+02	1.003457e-01	-7.043757e-03	0.000000e+00	
1.060539e+00	-1.294350e-01	1.225046e+00	4.167092e+01	3.645596e+00	2.540142e+05	1.013200e+05	2.881198e+02	1.003462e-01	-7.052580e-03	0.000000e+00	
1.000000e+00	-8.726611e-02	1.225046e+00	4.167029e+01	3.645611e+00	2.540141e+05	1.013200e+05	2.881198e+02	1.003447e-01	-7.042601e-03	0.000000e+00	
1.059435e+00	-9.152708e-02	1.225046e+00	4.167044e+01	3.645572e+00	2.540141e+05	1.013200e+05	2.881198e+02	1.003450e-01	-7.046259e-03	0.000000e+00	
1.029431e+00	-7.250982e-02	1.225046e+00	4.167011e+01	3.645569e+00	2.540141e+05	1.013200e+05	2.881198e+02	1.003442e-01	-7.044434e-03	0.000000e+00	
1.087966e+00	-1.082062e-01	1.225046e+00	4.167067e+01	3.645589e+00	2.540142e+05	1.013200e+05	2.881198e+02	1.003456e-01	-7.045393e-03	0.000000e+00	
1.087331e+00	-1.347184e-01	1.225046e+00	4.167098e+01	3.645600e+00	2.540142e+05	1.013200e+05	2.881198e+02	1.003463e-01	-7.045598e-03	0.000000e+00	
1.000000e+00	-5.235967e-02	1.225046e+00	4.166978e+01	3.645509e+00	2.540141e+05	1.013200e+05	2.881198e+02	1.003435e-01	-7.052850e-03	0.000000e+00	
1.088428e+00	-7.229873e-02	1.225046e+00	4.167020e+01	3.645553e+00	2.540141e+05	1.013200e+05	2.881198e+02	1.003445e-01	-7.044823e-03	0.000000e+00	
1.059134e+00	-5.384261e-02	1.225046e+00	4.166993e+01	3.645524e+00	2.540141e+05	1.013200e+05	2.881198e+02	1.003438e-01	-7.045497e-03	0.000000e+00	
1.029316e+00	-3.555139e-02	1.225046e+00	4.166969e+01	3.645483e+00	2.540141e+05	1.013200e+05	2.881198e+02	1.003432e-01	-7.042996e-03	0.000000e+00	
1.116875e+00	-9.281059e-02	1.225046e+00	4.167051e+01	3.645594e+00	2.540142e+05	1.013200e+05	2.881198e+02	1.003452e-01	-7.045408e-03	0.000000e+00	
1.114702e+00	-1.303144e-01	1.225046e+00	4.167094e+01	3.645600e+00	2.540142e+05	1.013200e+05	2.881198e+02	1.003462e-01	-7.038148e-03	0.000000e+00	
1.000000e+00	-1.745322e-02	1.225046e+00	4.166961e+01	3.645439e+00	2.540141e+05	1.013200e+05	2.881198e+02	1.003430e-01	-7.051125e-03	0.000000e+00	
1.117914e+00	-5.427147e-02	1.225046e+00	4.167003e+01	3.645535e+00	2.540141e+05	1.013200e+05	2.881198e+02	1.003440e-01	-7.045798e-03	0.000000e+00	
1.088668e+00	-3.530330e-02	1.225046e+00	4.166980e+01	3.645496e+00	2.540141e+05	1.013200e+05	2.881198e+02	1.003435e-01	-7.045213e-03	0.000000e+00	
1.059119e+00	-1.730067e-02	1.225046e+00	4.166968e+01	3.645462e+00	2.540141e+05	1.013200e+05	2.881198e+02	1.003432e-01	-7.046508e-03	0.000000e+00	
1.029447e+00	2.813401e-04	1.225046e+00	4.166968e+01	3.645436e+00	2.540141e+05	1.013200e+05	2.881198e+02	1.003432e-01	-7.043356e-03	0.000000e+00	
1.146966e+00	-7.508992e-02	1.225046e+00	4.167032e+01	3.645568e+00	2.540141e+05	1.013200e+05	2.881198e+02	1.003447e-01	-7.046051e-03	0.000000e+00	
1.144684e+00	-1.190477e-01	1.225046e+00	4.167081e+01	3.645594e+00	2.540142e+05	1.013200e+05	2.881198e+02	1.003459e-01	-7.045832e-03	0.000000e+00	
1.000000e+00	1.745322e-02	1.225046e+00	4.166982e+01	3.645416e+00	2.540141e+05	1.013200e+05	2.881198e+02	1.003435e-01	-7.054112e-03	0.000000e+00	
1.147706e+00	-3.559710e-02	1.225046e+00	4.166990e+01	3.645508e+00	2.540141e+05	1.013200e+05	2.881198e+02	1.003437e-01	-7.045347e-03	0.000000e+00	
1.118218e+00	-1.683109e-02	1.225046e+00	4.166976e+01	3.645473e+00	2.540141e+05	1.013200e+05	2.881198e+02	1.003434e-01	-7.045620e-03	0.000000e+00	
1.088695e+00	1.145369e-03	1.225046e+00	4.166974e+01	3.645446e+00	2.540141e+05	1.013200e+05	2.881198e+02	1.003433e-01	-7.044923e-03	0.000000e+00	
1.059155e+00	1.870955e-02	1.225046e+00	4.166984e+01	3.645430e+00	2.540141e+05	1.013200e+05	2.881198e+02	1.003436e-01	-7.045446e-03	0.000000e+00	
1.175125e+00	-1.382137e-01	1.225046e+00	4.167099e+01	3.645590e+00	2.540142e+05	1.013200e+05	2.881198e+02	1.003464e-01	-7.044958e-03	0.000000e+00	
1.029627e+00	3.604695e-02	1.225046e+00	4.167006e+01	3.645424e+00	2.540141e+05	1.013200e+05	2.881198e+02	1.003441e-01	-7.044377e-03	0.000000e+00	
1.177353e+00	-5.502448e-02	1.225046e+00	4.167012e+01	3.645541e+00	2.540141e+05	1.013200e+05	2.881198e+02	1.003443e-01	-7.045609e-03	0.000000e+00	
1.176652e+00	-9.637272e-02	1.225046e+00	4.167060e+01	3.645586e+00	2.540142e+05	1.013200e+05	2.881198e+02	1.003454e-01	-7.045914e-03	0.000000e+00	
1.000000e+00	5.235967e-02	1.225046e+00	4.167037e+01	3.645438e+00	2.540141e+05	1.013200e+05	2.881198e+02	1.003448e-01	-7.045649e-03	0.000000e+00	
1.177466e+00	-1.630705e-02	1.225046e+00	4.166984e+01	3.645485e+00	2.540141e+05	1.013200e+05	2.881198e+02	1.003436e-01	-7.045659e-03	0.000000e+00	
1.147739e+00	1.987470e-03	1.225046e+00	4.166979e+01	3.645457e+00	2.540141e+05	1.013200e+05	2.881198e+02	1.003435e-01	-7.045641e-03	0.000000e+00	
1.118091e+00	1.984832e-02	1.225046e+00	4.166987e+01	3.645439e+00	2.540141e+05	1.013200e+05	2.881198e+02	1.003436e-01	-7.045853e-03	0.000000e+00	
1.088577e+00	3.732549e-02	1.225046e+00	4.167006e+01	3.645437e+00	2.540141e+05	1.013200e+05	2.881198e+02	1.003441e-01	-7.045392e-03	0.000000e+00	
1.059292e+00	5.488084e-02	1.225046e+00	4.167034e+01	3.645447e+00	2.540141e+05	1.013200e+05	2.881198e+02	1.003448e-01	-7.046071e-03	0.000000e+00	
1.207857e+00	-1.187444e-01	1.225046e+00	4.167082e+01	3.645591e+00	2.540142e+05	1.013200e+05	2.881198e+02	1.003459e-01	-7.044962e-03	0.000000e+00	
1.029717e+00	7.285547e-02	1.225046e+00	4.167067e+01	3.645463e+00	2.540142e+05	1.013200e+05	2.881198e+02	1.003456e-01	-7.045704e-03	0.000000e+00	
1.207434e+00	-7.444025e-02	1.225046e+00	4.167037e+01	3.645563e+00	2.540141e+05	1.013200e+05	2.881198e+02	1.003449e-01	-7.045234e-03	0.000000e+00	
1.207312e+00	-3.473886e-02	1.225046e+00	4.166998e+01	3.645515e+00	2.540141e+05	1.013200e+05	2.881198e+02	1.003439e-01	-7.045202e-03	0.000000e+00	
1.000000e+00	8.726611e-02	1.225046e+00	4.167094e+01	3.645500e+00	2.540142e+05	1.013200e+05	2.881198e+02	1.003462e-01	-7.038652e-03	0.000000e+00	
1.207018e+00	3.142310e-03	1.225046e+00	4.166985e+01	3.645469e+00	2.540141e+05	1.013200e+05	2.881198e+02	1.003436e-01	-7.045667e-03	0.000000e+00	
1.177177e+00	2.123107e-02	1.225046e+00	4.166990e+01	3.645448e+00	2.540141e+05	1.013200e+05	2.881198e+02	1.003437e-01	-7.045561e-03	0.000000e+00	
1.147346e+00	3.916496e-02	1.225046e+00	4.167006e+01	3.645441e+00	2.540141e+05	1.013200e+05	2.881198e+02	1.003441e-01	-7.045388e-03	0.000000e+00	
1.117642e+00	5.657846e-02	1.225046e+00	4.167030e+01	3.645449e+00	2.540141e+05	1.013200e+05	2.881198e+02	1.003447e-01	-7.045177e-03	0.000000e+00	
1.088389e+00	7.351909e-02	1.225046e+00	4.167058e+01	3.645479e+00	2.540142e+05	1.013200e+05	2.881198e+02	1.003454e-01	-7.045169e-03	0.000000e+00	
1.059455e+00	9.201402e-02	1.225046e+00	4.167090e+01	3.645516e+00	2.540142e+05	1.013200e+05	2.881198e+02	1.003461e-01	-7.044963e-03	0.000000e+00	
1.237507e+00	-1.299419e-01	1.225046e+00	4.167092e+01	3.645591e+00	2.540142e+05	1.013200e+05	2.881198e+02	1.003462e-01	-7.052284e-03	0.000000e+00	
1.237658e+00	-9.148342e-02	1.225046e+00	4.167058e+01	3.645561e+00	2.540142e+05	1.013200e+05	2.881198e+02	1.003454e-01	-7.046467e-03	0.000000e+00	
1.031253e+00	1.142640e-01	1.225046e+00	4.167117e+01	3.645538e+00	2.540142e+05	1.013200e+05	2.881198e+02	1.003468e-01	-7.045168e-03	0.000000e+00	
1.237226e+00	-5.265232e-02	1.225046e+00	4.167017e+01	3.645535e+00	2.540141e+05	1.013200e+05	2.881198e+02	1.003444e-01	-7.046154e-03	0.000000e+00	
1.236857e+00	-1.485332e-02	1.225046e+00	4.166991e+01	3.645491e+00	2.540141e+05	1.013200e+05	2.881198e+02	1.003438e-01	-7.045521e-03	0.000000e+00	
1.000000e+00	1.221726e-01	1.225046e+00	4.167127e+01	3.645581e+00	2.540142e+05	1.013200e+05	2.881198e+02	1.003470e-01	-7.030294e-03	0.000000e+00	
1.236368e+00	2.259709e-02	1.225046e+00	4.166994e+01	3.645461e+00	2.540141e+05	1.013200e+05	2.881198e+02	1.003438e-01	-7.045281e-03	0.000000e+00	
1.206517e+00	4.084701e-02	1.225046e+00	4.167007e+01	3.645450e+00	2.540141e+05	1.013200e+05	2.881198e+02	1.003441e-01	-7.045567e-03	0.000000e+00	
1.176606e+00	5.914654e-02	1.225046e+00	4.167028e+01	3.645453e+00	2.540141e+05	1.013200e+05	2.881198e+02	1.003446e-01	-7.045769e-03	0.000000e+00	
1.146511e+00	7.732971e-02	1.225046e+00	4.167055e+01	3.645471e+00	2.540142e+05	1.013200e+05	2.881198e+02	1.003453e-01	-7.046379e-03	0.000000e+00	
1.116722e+00	9.368562e-02	1.225046e+00	4.167081e+01	3.645495e+00	2.540142e+05	1.013200e+05	2.881198e+02	1.003459e-01	-7.044930e-03	0.000000e+00	
1.087796e+00	1.083939e-01	1.225046e+00	4.167100e+01	3.645543e+00	2.540142e+05	1.013200e+05	2.881198e+02	1.003464e-01	-7.046841e-03	0.000000e+00	
1.060972e+00	1.287664e-01	1.225046e+00	4.167119e+01	3.645574e+00	2.540142e+05	1.013200e+05	2.881198e+02	1.003468e-01	-7.052624e-03	0.000000e+00	
1.265256e+00	-1.323613e-01	1.225046e+00	4.167096e+01	3.645598e+00	2.540142e+05	1.013200e+05	2.881198e+02	1.003463e-01	-7.045782e-03	0.000000e+00	
1.268414e+00	-1.054355e-01	1.225046e+00	4.167073e+01	3.645573e+00	2.540142e+05	1.013200e+05	2.881198e+02	1.003457e-01	-7.044245e-03	0.000000e+00	
1.266962e+00	-6.968175e-02	1.225046e+00	4.167037e+01	3.645548e+00	2.540142e+05	1.013200e+05	2.881198e+02	1.003449e-01	-7.043516e-03	0.000000e+00	
1.035088e+00	1.570790e-01	1.225046e+00	4.167118e+01	3.645601e+00	2.540142e+05	1.013200e+05	2.881198e+02	1.003468e-01	-7.046090e-03	0.000000e+00	
1.266567e+00	-3.260772e-02	1.225046e+00	4.167004e+01	3.645515e+00	2.540141e+05	1.013200e+05	2.881198e+02	1.003441e-01	-7.045843e-03	0.000000e+00	
1.266173e+00	4.457448e-03	1.225046e+00	4.166991e+01	3.645477e+00	2.540141e+05	1.013200e+05	2.881198e+02	1.003438e-01	-7.045312e-03	0.000000e+00	
1.000000e+00	1.570790e-01	1.225046e+00	4.167119e+01	3.645620e+00	2.540142e+05	1.013200e+05	2.881198e+02	1.003468e-01	-7.036602e-03	0.000000e+00	
1.265584e+00	4.213511e-02	1.225046e+00	4.167008e+01	3.645458e+00	2.540141e+05	1.013200e+05	2.881198e+02	1.003442e-01	-7.045899e-03	0.000000e+00	
1.235678e+00	6.086442e-02	1.225046e+00	4.167027e+01	3.645456e+00	2.540141e+05	1.013200e+05	2.881198e+02	1.003446e-01	-7.046836e-03	0.000000e+00	
1.205923e+00	7.967268e-02	1.225046e+00	4.167050e+01	3.645475e+00	2.540142e+05	1.013200e+05	2.881198e+02	1.003452e-01	-7.045401e-03	0.000000e+00	
1.175878e+00	9.852100e-02	1.225046e+00	4.167077e+01	3.645506e+00	2.540142e+05	1.013200e+05	2.881198e+02	1.003458e-01	-7.044308e-03	0.000000e+00	
1.144656e+00	1.187559e-01	1.225046e+00	4.167100e+01	3.645541e+00	2.540142e+05	1.013200e+05	2.881198e+02	1.003464e-01	-7.045297e-03	0.000000e+00	
1.114416e+00	1.294958e-01	1.225046e+00	4.167113e+01	3.645566e+00	2.540142e+05	1.013200e+05	2.881198e+02	1.003467e-01	-7.038188e-03	0.000000e+00	
1.087629e+00	1.337300e-01	1.225046e+00	4.167116e+01	3.645581e+00	2.540142e+05	1.013200e+05	2.881198e+02	1.003468e-01	-7.046108e-03	0.000000e+00	
1.070175e+00	1.570790e-01	1.225046e+00	4.167115e+01	3.645596e+00	2.540142e+05	1.013200e+05	2.881198e+02	1.003467e-01	-7.049350e-03	0.000000e+00	
1.296095e+00	-1.183506e-01	1.225046e+00	4.167088e+01	3.645583e+00	2.540142e+05	1.013200e+05	2.881198e+02	1.003461e-01	-7.044265e-03	0.000000e+00	
1.295443e+00	-8.727593e-02	1.225046e+00	4.167056e+01	3.645566e+00	2.540141e+05	1.013200e+05	2.881198e+02	1.003453e-01	-7.048658e-03	0.000000e+00	
1.295801e+00	-5.037517e-02	1.225046e+00	4.167021e+01	3.645533e+00	2.540141e+05	1.013200e+05	2.881198e+02	1.003445e-01	-7.045715e-03	0.000000e+00	
1.295795e+00	-1.359959e-02	1.225046e+00	4.166997e+01	3.645496e+00	2.540141e+05	1.013200e+05	2.881198e+02	1.003439e-01	-7.045675e-03	0.000000e+00	
1.295403e+00	2.344757e-02	1.225046e+00	4.166997e+01	3.645467e+00	2.540141e+05	1.013200e+05	2.881198e+02	1.003439e-01	-7.046103e-03	0.000000e+00	
1.294725e+00	6.147109e-02	1.225046e+00	4.167024e+01	3.645470e+00	2.540141e+05	1.013200e+05	2.881198e+02	1.003445e-01	-7.044900e-03	0.000000e+00	
1.264770e+00	8.181826e-02	1.225046e+00	4.167047e+01	3.645478e+00	2.540142e+05	1.013200e+05	2.881198e+02	1.003451e-01	-7.045357e-03	0.000000e+00	
1.234591e+00	1.003622e-01	1.225046e+00	4.167070e+01	3.645503e+00	2.540142e+05	1.013200e+05	2.881198e+02	1.003456e-01	-7.042807e-03	0.000000e+00	
1.206003e+00	1.206011e-01	1.225046e+00	4.167091e+01	3.645528e+00	2.540142e+05	1.013200e+05	2.881198e+02	1.003461e-01	-7.047885e-03	0.000000e+00	
1.175367e+00	1.376067e-01	1.225046e+00	4.167107e+01	3.645561e+00	2.540142e+05	1.013200e+05	2.881198e+02	1.003466e-01	-7.046521e-03	0.000000e+00	
1.140351e+00	1.570790e-01	1.225046e+00	4.167111e+01	3.645584e+00	2.540142e+05	1.013200e+05	2.881198e+02	1.003467e-01	-7.051870e-03	0.000000e+00	
1.105263e+00	1.570790e-01	1.225046e+00	4.167114e+01	3.645594e+00	2.540142e+05	1.013200e+05	2.881198e+02	1.003467e-01	-7.041519e-03	0.000000e+00	
1.335612e+00	-1.206864e-01	1.225046e+00	4.167089e+01	3.645572e+00	2.540142e+05	1.013200e+05	2.881198e+02	1.003461e-01	-7.047433e-03	0.000000e+00	
1.320110e+00	-9.827724e-02	1.225046e+00	4.167071e+01	3.645575e+00	2.540142e+05	1.013200e+05	2.881198e+02	1.003457e-01	-7.044137e-03	0.000000e+00	
1.324183e+00	-6.846535e-02	1.225046e+00	4.167041e+01	3.645556e+00	2.540142e+05	1.013200e+05	2.881198e+02	1.003450e-01	-7.044455e-03	0.000000e+00	
1.325135e+00	-3.179317e-02	1.225046e+00	4.167009e+01	3.645519e+00	2.540141e+05	1.013200e+05	2.881198e+02	1.003442e-01	-7.045876e-03	0.000000e+00	
1.325101e+00	5.093806e-03	1.225046e+00	4.166996e+01	3.645482e+00	2.540141e+05	1.013200e+05	2.881198e+02	1.003439e-01	-7.045681e-03	0.000000e+00	
1.324553e+00	4.237214e-02	1.225046e+00	4.167008e+01	3.645467e+00	2.540141e+05	1.013200e+05	2.881198e+02	1.003442e-01	-7.045517e-03	0.000000e+00	
1.323574e+00	8.072855e-02	1.225046e+00	4.167040e+01	3.645480e+00	2.540141e+05	1.013200e+05	2.881198e+02	1.003449e-01	-7.046144e-03	0.000000e+00	
1.294060e+00	1.006378e-01	1.225046e+00	4.167062e+01	3.645498e+00	2.540142e+05	1.013200e+05	2.881198e+02	1.003455e-01	-7.047969e-03	0.000000e+00	
1.263670e+00	1.278612e-01	1.225046e+00	4.167087e+01	3.645534e+00	2.540142e+05	1.013200e+05	2.881198e+02	1.003461e-01	-7.045763e-03	0.000000e+00	
1.231273e+00	1.335981e-01	1.225046e+00	4.167100e+01	3.645547e+00	2.540142e+05	1.013200e+05	2.881198e+02	1.003464e-01	-7.048115e-03	0.000000e+00	
1.210526e+00	1.570790e-01	1.225046e+00	4.167106e+01	3.645574e+00	2.540142e+05	1.013200e+05	2.881198e+02	1.003465e-01	-7.040891e-03	0.000000e+00	
1.175439e+00	1.570790e-01	1.225046e+00	4.167116e+01	3.645580e+00	2.540142e+05	1.013200e+05	2.881198e+02	1.003468e-01	-7.046322e-03	0.000000e+00	
1.368993e+00	-1.206537e-01	1.225046e+00	4.167088e+01	3.645579e+00	2.540142e+05	1.013200e+05	2.881198e+02	1.003461e-01	-7.044592e-03	0.000000e+00	
1.353331e+00	-9.334860e-02	1.225046e+00	4.167065e+01	3.645569e+00	2.540142e+05	1.013200e+05	2.881198e+02	1.003455e-01	-7.045687e-03	0.000000e+00	
1.354495e+00	-5.082656e-02	1.225046e+00	4.167027e+01	3.645539e+00	2.540141e+05	1.013200e+05	2.881198e+02	1.003446e-01	-7.046417e-03	0.000000e+00	
1.354734e+00	-1.316107e-02	1.225046e+00	4.167002e+01	3.645501e+00	2.540141e+05	1.013200e+05	2.881198e+02	1.003440e-01	-7.045786e-03	0.000000e+00	
1.354393e+00	2.387782e-02	1.225046e+00	4.167000e+01	3.645474e+00	2.540141e+05	1.013200e+05	2.881198e+02	1.003440e-01	-7.045758e-03	0.000000e+00	
1.353607e+00	6.146269e-02	1.225046e+00	4.167022e+01	3.645472e+00	2.540141e+05	1.013200e+05	2.881198e+02	1.003445e-01	-7.046170e-03	0.000000e+00	
1.352430e+00	1.000229e-01	1.225046e+00	4.167056e+01	3.645500e+00	2.540142e+05	1.013200e+05	2.881198e+02	1.003453e-01	-7.045547e-03	0.000000e+00	
1.321643e+00	1.208034e-01	1.225046e+00	4.167076e+01	3.645521e+00	2.540142e+05	1.013200e+05	2.881198e+02	1.003458e-01	-7.043094e-03	0.000000e+00	
1.295675e+00	1.333952e-01	1.225046e+00	4.167090e+01	3.645536e+00	2.540142e+05	1.013200e+05	2.881198e+02	1.003461e-01	-7.045946e-03	0.000000e+00	
1.245614e+00	1.570790e-01	1.225046e+00	4.167104e+01	3.645584e+00	2.540142e+05	1.013200e+05	2.881198e+02	1.003465e-01	-7.046724e-03	0.000000e+00	
1.410258e+00	-1.177120e-01	1.225046e+00	4.167086e+01	3.645569e+00	2.540142e+05	1.013200e+05	2.881198e+02	1.003460e-01	-7.047340e-03	0.000000e+00	
1.386517e+00	-9.777020e-02	1.225046e+00	4.167073e+01	3.645576e+00	2.540142e+05	1.013200e+05	2.881198e+02	1.003457e-01	-7.047042e-03	0.000000e+00	
1.384442e+00	-6.788332e-02	1.225046e+00	4.167045e+01	3.645554e+00	2.540141e+05	1.013200e+05	2.881198e+02	1.003451e-01	-7.046512e-03	0.000000e+00	
1.384420e+00	-3.111305e-02	1.225046e+00	4.167015e+01	3.645519e+00	2.540141e+05	1.013200e+05	2.881198e+02	1.003443e-01	-7.045288e-03	0.000000e+00	
1.384206e+00	5.773239e-03	1.225046e+00	4.167000e+01	3.645488e+00	2.540141e+05	1.013200e+05	2.881198e+02	1.003440e-01	-7.046038e-03	0.000000e+00	
1.383571e+00	4.293264e-02	1.225046e+00	4.167009e+01	3.645472e+00	2.540141e+05	1.013200e+05	2.881198e+02	1.003442e-01	-7.045770e-03	0.000000e+00	
1.382583e+00	8.102458e-02	1.225046e+00	4.167037e+01	3.645483e+00	2.540141e+05	1.013200e+05	2.881198e+02	1.003448e-01	-7.045419e-03	0.000000e+00	
1.280702e+00	1.570790e-01	1.225046e+00	4.167100e+01	3.645574e+00	2.540142e+05	1.013200e+05	2.881198e+02	1.003464e-01	-7.043810e-03	0.000000e+00	
1.381943e+00	1.206324e-01	1.225046e+00	4.167069e+01	3.645515e+00	2.540142e+05	1.013200e+05	2.881198e+02	1.003456e-01	-7.046965e-03	0.000000e+00	
1.350819e+00	1.376268e-01	1.225046e+00	4.167085e+01	3.645538e+00	2.540142e+05	1.013200e+05	2.881198e+02	1.003460e-01	-7.047850e-03	0.000000e+00	
1.315789e+00	1.570790e-01	1.225046e+00	4.167095e+01	3.645562e+00	2.540142e+05	1.013200e+05	2.881198e+02	1.003463e-01	-7.047282e-03	0.000000e+00	
1.440484e+00	-1.308419e-01	1.225046e+00	4.167089e+01	3.645565e+00	2.540142e+05	1.013200e+05	2.881198e+02	1.003461e-01	-7.046835e-03	0.000000e+00	
1.413245e+00	-8.622515e-02	1.225046e+00	4.167062e+01	3.645565e+00	2.540142e+05	1.013200e+05	2.881198e+02	1.003455e-01	-7.044154e-03	0.000000e+00	
1.414011e+00	-4.895584e-02	1.225046e+00	4.167031e+01	3.645541e+00	2.540141e+05	1.013200e+05	2.881198e+02	1.003447e-01	-7.046299e-03	0.000000e+00	
1.414003e+00	-1.213045e-02	1.225046e+00	4.167007e+01	3.645505e+00	2.540141e+05	1.013200e+05	2.881198e+02	1.003442e-01	-7.045984e-03	0.000000e+00	
1.413507e+00	2.476108e-02	1.225046e+00	4.167003e+01	3.645480e+00	2.540141e+05	1.013200e+05	2.881198e+02	1.003440e-01	-7.045637e-03	0.000000e+00	
1.412533e+00	6.239840e-02	1.225046e+00	4.167021e+01	3.645473e+00	2.540141e+05	1.013200e+05	2.881198e+02	1.003445e-01	-7.046685e-03	0.000000e+00	
1.410884e+00	1.009305e-01	1.225046e+00	4.167052e+01	3.645499e+00	2.540142e+05	1.013200e+05	2.881198e+02	1.003452e-01	-7.044557e-03	0.000000e+00	
1.441631e+00	-1.033242e-01	1.225046e+00	4.167077e+01	3.645568e+00	2.540142e+05	1.013200e+05	2.881198e+02	1.003458e-01	-7.045490e-03	0.000000e+00	
1.406906e+00	1.331698e-01	1.225046e+00	4.167078e+01	3.645529e+00	2.540142e+05	1.013200e+05	2.881198e+02	1.003458e-01	-7.046650e-03	0.000000e+00	
1.385965e+00	1.570790e-01	1.225046e+00	4.167090e+01	3.645549e+00	2.540142e+05	1.013200e+05	2.881198e+02	1.003461e-01	-7.042838e-03	0.000000e+00	
1.350877e+00	1.570790e-01	1.225046e+00	4.167095e+01	3.645562e+00	2.540142e+05	1.013200e+05	2.881198e+02	1.003463e-01	-7.045920e-03	0.000000e+00	
1.474219e+00	-1.202920e-01	1.225046e+00	4.167085e+01	3.645560e+00	2.540142e+05	1.013200e+05	2.881198e+02	1.003460e-01	-7.044215e-03	0.000000e+00	
1.443580e+00	-6.716019e-02	1.225046e+00	4.167049e+01	3.645558e+00	2.540141e+05	1.013200e+05	2.881198e+02	1.003452e-01	-7.046432e-03	0.000000e+00	
1.443847e+00	-3.007524e-02	1.225046e+00	4.167020e+01	3.645524e+00	2.540141e+05	1.013200e+05	2.881198e+02	1.003445e-01	-7.045884e-03	0.000000e+00	
1.443480e+00	6.732912e-03	1.225046e+00	4.167004e+01	3.645493e+00	2.540141e+05	1.013200e+05	2.881198e+02	1.003441e-01	-7.045900e-03	0.000000e+00	
1.442677e+00	4.394244e-02	1.225046e+00	4.167010e+01	3.645475e+00	2.540141e+05	1.013200e+05	2.881198e+02	1.003442e-01	-7.046058e-03	0.000000e+00	
1.441397e+00	8.281170e-02	1.225046e+00	4.167035e+01	3.645485e+00	2.540141e+05	1.013200e+05	2.881198e+02	1.003448e-01	-7.045631e-03	0.000000e+00	
1.439477e+00	1.275325e-01	1.225046e+00	4.167067e+01	3.645518e+00	2.540142e+05	1.013200e+05	2.881198e+02	1.003456e-01	-7.045953e-03	0.000000e+00	
1.474300e+00	-8.712088e-02	1.225046e+00	4.167065e+01	3.645568e+00	2.540142e+05	1.013200e+05	2.881198e+02	1.003455e-01	-7.046517e-03	0.000000e+00	
1.421053e+00	1.570790e-01	1.225046e+00	4.167087e+01	3.645551e+00	2.540142e+05	1.013200e+05	2.881198e+02	1.003461e-01	-7.048346e-03	0.000000e+00	
1.507903e+00	-1.311819e-01	1.225046e+00	4.167085e+01	3.645551e+00	2.540142e+05	1.013200e+05	2.881198e+02	1.003460e-01	-7.050196e-03	0.000000e+00	
1.507213e+00	-1.030881e-01	1.225046e+00	4.167076e+01	3.645563e+00	2.540142e+05	1.013200e+05	2.881198e+02	1.003458e-01	-7.046004e-03	0.000000e+00	
1.474022e+00	-4.831366e-02	1.225046e+00	4.167036e+01	3.645543e+00	2.540141e+05	1.013200e+05	2.881198e+02	1.003448e-01	-7.045841e-03	0.000000e+00	
1.473539e+00	-1.122586e-02	1.225046e+00	4.167012e+01	3.645510e+00	2.540141e+05	1.013200e+05	2.881198e+02	1.003443e-01	-7.045881e-03	0.000000e+00	
1.472827e+00	2.555507e-02	1.225046e+00	4.167006e+01	3.645484e+00	2.540141e+05	1.013200e+05	2.881198e+02	1.003441e-01	-7.046301e-03	0.000000e+00	
1.471785e+00	6.295823e-02	1.225046e+00	4.167020e+01	3.645481e+00	2.540141e+05	1.013200e+05	2.881198e+02	1.003445e-01	-7.045338e-03	0.000000e+00	
1.470526e+00	1.011415e-01	1.225046e+00	4.167047e+01	3.645495e+00	2.540141e+05	1.013200e+05	2.881198e+02	1.003451e-01	-7.047589e-03	0.000000e+00	
1.456140e+00	1.570790e-01	1.225046e+00	4.167085e+01	3.645546e+00	2.540142e+05	1.013200e+05	2.881198e+02	1.003460e-01	-7.043195e-03	0.000000e+00	
1.504767e+00	-6.625047e-02	1.225046e+00	4.167052e+01	3.645554e+00	2.540142e+05	1.013200e+05	2.881198e+02	1.003452e-01	-7.045637e-03	0.000000e+00	
1.471333e+00	1.328038e-01	1.225046e+00	4.167072e+01	3.645520e+00	2.540142e+05	1.013200e+05	2.881198e+02	1.003457e-01	-7.045601e-03	0.000000e+00	
1.540561e+00	-1.183665e-01	1.225046e+00	4.167081e+01	3.645560e+00	2.540142e+05	1.013200e+05	2.881198e+02	1.003459e-01	-7.042750e-03	0.000000e+00	
1.535305e+00	-8.460902e-02	1.225046e+00	4.167065e+01	3.645567e+00	2.540142e+05	1.013200e+05	2.881198e+02	1.003455e-01	-7.048009e-03	0.000000e+00	
1.503701e+00	-2.901864e-02	1.225046e+00	4.167025e+01	3.645529e+00	2.540141e+05	1.013200e+05	2.881198e+02	1.003446e-01	-7.046367e-03	0.000000e+00	
1.502964e+00	7.588124e-03	1.225046e+00	4.167009e+01	3.645497e+00	2.540141e+05	1.013200e+05	2.881198e+02	1.003442e-01	-7.045856e-03	0.000000e+00	
1.502098e+00	4.431730e-02	1.225046e+00	4.167011e+01	3.645482e+00	2.540141e+05	1.013200e+05	2.881198e+02	1.003442e-01	-7.045911e-03	0.000000e+00	
1.500751e+00	8.185346e-02	1.225046e+00	4.167031e+01	3.645485e+00	2.540141e+05	1.013200e+05	2.881198e+02	1.003447e-01	-7.046358e-03	0.000000e+00	
1.498049e+00	1.207421e-01	1.225046e+00	4.167059e+01	3.645512e+00	2.540142e+05	1.013200e+05	2.881198e+02	1.003454e-01	-7.043808e-03	0.000000e+00	
1.491228e+00	1.570790e-01	1.225046e+00	4.167080e+01	3.645540e+00	2.540142e+05	1.013200e+05	2.881198e+02	1.003459e-01	-7.048990e-03	0.000000e+00	
1.533586e+00	-4.657014e-02	1.225046e+00	4.167039e+01	3.645541e+00	2.540141e+05	1.013200e+05	2.881198e+02	1.003449e-01	-7.045333e-03	0.000000e+00	
1.578795e+00	-1.248537e-01	1.225046e+00	4.167079e+01	3.645550e+00	2.540142e+05	1.013200e+05	2.881198e+02	1.003459e-01	-7.049362e-03	0.000000e+00	
1.560499e+00	-9.507579e-02	1.225046e+00	4.167073e+01	3.645568e+00	2.540142e+05	1.013200e+05	2.881198e+02	1.003457e-01	-7.045469e-03	0.000000e+00	
1.561928e+00	-6.324106e-02	1.225046e+00	4.167053e+01	3.645556e+00	2.540142e+05	1.013200e+05	2.881198e+02	1.003453e-01	-7.046816e-03	0.000000e+00	
1.532934e+00	-1.003334e-02	1.225046e+00	4.167017e+01	3.645514e+00	2.540141e+05	1.013200e+05	2.881198e+02	1.003444e-01	-7.046378e-03	0.000000e+00	
1.532373e+00	2.628532e-02	1.225046e+00	4.167009e+01	3.645490e+00	2.540141e+05	1.013200e+05	2.881198e+02	1.003442e-01	-7.045922e-03	0.000000e+00	
1.531607e+00	6.310567e-02	1.225046e+00	4.167019e+01	3.645483e+00	2.540141e+05	1.013200e+05	2.881198e+02	1.003444e-01	-7.046345e-03	0.000000e+00	
1.530188e+00	1.007773e-01	1.225046e+00	4.167043e+01	3.645496e+00	2.540141e+05	1.013200e+05	2.881198e+02	1.003450e-01	-7.046167e-03	0.000000e+00	
1.526889e+00	1.373625e-01	1.225046e+00	4.167068e+01	3.645519e+00	2.540142e+05	1.013200e+05	2.881198e+02	1.003456e-01	-7.047564e-03	0.000000e+00	
1.562328e+00	-2.739667e-02	1.225046e+00	4.167029e+01	3.645529e+00	2.540141e+05	1.013200e+05	2.881198e+02	1.003447e-01	-7.045909e-03	0.000000e+00	
1.526316e+00	1.570790e-01	1.225046e+00	4.167082e+01	3.645537e+00	2.540142e+05	1.013200e+05	2.881198e+02	1.003459e-01	-7.042897e-03	0.000000e+00	
1.613425e+00	-1.340707e-01	1.225046e+00	4.167079e+01	3.645551e+00	2.540142e+05	1.013200e+05	2.881198e+02	1.003459e-01	-7.043645e-03	0.000000e+00	
1.588144e+00	-8.215265e-02	1.225046e+00	4.167066e+01	3.645558e+00	2.540142e+05	1.013200e+05	2.881198e+02	1.003456e-01	-7.045084e-03	0.000000e+00	
1.590896e+00	-4.513995e-02	1.225046e+00	4.167042e+01	3.645545e+00	2.540141e+05	1.013200e+05	2.881198e+02	1.003450e-01	-7.046605e-03	0.000000e+00	
1.562315e+00	8.641431e-03	1.225046e+00	4.167012e+01	3.645502e+00	2.540141e+05	1.013200e+05	2.881198e+02	1.003443e-01	-7.046249e-03	0.000000e+00	
1.562168e+00	4.495366e-02	1.225046e+00	4.167013e+01	3.645486e+00	2.540141e+05	1.013200e+05	2.881198e+02	1.003443e-01	-7.046018e-03	0.000000e+00	
1.562008e+00	8.213775e-02	1.225046e+00	4.167029e+01	3.645488e+00	2.540141e+05	1.013200e+05	2.881198e+02	1.003447e-01	-7.045942e-03	0.000000e+00	
1.561805e+00	1.211377e-01	1.225046e+00	4.167054e+01	3.645508e+00	2.540142e+05	1.013200e+05	2.881198e+02	1.003453e-01	-7.045607e-03	0.000000e+00	
1.561404e+00	1.570790e-01	1.225046e+00	4.167077e+01	3.645533e+00	2.540142e+05	1.013200e+05	2.881198e+02	1.003458e-01	-7.045905e-03	0.000000e+00	
1.616341e+00	-1.024500e-01	1.225046e+00	4.167074e+01	3.645559e+00	2.540142e+05	1.013200e+05	2.881198e+02	1.003458e-01	-7.045767e-03	0.000000e+00	
1.591774e+00	-8.908819e-03	1.225046e+00	4.167021e+01	3.645516e+00	2.540141e+05	1.013200e+05	2.881198e+02	1.003445e-01	-7.046152e-03	0.000000e+00	
1.648242e+00	-1.278604e-01	1.225046e+00	4.167077e+01	3.645551e+00	2.540142e+05	1.013200e+05	2.881198e+02	1.003458e-01	-7.046629e-03	0.000000e+00	
1.619446e+00	-6.385374e-02	1.225046e+00	4.167056e+01	3.645556e+00	2.540142e+05	1.013200e+05	2.881198e+02	1.003453e-01	-7.046415e-03	0.000000e+00	
1.620943e+00	-2.671964e-02	1.225046e+00	4.167033e+01	3.645532e+00	2.540141e+05	1.013200e+05	2.881198e+02	1.003448e-01	-7.046299e-03	0.000000e+00	
1.592145e+00	2.714910e-02	1.225046e+00	4.167012e+01	3.645494e+00	2.540141e+05	1.013200e+05	2.881198e+02	1.003443e-01	-7.046172e-03	0.000000e+00	
1.592672e+00	6.363134e-02	1.225046e+00	4.167019e+01	3.645485e+00	2.540141e+05	1.013200e+05	2.881198e+02	1.003444e-01	-7.046328e-03	0.000000e+00	
1.593826e+00	1.008772e-01	1.225046e+00	4.167040e+01	3.645497e+00	2.540141e+05	1.013200e+05	2.881198e+02	1.003449e-01	-7.046511e-03	0.000000e+00	
1.596823e+00	1.371850e-01	1.225046e+00	4.167063e+01	3.645520e+00	2.540142e+05	1.013200e+05	2.881198e+02	1.003455e-01	-7.046619e-03	0.000000e+00	
1.649087e+00	-8.359130e-02	1.225046e+00	4.167067e+01	3.645557e+00	2.540142e+05	1.013200e+05	2.881198e+02	1.003456e-01	-7.046357e-03	0.000000e+00	
1.621649e+00	9.511040e-03	1.225046e+00	4.167016e+01	3.645506e+00	2.540141e+05	1.013200e+05	2.881198e+02	1.003444e-01	-7.046129e-03	0.000000e+00	
1.596491e+00	1.570790e-01	1.225046e+00	4.167077e+01	3.645539e+00	2.540142e+05	1.013200e+05	2.881198e+02	1.003458e-01	-7.049223e-03	0.000000e+00	
1.681001e+00	-1.329788e-01	1.225046e+00	4.167075e+01	3.645545e+00	2.540142e+05	1.013200e+05	2.881198e+02	1.003458e-01	-7.047047e-03	0.000000e+00	
1.679351e+00	-1.013359e-01	1.225046e+00	4.167073e+01	3.645555e+00	2.540142e+05	1.013200e+05	2.881198e+02	1.003457e-01	-7.047042e-03	0.000000e+00	
1.650272e+00	-4.494634e-02	1.225046e+00	4.167046e+01	3.645545e+00	2.540141e+05	1.013200e+05	2.881198e+02	1.003451e-01	-7.046276e-03	0.000000e+00	
1.650982e+00	-8.178377e-03	1.225046e+00	4.167025e+01	3.645520e+00	2.540141e+05	1.013200e+05	2.881198e+02	1.003446e-01	-7.046300e-03	0.000000e+00	
1.622387e+00	4.567720e-02	1.225046e+00	4.167014e+01	3.645487e+00	2.540141e+05	1.013200e+05	2.881198e+02	1.003443e-01	-7.046498e-03	0.000000e+00	
1.623873e+00	8.236367e-02	1.225046e+00	4.167028e+01	3.645490e+00	2.540141e+05	1.013200e+05	2.881198e+02	1.003446e-01	-7.045435e-03	0.000000e+00	
1.626171e+00	1.201790e-01	1.225046e+00	4.167050e+01	3.645502e+00	2.540142e+05	1.013200e+05	2.881198e+02	1.003452e-01	-7.046200e-03	0.000000e+00	
1.631579e+00	1.570790e-01	1.225046e+00	4.167071e+01	3.645524e+00	2.540142e+05	1.013200e+05	2.881198e+02	1.003457e-01	-7.042603e-03	0.000000e+00	
1.679919e+00	-6.317427e-02	1.225046e+00	4.167058e+01	3.645551e+00	2.540142e+05	1.013200e+05	2.881198e+02	1.003454e-01	-7.046316e-03	0.000000e+00	
1.651549e+00	2.795238e-02	1.225046e+00	4.167014e+01	3.645496e+00	2.540141e+05	1.013200e+05	2.881198e+02	1.003443e-01	-7.046479e-03	0.000000e+00	
1.707624e+00	-1.208804e-01	1.225046e+00	4.167075e+01	3.645549e+00	2.540142e+05	1.013200e+05	2.881198e+02	1.003458e-01	-7.045675e-03	0.000000e+00	
1.709491e+00	-8.156178e-02	1.225046e+00	4.167067e+01	3.645555e+00	2.540142e+05	1.013200e+05	2.881198e+02	1.003456e-01	-7.046202e-03	0.000000e+00	
1.680428e+00	-2.595945e-02	1.225046e+00	4.167037e+01	3.645534e+00	2.540141e+05	1.013200e+05	2.881198e+02	1.003449e-01	-7.046445e-03	0.000000e+00	
1.680654e+00	1.027953e-02	1.225046e+00	4.167020e+01	3.645509e+00	2.540141e+05	1.013200e+05	2.881198e+02	1.003444e-01	-7.046330e-03	0.000000e+00	
1.652748e+00	6.433360e-02	1.225046e+00	4.167020e+01	3.645488e+00	2.540141e+05	1.013200e+05	2.881198e+02	1.003444e-01	-7.045960e-03	0.000000e+00	