TITLE = "SU2 Simulation"
VARIABLES = "Iteration","CL","CD","CSF","CMx","CMy","CMz","CFx","CFy","CFz","CL/CD","AoA","Custom_ObjFunc","Res_Flow[0]","Res_Flow[1]","Res_Flow[2]","Res_Flow[3]","Res_Flow[4]","Linear_Solver_Iterations","CFL_Number","Time(min)"
ZONE T= "Convergence history"
           0, 0.00000000e+00, 0.00000000e+00, 0.00000000e+00, 0.00000000e+00, 0.00000000e+00, 0.00000000e+00, 0.00000000e+00, 0.00000000e+00, 0.00000000e+00, 0.00000000e+00, 0.00000000e+00, 0.00000000e+00, -1.59094501e+01, -1.24457524e+01, -1.27428481e+01, -1.05008890e+01, 0.00000000e+00, 5.0000000000, 5.0000000000, 0.0002252833
           1, 0.00000000e+00, 0.00000000e+00, 0.00000000e+00, 0.00000000e+00, 0.00000000e+00, 0.00000000e+00, 0.00000000e+00, 0.00000000e+00, 0.00000000e+00, 0.00000000e+00, 0.00000000e+00, 0.00000000e+00, -1.53901137e+01, -1.19755920e+01, 1.25434267e-01, -9.97195873e+00, 0.00000000e+00, 5.0000000000, 5.0000000000, 0.0004757500
           2, 0.00000000e+00, 0.00000000e+00, 0.00000000e+00, 0.00000000e+00, 0.00000000e+00, 0.00000000e+00, 0.00000000e+00, 0.00000000e+00, 0.00000000e+00, 0.00000000e+00, 0.00000000e+00, 0.00000000e+00, -4.11044358e+00, -2.24813065e+00, 1.08137278e-01, 1.33361341e+00, 0.00000000e+00, 5.0000000000, 5.0000000000, 0.0006980000
           3, 0.00000000e+00, 0.00000000e+00, 0.00000000e+00, 0.00000000e+00, 0.00000000e+00, 0.00000000e+00, 0.00000000e+00, 0.00000000e+00, 0.00000000e+00, 0.00000000e+00, 0.00000000e+00, 0.00000000e+00, -4.03755372e+00, -2.00310550e+00, 9.08052953e-02, 1.39977009e+00, 0.00000000e+00, 5.0000000000, 5.0000000000, 0.0009235667
           4, 0.00000000e+00, 0.00000000e+00, 0.00000000e+00, 0.00000000e+00, 0.00000000e+00, 0.00000000e+00, 0.00000000e+00, 0.00000000e+00, 0.00000000e+00, 0.00000000e+00, 0.00000000e+00, 0.00000000e+00, -4.14759084e+00, -1.88446798e+00, 7.34386349e-02, 1.28063251e+00, 0.00000000e+00, 5.0000000000, 5.0000000000, 0.0011478000
           5, 0.00000000e+00, 0.00000000e+00, 0.00000000e+00, 0.00000000e+00, 0.00000000e+00, 0.00000000e+00, 0.00000000e+00, 0.00000000e+00, 0.00000000e+00, 0.00000000e+00, 0.00000000e+00, 0.00000000e+00, -4.40122645e+00, -1.81461787e+00, 5.58208753e-02, 1.00645794e+00, 0.00000000e+00, 5.0000000000, 5.0000000000, 0.0013844667
           6, 0.00000000e+00, 0.00000000e+00, 0.00000000e+00, 0.00000000e+00, 0.00000000e+00, 0.00000000e+00, 0.00000000e+00, 0.00000000e+00, 0.00000000e+00, 0.00000000e+00, 0.00000000e+00, 0.00000000e+00, -4.80125031e+00, -1.76844968e+00, 3.78960979e-02, 5.78772112e-01, 0.00000000e+00, 5.0000000000, 5.0000000000, 0.0016043833
           7, 0.00000000e+00, 0.00000000e+00, 0.00000000e+00, 0.00000000e+00, 0.00000000e+00, 0.00000000e+00, 0.00000000e+00, 0.00000000e+00, 0.00000000e+00, 0.00000000e+00, 0.00000000e+00, 0.00000000e+00, -4.67835823e+00, -1.73569654e+00, 1.98806128e-02, 7.99407331e-01, 0.00000000e+00, 5.0000000000, 5.0000000000, 0.0018792667
           8, 0.00000000e+00, 0.00000000e+00, 0.00000000e+00, 0.00000000e+00, 0.00000000e+00, 0.00000000e+00, 0.00000000e+00, 0.00000000e+00, 0.00000000e+00, 0.00000000e+00, 0.00000000e+00, 0.00000000e+00, -4.53002546e+00, -1.71211169e+00, 1.98365910e-03, 9.44206412e-01, 0.00000000e+00, 5.0000000000, 5.0000000000, 0.0021233500
           9, 0.00000000e+00, 0.00000000e+00, 0.00000000e+00, 0.00000000e+00, 0.00000000e+00, 0.00000000e+00, 0.00000000e+00, 0.00000000e+00, 0.00000000e+00, 0.00000000e+00, 0.00000000e+00, 0.00000000e+00, -4.50781336e+00, -1.69586413e+00, -1.59342090e-02, 9.61615175e-01, 0.00000000e+00, 5.0000000000, 5.0000000000, 0.0023807333
          10, 0.00000000e+00, 0.00000000e+00, 0.00000000e+00, 0.00000000e+00, 0.00000000e+00, 0.00000000e+00, 0.00000000e+00, 0.00000000e+00, 0.00000000e+00, 0.00000000e+00, 0.00000000e+00, 0.00000000e+00, -4.54630856e+00, -1.68612831e+00, -3.38348821e-02, 9.19094976e-01, 0.00000000e+00, 5.0000000000, 5.0000000000, 0.0026597000
          11, 0.00000000e+00, 0.00000000e+00, 0.00000000e+00, 0.00000000e+00, 0.00000000e+00, 0.00000000e+00, 0.00000000e+00, 0.00000000e+00, 0.00000000e+00, 0.00000000e+00, 0.00000000e+00, 0.00000000e+00, -4.59064872e+00, -1.68222262e+00, -5.17160322e-02, 8.70736562e-01, 0.00000000e+00, 5.0000000000, 5.0000000000, 0.0029224167
          12, 0.00000000e+00, 0.00000000e+00, 0.00000000e+00, 0.00000000e+00, 0.00000000e+00, 0.00000000e+00, 0.00000000e+00, 0.00000000e+00, 0.00000000e+00, 0.00000000e+00, 0.00000000e+00, 0.00000000e+00, -4.60000941e+00, -1.68364164e+00, -6.95973834e-02, 8.58596240e-01, 0.00000000e+00, 5.0000000000, 5.0000000000, 0.0031869500
          13, 0.00000000e+00, 0.00000000e+00, 0.00000000e+00, 0.00000000e+00, 0.00000000e+00, 0.00000000e+00, 0.00000000e+00, 0.00000000e+00, 0.00000000e+00, 0.00000000e+00, 0.00000000e+00, 0.00000000e+00, -4.57960642e+00, -1.69007892e+00, -8.74967427e-02, 8.78235556e-01, 0.00000000e+00, 5.0000000000, 5.0000000000, 0.0034556000
          14, 0.00000000e+00, 0.00000000e+00, 0.00000000e+00, 0.00000000e+00, 0.00000000e+00, 0.00000000e+00, 0.00000000e+00, 0.00000000e+00, 0.00000000e+00, 0.00000000e+00, 0.00000000e+00, 0.00000000e+00, -4.55296279e+00, -1.70131472e+00, -1.05418580e-01, 9.05171030e-01, 0.00000000e+00, 5.0000000000, 5.0000000000, 0.0037218667
          15, 0.00000000e+00, 0.00000000e+00, 0.00000000e+00, 0.00000000e+00, 0.00000000e+00, 0.00000000e+00, 0.00000000e+00, 0.00000000e+00, 0.00000000e+00, 0.00000000e+00, 0.00000000e+00, 0.00000000e+00, -4.52958917e+00, -1.71710189e+00, -1.23363061e-01, 9.29146850e-01, 0.00000000e+00, 5.0000000000, 5.0000000000, 0.0039704333
          16, 0.00000000e+00, 0.00000000e+00, 0.00000000e+00, 0.00000000e+00, 0.00000000e+00, 0.00000000e+00, 0.00000000e+00, 0.00000000e+00, 0.00000000e+00, 0.00000000e+00, 0.00000000e+00, 0.00000000e+00, -4.51009642e+00, -1.73714538e+00, -1.41330624e-01, 9.49268577e-01, 0.00000000e+00, 5.0000000000, 5.0000000000, 0.0042159667
          17, 0.00000000e+00, 0.00000000e+00, 0.00000000e+00, 0.00000000e+00, 0.00000000e+00, 0.00000000e+00, 0.00000000e+00, 0.00000000e+00, 0.00000000e+00, 0.00000000e+00, 0.00000000e+00, 0.00000000e+00, -4.49474106e+00, -1.76115264e+00, -1.59320241e-01, 9.65151135e-01, 0.00000000e+00, 5.0000000000, 5.0000000000, 0.0044795667
          18, 0.00000000e+00, 0.00000000e+00, 0.00000000e+00, 0.00000000e+00, 0.00000000e+00, 0.00000000e+00, 0.00000000e+00, 0.00000000e+00, 0.00000000e+00, 0.00000000e+00, 0.00000000e+00, 0.00000000e+00, -4.48483668e+00, -1.78888927e+00, -1.77328425e-01, 9.75432402e-01, 0.00000000e+00, 5.0000000000, 5.0000000000, 0.0047380500
          19, 0.00000000e+00, 0.00000000e+00, 0.00000000e+00, 0.00000000e+00, 0.00000000e+00, 0.00000000e+00, 0.00000000e+00, 0.00000000e+00, 0.00000000e+00, 0.00000000e+00, 0.00000000e+00, 0.00000000e+00, -4.48142583e+00, -1.82020056e+00, -1.95350135e-01, 9.79084044e-01, 0.00000000e+00, 5.0000000000, 5.0000000000, 0.0050230167
          20, 0.00000000e+00, 0.00000000e+00, 0.00000000e+00, 0.00000000e+00, 0.00000000e+00, 0.00000000e+00, 0.00000000e+00, 0.00000000e+00, 0.00000000e+00, 0.00000000e+00, 0.00000000e+00, 0.00000000e+00, -4.48465075e+00, -1.85500189e+00, -2.13380370e-01, 9.76007815e-01, 0.00000000e+00, 5.0000000000, 5.0000000000, 0.0053012500
          21, 0.00000000e+00, 0.00000000e+00, 0.00000000e+00, 0.00000000e+00, 0.00000000e+00, 0.00000000e+00, 0.00000000e+00, 0.00000000e+00, 0.00000000e+00, 0.00000000e+00, 0.00000000e+00, 0.00000000e+00, -4.49407331e+00, -1.89325740e+00, -2.31415349e-01, 9.66687841e-01, 0.00000000e+00, 5.0000000000, 5.0000000000, 0.0055842000
          22, 0.00000000e+00, 0.00000000e+00, 0.00000000e+00, 0.00000000e+00, 0.00000000e+00, 0.00000000e+00, 0.00000000e+00, 0.00000000e+00, 0.00000000e+00, 0.00000000e+00, 0.00000000e+00, 0.00000000e+00, -4.50917010e+00, -1.93495552e+00, -2.49452984e-01, 9.51683494e-01, 0.00000000e+00, 5.0000000000, 5.0000000000, 0.0058659833
          23, 0.00000000e+00, 0.00000000e+00, 0.00000000e+00, 0.00000000e+00, 0.00000000e+00, 0.00000000e+00, 0.00000000e+00, 0.00000000e+00, 0.00000000e+00, 0.00000000e+00, 0.00000000e+00, 0.00000000e+00, -4.52958433e+00, -1.98007130e+00, -2.67492686e-01, 9.31377324e-01, 0.00000000e+00, 5.0000000000, 5.0000000000, 0.0061325167
          24, 0.00000000e+00, 0.00000000e+00, 0.00000000e+00, 0.00000000e+00, 0.00000000e+00, 0.00000000e+00, 0.00000000e+00, 0.00000000e+00, 0.00000000e+00, 0.00000000e+00, 0.00000000e+00, 0.00000000e+00, -4.55515475e+00, -2.02849716e+00, -2.85534829e-01, 9.05951522e-01, 0.00000000e+00, 5.0000000000, 5.0000000000, 0.0064134333
          25, 0.00000000e+00, 0.00000000e+00, 0.00000000e+00, 0.00000000e+00, 0.00000000e+00, 0.00000000e+00, 0.00000000e+00, 0.00000000e+00, 0.00000000e+00, 0.00000000e+00, 0.00000000e+00, 0.00000000e+00, -4.58588585e+00, -2.07992225e+00, -3.03580107e-01, 8.75424134e-01, 0.00000000e+00, 5.0000000000, 5.0000000000, 0.0066713500
          26, 0.00000000e+00, 0.00000000e+00, 0.00000000e+00, 0.00000000e+00, 0.00000000e+00, 0.00000000e+00, 0.00000000e+00, 0.00000000e+00, 0.00000000e+00, 0.00000000e+00, 0.00000000e+00, 0.00000000e+00, -4.62195341e+00, -2.13364001e+00, -3.21628993e-01, 8.39649122e-01, 0.00000000e+00, 5.0000000000, 5.0000000000, 0.0069323667
          27, 0.00000000e+00, 0.00000000e+00, 0.00000000e+00, 0.00000000e+00, 0.00000000e+00, 0.00000000e+00, 0.00000000e+00, 0.00000000e+00, 0.00000000e+00, 0.00000000e+00, 0.00000000e+00, 0.00000000e+00, -4.66374074e+00, -2.18825964e+00, -3.39681442e-01, 7.98285604e-01, 0.00000000e+00, 5.0000000000, 5.0000000000, 0.0072057167
          28, 0.00000000e+00, 0.00000000e+00, 0.00000000e+00, 0.00000000e+00, 0.00000000e+00, 0.00000000e+00, 0.00000000e+00, 0.00000000e+00, 0.00000000e+00, 0.00000000e+00, 0.00000000e+00, 0.00000000e+00, -4.71187505e+00, -2.24133559e+00, -3.57736847e-01, 7.50769211e-01, 0.00000000e+00, 5.0000000000, 5.0000000000, 0.0074375500
          29, 0.00000000e+00, 0.00000000e+00, 0.00000000e+00, 0.00000000e+00, 0.00000000e+00, 0.00000000e+00, 0.00000000e+00, 0.00000000e+00, 0.00000000e+00, 0.00000000e+00, 0.00000000e+00, 0.00000000e+00, -4.76726440e+00, -2.28908244e+00, -3.75794182e-01, 6.96288638e-01, 0.00000000e+00, 5.0000000000, 5.0000000000, 0.0076716167
          30, 0.00000000e+00, 0.00000000e+00, 0.00000000e+00, 0.00000000e+00, 0.00000000e+00, 0.00000000e+00, 0.00000000e+00, 0.00000000e+00, 0.00000000e+00, 0.00000000e+00, 0.00000000e+00, 0.00000000e+00, -4.83116454e+00, -2.32665576e+00, -3.93852231e-01, 6.33744282e-01, 0.00000000e+00, 5.0000000000, 5.0000000000, 0.0079182833
          31, 0.00000000e+00, 0.00000000e+00, 0.00000000e+00, 0.00000000e+00, 0.00000000e+00, 0.00000000e+00, 0.00000000e+00, 0.00000000e+00, 0.00000000e+00, 0.00000000e+00, 0.00000000e+00, 0.00000000e+00, -4.90528317e+00, -2.34959904e+00, -4.11909747e-01, 5.61694760e-01, 0.00000000e+00, 5.0000000000, 5.0000000000, 0.0081630000
          32, 0.00000000e+00, 0.00000000e+00, 0.00000000e+00, 0.00000000e+00, 0.00000000e+00, 0.00000000e+00, 0.00000000e+00, 0.00000000e+00, 0.00000000e+00, 0.00000000e+00, 0.00000000e+00, 0.00000000e+00, -4.99179247e+00, -2.35611250e+00, -4.29965492e-01, 4.78444685e-01, 0.00000000e+00, 5.0000000000, 5.0000000000, 0.0083909500
          33, 0.00000000e+00, 0.00000000e+00, 0.00000000e+00, 0.00000000e+00, 0.00000000e+00, 0.00000000e+00, 0.00000000e+00, 0.00000000e+00, 0.00000000e+00, 0.00000000e+00, 0.00000000e+00, 0.00000000e+00, -5.09257422e+00, -2.34821372e+00, -4.48018111e-01, 3.82955136e-01, 0.00000000e+00, 5.0000000000, 5.0000000000, 0.0086094167
          34, 0.00000000e+00, 0.00000000e+00, 0.00000000e+00, 0.00000000e+00, 0.00000000e+00, 0.00000000e+00, 0.00000000e+00, 0.00000000e+00, 0.00000000e+00, 0.00000000e+00, 0.00000000e+00, 0.00000000e+00, -5.20472215e+00, -2.33048511e+00, -4.66065923e-01, 2.79169088e-01, 0.00000000e+00, 5.0000000000, 5.0000000000, 0.0088644167
          35, 0.00000000e+00, 0.00000000e+00, 0.00000000e+00, 0.00000000e+00, 0.00000000e+00, 0.00000000e+00, 0.00000000e+00, 0.00000000e+00, 0.00000000e+00, 0.00000000e+00, 0.00000000e+00, 0.00000000e+00, -5.30304295e+00, -2.30778069e+00, -4.84107307e-01, 1.90249770e-01, 0.00000000e+00, 5.0000000000, 5.0000000000, 0.0090972500
          36, 0.00000000e+00, 0.00000000e+00, 0.00000000e+00, 0.00000000e+00, 0.00000000e+00, 0.00000000e+00, 0.00000000e+00, 0.00000000e+00, 0.00000000e+00, 0.00000000e+00, 0.00000000e+00, 0.00000000e+00, -5.32160842e+00, -2.28380797e+00, -5.02144863e-01, 1.70324395e-01, 0.00000000e+00, 5.0000000000, 5.0000000000, 0.0093491833
          37, 0.00000000e+00, 0.00000000e+00, 0.00000000e+00, 0.00000000e+00, 0.00000000e+00, 0.00000000e+00, 0.00000000e+00, 0.00000000e+00, 0.00000000e+00, 0.00000000e+00, 0.00000000e+00, 0.00000000e+00, -5.24095749e+00, -2.26089351e+00, -5.20192043e-01, 2.38433235e-01, 0.00000000e+00, 5.0000000000, 5.0000000000, 0.0095823833
          38, 0.00000000e+00, 0.00000000e+00, 0.00000000e+00, 0.00000000e+00, 0.00000000e+00, 0.00000000e+00, 0.00000000e+00, 0.00000000e+00, 0.00000000e+00, 0.00000000e+00, 0.00000000e+00, 0.00000000e+00, -5.12758271e+00, -2.24029399e+00, -5.38255990e-01, 3.42316565e-01, 0.00000000e+00, 5.0000000000, 5.0000000000, 0.0098064500
          39, 0.00000000e+00, 0.00000000e+00, 0.00000000e+00, 0.00000000e+00, 0.00000000e+00, 0.00000000e+00, 0.00000000e+00, 0.00000000e+00, 0.00000000e+00, 0.00000000e+00, 0.00000000e+00, 0.00000000e+00, -5.02174541e+00, -2.22258737e+00, -5.56330500e-01, 4.43437616e-01, 0.00000000e+00, 5.0000000000, 5.0000000000, 0.0100243167
          40, 0.00000000e+00, 0.00000000e+00, 0.00000000e+00, 0.00000000e+00, 0.00000000e+00, 0.00000000e+00, 0.00000000e+00, 0.00000000e+00, 0.00000000e+00, 0.00000000e+00, 0.00000000e+00, 0.00000000e+00, -4.93140485e+00, -2.20801078e+00, -5.74410618e-01, 5.31540411e-01, 0.00000000e+00, 5.0000000000, 5.0000000000, 0.0103135500
          41, 0.00000000e+00, 0.00000000e+00, 0.00000000e+00, 0.00000000e+00, 0.00000000e+00, 0.00000000e+00, 0.00000000e+00, 0.00000000e+00, 0.00000000e+00, 0.00000000e+00, 0.00000000e+00, 0.00000000e+00, -4.85568436e+00, -2.19668567e+00, -5.92494446e-01, 6.06114515e-01, 0.00000000e+00, 5.0000000000, 5.0000000000, 0.0105755833
          42, 0.00000000e+00, 0.00000000e+00, 0.00000000e+00, 0.00000000e+00, 0.00000000e+00, 0.00000000e+00, 0.00000000e+00, 0.00000000e+00, 0.00000000e+00, 0.00000000e+00, 0.00000000e+00, 0.00000000e+00, -4.79251046e+00, -2.18875293e+00, -6.10581504e-01, 6.68587712e-01, 0.00000000e+00, 5.0000000000, 5.0000000000, 0.0108752500
          43, 0.00000000e+00, 0.00000000e+00, 0.00000000e+00, 0.00000000e+00, 0.00000000e+00, 0.00000000e+00, 0.00000000e+00, 0.00000000e+00, 0.00000000e+00, 0.00000000e+00, 0.00000000e+00, 0.00000000e+00, -4.74012751e+00, -2.18444096e+00, -6.28671882e-01, 7.20407144e-01, 0.00000000e+00, 5.0000000000, 5.0000000000, 0.0111384333
          44, 0.00000000e+00, 0.00000000e+00, 0.00000000e+00, 0.00000000e+00, 0.00000000e+00, 0.00000000e+00, 0.00000000e+00, 0.00000000e+00, 0.00000000e+00, 0.00000000e+00, 0.00000000e+00, 0.00000000e+00, -4.69723525e+00, -2.18407673e+00, -6.46765905e-01, 7.62711428e-01, 0.00000000e+00, 5.0000000000, 5.0000000000, 0.0113923833
          45, 0.00000000e+00, 0.00000000e+00, 0.00000000e+00, 0.00000000e+00, 0.00000000e+00, 0.00000000e+00, 0.00000000e+00, 0.00000000e+00, 0.00000000e+00, 0.00000000e+00, 0.00000000e+00, 0.00000000e+00, -4.66287786e+00, -2.18804498e+00, -6.64863990e-01, 7.96360975e-01, 0.00000000e+00, 5.0000000000, 5.0000000000, 0.0116500167
          46, 0.00000000e+00, 0.00000000e+00, 0.00000000e+00, 0.00000000e+00, 0.00000000e+00, 0.00000000e+00, 0.00000000e+00, 0.00000000e+00, 0.00000000e+00, 0.00000000e+00, 0.00000000e+00, 0.00000000e+00, -4.63631847e+00, -2.19669672e+00, -6.82966562e-01, 8.22028257e-01, 0.00000000e+00, 5.0000000000, 5.0000000000, 0.0118810500
          47, 0.00000000e+00, 0.00000000e+00, 0.00000000e+00, 0.00000000e+00, 0.00000000e+00, 0.00000000e+00, 0.00000000e+00, 0.00000000e+00, 0.00000000e+00, 0.00000000e+00, 0.00000000e+00, 0.00000000e+00, -4.61693706e+00, -2.21019850e+00, -7.01074018e-01, 8.40284152e-01, 0.00000000e+00, 5.0000000000, 5.0000000000, 0.0121178167
          48, 0.00000000e+00, 0.00000000e+00, 0.00000000e+00, 0.00000000e+00, 0.00000000e+00, 0.00000000e+00, 0.00000000e+00, 0.00000000e+00, 0.00000000e+00, 0.00000000e+00, 0.00000000e+00, 0.00000000e+00, -4.60414916e+00, -2.22829917e+00, -7.19186683e-01, 8.51673036e-01, 0.00000000e+00, 5.0000000000, 5.0000000000, 0.0123610833
          49, 0.00000000e+00, 0.00000000e+00, 0.00000000e+00, 0.00000000e+00, 0.00000000e+00, 0.00000000e+00, 0.00000000e+00, 0.00000000e+00, 0.00000000e+00, 0.00000000e+00, 0.00000000e+00, 0.00000000e+00, -4.59733693e+00, -2.24998083e+00, -7.37304776e-01, 8.56781742e-01, 0.00000000e+00, 5.0000000000, 5.0000000000, 0.0126042500
          50, 0.00000000e+00, 0.00000000e+00, 0.00000000e+00, 0.00000000e+00, 0.00000000e+00, 0.00000000e+00, 0.00000000e+00, 0.00000000e+00, 0.00000000e+00, 0.00000000e+00, 0.00000000e+00, 0.00000000e+00, -4.59578643e+00, -2.27299613e+00, -7.55428386e-01, 8.56308147e-01, 0.00000000e+00, 5.0000000000, 5.0000000000, 0.0128307000
          51, 0.00000000e+00, 0.00000000e+00, 0.00000000e+00, 0.00000000e+00, 0.00000000e+00, 0.00000000e+00, 0.00000000e+00, 0.00000000e+00, 0.00000000e+00, 0.00000000e+00, 0.00000000e+00, 0.00000000e+00, -4.59862983e+00, -2.29347263e+00, -7.73557435e-01, 8.51131270e-01, 0.00000000e+00, 5.0000000000, 5.0000000000, 0.0130510000
          52, 0.00000000e+00, 0.00000000e+00, 0.00000000e+00, 0.00000000e+00, 0.00000000e+00, 0.00000000e+00, 0.00000000e+00, 0.00000000e+00, 0.00000000e+00, 0.00000000e+00, 0.00000000e+00, 0.00000000e+00, -4.60479992e+00, -2.30615759e+00, -7.91691656e-01, 8.42376087e-01, 0.00000000e+00, 5.0000000000, 5.0000000000, 0.0132991500
          53, 0.00000000e+00, 0.00000000e+00, 0.00000000e+00, 0.00000000e+00, 0.00000000e+00, 0.00000000e+00, 0.00000000e+00, 0.00000000e+00, 0.00000000e+00, 0.00000000e+00, 0.00000000e+00, 0.00000000e+00, -4.61301529e+00, -2.30607542e+00, -8.09830572e-01, 8.31451056e-01, 0.00000000e+00, 5.0000000000, 5.0000000000, 0.0135393500
          54, 0.00000000e+00, 0.00000000e+00, 0.00000000e+00, 0.00000000e+00, 0.00000000e+00, 0.00000000e+00, 0.00000000e+00, 0.00000000e+00, 0.00000000e+00, 0.00000000e+00, 0.00000000e+00, 0.00000000e+00, -4.62182701e+00, -2.29121677e+00, -8.27973483e-01, 8.20016626e-01, 0.00000000e+00, 5.0000000000, 5.0000000000, 0.0137903500
          55, 0.00000000e+00, 0.00000000e+00, 0.00000000e+00, 0.00000000e+00, 0.00000000e+00, 0.00000000e+00, 0.00000000e+00, 0.00000000e+00, 0.00000000e+00, 0.00000000e+00, 0.00000000e+00, 0.00000000e+00, -4.62975851e+00, -2.26384911e+00, -8.46119468e-01, 8.09832494e-01, 0.00000000e+00, 5.0000000000, 5.0000000000, 0.0140235167
          56, 0.00000000e+00, 0.00000000e+00, 0.00000000e+00, 0.00000000e+00, 0.00000000e+00, 0.00000000e+00, 0.00000000e+00, 0.00000000e+00, 0.00000000e+00, 0.00000000e+00, 0.00000000e+00, 0.00000000e+00, -4.63554349e+00, -2.22891365e+00, -8.64267393e-01, 8.02459993e-01, 0.00000000e+00, 5.0000000000, 5.0000000000, 0.0142536667
          57, 0.00000000e+00, 0.00000000e+00, 0.00000000e+00, 0.00000000e+00, 0.00000000e+00, 0.00000000e+00, 0.00000000e+00, 0.00000000e+00, 0.00000000e+00, 0.00000000e+00, 0.00000000e+00, 0.00000000e+00, -4.63840523e+00, -2.19135625e+00, -8.82415924e-01, 7.98884276e-01, 0.00000000e+00, 5.0000000000, 5.0000000000, 0.0144901667
          58, 0.00000000e+00, 0.00000000e+00, 0.00000000e+00, 0.00000000e+00, 0.00000000e+00, 0.00000000e+00, 0.00000000e+00, 0.00000000e+00, 0.00000000e+00, 0.00000000e+00, 0.00000000e+00, 0.00000000e+00, -4.63826186e+00, -2.15464448e+00, -9.00563541e-01, 7.99222884e-01, 0.00000000e+00, 5.0000000000, 5.0000000000, 0.0147469833
          59, 0.00000000e+00, 0.00000000e+00, 0.00000000e+00, 0.00000000e+00, 0.00000000e+00, 0.00000000e+00, 0.00000000e+00, 0.00000000e+00, 0.00000000e+00, 0.00000000e+00, 0.00000000e+00, 0.00000000e+00, -4.63575181e+00, -2.12063354e+00, -9.18708554e-01, 8.02687406e-01, 0.00000000e+00, 5.0000000000, 5.0000000000, 0.0149810833
          60, 0.00000000e+00, 0.00000000e+00, 0.00000000e+00, 0.00000000e+00, 0.00000000e+00, 0.00000000e+00, 0.00000000e+00, 0.00000000e+00, 0.00000000e+00, 0.00000000e+00, 0.00000000e+00, 0.00000000e+00, -4.63206957e+00, -2.08998826e+00, -9.36849125e-01, 8.07816940e-01, 0.00000000e+00, 5.0000000000, 5.0000000000, 0.0152501000
          61, 0.00000000e+00, 0.00000000e+00, 0.00000000e+00, 0.00000000e+00, 0.00000000e+00, 0.00000000e+00, 0.00000000e+00, 0.00000000e+00, 0.00000000e+00, 0.00000000e+00, 0.00000000e+00, 0.00000000e+00, -4.62870685e+00, -2.06264033e+00, -9.54983309e-01, 8.12835796e-01, 0.00000000e+00, 5.0000000000, 5.0000000000, 0.0154863167
          62, 0.00000000e+00, 0.00000000e+00, 0.00000000e+00, 0.00000000e+00, 0.00000000e+00, 0.00000000e+00, 0.00000000e+00, 0.00000000e+00, 0.00000000e+00, 0.00000000e+00, 0.00000000e+00, 0.00000000e+00, -4.62721958e+00, -2.03813395e+00, -9.73109109e-01, 8.15956825e-01, 0.00000000e+00, 5.0000000000, 5.0000000000, 0.0157109500
          63, 0.00000000e+00, 0.00000000e+00, 0.00000000e+00, 0.00000000e+00, 0.00000000e+00, 0.00000000e+00, 0.00000000e+00, 0.00000000e+00, 0.00000000e+00, 0.00000000e+00, 0.00000000e+00, 0.00000000e+00, -4.62908966e+00, -2.01586771e+00, -9.91224548e-01, 8.15542553e-01, 0.00000000e+00, 5.0000000000, 5.0000000000, 0.0159476333
          64, 0.00000000e+00, 0.00000000e+00, 0.00000000e+00, 0.00000000e+00, 0.00000000e+00, 0.00000000e+00, 0.00000000e+00, 0.00000000e+00, 0.00000000e+00, 0.00000000e+00, 0.00000000e+00, 0.00000000e+00, -4.63568706e+00, -1.99526483e+00, -1.00932773e+00, 8.10132498e-01, 0.00000000e+00, 5.0000000000, 5.0000000000, 0.0161790667
          65, 0.00000000e+00, 0.00000000e+00, 0.00000000e+00, 0.00000000e+00, 0.00000000e+00, 0.00000000e+00, 0.00000000e+00, 0.00000000e+00, 0.00000000e+00, 0.00000000e+00, 0.00000000e+00, 0.00000000e+00, -4.64830646e+00, -1.97588897e+00, -1.02741689e+00, 7.98383016e-01, 0.00000000e+00, 5.0000000000, 5.0000000000, 0.0164053833
          66, 0.00000000e+00, 0.00000000e+00, 0.00000000e+00, 0.00000000e+00, 0.00000000e+00, 0.00000000e+00, 0.00000000e+00, 0.00000000e+00, 0.00000000e+00, 0.00000000e+00, 0.00000000e+00, 0.00000000e+00, -4.66825291e+00, -1.95750865e+00, -1.04549046e+00, 7.78957546e-01, 0.00000000e+00, 5.0000000000, 5.0000000000, 0.0166567333
          67, 0.00000000e+00, 0.00000000e+00, 0.00000000e+00, 0.00000000e+00, 0.00000000e+00, 0.00000000e+00, 0.00000000e+00, 0.00000000e+00, 0.00000000e+00, 0.00000000e+00, 0.00000000e+00, 0.00000000e+00, -4.69696704e+00, -1.94010990e+00, -1.06354714e+00, 7.50380282e-01, 0.00000000e+00, 5.0000000000, 5.0000000000, 0.0168802333
          68, 0.00000000e+00, 0.00000000e+00, 0.00000000e+00, 0.00000000e+00, 0.00000000e+00, 0.00000000e+00, 0.00000000e+00, 0.00000000e+00, 0.00000000e+00, 0.00000000e+00, 0.00000000e+00, 0.00000000e+00, -4.73620077e+00, -1.92386419e+00, -1.08158588e+00, 7.10839933e-01, 0.00000000e+00, 5.0000000000, 5.0000000000, 0.0170967167
          69, 0.00000000e+00, 0.00000000e+00, 0.00000000e+00, 0.00000000e+00, 0.00000000e+00, 0.00000000e+00, 0.00000000e+00, 0.00000000e+00, 0.00000000e+00, 0.00000000e+00, 0.00000000e+00, 0.00000000e+00, -4.78828044e+00, -1.90906799e+00, -1.09960602e+00, 6.57900869e-01, 0.00000000e+00, 5.0000000000, 5.0000000000, 0.0173329000
          70, 0.00000000e+00, 0.00000000e+00, 0.00000000e+00, 0.00000000e+00, 0.00000000e+00, 0.00000000e+00, 0.00000000e+00, 0.00000000e+00, 0.00000000e+00, 0.00000000e+00, 0.00000000e+00, 0.00000000e+00, -4.85653063e+00, -1.89607440e+00, -1.11760724e+00, 5.88039190e-01, 0.00000000e+00, 5.0000000000, 5.0000000000, 0.0175622833
          71, 0.00000000e+00, 0.00000000e+00, 0.00000000e+00, 0.00000000e+00, 0.00000000e+00, 0.00000000e+00, 0.00000000e+00, 0.00000000e+00, 0.00000000e+00, 0.00000000e+00, 0.00000000e+00, 0.00000000e+00, -4.94596704e+00, -1.88523355e+00, -1.13558960e+00, 4.95890611e-01, 0.00000000e+00, 5.0000000000, 5.0000000000, 0.0177824167
          72, 0.00000000e+00, 0.00000000e+00, 0.00000000e+00, 0.00000000e+00, 0.00000000e+00, 0.00000000e+00, 0.00000000e+00, 0.00000000e+00, 0.00000000e+00, 0.00000000e+00, 0.00000000e+00, 0.00000000e+00, -5.06415847e+00, -1.87685054e+00, -1.15355348e+00, 3.73413370e-01, 0.00000000e+00, 5.0000000000, 5.0000000000, 0.0179918333
          73, 0.00000000e+00, 0.00000000e+00, 0.00000000e+00, 0.00000000e+00, 0.00000000e+00, 0.00000000e+00, 0.00000000e+00, 0.00000000e+00, 0.00000000e+00, 0.00000000e+00, 0.00000000e+00, 0.00000000e+00, -5.21914595e+00, -1.87116226e+00, -1.17149933e+00, 2.13433938e-01, 0.00000000e+00, 5.0000000000, 5.0000000000, 0.0182212333
          74, 0.00000000e+00, 0.00000000e+00, 0.00000000e+00, 0.00000000e+00, 0.00000000e+00, 0.00000000e+00, 0.00000000e+00, 0.00000000e+00, 0.00000000e+00, 0.00000000e+00, 0.00000000e+00, 0.00000000e+00, -5.38313846e+00, -1.86832968e+00, -1.18942708e+00, 5.91373935e-02, 0.00000000e+00, 5.0000000000, 5.0000000000, 0.0184538667
          75, 0.00000000e+00, 0.00000000e+00, 0.00000000e+00, 0.00000000e+00, 0.00000000e+00, 0.00000000e+00, 0.00000000e+00, 0.00000000e+00, 0.00000000e+00, 0.00000000e+00, 0.00000000e+00, 0.00000000e+00, -5.37990791e+00, -1.86844090e+00, -1.20733739e+00, 9.93862264e-02, 0.00000000e+00, 5.0000000000, 5.0000000000, 0.0186937167
          76, 0.00000000e+00, 0.00000000e+00, 0.00000000e+00, 0.00000000e+00, 0.00000000e+00, 0.00000000e+00, 0.00000000e+00, 0.00000000e+00, 0.00000000e+00, 0.00000000e+00, 0.00000000e+00, 0.00000000e+00, -5.22008489e+00, -1.87152362e+00, -1.22524196e+00, 2.65289209e-01, 0.00000000e+00, 5.0000000000, 5.0000000000, 0.0189447167
          77, 0.00000000e+00, 0.00000000e+00, 0.00000000e+00, 0.00000000e+00, 0.00000000e+00, 0.00000000e+00, 0.00000000e+00, 0.00000000e+00, 0.00000000e+00, 0.00000000e+00, 0.00000000e+00, 0.00000000e+00, -5.07352512e+00, -1.87755860e+00, -1.24314463e+00, 4.07463178e-01, 0.00000000e+00, 5.0000000000, 5.0000000000, 0.0191926667
          78, 0.00000000e+00, 0.00000000e+00, 0.00000000e+00, 0.00000000e+00, 0.00000000e+00, 0.00000000e+00, 0.00000000e+00, 0.00000000e+00, 0.00000000e+00, 0.00000000e+00, 0.00000000e+00, 0.00000000e+00, -4.96320140e+00, -1.88649077e+00, -1.26104538e+00, 5.13940457e-01, 0.00000000e+00, 5.0000000000, 5.0000000000, 0.0194398000
          79, 0.00000000e+00, 0.00000000e+00, 0.00000000e+00, 0.00000000e+00, 0.00000000e+00, 0.00000000e+00, 0.00000000e+00, 0.00000000e+00, 0.00000000e+00, 0.00000000e+00, 0.00000000e+00, 0.00000000e+00, -4.88069448e+00, -1.89824402e+00, -1.27894661e+00, 5.93735556e-01, 0.00000000e+00, 5.0000000000, 5.0000000000, 0.0196666000
          80, 0.00000000e+00, 0.00000000e+00, 0.00000000e+00, 0.00000000e+00, 0.00000000e+00, 0.00000000e+00, 0.00000000e+00, 0.00000000e+00, 0.00000000e+00, 0.00000000e+00, 0.00000000e+00, 0.00000000e+00, -4.81848002e+00, -1.91273448e+00, -1.29685152e+00, 6.54018119e-01, 0.00000000e+00, 5.0000000000, 5.0000000000, 0.0198908167
          81, 0.00000000e+00, 0.00000000e+00, 0.00000000e+00, 0.00000000e+00, 0.00000000e+00, 0.00000000e+00, 0.00000000e+00, 0.00000000e+00, 0.00000000e+00, 0.00000000e+00, 0.00000000e+00, 0.00000000e+00, -4.77158234e+00, -1.92988203e+00, -1.31476352e+00, 6.99481559e-01, 0.00000000e+00, 5.0000000000, 5.0000000000, 0.0201300333
          82, 0.00000000e+00, 0.00000000e+00, 0.00000000e+00, 0.00000000e+00, 0.00000000e+00, 0.00000000e+00, 0.00000000e+00, 0.00000000e+00, 0.00000000e+00, 0.00000000e+00, 0.00000000e+00, 0.00000000e+00, -4.73671317e+00, -1.94961989e+00, -1.33268600e+00, 7.33237416e-01, 0.00000000e+00, 5.0000000000, 5.0000000000, 0.0203682500
          83, 0.00000000e+00, 0.00000000e+00, 0.00000000e+00, 0.00000000e+00, 0.00000000e+00, 0.00000000e+00, 0.00000000e+00, 0.00000000e+00, 0.00000000e+00, 0.00000000e+00, 0.00000000e+00, 0.00000000e+00, -4.71161086e+00, -1.97190213e+00, -1.35062221e+00, 7.57437761e-01, 0.00000000e+00, 5.0000000000, 5.0000000000, 0.0205910500
          84, 0.00000000e+00, 0.00000000e+00, 0.00000000e+00, 0.00000000e+00, 0.00000000e+00, 0.00000000e+00, 0.00000000e+00, 0.00000000e+00, 0.00000000e+00, 0.00000000e+00, 0.00000000e+00, 0.00000000e+00, -4.69464849e+00, -1.99670922e+00, -1.36857526e+00, 7.73639777e-01, 0.00000000e+00, 5.0000000000, 5.0000000000, 0.0208020667
          85, 0.00000000e+00, 0.00000000e+00, 0.00000000e+00, 0.00000000e+00, 0.00000000e+00, 0.00000000e+00, 0.00000000e+00, 0.00000000e+00, 0.00000000e+00, 0.00000000e+00, 0.00000000e+00, 0.00000000e+00, -4.68460422e+00, -2.02405170e+00, -1.38654799e+00, 7.83019532e-01, 0.00000000e+00, 5.0000000000, 5.0000000000, 0.0210459333
          86, 0.00000000e+00, 0.00000000e+00, 0.00000000e+00, 0.00000000e+00, 0.00000000e+00, 0.00000000e+00, 0.00000000e+00, 0.00000000e+00, 0.00000000e+00, 0.00000000e+00, 0.00000000e+00, 0.00000000e+00, -4.68052255e+00, -2.05397238e+00, -1.40454300e+00, 7.86501785e-01, 0.00000000e+00, 5.0000000000, 5.0000000000, 0.0212795500
          87, 0.00000000e+00, 0.00000000e+00, 0.00000000e+00, 0.00000000e+00, 0.00000000e+00, 0.00000000e+00, 0.00000000e+00, 0.00000000e+00, 0.00000000e+00, 0.00000000e+00, 0.00000000e+00, 0.00000000e+00, -4.68162673e+00, -2.08654789e+00, -1.42256253e+00, 7.84842373e-01, 0.00000000e+00, 5.0000000000, 5.0000000000, 0.0215172667
          88, 0.00000000e+00, 0.00000000e+00, 0.00000000e+00, 0.00000000e+00, 0.00000000e+00, 0.00000000e+00, 0.00000000e+00, 0.00000000e+00, 0.00000000e+00, 0.00000000e+00, 0.00000000e+00, 0.00000000e+00, -4.68726081e+00, -2.12189019e+00, -1.44060851e+00, 7.78683129e-01, 0.00000000e+00, 5.0000000000, 5.0000000000, 0.0217523833
          89, 0.00000000e+00, 0.00000000e+00, 0.00000000e+00, 0.00000000e+00, 0.00000000e+00, 0.00000000e+00, 0.00000000e+00, 0.00000000e+00, 0.00000000e+00, 0.00000000e+00, 0.00000000e+00, 0.00000000e+00, -4.69684918e+00, -2.16014896e+00, -1.45868246e+00, 7.68590497e-01, 0.00000000e+00, 5.0000000000, 5.0000000000, 0.0219699333