 VARIABLES = "X",  "Y"
 ZONE N=        2146 , E=        4122 , F=FEPOINT, ET=QUADRILATERAL
        0.5000000000       -1.2500000000
       -2.0000000000       -1.2500000000
        0.5000000000        1.2500000000
       -2.0000000000        1.2500000000
        0.4404761905       -1.2500000000
        0.3809523810       -1.2500000000
        0.3214285714       -1.2500000000
        0.2619047619       -1.2500000000
        0.2023809524       -1.2500000000
        0.1428571429       -1.2500000000
        0.0833333333       -1.2500000000
        0.0238095238       -1.2500000000
       -0.0357142857       -1.2500000000
       -0.0952380952       -1.2500000000
       -0.1547619048       -1.2500000000
       -0.2142857143       -1.2500000000
       -0.2738095238       -1.2500000000
       -0.3333333333       -1.2500000000
       -0.3928571429       -1.2500000000
       -0.4523809524       -1.2500000000
       -0.5119047619       -1.2500000000
       -0.5714285714       -1.2500000000
       -0.6309523810       -1.2500000000
       -0.6904761905       -1.2500000000
       -0.7500000000       -1.2500000000
       -0.8095238095       -1.2500000000
       -0.8690476190       -1.2500000000
       -0.9285714286       -1.2500000000
       -0.9880952381       -1.2500000000
       -1.0476190476       -1.2500000000
       -1.1071428571       -1.2500000000
       -1.1666666667       -1.2500000000
       -1.2261904762       -1.2500000000
       -1.2857142857       -1.2500000000
       -1.3452380952       -1.2500000000
       -1.4047619048       -1.2500000000
       -1.4642857143       -1.2500000000
       -1.5238095238       -1.2500000000
       -1.5833333333       -1.2500000000
       -1.6428571429       -1.2500000000
       -1.7023809524       -1.2500000000
       -1.7619047619       -1.2500000000
       -1.8214285714       -1.2500000000
       -1.8809523810       -1.2500000000
       -1.9404761905       -1.2500000000
        0.5000000000        1.1904761905
        0.5000000000        1.1309523810
        0.5000000000        1.0714285714
        0.5000000000        1.0119047619
        0.5000000000        0.9523809524
        0.5000000000        0.8928571429
        0.5000000000        0.8333333333
        0.5000000000        0.7738095238
        0.5000000000        0.7142857143
        0.5000000000        0.6547619048
        0.5000000000        0.5952380952
        0.5000000000        0.5357142857
        0.5000000000        0.4761904762
        0.5000000000        0.4166666667
        0.5000000000        0.3571428571
        0.5000000000        0.2976190476
        0.5000000000        0.2380952381
        0.5000000000        0.1785714286
        0.5000000000        0.1190476190
        0.5000000000        0.0595238095
        0.5000000000       -0.0000000000
        0.5000000000       -0.0595238095
        0.5000000000       -0.1190476190
        0.5000000000       -0.1785714286
        0.5000000000       -0.2380952381
        0.5000000000       -0.2976190476
        0.5000000000       -0.3571428571
        0.5000000000       -0.4166666667
        0.5000000000       -0.4761904762
        0.5000000000       -0.5357142857
        0.5000000000       -0.5952380952
        0.5000000000       -0.6547619048
        0.5000000000       -0.7142857143
        0.5000000000       -0.7738095238
        0.5000000000       -0.8333333333
        0.5000000000       -0.8928571429
        0.5000000000       -0.9523809524
        0.5000000000       -1.0119047619
        0.5000000000       -1.0714285714
        0.5000000000       -1.1309523810
        0.5000000000       -1.1904761905
       -1.9404761905        1.2500000000
       -1.8809523810        1.2500000000
       -1.8214285714        1.2500000000
       -1.7619047619        1.2500000000
       -1.7023809524        1.2500000000
       -1.6428571429        1.2500000000
       -1.5833333333        1.2500000000
       -1.5238095238        1.2500000000
       -1.4642857143        1.2500000000
       -1.4047619048        1.2500000000
       -1.3452380952        1.2500000000
       -1.2857142857        1.2500000000
       -1.2261904762        1.2500000000
       -1.1666666667        1.2500000000
       -1.1071428571        1.2500000000
       -1.0476190476        1.2500000000
       -0.9880952381        1.2500000000
       -0.9285714286        1.2500000000
       -0.8690476190        1.2500000000
       -0.8095238095        1.2500000000
       -0.7500000000        1.2500000000
       -0.6904761905        1.2500000000
       -0.6309523810        1.2500000000
       -0.5714285714        1.2500000000
       -0.5119047619        1.2500000000
       -0.4523809524        1.2500000000
       -0.3928571429        1.2500000000
       -0.3333333333        1.2500000000
       -0.2738095238        1.2500000000
       -0.2142857143        1.2500000000
       -0.1547619048        1.2500000000
       -0.0952380952        1.2500000000
       -0.0357142857        1.2500000000
        0.0238095238        1.2500000000
        0.0833333333        1.2500000000
        0.1428571429        1.2500000000
        0.2023809524        1.2500000000
        0.2619047619        1.2500000000
        0.3214285714        1.2500000000
        0.3809523810        1.2500000000
        0.4404761905        1.2500000000
       -2.0000000000       -1.1904761905
       -2.0000000000       -1.1309523810
       -2.0000000000       -1.0714285714
       -2.0000000000       -1.0119047619
       -2.0000000000       -0.9523809524
       -2.0000000000       -0.8928571429
       -2.0000000000       -0.8333333333
       -2.0000000000       -0.7738095238
       -2.0000000000       -0.7142857143
       -2.0000000000       -0.6547619048
       -2.0000000000       -0.5952380952
       -2.0000000000       -0.5357142857
       -2.0000000000       -0.4761904762
       -2.0000000000       -0.4166666667
       -2.0000000000       -0.3571428571
       -2.0000000000       -0.2976190476
       -2.0000000000       -0.2380952381
       -2.0000000000       -0.1785714286
       -2.0000000000       -0.1190476190
       -2.0000000000       -0.0595238095
       -2.0000000000        0.0000000000
       -2.0000000000        0.0595238095
       -2.0000000000        0.1190476190
       -2.0000000000        0.1785714286
       -2.0000000000        0.2380952381
       -2.0000000000        0.2976190476
       -2.0000000000        0.3571428571
       -2.0000000000        0.4166666667
       -2.0000000000        0.4761904762
       -2.0000000000        0.5357142857
       -2.0000000000        0.5952380952
       -2.0000000000        0.6547619048
       -2.0000000000        0.7142857143
       -2.0000000000        0.7738095238
       -2.0000000000        0.8333333333
       -2.0000000000        0.8928571429
       -2.0000000000        0.9523809524
       -2.0000000000        1.0119047619
       -2.0000000000        1.0714285714
       -2.0000000000        1.1309523810
       -2.0000000000        1.1904761905
        0.4060946911       -1.2015496206
        0.4652889670        0.9242480905
       -1.9550718381       -0.9865004130
       -1.9638945740       -0.8912255120
       -1.9358338460       -0.9417365055
       -1.9046009606       -0.9929542904
       -1.8798255792       -1.0420748525
       -1.4485107792       -0.4327591928
       -1.5081465466       -0.4320549383
       -1.5680724538       -0.4313275362
       -1.9355544144       -0.4262539694
       -1.8711946223       -0.4276657448
       -1.8089459355       -0.4283888915
       -1.7481984515       -0.4290757549
       -1.6881223841       -0.4298115994
       -1.6281193197       -0.4305679775
       -1.4777849248       -0.3816951612
       -1.5376122455       -0.3809859989
       -1.5976746011       -0.3802527769
       -1.9582141754       -0.3813818309
       -1.9033872239       -0.3779206704
       -1.8399503801       -0.3777924859
       -1.7782650673       -0.3781942409
       -1.7178319467       -0.3788046072
       -1.6577609160       -0.3795128467
       -1.5071732873       -0.3306445729
       -1.5671810314       -0.3299324236
       -1.6273287857       -0.3292069329
       -1.9448529783       -0.3271137086
       -1.8728130273       -0.3270697625
       -1.8089531342       -0.3273380913
       -1.7477256436       -0.3278442630
       -1.6874549666       -0.3284924865
       -1.5366672918       -0.2795978899
       -1.5968107692       -0.2788894375
       -1.9582064352       -0.2728178861
       -1.9032660999       -0.2760620945
       -1.8395903552       -0.2764468807
       -1.7777314023       -0.2768924567
       -1.7171708080       -0.2774919374
       -1.6569985938       -0.2781764803
       -1.5662359084       -0.2285564686
       -1.9356051781       -0.2274650655
       -1.8706662197       -0.2259142884
       -1.8079666990       -0.2259842009
       -1.7469331391       -0.2264999857
       -1.6866488964       -0.2271564639
       -1.6264566465       -0.2278548501
       -1.5958374639       -0.1775169575
       -1.9637835889       -0.1770436773
       -1.9021752825       -0.1747526096
       -1.8385507661       -0.1748117749
       -1.7768174464       -0.1754115313
       -1.7162782280       -0.1761096511
       -1.6560744525       -0.1768169615
       -1.9647872310       -1.1939781068
       -1.9384435992       -1.0425612399
       -1.9549962951       -1.0958055271
       -1.9371356152       -1.1421178024
       -1.9083268856       -1.1985953281
       -1.9064319501       -1.0901986197
       -1.8773662909       -1.1447188645
       -1.8492964054       -1.1998164946
       -1.8475334036       -1.0927272652
       -1.8180676716       -1.1460169685
       -1.7899551863       -1.2001596266
       -1.9638902264       -0.7762917430
       -1.9366881892       -0.8341254682
       -1.9041612140       -0.8881918701
       -1.8737983045       -0.9400616179
       -1.8453896297       -0.9910215802
       -1.8163221955       -1.0419074627
       -1.7869752378       -1.0936153377
       -1.7584114178       -1.1465415955
       -1.7304855903       -1.2001888908
       -1.9579703139       -0.6807733359
       -1.9359827569       -0.7271848153
       -1.9038545012       -0.7811912037
       -1.8731486879       -0.8350078488
       -1.8427902270       -0.8876354303
       -1.8135320837       -0.9393236325
       -1.7846400662       -0.9906544543
       -1.7557687721       -1.0420977305
       -1.7271173821       -1.0940705262
       -1.6988978127       -1.1467912260
       -1.6710166070       -1.2001348178
       -1.9580775180       -0.5721541911
       -1.9447984815       -0.6268658189
       -1.9042011353       -0.6793740615
       -1.8727358384       -0.7308264236
       -1.8419761867       -0.7833456318
       -1.8119949213       -0.8357778523
       -1.7825580927       -0.8877635674
       -1.7535405454       -0.9393913979
       -1.7247007955       -0.9908857118
       -1.6960273839       -1.0424781027
       -1.6676007605       -1.0944400478
       -1.6394606471       -1.1469792829
       -1.6115400662       -1.2000776657
       -1.9636920959       -0.4765045925
       -1.9354816699       -0.5279359626
       -1.9037699821       -0.5772651117
       -1.8739107339       -0.6291084653
       -1.8416574651       -0.6809233590
       -1.8111738380       -0.7326515493
       -1.7813421893       -0.7845976072
       -1.7519512301       -0.8365020728
       -1.7228324591       -0.8882487009
       -1.6938960361       -0.9398471208
       -1.6651157504       -0.9913618803
       -1.6365263509       -1.0429355175
       -1.6081604016       -1.0947992549
       -1.5800152743       -1.1471629673
       -1.5520462625       -1.2000289742
       -1.9025500577       -0.4775373977
       -1.8715332641       -0.5283777479
       -1.8409096971       -0.5791975058
       -1.8107412982       -0.6306596620
       -1.7805020831       -0.6822284771
       -1.7508304889       -0.7338409721
       -1.7214637040       -0.7855356797
       -1.6922798199       -0.8372381274
       -1.6632293041       -0.8888847930
       -1.6343214866       -0.9404353519
       -1.6055870571       -0.9919006779
       -1.5770488128       -1.0433991863
       -1.5487096323       -1.0951476720
       -1.5205546242       -1.1473427025
       -1.4925489850       -1.1999808388
       -1.8399005414       -0.4784451397
       -1.8095191576       -0.5293724332
       -1.7795819295       -0.5804771270
       -1.7499176140       -0.6318203852
       -1.7203690803       -0.6832603749
       -1.6909994914       -0.7347720551
       -1.6617439336       -0.7863531719
       -1.6325903044       -0.8379627062
       -1.6035682597       -0.8895385144
       -1.5747168327       -0.9410231550
       -1.5460555898       -0.9924182825
       -1.5175798095       -1.0438357150
       -1.4892723251       -1.0954754571
       -1.4611122189       -1.1475104045
       -1.4330673296       -1.1999271699
       -1.7786946352       -0.4792792184
       -1.7489059865       -0.5303134683
       -1.7193560187       -0.5814815167
       -1.6899117143       -0.6327694010
       -1.6605168659       -0.6841398623
       -1.6311879429       -0.7355867658
       -1.6019463998       -0.7871000251
       -1.5728345601       -0.8386409766
       -1.5438954078       -0.8901471772
       -1.5151490522       -0.9415628389
       -1.4865855179       -0.9928920210
       -1.4581770542       -1.0442386923
       -1.4298952105       -1.0957804562
       -1.4017164938       -1.1476637901
       -1.3736112724       -1.1998673344
       -1.7184671305       -0.4800844273
       -1.6889174097       -0.5311783243
       -1.6594459398       -0.5823572230
       -1.6300123373       -0.6336111773
       -1.6006241761       -0.6849356276
       -1.5713207425       -0.7363310400
       -1.5421483796       -0.7877851341
       -1.5131483716       -0.8392604753
       -1.4843410698       -0.8906995657
       -1.4557173342       -0.9420534552
       -1.4272444900       -0.9933277622
       -1.3988828542       -1.0446146307
       -1.3706002707       -1.0960669373
       -1.3423742706       -1.1478056359
       -1.3141802154       -1.1998036036
       -1.6585258866       -0.4808789237
       -1.6289895762       -0.5319962150
       -1.5995044926       -0.5831657854
       -1.5700808500       -0.6343900258
       -1.5407500555       -0.6856738741
       -1.5115507793       -0.7370199568
       -1.4825164954       -0.7884165354
       -1.4536652702       -0.8398296935
       -1.4249920903       -0.8912084436
       -1.3964685285       -0.9425098331
       -1.3680518653       -0.9937384222
       -1.3396996315       -1.0449726725
       -1.3113807517       -1.0963409015
       -1.2830761448       -1.1479401104
       -1.2547678359       -1.1997385904
       -1.5985309216       -0.4816589774
       -1.5690159899       -0.5327747989
       -1.5395851266       -0.5839269151
       -1.5102616301       -0.6351209368
       -1.4810685731       -0.6863656718
       -1.4520266089       -0.7376646768
       -1.4231480593       -0.7890077357
       -1.3944312652       -0.8403647732
       -1.3658569556       -0.8916904868
       -1.3373896091       -0.9429463416
       -1.3089852653       -0.9941346080
       -1.2806032667       -1.0453200213
       -1.2522154722       -1.0966072687
       -1.2238069570       -1.1480705675
       -1.1953667467       -1.1996741067
       -1.5385621870       -0.4824127253
       -1.5091547793       -0.5335171033
       -1.4798678911       -0.5846469334
       -1.4507078862       -0.6358119518
       -1.4216815335       -0.6870209186
       -1.3927931410       -0.7382775586
       -1.3640415051       -0.7895728471
       -1.3354158674       -0.8408798132
       -1.3068927847       -0.8921578858
       -1.2784366673       -0.9433722601
       -1.2500058237       -0.9945228573
       -1.2215625385       -1.0456612246
       -1.1930818030       -1.0968691844
       -1.1645528376       -1.1481989406
       -1.1359711342       -1.1996110034
       -1.4787948816       -0.4831337575
       -1.4495685726       -0.5342222271
       -1.4204596678       -0.5853323938
       -1.3914655597       -0.6364721717
       -1.3625830172       -0.6876502191
       -1.3338089297       -0.7388698338
       -1.3051375905       -0.7901225210
       -1.2765564946       -0.8413838185
       -1.2480426843       -0.8926175478
       -1.2195624971       -0.9437926305
       -1.1910768114       -0.9949068654
       -1.1625506978       -1.0459989306
       -1.1339623160       -1.0971282376
       -1.1053048022       -1.1483258918
       -1.0765783785       -1.1995497166
       -1.4193564431       -0.4838226783
       -1.3903070905       -0.5348988575
       -1.3613541529       -0.5859920466
       -1.3324886957       -0.6371108030
       -1.3037050161       -0.6882625062
       -1.2749991920       -0.7394493781
       -1.2463656672       -0.7906630828
       -1.2177926151       -0.8418815633
       -1.1892580982       -0.8930731128
       -1.1607299157       -0.9442104175
       -1.1321711433       -0.9952889924
       -1.1035499746       -1.0463345247
       -1.0748481981       -1.0973846296
       -1.0460616382       -1.1484513657
       -1.0171906906       -1.1994922828
       -1.1088920083        1.0405838940
       -1.9038509062        1.2024234570
       -1.9036302416        1.0847121323
       -1.8522092415        1.1990486000
       -1.8919053254        1.1432916055
       -1.7923075212        1.1991617351
       -1.8241098248        1.1451079037
       -0.6908056111       -1.1492036609
       -0.6315851889       -1.1494266456
       -0.6613849099       -1.0991164927
       -0.6022361780       -1.0994470678
       -0.6319421498       -1.0489138140
       -1.0259364519        0.5773044849
        0.0592670906       -1.1964716584
       -0.6024772882       -0.9986246819
       -0.7472158874       -0.7445778481
       -0.6890536834       -0.7452298627
       -0.7175824290       -0.6942470394
       -0.7761040199       -0.6935960062
       -0.8059350560       -0.7439790565
       -0.9673632959        0.5766807239
       -0.9087920953        0.5760570375
       -1.9442298221        1.1725222448
       -1.9434171291        1.1096162549
       -1.9400425725        1.0424543071
       -1.9592325176        0.9877733809
       -1.9504982297        0.9393233180
       -1.8833754072        1.0399593064
       -1.9125075340        0.9924944026
       -1.8542256154        0.9904960998
       -1.8257252106        0.9393094309
       -1.8884386937        0.9397249220
       -1.0788823126        1.0927031623
       -1.9305729667        0.4820575432
       -1.7997518487        0.4835103238
       -1.8628904079        0.4835747110
       -1.8927376425        0.4331126253
       -1.9636752779       -0.0625951897
       -1.9344389764       -0.0154057279
       -1.9360289358       -0.1209450282
       -1.9013737606       -0.0691368640
       -1.8683685041       -0.0204459810
       -1.8698195822       -0.1227082775
       -1.8374311735       -0.0721288462
       -1.8056944609       -0.0223872308
       -1.8069608753       -0.1239951304
       -1.7756835052       -0.0736374030
       -1.7447388200       -0.0234805740
       -1.7459292559       -0.1249518734
       -1.7151659142       -0.0746110040
       -1.6844859297       -0.0243021921
       -1.6856391580       -0.1257444658
       -1.6549746457       -0.0753906307
       -1.6242976367       -0.0250318128
       -1.6538482552        0.0260297855
       -1.5936252104        0.0253339196
       -1.9551169630        0.0293944362
       -1.8989603363        0.0288004300
       -1.8360573123        0.0281236034
       -1.7745081608        0.0274318206
       -1.7140276834        0.0267316892
       -1.2560241235        1.2002366087
       -1.2857943637        1.1464336912
       -1.2265011931        1.1463130431
       -1.1966144226        1.2002840313
       -1.0184257570        1.2004307894
       -1.0487453736        1.1459227688
       -1.0778193826        1.2003798912
       -1.1372146408        1.2003312162
       -1.1079877702        1.1460542147
       -1.1672370205        1.1461850349
       -1.9341988430        0.0737362632
       -1.5629663314        0.0756984089
       -1.6232063170        0.0763800108
       -1.6834236803        0.0770472936
       -1.7437415796        0.0776327947
       -1.8677636015        0.0773973360
       -1.8048362816        0.0779454725
       -1.5581838227        0.4813563640
       -1.6182928468        0.4819652694
       -1.6784177208        0.4825501243
       -1.7386844009        0.4830874083
       -1.8302977156        0.4332349871
       -1.4982355953        0.4807344349
       -1.5287146777        0.4303272746
       -1.5887562263        0.4309586914
       -1.6488543779        0.4315846532
       -1.7089227553        0.4322021463
       -1.7692104708        0.4327898402
       -1.9498998465        0.4317430450
       -1.9627631927        0.3862738242
       -1.9180998350        0.3859591585
       -1.8604205547        0.3840437458
       -1.7997925249        0.3828395310
       -1.7394804716        0.3819526231
       -1.6794467255        0.3812223820
       -1.6193872967        0.3805608384
       -1.4993401292        0.3792855755
       -1.5592905156        0.3799215815
       -0.5960816150       -0.2898768636
       -1.9618052822        0.5354761378
       -1.9304078848        0.5884451096
       -1.8920863134        0.6366071332
       -1.8962014812        0.5349505430
       -1.8624033003        0.5857824013
       -1.8289847660        0.6355053729
       -1.8309699874        0.5344405707
       -1.7990154275        0.5848533874
       -1.7687583673        0.5339532447
       -1.7378213258        0.5843035136
       -1.7080855730        0.5334531673
       -1.6774924803        0.5838245974
       -1.6478838473        0.5329222765
       -1.6173294212        0.5833280338
       -1.5877333338        0.5323587620
       -1.5571884163        0.5827945340
       -1.5276652988        0.5317692151
       -1.4972114432        0.5822279463
       -1.7675476601        0.6350120576
       -1.7070898898        0.6346471623
       -1.4678473392        0.5311620118
       -1.4375487920        0.5816375226
       -1.4073398609        0.6321932234
       -1.3772176153        0.6828655392
       -1.4365558483        0.6834201416
       -1.6469362748        0.6342585141
       -1.5867794265        0.6338119806
       -1.4668378778        0.6327666469
       -1.5266855678        0.6333105489
       -1.3154524859        1.2001854647
       -1.3451373307        1.1465386231
       -1.9495422205        0.6388824998
       -1.9627449350        0.6845742223
       -1.9517037487        0.7313805249
       -1.9173211840        0.6839610755
       -1.8909742150        0.7337194221
       -1.8587500345        0.6849995147
       -1.8282519741        0.7351389660
       -1.7974169906        0.6852986980
       -1.7667368607        0.7357336089
       -1.7367432122        0.6853017349
       -1.7062419288        0.7358797865
       -1.6765512831        0.6851225940
       -1.6460747941        0.7357764770
       -1.6164133529        0.6848146575
       -1.5859003642        0.7355196800
       -1.5562569438        0.6844125966
       -1.4962501504        0.6839412288
       -0.9386416798        0.5255160871
       -0.5872405244        0.5217390298
       -0.6458075239        0.5223684079
       -0.5860394968        0.6236472863
       -0.6159400496        0.5729400254
       -0.8513513698        0.4737776792
       -0.7927864908        0.4731448885
       -0.6756568064        0.4718793812
       -0.8800745025        0.5248864516
       -0.8215076952        0.5242568659
       -0.7342216600        0.4725121223
       -0.7629409904        0.5236273300
       -0.7043742908        0.5229978436
       -0.6745105361        0.5735632354
       -0.8502215514        0.5754334430
       -0.7916512016        0.5748099447
       -0.7330808870        0.5741865424
       -0.6446167985        0.6242596031
       -0.8203477667        0.6260975866
       -0.7617708197        0.6254847530
       -0.7031938539        0.6248720926
       -0.7318493259        0.6763400858
       -0.7018627880        0.7274300939
       -0.6717821830        0.7787750594
       -0.6732608667        0.6757447588
       -0.6432557048        0.7268602434
       -0.6131468371        0.7782387996
        0.4487606708       -1.1743480419
        0.4565434531       -1.1183202803
       -1.8530891147        1.0910487002
       -1.7324441784        1.1993374475
       -1.7627410411        1.1458427589
       -1.7927568346        1.0927798443
       -1.8230394220        1.0409142690
       -1.6727576283        1.1994875651
       -1.7026651416        1.1461701991
       -1.7326259015        1.0934475797
       -1.7628338525        1.0414736978
       -1.7936265613        0.9902649992
       -1.7333832952        0.9904187257
       -1.7029344687        1.0418450298
       -1.6728375357        1.0937875392
       -1.6429428633        1.1463695928
       -1.6131402593        1.1996459538
       -1.7644058089        0.9392848803
       -1.7040797909        0.9394562396
       -1.6440937921        0.9396650285
       -1.3749111765        1.2001245870
       -1.4344114697        1.2000454677
       -1.6734884893        0.9906703966
       -1.6431921151        1.0421252324
       -1.5834392586        1.0423071246
       -1.6136539358        0.9908920976
       -1.4045540642        1.1466146475
       -1.1379933874        1.0929627278
       -1.1971197518        1.0932191133
       -1.2562772539        1.0934681948
       -1.3154916168        1.0937018672
       -1.3747971336        1.0939060559
       -1.6131475131        1.0940016325
       -1.5832894745        1.1465187676
       -1.5535397937        1.1998032286
       -1.4939574712        1.1999394130
       -1.5236512151        1.1466142477
       -1.4640609549        1.1466448838
       -1.5534533858        1.0941206462
       -1.4937899816        1.0941382391
       -1.5841191504        0.9397968155
       -1.9302511945        0.8884425745
       -1.8601250752        0.8880496382
       -1.7962887966        0.8881596813
       -1.7349981556        0.8883530601
       -1.6747061601        0.8885424362
       -1.6146186600        0.8886587442
       -1.5545394520        0.8886506415
       -1.4945811157        0.8885036791
       -1.5241685153        0.9397918674
       -1.5537896409        0.9910015265
       -1.5236818497        1.0423643462
       -1.4342265580        1.0940598446
       -1.4640165594        1.0422938864
       -1.4939879168        0.9909676936
       -1.4343648337        0.9908032183
       -1.4045171573        1.0421177015
       -0.7304173112        0.7793118910
       -0.7604697311        0.7280003749
       -0.7904377109        0.6769356996
       -0.8190766015        0.7285710963
       -0.8776834989        0.7291422662
       -0.8490260929        0.6775316058
       -0.8789247938        0.6267105954
       -0.8996386431        1.2005400212
       -1.2626036733        0.3767354962
       -1.3214025401        0.3773724494
       -1.3804035674        0.3780101928
       -1.4396975125        0.3786482675
        0.4631641492        1.1901351335
        0.4087990529        1.1974372912
        0.4641331419        1.0753122193
        0.4530063724        0.9706457278
        0.4338606876        1.0232090865
        0.4389534521        1.1362506503
        0.3698829788        1.0280776905
        0.4043845080        1.0809466406
        0.3427237910        1.0837993175
        0.3764818111        1.1395446278
        0.3489270386        1.2004179328
       -0.8402443002        1.2005983324
       -0.9590323792        1.2004841557
       -0.9895057613        1.1457916357
       -1.0197780672        1.0924423059
       -0.9909176728        1.0399034441
       -0.9606766303        1.0921809464
       -0.9302670884        1.1456611703
       -0.8710285923        1.1455314823
       -0.7808492503        1.2006590053
       -0.7214534494        1.2007219464
       -0.7525511522        1.1452744667
       -0.8117899820        1.1454025870
       -0.8424763157        1.0916577270
       -0.9015762730        1.0919193849
       -0.8729544696        1.0392206590
       -0.8139736989        1.0388788909
       -0.7833765125        1.0913960062
       -0.7242767794        1.0911342317
       -0.6933120639        1.1451470928
       -0.4244619101        1.2010672694
       -0.9076146338        0.6781278065
       -0.5894754599        0.3187026577
       -0.6182050999        0.3697467552
       -1.9618434163        0.8339269352
       -1.9310341373        0.7820824010
       -1.8954376577        0.8356658162
       -1.8612735483        0.7849534687
       -1.8288516436        0.8367116321
       -1.7974631964        0.7860796403
       -1.7661941410        0.8372382433
       -1.7361177594        0.7865422226
       -1.7054087828        0.8375031681
       -1.6757505570        0.7866685641
       -1.6451935870        0.8376045482
       -1.6155692531        0.7865960214
       -1.5850353860        0.8375655969
       -1.5553959295        0.7863825727
       -1.5249365525        0.8373932001
       -1.5257797776        0.7351567281
       -1.4659005240        0.7347162177
       -1.4953709949        0.7860588299
       -1.4356513510        0.7856508820
       -1.4643824502        0.9396449152
       -1.4650623448        0.8371042628
       -1.4055143612        0.8367266336
       -1.4348846353        0.8882363942
       -1.3754942763        0.8878822625
       -0.9375021743        0.6273237772
       -0.9662038045        0.6787242930
       -0.9960806983        0.6279371165
       -1.4063700884        0.7342207050
       -1.3762804513        0.7851842572
       -1.3471755288        0.7336891954
       -0.6469327836        0.4208019872
       -0.6480390663        0.3193381182
       -0.6767687473        0.3703818841
       -0.7054967708        0.4214363549