VARIABLES = "x"
 "y"
 "Density"
 "Momentum_x"
 "Momentum_y"
 "Energy"
 "Pressure"
 "Temperature"
 "Mach"
 "C<sub>p</sub>"
 "Roe_Dissipation"
ZONE
DT=(DOUBLE,DOUBLE,DOUBLE,DOUBLE,DOUBLE,DOUBLE,DOUBLE,DOUBLE,DOUBLE,DOUBLE,DOUBLE)
                     -2                       0        1.22136604785919         52.708438873291    2.03112699637119E-06                253372.5          100894.1015625        287.773193359375       0.126899600028992      -0.607537984848022                       0 
      -1.99749874937469                       0        1.22136604785919            52.708439468    4.34164090265063E-07                253372.5          100894.1015625        287.773193359375       0.126899602765517      -0.607538039578524                       0 
      -1.99499749874937                       0        1.22136604785919        52.7084400627089   -1.16279881584281E-06                253372.5          100894.1015625        287.773193359375       0.126899605502042      -0.607538094309025                       0 
      -1.99249624812406                       0        1.22136604785919        52.7084406574179   -2.75976172195055E-06                253372.5          100894.1015625        287.773193359375       0.126899608238567      -0.607538149039526                       0 
      -1.98999499749875                       0        1.22136604785919        52.7084412521268   -4.35672462805828E-06                253372.5          100894.1015625        287.773193359375       0.126899610975092      -0.607538203770027                       0 
      -1.98749374687344                       0        1.22136604785919        52.7084418468358   -5.95368753416601E-06                253372.5          100894.1015625        287.773193359375       0.126899613711617      -0.607538258500529                       0 
      -1.98499249624812                       0        1.22136604785919        52.7084424415447   -7.55065044027389E-06                253372.5          100894.1015625        287.773193359375       0.126899616448142       -0.60753831323103                       0 
      -1.98249124562281                       0        1.22136604785919        52.7084430362537   -9.14761334638162E-06                253372.5          100894.1015625        287.773193359375       0.126899619184667      -0.607538367961531                       0 
       -1.9799899949975                       0        1.22136604785919        52.7084436309626   -1.07445762524894E-05                253372.5          100894.1015625        287.773193359375       0.126899621921192      -0.607538422692032                       0 
      -1.97748874437219                       0        1.22136604785919        52.7084442256716   -1.23415391585972E-05                253372.5          100894.1015625        287.773193359375       0.126899624657717      -0.607538477422534                       0 
      -1.97498749374687                       0        1.22136604785919        52.7084448203805    -1.3938502064705E-05                253372.5          100894.1015625        287.773193359375       0.126899627394242      -0.607538532153035                       0 
      -1.97248624312156                       0        1.22136604785919        52.7084454150895   -1.55354649708127E-05                253372.5          100894.1015625        287.773193359375       0.126899630130767      -0.607538586883536                       0 
      -1.96998499249625                       0        1.22136604785919        52.7084460097984   -1.71324278769206E-05                253372.5          100894.1015625        287.773193359375       0.126899632867292      -0.607538641614037                       0 
      -1.96748374187094                       0        1.22136604785919        52.7084466045074   -1.87293907830283E-05                253372.5          100894.1015625        287.773193359375       0.126899635603818      -0.607538696344539                       0 
      -1.96498249124562                       0        1.22136604785919        52.7084471992163    -2.0326353689136E-05                253372.5          100894.1015625        287.773193359375       0.126899638340343       -0.60753875107504                       0 
      -1.96248124062031                       0        1.22136604785919        52.7084477939253   -2.19233165952438E-05                253372.5          100894.1015625        287.773193359375       0.126899641076868      -0.607538805805541                       0 
        -1.959979989995                       0        1.22136604785919        52.7084483886342   -2.35202795013516E-05                253372.5          100894.1015625        287.773193359375       0.126899643813393      -0.607538860536042                       0 
      -1.95747873936968                       0        1.22136604785919        52.7084489833432   -2.51172424074594E-05                253372.5          100894.1015625        287.773193359375       0.126899646549918      -0.607538915266543                       0 
      -1.95497748874437                       0        1.22136604785919        52.7084495780521   -2.67142053135671E-05                253372.5          100894.1015625        287.773193359375       0.126899649286443      -0.607538969997045                       0 
      -1.95247623811906                       0        1.22136604785919        52.7084506697803   -2.82700161390587E-05                253372.5          100894.1015625        287.773193359375       0.126899652724841      -0.607539039853522                       0 
      -1.94997498749375                       0        1.22136604785919        52.7084536092774   -2.96728358213457E-05                253372.5          100894.1015625        287.773193359375       0.126899658772592      -0.607539165943862                       0 
      -1.94747373686843                       0        1.22136604785919        52.7084565487744   -3.10756555036326E-05                253372.5          100894.1015625        287.773193359375       0.126899664820343      -0.607539292034201                       0 
      -1.94497248624312                       0        1.22136604785919        52.7084594882715   -3.24784751859197E-05                253372.5          100894.1015625        287.773193359375       0.126899670868094      -0.607539418124541                       0 
      -1.94247123561781                       0        1.22136604785919        52.7084624277686   -3.38812948682067E-05                253372.5          100894.1015625        287.773193359375       0.126899676915845      -0.607539544214881                       0 
       -1.9399699849925                       0        1.22136604785919        52.7084653672656   -3.52841145504936E-05                253372.5          100894.1015625        287.773193359375       0.126899682963596       -0.60753967030522                       0 
      -1.93746873436718                       0        1.22136604785919        52.7084683067627   -3.66869342327806E-05                253372.5          100894.1015625        287.773193359375       0.126899689011347       -0.60753979639556                       0 
      -1.93496748374187                       0        1.22136604785919        52.7084712462598   -3.80897539150677E-05                253372.5          100894.1015625        287.773193359375       0.126899695059098      -0.607539922485899                       0 
      -1.93246623311656                       0        1.22136604785919        52.7084741857568   -3.94925735973547E-05                253372.5          100894.1015625        287.773193359375       0.126899701106849      -0.607540048576239                       0 
      -1.92996498249125                       0        1.22136604785919        52.7084771252539   -4.08953932796416E-05                253372.5          100894.1015625        287.773193359375         0.1268997071546      -0.607540174666578                       0 
      -1.92746373186593                       0        1.22136604785919         52.708480064751   -4.22982129619287E-05                253372.5          100894.1015625        287.773193359375       0.126899713202351      -0.607540300756918                       0 
      -1.92496248124062                       0        1.22136604785919        52.7084830042481   -4.37010326442157E-05                253372.5          100894.1015625        287.773193359375       0.126899719250102      -0.607540426847258                       0 
      -1.92246123061531                       0        1.22136604785919        52.7084859437451   -4.51038523265026E-05                253372.5          100894.1015625        287.773193359375       0.126899725297853      -0.607540552937597                       0 
      -1.91995997998999                       0        1.22136604785919        52.7084888832422   -4.65066720087897E-05                253372.5          100894.1015625        287.773193359375       0.126899731345604      -0.607540679027937                       0 
      -1.91745872936468                       0        1.22136604785919        52.7084918227393   -4.79094916910767E-05                253372.5          100894.1015625        287.773193359375       0.126899737393355      -0.607540805118276                       0 
      -1.91495747873937                       0        1.22136604785919        52.7084947622363   -4.93123113733637E-05                253372.5          100894.1015625        287.773193359375       0.126899743441106      -0.607540931208616                       0 
      -1.91245622811406                       0        1.22136604785919        52.7084977017334   -5.07151310556506E-05                253372.5          100894.1015625        287.773193359375       0.126899749488857      -0.607541057298955                       0 
      -1.90995497748874                       0        1.22136604785919        52.7085006412305   -5.21179507379377E-05                253372.5          100894.1015625        287.773193359375       0.126899755536608      -0.607541183389295                       0 
      -1.90745372686343                       0        1.22136604785919        52.7085035807275   -5.35207704202247E-05                253372.5          100894.1015625        287.773193359375       0.126899761584359      -0.607541309479634                       0 
      -1.90495247623812                       0        1.22136604785919        52.7085065202246   -5.49235901025117E-05                253372.5          100894.1015625        287.773193359375        0.12689976763211      -0.607541435569974                       0 
      -1.90245122561281                       0        1.22136604785919        52.7085094597217   -5.63264097847987E-05                253372.5          100894.1015625        287.773193359375       0.126899773679861      -0.607541561660314                       0 
      -1.89994997498749                       0        1.22136604785919        52.7085123992188   -5.77292294670857E-05                253372.5          100894.1015625        287.773193359375       0.126899779727612      -0.607541687750653                       0 
      -1.89744872436218                       0        1.22136604785919        52.7085153387158   -5.91320491493727E-05                253372.5          100894.1015625        287.773193359375       0.126899785775363      -0.607541813840993                       0 
      -1.89494747373687                       0        1.22136604785919        52.7085179191116   -6.14641000262235E-05                253372.5          100894.1015625        287.773193359375       0.126899792074612      -0.607541908886204                       0 
      -1.89244622311156                       0        1.22136604785919        52.7085234594111    -6.3940578708227E-05                253372.5          100894.1015625        287.773193359375       0.126899807849261      -0.607542282461661                       0 
      -1.88994497248624                       0        1.22136604785919        52.7085285274204   -6.54229965195609E-05                253372.5          100894.1015625        287.773193359375       0.126899823689665      -0.607542626922162                       0 
      -1.88744372186093                       0        1.22136604785919        52.7085335954296   -6.69054143308947E-05                253372.5          100894.1015625        287.773193359375       0.126899839530069      -0.607542971382663                       0 
      -1.88494247123562                       0        1.22136604785919        52.7085386634388   -6.83878321422287E-05                253372.5          100894.1015625        287.773193359375       0.126899855370473      -0.607543315843164                       0 
      -1.88244122061031                       0        1.22136604785919         52.708543731448   -6.98702499535626E-05                253372.5          100894.1015625        287.773193359375       0.126899871210876      -0.607543660303665                       0 
      -1.87993996998499                       0        1.22136604785919        52.7085487994572   -7.13526677648965E-05                253372.5          100894.1015625        287.773193359375        0.12689988705128      -0.607544004764167                       0 
      -1.87743871935968                       0        1.22136604785919        52.7085538674664   -7.28350855762305E-05                253372.5          100894.1015625        287.773193359375       0.126899902891684      -0.607544349224668                       0 
      -1.87493746873437                       0        1.22136604785919        52.7085589354756   -7.43175033875644E-05                253372.5          100894.1015625        287.773193359375       0.126899918732088      -0.607544693685169                       0 
      -1.87243621810905                       0        1.22136604785919        52.7085640034848   -7.57999211988983E-05                253372.5          100894.1015625        287.773193359375       0.126899934572492       -0.60754503814567                       0 
      -1.86993496748374                       0        1.22136604785919         52.708569071494   -7.72823390102323E-05                253372.5          100894.1015625        287.773193359375       0.126899950412895      -0.607545382606171                       0 
      -1.86743371685843                       0        1.22136604785919        52.7085741395033   -7.87647568215661E-05                253372.5          100894.1015625        287.773193359375       0.126899966253299      -0.607545727066673                       0 
      -1.86493246623312                       0        1.22136604785919        52.7085792075125      -8.02471746329E-05                253372.5          100894.1015625        287.773193359375       0.126899982093703      -0.607546071527174                       0 
       -1.8624312156078                       0        1.22136604785919        52.7085842755217   -8.17295924442339E-05                253372.5          100894.1015625        287.773193359375       0.126899997934107      -0.607546415987675                       0 
      -1.85992996498249                       0        1.22136604785919        52.7085893435309   -8.32120102555679E-05                253372.5          100894.1015625        287.773193359375        0.12690001377451      -0.607546760448176                       0 
      -1.85742871435718                       0        1.22136604785919        52.7085944115401   -8.46944280669018E-05                253372.5          100894.1015625        287.773193359375       0.126900029614914      -0.607547104908677                       0 
      -1.85492746373187                       0        1.22136604785919        52.7085994795493   -8.61768458782357E-05                253372.5          100894.1015625        287.773193359375       0.126900045455318      -0.607547449369179                       0 
      -1.85242621310655                       0        1.22136604785919        52.7086045475585   -8.76592636895697E-05                253372.5          100894.1015625        287.773193359375       0.126900061295722       -0.60754779382968                       0 
      -1.84992496248124                       0        1.22136604785919        52.7086096155678   -8.91416815009035E-05                253372.5          100894.1015625        287.773193359375       0.126900077136125      -0.607548138290181                       0 
      -1.84742371185593                       0        1.22136604785919         52.708614683577   -9.06240993122374E-05                253372.5          100894.1015625        287.773193359375       0.126900092976529      -0.607548482750682                       0 
      -1.84492246123062                       0        1.22136604785919        52.7086197515862   -9.21065171235713E-05                253372.5          100894.1015625        287.773193359375       0.126900108816933      -0.607548827211183                       0 
       -1.8424212106053                       0        1.22136604785919        52.7086248195954   -9.35889349349053E-05                253372.5          100894.1015625        287.773193359375       0.126900124657337      -0.607549171671684                       0 
      -1.83991995997999                       0        1.22136604785919        52.7086298876046   -9.50713527462392E-05                253372.5          100894.1015625        287.773193359375       0.126900140497741      -0.607549516132186                       0 
      -1.83741870935468                       0        1.22136604785919        52.7086362182034   -9.65956826234454E-05                253372.5          100894.1015625        287.773193359375       0.126900156278486      -0.607549913710912                       0 
      -1.83491745872936                       0        1.22136604785919        52.7086439212073   -9.81655699235164E-05                253372.5          100894.1015625        287.773193359375       0.126900171994385      -0.607550369027892                       0 
      -1.83241620810405                       0        1.22136604785919        52.7086516242112   -9.97354572235872E-05                253372.5          100894.1015625        287.773193359375       0.126900187710284      -0.607550824344871                       0 
      -1.82991495747874                       0        1.22136604785919        52.7086593272151   -0.000101305344523658                253372.5          100894.1015625        287.773193359375       0.126900203426183      -0.607551279661851                       0 
      -1.82741370685343                       0        1.22136604785919         52.708667030219   -0.000102875231823729                253372.5          100894.1015625        287.773193359375       0.126900219142082       -0.60755173497883                       0 
      -1.82491245622811                       0        1.22136604785919        52.7086747332229     -0.0001044451191238                253372.5          100894.1015625        287.773193359375        0.12690023485798       -0.60755219029581                       0 
       -1.8224112056028                       0        1.22136604785919        52.7086824362268   -0.000106015006423871                253372.5          100894.1015625        287.773193359375       0.126900250573879      -0.607552645612789                       0 
      -1.81990995497749                       0        1.22136604785919        52.7086901392307   -0.000107584893723942                253372.5          100894.1015625        287.773193359375       0.126900266289778      -0.607553100929769                       0 
      -1.81740870435218                       0        1.22136604785919        52.7086978422346   -0.000109154781024012                253372.5          100894.1015625        287.773193359375       0.126900282005677      -0.607553556246749                       0 
      -1.81490745372686                       0        1.22136604785919        52.7087055452385   -0.000110724668324083                253372.5          100894.1015625        287.773193359375       0.126900297721576      -0.607554011563728                       0 
      -1.81240620310155                       0        1.22136604785919        52.7087132482424   -0.000112294555624154                253372.5          100894.1015625        287.773193359375       0.126900313437474      -0.607554466880708                       0 
      -1.80990495247624                       0        1.22136604785919        52.7087209512463   -0.000113864442924225                253372.5          100894.1015625        287.773193359375       0.126900329153373      -0.607554922197687                       0 
      -1.80740370185093                       0        1.22136604785919        52.7087286542502   -0.000115434330224296                253372.5          100894.1015625        287.773193359375       0.126900344869272      -0.607555377514667                       0 
      -1.80490245122561                       0        1.22136604785919        52.7087363572541   -0.000117004217524367                253372.5          100894.1015625        287.773193359375       0.126900360585171      -0.607555832831646                       0 
       -1.8024012006003                       0        1.22136604785919        52.7087440602579   -0.000118574104824437                253372.5          100894.1015625        287.773193359375        0.12690037630107      -0.607556288148626                       0 
      -1.79989994997499                       0        1.22136604785919        52.7087517632618   -0.000120143992124508                253372.5          100894.1015625        287.773193359375       0.126900392016969      -0.607556743465605                       0 
      -1.79739869934967                       0        1.22136604785919        52.7087594662657   -0.000121713879424579                253372.5          100894.1015625        287.773193359375       0.126900407732867      -0.607557198782585                       0 
      -1.79489744872436                       0        1.22136604785919        52.7087671692696    -0.00012328376672465                253372.5          100894.1015625        287.773193359375       0.126900423448766      -0.607557654099564                       0 
      -1.79239619809905                       0        1.22136604785919        52.7087748722735   -0.000124853654024721                253372.5          100894.1015625        287.773193359375       0.126900439164665      -0.607558109416544                       0 
      -1.78989494747374                       0        1.22136604785919        52.7087825752774   -0.000126423541324792                253372.5          100894.1015625        287.773193359375       0.126900454880564      -0.607558564733523                       0 
      -1.78739369684842                       0        1.22136604785919        52.7087899705883   -0.000128505910340875                253372.5          100894.1015625        287.773193359375       0.126900470585455      -0.607559000829598                       0 
      -1.78489244622311                       0        1.22136604785919        52.7087969445929   -0.000131289990923309                253372.5          100894.1015625        287.773193359375       0.126900486275275      -0.607559410607599                       0 
       -1.7823911955978                       0        1.22136604785919        52.7088060484497    -0.00013424134342765                253372.5          100894.1015625        287.773190204232       0.126900509508125      -0.607559983736361                       0 
      -1.77988994497249                       0        1.22136604785919         52.708815942404   -0.000137242385803114                253372.5          100894.1015625        287.773185871188       0.126900535560458      -0.607560617467171                       0 
      -1.77738869434717                       0        1.22136604785919        52.7088253196359   -0.000138928614417908                253372.5          100894.1015625        287.773181534931       0.126900561977675      -0.607561212069644                       0 
      -1.77488744372186                       0        1.22136604785919        52.7088346968678   -0.000140614843032702                253372.5          100894.1015625        287.773177198673       0.126900588394891      -0.607561806672117                       0 
      -1.77238619309655                       0        1.22136604785919        52.7088440740996   -0.000142301071647495                253372.5          100894.1015625        287.773172862415       0.126900614812108      -0.607562401274589                       0 
      -1.76988494247124                       0        1.22136604785919        52.7088534513315   -0.000143987300262289                253372.5          100894.1015625        287.773168526158       0.126900641229325      -0.607562995877062                       0 
      -1.76738369184592                       0        1.22136604785919        52.7088628285634   -0.000145673528877083                253372.5          100894.1015625          287.7731641899       0.126900667646541      -0.607563590479535                       0 
      -1.76488244122061                       0        1.22136604785919        52.7088722057952   -0.000147359757491876                253372.5          100894.1015625        287.773159853643       0.126900694063758      -0.607564185082008                       0 
       -1.7623811905953                       0        1.22136604785919        52.7088815830271    -0.00014904598610667                253372.5          100894.1015625        287.773155517385       0.126900720480974      -0.607564779684481                       0 
      -1.75987993996998                       0        1.22136604785919         52.708890960259   -0.000150732214721463                253372.5          100894.1015625        287.773151181127       0.126900746898191      -0.607565374286954                       0 
      -1.75737868934467                       0        1.22136604785919        52.7089003374908   -0.000152418443336257                253372.5          100894.1015625         287.77314684487       0.126900773315408      -0.607565968889427                       0 
      -1.75487743871936                       0        1.22136604785919        52.7089097147227   -0.000154104671951051                253372.5          100894.1015625        287.773142508612       0.126900799732624        -0.6075665634919                       0 
      -1.75237618809405                       0        1.22136604785919        52.7089190919546   -0.000155790900565844                253372.5          100894.1015625        287.773138172355       0.126900826149841      -0.607567158094372                       0 
      -1.74987493746873                       0        1.22136604785919        52.7089284691864   -0.000157477129180638                253372.5          100894.1015625        287.773133836097       0.126900852567057      -0.607567752696845                       0 
      -1.74737368684342                       0        1.22136604785919        52.7089378464183   -0.000159163357795432                253372.5          100894.1015625        287.773129499839       0.126900878984274      -0.607568347299318                       0 
      -1.74487243621811                       0        1.22136604785919        52.7089472236502   -0.000160849586410225                253372.5          100894.1015625        287.773125163582       0.126900905401491      -0.607568941901791                       0 
       -1.7423711855928                       0        1.22136604785919        52.7089566008821   -0.000162535815025019                253372.5          100894.1015625        287.773120827324       0.126900931818707      -0.607569536504264                       0 
      -1.73986993496748                       0        1.22136604785919        52.7089659781139   -0.000164222043639812                253372.5          100894.1015625        287.773116491067       0.126900958235924      -0.607570131106737                       0 
      -1.73736868434217                       0        1.22136604785919        52.7089753553458   -0.000165908272254606                253372.5          100894.1015625        287.773112154809        0.12690098465314       -0.60757072570921                       0 
      -1.73486743371686                       0        1.22136604785919        52.7089847325777     -0.0001675945008694                253372.5          100894.1015625        287.773107818551       0.126901011070357      -0.607571320311683                       0 
      -1.73236618309155                       0        1.22136604785919        52.7089941098095   -0.000169280729484193                253372.5          100894.1015625        287.773103482294       0.126901037487574      -0.607571914914155                       0 
      -1.72986493246623                       0        1.22136604785919        52.7090054158982   -0.000171075267486118                253372.5          100894.1015625        287.773101806641       0.126901066890683       -0.60757261603445                       0 
      -1.72736368184092                       0        1.22136604785919        52.7090179367841   -0.000172938018920861                253372.5          100894.1015625        287.773101806641       0.126901098174313      -0.607573384239846                       0 
      -1.72486243121561                       0        1.22136604785919          52.70903045767   -0.000174800770355605                253372.5          100894.1015625        287.773101806641       0.126901129457943      -0.607574152445241                       0 
       -1.7223611805903                       0        1.22136604785919        52.7090429785559   -0.000176663521790348                253372.5          100894.1015625        287.773101806641       0.126901160741573      -0.607574920650637                       0 