TITLE = "Visualization of the volumetric solution"
VARIABLES = "x","y","Adjoint_Density","Adjoint_Momentum_x","Adjoint_Momentum_y","Adjoint_Energy","Sensitivity_x","Sensitivity_y","Surface_Sensitivity"
ZONE NODES= 3200, ELEMENTS= 3081, DATAPACKING=POINT, ZONETYPE=FEQUADRILATERAL
1.000000e+00	1.250000e+00	-1.832732e-17	1.065095e-20	-2.460020e-19	9.082158e-23	5.245597e-22	5.245597e-22	0.000000e+00	
1.000000e+00	1.218354e+00	-1.590748e-17	7.704867e-21	-1.960653e-19	7.659868e-23	-8.294340e-21	-8.294340e-21	0.000000e+00	
1.051282e+00	1.218354e+00	-1.182317e-17	3.153933e-20	-1.636078e-19	5.899934e-23	4.266714e-22	4.266714e-22	0.000000e+00	
1.051282e+00	1.250000e+00	-1.393789e-17	3.751967e-20	-2.190835e-19	7.222375e-23	-2.216890e-26	-2.216890e-26	0.000000e+00	
1.000000e+00	1.186709e+00	-1.575573e-17	7.299146e-21	-1.864721e-19	7.645551e-23	4.675265e-22	4.675265e-22	0.000000e+00	
1.051282e+00	1.186709e+00	-1.206607e-17	3.213805e-20	-1.609242e-19	6.109923e-23	3.746586e-22	3.746586e-22	0.000000e+00	
1.000000e+00	1.155063e+00	-1.566501e-17	6.978092e-21	-1.766127e-19	7.581003e-23	-1.027706e-26	-1.027706e-26	0.000000e+00	
1.051282e+00	1.155063e+00	-1.223799e-17	3.324191e-20	-1.564795e-19	6.154927e-23	3.280564e-22	3.280564e-22	0.000000e+00	
1.000000e+00	1.123418e+00	-1.568142e-17	6.969446e-21	-1.667042e-19	7.598897e-23	-9.778668e-27	-9.778668e-27	0.000000e+00	
1.051282e+00	1.123418e+00	-1.243397e-17	3.653706e-20	-1.519272e-19	6.226326e-23	2.170276e-22	2.170276e-22	0.000000e+00	
1.000000e+00	1.091772e+00	-1.578322e-17	7.027001e-21	-1.547188e-19	7.605354e-23	3.172707e-22	3.172707e-22	0.000000e+00	
1.051282e+00	1.091772e+00	-1.269984e-17	4.186293e-20	-1.454573e-19	6.238543e-23	-1.043071e-26	-1.043071e-26	0.000000e+00	
1.000000e+00	1.060127e+00	-1.594133e-17	7.084507e-21	-1.403213e-19	7.622543e-23	-5.045789e-21	-5.045789e-21	0.000000e+00	
1.051282e+00	1.060127e+00	-1.299282e-17	4.747884e-20	-1.370610e-19	6.234780e-23	-2.861804e-21	-2.861804e-21	0.000000e+00	
1.000000e+00	1.028481e+00	-1.612975e-17	6.865775e-21	-1.236459e-19	7.613485e-23	8.519397e-23	8.519397e-23	0.000000e+00	
1.051282e+00	1.028481e+00	-1.323234e-17	5.067779e-20	-1.264016e-19	6.177119e-23	-1.431809e-21	-1.431809e-21	0.000000e+00	
1.000000e+00	9.968354e-01	-1.631887e-17	6.292604e-21	-1.063875e-19	7.578493e-23	3.779473e-23	3.779473e-23	0.000000e+00	
1.051282e+00	9.968354e-01	-1.333631e-17	4.929768e-20	-1.143468e-19	6.072557e-23	-5.099545e-27	-5.099545e-27	0.000000e+00	
1.000000e+00	9.651899e-01	-1.647847e-17	5.367752e-21	-9.073521e-20	7.503315e-23	-4.665365e-22	-4.665365e-22	0.000000e+00	
1.051282e+00	9.651899e-01	-1.326305e-17	4.253883e-20	-1.020140e-19	5.913226e-23	-1.730270e-24	-1.730270e-24	0.000000e+00	
1.000000e+00	9.335443e-01	-1.658446e-17	4.259431e-21	-7.891301e-20	7.389950e-23	6.563526e-23	6.563526e-23	0.000000e+00	
1.051282e+00	9.335443e-01	-1.302211e-17	3.124077e-20	-9.082533e-20	5.714701e-23	4.961641e-23	4.961641e-23	0.000000e+00	
1.000000e+00	9.018987e-01	-1.662436e-17	3.175543e-21	-7.235916e-20	7.240686e-23	-4.228591e-27	-4.228591e-27	0.000000e+00	
1.051282e+00	9.018987e-01	-1.266393e-17	1.735038e-20	-8.193078e-20	5.493057e-23	2.339921e-23	2.339921e-23	0.000000e+00	
1.000000e+00	8.702532e-01	-1.659838e-17	2.316961e-21	-7.151917e-20	7.065543e-23	-4.293695e-27	-4.293695e-27	0.000000e+00	
1.051282e+00	8.702532e-01	-1.225340e-17	3.115431e-21	-7.615045e-20	5.271318e-23	3.221070e-24	3.221070e-24	0.000000e+00	
1.000000e+00	8.386076e-01	-1.651632e-17	1.803308e-21	-7.588969e-20	6.874823e-23	5.410255e-24	5.410255e-24	0.000000e+00	
1.051282e+00	8.386076e-01	-1.184502e-17	-9.669270e-21	-7.390610e-20	5.068058e-23	1.085679e-24	1.085679e-24	0.000000e+00	
1.000000e+00	8.069620e-01	-1.639265e-17	1.667299e-21	-8.439926e-20	6.679840e-23	-9.461416e-23	-9.461416e-23	0.000000e+00	
1.051282e+00	8.069620e-01	-1.146882e-17	-2.001907e-20	-7.538843e-20	4.897905e-23	-1.031102e-19	-1.031102e-19	0.000000e+00	
1.000000e+00	7.753165e-01	-1.624223e-17	1.866743e-21	-9.579257e-20	6.490174e-23	1.233564e-21	1.233564e-21	0.000000e+00	
1.051282e+00	7.753165e-01	-1.113104e-17	-2.770174e-20	-8.067746e-20	4.768660e-23	-1.311792e-20	-1.311792e-20	0.000000e+00	
1.000000e+00	7.436709e-01	-1.607797e-17	2.322597e-21	-1.089161e-19	6.314430e-23	4.462624e-22	4.462624e-22	0.000000e+00	
1.051282e+00	7.436709e-01	-1.082498e-17	-3.289457e-20	-8.982717e-20	4.683519e-23	-1.122291e-26	-1.122291e-26	0.000000e+00	
1.000000e+00	7.120253e-01	-1.591082e-17	2.949163e-21	-1.227955e-19	6.160072e-23	-5.712867e-21	-5.712867e-21	0.000000e+00	
1.051282e+00	7.120253e-01	-1.054463e-17	-3.579910e-20	-1.028277e-19	4.642108e-23	3.124803e-23	3.124803e-23	0.000000e+00	
1.000000e+00	6.803797e-01	-1.575105e-17	3.673356e-21	-1.365641e-19	6.033994e-23	1.606370e-22	1.606370e-22	0.000000e+00	
1.051282e+00	6.803797e-01	-1.029407e-17	-3.640013e-20	-1.195059e-19	4.642252e-23	6.114000e-23	6.114000e-23	0.000000e+00	
1.000000e+00	6.487342e-01	-1.560972e-17	4.435977e-21	-1.493281e-19	5.942115e-23	-4.629935e-27	-4.629935e-27	0.000000e+00	
1.051282e+00	6.487342e-01	-1.008919e-17	-3.445470e-20	-1.394083e-19	4.680207e-23	2.469402e-23	2.469402e-23	0.000000e+00	
1.000000e+00	6.170886e-01	-1.549915e-17	5.183346e-21	-1.600810e-19	5.888691e-23	-4.438499e-27	-4.438499e-27	0.000000e+00	
1.051282e+00	6.170886e-01	-9.951993e-18	-2.967164e-20	-1.617408e-19	4.750365e-23	4.088448e-24	4.088448e-24	0.000000e+00	
1.000000e+00	5.854430e-01	-1.543195e-17	5.855856e-21	-1.677269e-19	5.875180e-23	9.824939e-25	9.824939e-25	0.000000e+00	
1.051282e+00	5.854430e-01	-9.901209e-18	-2.197073e-20	-1.853943e-19	4.844353e-23	-3.036032e-26	-3.036032e-26	0.000000e+00	
1.000000e+00	5.537975e-01	-1.541901e-17	6.381481e-21	-1.712181e-19	5.899346e-23	-8.186534e-20	-8.186534e-20	0.000000e+00	
1.051282e+00	5.537975e-01	-9.943332e-18	-1.169451e-20	-2.090602e-19	4.950498e-23	-8.688091e-21	-8.688091e-21	0.000000e+00	
1.000000e+00	5.221519e-01	-1.546691e-17	6.677097e-21	-1.697594e-19	5.954848e-23	2.586710e-22	2.586710e-22	0.000000e+00	
1.051282e+00	5.221519e-01	-1.006764e-17	3.151477e-22	-2.313999e-19	5.053967e-23	-1.397600e-21	-1.397600e-21	0.000000e+00	
1.000000e+00	4.905063e-01	-1.557584e-17	6.657578e-21	-1.630092e-19	6.031638e-23	3.865181e-23	3.865181e-23	0.000000e+00	
1.051282e+00	4.905063e-01	-1.024671e-17	1.280200e-20	-2.512247e-19	5.137877e-23	-4.642944e-27	-4.642944e-27	0.000000e+00	
1.000000e+00	4.588608e-01	-1.573862e-17	6.249427e-21	-1.512087e-19	6.117064e-23	-4.605675e-24	-4.605675e-24	0.000000e+00	
1.051282e+00	4.588608e-01	-1.044177e-17	2.430761e-20	-2.676391e-19	5.185145e-23	3.520748e-24	3.520748e-24	0.000000e+00	
1.000000e+00	4.272152e-01	-1.594125e-17	5.404832e-21	-1.352006e-19	6.197499e-23	6.340591e-24	6.340591e-24	0.000000e+00	
1.051282e+00	4.272152e-01	-1.061089e-17	3.343969e-20	-2.801210e-19	5.180691e-23	4.536367e-22	4.536367e-22	0.000000e+00	
1.000000e+00	3.955696e-01	-1.616476e-17	4.112146e-21	-1.163327e-19	6.260123e-23	-2.881387e-26	-2.881387e-26	0.000000e+00	
1.051282e+00	3.955696e-01	-1.071738e-17	3.911626e-20	-2.885313e-19	5.113451e-23	2.643508e-22	2.643508e-22	0.000000e+00	
1.000000e+00	3.639241e-01	-1.638796e-17	2.399967e-21	-9.627432e-20	6.294524e-23	-1.267981e-26	-1.267981e-26	0.000000e+00	
1.051282e+00	3.639241e-01	-1.073594e-17	4.072263e-20	-2.930652e-19	4.977751e-23	1.527736e-23	1.527736e-23	0.000000e+00	
1.000000e+00	3.322785e-01	-1.659037e-17	3.335762e-22	-7.679589e-20	6.293878e-23	7.334215e-23	7.334215e-23	0.000000e+00	
1.051282e+00	3.322785e-01	-1.065530e-17	3.815067e-20	-2.941676e-19	4.773776e-23	-4.740526e-27	-4.740526e-27	0.000000e+00	
1.000000e+00	3.006329e-01	-1.675460e-17	-1.995723e-21	-5.956458e-20	6.255593e-23	-4.366460e-23	-4.366460e-23	0.000000e+00	
1.051282e+00	3.006329e-01	-1.047720e-17	3.172689e-20	-2.924379e-19	4.507135e-23	-9.178560e-20	-9.178560e-20	0.000000e+00	
1.000000e+00	2.689873e-01	-1.686788e-17	-4.486088e-21	-4.599803e-20	6.181442e-23	1.123903e-21	1.123903e-21	0.000000e+00	
1.051282e+00	2.689873e-01	-1.021266e-17	2.206671e-20	-2.885424e-19	4.187731e-23	-5.792421e-21	-5.792421e-21	0.000000e+00	
1.000000e+00	2.373418e-01	-1.692230e-17	-7.041781e-21	-3.719595e-20	6.077289e-23	1.829053e-22	1.829053e-22	0.000000e+00	
1.051282e+00	2.373418e-01	-9.877232e-18	9.909845e-21	-2.831435e-19	3.828330e-23	-5.421800e-27	-5.421800e-27	0.000000e+00	
1.000000e+00	2.056962e-01	-1.691428e-17	-9.586615e-21	-3.394264e-20	5.952526e-23	-4.337112e-22	-4.337112e-22	0.000000e+00	
1.051282e+00	2.056962e-01	-9.487190e-18	-4.008206e-21	-2.768438e-19	3.443232e-23	3.859911e-24	3.859911e-24	0.000000e+00	
1.000000e+00	1.740506e-01	-1.684341e-17	-1.207025e-20	-3.675137e-20	5.819320e-23	7.113893e-24	7.113893e-24	0.000000e+00	
1.051282e+00	1.740506e-01	-9.057883e-18	-1.901007e-20	-2.701385e-19	3.047352e-23	1.910487e-22	1.910487e-22	0.000000e+00	
1.000000e+00	1.424051e-01	-1.671148e-17	-1.446498e-20	-4.590964e-20	5.691687e-23	-1.048130e-26	-1.048130e-26	0.000000e+00	
1.051282e+00	1.424051e-01	-8.604858e-18	-3.444600e-20	-2.633684e-19	2.655834e-23	8.406236e-23	8.406236e-23	0.000000e+00	
1.000000e+00	1.107595e-01	-1.652195e-17	-1.675337e-20	-6.148693e-20	5.584368e-23	-6.887514e-27	-6.887514e-27	0.000000e+00	
1.051282e+00	1.107595e-01	-8.146996e-18	-4.960152e-20	-2.566717e-19	2.284071e-23	3.165761e-24	3.165761e-24	0.000000e+00	
1.000000e+00	7.911392e-02	-1.628015e-17	-1.890997e-20	-8.328419e-20	5.511472e-23	1.970366e-23	1.970366e-23	0.000000e+00	
1.051282e+00	7.911392e-02	-7.710071e-18	-6.359219e-20	-2.499406e-19	1.947829e-23	-1.056388e-26	-1.056388e-26	0.000000e+00	
1.000000e+00	4.746835e-02	-1.599408e-17	-2.088299e-20	-1.107308e-19	5.484894e-23	-1.662047e-20	-1.662047e-20	0.000000e+00	
1.051282e+00	4.746835e-02	-7.328678e-18	-7.530514e-20	-2.427983e-19	1.663068e-23	-1.235019e-21	-1.235019e-21	0.000000e+00	
1.000000e+00	1.582278e-02	-1.567532e-17	-2.258232e-20	-1.427626e-19	5.512599e-23	3.743176e-23	3.743176e-23	0.000000e+00	
1.051282e+00	1.582278e-02	-7.044762e-18	-8.343757e-20	-2.346146e-19	1.445137e-23	-1.301021e-22	-1.301021e-22	0.000000e+00	
1.000000e+00	-1.582278e-02	-1.533948e-17	-2.387968e-20	-1.777336e-19	5.597001e-23	3.927106e-24	3.927106e-24	0.000000e+00	
1.051282e+00	-1.582278e-02	-6.901994e-18	-8.665366e-20	-2.245747e-19	1.307217e-23	-8.756178e-21	-8.756178e-21	0.000000e+00	
1.000000e+00	-4.746835e-02	-1.500569e-17	-2.462292e-20	-2.134179e-19	5.733759e-23	2.676933e-22	2.676933e-22	0.000000e+00	
1.051282e+00	-4.746835e-02	-6.936612e-18	-8.384129e-20	-2.118073e-19	1.258170e-23	-6.030371e-22	-6.030371e-22	0.000000e+00	
1.000000e+00	-7.911392e-02	-1.469488e-17	-2.466302e-20	-2.471403e-19	5.911309e-23	1.787745e-23	1.787745e-23	0.000000e+00	
1.051282e+00	-7.911392e-02	-7.166805e-18	-7.441093e-20	-1.955587e-19	1.300255e-23	-1.553898e-22	-1.553898e-22	0.000000e+00	
1.000000e+00	-1.107595e-01	-1.442698e-17	-2.388770e-20	-2.760437e-19	6.111443e-23	4.655885e-24	4.655885e-24	0.000000e+00	
1.051282e+00	-1.107595e-01	-7.583548e-18	-5.855522e-20	-1.753868e-19	1.427322e-23	-3.603406e-21	-3.603406e-21	0.000000e+00	
1.000000e+00	-1.424051e-01	-1.421766e-17	-2.225353e-20	-2.974608e-19	6.311011e-23	1.019172e-22	1.019172e-22	0.000000e+00	
1.051282e+00	-1.424051e-01	-8.145864e-18	-3.738660e-20	-1.513335e-19	1.624105e-23	-1.981577e-22	-1.981577e-22	0.000000e+00	
1.000000e+00	-1.740506e-01	-1.407530e-17	-1.980791e-20	-3.093233e-19	6.484651e-23	5.934122e-24	5.934122e-24	0.000000e+00	
1.051282e+00	-1.740506e-01	-8.782582e-18	-1.289592e-20	-1.240352e-19	1.867036e-23	-1.224593e-20	-1.224593e-20	0.000000e+00	
1.000000e+00	-2.056962e-01	-1.399908e-17	-1.669463e-20	-3.105225e-19	6.608162e-23	3.455109e-22	3.455109e-22	0.000000e+00	
1.051282e+00	-2.056962e-01	-9.401033e-18	1.228123e-20	-9.473717e-20	2.126669e-23	-1.030526e-21	-1.030526e-21	0.000000e+00	
1.000000e+00	-2.373418e-01	-1.397867e-17	-1.314081e-20	-3.011397e-19	6.661980e-23	3.110185e-23	3.110185e-23	0.000000e+00	
1.051282e+00	-2.373418e-01	-9.901287e-18	3.525299e-20	-6.519721e-20	2.371381e-23	-1.630436e-22	-1.630436e-22	0.000000e+00	
1.000000e+00	-2.689873e-01	-1.399578e-17	-9.427498e-21	-2.824882e-19	6.634136e-23	4.882433e-24	4.882433e-24	0.000000e+00	
1.051282e+00	-2.689873e-01	-1.019302e-17	5.333551e-20	-3.748739e-20	2.571710e-23	-3.066808e-21	-3.066808e-21	0.000000e+00	
1.000000e+00	-3.006329e-01	-1.402720e-17	-5.850147e-21	-2.569511e-19	6.522125e-23	8.678384e-23	8.678384e-23	0.000000e+00	
1.051282e+00	-3.006329e-01	-1.021128e-17	6.449337e-20	-1.372656e-20	2.704500e-23	-2.122762e-22	-2.122762e-22	0.000000e+00	
1.000000e+00	-3.322785e-01	-1.404870e-17	-2.677237e-21	-2.276425e-19	6.333368e-23	6.395093e-24	6.395093e-24	0.000000e+00	
1.051282e+00	-3.322785e-01	-9.927809e-18	6.766181e-20	4.209031e-21	2.756050e-23	-6.276134e-21	-6.276134e-21	0.000000e+00	
1.000000e+00	-3.639241e-01	-1.403900e-17	-1.151799e-22	-1.979592e-19	6.084126e-23	1.924713e-22	1.924713e-22	0.000000e+00	
1.051282e+00	-3.639241e-01	-9.355397e-18	6.288669e-20	1.494344e-20	2.723687e-23	-5.644269e-22	-5.644269e-22	0.000000e+00	
1.000000e+00	-3.955696e-01	-1.398292e-17	1.714345e-21	-1.711066e-19	5.797147e-23	1.647391e-23	1.647391e-23	0.000000e+00	
1.051282e+00	-3.955696e-01	-8.544807e-18	5.126168e-20	1.778153e-20	2.615529e-23	-1.140559e-20	-1.140559e-20	0.000000e+00	
1.000000e+00	-4.272152e-01	-1.387320e-17	2.781743e-21	-1.496874e-19	5.498450e-23	3.364463e-22	3.364463e-22	0.000000e+00	
1.051282e+00	-4.272152e-01	-7.575170e-18	3.468871e-20	1.278301e-20	2.448605e-23	-1.067424e-21	-1.067424e-21	0.000000e+00	
1.000000e+00	-4.588608e-01	-1.371088e-17	3.142112e-21	-1.354172e-19	5.213882e-23	3.164724e-23	3.164724e-23	0.000000e+00	
1.051282e+00	-4.588608e-01	-6.540287e-18	1.552292e-20	7.232407e-22	2.245778e-23	-1.749253e-22	-1.749253e-22	0.000000e+00	
1.000000e+00	-4.905063e-01	-1.350415e-17	2.916458e-21	-1.290034e-19	4.965964e-23	5.241911e-24	5.241911e-24	0.000000e+00	
1.051282e+00	-4.905063e-01	-5.533834e-18	-3.818503e-21	-1.704434e-20	2.032131e-23	-1.422041e-21	-1.422041e-21	0.000000e+00	
1.000000e+00	-5.221519e-01	-1.326626e-17	2.266503e-21	-1.301869e-19	4.771578e-23	4.267373e-23	4.267373e-23	0.000000e+00	
1.051282e+00	-5.221519e-01	-4.636340e-18	-2.120734e-20	-3.879253e-20	1.831495e-23	-1.827562e-22	-1.827562e-22	0.000000e+00	
1.000000e+00	-5.537975e-01	-1.301308e-17	1.368257e-21	-1.379157e-19	4.640693e-23	5.471888e-24	5.471888e-24	0.000000e+00	
1.051282e+00	-5.537975e-01	-3.906056e-18	-3.505776e-20	-6.265175e-20	1.663645e-23	-1.499691e-21	-1.499691e-21	0.000000e+00	
1.000000e+00	-5.854430e-01	-1.276057e-17	3.888375e-22	-1.506029e-19	4.576239e-23	4.495724e-23	4.495724e-23	0.000000e+00	
1.051282e+00	-5.854430e-01	-3.374737e-18	-4.445343e-20	-8.682906e-20	1.542542e-23	-1.876365e-22	-1.876365e-22	0.000000e+00	
1.000000e+00	-6.170886e-01	-1.252296e-17	-5.308145e-22	-1.664114e-19	4.574919e-23	5.617917e-24	5.617917e-24	0.000000e+00	
1.051282e+00	-6.170886e-01	-3.048209e-18	-4.914960e-20	-1.097841e-19	1.475668e-23	-1.286443e-21	-1.286443e-21	0.000000e+00	
1.000000e+00	-6.487342e-01	-1.231144e-17	-1.285835e-21	-1.835170e-19	4.628735e-23	3.814895e-23	3.814895e-23	0.000000e+00	
1.051282e+00	-6.487342e-01	-2.910734e-18	-4.947420e-20	-1.303427e-19	1.464419e-23	-1.869754e-22	-1.869754e-22	0.000000e+00	
1.000000e+00	-6.803797e-01	-1.213371e-17	-1.810805e-21	-2.003166e-19	4.726749e-23	5.603310e-24	5.603310e-24	0.000000e+00	
1.051282e+00	-6.803797e-01	-2.931568e-18	-4.616669e-20	-1.477449e-19	1.505135e-23	-8.299563e-22	-8.299563e-22	0.000000e+00	
1.000000e+00	-7.120253e-01	-1.199386e-17	-2.077016e-21	-2.155591e-19	4.856887e-23	2.432542e-23	2.432542e-23	0.000000e+00	
1.051282e+00	-7.120253e-01	-3.072094e-18	-4.019450e-20	-1.616318e-19	1.590659e-23	-4.037066e-21	-4.037066e-21	0.000000e+00	
1.000000e+00	-7.436709e-01	-1.189255e-17	-2.086799e-21	-2.284041e-19	5.007214e-23	1.161989e-22	1.161989e-22	0.000000e+00	
1.051282e+00	-7.436709e-01	-3.292020e-18	-3.258228e-20	-1.719915e-19	1.711639e-23	-3.655976e-22	-3.655976e-22	0.000000e+00	
1.000000e+00	-7.753165e-01	-1.182741e-17	-1.864540e-21	-2.384118e-19	5.167090e-23	1.090883e-23	1.090883e-23	0.000000e+00	
1.051282e+00	-7.753165e-01	-3.554003e-18	-2.427503e-20	-1.790737e-19	1.858066e-23	-1.687275e-21	-1.687275e-21	0.000000e+00	
1.000000e+00	-8.069620e-01	-1.179364e-17	-1.449570e-21	-2.454920e-19	5.327448e-23	5.039996e-23	5.039996e-23	0.000000e+00	
1.051282e+00	-8.069620e-01	-3.826456e-18	-1.604743e-20	-1.833053e-19	2.019834e-23	-2.060804e-22	-2.060804e-22	0.000000e+00	
1.000000e+00	-8.386076e-01	-1.178575e-17	-8.861419e-22	-2.498151e-19	5.481889e-23	6.170373e-24	6.170373e-24	0.000000e+00	
1.051282e+00	-8.386076e-01	-4.085697e-18	-8.454247e-21	-1.851982e-19	2.188378e-23	-5.327820e-22	-5.327820e-22	0.000000e+00	
1.000000e+00	-8.702532e-01	-1.179957e-17	-2.208040e-22	-2.517278e-19	5.626266e-23	1.577074e-23	1.577074e-23	0.000000e+00	
1.051282e+00	-8.702532e-01	-4.317624e-18	-1.821702e-21	-1.852916e-19	2.356524e-23	-1.468586e-21	-1.468586e-21	0.000000e+00	
1.000000e+00	-9.018987e-01	-1.183460e-17	5.088917e-22	-2.516445e-19	5.760513e-23	4.355810e-23	4.355810e-23	0.000000e+00	
1.051282e+00	-9.018987e-01	-4.519897e-18	3.738449e-21	-1.840746e-19	2.521506e-23	-2.054756e-22	-2.054756e-22	0.000000e+00	
1.000000e+00	-9.335443e-01	-1.189275e-17	1.267661e-21	-2.499938e-19	5.885184e-23	6.158390e-24	6.158390e-24	0.000000e+00	
1.051282e+00	-9.335443e-01	-4.700819e-18	8.278689e-21	-1.819837e-19	2.681918e-23	-2.704436e-22	-2.704436e-22	0.000000e+00	
1.000000e+00	-9.651899e-01	-1.197505e-17	2.043284e-21	-2.471157e-19	6.003737e-23	8.094920e-24	8.094920e-24	0.000000e+00	
1.051282e+00	-9.651899e-01	-4.874610e-18	1.195700e-20	-1.793119e-19	2.841771e-23	-4.371504e-22	-4.371504e-22	0.000000e+00	
1.000000e+00	-9.968354e-01	-1.207327e-17	2.817940e-21	-2.433157e-19	6.111901e-23	1.300452e-23	1.300452e-23	0.000000e+00	
1.051282e+00	-9.968354e-01	-5.045852e-18	1.492219e-20	-1.763103e-19	2.996852e-23	-5.858166e-22	-5.858166e-22	0.000000e+00	
1.000000e+00	-1.028481e+00	-1.216912e-17	3.615160e-21	-2.387571e-19	6.209067e-23	1.732966e-23	1.732966e-23	0.000000e+00	
1.051282e+00	-1.028481e+00	-5.194232e-18	1.722449e-20	-1.730285e-19	3.145330e-23	-5.940802e-22	-5.940802e-22	0.000000e+00	
1.000000e+00	-1.060127e+00	-1.222615e-17	4.395947e-21	-2.337725e-19	6.274417e-23	1.757236e-23	1.757236e-23	0.000000e+00	
1.051282e+00	-1.060127e+00	-5.255214e-18	1.867501e-20	-1.697189e-19	3.256096e-23	-4.532410e-22	-4.532410e-22	0.000000e+00	
1.000000e+00	-1.091772e+00	-1.219812e-17	5.179860e-21	-2.285820e-19	6.305579e-23	1.346980e-23	1.346980e-23	0.000000e+00	
1.051282e+00	-1.091772e+00	-5.144135e-18	1.897728e-20	-1.664325e-19	3.321734e-23	-2.871082e-22	-2.871082e-22	0.000000e+00	
1.000000e+00	-1.123418e+00	-1.203540e-17	5.786816e-21	-2.240295e-19	6.257921e-23	8.588084e-24	8.588084e-24	0.000000e+00	
1.051282e+00	-1.123418e+00	-4.826553e-18	1.801909e-20	-1.641042e-19	3.302547e-23	-2.236230e-22	-2.236230e-22	0.000000e+00	
1.000000e+00	-1.155063e+00	-1.184179e-17	6.369162e-21	-2.200882e-19	6.215826e-23	6.703895e-24	6.703895e-24	0.000000e+00	
1.051282e+00	-1.155063e+00	-4.546703e-18	1.674793e-20	-1.627918e-19	3.336381e-23	-2.307334e-22	-2.307334e-22	0.000000e+00	
1.000000e+00	-1.186709e+00	-1.204564e-17	6.793620e-21	-2.174973e-19	6.258251e-23	6.916184e-24	6.916184e-24	0.000000e+00	
1.051282e+00	-1.186709e+00	-5.019845e-18	1.746667e-20	-1.641741e-19	3.576847e-23	-2.285387e-22	-2.285387e-22	0.000000e+00	
1.000000e+00	-1.218354e+00	-1.345357e-17	8.341453e-21	-2.117615e-19	6.677660e-23	6.852063e-24	6.852063e-24	0.000000e+00	
1.051282e+00	-1.218354e+00	-7.316816e-18	2.239277e-20	-1.646825e-19	4.256065e-23	0.000000e+00	0.000000e+00	0.000000e+00	
1.102564e+00	1.218354e+00	-4.526590e-19	2.960093e-20	-2.641902e-20	9.066836e-24	3.430777e-22	3.430777e-22	0.000000e+00	
1.102564e+00	1.250000e+00	5.837741e-19	3.206231e-20	-3.734816e-20	1.083905e-23	-1.287800e-20	-1.287800e-20	0.000000e+00	
1.102564e+00	1.186709e+00	-6.645415e-19	3.179976e-20	-2.799139e-20	1.141398e-23	2.775599e-22	2.775599e-22	0.000000e+00	
1.102564e+00	1.155063e+00	-8.251085e-19	3.413239e-20	-2.696889e-20	1.160147e-23	-7.080461e-21	-7.080461e-21	0.000000e+00	
1.102564e+00	1.123418e+00	-1.020704e-18	3.889149e-20	-2.658790e-20	1.231945e-23	3.163411e-22	3.163411e-22	0.000000e+00	
1.102564e+00	1.091772e+00	-1.304832e-18	4.645680e-20	-2.532327e-20	1.235231e-23	-6.644094e-27	-6.644094e-27	0.000000e+00	
1.102564e+00	1.060127e+00	-1.618457e-18	5.492826e-20	-2.376410e-20	1.240493e-23	-5.516421e-27	-5.516421e-27	0.000000e+00	
1.102564e+00	1.028481e+00	-1.869497e-18	6.118584e-20	-2.118574e-20	1.205699e-23	9.299487e-23	9.299487e-23	0.000000e+00	
1.102564e+00	9.968354e-01	-1.966190e-18	6.248187e-20	-1.756081e-20	1.149578e-23	7.667274e-23	7.667274e-23	0.000000e+00	
1.102564e+00	9.651899e-01	-1.868947e-18	5.755416e-20	-1.259105e-20	1.059699e-23	-4.852742e-24	-4.852742e-24	0.000000e+00	
1.102564e+00	9.335443e-01	-1.594851e-18	4.694142e-20	-6.341694e-21	9.468539e-24	-4.849835e-25	-4.849835e-25	0.000000e+00	
1.102564e+00	9.018987e-01	-1.203032e-18	3.245076e-20	1.044573e-21	8.143314e-24	-1.070644e-22	-1.070644e-22	0.000000e+00	
1.102564e+00	8.702532e-01	-7.613563e-19	1.625540e-20	9.145354e-21	6.730901e-24	-3.359506e-24	-3.359506e-24	0.000000e+00	
1.102564e+00	8.386076e-01	-3.200268e-19	8.681749e-23	1.735831e-20	5.303504e-24	1.338593e-25	1.338593e-25	0.000000e+00	
1.102564e+00	8.069620e-01	1.008611e-19	-1.512494e-20	2.486869e-20	3.939258e-24	-1.082995e-26	-1.082995e-26	0.000000e+00	
1.102564e+00	7.753165e-01	5.058044e-19	-2.913102e-20	3.074216e-20	2.686940e-24	3.010456e-22	3.010456e-22	0.000000e+00	
1.102564e+00	7.436709e-01	9.083457e-19	-4.194182e-20	3.399647e-20	1.586404e-24	-1.140679e-21	-1.140679e-21	0.000000e+00	
1.102564e+00	7.120253e-01	1.314459e-18	-5.338838e-20	3.372140e-20	6.623484e-25	-9.027482e-25	-9.027482e-25	0.000000e+00	
1.102564e+00	6.803797e-01	1.713176e-18	-6.288739e-20	2.918058e-20	-6.662697e-26	1.191983e-25	1.191983e-25	0.000000e+00	
1.102564e+00	6.487342e-01	2.077317e-18	-6.949653e-20	1.990408e-20	-5.919609e-25	-1.364845e-22	-1.364845e-22	0.000000e+00	
1.102564e+00	6.170886e-01	2.372626e-18	-7.220010e-20	5.743213e-21	-9.163907e-25	5.549683e-22	5.549683e-22	0.000000e+00	
1.102564e+00	5.854430e-01	2.570313e-18	-7.028002e-20	-1.310772e-20	-1.059691e-24	-1.363216e-26	-1.363216e-26	0.000000e+00	
1.102564e+00	5.537975e-01	2.657668e-18	-6.361521e-20	-3.612509e-20	-1.061165e-24	-6.118911e-27	-6.118911e-27	0.000000e+00	
1.102564e+00	5.221519e-01	2.642992e-18	-5.280384e-20	-6.249504e-20	-9.800067e-25	5.201312e-23	5.201312e-23	0.000000e+00	
1.102564e+00	4.905063e-01	2.553785e-18	-3.908063e-20	-9.117185e-20	-8.908641e-25	-1.171359e-22	-1.171359e-22	0.000000e+00	
1.102564e+00	4.588608e-01	2.429575e-18	-2.407406e-20	-1.209486e-19	-8.761927e-25	7.589798e-22	7.589798e-22	0.000000e+00	
1.102564e+00	4.272152e-01	2.312290e-18	-9.490160e-21	-1.505363e-19	-1.016302e-24	1.685262e-22	1.685262e-22	0.000000e+00	
1.102564e+00	3.955696e-01	2.237296e-18	3.182534e-21	-1.786483e-19	-1.379518e-24	-4.784119e-22	-4.784119e-22	0.000000e+00	
1.102564e+00	3.639241e-01	2.227494e-18	1.287598e-20	-2.040843e-19	-2.014177e-24	1.841700e-23	1.841700e-23	0.000000e+00	
1.102564e+00	3.322785e-01	2.291475e-18	1.902180e-20	-2.258072e-19	-2.943872e-24	-2.461046e-26	-2.461046e-26	0.000000e+00	
1.102564e+00	3.006329e-01	2.425309e-18	2.151627e-20	-2.430005e-19	-4.166350e-24	-1.071096e-26	-1.071096e-26	0.000000e+00	
1.102564e+00	2.689873e-01	2.616492e-18	2.061211e-20	-2.550982e-19	-5.655674e-24	6.095441e-23	6.095441e-23	0.000000e+00	
1.102564e+00	2.373418e-01	2.848143e-18	1.679149e-20	-2.617758e-19	-7.366616e-24	-1.285363e-22	-1.285363e-22	0.000000e+00	
1.102564e+00	2.056962e-01	3.101800e-18	1.066935e-20	-2.629053e-19	-9.240033e-24	3.579374e-22	3.579374e-22	0.000000e+00	
1.102564e+00	1.740506e-01	3.358007e-18	2.954646e-21	-2.584836e-19	-1.120814e-23	3.266438e-23	3.266438e-23	0.000000e+00	
1.102564e+00	1.424051e-01	3.594969e-18	-5.532684e-21	-2.485542e-19	-1.319906e-23	-1.034389e-22	-1.034389e-22	0.000000e+00	
1.102564e+00	1.107595e-01	3.786563e-18	-1.381937e-20	-2.331495e-19	-1.514067e-23	1.622682e-22	1.622682e-22	0.000000e+00	
1.102564e+00	7.911392e-02	3.901515e-18	-2.075868e-20	-2.122771e-19	-1.696411e-23	-6.758075e-27	-6.758075e-27	0.000000e+00	
1.102564e+00	4.746835e-02	3.905371e-18	-2.507879e-20	-1.859677e-19	-1.860765e-23	-5.142088e-27	-5.142088e-27	0.000000e+00	
1.102564e+00	1.582278e-02	3.766066e-18	-2.552602e-20	-1.543803e-19	-2.002131e-23	-1.483709e-26	-1.483709e-26	0.000000e+00	
1.102564e+00	-1.582278e-02	3.462482e-18	-2.109493e-20	-1.179442e-19	-2.117203e-23	-5.906934e-27	-5.906934e-27	0.000000e+00	
1.102564e+00	-4.746835e-02	2.994069e-18	-1.129996e-20	-7.750152e-20	-2.204862e-23	-3.688223e-27	-3.688223e-27	0.000000e+00	
1.102564e+00	-7.911392e-02	2.388658e-18	3.583985e-21	-3.440248e-20	-2.266520e-23	-8.658642e-27	-8.658642e-27	0.000000e+00	
1.102564e+00	-1.107595e-01	1.705524e-18	2.239148e-20	9.484260e-21	-2.306171e-23	-5.576254e-27	-5.576254e-27	0.000000e+00	
1.102564e+00	-1.424051e-01	1.031683e-18	4.310793e-20	5.187140e-20	-2.330039e-23	-1.596972e-26	-1.596972e-26	0.000000e+00	
1.102564e+00	-1.740506e-01	4.710529e-19	6.310290e-20	9.025995e-20	-2.345817e-23	-6.675573e-27	-6.675573e-27	0.000000e+00	
1.102564e+00	-2.056962e-01	1.281029e-19	7.952542e-20	1.222246e-19	-2.361569e-23	-5.489107e-27	-5.489107e-27	0.000000e+00	
1.102564e+00	-2.373418e-01	8.924579e-20	8.978550e-20	1.457273e-19	-2.384490e-23	-8.740233e-27	-8.740233e-27	0.000000e+00	
1.102564e+00	-2.689873e-01	4.060957e-19	9.201893e-20	1.593980e-19	-2.419766e-23	-5.825677e-27	-5.825677e-27	0.000000e+00	
1.102564e+00	-3.006329e-01	1.084426e-18	8.543261e-20	1.627296e-19	-2.469744e-23	-1.208095e-26	-1.208095e-26	0.000000e+00	
1.102564e+00	-3.322785e-01	2.081390e-18	7.045488e-20	1.561466e-19	-2.533603e-23	-6.328805e-27	-6.328805e-27	0.000000e+00	
1.102564e+00	-3.639241e-01	3.311612e-18	4.866122e-20	1.409378e-19	-2.607566e-23	-1.382564e-26	-1.382564e-26	0.000000e+00	
1.102564e+00	-3.955696e-01	4.660737e-18	2.249768e-20	1.190680e-19	-2.685600e-23	-6.962234e-27	-6.962234e-27	0.000000e+00	
1.102564e+00	-4.272152e-01	6.003425e-18	-5.132646e-21	9.290698e-20	-2.760426e-23	-4.203817e-27	-4.203817e-27	0.000000e+00	
1.102564e+00	-4.588608e-01	7.222028e-18	-3.133002e-20	6.492540e-20	-2.824652e-23	-7.508793e-27	-7.508793e-27	0.000000e+00	
1.102564e+00	-4.905063e-01	8.222392e-18	-5.361446e-20	3.741034e-20	-2.871791e-23	-6.051380e-27	-6.051380e-27	0.000000e+00	
1.102564e+00	-5.221519e-01	8.944193e-18	-7.022643e-20	1.224113e-20	-2.897006e-23	-7.678277e-27	-7.678277e-27	0.000000e+00	
1.102564e+00	-5.537975e-01	9.364653e-18	-8.027323e-20	-9.248668e-21	-2.897530e-23	-6.193082e-27	-6.193082e-27	0.000000e+00	
1.102564e+00	-5.854430e-01	9.495949e-18	-8.371871e-20	-2.631584e-20	-2.872680e-23	-7.465888e-27	-7.465888e-27	0.000000e+00	
1.102564e+00	-6.170886e-01	9.377786e-18	-8.124468e-20	-3.876952e-20	-2.823631e-23	-4.531339e-27	-4.531339e-27	0.000000e+00	
1.102564e+00	-6.487342e-01	9.067231e-18	-7.403169e-20	-4.687056e-20	-2.752888e-23	-7.114712e-27	-7.114712e-27	0.000000e+00	
1.102564e+00	-6.803797e-01	8.628079e-18	-6.351237e-20	-5.119784e-20	-2.663827e-23	-9.143203e-27	-9.143203e-27	0.000000e+00	
1.102564e+00	-7.120253e-01	8.121639e-18	-5.114369e-20	-5.250411e-20	-2.560039e-23	-6.835752e-27	-6.835752e-27	0.000000e+00	
1.102564e+00	-7.436709e-01	7.600350e-18	-3.823071e-20	-5.159008e-20	-2.445270e-23	-8.199505e-27	-8.199505e-27	0.000000e+00	
1.102564e+00	-7.753165e-01	7.104557e-18	-2.581520e-20	-4.920048e-20	-2.322930e-23	-6.738186e-27	-6.738186e-27	0.000000e+00	
1.102564e+00	-8.069620e-01	6.662251e-18	-1.462843e-20	-4.596748e-20	-2.196880e-23	-7.168479e-27	-7.168479e-27	0.000000e+00	
1.102564e+00	-8.386076e-01	6.289871e-18	-5.092150e-21	-4.237118e-20	-2.070268e-23	-8.014895e-27	-8.014895e-27	0.000000e+00	
1.102564e+00	-8.702532e-01	5.993093e-18	2.648072e-21	-3.876099e-20	-1.946832e-23	-5.049427e-27	-5.049427e-27	0.000000e+00	
1.102564e+00	-9.018987e-01	5.765346e-18	8.676994e-21	-3.534387e-20	-1.826610e-23	-7.156716e-27	-7.156716e-27	0.000000e+00	
1.102564e+00	-9.335443e-01	5.587448e-18	1.325164e-20	-3.226311e-20	-1.709663e-23	-7.339190e-27	-7.339190e-27	0.000000e+00	
1.102564e+00	-9.651899e-01	5.429785e-18	1.672882e-20	-2.952257e-20	-1.587920e-23	-7.486317e-27	-7.486317e-27	0.000000e+00	
1.102564e+00	-9.968354e-01	5.268600e-18	1.944672e-20	-2.713991e-20	-1.463144e-23	-7.540814e-27	-7.540814e-27	0.000000e+00	
1.102564e+00	-1.028481e+00	5.110506e-18	2.154052e-20	-2.488239e-20	-1.331284e-23	-7.517905e-27	-7.517905e-27	0.000000e+00	
1.102564e+00	-1.060127e+00	5.030512e-18	2.272240e-20	-2.275229e-20	-1.232668e-23	-7.529380e-27	-7.529380e-27	0.000000e+00	
1.102564e+00	-1.091772e+00	5.164972e-18	2.220593e-20	-2.037390e-20	-1.182368e-23	-5.584488e-27	-5.584488e-27	0.000000e+00	
1.102564e+00	-1.123418e+00	5.628722e-18	1.927908e-20	-1.849315e-20	-1.262016e-23	-7.706968e-27	-7.706968e-27	0.000000e+00	
1.102564e+00	-1.155063e+00	6.232558e-18	1.442258e-20	-1.713196e-20	-1.324552e-23	-5.696429e-27	-5.696429e-27	0.000000e+00	
1.102564e+00	-1.186709e+00	6.162165e-18	1.145333e-20	-1.809984e-20	-1.254529e-23	0.000000e+00	0.000000e+00	0.000000e+00	
1.102564e+00	-1.218354e+00	4.155434e-18	1.392221e-20	-1.970463e-20	-3.992152e-24	0.000000e+00	0.000000e+00	0.000000e+00	
1.153846e+00	1.218354e+00	8.182031e-18	2.988298e-20	8.782323e-20	-2.725453e-23	-1.035240e-20	-1.035240e-20	0.000000e+00	
1.153846e+00	1.250000e+00	1.125227e-17	2.947945e-20	1.087005e-19	-3.328921e-23	-1.349701e-20	-1.349701e-20	0.000000e+00	
1.153846e+00	1.186709e+00	8.004869e-18	3.307340e-20	8.814025e-20	-2.577158e-23	-1.234036e-26	-1.234036e-26	0.000000e+00	
1.153846e+00	1.155063e+00	7.874212e-18	3.597982e-20	9.041765e-20	-2.597624e-23	1.207453e-22	1.207453e-22	0.000000e+00	
1.153846e+00	1.123418e+00	7.713839e-18	4.042251e-20	9.166985e-20	-2.566281e-23	2.595040e-22	2.595040e-22	0.000000e+00	
1.153846e+00	1.091772e+00	7.465875e-18	4.740746e-20	9.279466e-20	-2.589526e-23	1.636783e-22	1.636783e-22	0.000000e+00	