TITLE = "SU2 Simulation"
VARIABLES = "Iteration","Sens_Geo","Sens_Mach","Sens_AoA","Sens_Press","Sens_Temp","Sens_AoS","Res_AdjFlow[0]","Res_AdjFlow[1]","Res_AdjFlow[2]","Res_AdjFlow[3]","Res_AdjFlow[4]","Linear_Solver_Iterations","CFL_Number","Time(min)"
ZONE T= "Convergence history"
           0, 0.00000000e+00, 0.00000000e+00, 0.00000000e+00, 0.00000000e+00, 0.00000000e+00, 0.0, -1.41769526e+01, -1.57158646e+01, -1.62686508e+01, -1.68011239e+01, 0.0, 5.0000000000, 10.0000000000, 60.0000000000
           1, 0.00000000e+00, 0.00000000e+00, 0.00000000e+00, 0.00000000e+00, 0.00000000e+00, 0.0, -1.24100487e+01, -1.39498509e+01, -1.45504654e+01, -1.67683544e+01, 0.0, 5.0000000000, 10.0000000000, 60.0000000000
           2, 0.00000000e+00, 0.00000000e+00, 0.00000000e+00, 0.00000000e+00, 0.00000000e+00, 0.0, -1.24378942e+01, -1.39753648e+01, -1.48901926e+01, -1.67983205e+01, 0.0, 5.0000000000, 10.0000000000, 60.0000000000
           3, 0.00000000e+00, 0.00000000e+00, 0.00000000e+00, 0.00000000e+00, 0.00000000e+00, 0.0, -1.25382462e+01, -1.40757102e+01, -1.47910869e+01, -1.69773586e+01, 0.0, 5.0000000000, 10.0000000000, 60.0000000000
           4, 0.00000000e+00, 0.00000000e+00, 0.00000000e+00, 0.00000000e+00, 0.00000000e+00, 0.0, -1.25812769e+01, -1.41188627e+01, -1.48561844e+01, -1.70376153e+01, 0.0, 5.0000000000, 10.0000000000, 60.0000000000
           5, 0.00000000e+00, 0.00000000e+00, 0.00000000e+00, 0.00000000e+00, 0.00000000e+00, 0.0, -1.26214398e+01, -1.41587183e+01, -1.50199344e+01, -1.70723187e+01, 0.0, 5.0000000000, 10.0000000000, 60.0000000000
           6, 0.00000000e+00, 0.00000000e+00, 0.00000000e+00, 0.00000000e+00, 0.00000000e+00, 0.0, -1.26514315e+01, -1.41885576e+01, -1.51388494e+01, -1.70980320e+01, 0.0, 5.0000000000, 10.0000000000, 60.0000000000
           7, 0.00000000e+00, 0.00000000e+00, 0.00000000e+00, 0.00000000e+00, 0.00000000e+00, 0.0, -1.26790048e+01, -1.42161680e+01, -1.52183376e+01, -1.71135618e+01, 0.0, 5.0000000000, 10.0000000000, 60.0000000000
           8, 0.00000000e+00, 0.00000000e+00, 0.00000000e+00, 0.00000000e+00, 0.00000000e+00, 0.0, -1.27127117e+01, -1.42501782e+01, -1.52870640e+01, -1.71176945e+01, 0.0, 5.0000000000, 10.0000000000, 60.0000000000
           9, 0.00000000e+00, 0.00000000e+00, 0.00000000e+00, 0.00000000e+00, 0.00000000e+00, 0.0, -1.27599738e+01, -1.42982226e+01, -1.53517329e+01, -1.71107274e+01, 0.0, 5.0000000000, 10.0000000000, 60.0000000000
          10, 0.00000000e+00, 0.00000000e+00, 0.00000000e+00, 0.00000000e+00, 0.00000000e+00, 0.0, -1.28275269e+01, -1.43674701e+01, -1.54111984e+01, -1.70967027e+01, 0.0, 5.0000000000, 10.0000000000, 60.0000000000
          11, 0.00000000e+00, 0.00000000e+00, 0.00000000e+00, 0.00000000e+00, 0.00000000e+00, 0.0, -1.29177351e+01, -1.44611060e+01, -1.54538533e+01, -1.70827999e+01, 0.0, 5.0000000000, 10.0000000000, 60.0000000000
          12, 0.00000000e+00, 0.00000000e+00, 0.00000000e+00, 0.00000000e+00, 0.00000000e+00, 0.0, -1.30148342e+01, -1.45639103e+01, -1.54655983e+01, -1.70759742e+01, 0.0, 5.0000000000, 10.0000000000, 60.0000000000
          13, 0.00000000e+00, 0.00000000e+00, 0.00000000e+00, 0.00000000e+00, 0.00000000e+00, 0.0, -1.30625077e+01, -1.46150205e+01, -1.54532698e+01, -1.70805041e+01, 0.0, 5.0000000000, 10.0000000000, 60.0000000000
          14, 0.00000000e+00, 0.00000000e+00, 0.00000000e+00, 0.00000000e+00, 0.00000000e+00, 0.0, -1.30220641e+01, -1.45702822e+01, -1.54422829e+01, -1.70974477e+01, 0.0, 5.0000000000, 10.0000000000, 60.0000000000
          15, 0.00000000e+00, 0.00000000e+00, 0.00000000e+00, 0.00000000e+00, 0.00000000e+00, 0.0, -1.29475040e+01, -1.44904216e+01, -1.54541896e+01, -1.71250227e+01, 0.0, 5.0000000000, 10.0000000000, 60.0000000000
          16, 0.00000000e+00, 0.00000000e+00, 0.00000000e+00, 0.00000000e+00, 0.00000000e+00, 0.0, -1.28858591e+01, -1.44256387e+01, -1.55010370e+01, -1.71593603e+01, 0.0, 5.0000000000, 10.0000000000, 60.0000000000
          17, 0.00000000e+00, 0.00000000e+00, 0.00000000e+00, 0.00000000e+00, 0.00000000e+00, 0.0, -1.28473779e+01, -1.43854914e+01, -1.55897588e+01, -1.71958239e+01, 0.0, 5.0000000000, 10.0000000000, 60.0000000000
          18, 0.00000000e+00, 0.00000000e+00, 0.00000000e+00, 0.00000000e+00, 0.00000000e+00, 0.0, -1.28296516e+01, -1.43668628e+01, -1.57231856e+01, -1.72309493e+01, 0.0, 5.0000000000, 10.0000000000, 60.0000000000
          19, 0.00000000e+00, 0.00000000e+00, 0.00000000e+00, 0.00000000e+00, 0.00000000e+00, 0.0, -1.28279600e+01, -1.43646514e+01, -1.58824302e+01, -1.72640608e+01, 0.0, 5.0000000000, 10.0000000000, 60.0000000000
          20, 0.00000000e+00, 0.00000000e+00, 0.00000000e+00, 0.00000000e+00, 0.00000000e+00, 0.0, -1.28377771e+01, -1.43741248e+01, -1.59715452e+01, -1.72972658e+01, 0.0, 5.0000000000, 10.0000000000, 60.0000000000
          21, 0.00000000e+00, 0.00000000e+00, 0.00000000e+00, 0.00000000e+00, 0.00000000e+00, 0.0, -1.28552884e+01, -1.43913499e+01, -1.59312150e+01, -1.73340106e+01, 0.0, 5.0000000000, 10.0000000000, 60.0000000000
          22, 0.00000000e+00, 0.00000000e+00, 0.00000000e+00, 0.00000000e+00, 0.00000000e+00, 0.0, -1.28774192e+01, -1.44131916e+01, -1.58683022e+01, -1.73776300e+01, 0.0, 5.0000000000, 10.0000000000, 60.0000000000
          23, 0.00000000e+00, 0.00000000e+00, 0.00000000e+00, 0.00000000e+00, 0.00000000e+00, 0.0, -1.29017528e+01, -1.44372243e+01, -1.58326321e+01, -1.74307008e+01, 0.0, 5.0000000000, 10.0000000000, 60.0000000000
          24, 0.00000000e+00, 0.00000000e+00, 0.00000000e+00, 0.00000000e+00, 0.00000000e+00, 0.0, -1.29265188e+01, -1.44617120e+01, -1.58219411e+01, -1.74949385e+01, 0.0, 5.0000000000, 10.0000000000, 60.0000000000
          25, 0.00000000e+00, 0.00000000e+00, 0.00000000e+00, 0.00000000e+00, 0.00000000e+00, 0.0, -1.29507137e+01, -1.44857120e+01, -1.58257663e+01, -1.75710078e+01, 0.0, 5.0000000000, 10.0000000000, 60.0000000000
          26, 0.00000000e+00, 0.00000000e+00, 0.00000000e+00, 0.00000000e+00, 0.00000000e+00, 0.0, -1.29742306e+01, -1.45091769e+01, -1.58366727e+01, -1.76575100e+01, 0.0, 5.0000000000, 10.0000000000, 60.0000000000
          27, 0.00000000e+00, 0.00000000e+00, 0.00000000e+00, 0.00000000e+00, 0.00000000e+00, 0.0, -1.29977784e+01, -1.45328516e+01, -1.58535222e+01, -1.77481440e+01, 0.0, 5.0000000000, 10.0000000000, 60.0000000000
          28, 0.00000000e+00, 0.00000000e+00, 0.00000000e+00, 0.00000000e+00, 0.00000000e+00, 0.0, -1.30225074e+01, -1.45578924e+01, -1.58807703e+01, -1.78271440e+01, 0.0, 5.0000000000, 10.0000000000, 60.0000000000
          29, 0.00000000e+00, 0.00000000e+00, 0.00000000e+00, 0.00000000e+00, 0.00000000e+00, 0.0, -1.30494816e+01, -1.45853494e+01, -1.59255726e+01, -1.78714126e+01, 0.0, 5.0000000000, 10.0000000000, 60.0000000000
          30, 0.00000000e+00, 0.00000000e+00, 0.00000000e+00, 0.00000000e+00, 0.00000000e+00, 0.0, -1.30792115e+01, -1.46157098e+01, -1.59956868e+01, -1.78717950e+01, 0.0, 5.0000000000, 10.0000000000, 60.0000000000
          31, 0.00000000e+00, 0.00000000e+00, 0.00000000e+00, 0.00000000e+00, 0.00000000e+00, 0.0, -1.31113689e+01, -1.46486174e+01, -1.60983758e+01, -1.78448896e+01, 0.0, 5.0000000000, 10.0000000000, 60.0000000000
          32, 0.00000000e+00, 0.00000000e+00, 0.00000000e+00, 0.00000000e+00, 0.00000000e+00, 0.0, -1.31447254e+01, -1.46828039e+01, -1.62337969e+01, -1.78116622e+01, 0.0, 5.0000000000, 10.0000000000, 60.0000000000
          33, 0.00000000e+00, 0.00000000e+00, 0.00000000e+00, 0.00000000e+00, 0.00000000e+00, 0.0, -1.31773417e+01, -1.47162691e+01, -1.63544537e+01, -1.77830405e+01, 0.0, 5.0000000000, 10.0000000000, 60.0000000000
          34, 0.00000000e+00, 0.00000000e+00, 0.00000000e+00, 0.00000000e+00, 0.00000000e+00, 0.0, -1.32070409e+01, -1.47467519e+01, -1.63386695e+01, -1.77621769e+01, 0.0, 5.0000000000, 10.0000000000, 60.0000000000
          35, 0.00000000e+00, 0.00000000e+00, 0.00000000e+00, 0.00000000e+00, 0.00000000e+00, 0.0, -1.32320781e+01, -1.47724197e+01, -1.62310178e+01, -1.77488173e+01, 0.0, 5.0000000000, 10.0000000000, 60.0000000000
          36, 0.00000000e+00, 0.00000000e+00, 0.00000000e+00, 0.00000000e+00, 0.00000000e+00, 0.0, -1.32517171e+01, -1.47924777e+01, -1.61372750e+01, -1.77415907e+01, 0.0, 5.0000000000, 10.0000000000, 60.0000000000
          37, 0.00000000e+00, 0.00000000e+00, 0.00000000e+00, 0.00000000e+00, 0.00000000e+00, 0.0, -1.32663768e+01, -1.48073393e+01, -1.60774909e+01, -1.77389650e+01, 0.0, 5.0000000000, 10.0000000000, 60.0000000000
          38, 0.00000000e+00, 0.00000000e+00, 0.00000000e+00, 0.00000000e+00, 0.00000000e+00, 0.0, -1.32772954e+01, -1.48182831e+01, -1.60478951e+01, -1.77396395e+01, 0.0, 5.0000000000, 10.0000000000, 60.0000000000
          39, 0.00000000e+00, 0.00000000e+00, 0.00000000e+00, 0.00000000e+00, 0.00000000e+00, 0.0, -1.32859985e+01, -1.48268947e+01, -1.60434028e+01, -1.77427001e+01, 0.0, 5.0000000000, 10.0000000000, 60.0000000000
          40, 0.00000000e+00, 0.00000000e+00, 0.00000000e+00, 0.00000000e+00, 0.00000000e+00, 0.0, -1.32938942e+01, -1.48346370e+01, -1.60605366e+01, -1.77476484e+01, 0.0, 5.0000000000, 10.0000000000, 60.0000000000
          41, 0.00000000e+00, 0.00000000e+00, 0.00000000e+00, 0.00000000e+00, 0.00000000e+00, 0.0, -1.33021099e+01, -1.48426768e+01, -1.60974392e+01, -1.77543504e+01, 0.0, 5.0000000000, 10.0000000000, 60.0000000000
          42, 0.00000000e+00, 0.00000000e+00, 0.00000000e+00, 0.00000000e+00, 0.00000000e+00, 0.0, -1.33115054e+01, -1.48518983e+01, -1.61535391e+01, -1.77629455e+01, 0.0, 5.0000000000, 10.0000000000, 60.0000000000
          43, 0.00000000e+00, 0.00000000e+00, 0.00000000e+00, 0.00000000e+00, 0.00000000e+00, 0.0, -1.33227541e+01, -1.48629879e+01, -1.62288191e+01, -1.77737491e+01, 0.0, 5.0000000000, 10.0000000000, 60.0000000000
          44, 0.00000000e+00, 0.00000000e+00, 0.00000000e+00, 0.00000000e+00, 0.00000000e+00, 0.0, -1.33364214e+01, -1.48765171e+01, -1.63213832e+01, -1.77871717e+01, 0.0, 5.0000000000, 10.0000000000, 60.0000000000
          45, 0.00000000e+00, 0.00000000e+00, 0.00000000e+00, 0.00000000e+00, 0.00000000e+00, 0.0, -1.33530142e+01, -1.48929953e+01, -1.64194760e+01, -1.78036620e+01, 0.0, 5.0000000000, 10.0000000000, 60.0000000000
          46, 0.00000000e+00, 0.00000000e+00, 0.00000000e+00, 0.00000000e+00, 0.00000000e+00, 0.0, -1.33730043e+01, -1.49128943e+01, -1.64866797e+01, -1.78236702e+01, 0.0, 5.0000000000, 10.0000000000, 60.0000000000
          47, 0.00000000e+00, 0.00000000e+00, 0.00000000e+00, 0.00000000e+00, 0.00000000e+00, 0.0, -1.33968339e+01, -1.49366549e+01, -1.64814428e+01, -1.78476265e+01, 0.0, 5.0000000000, 10.0000000000, 60.0000000000
          48, 0.00000000e+00, 0.00000000e+00, 0.00000000e+00, 0.00000000e+00, 0.00000000e+00, 0.0, -1.34249140e+01, -1.49646861e+01, -1.64237936e+01, -1.78759292e+01, 0.0, 5.0000000000, 10.0000000000, 60.0000000000
          49, 0.00000000e+00, 0.00000000e+00, 0.00000000e+00, 0.00000000e+00, 0.00000000e+00, 0.0, -1.34576220e+01, -1.49973620e+01, -1.63604281e+01, -1.79089387e+01, 0.0, 5.0000000000, 10.0000000000, 60.0000000000
          50, 0.00000000e+00, 0.00000000e+00, 0.00000000e+00, 0.00000000e+00, 0.00000000e+00, 0.0, -1.34952997e+01, -1.50350204e+01, -1.63128986e+01, -1.79469752e+01, 0.0, 5.0000000000, 10.0000000000, 60.0000000000
          51, 0.00000000e+00, 0.00000000e+00, 0.00000000e+00, 0.00000000e+00, 0.00000000e+00, 0.0, -1.35382540e+01, -1.50779635e+01, -1.62861096e+01, -1.79903185e+01, 0.0, 5.0000000000, 10.0000000000, 60.0000000000
          52, 0.00000000e+00, 0.00000000e+00, 0.00000000e+00, 0.00000000e+00, 0.00000000e+00, 0.0, -1.35867582e+01, -1.51264587e+01, -1.62801923e+01, -1.80392092e+01, 0.0, 5.0000000000, 10.0000000000, 60.0000000000
          53, 0.00000000e+00, 0.00000000e+00, 0.00000000e+00, 0.00000000e+00, 0.00000000e+00, 0.0, -1.36410536e+01, -1.51807413e+01, -1.62946449e+01, -1.80938497e+01, 0.0, 5.0000000000, 10.0000000000, 60.0000000000
          54, 0.00000000e+00, 0.00000000e+00, 0.00000000e+00, 0.00000000e+00, 0.00000000e+00, 0.0, -1.37013508e+01, -1.52410147e+01, -1.63294533e+01, -1.81544041e+01, 0.0, 5.0000000000, 10.0000000000, 60.0000000000
          55, 0.00000000e+00, 0.00000000e+00, 0.00000000e+00, 0.00000000e+00, 0.00000000e+00, 0.0, -1.37678275e+01, -1.53074492e+01, -1.63853256e+01, -1.82210006e+01, 0.0, 5.0000000000, 10.0000000000, 60.0000000000
          56, 0.00000000e+00, 0.00000000e+00, 0.00000000e+00, 0.00000000e+00, 0.00000000e+00, 0.0, -1.38406203e+01, -1.53801748e+01, -1.64633763e+01, -1.82937382e+01, 0.0, 5.0000000000, 10.0000000000, 60.0000000000
          57, 0.00000000e+00, 0.00000000e+00, 0.00000000e+00, 0.00000000e+00, 0.00000000e+00, 0.0, -1.39198047e+01, -1.54592624e+01, -1.65631519e+01, -1.83727030e+01, 0.0, 5.0000000000, 10.0000000000, 60.0000000000
          58, 0.00000000e+00, 0.00000000e+00, 0.00000000e+00, 0.00000000e+00, 0.00000000e+00, 0.0, -1.40053515e+01, -1.55446849e+01, -1.66742977e+01, -1.84579983e+01, 0.0, 5.0000000000, 10.0000000000, 60.0000000000
          59, 0.00000000e+00, 0.00000000e+00, 0.00000000e+00, 0.00000000e+00, 0.00000000e+00, 0.0, -1.40970469e+01, -1.56362450e+01, -1.67556907e+01, -1.85497886e+01, 0.0, 5.0000000000, 10.0000000000, 60.0000000000
          60, 0.00000000e+00, 0.00000000e+00, 0.00000000e+00, 0.00000000e+00, 0.00000000e+00, 0.0, -1.41943535e+01, -1.57334511e+01, -1.67514070e+01, -1.86483651e+01, 0.0, 5.0000000000, 10.0000000000, 60.0000000000
          61, 0.00000000e+00, 0.00000000e+00, 0.00000000e+00, 0.00000000e+00, 0.00000000e+00, 0.0, -1.42961864e+01, -1.58353168e+01, -1.66851621e+01, -1.87542340e+01, 0.0, 5.0000000000, 10.0000000000, 60.0000000000
          62, 0.00000000e+00, 0.00000000e+00, 0.00000000e+00, 0.00000000e+00, 0.00000000e+00, 0.0, -1.44006062e+01, -1.59400754e+01, -1.66145650e+01, -1.88682095e+01, 0.0, 5.0000000000, 10.0000000000, 60.0000000000
          63, 0.00000000e+00, 0.00000000e+00, 0.00000000e+00, 0.00000000e+00, 0.00000000e+00, 0.0, -1.45044925e+01, -1.60448422e+01, -1.65622277e+01, -1.89914270e+01, 0.0, 5.0000000000, 10.0000000000, 60.0000000000
          64, 0.00000000e+00, 0.00000000e+00, 0.00000000e+00, 0.00000000e+00, 0.00000000e+00, 0.0, -1.46034321e+01, -1.61454010e+01, -1.65315249e+01, -1.91249882e+01, 0.0, 5.0000000000, 10.0000000000, 60.0000000000
          65, 0.00000000e+00, 0.00000000e+00, 0.00000000e+00, 0.00000000e+00, 0.00000000e+00, 0.0, -1.46922813e+01, -1.62365351e+01, -1.65213517e+01, -1.92683233e+01, 0.0, 5.0000000000, 10.0000000000, 60.0000000000
          66, 0.00000000e+00, 0.00000000e+00, 0.00000000e+00, 0.00000000e+00, 0.00000000e+00, 0.0, -1.47666869e+01, -1.63133423e+01, -1.65302348e+01, -1.94137644e+01, 0.0, 5.0000000000, 10.0000000000, 60.0000000000
          67, 0.00000000e+00, 0.00000000e+00, 0.00000000e+00, 0.00000000e+00, 0.00000000e+00, 0.0, -1.48248028e+01, -1.63731310e+01, -1.65570532e+01, -1.95354772e+01, 0.0, 5.0000000000, 10.0000000000, 60.0000000000
          68, 0.00000000e+00, 0.00000000e+00, 0.00000000e+00, 0.00000000e+00, 0.00000000e+00, 0.0, -1.48676412e+01, -1.64163631e+01, -1.66007648e+01, -1.95954514e+01, 0.0, 5.0000000000, 10.0000000000, 60.0000000000
          69, 0.00000000e+00, 0.00000000e+00, 0.00000000e+00, 0.00000000e+00, 0.00000000e+00, 0.0, -1.48977781e+01, -1.64457574e+01, -1.66593651e+01, -1.95956288e+01, 0.0, 5.0000000000, 10.0000000000, 60.0000000000
          70, 0.00000000e+00, 0.00000000e+00, 0.00000000e+00, 0.00000000e+00, 0.00000000e+00, 0.0, -1.49178828e+01, -1.64646548e+01, -1.67273950e+01, -1.95765881e+01, 0.0, 5.0000000000, 10.0000000000, 60.0000000000
          71, 0.00000000e+00, 0.00000000e+00, 0.00000000e+00, 0.00000000e+00, 0.00000000e+00, 0.0, -1.49301810e+01, -1.64760396e+01, -1.67915068e+01, -1.95659224e+01, 0.0, 5.0000000000, 10.0000000000, 60.0000000000
          72, 0.00000000e+00, 0.00000000e+00, 0.00000000e+00, 0.00000000e+00, 0.00000000e+00, 0.0, -1.49366347e+01, -1.64823725e+01, -1.68294380e+01, -1.95734615e+01, 0.0, 5.0000000000, 10.0000000000, 60.0000000000
          73, 0.00000000e+00, 0.00000000e+00, 0.00000000e+00, 0.00000000e+00, 0.00000000e+00, 0.0, -1.49391818e+01, -1.64857123e+01, -1.68264550e+01, -1.96025008e+01, 0.0, 5.0000000000, 10.0000000000, 60.0000000000
          74, 0.00000000e+00, 0.00000000e+00, 0.00000000e+00, 0.00000000e+00, 0.00000000e+00, 0.0, -1.49397253e+01, -1.64877805e+01, -1.67938370e+01, -1.96555184e+01, 0.0, 5.0000000000, 10.0000000000, 60.0000000000
          75, 0.00000000e+00, 0.00000000e+00, 0.00000000e+00, 0.00000000e+00, 0.00000000e+00, 0.0, -1.49399419e+01, -1.64899286e+01, -1.67538565e+01, -1.97365924e+01, 0.0, 5.0000000000, 10.0000000000, 60.0000000000
          76, 0.00000000e+00, 0.00000000e+00, 0.00000000e+00, 0.00000000e+00, 0.00000000e+00, 0.0, -1.49410895e+01, -1.64930841e+01, -1.67207651e+01, -1.98532048e+01, 0.0, 5.0000000000, 10.0000000000, 60.0000000000
          77, 0.00000000e+00, 0.00000000e+00, 0.00000000e+00, 0.00000000e+00, 0.00000000e+00, 0.0, -1.49439091e+01, -1.64977294e+01, -1.67001361e+01, -2.00171963e+01, 0.0, 5.0000000000, 10.0000000000, 60.0000000000
          78, 0.00000000e+00, 0.00000000e+00, 0.00000000e+00, 0.00000000e+00, 0.00000000e+00, 0.0, -1.49486233e+01, -1.65039269e+01, -1.66932758e+01, -2.02220932e+01, 0.0, 5.0000000000, 10.0000000000, 60.0000000000
          79, 0.00000000e+00, 0.00000000e+00, 0.00000000e+00, 0.00000000e+00, 0.00000000e+00, 0.0, -1.49549991e+01, -1.65113834e+01, -1.66997874e+01, -2.02789439e+01, 0.0, 5.0000000000, 10.0000000000, 60.0000000000
          80, 0.00000000e+00, 0.00000000e+00, 0.00000000e+00, 0.00000000e+00, 0.00000000e+00, 0.0, -1.49624538e+01, -1.65195488e+01, -1.67184396e+01, -2.01191502e+01, 0.0, 5.0000000000, 10.0000000000, 60.0000000000
          81, 0.00000000e+00, 0.00000000e+00, 0.00000000e+00, 0.00000000e+00, 0.00000000e+00, 0.0, -1.49701990e+01, -1.65277477e+01, -1.67471386e+01, -1.99792014e+01, 0.0, 5.0000000000, 10.0000000000, 60.0000000000
          82, 0.00000000e+00, 0.00000000e+00, 0.00000000e+00, 0.00000000e+00, 0.00000000e+00, 0.0, -1.49774195e+01, -1.65353324e+01, -1.67823912e+01, -1.98893893e+01, 0.0, 5.0000000000, 10.0000000000, 60.0000000000
          83, 0.00000000e+00, 0.00000000e+00, 0.00000000e+00, 0.00000000e+00, 0.00000000e+00, 0.0, -1.49834617e+01, -1.65418317e+01, -1.68186171e+01, -1.98377657e+01, 0.0, 5.0000000000, 10.0000000000, 60.0000000000
          84, 0.00000000e+00, 0.00000000e+00, 0.00000000e+00, 0.00000000e+00, 0.00000000e+00, 0.0, -1.49879868e+01, -1.65470543e+01, -1.68482726e+01, -1.98157866e+01, 0.0, 5.0000000000, 10.0000000000, 60.0000000000
          85, 0.00000000e+00, 0.00000000e+00, 0.00000000e+00, 0.00000000e+00, 0.00000000e+00, 0.0, -1.49910331e+01, -1.65511121e+01, -1.68643044e+01, -1.98190064e+01, 0.0, 5.0000000000, 10.0000000000, 60.0000000000
          86, 0.00000000e+00, 0.00000000e+00, 0.00000000e+00, 0.00000000e+00, 0.00000000e+00, 0.0, -1.49929676e+01, -1.65543584e+01, -1.68644126e+01, -1.98457496e+01, 0.0, 5.0000000000, 10.0000000000, 60.0000000000
          87, 0.00000000e+00, 0.00000000e+00, 0.00000000e+00, 0.00000000e+00, 0.00000000e+00, 0.0, -1.49943519e+01, -1.65572699e+01, -1.68526272e+01, -1.98965038e+01, 0.0, 5.0000000000, 10.0000000000, 60.0000000000
          88, 0.00000000e+00, 0.00000000e+00, 0.00000000e+00, 0.00000000e+00, 0.00000000e+00, 0.0, -1.49957801e+01, -1.65603179e+01, -1.68360408e+01, -1.99738923e+01, 0.0, 5.0000000000, 10.0000000000, 60.0000000000
          89, 0.00000000e+00, 0.00000000e+00, 0.00000000e+00, 0.00000000e+00, 0.00000000e+00, 0.0, -1.49977434e+01, -1.65638657e+01, -1.68208268e+01, -2.00827654e+01, 0.0, 5.0000000000, 10.0000000000, 60.0000000000
          90, 0.00000000e+00, 0.00000000e+00, 0.00000000e+00, 0.00000000e+00, 0.00000000e+00, 0.0, -1.50005462e+01, -1.65681099e+01, -1.68107533e+01, -2.02273916e+01, 0.0, 5.0000000000, 10.0000000000, 60.0000000000
          91, 0.00000000e+00, 0.00000000e+00, 0.00000000e+00, 0.00000000e+00, 0.00000000e+00, 0.0, -1.50042776e+01, -1.65730660e+01, -1.68074637e+01, -2.03842070e+01, 0.0, 5.0000000000, 10.0000000000, 60.0000000000
          92, 0.00000000e+00, 0.00000000e+00, 0.00000000e+00, 0.00000000e+00, 0.00000000e+00, 0.0, -1.50088279e+01, -1.65785909e+01, -1.68111116e+01, -2.04228381e+01, 0.0, 5.0000000000, 10.0000000000, 60.0000000000
          93, 0.00000000e+00, 0.00000000e+00, 0.00000000e+00, 0.00000000e+00, 0.00000000e+00, 0.0, -1.50139358e+01, -1.65844320e+01, -1.68207860e+01, -2.03131848e+01, 0.0, 5.0000000000, 10.0000000000, 60.0000000000
          94, 0.00000000e+00, 0.00000000e+00, 0.00000000e+00, 0.00000000e+00, 0.00000000e+00, 0.0, -1.50192576e+01, -1.65902920e+01, -1.68347106e+01, -2.01989130e+01, 0.0, 5.0000000000, 10.0000000000, 60.0000000000
          95, 0.00000000e+00, 0.00000000e+00, 0.00000000e+00, 0.00000000e+00, 0.00000000e+00, 0.0, -1.50244455e+01, -1.65958975e+01, -1.68503848e+01, -2.01196410e+01, 0.0, 5.0000000000, 10.0000000000, 60.0000000000
          96, 0.00000000e+00, 0.00000000e+00, 0.00000000e+00, 0.00000000e+00, 0.00000000e+00, 0.0, -1.50292194e+01, -1.66010571e+01, -1.68648895e+01, -2.00727616e+01, 0.0, 5.0000000000, 10.0000000000, 60.0000000000
          97, 0.00000000e+00, 0.00000000e+00, 0.00000000e+00, 0.00000000e+00, 0.00000000e+00, 0.0, -1.50334194e+01, -1.66056948e+01, -1.68755271e+01, -2.00528916e+01, 0.0, 5.0000000000, 10.0000000000, 60.0000000000
          98, 0.00000000e+00, 0.00000000e+00, 0.00000000e+00, 0.00000000e+00, 0.00000000e+00, 0.0, -1.50370241e+01, -1.66098531e+01, -1.68806747e+01, -2.00566401e+01, 0.0, 5.0000000000, 10.0000000000, 60.0000000000
          99, 0.00000000e+00, 0.00000000e+00, 0.00000000e+00, 0.00000000e+00, 0.00000000e+00, 0.0, -1.50401346e+01, -1.66136675e+01, -1.68803612e+01, -2.00825438e+01, 0.0, 5.0000000000, 10.0000000000, 60.0000000000
         100, 0.00000000e+00, 0.00000000e+00, 0.00000000e+00, 0.00000000e+00, 0.00000000e+00, 0.0, -1.50429303e+01, -1.66173206e+01, -1.68761109e+01, -2.01307107e+01, 0.0, 5.0000000000, 10.0000000000, 60.0000000000
         101, 0.00000000e+00, 0.00000000e+00, 0.00000000e+00, 0.00000000e+00, 0.00000000e+00, 0.0, -1.50456142e+01, -1.66209939e+01, -1.68701772e+01, -2.02024942e+01, 0.0, 5.0000000000, 10.0000000000, 60.0000000000
         102, 0.00000000e+00, 0.00000000e+00, 0.00000000e+00, 0.00000000e+00, 0.00000000e+00, 0.0, -1.50483612e+01, -1.66248263e+01, -1.68647179e+01, -2.02994334e+01, 0.0, 5.0000000000, 10.0000000000, 60.0000000000
         103, 0.00000000e+00, 0.00000000e+00, 0.00000000e+00, 0.00000000e+00, 0.00000000e+00, 0.0, -1.50512826e+01, -1.66288893e+01, -1.68613003e+01, -2.04177895e+01, 0.0, 5.0000000000, 10.0000000000, 60.0000000000
         104, 0.00000000e+00, 0.00000000e+00, 0.00000000e+00, 0.00000000e+00, 0.00000000e+00, 0.0, -1.50544114e+01, -1.66331807e+01, -1.68607538e+01, -2.05268515e+01, 0.0, 5.0000000000, 10.0000000000, 60.0000000000
         105, 0.00000000e+00, 0.00000000e+00, 0.00000000e+00, 0.00000000e+00, 0.00000000e+00, 0.0, -1.50577069e+01, -1.66376350e+01, -1.68632165e+01, -2.05508541e+01, 0.0, 5.0000000000, 10.0000000000, 60.0000000000
         106, 0.00000000e+00, 0.00000000e+00, 0.00000000e+00, 0.00000000e+00, 0.00000000e+00, 0.0, -1.50610748e+01, -1.66421462e+01, -1.68682540e+01, -2.04825608e+01, 0.0, 5.0000000000, 10.0000000000, 60.0000000000
         107, 0.00000000e+00, 0.00000000e+00, 0.00000000e+00, 0.00000000e+00, 0.00000000e+00, 0.0, -1.50643973e+01, -1.66465969e+01, -1.68750030e+01, -2.03982189e+01, 0.0, 5.0000000000, 10.0000000000, 60.0000000000
         108, 0.00000000e+00, 0.00000000e+00, 0.00000000e+00, 0.00000000e+00, 0.00000000e+00, 0.0, -1.50675645e+01, -1.66508869e+01, -1.68823458e+01, -2.03334865e+01, 0.0, 5.0000000000, 10.0000000000, 60.0000000000
         109, 0.00000000e+00, 0.00000000e+00, 0.00000000e+00, 0.00000000e+00, 0.00000000e+00, 0.0, -1.50705008e+01, -1.66549552e+01, -1.68891309e+01, -2.02932614e+01, 0.0, 5.0000000000, 10.0000000000, 60.0000000000
         110, 0.00000000e+00, 0.00000000e+00, 0.00000000e+00, 0.00000000e+00, 0.00000000e+00, 0.0, -1.50731807e+01, -1.66587908e+01, -1.68944199e+01, -2.02757435e+01, 0.0, 5.0000000000, 10.0000000000, 60.0000000000
         111, 0.00000000e+00, 0.00000000e+00, 0.00000000e+00, 0.00000000e+00, 0.00000000e+00, 0.0, -1.50756311e+01, -1.66624309e+01, -1.68976993e+01, -2.02787856e+01, 0.0, 5.0000000000, 10.0000000000, 60.0000000000
         112, 0.00000000e+00, 0.00000000e+00, 0.00000000e+00, 0.00000000e+00, 0.00000000e+00, 0.0, -1.50779211e+01, -1.66659483e+01, -1.68989708e+01, -2.03009010e+01, 0.0, 5.0000000000, 10.0000000000, 60.0000000000
         113, 0.00000000e+00, 0.00000000e+00, 0.00000000e+00, 0.00000000e+00, 0.00000000e+00, 0.0, -1.50801432e+01, -1.66694325e+01, -1.68986827e+01, -2.03410607e+01, 0.0, 5.0000000000, 10.0000000000, 60.0000000000
         114, 0.00000000e+00, 0.00000000e+00, 0.00000000e+00, 0.00000000e+00, 0.00000000e+00, 0.0, -1.50823918e+01, -1.66729692e+01, -1.68975382e+01, -2.03978635e+01, 0.0, 5.0000000000, 10.0000000000, 60.0000000000
         115, 0.00000000e+00, 0.00000000e+00, 0.00000000e+00, 0.00000000e+00, 0.00000000e+00, 0.0, -1.50847444e+01, -1.66766236e+01, -1.68962721e+01, -2.04674633e+01, 0.0, 5.0000000000, 10.0000000000, 60.0000000000
         116, 0.00000000e+00, 0.00000000e+00, 0.00000000e+00, 0.00000000e+00, 0.00000000e+00, 0.0, -1.50872482e+01, -1.66804301e+01, -1.68954740e+01, -2.05390648e+01, 0.0, 5.0000000000, 10.0000000000, 60.0000000000
         117, 0.00000000e+00, 0.00000000e+00, 0.00000000e+00, 0.00000000e+00, 0.00000000e+00, 0.0, -1.50899151e+01, -1.66843899e+01, -1.68954910e+01, -2.05903681e+01, 0.0, 5.0000000000, 10.0000000000, 60.0000000000
         118, 0.00000000e+00, 0.00000000e+00, 0.00000000e+00, 0.00000000e+00, 0.00000000e+00, 0.0, -1.50927243e+01, -1.66884748e+01, -1.68964060e+01, -2.05988017e+01, 0.0, 5.0000000000, 10.0000000000, 60.0000000000
         119, 0.00000000e+00, 0.00000000e+00, 0.00000000e+00, 0.00000000e+00, 0.00000000e+00, 0.0, -1.50956305e+01, -1.66926370e+01, -1.68980720e+01, -2.05688197e+01, 0.0, 5.0000000000, 10.0000000000, 60.0000000000
         120, 0.00000000e+00, 0.00000000e+00, 0.00000000e+00, 0.00000000e+00, 0.00000000e+00, 0.0, -1.50985762e+01, -1.66968208e+01, -1.69001829e+01, -2.05253052e+01, 0.0, 5.0000000000, 10.0000000000, 60.0000000000
         121, 0.00000000e+00, 0.00000000e+00, 0.00000000e+00, 0.00000000e+00, 0.00000000e+00, 0.0, -1.51015042e+01, -1.67009746e+01, -1.69023638e+01, -2.04868506e+01, 0.0, 5.0000000000, 10.0000000000, 60.0000000000
         122, 0.00000000e+00, 0.00000000e+00, 0.00000000e+00, 0.00000000e+00, 0.00000000e+00, 0.0, -1.51043679e+01, -1.67050601e+01, -1.69042658e+01, -2.04610447e+01, 0.0, 5.0000000000, 10.0000000000, 60.0000000000
         123, 0.00000000e+00, 0.00000000e+00, 0.00000000e+00, 0.00000000e+00, 0.00000000e+00, 0.0, -1.51071385e+01, -1.67090575e+01, -1.69056458e+01, -2.04497993e+01, 0.0, 5.0000000000, 10.0000000000, 60.0000000000
         124, 0.00000000e+00, 0.00000000e+00, 0.00000000e+00, 0.00000000e+00, 0.00000000e+00, 0.0, -1.51098068e+01, -1.67129653e+01, -1.69064133e+01, -2.04528860e+01, 0.0, 5.0000000000, 10.0000000000, 60.0000000000
         125, 0.00000000e+00, 0.00000000e+00, 0.00000000e+00, 0.00000000e+00, 0.00000000e+00, 0.0, -1.51123804e+01, -1.67167974e+01, -1.69066345e+01, -2.04692173e+01, 0.0, 5.0000000000, 10.0000000000, 60.0000000000
         126, 0.00000000e+00, 0.00000000e+00, 0.00000000e+00, 0.00000000e+00, 0.00000000e+00, 0.0, -1.51148786e+01, -1.67205760e+01, -1.69064970e+01, -2.04969790e+01, 0.0, 5.0000000000, 10.0000000000, 60.0000000000
         127, 0.00000000e+00, 0.00000000e+00, 0.00000000e+00, 0.00000000e+00, 0.00000000e+00, 0.0, -1.51173247e+01, -1.67243248e+01, -1.69062496e+01, -2.05331299e+01, 0.0, 5.0000000000, 10.0000000000, 60.0000000000
         128, 0.00000000e+00, 0.00000000e+00, 0.00000000e+00, 0.00000000e+00, 0.00000000e+00, 0.0, -1.51197397e+01, -1.67280631e+01, -1.69061382e+01, -2.05725329e+01, 0.0, 5.0000000000, 10.0000000000, 60.0000000000
         129, 0.00000000e+00, 0.00000000e+00, 0.00000000e+00, 0.00000000e+00, 0.00000000e+00, 0.0, -1.51221373e+01, -1.67318017e+01, -1.69063526e+01, -2.06074741e+01, 0.0, 5.0000000000, 10.0000000000, 60.0000000000
         130, 0.00000000e+00, 0.00000000e+00, 0.00000000e+00, 0.00000000e+00, 0.00000000e+00, 0.0, -1.51245225e+01, -1.67355419e+01, -1.69069962e+01, -2.06293772e+01, 0.0, 5.0000000000, 10.0000000000, 60.0000000000
         131, 0.00000000e+00, 0.00000000e+00, 0.00000000e+00, 0.00000000e+00, 0.00000000e+00, 0.0, -1.51268914e+01, -1.67392771e+01, -1.69080764e+01, -2.06335767e+01, 0.0, 5.0000000000, 10.0000000000, 60.0000000000
         132, 0.00000000e+00, 0.00000000e+00, 0.00000000e+00, 0.00000000e+00, 0.00000000e+00, 0.0, -1.51292344e+01, -1.67429965e+01, -1.69095167e+01, -2.06228406e+01, 0.0, 5.0000000000, 10.0000000000, 60.0000000000
         133, 0.00000000e+00, 0.00000000e+00, 0.00000000e+00, 0.00000000e+00, 0.00000000e+00, 0.0, -1.51315405e+01, -1.67466891e+01, -1.69111820e+01, -2.06048154e+01, 0.0, 5.0000000000, 10.0000000000, 60.0000000000
         134, 0.00000000e+00, 0.00000000e+00, 0.00000000e+00, 0.00000000e+00, 0.00000000e+00, 0.0, -1.51338007e+01, -1.67503478e+01, -1.69129121e+01, -2.05869199e+01, 0.0, 5.0000000000, 10.0000000000, 60.0000000000
         135, 0.00000000e+00, 0.00000000e+00, 0.00000000e+00, 0.00000000e+00, 0.00000000e+00, 0.0, -1.51360113e+01, -1.67539725e+01, -1.69145557e+01, -2.05739074e+01, 0.0, 5.0000000000, 10.0000000000, 60.0000000000
         136, 0.00000000e+00, 0.00000000e+00, 0.00000000e+00, 0.00000000e+00, 0.00000000e+00, 0.0, -1.51381755e+01, -1.67575702e+01, -1.69159981e+01, -2.05679969e+01, 0.0, 5.0000000000, 10.0000000000, 60.0000000000
         137, 0.00000000e+00, 0.00000000e+00, 0.00000000e+00, 0.00000000e+00, 0.00000000e+00, 0.0, -1.51403033e+01, -1.67611550e+01, -1.69171783e+01, -2.05696651e+01, 0.0, 5.0000000000, 10.0000000000, 60.0000000000