TITLE = "Visualization of the volumetric solution"
VARIABLES = "x","y","Density","Momentum_x","Momentum_y","Energy","Pressure","Temperature","Mach","C<sub>p</sub>","Roe_Dissipation"
ZONE NODES= 874, ELEMENTS= 1628, DATAPACKING=POINT, ZONETYPE=FEQUADRILATERAL
0.000000e+00	-1.190476e+00	1.224743e+00	4.276445e+01	-8.554996e-01	2.539668e+05	1.012880e+05	2.881000e+02	1.026371e-01	-5.220196e-02	0.000000e+00	
6.125519e-02	-1.192712e+00	1.225181e+00	4.281499e+01	-2.553210e+00	2.540711e+05	1.013281e+05	2.881113e+02	1.028816e-01	4.421488e-03	0.000000e+00	
0.000000e+00	-1.130952e+00	1.224615e+00	4.285991e+01	-6.848883e-01	2.539413e+05	1.012765e+05	2.880973e+02	1.028700e-01	-6.844660e-02	0.000000e+00	
7.772084e-02	-1.139189e+00	1.225017e+00	4.284571e+01	-2.950764e+00	2.540422e+05	1.013158e+05	2.881146e+02	1.030294e-01	-1.302800e-02	0.000000e+00	
1.337729e-01	-1.200233e+00	1.225062e+00	4.290180e+01	-3.826186e+00	2.540578e+05	1.013202e+05	2.881168e+02	1.033249e-01	-6.730852e-03	0.000000e+00	
4.924681e-02	-1.086043e+00	1.224889e+00	4.283424e+01	-2.272430e+00	2.540095e+05	1.013034e+05	2.881095e+02	1.029146e-01	-3.050808e-02	0.000000e+00	
0.000000e+00	-1.071429e+00	1.224692e+00	4.291718e+01	-5.190818e-01	2.539554e+05	1.012813e+05	2.880931e+02	1.029961e-01	-6.157306e-02	0.000000e+00	
1.178655e-01	-1.087760e+00	1.225019e+00	4.283753e+01	-3.622936e+00	2.540479e+05	1.013174e+05	2.881187e+02	1.031323e-01	-1.069264e-02	0.000000e+00	
1.558119e-01	-1.143806e+00	1.225047e+00	4.288360e+01	-4.101043e+00	2.540579e+05	1.013202e+05	2.881202e+02	1.033427e-01	-6.802913e-03	0.000000e+00	
1.991378e-01	-1.202461e+00	1.225094e+00	4.288992e+01	-4.510658e+00	2.540701e+05	1.013244e+05	2.881212e+02	1.034518e-01	-8.179491e-04	0.000000e+00	
4.028583e-02	-1.037472e+00	1.224894e+00	4.287590e+01	-1.884246e+00	2.540072e+05	1.013021e+05	2.881046e+02	1.029697e-01	-3.225807e-02	0.000000e+00	
8.814058e-02	-1.034497e+00	1.224965e+00	4.284902e+01	-3.129641e+00	2.540319e+05	1.013114e+05	2.881143e+02	1.030721e-01	-1.917846e-02	0.000000e+00	
0.000000e+00	-1.011905e+00	1.224770e+00	4.289126e+01	-5.071321e-01	2.539708e+05	1.012879e+05	2.880934e+02	1.029270e-01	-5.232630e-02	0.000000e+00	
1.509261e-01	-1.034958e+00	1.225055e+00	4.284273e+01	-4.079876e+00	2.540586e+05	1.013211e+05	2.881207e+02	1.032395e-01	-5.552168e-03	0.000000e+00	
1.845955e-01	-1.089328e+00	1.225078e+00	4.285948e+01	-4.400184e+00	2.540667e+05	1.013236e+05	2.881226e+02	1.033529e-01	-1.954039e-03	0.000000e+00	
2.216875e-01	-1.145461e+00	1.225090e+00	4.288770e+01	-4.662530e+00	2.540715e+05	1.013248e+05	2.881230e+02	1.034852e-01	-3.256634e-04	0.000000e+00	
2.605594e-01	-1.203198e+00	1.225096e+00	4.288230e+01	-4.865209e+00	2.540736e+05	1.013254e+05	2.881234e+02	1.035254e-01	5.482175e-04	0.000000e+00	
5.064252e-02	-9.804358e-01	1.224948e+00	4.287442e+01	-2.227020e+00	2.540212e+05	1.013075e+05	2.881075e+02	1.030006e-01	-2.460954e-02	0.000000e+00	
1.187048e-01	-9.809433e-01	1.225034e+00	4.285077e+01	-3.639649e+00	2.540503e+05	1.013182e+05	2.881175e+02	1.031663e-01	-9.612663e-03	0.000000e+00	
0.000000e+00	-9.523810e-01	1.224762e+00	4.287957e+01	-5.360676e-01	2.539697e+05	1.012876e+05	2.880945e+02	1.029002e-01	-5.274638e-02	0.000000e+00	
1.815403e-01	-9.825609e-01	1.225057e+00	4.285447e+01	-4.386856e+00	2.540615e+05	1.013217e+05	2.881219e+02	1.033395e-01	-4.718059e-03	0.000000e+00	
2.136907e-01	-1.035845e+00	1.225077e+00	4.285407e+01	-4.623293e+00	2.540680e+05	1.013239e+05	2.881236e+02	1.033959e-01	-1.574271e-03	0.000000e+00	
2.474856e-01	-1.090150e+00	1.225087e+00	4.287195e+01	-4.802713e+00	2.540720e+05	1.013250e+05	2.881243e+02	1.034846e-01	-6.483876e-05	0.000000e+00	
2.832427e-01	-1.146057e+00	1.225102e+00	4.288574e+01	-4.945145e+00	2.540761e+05	1.013262e+05	2.881244e+02	1.035548e-01	1.709362e-03	0.000000e+00	
3.203374e-01	-1.203475e+00	1.225107e+00	4.287577e+01	-5.051461e+00	2.540774e+05	1.013267e+05	2.881246e+02	1.035601e-01	2.399741e-03	0.000000e+00	
8.913715e-02	-9.240374e-01	1.224974e+00	4.284184e+01	-3.128737e+00	2.540336e+05	1.013122e+05	2.881146e+02	1.030540e-01	-1.810762e-02	0.000000e+00	
4.409172e-02	-9.215285e-01	1.224811e+00	4.287228e+01	-1.942703e+00	2.539905e+05	1.012955e+05	2.881054e+02	1.029742e-01	-4.164426e-02	0.000000e+00	
1.504155e-01	-9.295213e-01	1.225071e+00	4.285057e+01	-4.072938e+00	2.540616e+05	1.013222e+05	2.881201e+02	1.032554e-01	-3.995608e-03	0.000000e+00	
0.000000e+00	-8.928571e-01	1.224789e+00	4.286770e+01	-6.611081e-01	2.539759e+05	1.012902e+05	2.880955e+02	1.028735e-01	-4.903492e-02	0.000000e+00	
2.116287e-01	-9.313374e-01	1.225071e+00	4.285884e+01	-4.615219e+00	2.540663e+05	1.013231e+05	2.881230e+02	1.034058e-01	-2.618237e-03	0.000000e+00	
2.427455e-01	-9.834769e-01	1.225093e+00	4.285267e+01	-4.788368e+00	2.540725e+05	1.013255e+05	2.881243e+02	1.034343e-01	6.630928e-04	0.000000e+00	
2.746844e-01	-1.036348e+00	1.225095e+00	4.285910e+01	-4.918700e+00	2.540744e+05	1.013259e+05	2.881251e+02	1.034845e-01	1.331930e-03	0.000000e+00	
3.080198e-01	-1.090474e+00	1.225102e+00	4.287344e+01	-5.016196e+00	2.540769e+05	1.013266e+05	2.881253e+02	1.035449e-01	2.234565e-03	0.000000e+00	
3.430232e-01	-1.146254e+00	1.225108e+00	4.288234e+01	-5.093871e+00	2.540786e+05	1.013270e+05	2.881252e+02	1.035875e-01	2.848333e-03	0.000000e+00	
3.794673e-01	-1.203603e+00	1.225109e+00	4.287286e+01	-5.151630e+00	2.540788e+05	1.013271e+05	2.881253e+02	1.035812e-01	3.007306e-03	0.000000e+00	
1.192443e-01	-8.783126e-01	1.225010e+00	4.285863e+01	-3.680160e+00	2.540457e+05	1.013162e+05	2.881175e+02	1.031954e-01	-1.242960e-02	0.000000e+00	
6.211042e-02	-8.747950e-01	1.224941e+00	4.285819e+01	-2.401340e+00	2.540210e+05	1.013075e+05	2.881090e+02	1.029845e-01	-2.461187e-02	0.000000e+00	
1.807153e-01	-8.799036e-01	1.225075e+00	4.285942e+01	-4.378029e+00	2.540652e+05	1.013231e+05	2.881217e+02	1.033477e-01	-2.705062e-03	0.000000e+00	
0.000000e+00	-8.333333e-01	1.224780e+00	4.285990e+01	-7.227961e-01	2.539747e+05	1.012898e+05	2.880966e+02	1.028577e-01	-4.959352e-02	0.000000e+00	
2.413025e-01	-8.807305e-01	1.225087e+00	4.286122e+01	-4.782658e+00	2.540711e+05	1.013248e+05	2.881239e+02	1.034538e-01	-2.834002e-04	0.000000e+00	
2.718915e-01	-9.320399e-01	1.225098e+00	4.285642e+01	-4.910916e+00	2.540745e+05	1.013260e+05	2.881247e+02	1.034758e-01	1.432726e-03	0.000000e+00	
3.027302e-01	-9.838479e-01	1.225097e+00	4.285617e+01	-5.006465e+00	2.540753e+05	1.013262e+05	2.881254e+02	1.035015e-01	1.669673e-03	0.000000e+00	
3.343804e-01	-1.036513e+00	1.225104e+00	4.286210e+01	-5.076716e+00	2.540775e+05	1.013269e+05	2.881258e+02	1.035347e-01	2.649979e-03	0.000000e+00	
3.673922e-01	-1.090546e+00	1.225107e+00	4.287384e+01	-5.130637e+00	2.540788e+05	1.013271e+05	2.881258e+02	1.035777e-01	3.014942e-03	0.000000e+00	
4.020939e-01	-1.146303e+00	1.225112e+00	4.287898e+01	-5.174132e+00	2.540800e+05	1.013275e+05	2.881256e+02	1.036020e-01	3.507416e-03	0.000000e+00	
4.383617e-01	-1.203683e+00	1.225112e+00	4.287072e+01	-5.206337e+00	2.540799e+05	1.013275e+05	2.881257e+02	1.035916e-01	3.528980e-03	0.000000e+00	
1.497484e-01	-8.294679e-01	1.225019e+00	4.287099e+01	-4.074114e+00	2.540513e+05	1.013177e+05	2.881197e+02	1.033088e-01	-1.023255e-02	0.000000e+00	
1.005299e-01	-8.329062e-01	1.225049e+00	4.287007e+01	-3.332686e+00	2.540512e+05	1.013186e+05	2.881152e+02	1.031519e-01	-9.001149e-03	0.000000e+00	
5.710403e-02	-8.046601e-01	1.224926e+00	4.285318e+01	-2.299669e+00	2.540174e+05	1.013063e+05	2.881089e+02	1.029604e-01	-2.642449e-02	0.000000e+00	
2.104427e-01	-8.297387e-01	1.225087e+00	4.285992e+01	-4.605886e+00	2.540696e+05	1.013245e+05	2.881230e+02	1.034047e-01	-7.280163e-04	0.000000e+00	
0.000000e+00	-7.738095e-01	1.224738e+00	4.287059e+01	-6.949509e-01	2.539663e+05	1.012863e+05	2.880963e+02	1.028858e-01	-5.457018e-02	0.000000e+00	
2.708649e-01	-8.301485e-01	1.225092e+00	4.286083e+01	-4.906041e+00	2.540733e+05	1.013255e+05	2.881246e+02	1.034855e-01	6.618926e-04	0.000000e+00	
3.011206e-01	-8.810891e-01	1.225101e+00	4.285927e+01	-5.001649e+00	2.540760e+05	1.013264e+05	2.881251e+02	1.035072e-01	2.034968e-03	0.000000e+00	
3.313459e-01	-9.322566e-01	1.225103e+00	4.285697e+01	-5.073115e+00	2.540769e+05	1.013267e+05	2.881256e+02	1.035216e-01	2.413377e-03	0.000000e+00	
3.619359e-01	-9.839159e-01	1.225107e+00	4.285678e+01	-5.124812e+00	2.540783e+05	1.013272e+05	2.881260e+02	1.035353e-01	3.084392e-03	0.000000e+00	
3.934023e-01	-1.036498e+00	1.225108e+00	4.286364e+01	-5.163479e+00	2.540792e+05	1.013274e+05	2.881262e+02	1.035626e-01	3.372896e-03	0.000000e+00	
4.262807e-01	-1.090512e+00	1.225111e+00	4.287296e+01	-5.193388e+00	2.540801e+05	1.013276e+05	2.881261e+02	1.035932e-01	3.615840e-03	0.000000e+00	
4.609124e-01	-1.146300e+00	1.225113e+00	4.287646e+01	-5.218092e+00	2.540806e+05	1.013277e+05	2.881259e+02	1.036085e-01	3.793584e-03	0.000000e+00	
4.971822e-01	-1.203748e+00	1.225113e+00	4.286940e+01	-5.236323e+00	2.540804e+05	1.013277e+05	2.881259e+02	1.035970e-01	3.764715e-03	0.000000e+00	
1.078093e-01	-7.769395e-01	1.225008e+00	4.286075e+01	-3.491035e+00	2.540442e+05	1.013158e+05	2.881166e+02	1.031629e-01	-1.302201e-02	0.000000e+00	
1.782231e-01	-7.785095e-01	1.225067e+00	4.285782e+01	-4.357042e+00	2.540634e+05	1.013224e+05	2.881217e+02	1.033395e-01	-3.672184e-03	0.000000e+00	
5.725992e-02	-7.479271e-01	1.224951e+00	4.286095e+01	-2.295765e+00	2.540225e+05	1.013082e+05	2.881087e+02	1.029765e-01	-2.367282e-02	0.000000e+00	
2.403188e-01	-7.792474e-01	1.225087e+00	4.285893e+01	-4.774286e+00	2.540711e+05	1.013249e+05	2.881240e+02	1.034460e-01	-2.001446e-04	0.000000e+00	
0.000000e+00	-7.142857e-01	1.224710e+00	4.287728e+01	-7.217228e-01	2.539603e+05	1.012838e+05	2.880961e+02	1.029054e-01	-5.805030e-02	0.000000e+00	
3.004768e-01	-7.795293e-01	1.225100e+00	4.285925e+01	-5.000128e+00	2.540758e+05	1.013263e+05	2.881251e+02	1.035069e-01	1.892795e-03	0.000000e+00	
3.304266e-01	-8.303034e-01	1.225105e+00	4.285962e+01	-5.070096e+00	2.540774e+05	1.013269e+05	2.881255e+02	1.035268e-01	2.638502e-03	0.000000e+00	
3.603027e-01	-8.811583e-01	1.225106e+00	4.285882e+01	-5.122800e+00	2.540780e+05	1.013271e+05	2.881257e+02	1.035397e-01	2.890606e-03	0.000000e+00	
3.902972e-01	-9.322421e-01	1.225108e+00	4.285678e+01	-5.161528e+00	2.540789e+05	1.013274e+05	2.881260e+02	1.035457e-01	3.323234e-03	0.000000e+00	
4.207521e-01	-9.838421e-01	1.225109e+00	4.285814e+01	-5.189946e+00	2.540793e+05	1.013275e+05	2.881263e+02	1.035570e-01	3.495938e-03	0.000000e+00	
4.521477e-01	-1.036404e+00	1.225111e+00	4.286436e+01	-5.211137e+00	2.540802e+05	1.013277e+05	2.881264e+02	1.035778e-01	3.790956e-03	0.000000e+00	
4.850054e-01	-1.090438e+00	1.225112e+00	4.287202e+01	-5.228090e+00	2.540807e+05	1.013278e+05	2.881263e+02	1.036008e-01	3.887435e-03	0.000000e+00	
5.196612e-01	-1.146277e+00	1.225114e+00	4.287433e+01	-5.242356e+00	2.540810e+05	1.013278e+05	2.881261e+02	1.036103e-01	3.992386e-03	0.000000e+00	
5.559885e-01	-1.203804e+00	1.225114e+00	4.286839e+01	-5.252841e+00	2.540807e+05	1.013278e+05	2.881260e+02	1.035993e-01	3.923930e-03	0.000000e+00	
1.493695e-01	-7.268116e-01	1.225076e+00	4.284540e+01	-4.069250e+00	2.540626e+05	1.013226e+05	2.881204e+02	1.032418e-01	-3.313989e-03	0.000000e+00	
2.099994e-01	-7.283609e-01	1.225070e+00	4.285862e+01	-4.603164e+00	2.540661e+05	1.013231e+05	2.881230e+02	1.034023e-01	-2.675014e-03	0.000000e+00	
1.000749e-01	-7.205486e-01	1.224936e+00	4.284688e+01	-3.324579e+00	2.540275e+05	1.013095e+05	2.881156e+02	1.031043e-01	-2.191270e-02	0.000000e+00	
6.210353e-02	-6.805846e-01	1.224956e+00	4.284797e+01	-2.394358e+00	2.540237e+05	1.013088e+05	2.881092e+02	1.029578e-01	-2.283600e-02	0.000000e+00	
2.704441e-01	-7.288067e-01	1.225099e+00	4.285827e+01	-4.905450e+00	2.540746e+05	1.013261e+05	2.881247e+02	1.034787e-01	1.496080e-03	0.000000e+00	
0.000000e+00	-6.547619e-01	1.224696e+00	4.284979e+01	-6.566335e-01	2.539563e+05	1.012826e+05	2.880958e+02	1.028381e-01	-5.979096e-02	0.000000e+00	
3.300413e-01	-7.288806e-01	1.225102e+00	4.286038e+01	-5.069980e+00	2.540768e+05	1.013266e+05	2.881255e+02	1.035289e-01	2.279167e-03	0.000000e+00	
3.597632e-01	-7.795562e-01	1.225106e+00	4.285983e+01	-5.121366e+00	2.540781e+05	1.013271e+05	2.881258e+02	1.035417e-01	2.894855e-03	0.000000e+00	
3.894300e-01	-8.302721e-01	1.225108e+00	4.285968e+01	-5.160079e+00	2.540787e+05	1.013273e+05	2.881259e+02	1.035522e-01	3.198178e-03	0.000000e+00	
4.191199e-01	-8.810784e-01	1.225110e+00	4.285821e+01	-5.188973e+00	2.540794e+05	1.013275e+05	2.881261e+02	1.035568e-01	3.528907e-03	0.000000e+00	
4.490113e-01	-9.321257e-01	1.225111e+00	4.285705e+01	-5.210461e+00	2.540797e+05	1.013276e+05	2.881263e+02	1.035602e-01	3.694223e-03	0.000000e+00	
4.794222e-01	-9.837082e-01	1.225111e+00	4.285884e+01	-5.225934e+00	2.540802e+05	1.013277e+05	2.881265e+02	1.035689e-01	3.873574e-03	0.000000e+00	
5.108160e-01	-1.036276e+00	1.225112e+00	4.286471e+01	-5.237702e+00	2.540807e+05	1.013278e+05	2.881265e+02	1.035862e-01	3.996994e-03	0.000000e+00	
5.437050e-01	-1.090338e+00	1.225113e+00	4.287100e+01	-5.247373e+00	2.540810e+05	1.013279e+05	2.881264e+02	1.036039e-01	4.056867e-03	0.000000e+00	
5.784158e-01	-1.146231e+00	1.225114e+00	4.287267e+01	-5.255767e+00	2.540812e+05	1.013279e+05	2.881262e+02	1.036103e-01	4.080579e-03	0.000000e+00	
6.148064e-01	-1.203843e+00	1.225114e+00	4.286762e+01	-5.261900e+00	2.540809e+05	1.013278e+05	2.881261e+02	1.036001e-01	4.011724e-03	0.000000e+00	
1.795675e-01	-6.781294e-01	1.225058e+00	4.286193e+01	-4.369852e+00	2.540617e+05	1.013216e+05	2.881216e+02	1.033531e-01	-4.732365e-03	0.000000e+00	
1.186510e-01	-6.779649e-01	1.225023e+00	4.286133e+01	-3.670690e+00	2.540483e+05	1.013172e+05	2.881173e+02	1.031988e-01	-1.100519e-02	0.000000e+00	
2.402237e-01	-6.782817e-01	1.225090e+00	4.286073e+01	-4.778618e+00	2.540717e+05	1.013250e+05	2.881239e+02	1.034513e-01	6.341061e-05	0.000000e+00	
4.273980e-02	-6.286916e-01	1.224999e+00	4.282016e+01	-1.921976e+00	2.540287e+05	1.013115e+05	2.881068e+02	1.028310e-01	-1.901353e-02	0.000000e+00	
3.001873e-01	-6.782723e-01	1.225099e+00	4.286219e+01	-5.000063e+00	2.540756e+05	1.013262e+05	2.881251e+02	1.035140e-01	1.717822e-03	0.000000e+00	
8.757344e-02	-6.317087e-01	1.224996e+00	4.288671e+01	-3.098944e+00	2.540383e+05	1.013135e+05	2.881131e+02	1.031546e-01	-1.625393e-02	0.000000e+00	
0.000000e+00	-5.952381e-01	1.224704e+00	4.283911e+01	-4.949401e-01	2.539571e+05	1.012831e+05	2.880953e+02	1.028067e-01	-5.906568e-02	0.000000e+00	
3.890643e-01	-7.288012e-01	1.225109e+00	4.286077e+01	-5.160253e+00	2.540790e+05	1.013273e+05	2.881259e+02	1.035548e-01	3.292906e-03	0.000000e+00	
3.594554e-01	-6.781701e-01	1.225107e+00	4.286237e+01	-5.122356e+00	2.540782e+05	1.013271e+05	2.881257e+02	1.035480e-01	2.951577e-03	0.000000e+00	
4.186159e-01	-7.794575e-01	1.225110e+00	4.286020e+01	-5.188497e+00	2.540794e+05	1.013275e+05	2.881261e+02	1.035615e-01	3.476780e-03	0.000000e+00	
4.481631e-01	-8.301470e-01	1.225111e+00	4.285942e+01	-5.209686e+00	2.540798e+05	1.013276e+05	2.881262e+02	1.035656e-01	3.691240e-03	0.000000e+00	
4.777876e-01	-8.809307e-01	1.225111e+00	4.285806e+01	-5.225730e+00	2.540800e+05	1.013277e+05	2.881263e+02	1.035670e-01	3.804670e-03	0.000000e+00	
5.076593e-01	-9.319619e-01	1.225112e+00	4.285731e+01	-5.237479e+00	2.540803e+05	1.013278e+05	2.881265e+02	1.035685e-01	3.941847e-03	0.000000e+00	
5.380853e-01	-9.835367e-01	1.225112e+00	4.285950e+01	-5.245961e+00	2.540806e+05	1.013279e+05	2.881266e+02	1.035761e-01	4.025933e-03	0.000000e+00	
5.695188e-01	-1.036107e+00	1.225113e+00	4.286477e+01	-5.252491e+00	2.540810e+05	1.013279e+05	2.881265e+02	1.035905e-01	4.124031e-03	0.000000e+00	
6.024616e-01	-1.090187e+00	1.225114e+00	4.287005e+01	-5.258127e+00	2.540812e+05	1.013279e+05	2.881264e+02	1.036047e-01	4.142354e-03	0.000000e+00	
6.372248e-01	-1.146124e+00	1.225115e+00	4.287129e+01	-5.263180e+00	2.540813e+05	1.013279e+05	2.881262e+02	1.036091e-01	4.142367e-03	0.000000e+00	
6.736503e-01	-1.203831e+00	1.225114e+00	4.286700e+01	-5.266851e+00	2.540810e+05	1.013279e+05	2.881262e+02	1.036000e-01	4.068030e-03	0.000000e+00	
1.475798e-01	-6.289709e-01	1.225026e+00	4.288013e+01	-4.043104e+00	2.540524e+05	1.013181e+05	2.881192e+02	1.033232e-01	-9.708464e-03	0.000000e+00	
2.091919e-01	-6.281306e-01	1.225089e+00	4.286630e+01	-4.598970e+00	2.540700e+05	1.013246e+05	2.881228e+02	1.034180e-01	-5.889742e-04	0.000000e+00	
2.699550e-01	-6.277900e-01	1.225093e+00	4.286643e+01	-4.904032e+00	2.540735e+05	1.013255e+05	2.881244e+02	1.034982e-01	6.959992e-04	0.000000e+00	
4.741789e-02	-5.813061e-01	1.224929e+00	4.284770e+01	-2.160899e+00	2.540169e+05	1.013062e+05	2.881081e+02	1.029299e-01	-2.647569e-02	0.000000e+00	
3.296921e-01	-6.275796e-01	1.225105e+00	4.286468e+01	-5.070163e+00	2.540776e+05	1.013269e+05	2.881254e+02	1.035389e-01	2.635301e-03	0.000000e+00	
1.113270e-01	-5.796689e-01	1.225004e+00	4.288600e+01	-3.528927e+00	2.540438e+05	1.013152e+05	2.881161e+02	1.032312e-01	-1.380983e-02	0.000000e+00	
0.000000e+00	-5.357143e-01	1.224725e+00	4.286329e+01	-4.829769e-01	2.539617e+05	1.012846e+05	2.880946e+02	1.028627e-01	-5.692910e-02	0.000000e+00	
4.478028e-01	-7.286571e-01	1.225111e+00	4.286146e+01	-5.209852e+00	2.540798e+05	1.013276e+05	2.881262e+02	1.035705e-01	3.621043e-03	0.000000e+00	
4.183050e-01	-6.780231e-01	1.225110e+00	4.286289e+01	-5.188899e+00	2.540794e+05	1.013274e+05	2.881260e+02	1.035680e-01	3.445986e-03	0.000000e+00	
3.887572e-01	-6.274006e-01	1.225108e+00	4.286471e+01	-5.160340e+00	2.540789e+05	1.013273e+05	2.881258e+02	1.035643e-01	3.202706e-03	0.000000e+00	
4.772920e-01	-7.793014e-01	1.225112e+00	4.286048e+01	-5.225394e+00	2.540801e+05	1.013277e+05	2.881263e+02	1.035726e-01	3.785257e-03	0.000000e+00	
5.068148e-01	-8.299739e-01	1.225112e+00	4.285938e+01	-5.237208e+00	2.540803e+05	1.013278e+05	2.881263e+02	1.035734e-01	3.893070e-03	0.000000e+00	
5.364529e-01	-8.807377e-01	1.225113e+00	4.285798e+01	-5.246071e+00	2.540805e+05	1.013278e+05	2.881264e+02	1.035726e-01	3.991115e-03	0.000000e+00	
5.663726e-01	-9.317461e-01	1.225113e+00	4.285763e+01	-5.252530e+00	2.540806e+05	1.013279e+05	2.881265e+02	1.035736e-01	4.064391e-03	0.000000e+00	
5.968681e-01	-9.832958e-01	1.225113e+00	4.285992e+01	-5.257121e+00	2.540808e+05	1.013279e+05	2.881266e+02	1.035803e-01	4.132078e-03	0.000000e+00	
6.283716e-01	-1.035841e+00	1.225114e+00	4.286468e+01	-5.260778e+00	2.540811e+05	1.013280e+05	2.881266e+02	1.035927e-01	4.184638e-03	0.000000e+00	
6.613607e-01	-1.089904e+00	1.225114e+00	4.286917e+01	-5.264121e+00	2.540813e+05	1.013280e+05	2.881264e+02	1.036043e-01	4.192452e-03	0.000000e+00	
6.961191e-01	-1.145857e+00	1.225115e+00	4.287015e+01	-5.267254e+00	2.540813e+05	1.013280e+05	2.881263e+02	1.036076e-01	4.168938e-03	0.000000e+00	
7.324964e-01	-1.203690e+00	1.225114e+00	4.286649e+01	-5.269536e+00	2.540811e+05	1.013279e+05	2.881262e+02	1.035996e-01	4.106483e-03	0.000000e+00	
1.761715e-01	-5.781454e-01	1.225068e+00	4.287067e+01	-4.334931e+00	2.540637e+05	1.013224e+05	2.881213e+02	1.033647e-01	-3.731996e-03	0.000000e+00	
2.388485e-01	-5.774051e-01	1.225085e+00	4.286839e+01	-4.767672e+00	2.540708e+05	1.013246e+05	2.881237e+02	1.034670e-01	-5.414967e-04	0.000000e+00	
2.995771e-01	-5.770297e-01	1.225102e+00	4.286557e+01	-4.998002e+00	2.540763e+05	1.013265e+05	2.881250e+02	1.035212e-01	2.080584e-03	0.000000e+00	
6.592765e-02	-5.300999e-01	1.224979e+00	4.286554e+01	-2.705049e+00	2.540318e+05	1.013115e+05	2.881114e+02	1.030418e-01	-1.900969e-02	0.000000e+00	
3.590860e-01	-5.767919e-01	1.225106e+00	4.286558e+01	-5.121244e+00	2.540782e+05	1.013270e+05	2.881256e+02	1.035554e-01	2.862693e-03	0.000000e+00	
1.400438e-01	-5.278440e-01	1.225024e+00	4.287193e+01	-3.938143e+00	2.540513e+05	1.013179e+05	2.881190e+02	1.032805e-01	-1.001106e-02	0.000000e+00	
3.296455e-02	-4.762683e-01	1.224879e+00	4.286574e+01	-1.782436e+00	2.540036e+05	1.013009e+05	2.881048e+02	1.029362e-01	-3.401149e-02	0.000000e+00	
5.064470e-01	-7.284785e-01	1.225112e+00	4.286178e+01	-5.237364e+00	2.540804e+05	1.013278e+05	2.881263e+02	1.035791e-01	3.891624e-03	0.000000e+00	
4.769741e-01	-6.778531e-01	1.225112e+00	4.286306e+01	-5.225834e+00	2.540802e+05	1.013277e+05	2.881262e+02	1.035789e-01	3.798341e-03	0.000000e+00	
4.475002e-01	-6.272260e-01	1.225111e+00	4.286442e+01	-5.210054e+00	2.540800e+05	1.013276e+05	2.881261e+02	1.035776e-01	3.694088e-03	0.000000e+00	
4.179945e-01	-5.766002e-01	1.225111e+00	4.286500e+01	-5.188535e+00	2.540797e+05	1.013275e+05	2.881260e+02	1.035728e-01	3.549972e-03	0.000000e+00	
5.359492e-01	-7.791025e-01	1.225113e+00	4.286067e+01	-5.245975e+00	2.540805e+05	1.013278e+05	2.881264e+02	1.035790e-01	3.960903e-03	0.000000e+00	
5.655291e-01	-8.297420e-01	1.225113e+00	4.285935e+01	-5.252511e+00	2.540806e+05	1.013279e+05	2.881264e+02	1.035777e-01	4.030309e-03	0.000000e+00	
5.952748e-01	-8.804585e-01	1.225113e+00	4.285804e+01	-5.257413e+00	2.540807e+05	1.013279e+05	2.881265e+02	1.035760e-01	4.081611e-03	0.000000e+00	
6.253380e-01	-9.314052e-01	1.225113e+00	4.285794e+01	-5.260901e+00	2.540808e+05	1.013279e+05	2.881266e+02	1.035767e-01	4.138052e-03	0.000000e+00	
6.559649e-01	-9.828808e-01	1.225113e+00	4.286023e+01	-5.263370e+00	2.540809e+05	1.013280e+05	2.881266e+02	1.035829e-01	4.183017e-03	0.000000e+00	
6.875261e-01	-1.035344e+00	1.225114e+00	4.286449e+01	-5.265418e+00	2.540812e+05	1.013280e+05	2.881266e+02	1.035936e-01	4.221424e-03	0.000000e+00	
7.204717e-01	-1.089322e+00	1.225114e+00	4.286835e+01	-5.267452e+00	2.540813e+05	1.013280e+05	2.881265e+02	1.036033e-01	4.216394e-03	0.000000e+00	
7.550260e-01	-1.145221e+00	1.225115e+00	4.286921e+01	-5.269465e+00	2.540813e+05	1.013280e+05	2.881263e+02	1.036060e-01	4.198021e-03	0.000000e+00	
7.911598e-01	-1.203221e+00	1.225114e+00	4.286604e+01	-5.270939e+00	2.540811e+05	1.013279e+05	2.881263e+02	1.035989e-01	4.127394e-03	0.000000e+00	
2.063768e-01	-5.269342e-01	1.225082e+00	4.286435e+01	-4.573880e+00	2.540685e+05	1.013240e+05	2.881228e+02	1.034075e-01	-1.342442e-03	0.000000e+00	
2.688695e-01	-5.264689e-01	1.225095e+00	4.286474e+01	-4.898250e+00	2.540739e+05	1.013257e+05	2.881245e+02	1.034925e-01	9.480358e-04	0.000000e+00	
3.291857e-01	-5.261855e-01	1.225104e+00	4.286442e+01	-5.068207e+00	2.540773e+05	1.013268e+05	2.881254e+02	1.035378e-01	2.531133e-03	0.000000e+00	
1.034428e-01	-4.762907e-01	1.224999e+00	4.286429e+01	-3.391643e+00	2.540414e+05	1.013147e+05	2.881158e+02	1.031532e-01	-1.451583e-02	0.000000e+00	
0.000000e+00	-4.761905e-01	1.224725e+00	4.286972e+01	-2.867760e-01	2.539600e+05	1.012839e+05	2.880927e+02	1.028743e-01	-5.796600e-02	0.000000e+00	
3.884149e-01	-5.259755e-01	1.225109e+00	4.286440e+01	-5.159587e+00	2.540791e+05	1.013273e+05	2.881259e+02	1.035633e-01	3.290389e-03	0.000000e+00	
1.728825e-01	-4.760883e-01	1.225066e+00	4.286138e+01	-4.301919e+00	2.540628e+05	1.013222e+05	2.881213e+02	1.033348e-01	-3.962782e-03	0.000000e+00	
6.545482e-02	-4.228226e-01	1.224955e+00	4.285798e+01	-2.686418e+00	2.540265e+05	1.013095e+05	2.881114e+02	1.030229e-01	-2.181544e-02	0.000000e+00	
0.000000e+00	-4.166667e-01	1.224760e+00	4.289225e+01	-4.606111e-01	2.539690e+05	1.012872e+05	2.880936e+02	1.029288e-01	-5.335599e-02	0.000000e+00	
5.651257e-01	-7.282484e-01	1.225113e+00	4.286205e+01	-5.252632e+00	2.540807e+05	1.013278e+05	2.881264e+02	1.035841e-01	4.010922e-03	0.000000e+00	
5.356082e-01	-6.776564e-01	1.225113e+00	4.286324e+01	-5.246223e+00	2.540806e+05	1.013278e+05	2.881263e+02	1.035851e-01	3.959538e-03	0.000000e+00	
5.061330e-01	-6.270438e-01	1.225113e+00	4.286434e+01	-5.237456e+00	2.540805e+05	1.013278e+05	2.881263e+02	1.035852e-01	3.897512e-03	0.000000e+00	
4.766693e-01	-5.764200e-01	1.225112e+00	4.286485e+01	-5.225494e+00	2.540803e+05	1.013277e+05	2.881262e+02	1.035830e-01	3.807598e-03	0.000000e+00	
4.471936e-01	-5.257913e-01	1.225111e+00	4.286435e+01	-5.209456e+00	2.540800e+05	1.013276e+05	2.881261e+02	1.035773e-01	3.695315e-03	0.000000e+00	
5.947337e-01	-7.788131e-01	1.225113e+00	4.286081e+01	-5.257410e+00	2.540807e+05	1.013279e+05	2.881264e+02	1.035826e-01	4.058311e-03	0.000000e+00	
6.245056e-01	-8.293623e-01	1.225113e+00	4.285939e+01	-5.261051e+00	2.540808e+05	1.013279e+05	2.881265e+02	1.035802e-01	4.099282e-03	0.000000e+00	
6.545290e-01	-8.799588e-01	1.225113e+00	4.285816e+01	-5.263731e+00	2.540808e+05	1.013279e+05	2.881265e+02	1.035781e-01	4.137095e-03	0.000000e+00	
6.848829e-01	-9.307646e-01	1.225113e+00	4.285823e+01	-5.265591e+00	2.540809e+05	1.013280e+05	2.881266e+02	1.035788e-01	4.178267e-03	0.000000e+00	
7.156497e-01	-9.820872e-01	1.225114e+00	4.286043e+01	-5.266874e+00	2.540810e+05	1.013280e+05	2.881266e+02	1.035844e-01	4.210900e-03	0.000000e+00	
7.470785e-01	-1.034387e+00	1.225114e+00	4.286423e+01	-5.268023e+00	2.540812e+05	1.013280e+05	2.881266e+02	1.035937e-01	4.238215e-03	0.000000e+00	
7.797762e-01	-1.088161e+00	1.225114e+00	4.286761e+01	-5.269292e+00	2.540813e+05	1.013280e+05	2.881265e+02	1.036021e-01	4.230315e-03	0.000000e+00	
8.134941e-01	-1.143761e+00	1.225115e+00	4.286835e+01	-5.270624e+00	2.540813e+05	1.013280e+05	2.881264e+02	1.036043e-01	4.191607e-03	0.000000e+00	
8.488957e-01	-1.201868e+00	1.225115e+00	4.286577e+01	-5.271693e+00	2.540812e+05	1.013280e+05	2.881263e+02	1.035984e-01	4.177013e-03	0.000000e+00	
2.375247e-01	-4.758091e-01	1.225088e+00	4.286249e+01	-4.759503e+00	2.540712e+05	1.013248e+05	2.881238e+02	1.034506e-01	-2.223525e-04	0.000000e+00	
2.989788e-01	-4.755578e-01	1.225100e+00	4.286277e+01	-4.996250e+00	2.540759e+05	1.013263e+05	2.881251e+02	1.035142e-01	1.892403e-03	0.000000e+00	
3.587163e-01	-4.753470e-01	1.225107e+00	4.286307e+01	-5.120623e+00	2.540783e+05	1.013271e+05	2.881257e+02	1.035492e-01	2.966583e-03	0.000000e+00	
1.394287e-01	-4.248092e-01	1.225057e+00	4.285488e+01	-3.930338e+00	2.540578e+05	1.013208e+05	2.881193e+02	1.032352e-01	-5.959727e-03	0.000000e+00	
4.176831e-01	-4.751603e-01	1.225110e+00	4.286332e+01	-5.188141e+00	2.540796e+05	1.013275e+05	2.881260e+02	1.035688e-01	3.512925e-03	0.000000e+00	
2.058863e-01	-4.250553e-01	1.225073e+00	4.286201e+01	-4.570597e+00	2.540666e+05	1.013233e+05	2.881228e+02	1.034018e-01	-2.417968e-03	0.000000e+00	
4.590816e-02	-3.727387e-01	1.224882e+00	4.285821e+01	-2.117556e+00	2.540066e+05	1.013020e+05	2.881071e+02	1.029540e-01	-3.244432e-02	0.000000e+00	
1.094478e-01	-3.743066e-01	1.225014e+00	4.284583e+01	-3.496804e+00	2.540450e+05	1.013163e+05	2.881168e+02	1.031278e-01	-1.227384e-02	0.000000e+00	
6.239841e-01	-7.278817e-01	1.225114e+00	4.286221e+01	-5.261145e+00	2.540808e+05	1.013279e+05	2.881264e+02	1.035870e-01	4.090949e-03	0.000000e+00	
5.943171e-01	-6.773907e-01	1.225113e+00	4.286332e+01	-5.257584e+00	2.540808e+05	1.013279e+05	2.881264e+02	1.035886e-01	4.065941e-03	0.000000e+00	
5.647715e-01	-6.268323e-01	1.225113e+00	4.286422e+01	-5.252695e+00	2.540808e+05	1.013279e+05	2.881263e+02	1.035893e-01	4.038973e-03	0.000000e+00	
5.352864e-01	-5.762326e-01	1.225113e+00	4.286459e+01	-5.246005e+00	2.540807e+05	1.013278e+05	2.881263e+02	1.035883e-01	4.001600e-03	0.000000e+00	
5.058253e-01	-5.256122e-01	1.225113e+00	4.286422e+01	-5.237053e+00	2.540805e+05	1.013278e+05	2.881263e+02	1.035848e-01	3.935702e-03	0.000000e+00	
4.763669e-01	-4.749830e-01	1.225112e+00	4.286339e+01	-5.225198e+00	2.540803e+05	1.013277e+05	2.881262e+02	1.035795e-01	3.840263e-03	0.000000e+00	
6.538686e-01	-7.782868e-01	1.225114e+00	4.286092e+01	-5.263806e+00	2.540809e+05	1.013279e+05	2.881264e+02	1.035846e-01	4.114796e-03	0.000000e+00	
6.840910e-01	-8.286196e-01	1.225114e+00	4.285946e+01	-5.265822e+00	2.540809e+05	1.013279e+05	2.881265e+02	1.035817e-01	4.140495e-03	0.000000e+00	
7.146897e-01	-8.789660e-01	1.225114e+00	4.285834e+01	-5.267276e+00	2.540809e+05	1.013280e+05	2.881265e+02	1.035795e-01	4.169587e-03	0.000000e+00	
7.455077e-01	-9.295282e-01	1.225114e+00	4.285849e+01	-5.268224e+00	2.540809e+05	1.013280e+05	2.881266e+02	1.035801e-01	4.196994e-03	0.000000e+00	
7.761311e-01	-9.806180e-01	1.225114e+00	4.286056e+01	-5.268857e+00	2.540811e+05	1.013280e+05	2.881266e+02	1.035852e-01	4.228593e-03	0.000000e+00	
8.066892e-01	-1.032705e+00	1.225114e+00	4.286392e+01	-5.269439e+00	2.540812e+05	1.013280e+05	2.881266e+02	1.035934e-01	4.243134e-03	0.000000e+00	
8.396453e-01	-1.086095e+00	1.225114e+00	4.286692e+01	-5.270288e+00	2.540813e+05	1.013280e+05	2.881265e+02	1.036007e-01	4.245098e-03	0.000000e+00	
8.693435e-01	-1.140328e+00	1.225115e+00	4.286774e+01	-5.271214e+00	2.540813e+05	1.013280e+05	2.881264e+02	1.036030e-01	4.218191e-03	0.000000e+00	
9.036029e-01	-1.197767e+00	1.225114e+00	4.286546e+01	-5.271972e+00	2.540811e+05	1.013279e+05	2.881263e+02	1.035978e-01	4.149772e-03	0.000000e+00	
2.684994e-01	-4.249155e-01	1.225098e+00	4.286139e+01	-4.897358e+00	2.540744e+05	1.013259e+05	2.881245e+02	1.034840e-01	1.312674e-03	0.000000e+00	
3.288720e-01	-4.247185e-01	1.225103e+00	4.286247e+01	-5.068043e+00	2.540771e+05	1.013267e+05	2.881254e+02	1.035332e-01	2.426832e-03	0.000000e+00	
3.881167e-01	-4.245297e-01	1.225109e+00	4.286256e+01	-5.159498e+00	2.540790e+05	1.013273e+05	2.881259e+02	1.035588e-01	3.302312e-03	0.000000e+00	
0.000000e+00	-3.571429e-01	1.224716e+00	4.287607e+01	-4.469309e-01	2.539594e+05	1.012835e+05	2.880936e+02	1.028934e-01	-5.847587e-02	0.000000e+00	
1.747082e-01	-3.745773e-01	1.225068e+00	4.285779e+01	-4.320264e+00	2.540633e+05	1.013224e+05	2.881214e+02	1.033304e-01	-3.668495e-03	0.000000e+00	
4.468962e-01	-4.243512e-01	1.225111e+00	4.286280e+01	-5.209430e+00	2.540799e+05	1.013276e+05	2.881261e+02	1.035736e-01	3.695585e-03	0.000000e+00	
2.378722e-01	-3.743837e-01	1.225089e+00	4.286142e+01	-4.763472e+00	2.540714e+05	1.013249e+05	2.881238e+02	1.034490e-01	-1.058040e-04	0.000000e+00	
3.825485e-02	-3.273662e-01	1.224888e+00	4.285174e+01	-1.785836e+00	2.540048e+05	1.013016e+05	2.881045e+02	1.029023e-01	-3.303007e-02	0.000000e+00	
8.282828e-02	-3.262161e-01	1.224969e+00	4.286041e+01	-3.017246e+00	2.540317e+05	1.013113e+05	2.881130e+02	1.030800e-01	-1.934777e-02	0.000000e+00	
1.438113e-01	-3.250824e-01	1.225050e+00	4.286074e+01	-3.997806e+00	2.540568e+05	1.013202e+05	2.881194e+02	1.032647e-01	-6.778485e-03	0.000000e+00	
6.832313e-01	-7.271778e-01	1.225114e+00	4.286232e+01	-5.265885e+00	2.540809e+05	1.013279e+05	2.881264e+02	1.035886e-01	4.132642e-03	0.000000e+00	