TITLE = "SU2 Simulation"
VARIABLES = "Iteration","CL","CD","CSF","CMx","CMy","CMz","CFx","CFy","CFz","CL/CD","AoA","Custom_ObjFunc","Res_Flow[0]","Res_Flow[1]","Res_Flow[2]","Res_Flow[3]","Res_Flow[4]","Linear_Solver_Iterations","CFL_Number","Time(min)"
ZONE T= "Convergence history"
           0, 0.00000000e+00, 0.00000000e+00, 0.00000000e+00, 0.00000000e+00, 0.00000000e+00, 0.00000000e+00, 0.00000000e+00, 0.00000000e+00, 0.00000000e+00, 0.00000000e+00, 0.00000000e+00, 0.00000000e+00, -3.43373958e+00, -8.23975863e-01, -1.23277511e+01, 2.08572544e+00, 0.00000000e+00, 5.0000000000, 5.0000000000, 0.0010436319
           1, 0.00000000e+00, 0.00000000e+00, 0.00000000e+00, 0.00000000e+00, 0.00000000e+00, 0.00000000e+00, 0.00000000e+00, 0.00000000e+00, 0.00000000e+00, 0.00000000e+00, 0.00000000e+00, 0.00000000e+00, -3.37124095e+00, -8.59522979e-01, -3.32716993e+00, 2.08975367e+00, 0.00000000e+00, 5.0000000000, 5.0000000000, 0.0021156727
           2, 0.00000000e+00, 0.00000000e+00, 0.00000000e+00, 0.00000000e+00, 0.00000000e+00, 0.00000000e+00, 0.00000000e+00, 0.00000000e+00, 0.00000000e+00, 0.00000000e+00, 0.00000000e+00, 0.00000000e+00, -3.19772409e+00, -7.08263253e-01, -2.57964836e+00, 2.24852114e+00, 0.00000000e+00, 5.0000000000, 5.0000000000, 0.0035697415
           3, 0.00000000e+00, 0.00000000e+00, 0.00000000e+00, 0.00000000e+00, 0.00000000e+00, 0.00000000e+00, 0.00000000e+00, 0.00000000e+00, 0.00000000e+00, 0.00000000e+00, 0.00000000e+00, 0.00000000e+00, -3.12416437e+00, -6.37146320e-01, -2.21803178e+00, 2.32031849e+00, 0.00000000e+00, 5.0000000000, 5.0000000000, 0.0049376886
           4, 0.00000000e+00, 0.00000000e+00, 0.00000000e+00, 0.00000000e+00, 0.00000000e+00, 0.00000000e+00, 0.00000000e+00, 0.00000000e+00, 0.00000000e+00, 0.00000000e+00, 0.00000000e+00, 0.00000000e+00, -3.09246582e+00, -6.05415430e-01, -2.05549113e+00, 2.35163334e+00, 0.00000000e+00, 5.0000000000, 5.0000000000, 0.0060453486
           5, 0.00000000e+00, 0.00000000e+00, 0.00000000e+00, 0.00000000e+00, 0.00000000e+00, 0.00000000e+00, 0.00000000e+00, 0.00000000e+00, 0.00000000e+00, 0.00000000e+00, 0.00000000e+00, 0.00000000e+00, -3.07760423e+00, -5.90363361e-01, -1.99849220e+00, 2.36635520e+00, 0.00000000e+00, 5.0000000000, 5.0000000000, 0.0070370502
           6, 0.00000000e+00, 0.00000000e+00, 0.00000000e+00, 0.00000000e+00, 0.00000000e+00, 0.00000000e+00, 0.00000000e+00, 0.00000000e+00, 0.00000000e+00, 0.00000000e+00, 0.00000000e+00, 0.00000000e+00, -3.06940014e+00, -5.82400491e-01, -2.00548263e+00, 2.37449673e+00, 0.00000000e+00, 5.0000000000, 5.0000000000, 0.0080432926
           7, 0.00000000e+00, 0.00000000e+00, 0.00000000e+00, 0.00000000e+00, 0.00000000e+00, 0.00000000e+00, 0.00000000e+00, 0.00000000e+00, 0.00000000e+00, 0.00000000e+00, 0.00000000e+00, 0.00000000e+00, -3.06405566e+00, -5.77591313e-01, -2.04589017e+00, 2.37982866e+00, 0.00000000e+00, 5.0000000000, 5.0000000000, 0.0090602229
           8, 0.00000000e+00, 0.00000000e+00, 0.00000000e+00, 0.00000000e+00, 0.00000000e+00, 0.00000000e+00, 0.00000000e+00, 0.00000000e+00, 0.00000000e+00, 0.00000000e+00, 0.00000000e+00, 0.00000000e+00, -3.06031216e+00, -5.74513432e-01, -2.09395904e+00, 2.38360449e+00, 0.00000000e+00, 5.0000000000, 5.0000000000, 0.0100752496
           9, 0.00000000e+00, 0.00000000e+00, 0.00000000e+00, 0.00000000e+00, 0.00000000e+00, 0.00000000e+00, 0.00000000e+00, 0.00000000e+00, 0.00000000e+00, 0.00000000e+00, 0.00000000e+00, 0.00000000e+00, -3.05779977e+00, -5.72937413e-01, -2.13621808e+00, 2.38619573e+00, 0.00000000e+00, 5.0000000000, 5.0000000000, 0.0111003377
          10, 0.00000000e+00, 0.00000000e+00, 0.00000000e+00, 0.00000000e+00, 0.00000000e+00, 0.00000000e+00, 0.00000000e+00, 0.00000000e+00, 0.00000000e+00, 0.00000000e+00, 0.00000000e+00, 0.00000000e+00, -3.05640883e+00, -5.73205364e-01, -2.17268376e+00, 2.38772236e+00, 0.00000000e+00, 5.0000000000, 5.0000000000, 0.0121223606
          11, 0.00000000e+00, 0.00000000e+00, 0.00000000e+00, 0.00000000e+00, 0.00000000e+00, 0.00000000e+00, 0.00000000e+00, 0.00000000e+00, 0.00000000e+00, 0.00000000e+00, 0.00000000e+00, 0.00000000e+00, -3.05603594e+00, -5.75876236e-01, -2.20462766e+00, 2.38830683e+00, 0.00000000e+00, 5.0000000000, 5.0000000000, 0.0131709451
          12, 0.00000000e+00, 0.00000000e+00, 0.00000000e+00, 0.00000000e+00, 0.00000000e+00, 0.00000000e+00, 0.00000000e+00, 0.00000000e+00, 0.00000000e+00, 0.00000000e+00, 0.00000000e+00, 0.00000000e+00, -3.05649490e+00, -5.81441811e-01, -2.22868858e+00, 2.38815442e+00, 0.00000000e+00, 5.0000000000, 5.0000000000, 0.0142151948
          13, 0.00000000e+00, 0.00000000e+00, 0.00000000e+00, 0.00000000e+00, 0.00000000e+00, 0.00000000e+00, 0.00000000e+00, 0.00000000e+00, 0.00000000e+00, 0.00000000e+00, 0.00000000e+00, 0.00000000e+00, -3.05755983e+00, -5.90014417e-01, -2.24330501e+00, 2.38749338e+00, 0.00000000e+00, 5.0000000000, 5.0000000000, 0.0153245137
          14, 0.00000000e+00, 0.00000000e+00, 0.00000000e+00, 0.00000000e+00, 0.00000000e+00, 0.00000000e+00, 0.00000000e+00, 0.00000000e+00, 0.00000000e+00, 0.00000000e+00, 0.00000000e+00, 0.00000000e+00, -3.05909133e+00, -6.00980785e-01, -2.25346727e+00, 2.38643179e+00, 0.00000000e+00, 5.0000000000, 5.0000000000, 0.0163777231
          15, 0.00000000e+00, 0.00000000e+00, 0.00000000e+00, 0.00000000e+00, 0.00000000e+00, 0.00000000e+00, 0.00000000e+00, 0.00000000e+00, 0.00000000e+00, 0.00000000e+00, 0.00000000e+00, 0.00000000e+00, -3.06114360e+00, -6.12733055e-01, -2.26593354e+00, 2.38484529e+00, 0.00000000e+00, 5.0000000000, 5.0000000000, 0.0173909421
          16, 0.00000000e+00, 0.00000000e+00, 0.00000000e+00, 0.00000000e+00, 0.00000000e+00, 0.00000000e+00, 0.00000000e+00, 0.00000000e+00, 0.00000000e+00, 0.00000000e+00, 0.00000000e+00, 0.00000000e+00, -3.06394937e+00, -6.22709002e-01, -2.28264446e+00, 2.38240521e+00, 0.00000000e+00, 5.0000000000, 5.0000000000, 0.0184038745
          17, 0.00000000e+00, 0.00000000e+00, 0.00000000e+00, 0.00000000e+00, 0.00000000e+00, 0.00000000e+00, 0.00000000e+00, 0.00000000e+00, 0.00000000e+00, 0.00000000e+00, 0.00000000e+00, 0.00000000e+00, -3.06777956e+00, -6.28037975e-01, -2.29856018e+00, 2.37874519e+00, 0.00000000e+00, 5.0000000000, 5.0000000000, 0.0194016780
          18, 0.00000000e+00, 0.00000000e+00, 0.00000000e+00, 0.00000000e+00, 0.00000000e+00, 0.00000000e+00, 0.00000000e+00, 0.00000000e+00, 0.00000000e+00, 0.00000000e+00, 0.00000000e+00, 0.00000000e+00, -3.07274934e+00, -6.26750537e-01, -2.30450685e+00, 2.37368285e+00, 0.00000000e+00, 5.0000000000, 5.0000000000, 0.0203887171
          19, 0.00000000e+00, 0.00000000e+00, 0.00000000e+00, 0.00000000e+00, 0.00000000e+00, 0.00000000e+00, 0.00000000e+00, 0.00000000e+00, 0.00000000e+00, 0.00000000e+00, 0.00000000e+00, 0.00000000e+00, -3.07867345e+00, -6.18826776e-01, -2.29477450e+00, 2.36738488e+00, 0.00000000e+00, 5.0000000000, 5.0000000000, 0.0213844166
          20, 0.00000000e+00, 0.00000000e+00, 0.00000000e+00, 0.00000000e+00, 0.00000000e+00, 0.00000000e+00, 0.00000000e+00, 0.00000000e+00, 0.00000000e+00, 0.00000000e+00, 0.00000000e+00, 0.00000000e+00, -3.08503948e+00, -6.06188331e-01, -2.27278554e+00, 2.36040390e+00, 0.00000000e+00, 5.0000000000, 5.0000000000, 0.0223814132
          21, 0.00000000e+00, 0.00000000e+00, 0.00000000e+00, 0.00000000e+00, 0.00000000e+00, 0.00000000e+00, 0.00000000e+00, 0.00000000e+00, 0.00000000e+00, 0.00000000e+00, 0.00000000e+00, 0.00000000e+00, -3.09110622e+00, -5.91674808e-01, -2.24740153e+00, 2.35357885e+00, 0.00000000e+00, 5.0000000000, 5.0000000000, 0.0235259213
          22, 0.00000000e+00, 0.00000000e+00, 0.00000000e+00, 0.00000000e+00, 0.00000000e+00, 0.00000000e+00, 0.00000000e+00, 0.00000000e+00, 0.00000000e+00, 0.00000000e+00, 0.00000000e+00, 0.00000000e+00, -3.09608528e+00, -5.77910618e-01, -2.22606040e+00, 2.34783718e+00, 0.00000000e+00, 5.0000000000, 5.0000000000, 0.0246226443
          23, 0.00000000e+00, 0.00000000e+00, 0.00000000e+00, 0.00000000e+00, 0.00000000e+00, 0.00000000e+00, 0.00000000e+00, 0.00000000e+00, 0.00000000e+00, 0.00000000e+00, 0.00000000e+00, 0.00000000e+00, -3.09934207e+00, -5.66708495e-01, -2.21232577e+00, 2.34396238e+00, 0.00000000e+00, 5.0000000000, 5.0000000000, 0.0259140689
          24, 0.00000000e+00, 0.00000000e+00, 0.00000000e+00, 0.00000000e+00, 0.00000000e+00, 0.00000000e+00, 0.00000000e+00, 0.00000000e+00, 0.00000000e+00, 0.00000000e+00, 0.00000000e+00, 0.00000000e+00, -3.10055640e+00, -5.58986888e-01, -2.20677368e+00, 2.34239392e+00, 0.00000000e+00, 5.0000000000, 5.0000000000, 0.0270536921
          25, 0.00000000e+00, 0.00000000e+00, 0.00000000e+00, 0.00000000e+00, 0.00000000e+00, 0.00000000e+00, 0.00000000e+00, 0.00000000e+00, 0.00000000e+00, 0.00000000e+00, 0.00000000e+00, 0.00000000e+00, -3.09980543e+00, -5.54915617e-01, -2.20845254e+00, 2.34311241e+00, 0.00000000e+00, 5.0000000000, 5.0000000000, 0.0280746096
          26, 0.00000000e+00, 0.00000000e+00, 0.00000000e+00, 0.00000000e+00, 0.00000000e+00, 0.00000000e+00, 0.00000000e+00, 0.00000000e+00, 0.00000000e+00, 0.00000000e+00, 0.00000000e+00, 0.00000000e+00, -3.09755899e+00, -5.54085159e-01, -2.21595887e+00, 2.34563420e+00, 0.00000000e+00, 5.0000000000, 5.0000000000, 0.0291115247
          27, 0.00000000e+00, 0.00000000e+00, 0.00000000e+00, 0.00000000e+00, 0.00000000e+00, 0.00000000e+00, 0.00000000e+00, 0.00000000e+00, 0.00000000e+00, 0.00000000e+00, 0.00000000e+00, 0.00000000e+00, -3.09460041e+00, -5.55631810e-01, -2.22804276e+00, 2.34910529e+00, 0.00000000e+00, 5.0000000000, 5.0000000000, 0.0301487518
          28, 0.00000000e+00, 0.00000000e+00, 0.00000000e+00, 0.00000000e+00, 0.00000000e+00, 0.00000000e+00, 0.00000000e+00, 0.00000000e+00, 0.00000000e+00, 0.00000000e+00, 0.00000000e+00, 0.00000000e+00, -3.09190253e+00, -5.58335554e-01, -2.24378422e+00, 2.35245438e+00, 0.00000000e+00, 5.0000000000, 5.0000000000, 0.0311889788
          29, 0.00000000e+00, 0.00000000e+00, 0.00000000e+00, 0.00000000e+00, 0.00000000e+00, 0.00000000e+00, 0.00000000e+00, 0.00000000e+00, 0.00000000e+00, 0.00000000e+00, 0.00000000e+00, 0.00000000e+00, -3.09049602e+00, -5.60743389e-01, -2.26241280e+00, 2.35455340e+00, 0.00000000e+00, 5.0000000000, 5.0000000000, 0.0322253105
          30, 0.00000000e+00, 0.00000000e+00, 0.00000000e+00, 0.00000000e+00, 0.00000000e+00, 0.00000000e+00, 0.00000000e+00, 0.00000000e+00, 0.00000000e+00, 0.00000000e+00, 0.00000000e+00, 0.00000000e+00, -3.09136069e+00, -5.61369925e-01, -2.28292008e+00, 2.35434509e+00, 0.00000000e+00, 5.0000000000, 5.0000000000, 0.0332337578
          31, 0.00000000e+00, 0.00000000e+00, 0.00000000e+00, 0.00000000e+00, 0.00000000e+00, 0.00000000e+00, 0.00000000e+00, 0.00000000e+00, 0.00000000e+00, 0.00000000e+00, 0.00000000e+00, 0.00000000e+00, -3.09535247e+00, -5.58985123e-01, -2.30367815e+00, 2.35092340e+00, 0.00000000e+00, 5.0000000000, 5.0000000000, 0.0342424437
          32, 0.00000000e+00, 0.00000000e+00, 0.00000000e+00, 0.00000000e+00, 0.00000000e+00, 0.00000000e+00, 0.00000000e+00, 0.00000000e+00, 0.00000000e+00, 0.00000000e+00, 0.00000000e+00, 0.00000000e+00, -3.10315806e+00, -5.52921388e-01, -2.32230729e+00, 2.34357925e+00, 0.00000000e+00, 5.0000000000, 5.0000000000, 0.0352419679
          33, 0.00000000e+00, 0.00000000e+00, 0.00000000e+00, 0.00000000e+00, 0.00000000e+00, 0.00000000e+00, 0.00000000e+00, 0.00000000e+00, 0.00000000e+00, 0.00000000e+00, 0.00000000e+00, 0.00000000e+00, -3.11525288e+00, -5.43269718e-01, -2.33603046e+00, 2.33184133e+00, 0.00000000e+00, 5.0000000000, 5.0000000000, 0.0362513500
          34, 0.00000000e+00, 0.00000000e+00, 0.00000000e+00, 0.00000000e+00, 0.00000000e+00, 0.00000000e+00, 0.00000000e+00, 0.00000000e+00, 0.00000000e+00, 0.00000000e+00, 0.00000000e+00, 0.00000000e+00, -3.13182808e+00, -5.30861534e-01, -2.34257005e+00, 2.31555125e+00, 0.00000000e+00, 5.0000000000, 5.0000000000, 0.0372570777
          35, 0.00000000e+00, 0.00000000e+00, 0.00000000e+00, 0.00000000e+00, 0.00000000e+00, 0.00000000e+00, 0.00000000e+00, 0.00000000e+00, 0.00000000e+00, 0.00000000e+00, 0.00000000e+00, 0.00000000e+00, -3.15264484e+00, -5.17050445e-01, -2.34117088e+00, 2.29501780e+00, 0.00000000e+00, 5.0000000000, 5.0000000000, 0.0382543195
          36, 0.00000000e+00, 0.00000000e+00, 0.00000000e+00, 0.00000000e+00, 0.00000000e+00, 0.00000000e+00, 0.00000000e+00, 0.00000000e+00, 0.00000000e+00, 0.00000000e+00, 0.00000000e+00, 0.00000000e+00, -3.17677414e+00, -5.03414179e-01, -2.33298942e+00, 2.27129285e+00, 0.00000000e+00, 5.0000000000, 5.0000000000, 0.0392578125
          37, 0.00000000e+00, 0.00000000e+00, 0.00000000e+00, 0.00000000e+00, 0.00000000e+00, 0.00000000e+00, 0.00000000e+00, 0.00000000e+00, 0.00000000e+00, 0.00000000e+00, 0.00000000e+00, 0.00000000e+00, -3.20221223e+00, -4.91504217e-01, -2.32053048e+00, 2.24656947e+00, 0.00000000e+00, 5.0000000000, 5.0000000000, 0.0403780724
          38, 0.00000000e+00, 0.00000000e+00, 0.00000000e+00, 0.00000000e+00, 0.00000000e+00, 0.00000000e+00, 0.00000000e+00, 0.00000000e+00, 0.00000000e+00, 0.00000000e+00, 0.00000000e+00, 0.00000000e+00, -3.22550333e+00, -4.82703027e-01, -2.30664682e+00, 2.22453776e+00, 0.00000000e+00, 5.0000000000, 5.0000000000, 0.0416103399
          39, 0.00000000e+00, 0.00000000e+00, 0.00000000e+00, 0.00000000e+00, 0.00000000e+00, 0.00000000e+00, 0.00000000e+00, 0.00000000e+00, 0.00000000e+00, 0.00000000e+00, 0.00000000e+00, 0.00000000e+00, -3.24182901e+00, -4.78181851e-01, -2.29379045e+00, 2.21017942e+00, 0.00000000e+00, 5.0000000000, 5.0000000000, 0.0426671116
          40, 0.00000000e+00, 0.00000000e+00, 0.00000000e+00, 0.00000000e+00, 0.00000000e+00, 0.00000000e+00, 0.00000000e+00, 0.00000000e+00, 0.00000000e+00, 0.00000000e+00, 0.00000000e+00, 0.00000000e+00, -3.24628704e+00, -4.78923932e-01, -2.28373514e+00, 2.20828086e+00, 0.00000000e+00, 5.0000000000, 5.0000000000, 0.0440221909
          41, 0.00000000e+00, 0.00000000e+00, 0.00000000e+00, 0.00000000e+00, 0.00000000e+00, 0.00000000e+00, 0.00000000e+00, 0.00000000e+00, 0.00000000e+00, 0.00000000e+00, 0.00000000e+00, 0.00000000e+00, -3.23632485e+00, -4.85780483e-01, -2.27761058e+00, 2.22092054e+00, 0.00000000e+00, 5.0000000000, 5.0000000000, 0.0455643263
          42, 0.00000000e+00, 0.00000000e+00, 0.00000000e+00, 0.00000000e+00, 0.00000000e+00, 0.00000000e+00, 0.00000000e+00, 0.00000000e+00, 0.00000000e+00, 0.00000000e+00, 0.00000000e+00, 0.00000000e+00, -3.21341873e+00, -4.99539859e-01, -2.27604150e+00, 2.24606616e+00, 0.00000000e+00, 5.0000000000, 5.0000000000, 0.0470271894
          43, 0.00000000e+00, 0.00000000e+00, 0.00000000e+00, 0.00000000e+00, 0.00000000e+00, 0.00000000e+00, 0.00000000e+00, 0.00000000e+00, 0.00000000e+00, 0.00000000e+00, 0.00000000e+00, 0.00000000e+00, -3.18213284e+00, -5.21002375e-01, -2.27928201e+00, 2.27887718e+00, 0.00000000e+00, 5.0000000000, 5.0000000000, 0.0480739033
          44, 0.00000000e+00, 0.00000000e+00, 0.00000000e+00, 0.00000000e+00, 0.00000000e+00, 0.00000000e+00, 0.00000000e+00, 0.00000000e+00, 0.00000000e+00, 0.00000000e+00, 0.00000000e+00, 0.00000000e+00, -3.14764657e+00, -5.51061038e-01, -2.28731518e+00, 2.31422077e+00, 0.00000000e+00, 5.0000000000, 5.0000000000, 0.0490846941
          45, 0.00000000e+00, 0.00000000e+00, 0.00000000e+00, 0.00000000e+00, 0.00000000e+00, 0.00000000e+00, 0.00000000e+00, 0.00000000e+00, 0.00000000e+00, 0.00000000e+00, 0.00000000e+00, 0.00000000e+00, -3.11403081e+00, -5.90792162e-01, -2.29992073e+00, 2.34821475e+00, 0.00000000e+00, 5.0000000000, 5.0000000000, 0.0501323695
          46, 0.00000000e+00, 0.00000000e+00, 0.00000000e+00, 0.00000000e+00, 0.00000000e+00, 0.00000000e+00, 0.00000000e+00, 0.00000000e+00, 0.00000000e+00, 0.00000000e+00, 0.00000000e+00, 0.00000000e+00, -3.08386262e+00, -6.41556792e-01, -2.31671676e+00, 2.37846718e+00, 0.00000000e+00, 5.0000000000, 5.0000000000, 0.0511243067
          47, 0.00000000e+00, 0.00000000e+00, 0.00000000e+00, 0.00000000e+00, 0.00000000e+00, 0.00000000e+00, 0.00000000e+00, 0.00000000e+00, 0.00000000e+00, 0.00000000e+00, 0.00000000e+00, 0.00000000e+00, -3.05853153e+00, -7.05090130e-01, -2.33717051e+00, 2.40372204e+00, 0.00000000e+00, 5.0000000000, 5.0000000000, 0.0522921689
          48, 0.00000000e+00, 0.00000000e+00, 0.00000000e+00, 0.00000000e+00, 0.00000000e+00, 0.00000000e+00, 0.00000000e+00, 0.00000000e+00, 0.00000000e+00, 0.00000000e+00, 0.00000000e+00, 0.00000000e+00, -3.03865811e+00, -7.83449162e-01, -2.36056119e+00, 2.42344388e+00, 0.00000000e+00, 5.0000000000, 5.0000000000, 0.0535514518
          49, 0.00000000e+00, 0.00000000e+00, 0.00000000e+00, 0.00000000e+00, 0.00000000e+00, 0.00000000e+00, 0.00000000e+00, 0.00000000e+00, 0.00000000e+00, 0.00000000e+00, 0.00000000e+00, 0.00000000e+00, -3.02441197e+00, -8.78235189e-01, -2.38587612e+00, 2.43751553e+00, 0.00000000e+00, 5.0000000000, 5.0000000000, 0.0546534172
          50, 0.00000000e+00, 0.00000000e+00, 0.00000000e+00, 0.00000000e+00, 0.00000000e+00, 0.00000000e+00, 0.00000000e+00, 0.00000000e+00, 0.00000000e+00, 0.00000000e+00, 0.00000000e+00, 0.00000000e+00, -3.01571045e+00, -9.86700776e-01, -2.41164489e+00, 2.44605319e+00, 0.00000000e+00, 5.0000000000, 5.0000000000, 0.0557504684
          51, 0.00000000e+00, 0.00000000e+00, 0.00000000e+00, 0.00000000e+00, 0.00000000e+00, 0.00000000e+00, 0.00000000e+00, 0.00000000e+00, 0.00000000e+00, 0.00000000e+00, 0.00000000e+00, 0.00000000e+00, -3.01233137e+00, -1.08778987e+00, -2.43577849e+00, 2.44930304e+00, 0.00000000e+00, 5.0000000000, 5.0000000000, 0.0567906692
          52, 0.00000000e+00, 0.00000000e+00, 0.00000000e+00, 0.00000000e+00, 0.00000000e+00, 0.00000000e+00, 0.00000000e+00, 0.00000000e+00, 0.00000000e+00, 0.00000000e+00, 0.00000000e+00, 0.00000000e+00, -3.01397268e+00, -1.12566041e+00, -2.45558097e+00, 2.44758747e+00, 0.00000000e+00, 5.0000000000, 5.0000000000, 0.0578029231
          53, 0.00000000e+00, 0.00000000e+00, 0.00000000e+00, 0.00000000e+00, 0.00000000e+00, 0.00000000e+00, 0.00000000e+00, 0.00000000e+00, 0.00000000e+00, 0.00000000e+00, 0.00000000e+00, 0.00000000e+00, -3.02028186e+00, -1.07293931e+00, -2.46815324e+00, 2.44127935e+00, 0.00000000e+00, 5.0000000000, 5.0000000000, 0.0588174876
          54, 0.00000000e+00, 0.00000000e+00, 0.00000000e+00, 0.00000000e+00, 0.00000000e+00, 0.00000000e+00, 0.00000000e+00, 0.00000000e+00, 0.00000000e+00, 0.00000000e+00, 0.00000000e+00, 0.00000000e+00, -3.03086886e+00, -9.82568192e-01, -2.47125238e+00, 2.43079114e+00, 0.00000000e+00, 5.0000000000, 5.0000000000, 0.0598765588
          55, 0.00000000e+00, 0.00000000e+00, 0.00000000e+00, 0.00000000e+00, 0.00000000e+00, 0.00000000e+00, 0.00000000e+00, 0.00000000e+00, 0.00000000e+00, 0.00000000e+00, 0.00000000e+00, 0.00000000e+00, -3.04531091e+00, -8.96576925e-01, -2.46425365e+00, 2.41657119e+00, 0.00000000e+00, 5.0000000000, 5.0000000000, 0.0609089006
          56, 0.00000000e+00, 0.00000000e+00, 0.00000000e+00, 0.00000000e+00, 0.00000000e+00, 0.00000000e+00, 0.00000000e+00, 0.00000000e+00, 0.00000000e+00, 0.00000000e+00, 0.00000000e+00, 0.00000000e+00, -3.06315462e+00, -8.25582769e-01, -2.44852040e+00, 2.39910154e+00, 0.00000000e+00, 5.0000000000, 5.0000000000, 0.0619373025
          57, 0.00000000e+00, 0.00000000e+00, 0.00000000e+00, 0.00000000e+00, 0.00000000e+00, 0.00000000e+00, 0.00000000e+00, 0.00000000e+00, 0.00000000e+00, 0.00000000e+00, 0.00000000e+00, 0.00000000e+00, -3.08391989e+00, -7.69394525e-01, -2.42684346e+00, 2.37889283e+00, 0.00000000e+00, 5.0000000000, 5.0000000000, 0.0629468661
          58, 0.00000000e+00, 0.00000000e+00, 0.00000000e+00, 0.00000000e+00, 0.00000000e+00, 0.00000000e+00, 0.00000000e+00, 0.00000000e+00, 0.00000000e+00, 0.00000000e+00, 0.00000000e+00, 0.00000000e+00, -3.10710956e+00, -7.25768443e-01, -2.40241713e+00, 2.35647214e+00, 0.00000000e+00, 5.0000000000, 5.0000000000, 0.0639572663
          59, 0.00000000e+00, 0.00000000e+00, 0.00000000e+00, 0.00000000e+00, 0.00000000e+00, 0.00000000e+00, 0.00000000e+00, 0.00000000e+00, 0.00000000e+00, 0.00000000e+00, 0.00000000e+00, 0.00000000e+00, -3.13222808e+00, -6.92507893e-01, -2.37804668e+00, 2.33236071e+00, 0.00000000e+00, 5.0000000000, 5.0000000000, 0.0652506574
          60, 0.00000000e+00, 0.00000000e+00, 0.00000000e+00, 0.00000000e+00, 0.00000000e+00, 0.00000000e+00, 0.00000000e+00, 0.00000000e+00, 0.00000000e+00, 0.00000000e+00, 0.00000000e+00, 0.00000000e+00, -3.15881076e+00, -6.67817969e-01, -2.35583839e+00, 2.30704043e+00, 0.00000000e+00, 5.0000000000, 5.0000000000, 0.0664116363
          61, 0.00000000e+00, 0.00000000e+00, 0.00000000e+00, 0.00000000e+00, 0.00000000e+00, 0.00000000e+00, 0.00000000e+00, 0.00000000e+00, 0.00000000e+00, 0.00000000e+00, 0.00000000e+00, 0.00000000e+00, -3.18646242e+00, -6.50279803e-01, -2.33723045e+00, 2.28091168e+00, 0.00000000e+00, 5.0000000000, 5.0000000000, 0.0675946917
          62, 0.00000000e+00, 0.00000000e+00, 0.00000000e+00, 0.00000000e+00, 0.00000000e+00, 0.00000000e+00, 0.00000000e+00, 0.00000000e+00, 0.00000000e+00, 0.00000000e+00, 0.00000000e+00, 0.00000000e+00, -3.21490068e+00, -6.38764897e-01, -2.32315411e+00, 2.25424916e+00, 0.00000000e+00, 5.0000000000, 5.0000000000, 0.0686178497
          63, 0.00000000e+00, 0.00000000e+00, 0.00000000e+00, 0.00000000e+00, 0.00000000e+00, 0.00000000e+00, 0.00000000e+00, 0.00000000e+00, 0.00000000e+00, 0.00000000e+00, 0.00000000e+00, 0.00000000e+00, -3.24399487e+00, -6.32357886e-01, -2.31419898e+00, 2.22716579e+00, 0.00000000e+00, 5.0000000000, 5.0000000000, 0.0696325468
          64, 0.00000000e+00, 0.00000000e+00, 0.00000000e+00, 0.00000000e+00, 0.00000000e+00, 0.00000000e+00, 0.00000000e+00, 0.00000000e+00, 0.00000000e+00, 0.00000000e+00, 0.00000000e+00, 0.00000000e+00, -3.27379062e+00, -6.30297476e-01, -2.31073705e+00, 2.19959559e+00, 0.00000000e+00, 5.0000000000, 5.0000000000, 0.0707698709
          65, 0.00000000e+00, 0.00000000e+00, 0.00000000e+00, 0.00000000e+00, 0.00000000e+00, 0.00000000e+00, 0.00000000e+00, 0.00000000e+00, 0.00000000e+00, 0.00000000e+00, 0.00000000e+00, 0.00000000e+00, -3.30451121e+00, -6.31932904e-01, -2.31299866e+00, 2.17130301e+00, 0.00000000e+00, 5.0000000000, 5.0000000000, 0.0719822355
          66, 0.00000000e+00, 0.00000000e+00, 0.00000000e+00, 0.00000000e+00, 0.00000000e+00, 0.00000000e+00, 0.00000000e+00, 0.00000000e+00, 0.00000000e+00, 0.00000000e+00, 0.00000000e+00, 0.00000000e+00, -3.33653057e+00, -6.36691944e-01, -2.32110438e+00, 2.14192122e+00, 0.00000000e+00, 5.0000000000, 5.0000000000, 0.0732986346
          67, 0.00000000e+00, 0.00000000e+00, 0.00000000e+00, 0.00000000e+00, 0.00000000e+00, 0.00000000e+00, 0.00000000e+00, 0.00000000e+00, 0.00000000e+00, 0.00000000e+00, 0.00000000e+00, 0.00000000e+00, -3.37031574e+00, -6.44057603e-01, -2.33505397e+00, 2.11101904e+00, 0.00000000e+00, 5.0000000000, 5.0000000000, 0.0744727848
          68, 0.00000000e+00, 0.00000000e+00, 0.00000000e+00, 0.00000000e+00, 0.00000000e+00, 0.00000000e+00, 0.00000000e+00, 0.00000000e+00, 0.00000000e+00, 0.00000000e+00, 0.00000000e+00, 0.00000000e+00, -3.40633273e+00, -6.53552160e-01, -2.35466602e+00, 2.07819862e+00, 0.00000000e+00, 5.0000000000, 5.0000000000, 0.0754832819
          69, 0.00000000e+00, 0.00000000e+00, 0.00000000e+00, 0.00000000e+00, 0.00000000e+00, 0.00000000e+00, 0.00000000e+00, 0.00000000e+00, 0.00000000e+00, 0.00000000e+00, 0.00000000e+00, 0.00000000e+00, -3.44489693e+00, -6.64728410e-01, -2.37945222e+00, 2.04323745e+00, 0.00000000e+00, 5.0000000000, 5.0000000000, 0.0764688344
          70, 0.00000000e+00, 0.00000000e+00, 0.00000000e+00, 0.00000000e+00, 0.00000000e+00, 0.00000000e+00, 0.00000000e+00, 0.00000000e+00, 0.00000000e+00, 0.00000000e+00, 0.00000000e+00, 0.00000000e+00, -3.48592298e+00, -6.77168777e-01, -2.40840532e+00, 2.00630569e+00, 0.00000000e+00, 5.0000000000, 5.0000000000, 0.0774642964
          71, 0.00000000e+00, 0.00000000e+00, 0.00000000e+00, 0.00000000e+00, 0.00000000e+00, 0.00000000e+00, 0.00000000e+00, 0.00000000e+00, 0.00000000e+00, 0.00000000e+00, 0.00000000e+00, 0.00000000e+00, -3.52849699e+00, -6.90493012e-01, -2.43969981e+00, 1.96830596e+00, 0.00000000e+00, 5.0000000000, 5.0000000000, 0.0784441500
          72, 0.00000000e+00, 0.00000000e+00, 0.00000000e+00, 0.00000000e+00, 0.00000000e+00, 0.00000000e+00, 0.00000000e+00, 0.00000000e+00, 0.00000000e+00, 0.00000000e+00, 0.00000000e+00, 0.00000000e+00, -3.57020122e+00, -7.04374330e-01, -2.47039434e+00, 1.93135844e+00, 0.00000000e+00, 5.0000000000, 5.0000000000, 0.0794550124
          73, 0.00000000e+00, 0.00000000e+00, 0.00000000e+00, 0.00000000e+00, 0.00000000e+00, 0.00000000e+00, 0.00000000e+00, 0.00000000e+00, 0.00000000e+00, 0.00000000e+00, 0.00000000e+00, 0.00000000e+00, -3.60633622e+00, -7.18562082e-01, -2.49643749e+00, 1.89928827e+00, 0.00000000e+00, 5.0000000000, 5.0000000000, 0.0804349319
          74, 0.00000000e+00, 0.00000000e+00, 0.00000000e+00, 0.00000000e+00, 0.00000000e+00, 0.00000000e+00, 0.00000000e+00, 0.00000000e+00, 0.00000000e+00, 0.00000000e+00, 0.00000000e+00, 0.00000000e+00, -3.62989739e+00, -7.32906848e-01, -2.51348371e+00, 1.87753996e+00, 0.00000000e+00, 5.0000000000, 5.0000000000, 0.0814482812
          75, 0.00000000e+00, 0.00000000e+00, 0.00000000e+00, 0.00000000e+00, 0.00000000e+00, 0.00000000e+00, 0.00000000e+00, 0.00000000e+00, 0.00000000e+00, 0.00000000e+00, 0.00000000e+00, 0.00000000e+00, -3.63392445e+00, -7.47382163e-01, -2.51866391e+00, 1.87157275e+00, 0.00000000e+00, 5.0000000000, 5.0000000000, 0.0824407861
          76, 0.00000000e+00, 0.00000000e+00, 0.00000000e+00, 0.00000000e+00, 0.00000000e+00, 0.00000000e+00, 0.00000000e+00, 0.00000000e+00, 0.00000000e+00, 0.00000000e+00, 0.00000000e+00, 0.00000000e+00, -3.61601368e+00, -7.62097027e-01, -2.51222271e+00, 1.88384767e+00, 0.00000000e+00, 5.0000000000, 5.0000000000, 0.0834489891
          77, 0.00000000e+00, 0.00000000e+00, 0.00000000e+00, 0.00000000e+00, 0.00000000e+00, 0.00000000e+00, 0.00000000e+00, 0.00000000e+00, 0.00000000e+00, 0.00000000e+00, 0.00000000e+00, 0.00000000e+00, -3.58037901e+00, -7.77295459e-01, -2.49742076e+00, 1.91202271e+00, 0.00000000e+00, 5.0000000000, 5.0000000000, 0.0845245428
          78, 0.00000000e+00, 0.00000000e+00, 0.00000000e+00, 0.00000000e+00, 0.00000000e+00, 0.00000000e+00, 0.00000000e+00, 0.00000000e+00, 0.00000000e+00, 0.00000000e+00, 0.00000000e+00, 0.00000000e+00, -3.53467081e+00, -7.93343086e-01, -2.47879310e+00, 1.95050949e+00, 0.00000000e+00, 5.0000000000, 5.0000000000, 0.0859824390
          79, 0.00000000e+00, 0.00000000e+00, 0.00000000e+00, 0.00000000e+00, 0.00000000e+00, 0.00000000e+00, 0.00000000e+00, 0.00000000e+00, 0.00000000e+00, 0.00000000e+00, 0.00000000e+00, 0.00000000e+00, -3.48573178e+00, -8.10705109e-01, -2.46043661e+00, 1.99350372e+00, 0.00000000e+00, 5.0000000000, 5.0000000000, 0.0874759505
          80, 0.00000000e+00, 0.00000000e+00, 0.00000000e+00, 0.00000000e+00, 0.00000000e+00, 0.00000000e+00, 0.00000000e+00, 0.00000000e+00, 0.00000000e+00, 0.00000000e+00, 0.00000000e+00, 0.00000000e+00, -3.43797585e+00, -8.29921434e-01, -2.44532501e+00, 2.03672968e+00, 0.00000000e+00, 5.0000000000, 5.0000000000, 0.0886706740
          81, 0.00000000e+00, 0.00000000e+00, 0.00000000e+00, 0.00000000e+00, 0.00000000e+00, 0.00000000e+00, 0.00000000e+00, 0.00000000e+00, 0.00000000e+00, 0.00000000e+00, 0.00000000e+00, 0.00000000e+00, -3.39373508e+00, -8.51579988e-01, -2.43538036e+00, 2.07761318e+00, 0.00000000e+00, 5.0000000000, 5.0000000000, 0.0896848986
          82, 0.00000000e+00, 0.00000000e+00, 0.00000000e+00, 0.00000000e+00, 0.00000000e+00, 0.00000000e+00, 0.00000000e+00, 0.00000000e+00, 0.00000000e+00, 0.00000000e+00, 0.00000000e+00, 0.00000000e+00, -3.35405083e+00, -8.76299648e-01, -2.43178275e+00, 2.11481043e+00, 0.00000000e+00, 5.0000000000, 5.0000000000, 0.0906985057
          83, 0.00000000e+00, 0.00000000e+00, 0.00000000e+00, 0.00000000e+00, 0.00000000e+00, 0.00000000e+00, 0.00000000e+00, 0.00000000e+00, 0.00000000e+00, 0.00000000e+00, 0.00000000e+00, 0.00000000e+00, -3.31927542e+00, -9.04725137e-01, -2.43526246e+00, 2.14771856e+00, 0.00000000e+00, 5.0000000000, 5.0000000000, 0.0917022874
          84, 0.00000000e+00, 0.00000000e+00, 0.00000000e+00, 0.00000000e+00, 0.00000000e+00, 0.00000000e+00, 0.00000000e+00, 0.00000000e+00, 0.00000000e+00, 0.00000000e+00, 0.00000000e+00, 0.00000000e+00, -3.28942277e+00, -9.37530037e-01, -2.44630629e+00, 2.17614136e+00, 0.00000000e+00, 5.0000000000, 5.0000000000, 0.0927072920
          85, 0.00000000e+00, 0.00000000e+00, 0.00000000e+00, 0.00000000e+00, 0.00000000e+00, 0.00000000e+00, 0.00000000e+00, 0.00000000e+00, 0.00000000e+00, 0.00000000e+00, 0.00000000e+00, 0.00000000e+00, -3.26435270e+00, -9.75427123e-01, -2.46527764e+00, 2.20009296e+00, 0.00000000e+00, 5.0000000000, 5.0000000000, 0.0937374818
          86, 0.00000000e+00, 0.00000000e+00, 0.00000000e+00, 0.00000000e+00, 0.00000000e+00, 0.00000000e+00, 0.00000000e+00, 0.00000000e+00, 0.00000000e+00, 0.00000000e+00, 0.00000000e+00, 0.00000000e+00, -3.24386212e+00, -1.01918053e+00, -2.49245862e+00, 2.21969073e+00, 0.00000000e+00, 5.0000000000, 5.0000000000, 0.0947402159
          87, 0.00000000e+00, 0.00000000e+00, 0.00000000e+00, 0.00000000e+00, 0.00000000e+00, 0.00000000e+00, 0.00000000e+00, 0.00000000e+00, 0.00000000e+00, 0.00000000e+00, 0.00000000e+00, 0.00000000e+00, -3.22772772e+00, -1.06960553e+00, -2.52800142e+00, 2.23509981e+00, 0.00000000e+00, 5.0000000000, 5.0000000000, 0.0957378317
          88, 0.00000000e+00, 0.00000000e+00, 0.00000000e+00, 0.00000000e+00, 0.00000000e+00, 0.00000000e+00, 0.00000000e+00, 0.00000000e+00, 0.00000000e+00, 0.00000000e+00, 0.00000000e+00, 0.00000000e+00, -3.21572404e+00, -1.12751834e+00, -2.57173045e+00, 2.24650597e+00, 0.00000000e+00, 5.0000000000, 5.0000000000, 0.0968398953
          89, 0.00000000e+00, 0.00000000e+00, 0.00000000e+00, 0.00000000e+00, 0.00000000e+00, 0.00000000e+00, 0.00000000e+00, 0.00000000e+00, 0.00000000e+00, 0.00000000e+00, 0.00000000e+00, 0.00000000e+00, -3.20762912e+00, -1.19353311e+00, -2.62265694e+00, 2.25410381e+00, 0.00000000e+00, 5.0000000000, 5.0000000000, 0.0978512780