TITLE = "SU2 Simulation"
VARIABLES = "Iteration","CL","CD","CSF","CMx","CMy","CMz","CFx","CFy","CFz","CL/CD","AoA","Custom_ObjFunc","Res_Flow[0]","Res_Flow[1]","Res_Flow[2]","Res_Flow[3]","Res_Flow[4]","Linear_Solver_Iterations","CFL_Number","Time(min)"
ZONE T= "Convergence history"
           0, 0.00000000e+00, 0.00000000e+00, 0.00000000e+00, 0.00000000e+00, 0.00000000e+00, 0.00000000e+00, 0.00000000e+00, 0.00000000e+00, 0.00000000e+00, 0.00000000e+00, 0.00000000e+00, 0.00000000e+00, -1.56881189e+01, 2.35824993e-01, 7.47654532e-01, 1.76768315e+00, 0.00000000e+00, 5.0000000000, 5.0000000000, 0.0010436319
           1, 0.00000000e+00, 0.00000000e+00, 0.00000000e+00, 0.00000000e+00, 0.00000000e+00, 0.00000000e+00, 0.00000000e+00, 0.00000000e+00, 0.00000000e+00, 0.00000000e+00, 0.00000000e+00, 0.00000000e+00, -3.14714716e+00, 1.68031390e-01, 7.15844993e-01, 2.32331540e+00, 0.00000000e+00, 5.0000000000, 5.0000000000, 0.0021156727
           2, 0.00000000e+00, 0.00000000e+00, 0.00000000e+00, 0.00000000e+00, 0.00000000e+00, 0.00000000e+00, 0.00000000e+00, 0.00000000e+00, 0.00000000e+00, 0.00000000e+00, 0.00000000e+00, 0.00000000e+00, -2.97749873e+00, 9.11204107e-02, 6.84232666e-01, 2.48548016e+00, 0.00000000e+00, 5.0000000000, 5.0000000000, 0.0035697415
           3, 0.00000000e+00, 0.00000000e+00, 0.00000000e+00, 0.00000000e+00, 0.00000000e+00, 0.00000000e+00, 0.00000000e+00, 0.00000000e+00, 0.00000000e+00, 0.00000000e+00, 0.00000000e+00, 0.00000000e+00, -2.91177995e+00, 5.65588529e-03, 6.52686564e-01, 2.55005609e+00, 0.00000000e+00, 5.0000000000, 5.0000000000, 0.0049376886
           4, 0.00000000e+00, 0.00000000e+00, 0.00000000e+00, 0.00000000e+00, 0.00000000e+00, 0.00000000e+00, 0.00000000e+00, 0.00000000e+00, 0.00000000e+00, 0.00000000e+00, 0.00000000e+00, 0.00000000e+00, -2.87575466e+00, -9.11546860e-02, 6.21099257e-01, 2.58582274e+00, 0.00000000e+00, 5.0000000000, 5.0000000000, 0.0060453486
           5, 0.00000000e+00, 0.00000000e+00, 0.00000000e+00, 0.00000000e+00, 0.00000000e+00, 0.00000000e+00, 0.00000000e+00, 0.00000000e+00, 0.00000000e+00, 0.00000000e+00, 0.00000000e+00, 0.00000000e+00, -2.85540549e+00, -2.05384500e-01, 5.89459981e-01, 2.60597060e+00, 0.00000000e+00, 5.0000000000, 5.0000000000, 0.0070370502
           6, 0.00000000e+00, 0.00000000e+00, 0.00000000e+00, 0.00000000e+00, 0.00000000e+00, 0.00000000e+00, 0.00000000e+00, 0.00000000e+00, 0.00000000e+00, 0.00000000e+00, 0.00000000e+00, 0.00000000e+00, -2.85166497e+00, -3.45741378e-01, 5.57803676e-01, 2.60946116e+00, 0.00000000e+00, 5.0000000000, 5.0000000000, 0.0080432926
           7, 0.00000000e+00, 0.00000000e+00, 0.00000000e+00, 0.00000000e+00, 0.00000000e+00, 0.00000000e+00, 0.00000000e+00, 0.00000000e+00, 0.00000000e+00, 0.00000000e+00, 0.00000000e+00, 0.00000000e+00, -2.86835193e+00, -5.20780549e-01, 5.26166447e-01, 2.59246935e+00, 0.00000000e+00, 5.0000000000, 5.0000000000, 0.0090602229
           8, 0.00000000e+00, 0.00000000e+00, 0.00000000e+00, 0.00000000e+00, 0.00000000e+00, 0.00000000e+00, 0.00000000e+00, 0.00000000e+00, 0.00000000e+00, 0.00000000e+00, 0.00000000e+00, 0.00000000e+00, -2.90952620e+00, -7.11776282e-01, 4.94575204e-01, 2.55089203e+00, 0.00000000e+00, 5.0000000000, 5.0000000000, 0.0100752496
           9, 0.00000000e+00, 0.00000000e+00, 0.00000000e+00, 0.00000000e+00, 0.00000000e+00, 0.00000000e+00, 0.00000000e+00, 0.00000000e+00, 0.00000000e+00, 0.00000000e+00, 0.00000000e+00, 0.00000000e+00, -2.97973318e+00, -7.78871288e-01, 4.63050020e-01, 2.48009086e+00, 0.00000000e+00, 5.0000000000, 5.0000000000, 0.0111003377
          10, 0.00000000e+00, 0.00000000e+00, 0.00000000e+00, 0.00000000e+00, 0.00000000e+00, 0.00000000e+00, 0.00000000e+00, 0.00000000e+00, 0.00000000e+00, 0.00000000e+00, 0.00000000e+00, 0.00000000e+00, -3.08543550e+00, -6.83222051e-01, 4.31606363e-01, 2.37342201e+00, 0.00000000e+00, 5.0000000000, 5.0000000000, 0.0121223606
          11, 0.00000000e+00, 0.00000000e+00, 0.00000000e+00, 0.00000000e+00, 0.00000000e+00, 0.00000000e+00, 0.00000000e+00, 0.00000000e+00, 0.00000000e+00, 0.00000000e+00, 0.00000000e+00, 0.00000000e+00, -3.23789056e+00, -5.82943428e-01, 4.00255428e-01, 2.21919841e+00, 0.00000000e+00, 5.0000000000, 5.0000000000, 0.0131709451
          12, 0.00000000e+00, 0.00000000e+00, 0.00000000e+00, 0.00000000e+00, 0.00000000e+00, 0.00000000e+00, 0.00000000e+00, 0.00000000e+00, 0.00000000e+00, 0.00000000e+00, 0.00000000e+00, 0.00000000e+00, -3.45595955e+00, -5.15558269e-01, 3.69003849e-01, 1.99736899e+00, 0.00000000e+00, 5.0000000000, 5.0000000000, 0.0142151948
          13, 0.00000000e+00, 0.00000000e+00, 0.00000000e+00, 0.00000000e+00, 0.00000000e+00, 0.00000000e+00, 0.00000000e+00, 0.00000000e+00, 0.00000000e+00, 0.00000000e+00, 0.00000000e+00, 0.00000000e+00, -3.70216193e+00, -4.74432583e-01, 3.37853023e-01, 1.74668092e+00, 0.00000000e+00, 5.0000000000, 5.0000000000, 0.0153245137
          14, 0.00000000e+00, 0.00000000e+00, 0.00000000e+00, 0.00000000e+00, 0.00000000e+00, 0.00000000e+00, 0.00000000e+00, 0.00000000e+00, 0.00000000e+00, 0.00000000e+00, 0.00000000e+00, 0.00000000e+00, -3.63038627e+00, -4.51242210e-01, 3.06796526e-01, 1.82885063e+00, 0.00000000e+00, 5.0000000000, 5.0000000000, 0.0163777231
          15, 0.00000000e+00, 0.00000000e+00, 0.00000000e+00, 0.00000000e+00, 0.00000000e+00, 0.00000000e+00, 0.00000000e+00, 0.00000000e+00, 0.00000000e+00, 0.00000000e+00, 0.00000000e+00, 0.00000000e+00, -3.44680928e+00, -4.40391671e-01, 2.75827315e-01, 2.01458640e+00, 0.00000000e+00, 5.0000000000, 5.0000000000, 0.0173909421
          16, 0.00000000e+00, 0.00000000e+00, 0.00000000e+00, 0.00000000e+00, 0.00000000e+00, 0.00000000e+00, 0.00000000e+00, 0.00000000e+00, 0.00000000e+00, 0.00000000e+00, 0.00000000e+00, 0.00000000e+00, -3.32788236e+00, -4.38562421e-01, 2.44935576e-01, 2.13274887e+00, 0.00000000e+00, 5.0000000000, 5.0000000000, 0.0184038745
          17, 0.00000000e+00, 0.00000000e+00, 0.00000000e+00, 0.00000000e+00, 0.00000000e+00, 0.00000000e+00, 0.00000000e+00, 0.00000000e+00, 0.00000000e+00, 0.00000000e+00, 0.00000000e+00, 0.00000000e+00, -3.25596260e+00, -4.43885959e-01, 2.14103747e-01, 2.20353576e+00, 0.00000000e+00, 5.0000000000, 5.0000000000, 0.0194016780
          18, 0.00000000e+00, 0.00000000e+00, 0.00000000e+00, 0.00000000e+00, 0.00000000e+00, 0.00000000e+00, 0.00000000e+00, 0.00000000e+00, 0.00000000e+00, 0.00000000e+00, 0.00000000e+00, 0.00000000e+00, -3.21441742e+00, -4.55262162e-01, 1.83313007e-01, 2.24391292e+00, 0.00000000e+00, 5.0000000000, 5.0000000000, 0.0203887171
          19, 0.00000000e+00, 0.00000000e+00, 0.00000000e+00, 0.00000000e+00, 0.00000000e+00, 0.00000000e+00, 0.00000000e+00, 0.00000000e+00, 0.00000000e+00, 0.00000000e+00, 0.00000000e+00, 0.00000000e+00, -3.19397902e+00, -4.71907006e-01, 1.52544805e-01, 2.26322359e+00, 0.00000000e+00, 5.0000000000, 5.0000000000, 0.0213844166
          20, 0.00000000e+00, 0.00000000e+00, 0.00000000e+00, 0.00000000e+00, 0.00000000e+00, 0.00000000e+00, 0.00000000e+00, 0.00000000e+00, 0.00000000e+00, 0.00000000e+00, 0.00000000e+00, 0.00000000e+00, -3.18927803e+00, -4.93117757e-01, 1.21782512e-01, 2.26687348e+00, 0.00000000e+00, 5.0000000000, 5.0000000000, 0.0223814132
          21, 0.00000000e+00, 0.00000000e+00, 0.00000000e+00, 0.00000000e+00, 0.00000000e+00, 0.00000000e+00, 0.00000000e+00, 0.00000000e+00, 0.00000000e+00, 0.00000000e+00, 0.00000000e+00, 0.00000000e+00, -3.19694989e+00, -5.18185873e-01, 9.10126235e-02, 2.25825150e+00, 0.00000000e+00, 5.0000000000, 5.0000000000, 0.0235259213
          22, 0.00000000e+00, 0.00000000e+00, 0.00000000e+00, 0.00000000e+00, 0.00000000e+00, 0.00000000e+00, 0.00000000e+00, 0.00000000e+00, 0.00000000e+00, 0.00000000e+00, 0.00000000e+00, 0.00000000e+00, -3.21468861e+00, -5.46388097e-01, 6.02255245e-02, 2.23967882e+00, 0.00000000e+00, 5.0000000000, 5.0000000000, 0.0246226443
          23, 0.00000000e+00, 0.00000000e+00, 0.00000000e+00, 0.00000000e+00, 0.00000000e+00, 0.00000000e+00, 0.00000000e+00, 0.00000000e+00, 0.00000000e+00, 0.00000000e+00, 0.00000000e+00, 0.00000000e+00, -3.24074395e+00, -5.77010964e-01, 2.94153421e-02, 2.21291255e+00, 0.00000000e+00, 5.0000000000, 5.0000000000, 0.0259140689
          24, 0.00000000e+00, 0.00000000e+00, 0.00000000e+00, 0.00000000e+00, 0.00000000e+00, 0.00000000e+00, 0.00000000e+00, 0.00000000e+00, 0.00000000e+00, 0.00000000e+00, 0.00000000e+00, 0.00000000e+00, -3.27363441e+00, -6.09387009e-01, -1.42044909e-03, 2.17943471e+00, 0.00000000e+00, 5.0000000000, 5.0000000000, 0.0270536921
          25, 0.00000000e+00, 0.00000000e+00, 0.00000000e+00, 0.00000000e+00, 0.00000000e+00, 0.00000000e+00, 0.00000000e+00, 0.00000000e+00, 0.00000000e+00, 0.00000000e+00, 0.00000000e+00, 0.00000000e+00, -3.31197486e+00, -6.42932665e-01, -3.22817593e-02, 2.14062782e+00, 0.00000000e+00, 5.0000000000, 5.0000000000, 0.0280746096
          26, 0.00000000e+00, 0.00000000e+00, 0.00000000e+00, 0.00000000e+00, 0.00000000e+00, 0.00000000e+00, 0.00000000e+00, 0.00000000e+00, 0.00000000e+00, 0.00000000e+00, 0.00000000e+00, 0.00000000e+00, -3.35437295e+00, -6.77181069e-01, -6.31666750e-02, 2.09788225e+00, 0.00000000e+00, 5.0000000000, 5.0000000000, 0.0291115247
          27, 0.00000000e+00, 0.00000000e+00, 0.00000000e+00, 0.00000000e+00, 0.00000000e+00, 0.00000000e+00, 0.00000000e+00, 0.00000000e+00, 0.00000000e+00, 0.00000000e+00, 0.00000000e+00, 0.00000000e+00, -3.39937376e+00, -7.11803301e-01, -9.40721647e-02, 2.05265561e+00, 0.00000000e+00, 5.0000000000, 5.0000000000, 0.0301487518
          28, 0.00000000e+00, 0.00000000e+00, 0.00000000e+00, 0.00000000e+00, 0.00000000e+00, 0.00000000e+00, 0.00000000e+00, 0.00000000e+00, 0.00000000e+00, 0.00000000e+00, 0.00000000e+00, 0.00000000e+00, -3.44544413e+00, -7.46613194e-01, -1.24994626e-01, 2.00649206e+00, 0.00000000e+00, 5.0000000000, 5.0000000000, 0.0311889788
          29, 0.00000000e+00, 0.00000000e+00, 0.00000000e+00, 0.00000000e+00, 0.00000000e+00, 0.00000000e+00, 0.00000000e+00, 0.00000000e+00, 0.00000000e+00, 0.00000000e+00, 0.00000000e+00, 0.00000000e+00, -3.49099577e+00, -7.81554322e-01, -1.55930256e-01, 1.96100108e+00, 0.00000000e+00, 5.0000000000, 5.0000000000, 0.0322253105
          30, 0.00000000e+00, 0.00000000e+00, 0.00000000e+00, 0.00000000e+00, 0.00000000e+00, 0.00000000e+00, 0.00000000e+00, 0.00000000e+00, 0.00000000e+00, 0.00000000e+00, 0.00000000e+00, 0.00000000e+00, -3.53445376e+00, -8.16672545e-01, -1.86875301e-01, 1.91778695e+00, 0.00000000e+00, 5.0000000000, 5.0000000000, 0.0332337578
          31, 0.00000000e+00, 0.00000000e+00, 0.00000000e+00, 0.00000000e+00, 0.00000000e+00, 0.00000000e+00, 0.00000000e+00, 0.00000000e+00, 0.00000000e+00, 0.00000000e+00, 0.00000000e+00, 0.00000000e+00, -3.57438019e+00, -8.52081096e-01, -2.17826265e-01, 1.87831628e+00, 0.00000000e+00, 5.0000000000, 5.0000000000, 0.0342424437
          32, 0.00000000e+00, 0.00000000e+00, 0.00000000e+00, 0.00000000e+00, 0.00000000e+00, 0.00000000e+00, 0.00000000e+00, 0.00000000e+00, 0.00000000e+00, 0.00000000e+00, 0.00000000e+00, 0.00000000e+00, -3.60964980e+00, -8.87927018e-01, -2.48780123e-01, 1.84372700e+00, 0.00000000e+00, 5.0000000000, 5.0000000000, 0.0352419679
          33, 0.00000000e+00, 0.00000000e+00, 0.00000000e+00, 0.00000000e+00, 0.00000000e+00, 0.00000000e+00, 0.00000000e+00, 0.00000000e+00, 0.00000000e+00, 0.00000000e+00, 0.00000000e+00, 0.00000000e+00, -3.63963739e+00, -9.24367420e-01, -2.79734565e-01, 1.81462491e+00, 0.00000000e+00, 5.0000000000, 5.0000000000, 0.0362513500
          34, 0.00000000e+00, 0.00000000e+00, 0.00000000e+00, 0.00000000e+00, 0.00000000e+00, 0.00000000e+00, 0.00000000e+00, 0.00000000e+00, 0.00000000e+00, 0.00000000e+00, 0.00000000e+00, 0.00000000e+00, -3.66433656e+00, -9.61561491e-01, -3.10688275e-01, 1.79095928e+00, 0.00000000e+00, 5.0000000000, 5.0000000000, 0.0372570777
          35, 0.00000000e+00, 0.00000000e+00, 0.00000000e+00, 0.00000000e+00, 0.00000000e+00, 0.00000000e+00, 0.00000000e+00, 0.00000000e+00, 0.00000000e+00, 0.00000000e+00, 0.00000000e+00, 0.00000000e+00, -3.68433346e+00, -9.99680126e-01, -3.41641193e-01, 1.77206025e+00, 0.00000000e+00, 5.0000000000, 5.0000000000, 0.0382543195
          36, 0.00000000e+00, 0.00000000e+00, 0.00000000e+00, 0.00000000e+00, 0.00000000e+00, 0.00000000e+00, 0.00000000e+00, 0.00000000e+00, 0.00000000e+00, 0.00000000e+00, 0.00000000e+00, 0.00000000e+00, -3.70062806e+00, -1.03893039e+00, -3.72594720e-01, 1.75684004e+00, 0.00000000e+00, 5.0000000000, 5.0000000000, 0.0392578125
          37, 0.00000000e+00, 0.00000000e+00, 0.00000000e+00, 0.00000000e+00, 0.00000000e+00, 0.00000000e+00, 0.00000000e+00, 0.00000000e+00, 0.00000000e+00, 0.00000000e+00, 0.00000000e+00, 0.00000000e+00, -3.71437846e+00, -1.07958765e+00, -4.03551837e-01, 1.74406970e+00, 0.00000000e+00, 5.0000000000, 5.0000000000, 0.0403780724
          38, 0.00000000e+00, 0.00000000e+00, 0.00000000e+00, 0.00000000e+00, 0.00000000e+00, 0.00000000e+00, 0.00000000e+00, 0.00000000e+00, 0.00000000e+00, 0.00000000e+00, 0.00000000e+00, 0.00000000e+00, -3.72666964e+00, -1.12202637e+00, -4.34517117e-01, 1.73262060e+00, 0.00000000e+00, 5.0000000000, 5.0000000000, 0.0416103399
          39, 0.00000000e+00, 0.00000000e+00, 0.00000000e+00, 0.00000000e+00, 0.00000000e+00, 0.00000000e+00, 0.00000000e+00, 0.00000000e+00, 0.00000000e+00, 0.00000000e+00, 0.00000000e+00, 0.00000000e+00, -3.73836938e+00, -1.16674190e+00, -4.65496650e-01, 1.72160818e+00, 0.00000000e+00, 5.0000000000, 5.0000000000, 0.0426671116
          40, 0.00000000e+00, 0.00000000e+00, 0.00000000e+00, 0.00000000e+00, 0.00000000e+00, 0.00000000e+00, 0.00000000e+00, 0.00000000e+00, 0.00000000e+00, 0.00000000e+00, 0.00000000e+00, 0.00000000e+00, -3.75007754e+00, -1.21436125e+00, -4.96497885e-01, 1.71043674e+00, 0.00000000e+00, 5.0000000000, 5.0000000000, 0.0440221909
          41, 0.00000000e+00, 0.00000000e+00, 0.00000000e+00, 0.00000000e+00, 0.00000000e+00, 0.00000000e+00, 0.00000000e+00, 0.00000000e+00, 0.00000000e+00, 0.00000000e+00, 0.00000000e+00, 0.00000000e+00, -3.76214077e+00, -1.26564661e+00, -5.27529435e-01, 1.69877779e+00, 0.00000000e+00, 5.0000000000, 5.0000000000, 0.0455643263
          42, 0.00000000e+00, 0.00000000e+00, 0.00000000e+00, 0.00000000e+00, 0.00000000e+00, 0.00000000e+00, 0.00000000e+00, 0.00000000e+00, 0.00000000e+00, 0.00000000e+00, 0.00000000e+00, 0.00000000e+00, -3.77469778e+00, -1.32150162e+00, -5.58600857e-01, 1.68651897e+00, 0.00000000e+00, 5.0000000000, 5.0000000000, 0.0470271894
          43, 0.00000000e+00, 0.00000000e+00, 0.00000000e+00, 0.00000000e+00, 0.00000000e+00, 0.00000000e+00, 0.00000000e+00, 0.00000000e+00, 0.00000000e+00, 0.00000000e+00, 0.00000000e+00, 0.00000000e+00, -3.78772745e+00, -1.38299161e+00, -5.89722442e-01, 1.67371154e+00, 0.00000000e+00, 5.0000000000, 5.0000000000, 0.0480739033
          44, 0.00000000e+00, 0.00000000e+00, 0.00000000e+00, 0.00000000e+00, 0.00000000e+00, 0.00000000e+00, 0.00000000e+00, 0.00000000e+00, 0.00000000e+00, 0.00000000e+00, 0.00000000e+00, 0.00000000e+00, -3.80108164e+00, -1.45138228e+00, -6.20905072e-01, 1.66053401e+00, 0.00000000e+00, 5.0000000000, 5.0000000000, 0.0490846941
          45, 0.00000000e+00, 0.00000000e+00, 0.00000000e+00, 0.00000000e+00, 0.00000000e+00, 0.00000000e+00, 0.00000000e+00, 0.00000000e+00, 0.00000000e+00, 0.00000000e+00, 0.00000000e+00, 0.00000000e+00, -3.81449237e+00, -1.52816186e+00, -6.52160171e-01, 1.64728188e+00, 0.00000000e+00, 5.0000000000, 5.0000000000, 0.0501323695
          46, 0.00000000e+00, 0.00000000e+00, 0.00000000e+00, 0.00000000e+00, 0.00000000e+00, 0.00000000e+00, 0.00000000e+00, 0.00000000e+00, 0.00000000e+00, 0.00000000e+00, 0.00000000e+00, 0.00000000e+00, -3.82754753e+00, -1.61484556e+00, -6.83499877e-01, 1.63438933e+00, 0.00000000e+00, 5.0000000000, 5.0000000000, 0.0511243067
          47, 0.00000000e+00, 0.00000000e+00, 0.00000000e+00, 0.00000000e+00, 0.00000000e+00, 0.00000000e+00, 0.00000000e+00, 0.00000000e+00, 0.00000000e+00, 0.00000000e+00, 0.00000000e+00, 0.00000000e+00, -3.83963192e+00, -1.71167817e+00, -7.14937436e-01, 1.62248582e+00, 0.00000000e+00, 5.0000000000, 5.0000000000, 0.0522921689
          48, 0.00000000e+00, 0.00000000e+00, 0.00000000e+00, 0.00000000e+00, 0.00000000e+00, 0.00000000e+00, 0.00000000e+00, 0.00000000e+00, 0.00000000e+00, 0.00000000e+00, 0.00000000e+00, 0.00000000e+00, -3.84983581e+00, -1.81186878e+00, -7.46487937e-01, 1.61248594e+00, 0.00000000e+00, 5.0000000000, 5.0000000000, 0.0535514518
          49, 0.00000000e+00, 0.00000000e+00, 0.00000000e+00, 0.00000000e+00, 0.00000000e+00, 0.00000000e+00, 0.00000000e+00, 0.00000000e+00, 0.00000000e+00, 0.00000000e+00, 0.00000000e+00, 0.00000000e+00, -3.85684989e+00, -1.88461031e+00, -7.78169408e-01, 1.60569343e+00, 0.00000000e+00, 5.0000000000, 5.0000000000, 0.0546534172
          50, 0.00000000e+00, 0.00000000e+00, 0.00000000e+00, 0.00000000e+00, 0.00000000e+00, 0.00000000e+00, 0.00000000e+00, 0.00000000e+00, 0.00000000e+00, 0.00000000e+00, 0.00000000e+00, 0.00000000e+00, -3.85890505e+00, -1.87292610e+00, -8.10004297e-01, 1.60386183e+00, 0.00000000e+00, 5.0000000000, 5.0000000000, 0.0557504684
          51, 0.00000000e+00, 0.00000000e+00, 0.00000000e+00, 0.00000000e+00, 0.00000000e+00, 0.00000000e+00, 0.00000000e+00, 0.00000000e+00, 0.00000000e+00, 0.00000000e+00, 0.00000000e+00, 0.00000000e+00, -3.85387375e+00, -1.77605683e+00, -8.42021395e-01, 1.60909584e+00, 0.00000000e+00, 5.0000000000, 5.0000000000, 0.0567906692
          52, 0.00000000e+00, 0.00000000e+00, 0.00000000e+00, 0.00000000e+00, 0.00000000e+00, 0.00000000e+00, 0.00000000e+00, 0.00000000e+00, 0.00000000e+00, 0.00000000e+00, 0.00000000e+00, 0.00000000e+00, -3.83966830e+00, -1.65075755e+00, -8.74258218e-01, 1.62345979e+00, 0.00000000e+00, 5.0000000000, 5.0000000000, 0.0578029231
          53, 0.00000000e+00, 0.00000000e+00, 0.00000000e+00, 0.00000000e+00, 0.00000000e+00, 0.00000000e+00, 0.00000000e+00, 0.00000000e+00, 0.00000000e+00, 0.00000000e+00, 0.00000000e+00, 0.00000000e+00, -3.81493045e+00, -1.52826011e+00, -9.06763876e-01, 1.64829809e+00, 0.00000000e+00, 5.0000000000, 5.0000000000, 0.0588174876
          54, 0.00000000e+00, 0.00000000e+00, 0.00000000e+00, 0.00000000e+00, 0.00000000e+00, 0.00000000e+00, 0.00000000e+00, 0.00000000e+00, 0.00000000e+00, 0.00000000e+00, 0.00000000e+00, 0.00000000e+00, -3.77969408e+00, -1.41557960e+00, -9.39602443e-01, 1.68357959e+00, 0.00000000e+00, 5.0000000000, 5.0000000000, 0.0598765588
          55, 0.00000000e+00, 0.00000000e+00, 0.00000000e+00, 0.00000000e+00, 0.00000000e+00, 0.00000000e+00, 0.00000000e+00, 0.00000000e+00, 0.00000000e+00, 0.00000000e+00, 0.00000000e+00, 0.00000000e+00, -3.73554409e+00, -1.31266306e+00, -9.72856752e-01, 1.72773661e+00, 0.00000000e+00, 5.0000000000, 5.0000000000, 0.0609089006
          56, 0.00000000e+00, 0.00000000e+00, 0.00000000e+00, 0.00000000e+00, 0.00000000e+00, 0.00000000e+00, 0.00000000e+00, 0.00000000e+00, 0.00000000e+00, 0.00000000e+00, 0.00000000e+00, 0.00000000e+00, -3.68512741e+00, -1.21826027e+00, -1.00663252e+00, 1.77814400e+00, 0.00000000e+00, 5.0000000000, 5.0000000000, 0.0619373025
          57, 0.00000000e+00, 0.00000000e+00, 0.00000000e+00, 0.00000000e+00, 0.00000000e+00, 0.00000000e+00, 0.00000000e+00, 0.00000000e+00, 0.00000000e+00, 0.00000000e+00, 0.00000000e+00, 0.00000000e+00, -3.63138182e+00, -1.13123283e+00, -1.04106271e+00, 1.83188142e+00, 0.00000000e+00, 5.0000000000, 5.0000000000, 0.0629468661
          58, 0.00000000e+00, 0.00000000e+00, 0.00000000e+00, 0.00000000e+00, 0.00000000e+00, 0.00000000e+00, 0.00000000e+00, 0.00000000e+00, 0.00000000e+00, 0.00000000e+00, 0.00000000e+00, 0.00000000e+00, -3.57694093e+00, -1.05073095e+00, -1.07631221e+00, 1.88632549e+00, 0.00000000e+00, 5.0000000000, 5.0000000000, 0.0639572663
          59, 0.00000000e+00, 0.00000000e+00, 0.00000000e+00, 0.00000000e+00, 0.00000000e+00, 0.00000000e+00, 0.00000000e+00, 0.00000000e+00, 0.00000000e+00, 0.00000000e+00, 0.00000000e+00, 0.00000000e+00, -3.52388078e+00, -9.76142153e-01, -1.11258264e+00, 1.93940478e+00, 0.00000000e+00, 5.0000000000, 5.0000000000, 0.0652506574
          60, 0.00000000e+00, 0.00000000e+00, 0.00000000e+00, 0.00000000e+00, 0.00000000e+00, 0.00000000e+00, 0.00000000e+00, 0.00000000e+00, 0.00000000e+00, 0.00000000e+00, 0.00000000e+00, 0.00000000e+00, -3.47372036e+00, -9.07018793e-01, -1.15011721e+00, 1.98960210e+00, 0.00000000e+00, 5.0000000000, 5.0000000000, 0.0664116363
          61, 0.00000000e+00, 0.00000000e+00, 0.00000000e+00, 0.00000000e+00, 0.00000000e+00, 0.00000000e+00, 0.00000000e+00, 0.00000000e+00, 0.00000000e+00, 0.00000000e+00, 0.00000000e+00, 0.00000000e+00, -3.42753363e+00, -8.43023316e-01, -1.18920517e+00, 2.03584441e+00, 0.00000000e+00, 5.0000000000, 5.0000000000, 0.0675946917
          62, 0.00000000e+00, 0.00000000e+00, 0.00000000e+00, 0.00000000e+00, 0.00000000e+00, 0.00000000e+00, 0.00000000e+00, 0.00000000e+00, 0.00000000e+00, 0.00000000e+00, 0.00000000e+00, 0.00000000e+00, -3.38608071e+00, -7.83892369e-01, -1.23018495e+00, 2.07737290e+00, 0.00000000e+00, 5.0000000000, 5.0000000000, 0.0686178497
          63, 0.00000000e+00, 0.00000000e+00, 0.00000000e+00, 0.00000000e+00, 0.00000000e+00, 0.00000000e+00, 0.00000000e+00, 0.00000000e+00, 0.00000000e+00, 0.00000000e+00, 0.00000000e+00, 0.00000000e+00, -3.34992012e+00, -7.29414712e-01, -1.27344435e+00, 2.11363140e+00, 0.00000000e+00, 5.0000000000, 5.0000000000, 0.0696325468
          64, 0.00000000e+00, 0.00000000e+00, 0.00000000e+00, 0.00000000e+00, 0.00000000e+00, 0.00000000e+00, 0.00000000e+00, 0.00000000e+00, 0.00000000e+00, 0.00000000e+00, 0.00000000e+00, 0.00000000e+00, -3.31949469e+00, -6.79418170e-01, -1.31941370e+00, 2.14418087e+00, 0.00000000e+00, 5.0000000000, 5.0000000000, 0.0707698709
          65, 0.00000000e+00, 0.00000000e+00, 0.00000000e+00, 0.00000000e+00, 0.00000000e+00, 0.00000000e+00, 0.00000000e+00, 0.00000000e+00, 0.00000000e+00, 0.00000000e+00, 0.00000000e+00, 0.00000000e+00, -3.29519601e+00, -6.33762299e-01, -1.36854328e+00, 2.16863547e+00, 0.00000000e+00, 5.0000000000, 5.0000000000, 0.0719822355
          66, 0.00000000e+00, 0.00000000e+00, 0.00000000e+00, 0.00000000e+00, 0.00000000e+00, 0.00000000e+00, 0.00000000e+00, 0.00000000e+00, 0.00000000e+00, 0.00000000e+00, 0.00000000e+00, 0.00000000e+00, -3.27741481e+00, -5.92334543e-01, -1.42124609e+00, 2.18661293e+00, 0.00000000e+00, 5.0000000000, 5.0000000000, 0.0732986346
          67, 0.00000000e+00, 0.00000000e+00, 0.00000000e+00, 0.00000000e+00, 0.00000000e+00, 0.00000000e+00, 0.00000000e+00, 0.00000000e+00, 0.00000000e+00, 0.00000000e+00, 0.00000000e+00, 0.00000000e+00, -3.26658487e+00, -5.55048489e-01, -1.47776553e+00, 2.19769179e+00, 0.00000000e+00, 5.0000000000, 5.0000000000, 0.0744727848
          68, 0.00000000e+00, 0.00000000e+00, 0.00000000e+00, 0.00000000e+00, 0.00000000e+00, 0.00000000e+00, 0.00000000e+00, 0.00000000e+00, 0.00000000e+00, 0.00000000e+00, 0.00000000e+00, 0.00000000e+00, -3.26322784e+00, -5.21843369e-01, -1.53788526e+00, 2.20136873e+00, 0.00000000e+00, 5.0000000000, 5.0000000000, 0.0754832819
          69, 0.00000000e+00, 0.00000000e+00, 0.00000000e+00, 0.00000000e+00, 0.00000000e+00, 0.00000000e+00, 0.00000000e+00, 0.00000000e+00, 0.00000000e+00, 0.00000000e+00, 0.00000000e+00, 0.00000000e+00, -3.26800684e+00, -4.92684321e-01, -1.60033274e+00, 2.19700850e+00, 0.00000000e+00, 5.0000000000, 5.0000000000, 0.0764688344
          70, 0.00000000e+00, 0.00000000e+00, 0.00000000e+00, 0.00000000e+00, 0.00000000e+00, 0.00000000e+00, 0.00000000e+00, 0.00000000e+00, 0.00000000e+00, 0.00000000e+00, 0.00000000e+00, 0.00000000e+00, -3.28179977e+00, -4.67563097e-01, -1.66170610e+00, 2.18377724e+00, 0.00000000e+00, 5.0000000000, 5.0000000000, 0.0774642964
          71, 0.00000000e+00, 0.00000000e+00, 0.00000000e+00, 0.00000000e+00, 0.00000000e+00, 0.00000000e+00, 0.00000000e+00, 0.00000000e+00, 0.00000000e+00, 0.00000000e+00, 0.00000000e+00, 0.00000000e+00, -3.30580883e+00, -4.46499123e-01, -1.71513641e+00, 2.16054582e+00, 0.00000000e+00, 5.0000000000, 5.0000000000, 0.0784441500
          72, 0.00000000e+00, 0.00000000e+00, 0.00000000e+00, 0.00000000e+00, 0.00000000e+00, 0.00000000e+00, 0.00000000e+00, 0.00000000e+00, 0.00000000e+00, 0.00000000e+00, 0.00000000e+00, 0.00000000e+00, -3.34173506e+00, -4.29540901e-01, -1.75043380e+00, 2.12574172e+00, 0.00000000e+00, 5.0000000000, 5.0000000000, 0.0794550124
          73, 0.00000000e+00, 0.00000000e+00, 0.00000000e+00, 0.00000000e+00, 0.00000000e+00, 0.00000000e+00, 0.00000000e+00, 0.00000000e+00, 0.00000000e+00, 0.00000000e+00, 0.00000000e+00, 0.00000000e+00, -3.39206910e+00, -4.16767925e-01, -1.75890523e+00, 2.07711742e+00, 0.00000000e+00, 5.0000000000, 5.0000000000, 0.0804349319
          74, 0.00000000e+00, 0.00000000e+00, 0.00000000e+00, 0.00000000e+00, 0.00000000e+00, 0.00000000e+00, 0.00000000e+00, 0.00000000e+00, 0.00000000e+00, 0.00000000e+00, 0.00000000e+00, 0.00000000e+00, -3.46058460e+00, -4.08293373e-01, -1.74069974e+00, 2.01140227e+00, 0.00000000e+00, 5.0000000000, 5.0000000000, 0.0814482812
          75, 0.00000000e+00, 0.00000000e+00, 0.00000000e+00, 0.00000000e+00, 0.00000000e+00, 0.00000000e+00, 0.00000000e+00, 0.00000000e+00, 0.00000000e+00, 0.00000000e+00, 0.00000000e+00, 0.00000000e+00, -3.55310909e+00, -4.04268033e-01, -1.70481610e+00, 1.92392487e+00, 0.00000000e+00, 5.0000000000, 5.0000000000, 0.0824407861
          76, 0.00000000e+00, 0.00000000e+00, 0.00000000e+00, 0.00000000e+00, 0.00000000e+00, 0.00000000e+00, 0.00000000e+00, 0.00000000e+00, 0.00000000e+00, 0.00000000e+00, 0.00000000e+00, 0.00000000e+00, -3.67792323e+00, -4.04886066e-01, -1.66176012e+00, 1.80932258e+00, 0.00000000e+00, 5.0000000000, 5.0000000000, 0.0834489891
          77, 0.00000000e+00, 0.00000000e+00, 0.00000000e+00, 0.00000000e+00, 0.00000000e+00, 0.00000000e+00, 0.00000000e+00, 0.00000000e+00, 0.00000000e+00, 0.00000000e+00, 0.00000000e+00, 0.00000000e+00, -3.83711584e+00, -4.10393527e-01, -1.61871826e+00, 1.67179620e+00, 0.00000000e+00, 5.0000000000, 5.0000000000, 0.0845245428
          78, 0.00000000e+00, 0.00000000e+00, 0.00000000e+00, 0.00000000e+00, 0.00000000e+00, 0.00000000e+00, 0.00000000e+00, 0.00000000e+00, 0.00000000e+00, 0.00000000e+00, 0.00000000e+00, 0.00000000e+00, -3.95029839e+00, -4.21100847e-01, -1.57940561e+00, 1.57995034e+00, 0.00000000e+00, 5.0000000000, 5.0000000000, 0.0859824390
          79, 0.00000000e+00, 0.00000000e+00, 0.00000000e+00, 0.00000000e+00, 0.00000000e+00, 0.00000000e+00, 0.00000000e+00, 0.00000000e+00, 0.00000000e+00, 0.00000000e+00, 0.00000000e+00, 0.00000000e+00, -3.85107765e+00, -4.37400547e-01, -1.54540257e+00, 1.65139879e+00, 0.00000000e+00, 5.0000000000, 5.0000000000, 0.0874759505
          80, 0.00000000e+00, 0.00000000e+00, 0.00000000e+00, 0.00000000e+00, 0.00000000e+00, 0.00000000e+00, 0.00000000e+00, 0.00000000e+00, 0.00000000e+00, 0.00000000e+00, 0.00000000e+00, 0.00000000e+00, -3.68327480e+00, -4.59793057e-01, -1.51722914e+00, 1.79531726e+00, 0.00000000e+00, 5.0000000000, 5.0000000000, 0.0886706740
          81, 0.00000000e+00, 0.00000000e+00, 0.00000000e+00, 0.00000000e+00, 0.00000000e+00, 0.00000000e+00, 0.00000000e+00, 0.00000000e+00, 0.00000000e+00, 0.00000000e+00, 0.00000000e+00, 0.00000000e+00, -3.54748256e+00, -4.88928636e-01, -1.49493941e+00, 1.92174511e+00, 0.00000000e+00, 5.0000000000, 5.0000000000, 0.0896848986
          82, 0.00000000e+00, 0.00000000e+00, 0.00000000e+00, 0.00000000e+00, 0.00000000e+00, 0.00000000e+00, 0.00000000e+00, 0.00000000e+00, 0.00000000e+00, 0.00000000e+00, 0.00000000e+00, 0.00000000e+00, -3.44496336e+00, -5.25668194e-01, -1.47841444e+00, 2.02042507e+00, 0.00000000e+00, 5.0000000000, 5.0000000000, 0.0906985057
          83, 0.00000000e+00, 0.00000000e+00, 0.00000000e+00, 0.00000000e+00, 0.00000000e+00, 0.00000000e+00, 0.00000000e+00, 0.00000000e+00, 0.00000000e+00, 0.00000000e+00, 0.00000000e+00, 0.00000000e+00, -3.36726985e+00, -5.71175901e-01, -1.46749800e+00, 2.09634434e+00, 0.00000000e+00, 5.0000000000, 5.0000000000, 0.0917022874
          84, 0.00000000e+00, 0.00000000e+00, 0.00000000e+00, 0.00000000e+00, 0.00000000e+00, 0.00000000e+00, 0.00000000e+00, 0.00000000e+00, 0.00000000e+00, 0.00000000e+00, 0.00000000e+00, 0.00000000e+00, -3.30825718e+00, -6.27065929e-01, -1.46205694e+00, 2.15446165e+00, 0.00000000e+00, 5.0000000000, 5.0000000000, 0.0927072920
          85, 0.00000000e+00, 0.00000000e+00, 0.00000000e+00, 0.00000000e+00, 0.00000000e+00, 0.00000000e+00, 0.00000000e+00, 0.00000000e+00, 0.00000000e+00, 0.00000000e+00, 0.00000000e+00, 0.00000000e+00, -3.26394740e+00, -6.95632572e-01, -1.46200899e+00, 2.19829816e+00, 0.00000000e+00, 5.0000000000, 5.0000000000, 0.0937374818
          86, 0.00000000e+00, 0.00000000e+00, 0.00000000e+00, 0.00000000e+00, 0.00000000e+00, 0.00000000e+00, 0.00000000e+00, 0.00000000e+00, 0.00000000e+00, 0.00000000e+00, 0.00000000e+00, 0.00000000e+00, -3.23173526e+00, -7.80187486e-01, -1.46733705e+00, 2.23026127e+00, 0.00000000e+00, 5.0000000000, 5.0000000000, 0.0947402159
          87, 0.00000000e+00, 0.00000000e+00, 0.00000000e+00, 0.00000000e+00, 0.00000000e+00, 0.00000000e+00, 0.00000000e+00, 0.00000000e+00, 0.00000000e+00, 0.00000000e+00, 0.00000000e+00, 0.00000000e+00, -3.20986619e+00, -8.85370834e-01, -1.47809940e+00, 2.25201144e+00, 0.00000000e+00, 5.0000000000, 5.0000000000, 0.0957378317
          88, 0.00000000e+00, 0.00000000e+00, 0.00000000e+00, 0.00000000e+00, 0.00000000e+00, 0.00000000e+00, 0.00000000e+00, 0.00000000e+00, 0.00000000e+00, 0.00000000e+00, 0.00000000e+00, 0.00000000e+00, -3.19713048e+00, -1.01606674e+00, -1.49444149e+00, 2.26471065e+00, 0.00000000e+00, 5.0000000000, 5.0000000000, 0.0968398953
          89, 0.00000000e+00, 0.00000000e+00, 0.00000000e+00, 0.00000000e+00, 0.00000000e+00, 0.00000000e+00, 0.00000000e+00, 0.00000000e+00, 0.00000000e+00, 0.00000000e+00, 0.00000000e+00, 0.00000000e+00, -3.19268345e+00, -1.16524228e+00, -1.51661207e+00, 2.26917849e+00, 0.00000000e+00, 5.0000000000, 5.0000000000, 0.0978512780