TITLE = "SU2 Simulation"
VARIABLES = "Iteration","CL","CD","CSF","CMx","CMy","CMz","CFx","CFy","CFz","CL/CD","AoA","Custom_ObjFunc","Res_Flow[0]","Res_Flow[1]","Res_Flow[2]","Res_Flow[3]","Res_Flow[4]","Linear_Solver_Iterations","CFL_Number","Time(min)"
ZONE T= "Convergence history"
           0, 0.00000000e+00, 0.00000000e+00, 0.00000000e+00, 0.00000000e+00, 0.00000000e+00, 0.00000000e+00, 0.00000000e+00, 0.00000000e+00, 0.00000000e+00, 0.00000000e+00, 0.00000000e+00, 0.00000000e+00, -4.12760353e+00, -1.64149674e+00, -1.23497140e+01, 1.31723146e+00, 0.00000000e+00, 5.0000000000, 5.0000000000, 0.0010436319
           1, 0.00000000e+00, 0.00000000e+00, 0.00000000e+00, 0.00000000e+00, 0.00000000e+00, 0.00000000e+00, 0.00000000e+00, 0.00000000e+00, 0.00000000e+00, 0.00000000e+00, 0.00000000e+00, 0.00000000e+00, -3.30547396e+00, -7.33008652e-01, -1.08458504e+00, 2.17359997e+00, 0.00000000e+00, 5.0000000000, 5.0000000000, 0.0021156727
           2, 0.00000000e+00, 0.00000000e+00, 0.00000000e+00, 0.00000000e+00, 0.00000000e+00, 0.00000000e+00, 0.00000000e+00, 0.00000000e+00, 0.00000000e+00, 0.00000000e+00, 0.00000000e+00, 0.00000000e+00, -3.12732369e+00, -5.55139853e-01, -8.12015329e-01, 2.35170386e+00, 0.00000000e+00, 5.0000000000, 5.0000000000, 0.0035697415
           3, 0.00000000e+00, 0.00000000e+00, 0.00000000e+00, 0.00000000e+00, 0.00000000e+00, 0.00000000e+00, 0.00000000e+00, 0.00000000e+00, 0.00000000e+00, 0.00000000e+00, 0.00000000e+00, 0.00000000e+00, -3.06606739e+00, -4.93314218e-01, -6.62242832e-01, 2.41327383e+00, 0.00000000e+00, 5.0000000000, 5.0000000000, 0.0049376886
           4, 0.00000000e+00, 0.00000000e+00, 0.00000000e+00, 0.00000000e+00, 0.00000000e+00, 0.00000000e+00, 0.00000000e+00, 0.00000000e+00, 0.00000000e+00, 0.00000000e+00, 0.00000000e+00, 0.00000000e+00, -3.04448115e+00, -4.70710292e-01, -5.62173656e-01, 2.43525992e+00, 0.00000000e+00, 5.0000000000, 5.0000000000, 0.0060453486
           5, 0.00000000e+00, 0.00000000e+00, 0.00000000e+00, 0.00000000e+00, 0.00000000e+00, 0.00000000e+00, 0.00000000e+00, 0.00000000e+00, 0.00000000e+00, 0.00000000e+00, 0.00000000e+00, 0.00000000e+00, -3.03732676e+00, -4.62862609e-01, -4.89126371e-01, 2.44270257e+00, 0.00000000e+00, 5.0000000000, 5.0000000000, 0.0070370502
           6, 0.00000000e+00, 0.00000000e+00, 0.00000000e+00, 0.00000000e+00, 0.00000000e+00, 0.00000000e+00, 0.00000000e+00, 0.00000000e+00, 0.00000000e+00, 0.00000000e+00, 0.00000000e+00, 0.00000000e+00, -3.03499995e+00, -4.60403150e-01, -4.33079717e-01, 2.44516310e+00, 0.00000000e+00, 5.0000000000, 5.0000000000, 0.0080432926
           7, 0.00000000e+00, 0.00000000e+00, 0.00000000e+00, 0.00000000e+00, 0.00000000e+00, 0.00000000e+00, 0.00000000e+00, 0.00000000e+00, 0.00000000e+00, 0.00000000e+00, 0.00000000e+00, 0.00000000e+00, -3.03459013e+00, -4.60241518e-01, -3.88718759e-01, 2.44559355e+00, 0.00000000e+00, 5.0000000000, 5.0000000000, 0.0090602229
           8, 0.00000000e+00, 0.00000000e+00, 0.00000000e+00, 0.00000000e+00, 0.00000000e+00, 0.00000000e+00, 0.00000000e+00, 0.00000000e+00, 0.00000000e+00, 0.00000000e+00, 0.00000000e+00, 0.00000000e+00, -3.03588616e+00, -4.61937730e-01, -3.52882321e-01, 2.44426000e+00, 0.00000000e+00, 5.0000000000, 5.0000000000, 0.0100752496
           9, 0.00000000e+00, 0.00000000e+00, 0.00000000e+00, 0.00000000e+00, 0.00000000e+00, 0.00000000e+00, 0.00000000e+00, 0.00000000e+00, 0.00000000e+00, 0.00000000e+00, 0.00000000e+00, 0.00000000e+00, -3.03937525e+00, -4.65872283e-01, -3.23532636e-01, 2.44071230e+00, 0.00000000e+00, 5.0000000000, 5.0000000000, 0.0111003377
          10, 0.00000000e+00, 0.00000000e+00, 0.00000000e+00, 0.00000000e+00, 0.00000000e+00, 0.00000000e+00, 0.00000000e+00, 0.00000000e+00, 0.00000000e+00, 0.00000000e+00, 0.00000000e+00, 0.00000000e+00, -3.04531087e+00, -4.72327368e-01, -2.99274994e-01, 2.43471286e+00, 0.00000000e+00, 5.0000000000, 5.0000000000, 0.0121223606
          11, 0.00000000e+00, 0.00000000e+00, 0.00000000e+00, 0.00000000e+00, 0.00000000e+00, 0.00000000e+00, 0.00000000e+00, 0.00000000e+00, 0.00000000e+00, 0.00000000e+00, 0.00000000e+00, 0.00000000e+00, -3.05330998e+00, -4.81060504e-01, -2.79109797e-01, 2.42664555e+00, 0.00000000e+00, 5.0000000000, 5.0000000000, 0.0131709451
          12, 0.00000000e+00, 0.00000000e+00, 0.00000000e+00, 0.00000000e+00, 0.00000000e+00, 0.00000000e+00, 0.00000000e+00, 0.00000000e+00, 0.00000000e+00, 0.00000000e+00, 0.00000000e+00, 0.00000000e+00, -3.06225495e+00, -4.91163729e-01, -2.62293327e-01, 2.41762061e+00, 0.00000000e+00, 5.0000000000, 5.0000000000, 0.0142151948
          13, 0.00000000e+00, 0.00000000e+00, 0.00000000e+00, 0.00000000e+00, 0.00000000e+00, 0.00000000e+00, 0.00000000e+00, 0.00000000e+00, 0.00000000e+00, 0.00000000e+00, 0.00000000e+00, 0.00000000e+00, -3.07048664e+00, -5.01163707e-01, -2.48253706e-01, 2.40928816e+00, 0.00000000e+00, 5.0000000000, 5.0000000000, 0.0153245137
          14, 0.00000000e+00, 0.00000000e+00, 0.00000000e+00, 0.00000000e+00, 0.00000000e+00, 0.00000000e+00, 0.00000000e+00, 0.00000000e+00, 0.00000000e+00, 0.00000000e+00, 0.00000000e+00, 0.00000000e+00, -3.07630905e+00, -5.09382348e-01, -2.36536537e-01, 2.40334002e+00, 0.00000000e+00, 5.0000000000, 5.0000000000, 0.0163777231
          15, 0.00000000e+00, 0.00000000e+00, 0.00000000e+00, 0.00000000e+00, 0.00000000e+00, 0.00000000e+00, 0.00000000e+00, 0.00000000e+00, 0.00000000e+00, 0.00000000e+00, 0.00000000e+00, 0.00000000e+00, -3.07865710e+00, -5.14486948e-01, -2.26778366e-01, 2.40084664e+00, 0.00000000e+00, 5.0000000000, 5.0000000000, 0.0173909421
          16, 0.00000000e+00, 0.00000000e+00, 0.00000000e+00, 0.00000000e+00, 0.00000000e+00, 0.00000000e+00, 0.00000000e+00, 0.00000000e+00, 0.00000000e+00, 0.00000000e+00, 0.00000000e+00, 0.00000000e+00, -3.07755562e+00, -5.15978561e-01, -2.18680293e-01, 2.40179786e+00, 0.00000000e+00, 5.0000000000, 5.0000000000, 0.0184038745
          17, 0.00000000e+00, 0.00000000e+00, 0.00000000e+00, 0.00000000e+00, 0.00000000e+00, 0.00000000e+00, 0.00000000e+00, 0.00000000e+00, 0.00000000e+00, 0.00000000e+00, 0.00000000e+00, 0.00000000e+00, -3.07404292e+00, -5.14308651e-01, -2.11988561e-01, 2.40517388e+00, 0.00000000e+00, 5.0000000000, 5.0000000000, 0.0194016780
          18, 0.00000000e+00, 0.00000000e+00, 0.00000000e+00, 0.00000000e+00, 0.00000000e+00, 0.00000000e+00, 0.00000000e+00, 0.00000000e+00, 0.00000000e+00, 0.00000000e+00, 0.00000000e+00, 0.00000000e+00, -3.06964200e+00, -5.10560787e-01, -2.06489691e-01, 2.40946752e+00, 0.00000000e+00, 5.0000000000, 5.0000000000, 0.0203887171
          19, 0.00000000e+00, 0.00000000e+00, 0.00000000e+00, 0.00000000e+00, 0.00000000e+00, 0.00000000e+00, 0.00000000e+00, 0.00000000e+00, 0.00000000e+00, 0.00000000e+00, 0.00000000e+00, 0.00000000e+00, -3.06577684e+00, -5.05945305e-01, -2.02003122e-01, 2.41326496e+00, 0.00000000e+00, 5.0000000000, 5.0000000000, 0.0213844166
          20, 0.00000000e+00, 0.00000000e+00, 0.00000000e+00, 0.00000000e+00, 0.00000000e+00, 0.00000000e+00, 0.00000000e+00, 0.00000000e+00, 0.00000000e+00, 0.00000000e+00, 0.00000000e+00, 0.00000000e+00, -3.06344097e+00, -5.01402360e-01, -1.98375744e-01, 2.41557777e+00, 0.00000000e+00, 5.0000000000, 5.0000000000, 0.0223814132
          21, 0.00000000e+00, 0.00000000e+00, 0.00000000e+00, 0.00000000e+00, 0.00000000e+00, 0.00000000e+00, 0.00000000e+00, 0.00000000e+00, 0.00000000e+00, 0.00000000e+00, 0.00000000e+00, 0.00000000e+00, -3.06316109e+00, -4.97431370e-01, -1.95477504e-01, 2.41588149e+00, 0.00000000e+00, 5.0000000000, 5.0000000000, 0.0235259213
          22, 0.00000000e+00, 0.00000000e+00, 0.00000000e+00, 0.00000000e+00, 0.00000000e+00, 0.00000000e+00, 0.00000000e+00, 0.00000000e+00, 0.00000000e+00, 0.00000000e+00, 0.00000000e+00, 0.00000000e+00, -3.06514418e+00, -4.94100205e-01, -1.93197582e-01, 2.41397073e+00, 0.00000000e+00, 5.0000000000, 5.0000000000, 0.0246226443
          23, 0.00000000e+00, 0.00000000e+00, 0.00000000e+00, 0.00000000e+00, 0.00000000e+00, 0.00000000e+00, 0.00000000e+00, 0.00000000e+00, 0.00000000e+00, 0.00000000e+00, 0.00000000e+00, 0.00000000e+00, -3.06948369e+00, -4.91143634e-01, -1.91441236e-01, 2.40975450e+00, 0.00000000e+00, 5.0000000000, 5.0000000000, 0.0259140689
          24, 0.00000000e+00, 0.00000000e+00, 0.00000000e+00, 0.00000000e+00, 0.00000000e+00, 0.00000000e+00, 0.00000000e+00, 0.00000000e+00, 0.00000000e+00, 0.00000000e+00, 0.00000000e+00, 0.00000000e+00, -3.07634136e+00, -4.88092909e-01, -1.90127249e-01, 2.40307525e+00, 0.00000000e+00, 5.0000000000, 5.0000000000, 0.0270536921
          25, 0.00000000e+00, 0.00000000e+00, 0.00000000e+00, 0.00000000e+00, 0.00000000e+00, 0.00000000e+00, 0.00000000e+00, 0.00000000e+00, 0.00000000e+00, 0.00000000e+00, 0.00000000e+00, 0.00000000e+00, -3.08606011e+00, -4.84419924e-01, -1.89185979e-01, 2.39359566e+00, 0.00000000e+00, 5.0000000000, 5.0000000000, 0.0280746096
          26, 0.00000000e+00, 0.00000000e+00, 0.00000000e+00, 0.00000000e+00, 0.00000000e+00, 0.00000000e+00, 0.00000000e+00, 0.00000000e+00, 0.00000000e+00, 0.00000000e+00, 0.00000000e+00, 0.00000000e+00, -3.09918979e+00, -4.79696491e-01, -1.88557693e-01, 2.38077054e+00, 0.00000000e+00, 5.0000000000, 5.0000000000, 0.0291115247
          27, 0.00000000e+00, 0.00000000e+00, 0.00000000e+00, 0.00000000e+00, 0.00000000e+00, 0.00000000e+00, 0.00000000e+00, 0.00000000e+00, 0.00000000e+00, 0.00000000e+00, 0.00000000e+00, 0.00000000e+00, -3.11642171e+00, -4.73756523e-01, -1.88191235e-01, 2.36390596e+00, 0.00000000e+00, 5.0000000000, 5.0000000000, 0.0301487518
          28, 0.00000000e+00, 0.00000000e+00, 0.00000000e+00, 0.00000000e+00, 0.00000000e+00, 0.00000000e+00, 0.00000000e+00, 0.00000000e+00, 0.00000000e+00, 0.00000000e+00, 0.00000000e+00, 0.00000000e+00, -3.13842606e+00, -4.66822769e-01, -1.88042756e-01, 2.34230843e+00, 0.00000000e+00, 5.0000000000, 5.0000000000, 0.0311889788
          29, 0.00000000e+00, 0.00000000e+00, 0.00000000e+00, 0.00000000e+00, 0.00000000e+00, 0.00000000e+00, 0.00000000e+00, 0.00000000e+00, 0.00000000e+00, 0.00000000e+00, 0.00000000e+00, 0.00000000e+00, -3.16556054e+00, -4.59550970e-01, -1.88074606e-01, 2.31554897e+00, 0.00000000e+00, 5.0000000000, 5.0000000000, 0.0322253105
          30, 0.00000000e+00, 0.00000000e+00, 0.00000000e+00, 0.00000000e+00, 0.00000000e+00, 0.00000000e+00, 0.00000000e+00, 0.00000000e+00, 0.00000000e+00, 0.00000000e+00, 0.00000000e+00, 0.00000000e+00, -3.19736751e+00, -4.52971809e-01, -1.88254496e-01, 2.28391500e+00, 0.00000000e+00, 5.0000000000, 5.0000000000, 0.0332337578
          31, 0.00000000e+00, 0.00000000e+00, 0.00000000e+00, 0.00000000e+00, 0.00000000e+00, 0.00000000e+00, 0.00000000e+00, 0.00000000e+00, 0.00000000e+00, 0.00000000e+00, 0.00000000e+00, 0.00000000e+00, -3.23174115e+00, -4.48358929e-01, -1.88554789e-01, 2.24916621e+00, 0.00000000e+00, 5.0000000000, 5.0000000000, 0.0342424437
          32, 0.00000000e+00, 0.00000000e+00, 0.00000000e+00, 0.00000000e+00, 0.00000000e+00, 0.00000000e+00, 0.00000000e+00, 0.00000000e+00, 0.00000000e+00, 0.00000000e+00, 0.00000000e+00, 0.00000000e+00, -3.26382589e+00, -4.47081732e-01, -1.88951943e-01, 2.21559297e+00, 0.00000000e+00, 5.0000000000, 5.0000000000, 0.0352419679
          33, 0.00000000e+00, 0.00000000e+00, 0.00000000e+00, 0.00000000e+00, 0.00000000e+00, 0.00000000e+00, 0.00000000e+00, 0.00000000e+00, 0.00000000e+00, 0.00000000e+00, 0.00000000e+00, 0.00000000e+00, -3.28559399e+00, -4.50495683e-01, -1.89426052e-01, 2.19066083e+00, 0.00000000e+00, 5.0000000000, 5.0000000000, 0.0362513500
          34, 0.00000000e+00, 0.00000000e+00, 0.00000000e+00, 0.00000000e+00, 0.00000000e+00, 0.00000000e+00, 0.00000000e+00, 0.00000000e+00, 0.00000000e+00, 0.00000000e+00, 0.00000000e+00, 0.00000000e+00, -3.28843699e+00, -4.59894967e-01, -1.89960434e-01, 2.18312953e+00, 0.00000000e+00, 5.0000000000, 5.0000000000, 0.0372570777
          35, 0.00000000e+00, 0.00000000e+00, 0.00000000e+00, 0.00000000e+00, 0.00000000e+00, 0.00000000e+00, 0.00000000e+00, 0.00000000e+00, 0.00000000e+00, 0.00000000e+00, 0.00000000e+00, 0.00000000e+00, -3.26916075e+00, -4.76527249e-01, -1.90541236e-01, 2.19749838e+00, 0.00000000e+00, 5.0000000000, 5.0000000000, 0.0382543195
          36, 0.00000000e+00, 0.00000000e+00, 0.00000000e+00, 0.00000000e+00, 0.00000000e+00, 0.00000000e+00, 0.00000000e+00, 0.00000000e+00, 0.00000000e+00, 0.00000000e+00, 0.00000000e+00, 0.00000000e+00, -3.23298646e+00, -5.01661019e-01, -1.91157007e-01, 2.22997676e+00, 0.00000000e+00, 5.0000000000, 5.0000000000, 0.0392578125
          37, 0.00000000e+00, 0.00000000e+00, 0.00000000e+00, 0.00000000e+00, 0.00000000e+00, 0.00000000e+00, 0.00000000e+00, 0.00000000e+00, 0.00000000e+00, 0.00000000e+00, 0.00000000e+00, 0.00000000e+00, -3.18918298e+00, -5.36701678e-01, -1.91798332e-01, 2.27168429e+00, 0.00000000e+00, 5.0000000000, 5.0000000000, 0.0403780724
          38, 0.00000000e+00, 0.00000000e+00, 0.00000000e+00, 0.00000000e+00, 0.00000000e+00, 0.00000000e+00, 0.00000000e+00, 0.00000000e+00, 0.00000000e+00, 0.00000000e+00, 0.00000000e+00, 0.00000000e+00, -3.14553060e+00, -5.83368075e-01, -1.92457758e-01, 2.31443682e+00, 0.00000000e+00, 5.0000000000, 5.0000000000, 0.0416103399
          39, 0.00000000e+00, 0.00000000e+00, 0.00000000e+00, 0.00000000e+00, 0.00000000e+00, 0.00000000e+00, 0.00000000e+00, 0.00000000e+00, 0.00000000e+00, 0.00000000e+00, 0.00000000e+00, 0.00000000e+00, -3.10661989e+00, -6.43966696e-01, -1.93129376e-01, 2.35312664e+00, 0.00000000e+00, 5.0000000000, 5.0000000000, 0.0426671116
          40, 0.00000000e+00, 0.00000000e+00, 0.00000000e+00, 0.00000000e+00, 0.00000000e+00, 0.00000000e+00, 0.00000000e+00, 0.00000000e+00, 0.00000000e+00, 0.00000000e+00, 0.00000000e+00, 0.00000000e+00, -3.07458092e+00, -7.21842830e-01, -1.93808585e-01, 2.38526535e+00, 0.00000000e+00, 5.0000000000, 5.0000000000, 0.0440221909
          41, 0.00000000e+00, 0.00000000e+00, 0.00000000e+00, 0.00000000e+00, 0.00000000e+00, 0.00000000e+00, 0.00000000e+00, 0.00000000e+00, 0.00000000e+00, 0.00000000e+00, 0.00000000e+00, 0.00000000e+00, -3.05012907e+00, -8.22140157e-01, -1.94491941e-01, 2.40993514e+00, 0.00000000e+00, 5.0000000000, 5.0000000000, 0.0455643263
          42, 0.00000000e+00, 0.00000000e+00, 0.00000000e+00, 0.00000000e+00, 0.00000000e+00, 0.00000000e+00, 0.00000000e+00, 0.00000000e+00, 0.00000000e+00, 0.00000000e+00, 0.00000000e+00, 0.00000000e+00, -3.03326082e+00, -9.52843454e-01, -1.95176970e-01, 2.42703316e+00, 0.00000000e+00, 5.0000000000, 5.0000000000, 0.0470271894
          43, 0.00000000e+00, 0.00000000e+00, 0.00000000e+00, 0.00000000e+00, 0.00000000e+00, 0.00000000e+00, 0.00000000e+00, 0.00000000e+00, 0.00000000e+00, 0.00000000e+00, 0.00000000e+00, 0.00000000e+00, -3.02362272e+00, -1.12310344e+00, -1.95861983e-01, 2.43685643e+00, 0.00000000e+00, 5.0000000000, 5.0000000000, 0.0480739033
          44, 0.00000000e+00, 0.00000000e+00, 0.00000000e+00, 0.00000000e+00, 0.00000000e+00, 0.00000000e+00, 0.00000000e+00, 0.00000000e+00, 0.00000000e+00, 0.00000000e+00, 0.00000000e+00, 0.00000000e+00, -3.02068621e+00, -1.30478321e+00, -1.96545912e-01, 2.43990035e+00, 0.00000000e+00, 5.0000000000, 5.0000000000, 0.0490846941
          45, 0.00000000e+00, 0.00000000e+00, 0.00000000e+00, 0.00000000e+00, 0.00000000e+00, 0.00000000e+00, 0.00000000e+00, 0.00000000e+00, 0.00000000e+00, 0.00000000e+00, 0.00000000e+00, 0.00000000e+00, -3.02382200e+00, -1.30607467e+00, -1.97228101e-01, 2.43677021e+00, 0.00000000e+00, 5.0000000000, 5.0000000000, 0.0501323695
          46, 0.00000000e+00, 0.00000000e+00, 0.00000000e+00, 0.00000000e+00, 0.00000000e+00, 0.00000000e+00, 0.00000000e+00, 0.00000000e+00, 0.00000000e+00, 0.00000000e+00, 0.00000000e+00, 0.00000000e+00, -3.03232683e+00, -1.14952606e+00, -1.97908177e-01, 2.42814732e+00, 0.00000000e+00, 5.0000000000, 5.0000000000, 0.0511243067
          47, 0.00000000e+00, 0.00000000e+00, 0.00000000e+00, 0.00000000e+00, 0.00000000e+00, 0.00000000e+00, 0.00000000e+00, 0.00000000e+00, 0.00000000e+00, 0.00000000e+00, 0.00000000e+00, 0.00000000e+00, -3.04543077e+00, -1.01242363e+00, -1.98585897e-01, 2.41477857e+00, 0.00000000e+00, 5.0000000000, 5.0000000000, 0.0522921689
          48, 0.00000000e+00, 0.00000000e+00, 0.00000000e+00, 0.00000000e+00, 0.00000000e+00, 0.00000000e+00, 0.00000000e+00, 0.00000000e+00, 0.00000000e+00, 0.00000000e+00, 0.00000000e+00, 0.00000000e+00, -3.06230192e+00, -9.13019779e-01, -1.99261049e-01, 2.39747121e+00, 0.00000000e+00, 5.0000000000, 5.0000000000, 0.0535514518
          49, 0.00000000e+00, 0.00000000e+00, 0.00000000e+00, 0.00000000e+00, 0.00000000e+00, 0.00000000e+00, 0.00000000e+00, 0.00000000e+00, 0.00000000e+00, 0.00000000e+00, 0.00000000e+00, 0.00000000e+00, -3.08205999e+00, -8.41305363e-01, -1.99933414e-01, 2.37708097e+00, 0.00000000e+00, 5.0000000000, 5.0000000000, 0.0546534172
          50, 0.00000000e+00, 0.00000000e+00, 0.00000000e+00, 0.00000000e+00, 0.00000000e+00, 0.00000000e+00, 0.00000000e+00, 0.00000000e+00, 0.00000000e+00, 0.00000000e+00, 0.00000000e+00, 0.00000000e+00, -3.10380617e+00, -7.89126062e-01, -2.00602701e-01, 2.35448556e+00, 0.00000000e+00, 5.0000000000, 5.0000000000, 0.0557504684
          51, 0.00000000e+00, 0.00000000e+00, 0.00000000e+00, 0.00000000e+00, 0.00000000e+00, 0.00000000e+00, 0.00000000e+00, 0.00000000e+00, 0.00000000e+00, 0.00000000e+00, 0.00000000e+00, 0.00000000e+00, -3.12667195e+00, -7.51080646e-01, -2.01268613e-01, 2.33054044e+00, 0.00000000e+00, 5.0000000000, 5.0000000000, 0.0567906692
          52, 0.00000000e+00, 0.00000000e+00, 0.00000000e+00, 0.00000000e+00, 0.00000000e+00, 0.00000000e+00, 0.00000000e+00, 0.00000000e+00, 0.00000000e+00, 0.00000000e+00, 0.00000000e+00, 0.00000000e+00, -3.14988113e+00, -7.23506075e-01, -2.01930716e-01, 2.30602105e+00, 0.00000000e+00, 5.0000000000, 5.0000000000, 0.0578029231
          53, 0.00000000e+00, 0.00000000e+00, 0.00000000e+00, 0.00000000e+00, 0.00000000e+00, 0.00000000e+00, 0.00000000e+00, 0.00000000e+00, 0.00000000e+00, 0.00000000e+00, 0.00000000e+00, 0.00000000e+00, -3.17281075e+00, -7.03799065e-01, -2.02588506e-01, 2.28156427e+00, 0.00000000e+00, 5.0000000000, 5.0000000000, 0.0588174876
          54, 0.00000000e+00, 0.00000000e+00, 0.00000000e+00, 0.00000000e+00, 0.00000000e+00, 0.00000000e+00, 0.00000000e+00, 0.00000000e+00, 0.00000000e+00, 0.00000000e+00, 0.00000000e+00, 0.00000000e+00, -3.19503117e+00, -6.90045060e-01, -2.03241399e-01, 2.25762758e+00, 0.00000000e+00, 5.0000000000, 5.0000000000, 0.0598765588
          55, 0.00000000e+00, 0.00000000e+00, 0.00000000e+00, 0.00000000e+00, 0.00000000e+00, 0.00000000e+00, 0.00000000e+00, 0.00000000e+00, 0.00000000e+00, 0.00000000e+00, 0.00000000e+00, 0.00000000e+00, -3.21631009e+00, -6.80821895e-01, -2.03888780e-01, 2.23448157e+00, 0.00000000e+00, 5.0000000000, 5.0000000000, 0.0609089006
          56, 0.00000000e+00, 0.00000000e+00, 0.00000000e+00, 0.00000000e+00, 0.00000000e+00, 0.00000000e+00, 0.00000000e+00, 0.00000000e+00, 0.00000000e+00, 0.00000000e+00, 0.00000000e+00, 0.00000000e+00, -3.23657830e+00, -6.75093532e-01, -2.04530043e-01, 2.21223998e+00, 0.00000000e+00, 5.0000000000, 5.0000000000, 0.0619373025
          57, 0.00000000e+00, 0.00000000e+00, 0.00000000e+00, 0.00000000e+00, 0.00000000e+00, 0.00000000e+00, 0.00000000e+00, 0.00000000e+00, 0.00000000e+00, 0.00000000e+00, 0.00000000e+00, 0.00000000e+00, -3.25587105e+00, -6.72144314e-01, -2.05164577e-01, 2.19091557e+00, 0.00000000e+00, 5.0000000000, 5.0000000000, 0.0629468661
          58, 0.00000000e+00, 0.00000000e+00, 0.00000000e+00, 0.00000000e+00, 0.00000000e+00, 0.00000000e+00, 0.00000000e+00, 0.00000000e+00, 0.00000000e+00, 0.00000000e+00, 0.00000000e+00, 0.00000000e+00, -3.27426823e+00, -6.71525321e-01, -2.05791837e-01, 2.17047972e+00, 0.00000000e+00, 5.0000000000, 5.0000000000, 0.0639572663
          59, 0.00000000e+00, 0.00000000e+00, 0.00000000e+00, 0.00000000e+00, 0.00000000e+00, 0.00000000e+00, 0.00000000e+00, 0.00000000e+00, 0.00000000e+00, 0.00000000e+00, 0.00000000e+00, 0.00000000e+00, -3.29185440e+00, -6.72999074e-01, -2.06411416e-01, 2.15090351e+00, 0.00000000e+00, 5.0000000000, 5.0000000000, 0.0652506574
          60, 0.00000000e+00, 0.00000000e+00, 0.00000000e+00, 0.00000000e+00, 0.00000000e+00, 0.00000000e+00, 0.00000000e+00, 0.00000000e+00, 0.00000000e+00, 0.00000000e+00, 0.00000000e+00, 0.00000000e+00, -3.30870940e+00, -6.76479462e-01, -2.07023081e-01, 2.13216707e+00, 0.00000000e+00, 5.0000000000, 5.0000000000, 0.0664116363
          61, 0.00000000e+00, 0.00000000e+00, 0.00000000e+00, 0.00000000e+00, 0.00000000e+00, 0.00000000e+00, 0.00000000e+00, 0.00000000e+00, 0.00000000e+00, 0.00000000e+00, 0.00000000e+00, 0.00000000e+00, -3.32492622e+00, -6.81970285e-01, -2.07626841e-01, 2.11423854e+00, 0.00000000e+00, 5.0000000000, 5.0000000000, 0.0675946917
          62, 0.00000000e+00, 0.00000000e+00, 0.00000000e+00, 0.00000000e+00, 0.00000000e+00, 0.00000000e+00, 0.00000000e+00, 0.00000000e+00, 0.00000000e+00, 0.00000000e+00, 0.00000000e+00, 0.00000000e+00, -3.34064141e+00, -6.89508054e-01, -2.08222977e-01, 2.09703714e+00, 0.00000000e+00, 5.0000000000, 5.0000000000, 0.0686178497
          63, 0.00000000e+00, 0.00000000e+00, 0.00000000e+00, 0.00000000e+00, 0.00000000e+00, 0.00000000e+00, 0.00000000e+00, 0.00000000e+00, 0.00000000e+00, 0.00000000e+00, 0.00000000e+00, 0.00000000e+00, -3.35605735e+00, -6.99113743e-01, -2.08812056e-01, 2.08040340e+00, 0.00000000e+00, 5.0000000000, 5.0000000000, 0.0696325468
          64, 0.00000000e+00, 0.00000000e+00, 0.00000000e+00, 0.00000000e+00, 0.00000000e+00, 0.00000000e+00, 0.00000000e+00, 0.00000000e+00, 0.00000000e+00, 0.00000000e+00, 0.00000000e+00, 0.00000000e+00, -3.37143739e+00, -7.10755973e-01, -2.09394975e-01, 2.06410000e+00, 0.00000000e+00, 5.0000000000, 5.0000000000, 0.0707698709
          65, 0.00000000e+00, 0.00000000e+00, 0.00000000e+00, 0.00000000e+00, 0.00000000e+00, 0.00000000e+00, 0.00000000e+00, 0.00000000e+00, 0.00000000e+00, 0.00000000e+00, 0.00000000e+00, 0.00000000e+00, -3.38706137e+00, -7.24326311e-01, -2.09972971e-01, 2.04785907e+00, 0.00000000e+00, 5.0000000000, 5.0000000000, 0.0719822355
          66, 0.00000000e+00, 0.00000000e+00, 0.00000000e+00, 0.00000000e+00, 0.00000000e+00, 0.00000000e+00, 0.00000000e+00, 0.00000000e+00, 0.00000000e+00, 0.00000000e+00, 0.00000000e+00, 0.00000000e+00, -3.40313846e+00, -7.39626926e-01, -2.10547594e-01, 2.03148090e+00, 0.00000000e+00, 5.0000000000, 5.0000000000, 0.0732986346
          67, 0.00000000e+00, 0.00000000e+00, 0.00000000e+00, 0.00000000e+00, 0.00000000e+00, 0.00000000e+00, 0.00000000e+00, 0.00000000e+00, 0.00000000e+00, 0.00000000e+00, 0.00000000e+00, 0.00000000e+00, -3.41967986e+00, -7.56371411e-01, -2.11120647e-01, 2.01497974e+00, 0.00000000e+00, 5.0000000000, 5.0000000000, 0.0744727848
          68, 0.00000000e+00, 0.00000000e+00, 0.00000000e+00, 0.00000000e+00, 0.00000000e+00, 0.00000000e+00, 0.00000000e+00, 0.00000000e+00, 0.00000000e+00, 0.00000000e+00, 0.00000000e+00, 0.00000000e+00, -3.43633958e+00, -7.74200551e-01, -2.11694100e-01, 1.99876395e+00, 0.00000000e+00, 5.0000000000, 5.0000000000, 0.0754832819
          69, 0.00000000e+00, 0.00000000e+00, 0.00000000e+00, 0.00000000e+00, 0.00000000e+00, 0.00000000e+00, 0.00000000e+00, 0.00000000e+00, 0.00000000e+00, 0.00000000e+00, 0.00000000e+00, 0.00000000e+00, -3.45224486e+00, -7.92714716e-01, -2.12269965e-01, 1.98381977e+00, 0.00000000e+00, 5.0000000000, 5.0000000000, 0.0764688344
          70, 0.00000000e+00, 0.00000000e+00, 0.00000000e+00, 0.00000000e+00, 0.00000000e+00, 0.00000000e+00, 0.00000000e+00, 0.00000000e+00, 0.00000000e+00, 0.00000000e+00, 0.00000000e+00, 0.00000000e+00, -3.46587346e+00, -8.11522395e-01, -2.12850204e-01, 1.97182312e+00, 0.00000000e+00, 5.0000000000, 5.0000000000, 0.0774642964
          71, 0.00000000e+00, 0.00000000e+00, 0.00000000e+00, 0.00000000e+00, 0.00000000e+00, 0.00000000e+00, 0.00000000e+00, 0.00000000e+00, 0.00000000e+00, 0.00000000e+00, 0.00000000e+00, 0.00000000e+00, -3.47509871e+00, -8.30299608e-01, -2.13436566e-01, 1.96503469e+00, 0.00000000e+00, 5.0000000000, 5.0000000000, 0.0784441500
          72, 0.00000000e+00, 0.00000000e+00, 0.00000000e+00, 0.00000000e+00, 0.00000000e+00, 0.00000000e+00, 0.00000000e+00, 0.00000000e+00, 0.00000000e+00, 0.00000000e+00, 0.00000000e+00, 0.00000000e+00, -3.47756218e+00, -8.48848830e-01, -2.14030486e-01, 1.96581397e+00, 0.00000000e+00, 5.0000000000, 5.0000000000, 0.0794550124
          73, 0.00000000e+00, 0.00000000e+00, 0.00000000e+00, 0.00000000e+00, 0.00000000e+00, 0.00000000e+00, 0.00000000e+00, 0.00000000e+00, 0.00000000e+00, 0.00000000e+00, 0.00000000e+00, 0.00000000e+00, -3.47141507e+00, -8.67141871e-01, -2.14633011e-01, 1.97577653e+00, 0.00000000e+00, 5.0000000000, 5.0000000000, 0.0804349319
          74, 0.00000000e+00, 0.00000000e+00, 0.00000000e+00, 0.00000000e+00, 0.00000000e+00, 0.00000000e+00, 0.00000000e+00, 0.00000000e+00, 0.00000000e+00, 0.00000000e+00, 0.00000000e+00, 0.00000000e+00, -3.45612538e+00, -8.85332332e-01, -2.15244717e-01, 1.99501681e+00, 0.00000000e+00, 5.0000000000, 5.0000000000, 0.0814482812
          75, 0.00000000e+00, 0.00000000e+00, 0.00000000e+00, 0.00000000e+00, 0.00000000e+00, 0.00000000e+00, 0.00000000e+00, 0.00000000e+00, 0.00000000e+00, 0.00000000e+00, 0.00000000e+00, 0.00000000e+00, -3.43279410e+00, -9.03730675e-01, -2.15865677e-01, 2.02197787e+00, 0.00000000e+00, 5.0000000000, 5.0000000000, 0.0824407861
          76, 0.00000000e+00, 0.00000000e+00, 0.00000000e+00, 0.00000000e+00, 0.00000000e+00, 0.00000000e+00, 0.00000000e+00, 0.00000000e+00, 0.00000000e+00, 0.00000000e+00, 0.00000000e+00, 0.00000000e+00, -3.40372490e+00, -9.22744974e-01, -2.16495469e-01, 2.05407150e+00, 0.00000000e+00, 5.0000000000, 5.0000000000, 0.0834489891
          77, 0.00000000e+00, 0.00000000e+00, 0.00000000e+00, 0.00000000e+00, 0.00000000e+00, 0.00000000e+00, 0.00000000e+00, 0.00000000e+00, 0.00000000e+00, 0.00000000e+00, 0.00000000e+00, 0.00000000e+00, -3.37160375e+00, -9.42797171e-01, -2.17133195e-01, 2.08854654e+00, 0.00000000e+00, 5.0000000000, 5.0000000000, 0.0845245428
          78, 0.00000000e+00, 0.00000000e+00, 0.00000000e+00, 0.00000000e+00, 0.00000000e+00, 0.00000000e+00, 0.00000000e+00, 0.00000000e+00, 0.00000000e+00, 0.00000000e+00, 0.00000000e+00, 0.00000000e+00, -3.33882820e+00, -9.64225030e-01, -2.17777553e-01, 2.12308694e+00, 0.00000000e+00, 5.0000000000, 5.0000000000, 0.0859824390
          79, 0.00000000e+00, 0.00000000e+00, 0.00000000e+00, 0.00000000e+00, 0.00000000e+00, 0.00000000e+00, 0.00000000e+00, 0.00000000e+00, 0.00000000e+00, 0.00000000e+00, 0.00000000e+00, 0.00000000e+00, -3.30721209e+00, -9.87177351e-01, -2.18426889e-01, 2.15601389e+00, 0.00000000e+00, 5.0000000000, 5.0000000000, 0.0874759505
          80, 0.00000000e+00, 0.00000000e+00, 0.00000000e+00, 0.00000000e+00, 0.00000000e+00, 0.00000000e+00, 0.00000000e+00, 0.00000000e+00, 0.00000000e+00, 0.00000000e+00, 0.00000000e+00, 0.00000000e+00, -3.27797912e+00, -1.01149982e+00, -2.19079325e-01, 2.18623408e+00, 0.00000000e+00, 5.0000000000, 5.0000000000, 0.0886706740
          81, 0.00000000e+00, 0.00000000e+00, 0.00000000e+00, 0.00000000e+00, 0.00000000e+00, 0.00000000e+00, 0.00000000e+00, 0.00000000e+00, 0.00000000e+00, 0.00000000e+00, 0.00000000e+00, 0.00000000e+00, -3.25187779e+00, -1.03658375e+00, -2.19732869e-01, 2.21310317e+00, 0.00000000e+00, 5.0000000000, 5.0000000000, 0.0896848986
          82, 0.00000000e+00, 0.00000000e+00, 0.00000000e+00, 0.00000000e+00, 0.00000000e+00, 0.00000000e+00, 0.00000000e+00, 0.00000000e+00, 0.00000000e+00, 0.00000000e+00, 0.00000000e+00, 0.00000000e+00, -3.22932025e+00, -1.06122948e+00, -2.20385536e-01, 2.23628462e+00, 0.00000000e+00, 5.0000000000, 5.0000000000, 0.0906985057
          83, 0.00000000e+00, 0.00000000e+00, 0.00000000e+00, 0.00000000e+00, 0.00000000e+00, 0.00000000e+00, 0.00000000e+00, 0.00000000e+00, 0.00000000e+00, 0.00000000e+00, 0.00000000e+00, 0.00000000e+00, -3.21049842e+00, -1.08358386e+00, -2.21035454e-01, 2.25563885e+00, 0.00000000e+00, 5.0000000000, 5.0000000000, 0.0917022874
          84, 0.00000000e+00, 0.00000000e+00, 0.00000000e+00, 0.00000000e+00, 0.00000000e+00, 0.00000000e+00, 0.00000000e+00, 0.00000000e+00, 0.00000000e+00, 0.00000000e+00, 0.00000000e+00, 0.00000000e+00, -3.19546497e+00, -1.10125454e+00, -2.21680962e-01, 2.27114876e+00, 0.00000000e+00, 5.0000000000, 5.0000000000, 0.0927072920
          85, 0.00000000e+00, 0.00000000e+00, 0.00000000e+00, 0.00000000e+00, 0.00000000e+00, 0.00000000e+00, 0.00000000e+00, 0.00000000e+00, 0.00000000e+00, 0.00000000e+00, 0.00000000e+00, 0.00000000e+00, -3.18418716e+00, -1.11175385e+00, -2.22320694e-01, 2.28287132e+00, 0.00000000e+00, 5.0000000000, 5.0000000000, 0.0937374818
          86, 0.00000000e+00, 0.00000000e+00, 0.00000000e+00, 0.00000000e+00, 0.00000000e+00, 0.00000000e+00, 0.00000000e+00, 0.00000000e+00, 0.00000000e+00, 0.00000000e+00, 0.00000000e+00, 0.00000000e+00, -3.17658119e+00, -1.11325872e+00, -2.22953618e-01, 2.29090732e+00, 0.00000000e+00, 5.0000000000, 5.0000000000, 0.0947402159
          87, 0.00000000e+00, 0.00000000e+00, 0.00000000e+00, 0.00000000e+00, 0.00000000e+00, 0.00000000e+00, 0.00000000e+00, 0.00000000e+00, 0.00000000e+00, 0.00000000e+00, 0.00000000e+00, 0.00000000e+00, -3.17253345e+00, -1.10532904e+00, -2.23579079e-01, 2.29538292e+00, 0.00000000e+00, 5.0000000000, 5.0000000000, 0.0957378317
          88, 0.00000000e+00, 0.00000000e+00, 0.00000000e+00, 0.00000000e+00, 0.00000000e+00, 0.00000000e+00, 0.00000000e+00, 0.00000000e+00, 0.00000000e+00, 0.00000000e+00, 0.00000000e+00, 0.00000000e+00, -3.17191335e+00, -1.08907130e+00, -2.24196797e-01, 2.29643881e+00, 0.00000000e+00, 5.0000000000, 5.0000000000, 0.0968398953
          89, 0.00000000e+00, 0.00000000e+00, 0.00000000e+00, 0.00000000e+00, 0.00000000e+00, 0.00000000e+00, 0.00000000e+00, 0.00000000e+00, 0.00000000e+00, 0.00000000e+00, 0.00000000e+00, 0.00000000e+00, -3.17458070e+00, -1.06661908e+00, -2.24806854e-01, 2.29422422e+00, 0.00000000e+00, 5.0000000000, 5.0000000000, 0.0978512780