/*--------------------------------*- C++ -*----------------------------------*\
  =========                 |
  \\      /  F ield         | OpenFOAM: The Open Source CFD Toolbox
   \\    /   O peration     | Website:  https://openfoam.org
    \\  /    A nd           | Version:  6
     \\/     M anipulation  |
\*---------------------------------------------------------------------------*/
FoamFile
{
    version     2.0;
    format      ascii;
    class       volScalarField;
    location    "20";
    object      p;
}
// * * * * * * * * * * * * * * * * * * * * * * * * * * * * * * * * * * * * * //

dimensions      [0 2 -2 0 0 0 0];

internalField   nonuniform List<scalar> 
4000
(
-2.39062e-09
-2.38213e-09
-2.3514e-09
-2.33717e-09
-2.33108e-09
-2.3168e-09
-2.31747e-09
-2.32084e-09
-2.30747e-09
-2.30478e-09
-2.30467e-09
-2.28725e-09
-2.25886e-09
-2.26093e-09
-2.25762e-09
-2.23401e-09
-2.19402e-09
-2.1467e-09
-2.11978e-09
-2.09582e-09
-2.08095e-09
-2.07835e-09
-2.06524e-09
-2.04306e-09
-2.03194e-09
-2.02478e-09
-2.01483e-09
-1.98617e-09
-1.96538e-09
-1.96667e-09
-1.94711e-09
-1.92753e-09
-1.91106e-09
-1.88479e-09
-1.87474e-09
-1.85777e-09
-1.83512e-09
-1.80233e-09
-1.76146e-09
-1.73395e-09
-1.71338e-09
-1.70275e-09
-1.68891e-09
-1.67628e-09
-1.67271e-09
-1.66349e-09
-1.6476e-09
-1.63059e-09
-1.60458e-09
-1.56401e-09
-1.53086e-09
-1.50988e-09
-1.48429e-09
-1.45497e-09
-1.41423e-09
-1.36491e-09
-1.33449e-09
-1.31147e-09
-1.29028e-09
-1.26543e-09
-1.23527e-09
-1.23378e-09
-1.23825e-09
-1.24104e-09
-1.22098e-09
-1.20694e-09
-1.1968e-09
-1.18936e-09
-1.17718e-09
-1.14657e-09
-1.12127e-09
-1.11096e-09
-1.09703e-09
-1.07508e-09
-1.04546e-09
-1.00526e-09
-9.78666e-10
-9.50339e-10
-9.45492e-10
-9.38366e-10
-9.1901e-10
-9.15117e-10
-9.10806e-10
-9.11473e-10
-9.09671e-10
-9.03351e-10
-8.98983e-10
-8.9277e-10
-8.85665e-10
-8.71313e-10
-8.5155e-10
-8.3048e-10
-8.03242e-10
-7.92908e-10
-7.68971e-10
-7.46486e-10
-7.22232e-10
-7.09697e-10
-6.94356e-10
-6.67805e-10
-6.30314e-10
-6.06073e-10
-5.77601e-10
-5.59174e-10
-5.32043e-10
-5.05706e-10
-4.78584e-10
-4.58157e-10
-4.32023e-10
-4.16516e-10
-4.04207e-10
-3.97857e-10
-3.98518e-10
-3.98887e-10
-4.00739e-10
-3.93863e-10
-3.87369e-10
-3.95289e-10
-3.9759e-10
-3.96112e-10
-3.86695e-10
-3.83325e-10
-3.85304e-10
-3.94523e-10
-3.93208e-10
-3.85684e-10
-3.68631e-10
-3.59218e-10
-3.53353e-10
-3.62568e-10
-3.64971e-10
-3.38439e-10
-3.17678e-10
-3.30554e-10
-3.30163e-10
-3.13942e-10
-2.94012e-10
-2.81131e-10
-2.59856e-10
-2.3946e-10
-2.28924e-10
-2.33496e-10
-2.23433e-10
-2.01759e-10
-1.94247e-10
-1.88097e-10
-1.90583e-10
-1.78261e-10
-1.56305e-10
-1.64365e-10
-1.64016e-10
-1.58692e-10
-1.53016e-10
-1.71623e-10
-1.72501e-10
-1.74172e-10
-1.79516e-10
-1.76334e-10
-1.72426e-10
-1.58702e-10
-1.35257e-10
-1.3511e-10
-1.27543e-10
-1.23511e-10
-1.19472e-10
-9.93713e-11
-7.15152e-11
-4.17598e-11
-1.79599e-11
-2.0685e-13
1.31529e-11
2.0103e-11
3.01968e-11
3.12401e-11
3.62505e-11
3.32798e-11
3.3193e-11
3.77698e-11
3.88499e-11
4.20439e-11
4.54365e-11
4.5423e-11
4.34952e-11
5.81852e-11
6.61182e-11
7.57005e-11
8.38652e-11
7.00233e-11
5.49901e-11
5.19364e-11
4.88321e-11
3.9846e-11
4.31769e-11
4.32981e-11
3.08869e-11
1.89189e-11
1.56419e-11
1.64104e-11
9.09863e-12
2.25203e-12
-2.40842e-09
-2.38472e-09
-2.36333e-09
-2.34986e-09
-2.34255e-09
-2.33061e-09
-2.31349e-09
-2.31254e-09
-2.30754e-09
-2.30108e-09
-2.31114e-09
-2.29629e-09
-2.26712e-09
-2.2662e-09
-2.25905e-09
-2.24147e-09
-2.18669e-09
-2.14033e-09
-2.11837e-09
-2.09058e-09
-2.06592e-09
-2.04819e-09
-2.03992e-09
-2.02396e-09
-2.02714e-09
-2.01503e-09
-2.00069e-09
-1.98456e-09
-1.96839e-09
-1.96723e-09
-1.95409e-09
-1.93656e-09
-1.91639e-09
-1.88751e-09
-1.88731e-09
-1.88149e-09
-1.84447e-09
-1.79994e-09
-1.7608e-09
-1.74212e-09
-1.72512e-09
-1.71471e-09
-1.69654e-09
-1.68756e-09
-1.67609e-09
-1.66027e-09
-1.64675e-09
-1.62837e-09
-1.60337e-09
-1.56905e-09
-1.53344e-09
-1.50157e-09
-1.47971e-09
-1.44496e-09
-1.40248e-09
-1.36633e-09
-1.33807e-09
-1.3094e-09
-1.28632e-09
-1.26143e-09
-1.23712e-09
-1.22235e-09
-1.21921e-09
-1.22316e-09
-1.20479e-09
-1.19816e-09
-1.18526e-09
-1.17919e-09
-1.1643e-09
-1.14241e-09
-1.12468e-09
-1.10456e-09
-1.08978e-09
-1.07609e-09
-1.04675e-09
-1.0136e-09
-1.00045e-09
-9.69956e-10
-9.46888e-10
-9.27715e-10
-9.21333e-10
-9.28871e-10
-9.12664e-10
-9.19957e-10
-9.08142e-10
-9.069e-10
-9.16092e-10
-9.02174e-10
-8.83912e-10
-8.70278e-10
-8.59493e-10
-8.46788e-10
-8.12679e-10
-7.91585e-10
-7.76938e-10
-7.53688e-10
-7.28596e-10
-7.12949e-10
-6.88271e-10
-6.62313e-10
-6.32636e-10
-6.03773e-10
-5.78045e-10
-5.61541e-10
-5.34241e-10
-5.00306e-10
-4.77253e-10
-4.55264e-10
-4.19607e-10
-3.9059e-10
-3.85804e-10
-3.94846e-10
-3.8028e-10
-3.84193e-10
-3.96357e-10
-3.89473e-10
-3.90691e-10
-3.81682e-10
-3.79115e-10
-3.97149e-10
-3.87589e-10
-3.81526e-10
-3.8404e-10
-3.88593e-10
-3.92537e-10
-3.83802e-10
-3.64187e-10
-3.63743e-10
-3.47611e-10
-3.66059e-10
-3.66868e-10
-3.33744e-10
-3.1671e-10
-3.35424e-10
-3.36757e-10
-3.1707e-10
-2.98419e-10
-2.93648e-10
-2.68178e-10
-2.45603e-10
-2.28458e-10
-2.32386e-10
-2.25858e-10
-2.01397e-10
-1.90511e-10
-2.00225e-10
-1.99616e-10
-1.84895e-10
-1.68257e-10
-1.61777e-10
-1.48169e-10
-1.41134e-10
-1.55726e-10
-1.61003e-10
-1.64666e-10
-1.61303e-10
-1.79713e-10
-1.80412e-10
-1.69362e-10
-1.45768e-10
-1.41829e-10
-1.47425e-10
-1.33423e-10
-1.21166e-10
-1.08202e-10
-1.12013e-10
-7.01854e-11
-3.1892e-11
-7.98056e-12
9.4682e-12
2.1577e-11
2.32466e-11
3.78146e-11
5.02998e-11
5.51449e-11
3.33729e-11
1.83526e-11
2.58397e-11
4.3777e-11
5.83526e-11
5.16889e-11
3.0355e-11
3.56146e-11
5.00269e-11
6.31719e-11
7.12067e-11
7.24703e-11
7.82291e-11
8.29202e-11
6.29824e-11
3.97396e-11
3.51884e-11
3.97372e-11
3.70143e-11
3.25373e-11
2.25572e-11
1.70558e-11
1.65843e-11
4.36718e-12
5.51112e-13
-2.40231e-09
-2.39465e-09
-2.37685e-09
-2.3619e-09
-2.36081e-09
-2.35243e-09
-2.32742e-09
-2.31728e-09
-2.30615e-09
-2.30471e-09
-2.31088e-09
-2.2965e-09
-2.26649e-09
-2.26684e-09
-2.2617e-09
-2.23349e-09
-2.19636e-09
-2.14668e-09
-2.11252e-09
-2.08695e-09
-2.05028e-09
-2.02382e-09
-2.01309e-09
-2.01713e-09
-2.01273e-09
-2.00282e-09
-1.9971e-09
-1.9834e-09
-1.97329e-09
-1.97159e-09
-1.96206e-09
-1.95028e-09
-1.92632e-09
-1.90657e-09
-1.90161e-09
-1.88567e-09
-1.83537e-09
-1.78878e-09
-1.75327e-09
-1.75134e-09
-1.73826e-09
-1.72793e-09
-1.70842e-09
-1.69737e-09
-1.68638e-09
-1.67321e-09
-1.65152e-09
-1.62726e-09
-1.60256e-09
-1.56397e-09
-1.54807e-09
-1.51449e-09
-1.48124e-09
-1.43738e-09
-1.38929e-09
-1.36448e-09
-1.33556e-09
-1.30268e-09
-1.27726e-09
-1.25542e-09
-1.22763e-09
-1.20162e-09
-1.20498e-09
-1.21046e-09
-1.19564e-09
-1.18171e-09
-1.17503e-09
-1.17046e-09
-1.15897e-09
-1.14079e-09
-1.1179e-09
-1.09973e-09
-1.08184e-09
-1.06884e-09
-1.04956e-09
-1.01474e-09
-9.98736e-10
-9.86281e-10
-9.61616e-10
-9.46222e-10
-9.33384e-10
-9.36543e-10
-9.20869e-10
-9.26435e-10
-9.19569e-10
-9.16439e-10
-9.16535e-10
-9.17364e-10
-9.05977e-10
-8.77754e-10
-8.54038e-10
-8.46418e-10
-8.04655e-10
-8.03735e-10
-7.80683e-10
-7.61241e-10
-7.30525e-10
-7.04703e-10
-6.90492e-10
-6.62889e-10
-6.3107e-10
-5.96535e-10
-5.66951e-10
-5.62914e-10
-5.31995e-10
-4.91206e-10
-4.72647e-10
-4.65284e-10
-4.2873e-10
-3.93344e-10
-3.79494e-10
-3.83394e-10
-3.61648e-10
-3.78308e-10
-3.72882e-10
-3.65926e-10
-3.89523e-10
-3.79953e-10
-3.70147e-10
-3.91247e-10
-3.918e-10
-3.89287e-10
-3.94213e-10
-3.84465e-10
-3.86212e-10
-3.76357e-10
-3.63982e-10
-3.54541e-10
-3.60318e-10
-3.63684e-10
-3.53245e-10
-3.42117e-10
-3.26345e-10
-3.34581e-10
-3.39598e-10
-3.37247e-10
-3.16249e-10
-2.94984e-10
-2.68695e-10
-2.56721e-10
-2.48465e-10
-2.46834e-10
-2.2593e-10
-2.11872e-10
-1.98551e-10
-1.87692e-10
-1.80283e-10
-1.78988e-10
-1.70111e-10
-1.59891e-10
-1.30491e-10
-1.38142e-10
-1.52864e-10
-1.47736e-10
-1.52915e-10
-1.48104e-10
-1.58798e-10
-1.83878e-10
-1.83021e-10
-1.51913e-10
-1.45166e-10
-1.50392e-10
-1.38112e-10
-1.21108e-10
-1.09988e-10
-1.06982e-10
-7.42484e-11
-4.3245e-11
-7.65172e-12
1.75729e-11
1.98762e-11
2.50613e-11
4.62392e-11
6.11573e-11
6.39543e-11
4.17894e-11
2.61814e-11
2.74381e-11
4.08368e-11
4.55942e-11
3.43968e-11
2.66211e-11
1.97386e-11
4.33449e-11
6.05677e-11
7.17968e-11
7.60462e-11
8.09065e-11
9.14574e-11
6.72834e-11
3.77673e-11
3.79586e-11
3.97926e-11
4.4941e-11
4.84224e-11
2.20493e-11
6.5955e-12
2.57344e-12
-3.02979e-12
2.56106e-12
-2.40227e-09
-2.39789e-09
-2.38683e-09
-2.37561e-09
-2.36821e-09
-2.35848e-09
-2.3378e-09
-2.31753e-09
-2.30962e-09
-2.30094e-09
-2.30565e-09
-2.29515e-09
-2.25823e-09
-2.26749e-09
-2.26844e-09
-2.24009e-09
-2.19105e-09
-2.1602e-09
-2.12007e-09
-2.07796e-09
-2.03989e-09
-2.01848e-09
-2.00081e-09
-2.00775e-09
-1.98563e-09
-1.982e-09
-1.98299e-09
-1.98608e-09
-1.97665e-09
-1.97339e-09
-1.97184e-09
-1.95413e-09
-1.94064e-09
-1.93283e-09
-1.90806e-09
-1.87345e-09
-1.8341e-09
-1.79553e-09
-1.75556e-09
-1.75367e-09
-1.75024e-09
-1.74304e-09
-1.71748e-09
-1.70361e-09
-1.67918e-09
-1.66771e-09
-1.64493e-09
-1.62099e-09
-1.60452e-09
-1.55876e-09
-1.5426e-09
-1.52291e-09
-1.47784e-09
-1.41459e-09
-1.38158e-09
-1.36505e-09
-1.32601e-09
-1.2979e-09
-1.26264e-09
-1.24248e-09
-1.20907e-09
-1.19036e-09
-1.19525e-09
-1.19184e-09
-1.18241e-09
-1.17254e-09
-1.15841e-09
-1.16437e-09
-1.15272e-09
-1.13381e-09
-1.1169e-09
-1.0973e-09
-1.0858e-09
-1.07534e-09
-1.05554e-09
-1.01783e-09
-9.9816e-10
-9.93338e-10
-9.80539e-10
-9.72685e-10
-9.56039e-10
-9.45621e-10
-9.33671e-10
-9.39186e-10
-9.31689e-10
-9.2823e-10
-9.25503e-10
-9.2047e-10
-9.08864e-10
-8.80465e-10
-8.56678e-10
-8.39279e-10
-8.05855e-10
-7.96977e-10
-7.80962e-10
-7.65106e-10
-7.23269e-10
-6.98697e-10
-6.82548e-10
-6.53954e-10
-6.18594e-10
-5.81263e-10
-5.72209e-10
-5.53378e-10
-5.22913e-10
-4.98371e-10
-4.75456e-10
-4.66899e-10
-4.2634e-10
-3.89803e-10
-3.74564e-10
-3.87073e-10
-3.71654e-10
-3.64398e-10
-3.60769e-10
-3.66766e-10
-3.83888e-10
-3.80894e-10
-3.61433e-10
-3.7762e-10
-3.88033e-10
-3.867e-10
-3.88338e-10
-3.8327e-10
-3.75827e-10
-3.66766e-10
-3.60465e-10
-3.58894e-10
-3.63183e-10
-3.64718e-10
-3.60885e-10
-3.55882e-10
-3.39882e-10
-3.29111e-10
-3.43523e-10
-3.34787e-10
-3.25049e-10
-3.10772e-10
-2.83296e-10
-2.65164e-10
-2.48896e-10
-2.44003e-10
-2.27386e-10
-2.15226e-10
-1.88477e-10
-1.75666e-10
-1.70187e-10
-1.68808e-10
-1.53445e-10
-1.45663e-10
-1.3649e-10
-1.38641e-10
-1.44152e-10
-1.44062e-10
-1.40743e-10
-1.46055e-10
-1.57818e-10
-1.87074e-10
-1.7795e-10
-1.55641e-10
-1.4585e-10
-1.49002e-10
-1.38849e-10
-1.25599e-10
-1.20213e-10
-1.04881e-10
-7.26012e-11
-4.45587e-11
-1.00638e-11
2.08795e-11
1.87034e-11
2.95291e-11
3.87914e-11
4.13052e-11
4.5146e-11
3.31926e-11
3.03594e-11
2.31519e-11
2.4409e-11
2.80797e-11
1.84727e-11
2.21175e-11
2.55001e-11
3.447e-11
5.712e-11
7.91169e-11
8.24239e-11
8.3313e-11
8.56835e-11
6.46713e-11
3.87322e-11
5.65701e-11
5.65753e-11
4.59299e-11
4.33624e-11
2.59621e-11
5.24954e-12
-5.03945e-12
4.94974e-12
5.50992e-12
-2.40795e-09
-2.40865e-09
-2.39705e-09
-2.39268e-09
-2.37336e-09
-2.35967e-09
-2.34156e-09
-2.32076e-09
-2.30448e-09
-2.28283e-09
-2.28842e-09
-2.27645e-09
-2.2602e-09
-2.26061e-09
-2.25463e-09
-2.22278e-09
-2.18982e-09
-2.1658e-09
-2.11643e-09
-2.08393e-09
-2.045e-09
-2.02747e-09
-1.99812e-09
-1.99208e-09
-1.97292e-09
-1.96804e-09
-1.97838e-09
-1.9763e-09
-1.97051e-09
-1.97448e-09
-1.97514e-09
-1.94645e-09
-1.92641e-09
-1.91807e-09
-1.8955e-09
-1.87001e-09
-1.83962e-09
-1.80202e-09
-1.77961e-09
-1.77356e-09
-1.75895e-09
-1.74011e-09
-1.72677e-09
-1.70704e-09
-1.66791e-09
-1.6484e-09
-1.63643e-09
-1.61372e-09
-1.59378e-09
-1.5567e-09
-1.5359e-09
-1.51128e-09
-1.46438e-09
-1.41798e-09
-1.37846e-09
-1.35886e-09
-1.32945e-09
-1.30002e-09
-1.27149e-09
-1.24158e-09
-1.20598e-09
-1.17288e-09
-1.1855e-09
-1.19255e-09
-1.17635e-09
-1.16535e-09
-1.15231e-09
-1.16053e-09
-1.15724e-09
-1.1343e-09
-1.1267e-09
-1.09338e-09
-1.06945e-09
-1.05458e-09
-1.04454e-09
-1.01802e-09
-1.01245e-09
-1.0075e-09
-1.00085e-09
-9.81465e-10
-9.6706e-10
-9.67684e-10
-9.5495e-10
-9.5771e-10
-9.42345e-10
-9.30668e-10
-9.48381e-10
-9.37457e-10
-9.06023e-10
-8.72389e-10
-8.53786e-10
-8.29008e-10
-7.93863e-10
-7.83625e-10
-7.67298e-10
-7.51354e-10
-7.06505e-10
-6.91323e-10
-6.81949e-10
-6.38886e-10
-6.06252e-10
-5.77976e-10
-5.61723e-10
-5.52541e-10
-5.14521e-10
-4.86093e-10
-4.79372e-10
-4.81157e-10
-4.35766e-10
-3.93577e-10
-3.71527e-10
-3.83993e-10
-3.81255e-10
-3.60653e-10
-3.54225e-10
-3.58702e-10
-3.75144e-10
-3.65397e-10
-3.58693e-10
-3.68536e-10
-3.77848e-10
-3.79553e-10
-3.84546e-10
-3.79488e-10
-3.62798e-10
-3.61499e-10
-3.66488e-10
-3.61595e-10
-3.71734e-10
-3.70547e-10
-3.60236e-10
-3.60172e-10
-3.56504e-10
-3.57289e-10
-3.52742e-10
-3.34382e-10
-3.22926e-10
-3.04085e-10
-2.84254e-10
-2.61011e-10
-2.51285e-10
-2.31278e-10
-2.18881e-10
-2.10914e-10
-1.91726e-10
-1.64656e-10
-1.49897e-10
-1.47664e-10
-1.46559e-10
-1.40183e-10
-1.29657e-10
-1.39284e-10
-1.57105e-10
-1.43779e-10
-1.28839e-10
-1.42026e-10
-1.58986e-10
-1.71678e-10
-1.83926e-10
-1.60102e-10
-1.46962e-10
-1.54223e-10
-1.454e-10
-1.36077e-10
-1.18789e-10
-1.06163e-10
-7.55426e-11
-3.9318e-11
-1.48926e-11
1.76554e-11
1.84998e-11
1.98003e-11
2.38329e-11
4.32509e-11
4.42233e-11
1.84171e-11
8.36011e-12
1.6557e-11
1.02786e-11
1.86423e-11
1.40262e-11
1.61764e-11
1.92805e-11
3.101e-11
5.41729e-11
6.88783e-11
7.4082e-11
9.08788e-11
9.35125e-11
6.46481e-11
5.2588e-11
6.49508e-11
6.35964e-11
5.27105e-11
4.80184e-11
1.38953e-11
-5.91724e-12
-8.11005e-13
-9.82628e-12
6.12278e-12
-2.41361e-09
-2.41011e-09
-2.39889e-09
-2.39765e-09
-2.38342e-09
-2.36245e-09
-2.34066e-09
-2.33324e-09
-2.30173e-09
-2.27677e-09
-2.27771e-09
-2.2656e-09
-2.25346e-09
-2.24501e-09
-2.23886e-09
-2.21075e-09
-2.18876e-09
-2.15629e-09
-2.10925e-09
-2.07717e-09
-2.04074e-09
-2.01698e-09
-1.98835e-09
-1.97717e-09
-1.97104e-09
-1.97072e-09
-1.97373e-09
-1.9616e-09
-1.96063e-09
-1.9649e-09
-1.96412e-09
-1.94602e-09
-1.92753e-09
-1.91089e-09
-1.9029e-09
-1.87886e-09
-1.85229e-09
-1.8264e-09
-1.80326e-09
-1.78464e-09
-1.77034e-09
-1.74879e-09
-1.72591e-09
-1.70224e-09
-1.66696e-09
-1.63499e-09
-1.62253e-09
-1.60752e-09
-1.58306e-09
-1.5523e-09
-1.53319e-09
-1.49897e-09
-1.46131e-09
-1.41953e-09
-1.38111e-09
-1.35777e-09
-1.32809e-09
-1.29575e-09
-1.26191e-09
-1.23706e-09
-1.21192e-09
-1.18819e-09
-1.18843e-09
-1.1931e-09
-1.17652e-09
-1.16646e-09
-1.15816e-09
-1.15793e-09
-1.14417e-09
-1.13093e-09
-1.11911e-09
-1.08299e-09
-1.06649e-09
-1.05109e-09
-1.04174e-09
-1.03e-09
-1.01936e-09
-1.01031e-09
-9.92116e-10
-9.80879e-10
-9.68838e-10
-9.79523e-10
-9.81019e-10
-9.72129e-10
-9.66415e-10
-9.64111e-10
-9.54117e-10
-9.39609e-10
-9.06638e-10
-8.74114e-10
-8.56902e-10
-8.25821e-10
-7.81553e-10
-7.61966e-10
-7.52669e-10
-7.25971e-10
-6.88865e-10
-6.81798e-10
-6.63366e-10
-6.30719e-10
-6.10939e-10
-5.91339e-10
-5.73782e-10
-5.5818e-10
-5.2841e-10
-4.98407e-10
-4.74216e-10
-4.63354e-10
-4.31932e-10
-3.95443e-10
-3.7433e-10
-3.81888e-10
-3.72723e-10
-3.76463e-10
-3.61976e-10
-3.59035e-10
-3.586e-10
-3.52756e-10
-3.60512e-10
-3.58315e-10
-3.6648e-10
-3.65354e-10
-3.78281e-10
-3.75272e-10
-3.65283e-10
-3.65551e-10
-3.69382e-10
-3.71212e-10
-3.68155e-10
-3.77278e-10
-3.81694e-10
-3.82138e-10
-3.70914e-10
-3.67315e-10
-3.5245e-10
-3.35007e-10
-3.16253e-10
-3.01781e-10
-2.84813e-10
-2.64719e-10
-2.45746e-10
-2.27919e-10
-2.10664e-10
-2.0535e-10
-1.85156e-10
-1.47059e-10
-1.34562e-10
-1.41182e-10
-1.27588e-10
-1.20569e-10
-1.23393e-10
-1.34112e-10
-1.46476e-10
-1.35635e-10
-1.30829e-10
-1.36161e-10
-1.49731e-10
-1.72483e-10
-1.73887e-10
-1.62511e-10
-1.68768e-10
-1.56829e-10
-1.4655e-10
-1.33829e-10
-1.19561e-10
-1.03357e-10
-7.02359e-11
-4.43573e-11
-1.42984e-11
5.95358e-14
7.64374e-12
6.48435e-12
1.85617e-11
2.55328e-11
2.3149e-11
1.73795e-11
1.04842e-11
5.60894e-12
9.50554e-12
1.58236e-11
1.00937e-11
9.68473e-12
2.00924e-11
3.41994e-11
4.97692e-11
5.3765e-11
6.81455e-11
8.36462e-11
8.02509e-11
7.18765e-11
5.48632e-11
6.84684e-11
6.37378e-11
5.02925e-11
4.14954e-11
1.31167e-11
-2.15658e-13
-5.49723e-12
-7.45342e-12
4.335e-12
-2.41616e-09
-2.41816e-09
-2.40701e-09
-2.40664e-09
-2.39111e-09
-2.36393e-09
-2.34798e-09
-2.33471e-09
-2.30481e-09
-2.27563e-09
-2.27412e-09
-2.25359e-09
-2.23229e-09
-2.22995e-09
-2.22045e-09
-2.20148e-09
-2.16971e-09
-2.15073e-09
-2.10176e-09
-2.05984e-09
-2.04054e-09
-2.01405e-09
-1.9867e-09
-1.96962e-09
-1.97184e-09
-1.97699e-09
-1.95551e-09
-1.95718e-09
-1.96462e-09
-1.969e-09
-1.97125e-09
-1.93278e-09
-1.91569e-09
-1.91563e-09
-1.90408e-09
-1.88036e-09
-1.86444e-09
-1.84094e-09
-1.81535e-09
-1.79274e-09
-1.78683e-09
-1.75708e-09
-1.73311e-09
-1.7094e-09
-1.66952e-09
-1.64107e-09
-1.6195e-09
-1.59894e-09
-1.57498e-09
-1.54821e-09
-1.53295e-09
-1.49543e-09
-1.46681e-09
-1.42802e-09
-1.38273e-09
-1.35251e-09
-1.33017e-09
-1.29633e-09
-1.26747e-09
-1.25499e-09
-1.22745e-09
-1.1865e-09
-1.19611e-09
-1.20016e-09
-1.19003e-09
-1.17516e-09
-1.16082e-09
-1.16207e-09
-1.14553e-09
-1.12751e-09
-1.11152e-09
-1.0838e-09
-1.06542e-09
-1.05535e-09
-1.04073e-09
-1.0271e-09
-1.012e-09
-1.00507e-09
-9.94865e-10
-9.77856e-10
-9.70079e-10
-9.81485e-10
-9.88942e-10
-9.86282e-10
-9.82677e-10
-9.8396e-10
-9.51315e-10
-9.40784e-10
-9.20818e-10
-8.81335e-10
-8.60874e-10
-8.22897e-10
-7.88847e-10
-7.61933e-10
-7.49701e-10
-7.13434e-10
-6.81747e-10
-6.70319e-10
-6.49717e-10
-6.36334e-10
-6.20799e-10
-6.01482e-10
-5.86004e-10
-5.68319e-10
-5.31402e-10
-4.86148e-10
-4.64786e-10
-4.53681e-10
-4.24334e-10
-3.91355e-10
-3.66812e-10
-3.68428e-10
-3.7615e-10
-3.65933e-10
-3.62847e-10
-3.59919e-10
-3.50691e-10
-3.51648e-10
-3.61709e-10
-3.67615e-10
-3.72307e-10
-3.73207e-10
-3.85746e-10
-3.81523e-10
-3.72749e-10
-3.70645e-10
-3.72826e-10
-3.7157e-10
-3.7842e-10
-3.91812e-10
-3.91345e-10
-3.86004e-10
-3.75053e-10
-3.71768e-10
-3.62663e-10
-3.4904e-10
-3.24386e-10
-3.03355e-10
-2.94695e-10
-2.73823e-10
-2.4136e-10
-2.27122e-10
-2.05215e-10
-1.9671e-10
-1.76063e-10
-1.40858e-10
-1.21415e-10
-1.21045e-10
-1.15343e-10
-1.17216e-10
-1.08205e-10
-1.20836e-10
-1.3721e-10
-1.37036e-10
-1.2834e-10
-1.36107e-10
-1.48933e-10
-1.5955e-10
-1.6986e-10
-1.70405e-10
-1.63746e-10
-1.53203e-10
-1.46796e-10
-1.32274e-10
-1.17561e-10
-9.18957e-11
-6.81423e-11
-6.25363e-11
-3.8962e-11
-2.24111e-11
-3.2568e-12
-1.79748e-12
3.17363e-12
1.61676e-11
1.37636e-11
1.43733e-11
1.01773e-11
3.36143e-12
5.11281e-12
1.1902e-11
1.29809e-11
1.26973e-11
1.78536e-11
3.60706e-11
4.23589e-11
5.07338e-11
6.27264e-11
7.13427e-11
6.97662e-11
6.33235e-11
5.85495e-11
5.97707e-11
6.29287e-11
5.07449e-11
3.70973e-11
2.05321e-11
7.64246e-12
-5.30379e-12
-6.11318e-12
3.40681e-12
-2.41332e-09
-2.41928e-09
-2.41132e-09
-2.40184e-09
-2.38876e-09
-2.36668e-09
-2.35184e-09
-2.33375e-09
-2.30484e-09
-2.27959e-09
-2.26793e-09
-2.23525e-09
-2.22348e-09
-2.22196e-09
-2.19683e-09
-2.18463e-09
-2.15896e-09
-2.12788e-09
-2.09574e-09
-2.05805e-09
-2.03801e-09
-2.01243e-09
-1.98819e-09
-1.97195e-09
-1.9765e-09
-1.98206e-09
-1.96477e-09
-1.95299e-09
-1.9554e-09
-1.96603e-09
-1.96988e-09
-1.93855e-09
-1.91738e-09
-1.91374e-09
-1.90606e-09
-1.8855e-09
-1.86181e-09
-1.84629e-09
-1.81951e-09
-1.80073e-09
-1.78721e-09
-1.7667e-09
-1.73734e-09
-1.71017e-09
-1.68418e-09
-1.64949e-09
-1.61598e-09
-1.59363e-09
-1.57366e-09
-1.55459e-09
-1.52798e-09
-1.48937e-09
-1.46256e-09
-1.42963e-09
-1.39938e-09
-1.34685e-09
-1.31866e-09
-1.2952e-09
-1.2781e-09
-1.25754e-09
-1.23606e-09
-1.2134e-09
-1.20699e-09
-1.20516e-09
-1.20143e-09
-1.17506e-09
-1.16627e-09
-1.15832e-09
-1.14218e-09
-1.13249e-09
-1.09118e-09
-1.09118e-09
-1.0869e-09
-1.06151e-09
-1.04696e-09
-1.03564e-09
-1.02197e-09
-1.0101e-09
-9.91845e-10
-9.83771e-10
-9.8137e-10
-9.90876e-10
-9.92685e-10
-9.97369e-10
-9.90521e-10
-9.70982e-10
-9.51723e-10
-9.43605e-10
-9.22223e-10
-8.79859e-10
-8.54621e-10
-8.2393e-10
-7.89217e-10
-7.65087e-10
-7.39658e-10
-7.01867e-10
-6.73538e-10
-6.63047e-10
-6.58519e-10
-6.50091e-10
-6.25969e-10
-6.12839e-10
-5.9388e-10
-5.64822e-10
-5.35639e-10
-4.95926e-10
-4.52513e-10
-4.24168e-10
-4.11807e-10
-4.01306e-10
-3.84028e-10
-3.61136e-10
-3.67327e-10
-3.70074e-10
-3.635e-10
-3.51172e-10
-3.45283e-10
-3.58844e-10
-3.74227e-10
-3.8772e-10
-3.84487e-10
-3.86139e-10
-3.99211e-10
-3.98691e-10
-3.899e-10
-3.77004e-10
-3.76202e-10
-3.82556e-10
-3.91954e-10
-4.0388e-10
-3.90906e-10
-3.80034e-10
-3.76559e-10
-3.70436e-10
-3.79941e-10
-3.54267e-10
-3.17572e-10
-2.98406e-10
-2.8714e-10
-2.83362e-10
-2.47066e-10
-2.00919e-10
-1.83997e-10
-1.80733e-10
-1.64038e-10
-1.26112e-10
-1.02509e-10
-1.16343e-10
-1.19722e-10
-1.194e-10
-1.02631e-10
-1.1153e-10
-1.31732e-10
-1.43536e-10
-1.41454e-10
-1.33964e-10
-1.38107e-10
-1.53042e-10
-1.66967e-10
-1.80235e-10
-1.60486e-10
-1.42684e-10
-1.4141e-10
-1.32332e-10
-1.22795e-10
-9.6749e-11
-7.56733e-11
-7.06375e-11
-5.97548e-11
-3.99878e-11
-1.82593e-11
-9.06187e-12
-3.37611e-12
2.82767e-12
5.79605e-12
9.87978e-13
2.90102e-12
8.91129e-13
4.76143e-12
7.86122e-12
1.31746e-11
1.95895e-11
2.06784e-11
3.18131e-11
3.72214e-11
3.85996e-11
5.62888e-11
6.73615e-11
5.88967e-11
5.95817e-11
4.93891e-11
5.81315e-11
6.15853e-11
4.21628e-11
3.74895e-11
2.00843e-11
1.8567e-11
1.78624e-11
7.63049e-12
7.22146e-12
-2.41012e-09
-2.41851e-09
-2.40716e-09
-2.3963e-09
-2.38671e-09
-2.35938e-09
-2.34797e-09
-2.33713e-09
-2.31172e-09
-2.28525e-09
-2.26062e-09
-2.22157e-09
-2.20922e-09
-2.2147e-09
-2.19507e-09
-2.16884e-09
-2.14423e-09
-2.11398e-09
-2.0937e-09
-2.06607e-09
-2.04753e-09
-2.02148e-09
-1.99822e-09
-1.97592e-09
-1.97375e-09
-1.97525e-09
-1.97094e-09
-1.95793e-09
-1.95183e-09
-1.96479e-09
-1.9642e-09
-1.94747e-09
-1.92989e-09
-1.91585e-09
-1.89957e-09
-1.8794e-09
-1.8605e-09
-1.83713e-09
-1.81801e-09
-1.80308e-09
-1.78237e-09
-1.76908e-09
-1.7327e-09
-1.70555e-09
-1.67766e-09
-1.64443e-09
-1.60814e-09
-1.59523e-09
-1.56192e-09
-1.54395e-09
-1.52764e-09
-1.49079e-09
-1.46393e-09
-1.42839e-09
-1.39368e-09
-1.35352e-09
-1.32295e-09
-1.30181e-09
-1.29046e-09
-1.25652e-09
-1.2503e-09
-1.24767e-09
-1.21524e-09
-1.19664e-09
-1.19409e-09
-1.18616e-09
-1.17167e-09
-1.15993e-09
-1.15275e-09
-1.13845e-09
-1.11301e-09
-1.09809e-09
-1.08256e-09
-1.06614e-09
-1.05674e-09
-1.05049e-09
-1.02626e-09
-1.01102e-09
-9.92601e-10
-9.74592e-10
-9.72109e-10
-9.90565e-10
-9.84783e-10
-9.82481e-10
-9.78599e-10
-9.49757e-10
-9.32734e-10
-9.3368e-10
-8.96651e-10
-8.72198e-10
-8.49738e-10
-8.19429e-10
-7.87566e-10
-7.61513e-10
-7.27727e-10
-6.87871e-10
-6.80217e-10
-6.75827e-10
-6.63015e-10
-6.51848e-10
-6.303e-10
-6.21089e-10
-5.94952e-10
-5.54088e-10
-5.12329e-10
-4.87338e-10
-4.56081e-10
-4.33929e-10
-4.12222e-10
-4.04395e-10
-3.93992e-10
-3.76998e-10
-3.69671e-10
-3.74748e-10
-3.55322e-10
-3.4897e-10
-3.51064e-10
-3.49005e-10
-3.64554e-10
-3.90387e-10
-3.87628e-10
-3.83924e-10
-3.86948e-10
-4.03572e-10
-4.09669e-10
-3.98924e-10
-3.93726e-10
-3.94183e-10
-3.97293e-10
-3.98551e-10
-3.98455e-10
-3.9002e-10
-3.79166e-10
-3.75066e-10
-3.75825e-10
-3.53633e-10
-3.2402e-10
-2.98373e-10
-2.86693e-10
-2.74724e-10
-2.41306e-10
-1.99079e-10
-1.66728e-10
-1.7039e-10
-1.43838e-10
-1.11191e-10
-1.04618e-10
-1.13569e-10
-1.23036e-10
-1.20154e-10
-1.08892e-10
-1.23345e-10
-1.48224e-10
-1.44609e-10
-1.32479e-10
-1.312e-10
-1.35872e-10
-1.4979e-10
-1.7025e-10
-1.60138e-10
-1.42195e-10
-1.44676e-10
-1.52473e-10
-1.31935e-10
-1.22899e-10
-1.08209e-10
-9.54047e-11
-7.87362e-11
-6.23144e-11
-5.60257e-11
-4.54509e-11
-2.53189e-11
-1.0625e-11
-2.97984e-12
8.54529e-12
-6.1237e-12
2.43703e-12
1.79434e-11
2.10296e-11
3.4472e-11
2.43329e-11
1.74393e-11
2.42922e-11
2.99185e-11
3.62794e-11
3.97633e-11
4.94043e-11
5.47077e-11
5.05284e-11
5.8551e-11
6.05942e-11
6.68039e-11
6.193e-11
3.92033e-11
2.7289e-11
2.33793e-11
2.57474e-11
1.8481e-11
6.31889e-12
2.91541e-12
-2.40141e-09
-2.41359e-09
-2.39613e-09
-2.38424e-09
-2.375e-09
-2.35479e-09
-2.34532e-09
-2.33327e-09
-2.31386e-09
-2.2866e-09
-2.2657e-09
-2.23045e-09
-2.20155e-09
-2.20099e-09
-2.18818e-09
-2.15878e-09
-2.13831e-09
-2.11746e-09
-2.08816e-09
-2.06389e-09
-2.04503e-09
-2.02485e-09
-2.00522e-09
-1.98855e-09
-1.98243e-09
-1.97941e-09
-1.97206e-09
-1.95608e-09
-1.94065e-09
-1.95135e-09
-1.94944e-09
-1.9592e-09
-1.9478e-09
-1.92631e-09
-1.90288e-09
-1.87743e-09
-1.86025e-09
-1.83365e-09
-1.81962e-09
-1.81308e-09
-1.78024e-09
-1.76435e-09
-1.73141e-09
-1.69884e-09
-1.67564e-09
-1.63346e-09
-1.60745e-09
-1.58429e-09
-1.54725e-09
-1.52777e-09
-1.52214e-09
-1.49007e-09
-1.45728e-09
-1.42582e-09
-1.40288e-09
-1.36976e-09
-1.33757e-09
-1.31741e-09
-1.30112e-09
-1.2755e-09
-1.2577e-09
-1.23483e-09
-1.22846e-09
-1.21628e-09
-1.20555e-09
-1.19003e-09
-1.18354e-09
-1.16917e-09
-1.15271e-09
-1.14907e-09
-1.13558e-09
-1.10743e-09
-1.07617e-09
-1.07034e-09
-1.07107e-09
-1.04665e-09
-1.0171e-09
-1.00541e-09
-9.8567e-10
-9.82384e-10
-9.67931e-10
-9.71625e-10
-9.77235e-10
-9.69707e-10
-9.5172e-10
-9.26817e-10
-9.04853e-10
-9.15968e-10
-8.83894e-10
-8.50427e-10
-8.26511e-10
-8.00974e-10
-7.92952e-10
-7.70218e-10
-7.1955e-10
-6.93704e-10
-6.8348e-10
-6.81183e-10
-6.73021e-10
-6.51407e-10
-6.28506e-10
-6.07216e-10
-5.95236e-10
-5.59131e-10
-5.07097e-10
-4.81874e-10
-4.5125e-10
-4.49111e-10
-4.44699e-10
-4.09571e-10
-3.95498e-10
-3.84953e-10
-3.87248e-10
-3.76659e-10
-3.59924e-10
-3.57999e-10
-3.54153e-10
-3.51618e-10
-3.73733e-10
-3.8726e-10
-3.88949e-10
-3.85744e-10
-3.86984e-10
-4.03728e-10
-4.14104e-10
-4.1054e-10
-4.02533e-10
-4.04693e-10
-4.04176e-10
-4.02497e-10
-4.0232e-10
-3.84607e-10
-3.76609e-10
-3.72425e-10
-3.58918e-10
-3.40969e-10
-3.22534e-10
-3.01814e-10
-2.78214e-10
-2.58531e-10
-2.30699e-10
-1.9002e-10
-1.62798e-10
-1.57461e-10
-1.32185e-10
-1.10567e-10
-1.1103e-10
-1.17343e-10
-1.33145e-10
-1.38111e-10
-1.29209e-10
-1.33796e-10
-1.44732e-10
-1.46652e-10
-1.33063e-10
-1.42235e-10
-1.41768e-10
-1.51304e-10
-1.62092e-10
-1.49886e-10
-1.43438e-10
-1.49906e-10
-1.50061e-10
-1.38545e-10
-1.26332e-10
-1.17984e-10
-1.13038e-10
-8.99966e-11
-8.00361e-11
-6.06013e-11
-4.99652e-11
-3.61933e-11
-3.04697e-11
-1.92434e-11
-3.58574e-12
-4.08702e-12
1.04085e-11
2.65622e-11
2.22057e-11
3.78877e-11
1.53814e-11
9.62854e-12
1.85691e-11
2.99572e-11
3.93209e-11
3.10361e-11
4.60356e-11
7.08465e-11
5.87899e-11
6.06877e-11
6.85519e-11
7.65809e-11
6.27777e-11
4.94295e-11
4.366e-11
2.83088e-11
2.41037e-11
2.19066e-11
1.82419e-11
1.75007e-11
-2.38057e-09
-2.40858e-09
-2.39272e-09
-2.36795e-09
-2.37035e-09
-2.34228e-09
-2.32015e-09
-2.32255e-09
-2.30745e-09
-2.28129e-09
-2.25483e-09
-2.22864e-09
-2.2024e-09
-2.19457e-09
-2.18096e-09
-2.1488e-09
-2.13246e-09
-2.11611e-09
-2.08509e-09
-2.08187e-09
-2.05813e-09
-2.03584e-09
-2.01748e-09
-1.997e-09
-1.99678e-09
-1.99024e-09
-1.98099e-09
-1.96546e-09
-1.94485e-09
-1.93646e-09
-1.95769e-09
-1.96189e-09
-1.95961e-09
-1.9313e-09
-1.90711e-09
-1.88463e-09
-1.86337e-09
-1.84112e-09
-1.81913e-09
-1.80347e-09
-1.78087e-09
-1.75526e-09
-1.72236e-09
-1.68745e-09
-1.65038e-09
-1.62149e-09
-1.60449e-09
-1.56852e-09
-1.5425e-09
-1.51542e-09
-1.51289e-09
-1.48379e-09
-1.45435e-09
-1.42199e-09
-1.40914e-09
-1.37193e-09
-1.34017e-09
-1.3176e-09
-1.30313e-09
-1.28926e-09
-1.27535e-09
-1.25312e-09
-1.23279e-09
-1.21791e-09
-1.21833e-09
-1.20098e-09
-1.18932e-09
-1.17586e-09
-1.16172e-09
-1.14537e-09
-1.13026e-09
-1.10991e-09
-1.08802e-09
-1.07684e-09
-1.07133e-09
-1.04626e-09
-1.02256e-09
-9.99227e-10
-9.82106e-10
-9.66448e-10
-9.53823e-10
-9.5264e-10
-9.61554e-10
-9.49124e-10
-9.36618e-10
-9.14434e-10
-8.97306e-10
-8.94589e-10
-8.75441e-10
-8.3587e-10
-8.02738e-10
-7.88409e-10
-7.84478e-10
-7.63631e-10
-7.30043e-10
-6.93703e-10
-6.85923e-10
-6.849e-10
-6.7751e-10
-6.58901e-10
-6.2175e-10
-6.00009e-10
-5.93288e-10
-5.672e-10
-5.19358e-10
-4.87618e-10
-4.67583e-10
-4.55295e-10
-4.57845e-10
-4.31757e-10
-4.08097e-10
-4.01457e-10
-3.86036e-10
-3.8235e-10
-3.7081e-10
-3.67001e-10
-3.60542e-10
-3.55305e-10
-3.77268e-10
-3.96224e-10
-3.98845e-10
-3.96391e-10
-3.96177e-10
-4.21283e-10
-4.32873e-10
-4.24728e-10
-4.09453e-10
-4.12823e-10
-4.02172e-10
-4.08198e-10
-4.03477e-10
-3.8077e-10
-3.75842e-10
-3.55997e-10
-3.53264e-10
-3.3512e-10
-3.11519e-10
-2.95867e-10
-2.66461e-10
-2.43206e-10
-2.18498e-10
-1.80314e-10
-1.57663e-10
-1.46455e-10
-1.32237e-10
-1.19872e-10
-1.16338e-10
-1.37459e-10
-1.48128e-10
-1.52695e-10
-1.45989e-10
-1.41128e-10
-1.43894e-10
-1.43893e-10
-1.45202e-10
-1.43745e-10
-1.42431e-10
-1.42877e-10
-1.47e-10
-1.45489e-10
-1.39988e-10
-1.44833e-10
-1.36496e-10
-1.41052e-10
-1.24867e-10
-1.19026e-10
-1.20942e-10
-1.04626e-10
-8.94672e-11
-7.3034e-11
-5.47089e-11
-4.32284e-11
-3.59951e-11
-2.134e-11
-9.21285e-12
-2.98648e-12
6.51983e-12
2.17473e-11
2.79663e-11
3.4188e-11
2.69782e-11
2.32167e-11
2.22027e-11
2.89575e-11
3.47496e-11
2.89893e-11
4.69129e-11
6.76819e-11
6.69811e-11
7.01085e-11
7.126e-11
7.42181e-11
6.59823e-11
5.2418e-11
5.30326e-11
3.37594e-11
2.45625e-11
2.0086e-11
1.74407e-11
1.43693e-11
-2.36468e-09
-2.39276e-09
-2.38581e-09
-2.35036e-09
-2.3512e-09
-2.3309e-09
-2.31756e-09
-2.30672e-09
-2.29108e-09
-2.27327e-09
-2.25088e-09
-2.23114e-09
-2.20816e-09
-2.19399e-09
-2.18013e-09
-2.1609e-09
-2.14281e-09
-2.12594e-09
-2.09564e-09
-2.07794e-09
-2.06352e-09
-2.04099e-09
-2.03521e-09
-2.02275e-09
-1.99309e-09
-1.98773e-09
-1.99641e-09
-1.98231e-09
-1.94675e-09
-1.93376e-09
-1.95212e-09
-1.96384e-09
-1.95588e-09
-1.93071e-09
-1.90611e-09
-1.8728e-09
-1.86046e-09
-1.842e-09
-1.81664e-09
-1.79086e-09
-1.76552e-09
-1.74887e-09
-1.71629e-09
-1.67697e-09
-1.63555e-09
-1.62069e-09
-1.59698e-09
-1.56277e-09
-1.52902e-09
-1.50484e-09
-1.50519e-09
-1.47318e-09
-1.45119e-09
-1.4253e-09
-1.40539e-09
-1.37053e-09
-1.34221e-09
-1.32203e-09
-1.3071e-09
-1.30677e-09
-1.29869e-09
-1.27024e-09
-1.24094e-09
-1.22659e-09
-1.229e-09
-1.21371e-09
-1.18589e-09
-1.17835e-09
-1.16244e-09
-1.14733e-09
-1.12924e-09
-1.11263e-09
-1.08919e-09
-1.0683e-09
-1.07205e-09
-1.05061e-09
-1.01347e-09
-9.96909e-10
-9.86308e-10
-9.65987e-10
-9.63525e-10
-9.62814e-10
-9.4925e-10
-9.26335e-10
-9.22172e-10
-9.15037e-10
-8.92073e-10
-8.7705e-10
-8.52838e-10
-8.19515e-10
-7.92555e-10
-7.83738e-10
-7.75304e-10
-7.46459e-10
-7.27104e-10
-7.13974e-10
-6.96072e-10
-6.79429e-10