TITLE = "Visualization of the volumetric solution"
VARIABLES = "x","y","Density","Momentum_x","Momentum_y","Energy","Pressure","Temperature","Mach","C<sub>p</sub>","Roe_Dissipation"
ZONE NODES= 3200, ELEMENTS= 3081, DATAPACKING=POINT, ZONETYPE=FEQUADRILATERAL
-2.000000e+00	1.250000e+00	1.224953e+00	4.214211e+01	-9.411366e-12	2.539980e+05	1.013092e+05	2.881110e+02	1.011039e-01	-2.222340e-02	0.000000e+00	
-2.000000e+00	1.218354e+00	1.224953e+00	4.214211e+01	-9.773682e-10	2.539980e+05	1.013092e+05	2.881110e+02	1.011039e-01	-2.222340e-02	0.000000e+00	
-1.948718e+00	1.218354e+00	1.224953e+00	4.214211e+01	-1.620612e-09	2.539980e+05	1.013092e+05	2.881110e+02	1.011039e-01	-2.222340e-02	0.000000e+00	
-1.948718e+00	1.250000e+00	1.224953e+00	4.214211e+01	-3.351929e-10	2.539980e+05	1.013092e+05	2.881110e+02	1.011039e-01	-2.222340e-02	0.000000e+00	
-2.000000e+00	1.186709e+00	1.224953e+00	4.214211e+01	-9.250052e-10	2.539980e+05	1.013092e+05	2.881110e+02	1.011039e-01	-2.222340e-02	0.000000e+00	
-1.948718e+00	1.186709e+00	1.224953e+00	4.214211e+01	-1.799691e-09	2.539980e+05	1.013092e+05	2.881110e+02	1.011039e-01	-2.222340e-02	0.000000e+00	
-2.000000e+00	1.155063e+00	1.224953e+00	4.214211e+01	-5.734422e-10	2.539980e+05	1.013092e+05	2.881110e+02	1.011039e-01	-2.222340e-02	0.000000e+00	
-1.948718e+00	1.155063e+00	1.224953e+00	4.214211e+01	-1.607537e-09	2.539980e+05	1.013092e+05	2.881110e+02	1.011039e-01	-2.222340e-02	0.000000e+00	
-2.000000e+00	1.123418e+00	1.224953e+00	4.214211e+01	-2.469104e-10	2.539980e+05	1.013092e+05	2.881110e+02	1.011039e-01	-2.222340e-02	0.000000e+00	
-1.948718e+00	1.123418e+00	1.224953e+00	4.214211e+01	-1.247358e-09	2.539980e+05	1.013092e+05	2.881110e+02	1.011039e-01	-2.222340e-02	0.000000e+00	
-2.000000e+00	1.091772e+00	1.224953e+00	4.214211e+01	-7.706523e-11	2.539980e+05	1.013092e+05	2.881110e+02	1.011039e-01	-2.222340e-02	0.000000e+00	
-1.948718e+00	1.091772e+00	1.224953e+00	4.214211e+01	-1.006673e-09	2.539980e+05	1.013092e+05	2.881110e+02	1.011039e-01	-2.222340e-02	0.000000e+00	
-2.000000e+00	1.060127e+00	1.224953e+00	4.214211e+01	-1.692025e-11	2.539980e+05	1.013092e+05	2.881110e+02	1.011039e-01	-2.222340e-02	0.000000e+00	
-1.948718e+00	1.060127e+00	1.224953e+00	4.214211e+01	-8.633858e-10	2.539980e+05	1.013092e+05	2.881110e+02	1.011039e-01	-2.222340e-02	0.000000e+00	
-2.000000e+00	1.028481e+00	1.224953e+00	4.214211e+01	-8.268583e-12	2.539980e+05	1.013092e+05	2.881110e+02	1.011039e-01	-2.222340e-02	0.000000e+00	
-1.948718e+00	1.028481e+00	1.224953e+00	4.214211e+01	-7.948076e-10	2.539980e+05	1.013092e+05	2.881110e+02	1.011039e-01	-2.222340e-02	0.000000e+00	
-2.000000e+00	9.968354e-01	1.224953e+00	4.214211e+01	-9.131338e-12	2.539980e+05	1.013092e+05	2.881110e+02	1.011039e-01	-2.222340e-02	0.000000e+00	
-1.948718e+00	9.968354e-01	1.224953e+00	4.214211e+01	-7.462239e-10	2.539980e+05	1.013092e+05	2.881110e+02	1.011039e-01	-2.222340e-02	0.000000e+00	
-2.000000e+00	9.651899e-01	1.224953e+00	4.214211e+01	-8.767428e-12	2.539980e+05	1.013092e+05	2.881110e+02	1.011039e-01	-2.222340e-02	0.000000e+00	
-1.948718e+00	9.651899e-01	1.224953e+00	4.214211e+01	-7.044687e-10	2.539980e+05	1.013092e+05	2.881110e+02	1.011039e-01	-2.222340e-02	0.000000e+00	
-2.000000e+00	9.335443e-01	1.224953e+00	4.214211e+01	-6.242135e-12	2.539980e+05	1.013092e+05	2.881110e+02	1.011039e-01	-2.222340e-02	0.000000e+00	
-1.948718e+00	9.335443e-01	1.224953e+00	4.214211e+01	-6.614404e-10	2.539980e+05	1.013092e+05	2.881110e+02	1.011039e-01	-2.222340e-02	0.000000e+00	
-2.000000e+00	9.018987e-01	1.224953e+00	4.214211e+01	-4.585429e-12	2.539980e+05	1.013092e+05	2.881110e+02	1.011039e-01	-2.222340e-02	0.000000e+00	
-1.948718e+00	9.018987e-01	1.224953e+00	4.214211e+01	-6.207155e-10	2.539980e+05	1.013092e+05	2.881110e+02	1.011039e-01	-2.222340e-02	0.000000e+00	
-2.000000e+00	8.702532e-01	1.224953e+00	4.214211e+01	-4.042844e-12	2.539980e+05	1.013092e+05	2.881110e+02	1.011039e-01	-2.222340e-02	0.000000e+00	
-1.948718e+00	8.702532e-01	1.224953e+00	4.214211e+01	-5.817529e-10	2.539980e+05	1.013092e+05	2.881110e+02	1.011039e-01	-2.222340e-02	0.000000e+00	
-2.000000e+00	8.386076e-01	1.224953e+00	4.214211e+01	-4.494472e-12	2.539980e+05	1.013092e+05	2.881110e+02	1.011039e-01	-2.222340e-02	0.000000e+00	
-1.948718e+00	8.386076e-01	1.224953e+00	4.214211e+01	-5.451488e-10	2.539980e+05	1.013092e+05	2.881110e+02	1.011039e-01	-2.222340e-02	0.000000e+00	
-2.000000e+00	8.069620e-01	1.224953e+00	4.214211e+01	-5.272352e-12	2.539980e+05	1.013092e+05	2.881110e+02	1.011039e-01	-2.222340e-02	0.000000e+00	
-1.948718e+00	8.069620e-01	1.224953e+00	4.214211e+01	-5.096958e-10	2.539980e+05	1.013092e+05	2.881110e+02	1.011039e-01	-2.222341e-02	0.000000e+00	
-2.000000e+00	7.753165e-01	1.224953e+00	4.214211e+01	-5.998942e-12	2.539980e+05	1.013092e+05	2.881110e+02	1.011039e-01	-2.222340e-02	0.000000e+00	
-1.948718e+00	7.753165e-01	1.224953e+00	4.214211e+01	-4.748076e-10	2.539980e+05	1.013092e+05	2.881110e+02	1.011039e-01	-2.222341e-02	0.000000e+00	
-2.000000e+00	7.436709e-01	1.224953e+00	4.214211e+01	-6.436200e-12	2.539980e+05	1.013092e+05	2.881110e+02	1.011039e-01	-2.222340e-02	0.000000e+00	
-1.948718e+00	7.436709e-01	1.224953e+00	4.214211e+01	-4.397668e-10	2.539980e+05	1.013092e+05	2.881110e+02	1.011039e-01	-2.222341e-02	0.000000e+00	
-2.000000e+00	7.120253e-01	1.224953e+00	4.214211e+01	-6.526293e-12	2.539980e+05	1.013092e+05	2.881110e+02	1.011039e-01	-2.222340e-02	0.000000e+00	
-1.948718e+00	7.120253e-01	1.224953e+00	4.214211e+01	-4.044486e-10	2.539980e+05	1.013092e+05	2.881110e+02	1.011039e-01	-2.222341e-02	0.000000e+00	
-2.000000e+00	6.803797e-01	1.224953e+00	4.214211e+01	-6.535302e-12	2.539980e+05	1.013092e+05	2.881110e+02	1.011039e-01	-2.222340e-02	0.000000e+00	
-1.948718e+00	6.803797e-01	1.224953e+00	4.214211e+01	-3.689011e-10	2.539980e+05	1.013092e+05	2.881110e+02	1.011039e-01	-2.222341e-02	0.000000e+00	
-2.000000e+00	6.487342e-01	1.224953e+00	4.214211e+01	-6.676670e-12	2.539980e+05	1.013092e+05	2.881110e+02	1.011039e-01	-2.222340e-02	0.000000e+00	
-1.948718e+00	6.487342e-01	1.224953e+00	4.214211e+01	-3.332599e-10	2.539980e+05	1.013092e+05	2.881110e+02	1.011039e-01	-2.222341e-02	0.000000e+00	
-2.000000e+00	6.170886e-01	1.224953e+00	4.214211e+01	-6.568028e-12	2.539980e+05	1.013092e+05	2.881110e+02	1.011039e-01	-2.222340e-02	0.000000e+00	
-1.948718e+00	6.170886e-01	1.224953e+00	4.214211e+01	-2.975008e-10	2.539980e+05	1.013092e+05	2.881110e+02	1.011039e-01	-2.222341e-02	0.000000e+00	
-2.000000e+00	5.854430e-01	1.224953e+00	4.214211e+01	-6.614547e-12	2.539980e+05	1.013092e+05	2.881110e+02	1.011039e-01	-2.222340e-02	0.000000e+00	
-1.948718e+00	5.854430e-01	1.224953e+00	4.214211e+01	-2.614367e-10	2.539980e+05	1.013092e+05	2.881110e+02	1.011039e-01	-2.222341e-02	0.000000e+00	
-2.000000e+00	5.537975e-01	1.224953e+00	4.214211e+01	-6.476605e-12	2.539980e+05	1.013092e+05	2.881110e+02	1.011039e-01	-2.222340e-02	0.000000e+00	
-1.948718e+00	5.537975e-01	1.224953e+00	4.214211e+01	-2.255331e-10	2.539980e+05	1.013092e+05	2.881110e+02	1.011039e-01	-2.222341e-02	0.000000e+00	
-2.000000e+00	5.221519e-01	1.224953e+00	4.214211e+01	-6.299174e-12	2.539980e+05	1.013092e+05	2.881110e+02	1.011039e-01	-2.222340e-02	0.000000e+00	
-1.948718e+00	5.221519e-01	1.224953e+00	4.214211e+01	-1.895248e-10	2.539980e+05	1.013092e+05	2.881110e+02	1.011039e-01	-2.222341e-02	0.000000e+00	
-2.000000e+00	4.905063e-01	1.224953e+00	4.214211e+01	-6.063796e-12	2.539980e+05	1.013092e+05	2.881110e+02	1.011039e-01	-2.222340e-02	0.000000e+00	
-1.948718e+00	4.905063e-01	1.224953e+00	4.214211e+01	-1.536113e-10	2.539980e+05	1.013092e+05	2.881110e+02	1.011039e-01	-2.222341e-02	0.000000e+00	
-2.000000e+00	4.588608e-01	1.224953e+00	4.214211e+01	-5.851161e-12	2.539980e+05	1.013092e+05	2.881110e+02	1.011039e-01	-2.222340e-02	0.000000e+00	
-1.948718e+00	4.588608e-01	1.224953e+00	4.214211e+01	-1.178989e-10	2.539980e+05	1.013092e+05	2.881110e+02	1.011039e-01	-2.222341e-02	0.000000e+00	
-2.000000e+00	4.272152e-01	1.224953e+00	4.214211e+01	-5.893123e-12	2.539980e+05	1.013092e+05	2.881110e+02	1.011039e-01	-2.222340e-02	0.000000e+00	
-1.948718e+00	4.272152e-01	1.224953e+00	4.214211e+01	-8.265932e-11	2.539980e+05	1.013092e+05	2.881110e+02	1.011039e-01	-2.222341e-02	0.000000e+00	
-2.000000e+00	3.955696e-01	1.224953e+00	4.214211e+01	-5.764799e-12	2.539980e+05	1.013092e+05	2.881110e+02	1.011039e-01	-2.222340e-02	0.000000e+00	
-1.948718e+00	3.955696e-01	1.224953e+00	4.214211e+01	-4.782786e-11	2.539980e+05	1.013092e+05	2.881110e+02	1.011039e-01	-2.222341e-02	0.000000e+00	
-2.000000e+00	3.639241e-01	1.224953e+00	4.214211e+01	-5.627646e-12	2.539980e+05	1.013092e+05	2.881110e+02	1.011039e-01	-2.222340e-02	0.000000e+00	
-1.948718e+00	3.639241e-01	1.224953e+00	4.214211e+01	-1.345712e-11	2.539980e+05	1.013092e+05	2.881110e+02	1.011039e-01	-2.222341e-02	0.000000e+00	
-2.000000e+00	3.322785e-01	1.224953e+00	4.214211e+01	-5.588916e-12	2.539980e+05	1.013092e+05	2.881110e+02	1.011039e-01	-2.222340e-02	0.000000e+00	
-1.948718e+00	3.322785e-01	1.224953e+00	4.214211e+01	2.022117e-11	2.539980e+05	1.013092e+05	2.881110e+02	1.011039e-01	-2.222341e-02	0.000000e+00	
-2.000000e+00	3.006329e-01	1.224953e+00	4.214211e+01	-5.518786e-12	2.539980e+05	1.013092e+05	2.881110e+02	1.011039e-01	-2.222340e-02	0.000000e+00	
-1.948718e+00	3.006329e-01	1.224953e+00	4.214211e+01	5.336172e-11	2.539980e+05	1.013092e+05	2.881110e+02	1.011039e-01	-2.222341e-02	0.000000e+00	
-2.000000e+00	2.689873e-01	1.224953e+00	4.214211e+01	-5.421871e-12	2.539980e+05	1.013092e+05	2.881110e+02	1.011039e-01	-2.222340e-02	0.000000e+00	
-1.948718e+00	2.689873e-01	1.224953e+00	4.214211e+01	8.556684e-11	2.539980e+05	1.013092e+05	2.881110e+02	1.011039e-01	-2.222341e-02	0.000000e+00	
-2.000000e+00	2.373418e-01	1.224953e+00	4.214211e+01	-5.238101e-12	2.539980e+05	1.013092e+05	2.881110e+02	1.011039e-01	-2.222340e-02	0.000000e+00	
-1.948718e+00	2.373418e-01	1.224953e+00	4.214211e+01	1.170324e-10	2.539980e+05	1.013092e+05	2.881110e+02	1.011039e-01	-2.222341e-02	0.000000e+00	
-2.000000e+00	2.056962e-01	1.224953e+00	4.214211e+01	-4.930854e-12	2.539980e+05	1.013092e+05	2.881110e+02	1.011039e-01	-2.222340e-02	0.000000e+00	
-1.948718e+00	2.056962e-01	1.224953e+00	4.214211e+01	1.475643e-10	2.539980e+05	1.013092e+05	2.881110e+02	1.011039e-01	-2.222341e-02	0.000000e+00	
-2.000000e+00	1.740506e-01	1.224953e+00	4.214211e+01	-4.745631e-12	2.539980e+05	1.013092e+05	2.881110e+02	1.011039e-01	-2.222340e-02	0.000000e+00	
-1.948718e+00	1.740506e-01	1.224953e+00	4.214211e+01	1.771258e-10	2.539980e+05	1.013092e+05	2.881110e+02	1.011039e-01	-2.222341e-02	0.000000e+00	
-2.000000e+00	1.424051e-01	1.224953e+00	4.214211e+01	-4.538499e-12	2.539980e+05	1.013092e+05	2.881110e+02	1.011039e-01	-2.222340e-02	0.000000e+00	
-1.948718e+00	1.424051e-01	1.224953e+00	4.214211e+01	2.053534e-10	2.539980e+05	1.013092e+05	2.881110e+02	1.011039e-01	-2.222341e-02	0.000000e+00	
-2.000000e+00	1.107595e-01	1.224953e+00	4.214211e+01	-4.467704e-12	2.539980e+05	1.013092e+05	2.881110e+02	1.011039e-01	-2.222340e-02	0.000000e+00	
-1.948718e+00	1.107595e-01	1.224953e+00	4.214211e+01	2.323792e-10	2.539980e+05	1.013092e+05	2.881110e+02	1.011039e-01	-2.222341e-02	0.000000e+00	
-2.000000e+00	7.911392e-02	1.224953e+00	4.214211e+01	-4.532704e-12	2.539980e+05	1.013092e+05	2.881110e+02	1.011039e-01	-2.222340e-02	0.000000e+00	
-1.948718e+00	7.911392e-02	1.224953e+00	4.214211e+01	2.579063e-10	2.539980e+05	1.013092e+05	2.881110e+02	1.011039e-01	-2.222341e-02	0.000000e+00	
-2.000000e+00	4.746835e-02	1.224953e+00	4.214211e+01	-4.235031e-12	2.539980e+05	1.013092e+05	2.881110e+02	1.011039e-01	-2.222340e-02	0.000000e+00	
-1.948718e+00	4.746835e-02	1.224953e+00	4.214211e+01	2.822392e-10	2.539980e+05	1.013092e+05	2.881110e+02	1.011039e-01	-2.222341e-02	0.000000e+00	
-2.000000e+00	1.582278e-02	1.224953e+00	4.214211e+01	-3.988598e-12	2.539980e+05	1.013092e+05	2.881110e+02	1.011039e-01	-2.222340e-02	0.000000e+00	
-1.948718e+00	1.582278e-02	1.224953e+00	4.214211e+01	3.050309e-10	2.539980e+05	1.013092e+05	2.881110e+02	1.011039e-01	-2.222341e-02	0.000000e+00	
-2.000000e+00	-1.582278e-02	1.224953e+00	4.214211e+01	-4.070042e-12	2.539980e+05	1.013092e+05	2.881110e+02	1.011039e-01	-2.222340e-02	0.000000e+00	
-1.948718e+00	-1.582278e-02	1.224953e+00	4.214211e+01	3.261288e-10	2.539980e+05	1.013092e+05	2.881110e+02	1.011039e-01	-2.222341e-02	0.000000e+00	
-2.000000e+00	-4.746835e-02	1.224953e+00	4.214211e+01	-3.879939e-12	2.539980e+05	1.013092e+05	2.881110e+02	1.011039e-01	-2.222340e-02	0.000000e+00	
-1.948718e+00	-4.746835e-02	1.224953e+00	4.214211e+01	3.456737e-10	2.539980e+05	1.013092e+05	2.881110e+02	1.011039e-01	-2.222341e-02	0.000000e+00	
-2.000000e+00	-7.911392e-02	1.224953e+00	4.214211e+01	-3.791066e-12	2.539980e+05	1.013092e+05	2.881110e+02	1.011039e-01	-2.222340e-02	0.000000e+00	
-1.948718e+00	-7.911392e-02	1.224953e+00	4.214211e+01	3.633081e-10	2.539980e+05	1.013092e+05	2.881110e+02	1.011039e-01	-2.222341e-02	0.000000e+00	
-2.000000e+00	-1.107595e-01	1.224953e+00	4.214211e+01	-3.687161e-12	2.539980e+05	1.013092e+05	2.881110e+02	1.011039e-01	-2.222340e-02	0.000000e+00	
-1.948718e+00	-1.107595e-01	1.224953e+00	4.214211e+01	3.792776e-10	2.539980e+05	1.013092e+05	2.881110e+02	1.011039e-01	-2.222341e-02	0.000000e+00	
-2.000000e+00	-1.424051e-01	1.224953e+00	4.214211e+01	-3.722681e-12	2.539980e+05	1.013092e+05	2.881110e+02	1.011039e-01	-2.222340e-02	0.000000e+00	
-1.948718e+00	-1.424051e-01	1.224953e+00	4.214211e+01	3.931432e-10	2.539980e+05	1.013092e+05	2.881110e+02	1.011039e-01	-2.222341e-02	0.000000e+00	
-2.000000e+00	-1.740506e-01	1.224953e+00	4.214211e+01	-3.527836e-12	2.539980e+05	1.013092e+05	2.881110e+02	1.011039e-01	-2.222340e-02	0.000000e+00	
-1.948718e+00	-1.740506e-01	1.224953e+00	4.214211e+01	4.052753e-10	2.539980e+05	1.013092e+05	2.881110e+02	1.011039e-01	-2.222341e-02	0.000000e+00	
-2.000000e+00	-2.056962e-01	1.224953e+00	4.214211e+01	-3.727381e-12	2.539980e+05	1.013092e+05	2.881110e+02	1.011039e-01	-2.222340e-02	0.000000e+00	
-1.948718e+00	-2.056962e-01	1.224953e+00	4.214211e+01	4.149961e-10	2.539980e+05	1.013092e+05	2.881110e+02	1.011039e-01	-2.222340e-02	0.000000e+00	
-2.000000e+00	-2.373418e-01	1.224953e+00	4.214211e+01	-3.626450e-12	2.539980e+05	1.013092e+05	2.881110e+02	1.011039e-01	-2.222340e-02	0.000000e+00	
-1.948718e+00	-2.373418e-01	1.224953e+00	4.214211e+01	4.230296e-10	2.539980e+05	1.013092e+05	2.881110e+02	1.011039e-01	-2.222340e-02	0.000000e+00	
-2.000000e+00	-2.689873e-01	1.224953e+00	4.214211e+01	-3.333807e-12	2.539980e+05	1.013092e+05	2.881110e+02	1.011039e-01	-2.222340e-02	0.000000e+00	
-1.948718e+00	-2.689873e-01	1.224953e+00	4.214211e+01	4.289380e-10	2.539980e+05	1.013092e+05	2.881110e+02	1.011039e-01	-2.222340e-02	0.000000e+00	
-2.000000e+00	-3.006329e-01	1.224953e+00	4.214211e+01	-3.392172e-12	2.539980e+05	1.013092e+05	2.881110e+02	1.011039e-01	-2.222340e-02	0.000000e+00	
-1.948718e+00	-3.006329e-01	1.224953e+00	4.214211e+01	4.326490e-10	2.539980e+05	1.013092e+05	2.881110e+02	1.011039e-01	-2.222340e-02	0.000000e+00	
-2.000000e+00	-3.322785e-01	1.224953e+00	4.214211e+01	-3.512083e-12	2.539980e+05	1.013092e+05	2.881110e+02	1.011039e-01	-2.222340e-02	0.000000e+00	
-1.948718e+00	-3.322785e-01	1.224953e+00	4.214211e+01	4.340874e-10	2.539980e+05	1.013092e+05	2.881110e+02	1.011039e-01	-2.222340e-02	0.000000e+00	
-2.000000e+00	-3.639241e-01	1.224953e+00	4.214211e+01	-3.505348e-12	2.539980e+05	1.013092e+05	2.881110e+02	1.011039e-01	-2.222340e-02	0.000000e+00	
-1.948718e+00	-3.639241e-01	1.224953e+00	4.214211e+01	4.335644e-10	2.539980e+05	1.013092e+05	2.881110e+02	1.011039e-01	-2.222340e-02	0.000000e+00	
-2.000000e+00	-3.955696e-01	1.224953e+00	4.214211e+01	-3.507002e-12	2.539980e+05	1.013092e+05	2.881110e+02	1.011039e-01	-2.222340e-02	0.000000e+00	
-1.948718e+00	-3.955696e-01	1.224953e+00	4.214211e+01	4.309426e-10	2.539980e+05	1.013092e+05	2.881110e+02	1.011039e-01	-2.222340e-02	0.000000e+00	
-2.000000e+00	-4.272152e-01	1.224953e+00	4.214211e+01	-3.749096e-12	2.539980e+05	1.013092e+05	2.881110e+02	1.011039e-01	-2.222340e-02	0.000000e+00	
-1.948718e+00	-4.272152e-01	1.224953e+00	4.214211e+01	4.259945e-10	2.539980e+05	1.013092e+05	2.881110e+02	1.011039e-01	-2.222340e-02	0.000000e+00	
-2.000000e+00	-4.588608e-01	1.224953e+00	4.214211e+01	-3.849990e-12	2.539980e+05	1.013092e+05	2.881110e+02	1.011039e-01	-2.222340e-02	0.000000e+00	
-1.948718e+00	-4.588608e-01	1.224953e+00	4.214211e+01	4.192250e-10	2.539980e+05	1.013092e+05	2.881110e+02	1.011039e-01	-2.222340e-02	0.000000e+00	
-2.000000e+00	-4.905063e-01	1.224953e+00	4.214211e+01	-4.053042e-12	2.539980e+05	1.013092e+05	2.881110e+02	1.011039e-01	-2.222340e-02	0.000000e+00	
-1.948718e+00	-4.905063e-01	1.224953e+00	4.214211e+01	4.103199e-10	2.539980e+05	1.013092e+05	2.881110e+02	1.011039e-01	-2.222340e-02	0.000000e+00	
-2.000000e+00	-5.221519e-01	1.224953e+00	4.214211e+01	-4.274245e-12	2.539980e+05	1.013092e+05	2.881110e+02	1.011039e-01	-2.222340e-02	0.000000e+00	
-1.948718e+00	-5.221519e-01	1.224953e+00	4.214211e+01	3.996344e-10	2.539980e+05	1.013092e+05	2.881110e+02	1.011039e-01	-2.222340e-02	0.000000e+00	
-2.000000e+00	-5.537975e-01	1.224953e+00	4.214211e+01	-4.553316e-12	2.539980e+05	1.013092e+05	2.881110e+02	1.011039e-01	-2.222340e-02	0.000000e+00	
-1.948718e+00	-5.537975e-01	1.224953e+00	4.214211e+01	3.872007e-10	2.539980e+05	1.013092e+05	2.881110e+02	1.011039e-01	-2.222340e-02	0.000000e+00	
-2.000000e+00	-5.854430e-01	1.224953e+00	4.214211e+01	-4.959671e-12	2.539980e+05	1.013092e+05	2.881110e+02	1.011039e-01	-2.222340e-02	0.000000e+00	
-1.948718e+00	-5.854430e-01	1.224953e+00	4.214211e+01	3.732860e-10	2.539980e+05	1.013092e+05	2.881110e+02	1.011039e-01	-2.222340e-02	0.000000e+00	
-2.000000e+00	-6.170886e-01	1.224953e+00	4.214211e+01	-5.210638e-12	2.539980e+05	1.013092e+05	2.881110e+02	1.011039e-01	-2.222340e-02	0.000000e+00	
-1.948718e+00	-6.170886e-01	1.224953e+00	4.214211e+01	3.580670e-10	2.539980e+05	1.013092e+05	2.881110e+02	1.011039e-01	-2.222340e-02	0.000000e+00	
-2.000000e+00	-6.487342e-01	1.224953e+00	4.214211e+01	-5.778789e-12	2.539980e+05	1.013092e+05	2.881110e+02	1.011039e-01	-2.222340e-02	0.000000e+00	
-1.948718e+00	-6.487342e-01	1.224953e+00	4.214211e+01	3.416793e-10	2.539980e+05	1.013092e+05	2.881110e+02	1.011039e-01	-2.222340e-02	0.000000e+00	
-2.000000e+00	-6.803797e-01	1.224953e+00	4.214211e+01	-6.385106e-12	2.539980e+05	1.013092e+05	2.881110e+02	1.011039e-01	-2.222340e-02	0.000000e+00	
-1.948718e+00	-6.803797e-01	1.224953e+00	4.214211e+01	3.243412e-10	2.539980e+05	1.013092e+05	2.881110e+02	1.011039e-01	-2.222340e-02	0.000000e+00	
-2.000000e+00	-7.120253e-01	1.224953e+00	4.214211e+01	-7.080039e-12	2.539980e+05	1.013092e+05	2.881110e+02	1.011039e-01	-2.222340e-02	0.000000e+00	
-1.948718e+00	-7.120253e-01	1.224953e+00	4.214211e+01	3.066895e-10	2.539980e+05	1.013092e+05	2.881110e+02	1.011039e-01	-2.222340e-02	0.000000e+00	
-2.000000e+00	-7.436709e-01	1.224953e+00	4.214211e+01	-7.634890e-12	2.539980e+05	1.013092e+05	2.881110e+02	1.011039e-01	-2.222340e-02	0.000000e+00	
-1.948718e+00	-7.436709e-01	1.224953e+00	4.214211e+01	2.887051e-10	2.539980e+05	1.013092e+05	2.881110e+02	1.011039e-01	-2.222340e-02	0.000000e+00	
-2.000000e+00	-7.753165e-01	1.224953e+00	4.214211e+01	-8.476198e-12	2.539980e+05	1.013092e+05	2.881110e+02	1.011039e-01	-2.222340e-02	0.000000e+00	
-1.948718e+00	-7.753165e-01	1.224953e+00	4.214211e+01	2.711205e-10	2.539980e+05	1.013092e+05	2.881110e+02	1.011039e-01	-2.222340e-02	0.000000e+00	
-2.000000e+00	-8.069620e-01	1.224953e+00	4.214211e+01	-9.693375e-12	2.539980e+05	1.013092e+05	2.881110e+02	1.011039e-01	-2.222340e-02	0.000000e+00	
-1.948718e+00	-8.069620e-01	1.224953e+00	4.214211e+01	2.540347e-10	2.539980e+05	1.013092e+05	2.881110e+02	1.011039e-01	-2.222340e-02	0.000000e+00	
-2.000000e+00	-8.386076e-01	1.224953e+00	4.214211e+01	-1.111408e-11	2.539980e+05	1.013092e+05	2.881110e+02	1.011039e-01	-2.222340e-02	0.000000e+00	
-1.948718e+00	-8.386076e-01	1.224953e+00	4.214211e+01	2.387845e-10	2.539980e+05	1.013092e+05	2.881110e+02	1.011039e-01	-2.222340e-02	0.000000e+00	
-2.000000e+00	-8.702532e-01	1.224953e+00	4.214211e+01	-1.226100e-11	2.539980e+05	1.013092e+05	2.881110e+02	1.011039e-01	-2.222340e-02	0.000000e+00	
-1.948718e+00	-8.702532e-01	1.224953e+00	4.214211e+01	2.260695e-10	2.539980e+05	1.013092e+05	2.881110e+02	1.011039e-01	-2.222340e-02	0.000000e+00	
-2.000000e+00	-9.018987e-01	1.224953e+00	4.214211e+01	-1.230735e-11	2.539980e+05	1.013092e+05	2.881110e+02	1.011039e-01	-2.222340e-02	0.000000e+00	
-1.948718e+00	-9.018987e-01	1.224953e+00	4.214211e+01	2.179390e-10	2.539980e+05	1.013092e+05	2.881110e+02	1.011039e-01	-2.222340e-02	0.000000e+00	
-2.000000e+00	-9.335443e-01	1.224953e+00	4.214211e+01	-1.104375e-11	2.539980e+05	1.013092e+05	2.881110e+02	1.011039e-01	-2.222340e-02	0.000000e+00	
-1.948718e+00	-9.335443e-01	1.224953e+00	4.214211e+01	2.142857e-10	2.539980e+05	1.013092e+05	2.881110e+02	1.011039e-01	-2.222340e-02	0.000000e+00	
-2.000000e+00	-9.651899e-01	1.224953e+00	4.214211e+01	-9.385660e-12	2.539980e+05	1.013092e+05	2.881110e+02	1.011039e-01	-2.222340e-02	0.000000e+00	
-1.948718e+00	-9.651899e-01	1.224953e+00	4.214211e+01	2.155193e-10	2.539980e+05	1.013092e+05	2.881110e+02	1.011039e-01	-2.222340e-02	0.000000e+00	
-2.000000e+00	-9.968354e-01	1.224953e+00	4.214211e+01	-9.765974e-12	2.539980e+05	1.013092e+05	2.881110e+02	1.011039e-01	-2.222340e-02	0.000000e+00	
-1.948718e+00	-9.968354e-01	1.224953e+00	4.214211e+01	2.188154e-10	2.539980e+05	1.013092e+05	2.881110e+02	1.011039e-01	-2.222340e-02	0.000000e+00	
-2.000000e+00	-1.028481e+00	1.224953e+00	4.214211e+01	-1.099737e-11	2.539980e+05	1.013092e+05	2.881110e+02	1.011039e-01	-2.222340e-02	0.000000e+00	
-1.948718e+00	-1.028481e+00	1.224953e+00	4.214211e+01	2.327760e-10	2.539980e+05	1.013092e+05	2.881110e+02	1.011039e-01	-2.222340e-02	0.000000e+00	
-2.000000e+00	-1.060127e+00	1.224953e+00	4.214211e+01	-2.676326e-12	2.539980e+05	1.013092e+05	2.881110e+02	1.011039e-01	-2.222340e-02	0.000000e+00	
-1.948718e+00	-1.060127e+00	1.224953e+00	4.214211e+01	2.706617e-10	2.539980e+05	1.013092e+05	2.881110e+02	1.011039e-01	-2.222340e-02	0.000000e+00	
-2.000000e+00	-1.091772e+00	1.224953e+00	4.214211e+01	5.696478e-11	2.539980e+05	1.013092e+05	2.881110e+02	1.011039e-01	-2.222340e-02	0.000000e+00	
-1.948718e+00	-1.091772e+00	1.224953e+00	4.214211e+01	3.877662e-10	2.539980e+05	1.013092e+05	2.881110e+02	1.011039e-01	-2.222340e-02	0.000000e+00	
-2.000000e+00	-1.123418e+00	1.224953e+00	4.214211e+01	2.261840e-10	2.539980e+05	1.013092e+05	2.881110e+02	1.011039e-01	-2.222340e-02	0.000000e+00	
-1.948718e+00	-1.123418e+00	1.224953e+00	4.214211e+01	6.066436e-10	2.539980e+05	1.013092e+05	2.881110e+02	1.011039e-01	-2.222340e-02	0.000000e+00	
-2.000000e+00	-1.155063e+00	1.224953e+00	4.214211e+01	5.522491e-10	2.539980e+05	1.013092e+05	2.881110e+02	1.011039e-01	-2.222340e-02	0.000000e+00	
-1.948718e+00	-1.155063e+00	1.224953e+00	4.214211e+01	9.503337e-10	2.539980e+05	1.013092e+05	2.881110e+02	1.011039e-01	-2.222340e-02	0.000000e+00	
-2.000000e+00	-1.186709e+00	1.224953e+00	4.214211e+01	9.041090e-10	2.539980e+05	1.013092e+05	2.881110e+02	1.011039e-01	-2.222340e-02	0.000000e+00	
-1.948718e+00	-1.186709e+00	1.224953e+00	4.214211e+01	1.132701e-09	2.539980e+05	1.013092e+05	2.881110e+02	1.011039e-01	-2.222340e-02	0.000000e+00	
-2.000000e+00	-1.218354e+00	1.224953e+00	4.214211e+01	9.584219e-10	2.539980e+05	1.013092e+05	2.881110e+02	1.011039e-01	-2.222340e-02	0.000000e+00	
-1.948718e+00	-1.218354e+00	1.224953e+00	4.214211e+01	9.481098e-10	2.539980e+05	1.013092e+05	2.881110e+02	1.011039e-01	-2.222340e-02	0.000000e+00	
-1.897436e+00	1.218354e+00	1.224953e+00	4.214211e+01	-2.081256e-09	2.539980e+05	1.013092e+05	2.881110e+02	1.011039e-01	-2.222341e-02	0.000000e+00	
-1.897436e+00	1.250000e+00	1.224953e+00	4.214211e+01	-6.750299e-10	2.539980e+05	1.013092e+05	2.881110e+02	1.011039e-01	-2.222341e-02	0.000000e+00	
-1.897436e+00	1.186709e+00	1.224953e+00	4.214211e+01	-2.553107e-09	2.539980e+05	1.013092e+05	2.881110e+02	1.011039e-01	-2.222341e-02	0.000000e+00	
-1.897436e+00	1.155063e+00	1.224953e+00	4.214211e+01	-2.521270e-09	2.539980e+05	1.013092e+05	2.881110e+02	1.011039e-01	-2.222341e-02	0.000000e+00	
-1.897436e+00	1.123418e+00	1.224953e+00	4.214211e+01	-2.176078e-09	2.539980e+05	1.013092e+05	2.881110e+02	1.011039e-01	-2.222341e-02	0.000000e+00	
-1.897436e+00	1.091772e+00	1.224953e+00	4.214211e+01	-1.883438e-09	2.539980e+05	1.013092e+05	2.881110e+02	1.011039e-01	-2.222341e-02	0.000000e+00	
-1.897436e+00	1.060127e+00	1.224953e+00	4.214211e+01	-1.668658e-09	2.539980e+05	1.013092e+05	2.881110e+02	1.011039e-01	-2.222341e-02	0.000000e+00	
-1.897436e+00	1.028481e+00	1.224953e+00	4.214211e+01	-1.546439e-09	2.539980e+05	1.013092e+05	2.881110e+02	1.011039e-01	-2.222341e-02	0.000000e+00	
-1.897436e+00	9.968354e-01	1.224953e+00	4.214211e+01	-1.455832e-09	2.539980e+05	1.013092e+05	2.881110e+02	1.011039e-01	-2.222341e-02	0.000000e+00	
-1.897436e+00	9.651899e-01	1.224953e+00	4.214211e+01	-1.379957e-09	2.539980e+05	1.013092e+05	2.881110e+02	1.011039e-01	-2.222341e-02	0.000000e+00	
-1.897436e+00	9.335443e-01	1.224953e+00	4.214211e+01	-1.302781e-09	2.539980e+05	1.013092e+05	2.881110e+02	1.011039e-01	-2.222341e-02	0.000000e+00	
-1.897436e+00	9.018987e-01	1.224953e+00	4.214211e+01	-1.227452e-09	2.539980e+05	1.013092e+05	2.881110e+02	1.011039e-01	-2.222341e-02	0.000000e+00	
-1.897436e+00	8.702532e-01	1.224953e+00	4.214211e+01	-1.153399e-09	2.539980e+05	1.013092e+05	2.881110e+02	1.011039e-01	-2.222341e-02	0.000000e+00	
-1.897436e+00	8.386076e-01	1.224953e+00	4.214211e+01	-1.081880e-09	2.539980e+05	1.013092e+05	2.881110e+02	1.011039e-01	-2.222341e-02	0.000000e+00	
-1.897436e+00	8.069620e-01	1.224953e+00	4.214211e+01	-1.011558e-09	2.539980e+05	1.013092e+05	2.881110e+02	1.011039e-01	-2.222341e-02	0.000000e+00	
-1.897436e+00	7.753165e-01	1.224953e+00	4.214211e+01	-9.419500e-10	2.539980e+05	1.013092e+05	2.881110e+02	1.011039e-01	-2.222341e-02	0.000000e+00	
-1.897436e+00	7.436709e-01	1.224953e+00	4.214211e+01	-8.720928e-10	2.539980e+05	1.013092e+05	2.881110e+02	1.011039e-01	-2.222341e-02	0.000000e+00	
-1.897436e+00	7.120253e-01	1.224953e+00	4.214211e+01	-8.018297e-10	2.539980e+05	1.013092e+05	2.881110e+02	1.011039e-01	-2.222341e-02	0.000000e+00	
-1.897436e+00	6.803797e-01	1.224953e+00	4.214211e+01	-7.309829e-10	2.539980e+05	1.013092e+05	2.881110e+02	1.011039e-01	-2.222341e-02	0.000000e+00	
-1.897436e+00	6.487342e-01	1.224953e+00	4.214211e+01	-6.595694e-10	2.539980e+05	1.013092e+05	2.881110e+02	1.011039e-01	-2.222341e-02	0.000000e+00	
-1.897436e+00	6.170886e-01	1.224953e+00	4.214211e+01	-5.879157e-10	2.539980e+05	1.013092e+05	2.881110e+02	1.011039e-01	-2.222341e-02	0.000000e+00	
-1.897436e+00	5.854430e-01	1.224953e+00	4.214211e+01	-5.159130e-10	2.539980e+05	1.013092e+05	2.881110e+02	1.011039e-01	-2.222341e-02	0.000000e+00	
-1.897436e+00	5.537975e-01	1.224953e+00	4.214211e+01	-4.437470e-10	2.539980e+05	1.013092e+05	2.881110e+02	1.011039e-01	-2.222341e-02	0.000000e+00	
-1.897436e+00	5.221519e-01	1.224953e+00	4.214211e+01	-3.716525e-10	2.539980e+05	1.013092e+05	2.881110e+02	1.011039e-01	-2.222341e-02	0.000000e+00	
-1.897436e+00	4.905063e-01	1.224953e+00	4.214211e+01	-2.997316e-10	2.539980e+05	1.013092e+05	2.881110e+02	1.011039e-01	-2.222341e-02	0.000000e+00	
-1.897436e+00	4.588608e-01	1.224953e+00	4.214211e+01	-2.281535e-10	2.539980e+05	1.013092e+05	2.881110e+02	1.011039e-01	-2.222341e-02	0.000000e+00	
-1.897436e+00	4.272152e-01	1.224953e+00	4.214211e+01	-1.573258e-10	2.539980e+05	1.013092e+05	2.881110e+02	1.011039e-01	-2.222341e-02	0.000000e+00	
-1.897436e+00	3.955696e-01	1.224953e+00	4.214211e+01	-8.735704e-11	2.539980e+05	1.013092e+05	2.881110e+02	1.011039e-01	-2.222341e-02	0.000000e+00	
-1.897436e+00	3.639241e-01	1.224953e+00	4.214211e+01	-1.827742e-11	2.539980e+05	1.013092e+05	2.881110e+02	1.011039e-01	-2.222341e-02	0.000000e+00	
-1.897436e+00	3.322785e-01	1.224953e+00	4.214211e+01	4.952027e-11	2.539980e+05	1.013092e+05	2.881110e+02	1.011039e-01	-2.222341e-02	0.000000e+00	
-1.897436e+00	3.006329e-01	1.224953e+00	4.214211e+01	1.159387e-10	2.539980e+05	1.013092e+05	2.881110e+02	1.011039e-01	-2.222341e-02	0.000000e+00	
-1.897436e+00	2.689873e-01	1.224953e+00	4.214211e+01	1.807601e-10	2.539980e+05	1.013092e+05	2.881110e+02	1.011039e-01	-2.222341e-02	0.000000e+00	
-1.897436e+00	2.373418e-01	1.224953e+00	4.214211e+01	2.438843e-10	2.539980e+05	1.013092e+05	2.881110e+02	1.011039e-01	-2.222341e-02	0.000000e+00	
-1.897436e+00	2.056962e-01	1.224953e+00	4.214211e+01	3.051383e-10	2.539980e+05	1.013092e+05	2.881110e+02	1.011039e-01	-2.222341e-02	0.000000e+00	
-1.897436e+00	1.740506e-01	1.224953e+00	4.214211e+01	3.642422e-10	2.539980e+05	1.013092e+05	2.881110e+02	1.011039e-01	-2.222341e-02	0.000000e+00	
-1.897436e+00	1.424051e-01	1.224953e+00	4.214211e+01	4.209320e-10	2.539980e+05	1.013092e+05	2.881110e+02	1.011039e-01	-2.222341e-02	0.000000e+00	
-1.897436e+00	1.107595e-01	1.224953e+00	4.214211e+01	4.752151e-10	2.539980e+05	1.013092e+05	2.881110e+02	1.011039e-01	-2.222341e-02	0.000000e+00	
-1.897436e+00	7.911392e-02	1.224953e+00	4.214211e+01	5.265682e-10	2.539980e+05	1.013092e+05	2.881110e+02	1.011039e-01	-2.222341e-02	0.000000e+00	
-1.897436e+00	4.746835e-02	1.224953e+00	4.214211e+01	5.754002e-10	2.539980e+05	1.013092e+05	2.881110e+02	1.011039e-01	-2.222341e-02	0.000000e+00	
-1.897436e+00	1.582278e-02	1.224953e+00	4.214211e+01	6.209914e-10	2.539980e+05	1.013092e+05	2.881110e+02	1.011039e-01	-2.222341e-02	0.000000e+00	
-1.897436e+00	-1.582278e-02	1.224953e+00	4.214211e+01	6.635960e-10	2.539980e+05	1.013092e+05	2.881110e+02	1.011039e-01	-2.222341e-02	0.000000e+00	
-1.897436e+00	-4.746835e-02	1.224953e+00	4.214211e+01	7.026547e-10	2.539980e+05	1.013092e+05	2.881110e+02	1.011039e-01	-2.222341e-02	0.000000e+00	
-1.897436e+00	-7.911392e-02	1.224953e+00	4.214211e+01	7.384054e-10	2.539980e+05	1.013092e+05	2.881110e+02	1.011039e-01	-2.222341e-02	0.000000e+00	
-1.897436e+00	-1.107595e-01	1.224953e+00	4.214211e+01	7.702990e-10	2.539980e+05	1.013092e+05	2.881110e+02	1.011039e-01	-2.222341e-02	0.000000e+00	