VARIABLES = "x"
 "y"
 "Density"
 "Momentum_x"
 "Momentum_y"
 "Energy"
 "Pressure"
 "Temperature"
 "Mach"
 "C<sub>p</sub>"
 "Roe_Dissipation"
ZONE
DT=(DOUBLE,DOUBLE,DOUBLE,DOUBLE,DOUBLE,DOUBLE,DOUBLE,DOUBLE,DOUBLE,DOUBLE,DOUBLE)
                     -2                    -0.6        1.22495305538177        42.1421089172363    -5.0751158956772E-12                  253998           101309.203125        288.110992431641       0.101103901863098      -0.022223399952054                       0 
      -1.99749874937469                    -0.6        1.22495305538177        42.1421089172363    1.30085578209853E-11                  253998           101309.203125        288.110992431641       0.101103901863098      -0.022223399952054                       0 
      -1.99499749874937                    -0.6        1.22495305538177        42.1421089172363    3.10922315376494E-11                  253998           101309.203125        288.110992431641       0.101103901863098      -0.022223399952054                       0 
      -1.99249624812406                    -0.6        1.22495305538177        42.1421089172363    4.91759052543119E-11                  253998           101309.203125        288.110992431641       0.101103901863098      -0.022223399952054                       0 
      -1.98999499749875                    -0.6        1.22495305538177        42.1421089172363    6.72595789709744E-11                  253998           101309.203125        288.110992431641       0.101103901863098      -0.022223399952054                       0 
      -1.98749374687344                    -0.6        1.22495305538177        42.1421089172363    8.53432526876368E-11                  253998           101309.203125        288.110992431641       0.101103901863098      -0.022223399952054                       0 
      -1.98499249624812                    -0.6        1.22495305538177        42.1421089172363    1.03426926404301E-10                  253998           101309.203125        288.110992431641       0.101103901863098      -0.022223399952054                       0 
      -1.98249124562281                    -0.6        1.22495305538177        42.1421089172363    1.21510600120963E-10                  253998           101309.203125        288.110992431641       0.101103901863098      -0.022223399952054                       0 
       -1.9799899949975                    -0.6        1.22495305538177        42.1421089172363    1.39594273837626E-10                  253998           101309.203125        288.110992431641       0.101103901863098      -0.022223399952054                       0 
      -1.97748874437219                    -0.6        1.22495305538177        42.1421089172363     1.5767794755429E-10                  253998           101309.203125        288.110992431641       0.101103901863098      -0.022223399952054                       0 
      -1.97498749374687                    -0.6        1.22495305538177        42.1421089172363    1.75969255961484E-10                  253998           101309.203125        288.110992431641       0.101103901863098      -0.022223399952054                       0 
      -1.97248624312156                    -0.6        1.22495305538177        42.1421089172363    1.94417958523405E-10                  253998           101309.203125        288.110992431641       0.101103901863098      -0.022223399952054                       0 
      -1.96998499249625                    -0.6        1.22495305538177        42.1421089172363    2.12527688033287E-10                  253998           101309.203125        288.110992431641       0.101103901863098      -0.022223399952054                       0 
      -1.96748374187094                    -0.6        1.22495305538177        42.1421089172363    2.30611361749949E-10                  253998           101309.203125        288.110992431641       0.101103901863098      -0.022223399952054                       0 
      -1.96498249124562                    -0.6        1.22495305538177        42.1421089172363    2.48695035466612E-10                  253998           101309.203125        288.110992431641       0.101103901863098      -0.022223399952054                       0 
      -1.96248124062031                    -0.6        1.22495305538177        42.1421089172363    2.66778709183274E-10                  253998           101309.203125        288.110992431641       0.101103901863098      -0.022223399952054                       0 
        -1.959979989995                    -0.6        1.22495305538177        42.1421089172363    2.84862382899938E-10                  253998           101309.203125        288.110992431641       0.101103901863098      -0.022223399952054                       0 
      -1.95747873936968                    -0.6        1.22495305538177        42.1421089172363    3.02946056616601E-10                  253998           101309.203125        288.110992431641       0.101103901863098      -0.022223399952054                       0 
      -1.95497748874437                    -0.6        1.22495305538177        42.1421089172363    3.21029730333263E-10                  253998           101309.203125        288.110992431641       0.101103901863098      -0.022223399952054                       0 
      -1.95247623811906                    -0.6        1.22495305538177        42.1421089172363    3.39113404049927E-10                  253998           101309.203125        288.110992431641       0.101103901863098      -0.022223399952054                       0 
      -1.94997498749375                    -0.6        1.22495305538177        42.1421089172363     3.5719707776659E-10                  253998           101309.203125        288.110992431641       0.101103901863098      -0.022223399952054                       0 
      -1.94747373686843                    -0.6        1.22495305538177        42.1421089172363    3.75401159724479E-10                  253998           101309.203125        288.110992431641       0.101103901863098     -0.0222234001780138                       0 
      -1.94497248624312                    -0.6        1.22495305538177        42.1421089172363     3.9372689065101E-10                  253998           101309.203125        288.110992431641       0.101103901863098     -0.0222234006322618                       0 
      -1.94247123561781                    -0.6        1.22495305538177        42.1421089172363     4.1205262157754E-10                  253998           101309.203125        288.110992431641       0.101103901863098     -0.0222234010865097                       0 
       -1.9399699849925                    -0.6        1.22495305538177        42.1421089172363     4.3037835250407E-10                  253998           101309.203125        288.110992431641       0.101103901863098     -0.0222234015407577                       0 
      -1.93746873436718                    -0.6        1.22495305538177        42.1421089172363    4.48704083430599E-10                  253998           101309.203125        288.110992431641       0.101103901863098     -0.0222234019950057                       0 
      -1.93496748374187                    -0.6        1.22495305538177        42.1421089172363    4.67029814357131E-10                  253998           101309.203125        288.110992431641       0.101103901863098     -0.0222234024492536                       0 
      -1.93246623311656                    -0.6        1.22495305538177        42.1421089172363     4.8535554528366E-10                  253998           101309.203125        288.110992431641       0.101103901863098     -0.0222234029035016                       0 
      -1.92996498249125                    -0.6        1.22495305538177        42.1421089172363     5.0368127621019E-10                  253998           101309.203125        288.110992431641       0.101103901863098     -0.0222234033577496                       0 
      -1.92746373186593                    -0.6        1.22495305538177        42.1421089172363    5.22007007136721E-10                  253998           101309.203125        288.110992431641       0.101103901863098     -0.0222234038119975                       0 
      -1.92496248124062                    -0.6        1.22495305538177        42.1421089172363    5.40358616840533E-10                  253998           101309.203125        288.110992431641       0.101103901863098     -0.0222234042662455                       0 
      -1.92246123061531                    -0.6        1.22495305538177        42.1421089172363    5.59074816069221E-10                  253998           101309.203125        288.110992431641       0.101103901863098     -0.0222234047204934                       0 
      -1.91995997998999                    -0.6        1.22495305538177        42.1421089172363    5.77624643485255E-10                  253998           101309.203125        288.110992431641       0.101103901863098     -0.0222234051747414                       0 
      -1.91745872936468                    -0.6        1.22495305538177        42.1421089172363    5.95950374411784E-10                  253998           101309.203125        288.110992431641       0.101103901863098     -0.0222234056289894                       0 
      -1.91495747873937                    -0.6        1.22495305538177        42.1421089172363    6.14276105338314E-10                  253998           101309.203125        288.110992431641       0.101103901863098     -0.0222234060832373                       0 
      -1.91245622811406                    -0.6        1.22495305538177        42.1421089172363    6.32601836264844E-10                  253998           101309.203125        288.110992431641       0.101103901863098     -0.0222234065374853                       0 
      -1.90995497748874                    -0.6        1.22495305538177        42.1421089172363    6.50927567191375E-10                  253998           101309.203125        288.110992431641       0.101103901863098     -0.0222234069917332                       0 
      -1.90745372686343                    -0.6        1.22495305538177        42.1421089172363    6.69253298117904E-10                  253998           101309.203125        288.110992431641       0.101103901863098     -0.0222234074459812                       0 
      -1.90495247623812                    -0.6        1.22495305538177        42.1421089172363    6.87579029044434E-10                  253998           101309.203125        288.110992431641       0.101103901863098     -0.0222234079002292                       0 
      -1.90245122561281                    -0.6        1.22495305538177        42.1421089172363    7.05904759970965E-10                  253998           101309.203125        288.110992431641       0.101103901863098     -0.0222234083544771                       0 
      -1.89994997498749                    -0.6        1.22495305538177        42.1421089172363    7.24230490897495E-10                  253998           101309.203125        288.110992431641       0.101103901863098     -0.0222234088087251                       0 
      -1.89744872436218                    -0.6        1.22495305538177        42.1421089172363    7.42556221824025E-10                  253998           101309.203125        288.110992431641       0.101103901863098     -0.0222234092629731                       0 
      -1.89494747373687                    -0.6        1.22495305538177        42.1421089172363    7.61050848350179E-10                  253998           101309.203125        288.110992431641       0.101103901863098     -0.0222234092652798                       0 
      -1.89244622311156                    -0.6        1.22495305538177        42.1421089172363    7.79546336922832E-10                  253998           101309.203125        288.110992431641       0.101103901863098     -0.0222234092652798                       0 
      -1.88994497248624                    -0.6        1.22495305538177        42.1421089172363    7.98041825495484E-10                  253998           101309.203125        288.110992431641       0.101103901863098     -0.0222234092652798                       0 
      -1.88744372186093                    -0.6        1.22495305538177        42.1421089172363    8.16537314068136E-10                  253998           101309.203125        288.110992431641       0.101103901863098     -0.0222234092652798                       0 
      -1.88494247123562                    -0.6        1.22495305538177        42.1421089172363     8.3503280264079E-10                  253998           101309.203125        288.110992431641       0.101103901863098     -0.0222234092652798                       0 
      -1.88244122061031                    -0.6        1.22495305538177        42.1421089172363    8.53528291213442E-10                  253998           101309.203125        288.110992431641       0.101103901863098     -0.0222234092652798                       0 
      -1.87993996998499                    -0.6        1.22495305538177        42.1421089172363    8.72023779786095E-10                  253998           101309.203125        288.110992431641       0.101103901863098     -0.0222234092652798                       0 
      -1.87743871935968                    -0.6        1.22495305538177        42.1421089172363    8.90519268358749E-10                  253998           101309.203125        288.110992431641       0.101103901863098     -0.0222234092652798                       0 
      -1.87493746873437                    -0.6        1.22495305538177        42.1421089172363    9.09014756931401E-10                  253998           101309.203125        288.110992431641       0.101103901863098     -0.0222234092652798                       0 
      -1.87243621810905                    -0.6        1.22495305538177        42.1421089172363    9.27744508371088E-10                  253998           101309.203125        288.110992431641       0.101103901863098     -0.0222234092652798                       0 
      -1.86993496748374                    -0.6        1.22495305538177        42.1421089172363    9.46655548857725E-10                  253998           101309.203125        288.110992431641       0.101103901863098     -0.0222234092652798                       0 
      -1.86743371685843                    -0.6        1.22495305538177        42.1421089172363    9.65182809779636E-10                  253998           101309.203125        288.110992431641       0.101103901863098     -0.0222234092652798                       0 
      -1.86493246623312                    -0.6        1.22495305538177        42.1421089172363    9.83678298352288E-10                  253998           101309.203125        288.110992431641       0.101103901863098     -0.0222234092652798                       0 
       -1.8624312156078                    -0.6        1.22495305538177        42.1421089172363    1.00217378692494E-09                  253998           101309.203125        288.110992431641       0.101103901863098     -0.0222234092652798                       0 
      -1.85992996498249                    -0.6        1.22495305538177        42.1421089172363    1.02066927549759E-09                  253998           101309.203125        288.110992431641       0.101103901863098     -0.0222234092652798                       0 
      -1.85742871435718                    -0.6        1.22495305538177        42.1421089172363    1.03916476407025E-09                  253998           101309.203125        288.110992431641       0.101103901863098     -0.0222234092652798                       0 
      -1.85492746373187                    -0.6        1.22495305538177        42.1421089172363     1.0576602526429E-09                  253998           101309.203125        288.110992431641       0.101103901863098     -0.0222234092652798                       0 
      -1.85242621310655                    -0.6        1.22495305538177        42.1421089172363    1.07615574121555E-09                  253998           101309.203125        288.110992431641       0.101103901863098     -0.0222234092652798                       0 
      -1.84992496248124                    -0.6        1.22495305538177        42.1421089172363    1.09465122978821E-09                  253998           101309.203125        288.110992431641       0.101103901863098     -0.0222234092652798                       0 
      -1.84742371185593                    -0.6        1.22495305538177        42.1421089172363    1.11314671836086E-09                  253998           101309.203125        288.110992431641       0.101103901863098     -0.0222234092652798                       0 
      -1.84492246123062                    -0.6        1.22495305538177        42.1421089172363    1.13182737039632E-09                  253998           101309.203125        288.110992431641       0.101103901863098     -0.0222234092652798                       0 
       -1.8424212106053                    -0.6        1.22495305538177        42.1421089172363    1.15069893304485E-09                  253998           101309.203125        288.110992431641       0.101103901863098     -0.0222234092652798                       0 
      -1.83991995997999                    -0.6        1.22495305538177        42.1421089172363    1.16957049569338E-09                  253998           101309.203125        288.110992431641       0.101103901863098     -0.0222234092652798                       0 
      -1.83741870935468                    -0.6        1.22495305538177        42.1421089172363     1.1884420583419E-09                  253998           101309.203125        288.110992431641       0.101103901863098     -0.0222234092652798                       0 
      -1.83491745872936                    -0.6        1.22495305538177        42.1421089172363    1.20731362099043E-09                  253998           101309.203125        288.110992431641       0.101103901863098     -0.0222234092652798                       0 
      -1.83241620810405                    -0.6        1.22495305538177        42.1421089172363    1.22618518363896E-09                  253998           101309.203125        288.110992431641       0.101103901863098     -0.0222234092652798                       0 
      -1.82991495747874                    -0.6        1.22495305538177        42.1421089172363    1.24505674628748E-09                  253998           101309.203125        288.110992431641       0.101103901863098     -0.0222234092652798                       0 
      -1.82741370685343                    -0.6        1.22495305538177        42.1421089172363    1.26392830893601E-09                  253998           101309.203125        288.110992431641       0.101103901863098     -0.0222234092652798                       0 
      -1.82491245622811                    -0.6        1.22495305538177        42.1421089172363    1.28279987158453E-09                  253998           101309.203125        288.110992431641       0.101103901863098     -0.0222234092652798                       0 
       -1.8224112056028                    -0.6        1.22495305538177        42.1421089172363    1.30169947890492E-09                  253998           101309.203125        288.110992431641       0.101103901863098     -0.0222234092652798                       0 
      -1.81990995497749                    -0.6        1.22495305538177        42.1421089172363    1.32102930163956E-09                  253998           101309.203125        288.110992431641       0.101103901863098     -0.0222234092652798                       0 
      -1.81740870435218                    -0.6        1.22495305538177        42.1421089172363    1.34016619474206E-09                  253998           101309.203125        288.110992431641       0.101103901863098     -0.0222234092652798                       0 
      -1.81490745372686                    -0.6        1.22495305538177        42.1421089172363    1.35903775739059E-09                  253998           101309.203125        288.110992431641       0.101103901863098     -0.0222234092652798                       0 
      -1.81240620310155                    -0.6        1.22495305538177        42.1421089172363    1.37790932003911E-09                  253998           101309.203125        288.110992431641       0.101103901863098     -0.0222234092652798                       0 
      -1.80990495247624                    -0.6        1.22495305538177        42.1421089172363    1.39678088268764E-09                  253998           101309.203125        288.110992431641       0.101103901863098     -0.0222234092652798                       0 
      -1.80740370185093                    -0.6        1.22495305538177        42.1421089172363    1.41565244533617E-09                  253998           101309.203125        288.110992431641       0.101103901863098     -0.0222234092652798                       0 
      -1.80490245122561                    -0.6        1.22495305538177        42.1421089172363    1.43452400798469E-09                  253998           101309.203125        288.110992431641       0.101103901863098     -0.0222234092652798                       0 
       -1.8024012006003                    -0.6        1.22495305538177        42.1421089172363    1.45339557063322E-09                  253998           101309.203125        288.110992431641       0.101103901863098     -0.0222234092652798                       0 
      -1.79989994997499                    -0.6        1.22495305538177        42.1421089172363    1.47226713328175E-09                  253998           101309.203125        288.110992431641       0.101103901863098     -0.0222234092652798                       0 
      -1.79739869934967                    -0.6        1.22495305538177        42.1421089172363    1.49113869593027E-09                  253998           101309.203125        288.110992431641       0.101103901863098     -0.0222234092652798                       0 
      -1.79489744872436                    -0.6        1.22495305538177        42.1421089172363     1.5100102585788E-09                  253998           101309.203125        288.110992431641       0.101103901863098     -0.0222234092652798                       0 
      -1.79239619809905                    -0.6        1.22495305538177        42.1421089172363    1.52946368614195E-09                  253998           101309.203125        288.110992431641       0.101103901863098     -0.0222234092652798                       0 
      -1.78989494747374                    -0.6        1.22495305538177        42.1421089172363    1.54892308387716E-09                  253998           101309.203125        288.110992431641       0.101103901863098     -0.0222234092652798                       0 
      -1.78739369684842                    -0.6        1.22495305538177        42.1421089172363    1.56838248161238E-09                  253998           101309.203125        288.110992431641       0.101103901863098     -0.0222234092652798                       0 
      -1.78489244622311                    -0.6        1.22495305538177        42.1421089172363     1.5878418793476E-09                  253998           101309.203125        288.110992431641       0.101103901863098     -0.0222234092652798                       0 
       -1.7823911955978                    -0.6        1.22495305538177        42.1421089172363    1.60730127708281E-09                  253998           101309.203125        288.110992431641       0.101103901863098     -0.0222234092652798                       0 
      -1.77988994497249                    -0.6        1.22495305538177        42.1421089172363    1.62676067481803E-09                  253998           101309.203125        288.110992431641       0.101103901863098     -0.0222234092652798                       0 
      -1.77738869434717                    -0.6        1.22495305538177        42.1421089172363    1.64622007255324E-09                  253998           101309.203125        288.110992431641       0.101103901863098     -0.0222234092652798                       0 
      -1.77488744372186                    -0.6        1.22495305538177        42.1421089172363    1.66567947028846E-09                  253998           101309.203125        288.110992431641       0.101103901863098     -0.0222234092652798                       0 
      -1.77238619309655                    -0.6        1.22495305538177        42.1421089172363    1.68513886802368E-09                  253998           101309.203125        288.110992431641       0.101103901863098     -0.0222234092652798                       0 
      -1.76988494247124                    -0.6        1.22495305538177        42.1421089172363     1.7048865406935E-09                  253998           101309.203125        288.110992431641       0.101103901863098     -0.0222234092652798                       0 
      -1.76738369184592                    -0.6        1.22495305538177        42.1421089172363    1.72486194890545E-09                  253998           101309.203125        288.110992431641       0.101103901863098     -0.0222234092652798                       0 
      -1.76488244122061                    -0.6        1.22495305538177        42.1421089172363     1.7443634202237E-09                  253998           101309.203125        288.110992431641       0.101103901863098     -0.0222234092652798                       0 
       -1.7623811905953                    -0.6        1.22495305538177        42.1421089172363    1.76382281795892E-09                  253998           101309.203125        288.110992431641       0.101103901863098     -0.0222234092652798                       0 
      -1.75987993996998                    -0.6        1.22495305538177        42.1421089172363    1.78328221569414E-09                  253998           101309.203125        288.110992431641       0.101103901863098     -0.0222234092652798                       0 
      -1.75737868934467                    -0.6        1.22495305538177        42.1421089172363    1.80274161342935E-09                  253998           101309.203125        288.110992431641       0.101103901863098     -0.0222234092652798                       0 
      -1.75487743871936                    -0.6        1.22495305538177        42.1421089172363    1.82220101116457E-09                  253998           101309.203125        288.110992431641       0.101103901863098     -0.0222234092652798                       0 
      -1.75237618809405                    -0.6        1.22495305538177        42.1421089172363    1.84166040889979E-09                  253998           101309.203125        288.110992431641       0.101103901863098     -0.0222234092652798                       0 
      -1.74987493746873                    -0.6        1.22495305538177        42.1421089172363      1.861119806635E-09                  253998           101309.203125        288.110992431641       0.101103901863098     -0.0222234092652798                       0 
      -1.74737368684342                    -0.6        1.22495305538177        42.1421089172363    1.88057920437022E-09                  253998           101309.203125        288.110992431641       0.101103901863098     -0.0222234092652798                       0 
      -1.74487243621811                    -0.6        1.22495305538177        42.1421089172363    1.90003860210543E-09                  253998           101309.203125        288.110992431641       0.101103901863098     -0.0222234092652798                       0 
       -1.7423711855928                    -0.6        1.22495305538177        42.1421089172363    1.91992464945471E-09                  253998           101309.203125        288.110992431641       0.101103901863098     -0.0222234092652798                       0 
      -1.73986993496748                    -0.6        1.22495305538177        42.1421089172363    1.94025961936818E-09                  253998           101309.203125        288.110992431641       0.101103901863098     -0.0222234092652798                       0 
      -1.73736868434217                    -0.6        1.22495305538177        42.1421089172363    1.96059458928164E-09                  253998           101309.203125        288.110992431641       0.101103901863098     -0.0222234092652798                       0 
      -1.73486743371686                    -0.6        1.22495305538177        42.1421089172363     1.9809295591951E-09                  253998           101309.203125        288.110992431641       0.101103901863098     -0.0222234092652798                       0 
      -1.73236618309155                    -0.6        1.22495305538177        42.1421089172363    2.00126452910856E-09                  253998           101309.203125        288.110992431641       0.101103901863098     -0.0222234092652798                       0 
      -1.72986493246623                    -0.6        1.22495305538177        42.1421089172363    2.02159949902203E-09                  253998           101309.203125        288.110992431641       0.101103901863098     -0.0222234092652798                       0 
      -1.72736368184092                    -0.6        1.22495305538177        42.1421089172363    2.04193446893549E-09                  253998           101309.203125        288.110992431641       0.101103901863098     -0.0222234092652798                       0 
      -1.72486243121561                    -0.6        1.22495305538177        42.1421089172363    2.06226943884895E-09                  253998           101309.203125        288.110992431641       0.101103901863098     -0.0222234092652798                       0 
       -1.7223611805903                    -0.6        1.22495305538177        42.1421089172363    2.08260440876241E-09                  253998           101309.203125        288.110992431641       0.101103901863098     -0.0222234092652798                       0 