TITLE = "Visualization of the volumetric solution"
VARIABLES = "x","y","Adjoint_Density","Adjoint_Momentum_x","Adjoint_Momentum_y","Adjoint_Energy","Sensitivity_x","Sensitivity_y","Surface_Sensitivity"
ZONE NODES= 3200, ELEMENTS= 3081, DATAPACKING=POINT, ZONETYPE=FEQUADRILATERAL
1.000000e+00	1.250000e+00	-1.832732e-17	1.065094e-20	-2.460019e-19	9.082158e-23	0.000000e+00	0.000000e+00	0.000000e+00	
1.000000e+00	1.218354e+00	-1.590748e-17	7.704862e-21	-1.960652e-19	7.659868e-23	0.000000e+00	0.000000e+00	0.000000e+00	
1.051282e+00	1.218354e+00	-1.182317e-17	3.153933e-20	-1.636077e-19	5.899935e-23	0.000000e+00	0.000000e+00	0.000000e+00	
1.051282e+00	1.250000e+00	-1.393789e-17	3.751966e-20	-2.190834e-19	7.222376e-23	0.000000e+00	0.000000e+00	0.000000e+00	
1.000000e+00	1.186709e+00	-1.575573e-17	7.299142e-21	-1.864720e-19	7.645551e-23	0.000000e+00	0.000000e+00	0.000000e+00	
1.051282e+00	1.186709e+00	-1.206608e-17	3.213807e-20	-1.609241e-19	6.109923e-23	0.000000e+00	0.000000e+00	0.000000e+00	
1.000000e+00	1.155063e+00	-1.566501e-17	6.978089e-21	-1.766126e-19	7.581003e-23	0.000000e+00	0.000000e+00	0.000000e+00	
1.051282e+00	1.155063e+00	-1.223799e-17	3.324194e-20	-1.564794e-19	6.154928e-23	0.000000e+00	0.000000e+00	0.000000e+00	
1.000000e+00	1.123418e+00	-1.568142e-17	6.969444e-21	-1.667041e-19	7.598897e-23	0.000000e+00	0.000000e+00	0.000000e+00	
1.051282e+00	1.123418e+00	-1.243397e-17	3.653709e-20	-1.519271e-19	6.226327e-23	0.000000e+00	0.000000e+00	0.000000e+00	
1.000000e+00	1.091772e+00	-1.578322e-17	7.027000e-21	-1.547187e-19	7.605354e-23	0.000000e+00	0.000000e+00	0.000000e+00	
1.051282e+00	1.091772e+00	-1.269984e-17	4.186295e-20	-1.454572e-19	6.238544e-23	0.000000e+00	0.000000e+00	0.000000e+00	
1.000000e+00	1.060127e+00	-1.594133e-17	7.084507e-21	-1.403212e-19	7.622543e-23	0.000000e+00	0.000000e+00	0.000000e+00	
1.051282e+00	1.060127e+00	-1.299283e-17	4.747882e-20	-1.370610e-19	6.234780e-23	0.000000e+00	0.000000e+00	0.000000e+00	
1.000000e+00	1.028481e+00	-1.612975e-17	6.865774e-21	-1.236459e-19	7.613485e-23	0.000000e+00	0.000000e+00	0.000000e+00	
1.051282e+00	1.028481e+00	-1.323234e-17	5.067773e-20	-1.264016e-19	6.177119e-23	0.000000e+00	0.000000e+00	0.000000e+00	
1.000000e+00	9.968354e-01	-1.631887e-17	6.292602e-21	-1.063874e-19	7.578492e-23	0.000000e+00	0.000000e+00	0.000000e+00	
1.051282e+00	9.968354e-01	-1.333630e-17	4.929757e-20	-1.143467e-19	6.072557e-23	0.000000e+00	0.000000e+00	0.000000e+00	
1.000000e+00	9.651899e-01	-1.647847e-17	5.367750e-21	-9.073523e-20	7.503314e-23	0.000000e+00	0.000000e+00	0.000000e+00	
1.051282e+00	9.651899e-01	-1.326304e-17	4.253867e-20	-1.020141e-19	5.913226e-23	0.000000e+00	0.000000e+00	0.000000e+00	
1.000000e+00	9.335443e-01	-1.658446e-17	4.259429e-21	-7.891310e-20	7.389949e-23	0.000000e+00	0.000000e+00	0.000000e+00	
1.051282e+00	9.335443e-01	-1.302210e-17	3.124060e-20	-9.082539e-20	5.714700e-23	0.000000e+00	0.000000e+00	0.000000e+00	
1.000000e+00	9.018987e-01	-1.662436e-17	3.175543e-21	-7.235933e-20	7.240686e-23	0.000000e+00	0.000000e+00	0.000000e+00	
1.051282e+00	9.018987e-01	-1.266393e-17	1.735023e-20	-8.193089e-20	5.493057e-23	0.000000e+00	0.000000e+00	0.000000e+00	
1.000000e+00	8.702532e-01	-1.659838e-17	2.316963e-21	-7.151940e-20	7.065543e-23	0.000000e+00	0.000000e+00	0.000000e+00	
1.051282e+00	8.702532e-01	-1.225340e-17	3.115326e-21	-7.615060e-20	5.271319e-23	0.000000e+00	0.000000e+00	0.000000e+00	
1.000000e+00	8.386076e-01	-1.651631e-17	1.803312e-21	-7.588995e-20	6.874823e-23	0.000000e+00	0.000000e+00	0.000000e+00	
1.051282e+00	8.386076e-01	-1.184502e-17	-9.669299e-21	-7.390627e-20	5.068060e-23	0.000000e+00	0.000000e+00	0.000000e+00	
1.000000e+00	8.069620e-01	-1.639265e-17	1.667307e-21	-8.439952e-20	6.679842e-23	0.000000e+00	0.000000e+00	0.000000e+00	
1.051282e+00	8.069620e-01	-1.146882e-17	-2.001901e-20	-7.538860e-20	4.897907e-23	0.000000e+00	0.000000e+00	0.000000e+00	
1.000000e+00	7.753165e-01	-1.624223e-17	1.866753e-21	-9.579280e-20	6.490176e-23	0.000000e+00	0.000000e+00	0.000000e+00	
1.051282e+00	7.753165e-01	-1.113104e-17	-2.770159e-20	-8.067760e-20	4.768664e-23	0.000000e+00	0.000000e+00	0.000000e+00	
1.000000e+00	7.436709e-01	-1.607797e-17	2.322609e-21	-1.089162e-19	6.314433e-23	0.000000e+00	0.000000e+00	0.000000e+00	
1.051282e+00	7.436709e-01	-1.082499e-17	-3.289436e-20	-8.982725e-20	4.683524e-23	0.000000e+00	0.000000e+00	0.000000e+00	
1.000000e+00	7.120253e-01	-1.591081e-17	2.949177e-21	-1.227956e-19	6.160075e-23	0.000000e+00	0.000000e+00	0.000000e+00	
1.051282e+00	7.120253e-01	-1.054463e-17	-3.579884e-20	-1.028277e-19	4.642113e-23	0.000000e+00	0.000000e+00	0.000000e+00	
1.000000e+00	6.803797e-01	-1.575105e-17	3.673370e-21	-1.365641e-19	6.033997e-23	0.000000e+00	0.000000e+00	0.000000e+00	
1.051282e+00	6.803797e-01	-1.029408e-17	-3.639986e-20	-1.195058e-19	4.642257e-23	0.000000e+00	0.000000e+00	0.000000e+00	
1.000000e+00	6.487342e-01	-1.560973e-17	4.435990e-21	-1.493279e-19	5.942118e-23	0.000000e+00	0.000000e+00	0.000000e+00	
1.051282e+00	6.487342e-01	-1.008920e-17	-3.445446e-20	-1.394082e-19	4.680213e-23	0.000000e+00	0.000000e+00	0.000000e+00	
1.000000e+00	6.170886e-01	-1.549915e-17	5.183357e-21	-1.600807e-19	5.888694e-23	0.000000e+00	0.000000e+00	0.000000e+00	
1.051282e+00	6.170886e-01	-9.952003e-18	-2.967144e-20	-1.617406e-19	4.750370e-23	0.000000e+00	0.000000e+00	0.000000e+00	
1.000000e+00	5.854430e-01	-1.543195e-17	5.855865e-21	-1.677266e-19	5.875183e-23	0.000000e+00	0.000000e+00	0.000000e+00	
1.051282e+00	5.854430e-01	-9.901217e-18	-2.197059e-20	-1.853941e-19	4.844357e-23	0.000000e+00	0.000000e+00	0.000000e+00	
1.000000e+00	5.537975e-01	-1.541901e-17	6.381488e-21	-1.712178e-19	5.899348e-23	0.000000e+00	0.000000e+00	0.000000e+00	
1.051282e+00	5.537975e-01	-9.943338e-18	-1.169444e-20	-2.090599e-19	4.950502e-23	0.000000e+00	0.000000e+00	0.000000e+00	
1.000000e+00	5.221519e-01	-1.546692e-17	6.677102e-21	-1.697591e-19	5.954850e-23	0.000000e+00	0.000000e+00	0.000000e+00	
1.051282e+00	5.221519e-01	-1.006765e-17	3.151703e-22	-2.313996e-19	5.053970e-23	0.000000e+00	0.000000e+00	0.000000e+00	
1.000000e+00	4.905063e-01	-1.557584e-17	6.657582e-21	-1.630089e-19	6.031639e-23	0.000000e+00	0.000000e+00	0.000000e+00	
1.051282e+00	4.905063e-01	-1.024672e-17	1.280197e-20	-2.512244e-19	5.137879e-23	0.000000e+00	0.000000e+00	0.000000e+00	
1.000000e+00	4.588608e-01	-1.573862e-17	6.249428e-21	-1.512084e-19	6.117064e-23	0.000000e+00	0.000000e+00	0.000000e+00	
1.051282e+00	4.588608e-01	-1.044177e-17	2.430756e-20	-2.676389e-19	5.185146e-23	0.000000e+00	0.000000e+00	0.000000e+00	
1.000000e+00	4.272152e-01	-1.594125e-17	5.404833e-21	-1.352003e-19	6.197499e-23	0.000000e+00	0.000000e+00	0.000000e+00	
1.051282e+00	4.272152e-01	-1.061089e-17	3.343962e-20	-2.801208e-19	5.180692e-23	0.000000e+00	0.000000e+00	0.000000e+00	
1.000000e+00	3.955696e-01	-1.616476e-17	4.112146e-21	-1.163325e-19	6.260123e-23	0.000000e+00	0.000000e+00	0.000000e+00	
1.051282e+00	3.955696e-01	-1.071738e-17	3.911619e-20	-2.885311e-19	5.113452e-23	0.000000e+00	0.000000e+00	0.000000e+00	
1.000000e+00	3.639241e-01	-1.638797e-17	2.399968e-21	-9.627413e-20	6.294524e-23	0.000000e+00	0.000000e+00	0.000000e+00	
1.051282e+00	3.639241e-01	-1.073594e-17	4.072256e-20	-2.930650e-19	4.977751e-23	0.000000e+00	0.000000e+00	0.000000e+00	
1.000000e+00	3.322785e-01	-1.659037e-17	3.335770e-22	-7.679573e-20	6.293878e-23	0.000000e+00	0.000000e+00	0.000000e+00	
1.051282e+00	3.322785e-01	-1.065530e-17	3.815061e-20	-2.941674e-19	4.773777e-23	0.000000e+00	0.000000e+00	0.000000e+00	
1.000000e+00	3.006329e-01	-1.675460e-17	-1.995722e-21	-5.956444e-20	6.255593e-23	0.000000e+00	0.000000e+00	0.000000e+00	
1.051282e+00	3.006329e-01	-1.047720e-17	3.172684e-20	-2.924377e-19	4.507136e-23	0.000000e+00	0.000000e+00	0.000000e+00	
1.000000e+00	2.689873e-01	-1.686788e-17	-4.486087e-21	-4.599792e-20	6.181442e-23	0.000000e+00	0.000000e+00	0.000000e+00	
1.051282e+00	2.689873e-01	-1.021266e-17	2.206667e-20	-2.885423e-19	4.187731e-23	0.000000e+00	0.000000e+00	0.000000e+00	
1.000000e+00	2.373418e-01	-1.692230e-17	-7.041779e-21	-3.719585e-20	6.077288e-23	0.000000e+00	0.000000e+00	0.000000e+00	
1.051282e+00	2.373418e-01	-9.877233e-18	9.909816e-21	-2.831434e-19	3.828330e-23	0.000000e+00	0.000000e+00	0.000000e+00	
1.000000e+00	2.056962e-01	-1.691428e-17	-9.586613e-21	-3.394254e-20	5.952525e-23	0.000000e+00	0.000000e+00	0.000000e+00	
1.051282e+00	2.056962e-01	-9.487191e-18	-4.008227e-21	-2.768437e-19	3.443232e-23	0.000000e+00	0.000000e+00	0.000000e+00	
1.000000e+00	1.740506e-01	-1.684341e-17	-1.207025e-20	-3.675129e-20	5.819320e-23	0.000000e+00	0.000000e+00	0.000000e+00	
1.051282e+00	1.740506e-01	-9.057884e-18	-1.901009e-20	-2.701384e-19	3.047352e-23	0.000000e+00	0.000000e+00	0.000000e+00	
1.000000e+00	1.424051e-01	-1.671148e-17	-1.446498e-20	-4.590956e-20	5.691687e-23	0.000000e+00	0.000000e+00	0.000000e+00	
1.051282e+00	1.424051e-01	-8.604859e-18	-3.444601e-20	-2.633684e-19	2.655834e-23	0.000000e+00	0.000000e+00	0.000000e+00	
1.000000e+00	1.107595e-01	-1.652195e-17	-1.675337e-20	-6.148685e-20	5.584368e-23	0.000000e+00	0.000000e+00	0.000000e+00	
1.051282e+00	1.107595e-01	-8.146997e-18	-4.960153e-20	-2.566716e-19	2.284071e-23	0.000000e+00	0.000000e+00	0.000000e+00	
1.000000e+00	7.911392e-02	-1.628015e-17	-1.890997e-20	-8.328412e-20	5.511472e-23	0.000000e+00	0.000000e+00	0.000000e+00	
1.051282e+00	7.911392e-02	-7.710072e-18	-6.359220e-20	-2.499405e-19	1.947829e-23	0.000000e+00	0.000000e+00	0.000000e+00	
1.000000e+00	4.746835e-02	-1.599408e-17	-2.088299e-20	-1.107307e-19	5.484894e-23	0.000000e+00	0.000000e+00	0.000000e+00	
1.051282e+00	4.746835e-02	-7.328679e-18	-7.530515e-20	-2.427982e-19	1.663068e-23	0.000000e+00	0.000000e+00	0.000000e+00	
1.000000e+00	1.582278e-02	-1.567532e-17	-2.258232e-20	-1.427625e-19	5.512598e-23	0.000000e+00	0.000000e+00	0.000000e+00	
1.051282e+00	1.582278e-02	-7.044763e-18	-8.343757e-20	-2.346145e-19	1.445138e-23	0.000000e+00	0.000000e+00	0.000000e+00	
1.000000e+00	-1.582278e-02	-1.533948e-17	-2.387968e-20	-1.777336e-19	5.597001e-23	0.000000e+00	0.000000e+00	0.000000e+00	
1.051282e+00	-1.582278e-02	-6.901995e-18	-8.665367e-20	-2.245746e-19	1.307218e-23	0.000000e+00	0.000000e+00	0.000000e+00	
1.000000e+00	-4.746835e-02	-1.500569e-17	-2.462293e-20	-2.134179e-19	5.733758e-23	0.000000e+00	0.000000e+00	0.000000e+00	
1.051282e+00	-4.746835e-02	-6.936613e-18	-8.384129e-20	-2.118072e-19	1.258171e-23	0.000000e+00	0.000000e+00	0.000000e+00	
1.000000e+00	-7.911392e-02	-1.469488e-17	-2.466303e-20	-2.471402e-19	5.911309e-23	0.000000e+00	0.000000e+00	0.000000e+00	
1.051282e+00	-7.911392e-02	-7.166806e-18	-7.441093e-20	-1.955587e-19	1.300256e-23	0.000000e+00	0.000000e+00	0.000000e+00	
1.000000e+00	-1.107595e-01	-1.442698e-17	-2.388771e-20	-2.760436e-19	6.111442e-23	0.000000e+00	0.000000e+00	0.000000e+00	
1.051282e+00	-1.107595e-01	-7.583549e-18	-5.855522e-20	-1.753868e-19	1.427323e-23	0.000000e+00	0.000000e+00	0.000000e+00	
1.000000e+00	-1.424051e-01	-1.421766e-17	-2.225354e-20	-2.974607e-19	6.311010e-23	0.000000e+00	0.000000e+00	0.000000e+00	
1.051282e+00	-1.424051e-01	-8.145865e-18	-3.738661e-20	-1.513334e-19	1.624105e-23	0.000000e+00	0.000000e+00	0.000000e+00	
1.000000e+00	-1.740506e-01	-1.407530e-17	-1.980792e-20	-3.093232e-19	6.484651e-23	0.000000e+00	0.000000e+00	0.000000e+00	
1.051282e+00	-1.740506e-01	-8.782584e-18	-1.289592e-20	-1.240351e-19	1.867037e-23	0.000000e+00	0.000000e+00	0.000000e+00	
1.000000e+00	-2.056962e-01	-1.399908e-17	-1.669464e-20	-3.105224e-19	6.608162e-23	0.000000e+00	0.000000e+00	0.000000e+00	
1.051282e+00	-2.056962e-01	-9.401034e-18	1.228123e-20	-9.473711e-20	2.126670e-23	0.000000e+00	0.000000e+00	0.000000e+00	
1.000000e+00	-2.373418e-01	-1.397867e-17	-1.314082e-20	-3.011396e-19	6.661979e-23	0.000000e+00	0.000000e+00	0.000000e+00	
1.051282e+00	-2.373418e-01	-9.901288e-18	3.525298e-20	-6.519714e-20	2.371382e-23	0.000000e+00	0.000000e+00	0.000000e+00	
1.000000e+00	-2.689873e-01	-1.399578e-17	-9.427509e-21	-2.824881e-19	6.634135e-23	0.000000e+00	0.000000e+00	0.000000e+00	
1.051282e+00	-2.689873e-01	-1.019302e-17	5.333551e-20	-3.748733e-20	2.571711e-23	0.000000e+00	0.000000e+00	0.000000e+00	
1.000000e+00	-3.006329e-01	-1.402720e-17	-5.850157e-21	-2.569510e-19	6.522125e-23	0.000000e+00	0.000000e+00	0.000000e+00	
1.051282e+00	-3.006329e-01	-1.021128e-17	6.449337e-20	-1.372649e-20	2.704500e-23	0.000000e+00	0.000000e+00	0.000000e+00	
1.000000e+00	-3.322785e-01	-1.404870e-17	-2.677246e-21	-2.276425e-19	6.333368e-23	0.000000e+00	0.000000e+00	0.000000e+00	
1.051282e+00	-3.322785e-01	-9.927810e-18	6.766181e-20	4.209095e-21	2.756051e-23	0.000000e+00	0.000000e+00	0.000000e+00	
1.000000e+00	-3.639241e-01	-1.403900e-17	-1.151877e-22	-1.979591e-19	6.084126e-23	0.000000e+00	0.000000e+00	0.000000e+00	
1.051282e+00	-3.639241e-01	-9.355398e-18	6.288668e-20	1.494350e-20	2.723687e-23	0.000000e+00	0.000000e+00	0.000000e+00	
1.000000e+00	-3.955696e-01	-1.398292e-17	1.714338e-21	-1.711065e-19	5.797146e-23	0.000000e+00	0.000000e+00	0.000000e+00	
1.051282e+00	-3.955696e-01	-8.544808e-18	5.126168e-20	1.778159e-20	2.615530e-23	0.000000e+00	0.000000e+00	0.000000e+00	
1.000000e+00	-4.272152e-01	-1.387320e-17	2.781737e-21	-1.496873e-19	5.498450e-23	0.000000e+00	0.000000e+00	0.000000e+00	
1.051282e+00	-4.272152e-01	-7.575171e-18	3.468870e-20	1.278307e-20	2.448606e-23	0.000000e+00	0.000000e+00	0.000000e+00	
1.000000e+00	-4.588608e-01	-1.371088e-17	3.142107e-21	-1.354171e-19	5.213882e-23	0.000000e+00	0.000000e+00	0.000000e+00	
1.051282e+00	-4.588608e-01	-6.540288e-18	1.552292e-20	7.233032e-22	2.245779e-23	0.000000e+00	0.000000e+00	0.000000e+00	
1.000000e+00	-4.905063e-01	-1.350414e-17	2.916454e-21	-1.290034e-19	4.965964e-23	0.000000e+00	0.000000e+00	0.000000e+00	
1.051282e+00	-4.905063e-01	-5.533835e-18	-3.818506e-21	-1.704428e-20	2.032131e-23	0.000000e+00	0.000000e+00	0.000000e+00	
1.000000e+00	-5.221519e-01	-1.326626e-17	2.266499e-21	-1.301868e-19	4.771577e-23	0.000000e+00	0.000000e+00	0.000000e+00	
1.051282e+00	-5.221519e-01	-4.636341e-18	-2.120735e-20	-3.879246e-20	1.831495e-23	0.000000e+00	0.000000e+00	0.000000e+00	
1.000000e+00	-5.537975e-01	-1.301308e-17	1.368253e-21	-1.379157e-19	4.640692e-23	0.000000e+00	0.000000e+00	0.000000e+00	
1.051282e+00	-5.537975e-01	-3.906057e-18	-3.505776e-20	-6.265169e-20	1.663645e-23	0.000000e+00	0.000000e+00	0.000000e+00	
1.000000e+00	-5.854430e-01	-1.276057e-17	3.888324e-22	-1.506029e-19	4.576238e-23	0.000000e+00	0.000000e+00	0.000000e+00	
1.051282e+00	-5.854430e-01	-3.374738e-18	-4.445344e-20	-8.682900e-20	1.542543e-23	0.000000e+00	0.000000e+00	0.000000e+00	
1.000000e+00	-6.170886e-01	-1.252296e-17	-5.308202e-22	-1.664113e-19	4.574918e-23	0.000000e+00	0.000000e+00	0.000000e+00	
1.051282e+00	-6.170886e-01	-3.048210e-18	-4.914960e-20	-1.097840e-19	1.475669e-23	0.000000e+00	0.000000e+00	0.000000e+00	
1.000000e+00	-6.487342e-01	-1.231144e-17	-1.285841e-21	-1.835170e-19	4.628734e-23	0.000000e+00	0.000000e+00	0.000000e+00	
1.051282e+00	-6.487342e-01	-2.910735e-18	-4.947420e-20	-1.303426e-19	1.464420e-23	0.000000e+00	0.000000e+00	0.000000e+00	
1.000000e+00	-6.803797e-01	-1.213371e-17	-1.810813e-21	-2.003165e-19	4.726748e-23	0.000000e+00	0.000000e+00	0.000000e+00	
1.051282e+00	-6.803797e-01	-2.931569e-18	-4.616669e-20	-1.477448e-19	1.505136e-23	0.000000e+00	0.000000e+00	0.000000e+00	
1.000000e+00	-7.120253e-01	-1.199386e-17	-2.077024e-21	-2.155591e-19	4.856887e-23	0.000000e+00	0.000000e+00	0.000000e+00	
1.051282e+00	-7.120253e-01	-3.072095e-18	-4.019450e-20	-1.616318e-19	1.590659e-23	0.000000e+00	0.000000e+00	0.000000e+00	
1.000000e+00	-7.436709e-01	-1.189255e-17	-2.086808e-21	-2.284040e-19	5.007214e-23	0.000000e+00	0.000000e+00	0.000000e+00	
1.051282e+00	-7.436709e-01	-3.292021e-18	-3.258228e-20	-1.719914e-19	1.711640e-23	0.000000e+00	0.000000e+00	0.000000e+00	
1.000000e+00	-7.753165e-01	-1.182741e-17	-1.864549e-21	-2.384118e-19	5.167090e-23	0.000000e+00	0.000000e+00	0.000000e+00	
1.051282e+00	-7.753165e-01	-3.554004e-18	-2.427503e-20	-1.790736e-19	1.858066e-23	0.000000e+00	0.000000e+00	0.000000e+00	
1.000000e+00	-8.069620e-01	-1.179364e-17	-1.449579e-21	-2.454919e-19	5.327447e-23	0.000000e+00	0.000000e+00	0.000000e+00	
1.051282e+00	-8.069620e-01	-3.826457e-18	-1.604743e-20	-1.833053e-19	2.019834e-23	0.000000e+00	0.000000e+00	0.000000e+00	
1.000000e+00	-8.386076e-01	-1.178575e-17	-8.861517e-22	-2.498150e-19	5.481889e-23	0.000000e+00	0.000000e+00	0.000000e+00	
1.051282e+00	-8.386076e-01	-4.085698e-18	-8.454250e-21	-1.851982e-19	2.188378e-23	0.000000e+00	0.000000e+00	0.000000e+00	
1.000000e+00	-8.702532e-01	-1.179956e-17	-2.208141e-22	-2.517277e-19	5.626265e-23	0.000000e+00	0.000000e+00	0.000000e+00	
1.051282e+00	-8.702532e-01	-4.317625e-18	-1.821704e-21	-1.852915e-19	2.356525e-23	0.000000e+00	0.000000e+00	0.000000e+00	
1.000000e+00	-9.018987e-01	-1.183459e-17	5.088815e-22	-2.516444e-19	5.760513e-23	0.000000e+00	0.000000e+00	0.000000e+00	
1.051282e+00	-9.018987e-01	-4.519898e-18	3.738446e-21	-1.840745e-19	2.521507e-23	0.000000e+00	0.000000e+00	0.000000e+00	
1.000000e+00	-9.335443e-01	-1.189275e-17	1.267651e-21	-2.499937e-19	5.885184e-23	0.000000e+00	0.000000e+00	0.000000e+00	
1.051282e+00	-9.335443e-01	-4.700820e-18	8.278686e-21	-1.819836e-19	2.681919e-23	0.000000e+00	0.000000e+00	0.000000e+00	
1.000000e+00	-9.651899e-01	-1.197505e-17	2.043273e-21	-2.471156e-19	6.003736e-23	0.000000e+00	0.000000e+00	0.000000e+00	
1.051282e+00	-9.651899e-01	-4.874611e-18	1.195700e-20	-1.793118e-19	2.841772e-23	0.000000e+00	0.000000e+00	0.000000e+00	
1.000000e+00	-9.968354e-01	-1.207327e-17	2.817930e-21	-2.433157e-19	6.111900e-23	0.000000e+00	0.000000e+00	0.000000e+00	
1.051282e+00	-9.968354e-01	-5.045853e-18	1.492219e-20	-1.763103e-19	2.996853e-23	0.000000e+00	0.000000e+00	0.000000e+00	
1.000000e+00	-1.028481e+00	-1.216912e-17	3.615150e-21	-2.387571e-19	6.209067e-23	0.000000e+00	0.000000e+00	0.000000e+00	
1.051282e+00	-1.028481e+00	-5.194233e-18	1.722449e-20	-1.730285e-19	3.145331e-23	0.000000e+00	0.000000e+00	0.000000e+00	
1.000000e+00	-1.060127e+00	-1.222615e-17	4.395937e-21	-2.337725e-19	6.274417e-23	0.000000e+00	0.000000e+00	0.000000e+00	
1.051282e+00	-1.060127e+00	-5.255215e-18	1.867501e-20	-1.697188e-19	3.256097e-23	0.000000e+00	0.000000e+00	0.000000e+00	
1.000000e+00	-1.091772e+00	-1.219812e-17	5.179850e-21	-2.285819e-19	6.305578e-23	0.000000e+00	0.000000e+00	0.000000e+00	
1.051282e+00	-1.091772e+00	-5.144136e-18	1.897727e-20	-1.664324e-19	3.321735e-23	0.000000e+00	0.000000e+00	0.000000e+00	
1.000000e+00	-1.123418e+00	-1.203539e-17	5.786807e-21	-2.240294e-19	6.257921e-23	0.000000e+00	0.000000e+00	0.000000e+00	
1.051282e+00	-1.123418e+00	-4.826555e-18	1.801909e-20	-1.641041e-19	3.302548e-23	0.000000e+00	0.000000e+00	0.000000e+00	
1.000000e+00	-1.155063e+00	-1.184179e-17	6.369153e-21	-2.200882e-19	6.215825e-23	0.000000e+00	0.000000e+00	0.000000e+00	
1.051282e+00	-1.155063e+00	-4.546704e-18	1.674792e-20	-1.627918e-19	3.336382e-23	0.000000e+00	0.000000e+00	0.000000e+00	
1.000000e+00	-1.186709e+00	-1.204564e-17	6.793610e-21	-2.174972e-19	6.258250e-23	0.000000e+00	0.000000e+00	0.000000e+00	
1.051282e+00	-1.186709e+00	-5.019845e-18	1.746666e-20	-1.641741e-19	3.576848e-23	0.000000e+00	0.000000e+00	0.000000e+00	
1.000000e+00	-1.218354e+00	-1.345357e-17	8.341442e-21	-2.117614e-19	6.677659e-23	0.000000e+00	0.000000e+00	0.000000e+00	
1.051282e+00	-1.218354e+00	-7.316817e-18	2.239276e-20	-1.646825e-19	4.256066e-23	0.000000e+00	0.000000e+00	0.000000e+00	
1.102564e+00	1.218354e+00	-4.526602e-19	2.960093e-20	-2.641898e-20	9.066845e-24	0.000000e+00	0.000000e+00	0.000000e+00	
1.102564e+00	1.250000e+00	5.837731e-19	3.206229e-20	-3.734810e-20	1.083907e-23	0.000000e+00	0.000000e+00	0.000000e+00	
1.102564e+00	1.186709e+00	-6.645432e-19	3.179978e-20	-2.799135e-20	1.141398e-23	0.000000e+00	0.000000e+00	0.000000e+00	
1.102564e+00	1.155063e+00	-8.251107e-19	3.413242e-20	-2.696885e-20	1.160148e-23	0.000000e+00	0.000000e+00	0.000000e+00	
1.102564e+00	1.123418e+00	-1.020706e-18	3.889152e-20	-2.658786e-20	1.231946e-23	0.000000e+00	0.000000e+00	0.000000e+00	
1.102564e+00	1.091772e+00	-1.304834e-18	4.645681e-20	-2.532323e-20	1.235232e-23	0.000000e+00	0.000000e+00	0.000000e+00	
1.102564e+00	1.060127e+00	-1.618457e-18	5.492824e-20	-2.376407e-20	1.240493e-23	0.000000e+00	0.000000e+00	0.000000e+00	
1.102564e+00	1.028481e+00	-1.869495e-18	6.118576e-20	-2.118571e-20	1.205699e-23	0.000000e+00	0.000000e+00	0.000000e+00	
1.102564e+00	9.968354e-01	-1.966185e-18	6.248173e-20	-1.756079e-20	1.149579e-23	0.000000e+00	0.000000e+00	0.000000e+00	
1.102564e+00	9.651899e-01	-1.868941e-18	5.755396e-20	-1.259105e-20	1.059699e-23	0.000000e+00	0.000000e+00	0.000000e+00	
1.102564e+00	9.335443e-01	-1.594843e-18	4.694120e-20	-6.341713e-21	9.468546e-24	0.000000e+00	0.000000e+00	0.000000e+00	
1.102564e+00	9.018987e-01	-1.203025e-18	3.245057e-20	1.044539e-21	8.143323e-24	0.000000e+00	0.000000e+00	0.000000e+00	
1.102564e+00	8.702532e-01	-7.613518e-19	1.625526e-20	9.145310e-21	6.730914e-24	0.000000e+00	0.000000e+00	0.000000e+00	
1.102564e+00	8.386076e-01	-3.200256e-19	8.678387e-23	1.735826e-20	5.303522e-24	0.000000e+00	0.000000e+00	0.000000e+00	
1.102564e+00	8.069620e-01	1.008583e-19	-1.512486e-20	2.486865e-20	3.939282e-24	0.000000e+00	0.000000e+00	0.000000e+00	
1.102564e+00	7.753165e-01	5.057975e-19	-2.913083e-20	3.074214e-20	2.686970e-24	0.000000e+00	0.000000e+00	0.000000e+00	
1.102564e+00	7.436709e-01	9.083355e-19	-4.194153e-20	3.399648e-20	1.586438e-24	0.000000e+00	0.000000e+00	0.000000e+00	
1.102564e+00	7.120253e-01	1.314447e-18	-5.338804e-20	3.372144e-20	6.623860e-25	0.000000e+00	0.000000e+00	0.000000e+00	
1.102564e+00	6.803797e-01	1.713163e-18	-6.288705e-20	2.918065e-20	-6.658768e-26	0.000000e+00	0.000000e+00	0.000000e+00	
1.102564e+00	6.487342e-01	2.077304e-18	-6.949622e-20	1.990418e-20	-5.919216e-25	0.000000e+00	0.000000e+00	0.000000e+00	
1.102564e+00	6.170886e-01	2.372615e-18	-7.219984e-20	5.743334e-21	-9.163529e-25	0.000000e+00	0.000000e+00	0.000000e+00	
1.102564e+00	5.854430e-01	2.570305e-18	-7.027984e-20	-1.310758e-20	-1.059656e-24	0.000000e+00	0.000000e+00	0.000000e+00	
1.102564e+00	5.537975e-01	2.657663e-18	-6.361512e-20	-3.612495e-20	-1.061134e-24	0.000000e+00	0.000000e+00	0.000000e+00	
1.102564e+00	5.221519e-01	2.642989e-18	-5.280381e-20	-6.249490e-20	-9.799793e-25	0.000000e+00	0.000000e+00	0.000000e+00	
1.102564e+00	4.905063e-01	2.553783e-18	-3.908067e-20	-9.117171e-20	-8.908407e-25	0.000000e+00	0.000000e+00	0.000000e+00	
1.102564e+00	4.588608e-01	2.429575e-18	-2.407413e-20	-1.209484e-19	-8.761730e-25	0.000000e+00	0.000000e+00	0.000000e+00	
1.102564e+00	4.272152e-01	2.312291e-18	-9.490250e-21	-1.505361e-19	-1.016285e-24	0.000000e+00	0.000000e+00	0.000000e+00	
1.102564e+00	3.955696e-01	2.237297e-18	3.182438e-21	-1.786482e-19	-1.379504e-24	0.000000e+00	0.000000e+00	0.000000e+00	
1.102564e+00	3.639241e-01	2.227495e-18	1.287589e-20	-2.040842e-19	-2.014165e-24	0.000000e+00	0.000000e+00	0.000000e+00	
1.102564e+00	3.322785e-01	2.291476e-18	1.902172e-20	-2.258070e-19	-2.943861e-24	0.000000e+00	0.000000e+00	0.000000e+00	
1.102564e+00	3.006329e-01	2.425309e-18	2.151620e-20	-2.430004e-19	-4.166340e-24	0.000000e+00	0.000000e+00	0.000000e+00	
1.102564e+00	2.689873e-01	2.616492e-18	2.061206e-20	-2.550981e-19	-5.655665e-24	0.000000e+00	0.000000e+00	0.000000e+00	
1.102564e+00	2.373418e-01	2.848143e-18	1.679145e-20	-2.617757e-19	-7.366608e-24	0.000000e+00	0.000000e+00	0.000000e+00	
1.102564e+00	2.056962e-01	3.101800e-18	1.066932e-20	-2.629052e-19	-9.240025e-24	0.000000e+00	0.000000e+00	0.000000e+00	
1.102564e+00	1.740506e-01	3.358006e-18	2.954622e-21	-2.584835e-19	-1.120813e-23	0.000000e+00	0.000000e+00	0.000000e+00	
1.102564e+00	1.424051e-01	3.594968e-18	-5.532702e-21	-2.485542e-19	-1.319906e-23	0.000000e+00	0.000000e+00	0.000000e+00	
1.102564e+00	1.107595e-01	3.786563e-18	-1.381939e-20	-2.331494e-19	-1.514067e-23	0.000000e+00	0.000000e+00	0.000000e+00	
1.102564e+00	7.911392e-02	3.901514e-18	-2.075870e-20	-2.122770e-19	-1.696410e-23	0.000000e+00	0.000000e+00	0.000000e+00	
1.102564e+00	4.746835e-02	3.905370e-18	-2.507880e-20	-1.859677e-19	-1.860764e-23	0.000000e+00	0.000000e+00	0.000000e+00	
1.102564e+00	1.582278e-02	3.766065e-18	-2.552603e-20	-1.543802e-19	-2.002130e-23	0.000000e+00	0.000000e+00	0.000000e+00	
1.102564e+00	-1.582278e-02	3.462481e-18	-2.109494e-20	-1.179442e-19	-2.117202e-23	0.000000e+00	0.000000e+00	0.000000e+00	
1.102564e+00	-4.746835e-02	2.994068e-18	-1.129997e-20	-7.750146e-20	-2.204861e-23	0.000000e+00	0.000000e+00	0.000000e+00	
1.102564e+00	-7.911392e-02	2.388657e-18	3.583977e-21	-3.440242e-20	-2.266519e-23	0.000000e+00	0.000000e+00	0.000000e+00	
1.102564e+00	-1.107595e-01	1.705523e-18	2.239147e-20	9.484317e-21	-2.306170e-23	0.000000e+00	0.000000e+00	0.000000e+00	
1.102564e+00	-1.424051e-01	1.031682e-18	4.310793e-20	5.187145e-20	-2.330039e-23	0.000000e+00	0.000000e+00	0.000000e+00	
1.102564e+00	-1.740506e-01	4.710517e-19	6.310290e-20	9.026001e-20	-2.345817e-23	0.000000e+00	0.000000e+00	0.000000e+00	
1.102564e+00	-2.056962e-01	1.281016e-19	7.952542e-20	1.222247e-19	-2.361568e-23	0.000000e+00	0.000000e+00	0.000000e+00	
1.102564e+00	-2.373418e-01	8.924459e-20	8.978550e-20	1.457273e-19	-2.384490e-23	0.000000e+00	0.000000e+00	0.000000e+00	
1.102564e+00	-2.689873e-01	4.060945e-19	9.201892e-20	1.593981e-19	-2.419765e-23	0.000000e+00	0.000000e+00	0.000000e+00	
1.102564e+00	-3.006329e-01	1.084425e-18	8.543261e-20	1.627297e-19	-2.469743e-23	0.000000e+00	0.000000e+00	0.000000e+00	
1.102564e+00	-3.322785e-01	2.081389e-18	7.045488e-20	1.561467e-19	-2.533602e-23	0.000000e+00	0.000000e+00	0.000000e+00	
1.102564e+00	-3.639241e-01	3.311611e-18	4.866122e-20	1.409379e-19	-2.607566e-23	0.000000e+00	0.000000e+00	0.000000e+00	
1.102564e+00	-3.955696e-01	4.660736e-18	2.249767e-20	1.190681e-19	-2.685599e-23	0.000000e+00	0.000000e+00	0.000000e+00	
1.102564e+00	-4.272152e-01	6.003424e-18	-5.132650e-21	9.290703e-20	-2.760426e-23	0.000000e+00	0.000000e+00	0.000000e+00	
1.102564e+00	-4.588608e-01	7.222027e-18	-3.133003e-20	6.492545e-20	-2.824652e-23	0.000000e+00	0.000000e+00	0.000000e+00	
1.102564e+00	-4.905063e-01	8.222391e-18	-5.361447e-20	3.741039e-20	-2.871790e-23	0.000000e+00	0.000000e+00	0.000000e+00	
1.102564e+00	-5.221519e-01	8.944192e-18	-7.022643e-20	1.224118e-20	-2.897005e-23	0.000000e+00	0.000000e+00	0.000000e+00	
1.102564e+00	-5.537975e-01	9.364652e-18	-8.027324e-20	-9.248619e-21	-2.897529e-23	0.000000e+00	0.000000e+00	0.000000e+00	
1.102564e+00	-5.854430e-01	9.495948e-18	-8.371871e-20	-2.631579e-20	-2.872679e-23	0.000000e+00	0.000000e+00	0.000000e+00	
1.102564e+00	-6.170886e-01	9.377785e-18	-8.124468e-20	-3.876947e-20	-2.823630e-23	0.000000e+00	0.000000e+00	0.000000e+00	
1.102564e+00	-6.487342e-01	9.067229e-18	-7.403169e-20	-4.687051e-20	-2.752887e-23	0.000000e+00	0.000000e+00	0.000000e+00	
1.102564e+00	-6.803797e-01	8.628078e-18	-6.351237e-20	-5.119780e-20	-2.663826e-23	0.000000e+00	0.000000e+00	0.000000e+00	
1.102564e+00	-7.120253e-01	8.121637e-18	-5.114369e-20	-5.250406e-20	-2.560039e-23	0.000000e+00	0.000000e+00	0.000000e+00	
1.102564e+00	-7.436709e-01	7.600348e-18	-3.823071e-20	-5.159004e-20	-2.445269e-23	0.000000e+00	0.000000e+00	0.000000e+00	
1.102564e+00	-7.753165e-01	7.104556e-18	-2.581520e-20	-4.920044e-20	-2.322929e-23	0.000000e+00	0.000000e+00	0.000000e+00	
1.102564e+00	-8.069620e-01	6.662250e-18	-1.462844e-20	-4.596743e-20	-2.196879e-23	0.000000e+00	0.000000e+00	0.000000e+00	
1.102564e+00	-8.386076e-01	6.289870e-18	-5.092152e-21	-4.237114e-20	-2.070267e-23	0.000000e+00	0.000000e+00	0.000000e+00	
1.102564e+00	-8.702532e-01	5.993092e-18	2.648069e-21	-3.876095e-20	-1.946831e-23	0.000000e+00	0.000000e+00	0.000000e+00	
1.102564e+00	-9.018987e-01	5.765345e-18	8.676991e-21	-3.534382e-20	-1.826610e-23	0.000000e+00	0.000000e+00	0.000000e+00	
1.102564e+00	-9.335443e-01	5.587447e-18	1.325164e-20	-3.226307e-20	-1.709662e-23	0.000000e+00	0.000000e+00	0.000000e+00	
1.102564e+00	-9.651899e-01	5.429783e-18	1.672882e-20	-2.952253e-20	-1.587919e-23	0.000000e+00	0.000000e+00	0.000000e+00	
1.102564e+00	-9.968354e-01	5.268598e-18	1.944672e-20	-2.713987e-20	-1.463143e-23	0.000000e+00	0.000000e+00	0.000000e+00	
1.102564e+00	-1.028481e+00	5.110505e-18	2.154052e-20	-2.488235e-20	-1.331283e-23	0.000000e+00	0.000000e+00	0.000000e+00	
1.102564e+00	-1.060127e+00	5.030511e-18	2.272240e-20	-2.275225e-20	-1.232668e-23	0.000000e+00	0.000000e+00	0.000000e+00	
1.102564e+00	-1.091772e+00	5.164971e-18	2.220593e-20	-2.037385e-20	-1.182367e-23	0.000000e+00	0.000000e+00	0.000000e+00	
1.102564e+00	-1.123418e+00	5.628721e-18	1.927907e-20	-1.849311e-20	-1.262015e-23	0.000000e+00	0.000000e+00	0.000000e+00	
1.102564e+00	-1.155063e+00	6.232557e-18	1.442257e-20	-1.713191e-20	-1.324551e-23	0.000000e+00	0.000000e+00	0.000000e+00	
1.102564e+00	-1.186709e+00	6.162164e-18	1.145331e-20	-1.809979e-20	-1.254528e-23	0.000000e+00	0.000000e+00	0.000000e+00	
1.102564e+00	-1.218354e+00	4.155433e-18	1.392220e-20	-1.970458e-20	-3.992145e-24	0.000000e+00	0.000000e+00	0.000000e+00	
1.153846e+00	1.218354e+00	8.182030e-18	2.988298e-20	8.782326e-20	-2.725453e-23	0.000000e+00	0.000000e+00	0.000000e+00	
1.153846e+00	1.250000e+00	1.125227e-17	2.947943e-20	1.087005e-19	-3.328919e-23	0.000000e+00	0.000000e+00	0.000000e+00	
1.153846e+00	1.186709e+00	8.004868e-18	3.307341e-20	8.814028e-20	-2.577157e-23	0.000000e+00	0.000000e+00	0.000000e+00	
1.153846e+00	1.155063e+00	7.874210e-18	3.597985e-20	9.041768e-20	-2.597623e-23	0.000000e+00	0.000000e+00	0.000000e+00	
1.153846e+00	1.123418e+00	7.713837e-18	4.042254e-20	9.166987e-20	-2.566280e-23	0.000000e+00	0.000000e+00	0.000000e+00	
1.153846e+00	1.091772e+00	7.465874e-18	4.740746e-20	9.279468e-20	-2.589526e-23	0.000000e+00	0.000000e+00	0.000000e+00	
1.153846e+00	1.060127e+00	7.191391e-18	5.539573e-20	9.293222e-20	-2.605291e-23	0.000000e+00	0.000000e+00	0.000000e+00	
1.153846e+00	1.028481e+00	6.971009e-18	6.187211e-20	9.264221e-20	-2.650072e-23	0.000000e+00	0.000000e+00	0.000000e+00	
1.153846e+00	9.968354e-01	6.885275e-18	6.440910e-20	9.220830e-20	-2.703420e-23	0.000000e+00	0.000000e+00	0.000000e+00	