TITLE = "Visualization of the volumetric solution"
VARIABLES = "x","y","Density","Momentum_x","Momentum_y","Energy","Pressure","Temperature","Mach","C<sub>p</sub>","Roe_Dissipation"
ZONE NODES= 2400, ELEMENTS= 2291, DATAPACKING=POINT, ZONETYPE=FEQUADRILATERAL
0.000000e+00	1.250000e+00	1.225123e+00	4.166605e+01	8.914168e-01	2.540286e+05	1.013279e+05	2.881241e+02	9.996852e-02	4.092238e-03	0.000000e+00	
0.000000e+00	1.218354e+00	1.225121e+00	4.166613e+01	8.883428e-01	2.540281e+05	1.013277e+05	2.881241e+02	9.996874e-02	3.814489e-03	0.000000e+00	
3.448276e-02	1.218354e+00	1.225054e+00	4.165377e+01	4.690402e+00	2.540165e+05	1.013197e+05	2.881173e+02	1.005546e-01	-7.407697e-03	0.000000e+00	
3.448276e-02	1.250000e+00	1.225052e+00	4.165470e+01	4.689712e+00	2.540162e+05	1.013196e+05	2.881173e+02	1.005567e-01	-7.608003e-03	0.000000e+00	
0.000000e+00	1.186709e+00	1.225123e+00	4.166638e+01	8.870350e-01	2.540284e+05	1.013278e+05	2.881241e+02	9.996916e-02	3.996671e-03	0.000000e+00	
3.448276e-02	1.186709e+00	1.225053e+00	4.165414e+01	4.690054e+00	2.540163e+05	1.013197e+05	2.881173e+02	1.005554e-01	-7.511006e-03	0.000000e+00	
0.000000e+00	1.155063e+00	1.225123e+00	4.166630e+01	8.863000e-01	2.540285e+05	1.013279e+05	2.881241e+02	9.996888e-02	4.052812e-03	0.000000e+00	
3.448276e-02	1.155063e+00	1.225053e+00	4.165445e+01	4.689962e+00	2.540163e+05	1.013197e+05	2.881173e+02	1.005562e-01	-7.526884e-03	0.000000e+00	
0.000000e+00	1.123418e+00	1.225123e+00	4.166623e+01	8.859458e-01	2.540286e+05	1.013279e+05	2.881241e+02	9.996869e-02	4.066619e-03	0.000000e+00	
3.448276e-02	1.123418e+00	1.225052e+00	4.165463e+01	4.689911e+00	2.540163e+05	1.013196e+05	2.881173e+02	1.005566e-01	-7.550458e-03	0.000000e+00	
0.000000e+00	1.091772e+00	1.225123e+00	4.166621e+01	8.858007e-01	2.540286e+05	1.013279e+05	2.881241e+02	9.996862e-02	4.076278e-03	0.000000e+00	
3.448276e-02	1.091772e+00	1.225052e+00	4.165472e+01	4.689932e+00	2.540163e+05	1.013196e+05	2.881173e+02	1.005568e-01	-7.557335e-03	0.000000e+00	
0.000000e+00	1.060127e+00	1.225123e+00	4.166624e+01	8.857263e-01	2.540286e+05	1.013279e+05	2.881241e+02	9.996868e-02	4.078878e-03	0.000000e+00	
3.448276e-02	1.060127e+00	1.225052e+00	4.165479e+01	4.689946e+00	2.540162e+05	1.013196e+05	2.881173e+02	1.005570e-01	-7.565351e-03	0.000000e+00	
0.000000e+00	1.028481e+00	1.225123e+00	4.166627e+01	8.856878e-01	2.540286e+05	1.013279e+05	2.881241e+02	9.996875e-02	4.081081e-03	0.000000e+00	
3.448276e-02	1.028481e+00	1.225052e+00	4.165483e+01	4.689963e+00	2.540162e+05	1.013196e+05	2.881173e+02	1.005571e-01	-7.568264e-03	0.000000e+00	
0.000000e+00	9.968354e-01	1.225123e+00	4.166629e+01	8.856661e-01	2.540286e+05	1.013279e+05	2.881241e+02	9.996881e-02	4.081945e-03	0.000000e+00	
3.448276e-02	9.968354e-01	1.225052e+00	4.165486e+01	4.689972e+00	2.540162e+05	1.013196e+05	2.881173e+02	1.005572e-01	-7.571004e-03	0.000000e+00	
0.000000e+00	9.651899e-01	1.225123e+00	4.166630e+01	8.856563e-01	2.540286e+05	1.013279e+05	2.881241e+02	9.996884e-02	4.082657e-03	0.000000e+00	
3.448276e-02	9.651899e-01	1.225052e+00	4.165488e+01	4.689979e+00	2.540162e+05	1.013196e+05	2.881173e+02	1.005572e-01	-7.572235e-03	0.000000e+00	
0.000000e+00	9.335443e-01	1.225123e+00	4.166631e+01	8.856526e-01	2.540286e+05	1.013279e+05	2.881241e+02	9.996885e-02	4.082908e-03	0.000000e+00	
3.448276e-02	9.335443e-01	1.225052e+00	4.165489e+01	4.689985e+00	2.540162e+05	1.013196e+05	2.881173e+02	1.005572e-01	-7.573272e-03	0.000000e+00	
0.000000e+00	9.018987e-01	1.225123e+00	4.166631e+01	8.856524e-01	2.540286e+05	1.013279e+05	2.881241e+02	9.996886e-02	4.083070e-03	0.000000e+00	
3.448276e-02	9.018987e-01	1.225052e+00	4.165489e+01	4.689990e+00	2.540162e+05	1.013196e+05	2.881173e+02	1.005572e-01	-7.573804e-03	0.000000e+00	
0.000000e+00	8.702532e-01	1.225123e+00	4.166632e+01	8.856535e-01	2.540286e+05	1.013279e+05	2.881241e+02	9.996886e-02	4.083093e-03	0.000000e+00	
3.448276e-02	8.702532e-01	1.225052e+00	4.165489e+01	4.689994e+00	2.540162e+05	1.013196e+05	2.881173e+02	1.005572e-01	-7.574219e-03	0.000000e+00	
0.000000e+00	8.386076e-01	1.225123e+00	4.166632e+01	8.856552e-01	2.540286e+05	1.013279e+05	2.881241e+02	9.996887e-02	4.083099e-03	0.000000e+00	
3.448276e-02	8.386076e-01	1.225052e+00	4.165490e+01	4.689997e+00	2.540162e+05	1.013196e+05	2.881173e+02	1.005573e-01	-7.574452e-03	0.000000e+00	
0.000000e+00	8.069620e-01	1.225123e+00	4.166632e+01	8.856569e-01	2.540286e+05	1.013279e+05	2.881241e+02	9.996888e-02	4.083074e-03	0.000000e+00	
3.448276e-02	8.069620e-01	1.225052e+00	4.165490e+01	4.690000e+00	2.540162e+05	1.013196e+05	2.881173e+02	1.005573e-01	-7.574629e-03	0.000000e+00	
0.000000e+00	7.753165e-01	1.225123e+00	4.166632e+01	8.856587e-01	2.540286e+05	1.013279e+05	2.881241e+02	9.996888e-02	4.083051e-03	0.000000e+00	
3.448276e-02	7.753165e-01	1.225052e+00	4.165490e+01	4.690002e+00	2.540162e+05	1.013196e+05	2.881173e+02	1.005573e-01	-7.574738e-03	0.000000e+00	
0.000000e+00	7.436709e-01	1.225123e+00	4.166632e+01	8.856604e-01	2.540286e+05	1.013279e+05	2.881241e+02	9.996888e-02	4.083023e-03	0.000000e+00	
3.448276e-02	7.436709e-01	1.225052e+00	4.165490e+01	4.690004e+00	2.540162e+05	1.013196e+05	2.881173e+02	1.005573e-01	-7.574821e-03	0.000000e+00	
0.000000e+00	7.120253e-01	1.225123e+00	4.166633e+01	8.856621e-01	2.540286e+05	1.013279e+05	2.881241e+02	9.996889e-02	4.082999e-03	0.000000e+00	
3.448276e-02	7.120253e-01	1.225052e+00	4.165490e+01	4.690005e+00	2.540162e+05	1.013196e+05	2.881173e+02	1.005573e-01	-7.574877e-03	0.000000e+00	
0.000000e+00	6.803797e-01	1.225123e+00	4.166633e+01	8.856636e-01	2.540286e+05	1.013279e+05	2.881241e+02	9.996889e-02	4.082975e-03	0.000000e+00	
3.448276e-02	6.803797e-01	1.225052e+00	4.165490e+01	4.690007e+00	2.540162e+05	1.013196e+05	2.881173e+02	1.005573e-01	-7.574921e-03	0.000000e+00	
0.000000e+00	6.487342e-01	1.225123e+00	4.166633e+01	8.856650e-01	2.540286e+05	1.013279e+05	2.881241e+02	9.996889e-02	4.082954e-03	0.000000e+00	
3.448276e-02	6.487342e-01	1.225052e+00	4.165490e+01	4.690008e+00	2.540162e+05	1.013196e+05	2.881173e+02	1.005573e-01	-7.574953e-03	0.000000e+00	
0.000000e+00	6.170886e-01	1.225123e+00	4.166633e+01	8.856663e-01	2.540286e+05	1.013279e+05	2.881241e+02	9.996889e-02	4.082935e-03	0.000000e+00	
3.448276e-02	6.170886e-01	1.225052e+00	4.165490e+01	4.690009e+00	2.540162e+05	1.013196e+05	2.881173e+02	1.005573e-01	-7.574979e-03	0.000000e+00	
0.000000e+00	5.854430e-01	1.225123e+00	4.166633e+01	8.856675e-01	2.540286e+05	1.013279e+05	2.881241e+02	9.996889e-02	4.082918e-03	0.000000e+00	
3.448276e-02	5.854430e-01	1.225052e+00	4.165490e+01	4.690010e+00	2.540162e+05	1.013196e+05	2.881173e+02	1.005573e-01	-7.575000e-03	0.000000e+00	
0.000000e+00	5.537975e-01	1.225123e+00	4.166633e+01	8.856686e-01	2.540286e+05	1.013279e+05	2.881241e+02	9.996889e-02	4.082903e-03	0.000000e+00	
3.448276e-02	5.537975e-01	1.225052e+00	4.165490e+01	4.690011e+00	2.540162e+05	1.013196e+05	2.881173e+02	1.005573e-01	-7.575017e-03	0.000000e+00	
0.000000e+00	5.221519e-01	1.225123e+00	4.166633e+01	8.856696e-01	2.540286e+05	1.013279e+05	2.881241e+02	9.996889e-02	4.082889e-03	0.000000e+00	
3.448276e-02	5.221519e-01	1.225052e+00	4.165490e+01	4.690012e+00	2.540162e+05	1.013196e+05	2.881173e+02	1.005573e-01	-7.575032e-03	0.000000e+00	
0.000000e+00	4.905063e-01	1.225123e+00	4.166633e+01	8.856706e-01	2.540286e+05	1.013279e+05	2.881241e+02	9.996889e-02	4.082877e-03	0.000000e+00	
3.448276e-02	4.905063e-01	1.225052e+00	4.165491e+01	4.690012e+00	2.540162e+05	1.013196e+05	2.881173e+02	1.005573e-01	-7.575046e-03	0.000000e+00	
0.000000e+00	4.588608e-01	1.225123e+00	4.166633e+01	8.856715e-01	2.540286e+05	1.013279e+05	2.881241e+02	9.996890e-02	4.082866e-03	0.000000e+00	
3.448276e-02	4.588608e-01	1.225052e+00	4.165491e+01	4.690013e+00	2.540162e+05	1.013196e+05	2.881173e+02	1.005573e-01	-7.575058e-03	0.000000e+00	
0.000000e+00	4.272152e-01	1.225123e+00	4.166633e+01	8.856724e-01	2.540286e+05	1.013279e+05	2.881241e+02	9.996890e-02	4.082856e-03	0.000000e+00	
3.448276e-02	4.272152e-01	1.225052e+00	4.165491e+01	4.690014e+00	2.540162e+05	1.013196e+05	2.881173e+02	1.005573e-01	-7.575069e-03	0.000000e+00	
0.000000e+00	3.955696e-01	1.225123e+00	4.166633e+01	8.856733e-01	2.540286e+05	1.013279e+05	2.881241e+02	9.996890e-02	4.082846e-03	0.000000e+00	
3.448276e-02	3.955696e-01	1.225052e+00	4.165491e+01	4.690014e+00	2.540162e+05	1.013196e+05	2.881173e+02	1.005573e-01	-7.575080e-03	0.000000e+00	
0.000000e+00	3.639241e-01	1.225123e+00	4.166633e+01	8.856741e-01	2.540286e+05	1.013279e+05	2.881241e+02	9.996890e-02	4.082838e-03	0.000000e+00	
3.448276e-02	3.639241e-01	1.225052e+00	4.165491e+01	4.690015e+00	2.540162e+05	1.013196e+05	2.881173e+02	1.005573e-01	-7.575090e-03	0.000000e+00	
0.000000e+00	3.322785e-01	1.225123e+00	4.166633e+01	8.856749e-01	2.540286e+05	1.013279e+05	2.881241e+02	9.996890e-02	4.082830e-03	0.000000e+00	
3.448276e-02	3.322785e-01	1.225052e+00	4.165491e+01	4.690016e+00	2.540162e+05	1.013196e+05	2.881173e+02	1.005573e-01	-7.575099e-03	0.000000e+00	
0.000000e+00	3.006329e-01	1.225123e+00	4.166633e+01	8.856756e-01	2.540286e+05	1.013279e+05	2.881241e+02	9.996890e-02	4.082822e-03	0.000000e+00	
3.448276e-02	3.006329e-01	1.225052e+00	4.165491e+01	4.690016e+00	2.540162e+05	1.013196e+05	2.881173e+02	1.005573e-01	-7.575108e-03	0.000000e+00	
0.000000e+00	2.689873e-01	1.225123e+00	4.166633e+01	8.856764e-01	2.540286e+05	1.013279e+05	2.881241e+02	9.996890e-02	4.082816e-03	0.000000e+00	
3.448276e-02	2.689873e-01	1.225052e+00	4.165491e+01	4.690017e+00	2.540162e+05	1.013196e+05	2.881173e+02	1.005573e-01	-7.575117e-03	0.000000e+00	
0.000000e+00	2.373418e-01	1.225123e+00	4.166633e+01	8.856771e-01	2.540286e+05	1.013279e+05	2.881241e+02	9.996890e-02	4.082809e-03	0.000000e+00	
3.448276e-02	2.373418e-01	1.225052e+00	4.165491e+01	4.690017e+00	2.540162e+05	1.013196e+05	2.881173e+02	1.005573e-01	-7.575126e-03	0.000000e+00	
0.000000e+00	2.056962e-01	1.225123e+00	4.166633e+01	8.856779e-01	2.540286e+05	1.013279e+05	2.881241e+02	9.996890e-02	4.082803e-03	0.000000e+00	
3.448276e-02	2.056962e-01	1.225052e+00	4.165491e+01	4.690018e+00	2.540162e+05	1.013196e+05	2.881173e+02	1.005573e-01	-7.575134e-03	0.000000e+00	
0.000000e+00	1.740506e-01	1.225123e+00	4.166633e+01	8.856786e-01	2.540286e+05	1.013279e+05	2.881241e+02	9.996890e-02	4.082798e-03	0.000000e+00	
3.448276e-02	1.740506e-01	1.225052e+00	4.165491e+01	4.690018e+00	2.540162e+05	1.013196e+05	2.881173e+02	1.005573e-01	-7.575142e-03	0.000000e+00	
0.000000e+00	1.424051e-01	1.225123e+00	4.166633e+01	8.856793e-01	2.540286e+05	1.013279e+05	2.881241e+02	9.996890e-02	4.082793e-03	0.000000e+00	
3.448276e-02	1.424051e-01	1.225052e+00	4.165491e+01	4.690019e+00	2.540162e+05	1.013196e+05	2.881173e+02	1.005573e-01	-7.575149e-03	0.000000e+00	
0.000000e+00	1.107595e-01	1.225123e+00	4.166633e+01	8.856800e-01	2.540286e+05	1.013279e+05	2.881241e+02	9.996890e-02	4.082788e-03	0.000000e+00	
3.448276e-02	1.107595e-01	1.225052e+00	4.165491e+01	4.690020e+00	2.540162e+05	1.013196e+05	2.881173e+02	1.005573e-01	-7.575156e-03	0.000000e+00	
0.000000e+00	7.911392e-02	1.225123e+00	4.166633e+01	8.856807e-01	2.540286e+05	1.013279e+05	2.881241e+02	9.996890e-02	4.082784e-03	0.000000e+00	
3.448276e-02	7.911392e-02	1.225052e+00	4.165491e+01	4.690020e+00	2.540162e+05	1.013196e+05	2.881173e+02	1.005573e-01	-7.575163e-03	0.000000e+00	
0.000000e+00	4.746835e-02	1.225123e+00	4.166633e+01	8.856814e-01	2.540286e+05	1.013279e+05	2.881241e+02	9.996890e-02	4.082781e-03	0.000000e+00	
3.448276e-02	4.746835e-02	1.225052e+00	4.165491e+01	4.690021e+00	2.540162e+05	1.013196e+05	2.881173e+02	1.005573e-01	-7.575170e-03	0.000000e+00	
0.000000e+00	1.582278e-02	1.225123e+00	4.166633e+01	8.856821e-01	2.540286e+05	1.013279e+05	2.881241e+02	9.996890e-02	4.082777e-03	0.000000e+00	
3.448276e-02	1.582278e-02	1.225052e+00	4.165491e+01	4.690021e+00	2.540162e+05	1.013196e+05	2.881173e+02	1.005573e-01	-7.575176e-03	0.000000e+00	
0.000000e+00	-1.582278e-02	1.225123e+00	4.166633e+01	8.856829e-01	2.540286e+05	1.013279e+05	2.881241e+02	9.996890e-02	4.082775e-03	0.000000e+00	
3.448276e-02	-1.582278e-02	1.225052e+00	4.165491e+01	4.690022e+00	2.540162e+05	1.013196e+05	2.881173e+02	1.005573e-01	-7.575182e-03	0.000000e+00	
0.000000e+00	-4.746835e-02	1.225123e+00	4.166633e+01	8.856836e-01	2.540286e+05	1.013279e+05	2.881241e+02	9.996890e-02	4.082772e-03	0.000000e+00	
3.448276e-02	-4.746835e-02	1.225052e+00	4.165491e+01	4.690022e+00	2.540162e+05	1.013196e+05	2.881173e+02	1.005573e-01	-7.575187e-03	0.000000e+00	
0.000000e+00	-7.911392e-02	1.225123e+00	4.166633e+01	8.856843e-01	2.540286e+05	1.013279e+05	2.881241e+02	9.996890e-02	4.082771e-03	0.000000e+00	
3.448276e-02	-7.911392e-02	1.225052e+00	4.165491e+01	4.690023e+00	2.540162e+05	1.013196e+05	2.881173e+02	1.005573e-01	-7.575192e-03	0.000000e+00	
0.000000e+00	-1.107595e-01	1.225123e+00	4.166633e+01	8.856850e-01	2.540286e+05	1.013279e+05	2.881241e+02	9.996890e-02	4.082769e-03	0.000000e+00	
3.448276e-02	-1.107595e-01	1.225052e+00	4.165491e+01	4.690023e+00	2.540162e+05	1.013196e+05	2.881173e+02	1.005573e-01	-7.575197e-03	0.000000e+00	
0.000000e+00	-1.424051e-01	1.225123e+00	4.166633e+01	8.856858e-01	2.540286e+05	1.013279e+05	2.881241e+02	9.996890e-02	4.082769e-03	0.000000e+00	
3.448276e-02	-1.424051e-01	1.225052e+00	4.165491e+01	4.690024e+00	2.540162e+05	1.013196e+05	2.881173e+02	1.005573e-01	-7.575202e-03	0.000000e+00	
0.000000e+00	-1.740506e-01	1.225123e+00	4.166633e+01	8.856865e-01	2.540286e+05	1.013279e+05	2.881241e+02	9.996890e-02	4.082768e-03	0.000000e+00	
3.448276e-02	-1.740506e-01	1.225052e+00	4.165491e+01	4.690024e+00	2.540162e+05	1.013196e+05	2.881173e+02	1.005573e-01	-7.575206e-03	0.000000e+00	
0.000000e+00	-2.056962e-01	1.225123e+00	4.166633e+01	8.856872e-01	2.540286e+05	1.013279e+05	2.881241e+02	9.996890e-02	4.082769e-03	0.000000e+00	
3.448276e-02	-2.056962e-01	1.225052e+00	4.165491e+01	4.690025e+00	2.540162e+05	1.013196e+05	2.881173e+02	1.005573e-01	-7.575209e-03	0.000000e+00	
0.000000e+00	-2.373418e-01	1.225123e+00	4.166633e+01	8.856880e-01	2.540286e+05	1.013279e+05	2.881241e+02	9.996890e-02	4.082770e-03	0.000000e+00	
3.448276e-02	-2.373418e-01	1.225052e+00	4.165491e+01	4.690026e+00	2.540162e+05	1.013196e+05	2.881173e+02	1.005573e-01	-7.575212e-03	0.000000e+00	
0.000000e+00	-2.689873e-01	1.225123e+00	4.166633e+01	8.856888e-01	2.540286e+05	1.013279e+05	2.881241e+02	9.996890e-02	4.082771e-03	0.000000e+00	
3.448276e-02	-2.689873e-01	1.225052e+00	4.165491e+01	4.690026e+00	2.540162e+05	1.013196e+05	2.881173e+02	1.005573e-01	-7.575215e-03	0.000000e+00	
0.000000e+00	-3.006329e-01	1.225123e+00	4.166633e+01	8.856896e-01	2.540286e+05	1.013279e+05	2.881241e+02	9.996890e-02	4.082774e-03	0.000000e+00	
3.448276e-02	-3.006329e-01	1.225052e+00	4.165491e+01	4.690027e+00	2.540162e+05	1.013196e+05	2.881173e+02	1.005573e-01	-7.575217e-03	0.000000e+00	
0.000000e+00	-3.322785e-01	1.225123e+00	4.166633e+01	8.856904e-01	2.540286e+05	1.013279e+05	2.881241e+02	9.996890e-02	4.082777e-03	0.000000e+00	
3.448276e-02	-3.322785e-01	1.225052e+00	4.165491e+01	4.690027e+00	2.540162e+05	1.013196e+05	2.881173e+02	1.005573e-01	-7.575218e-03	0.000000e+00	
0.000000e+00	-3.639241e-01	1.225123e+00	4.166633e+01	8.856912e-01	2.540286e+05	1.013279e+05	2.881241e+02	9.996890e-02	4.082780e-03	0.000000e+00	
3.448276e-02	-3.639241e-01	1.225052e+00	4.165491e+01	4.690028e+00	2.540162e+05	1.013196e+05	2.881173e+02	1.005573e-01	-7.575219e-03	0.000000e+00	
0.000000e+00	-3.955696e-01	1.225123e+00	4.166633e+01	8.856920e-01	2.540286e+05	1.013279e+05	2.881241e+02	9.996890e-02	4.082785e-03	0.000000e+00	
3.448276e-02	-3.955696e-01	1.225052e+00	4.165491e+01	4.690028e+00	2.540162e+05	1.013196e+05	2.881173e+02	1.005573e-01	-7.575220e-03	0.000000e+00	
0.000000e+00	-4.272152e-01	1.225123e+00	4.166633e+01	8.856928e-01	2.540286e+05	1.013279e+05	2.881241e+02	9.996890e-02	4.082790e-03	0.000000e+00	
3.448276e-02	-4.272152e-01	1.225052e+00	4.165491e+01	4.690029e+00	2.540162e+05	1.013196e+05	2.881173e+02	1.005573e-01	-7.575220e-03	0.000000e+00	
0.000000e+00	-4.588608e-01	1.225123e+00	4.166633e+01	8.856937e-01	2.540286e+05	1.013279e+05	2.881241e+02	9.996890e-02	4.082797e-03	0.000000e+00	
3.448276e-02	-4.588608e-01	1.225052e+00	4.165491e+01	4.690030e+00	2.540162e+05	1.013196e+05	2.881173e+02	1.005573e-01	-7.575220e-03	0.000000e+00	
0.000000e+00	-4.905063e-01	1.225123e+00	4.166633e+01	8.856946e-01	2.540286e+05	1.013279e+05	2.881241e+02	9.996890e-02	4.082804e-03	0.000000e+00	
3.448276e-02	-4.905063e-01	1.225052e+00	4.165491e+01	4.690030e+00	2.540162e+05	1.013196e+05	2.881173e+02	1.005573e-01	-7.575219e-03	0.000000e+00	
0.000000e+00	-5.221519e-01	1.225123e+00	4.166633e+01	8.856955e-01	2.540286e+05	1.013279e+05	2.881241e+02	9.996890e-02	4.082812e-03	0.000000e+00	
3.448276e-02	-5.221519e-01	1.225052e+00	4.165491e+01	4.690031e+00	2.540162e+05	1.013196e+05	2.881173e+02	1.005573e-01	-7.575218e-03	0.000000e+00	
0.000000e+00	-5.537975e-01	1.225123e+00	4.166633e+01	8.856964e-01	2.540286e+05	1.013279e+05	2.881241e+02	9.996890e-02	4.082822e-03	0.000000e+00	
3.448276e-02	-5.537975e-01	1.225052e+00	4.165491e+01	4.690032e+00	2.540162e+05	1.013196e+05	2.881173e+02	1.005573e-01	-7.575216e-03	0.000000e+00	
0.000000e+00	-5.854430e-01	1.225123e+00	4.166633e+01	8.856974e-01	2.540286e+05	1.013279e+05	2.881241e+02	9.996890e-02	4.082833e-03	0.000000e+00	
3.448276e-02	-5.854430e-01	1.225052e+00	4.165491e+01	4.690032e+00	2.540162e+05	1.013196e+05	2.881173e+02	1.005573e-01	-7.575216e-03	0.000000e+00	
0.000000e+00	-6.170886e-01	1.225123e+00	4.166633e+01	8.856984e-01	2.540286e+05	1.013279e+05	2.881241e+02	9.996890e-02	4.082845e-03	0.000000e+00	
3.448276e-02	-6.170886e-01	1.225052e+00	4.165491e+01	4.690033e+00	2.540162e+05	1.013196e+05	2.881173e+02	1.005573e-01	-7.575216e-03	0.000000e+00	
0.000000e+00	-6.487342e-01	1.225123e+00	4.166633e+01	8.856994e-01	2.540286e+05	1.013279e+05	2.881241e+02	9.996890e-02	4.082860e-03	0.000000e+00	
3.448276e-02	-6.487342e-01	1.225052e+00	4.165491e+01	4.690034e+00	2.540162e+05	1.013196e+05	2.881173e+02	1.005573e-01	-7.575219e-03	0.000000e+00	
0.000000e+00	-6.803797e-01	1.225123e+00	4.166633e+01	8.857005e-01	2.540286e+05	1.013279e+05	2.881241e+02	9.996890e-02	4.082877e-03	0.000000e+00	
3.448276e-02	-6.803797e-01	1.225052e+00	4.165491e+01	4.690034e+00	2.540162e+05	1.013196e+05	2.881173e+02	1.005573e-01	-7.575225e-03	0.000000e+00	
0.000000e+00	-7.120253e-01	1.225123e+00	4.166633e+01	8.857016e-01	2.540286e+05	1.013279e+05	2.881241e+02	9.996890e-02	4.082897e-03	0.000000e+00	
3.448276e-02	-7.120253e-01	1.225052e+00	4.165490e+01	4.690035e+00	2.540162e+05	1.013196e+05	2.881173e+02	1.005573e-01	-7.575240e-03	0.000000e+00	
0.000000e+00	-7.436709e-01	1.225123e+00	4.166633e+01	8.857029e-01	2.540286e+05	1.013279e+05	2.881241e+02	9.996890e-02	4.082923e-03	0.000000e+00	
3.448276e-02	-7.436709e-01	1.225052e+00	4.165490e+01	4.690036e+00	2.540162e+05	1.013196e+05	2.881173e+02	1.005573e-01	-7.575263e-03	0.000000e+00	
0.000000e+00	-7.753165e-01	1.225123e+00	4.166633e+01	8.857043e-01	2.540286e+05	1.013279e+05	2.881241e+02	9.996889e-02	4.082955e-03	0.000000e+00	
3.448276e-02	-7.753165e-01	1.225052e+00	4.165490e+01	4.690036e+00	2.540162e+05	1.013196e+05	2.881173e+02	1.005573e-01	-7.575308e-03	0.000000e+00	
0.000000e+00	-8.069620e-01	1.225123e+00	4.166633e+01	8.857060e-01	2.540286e+05	1.013279e+05	2.881241e+02	9.996890e-02	4.083006e-03	0.000000e+00	
3.448276e-02	-8.069620e-01	1.225052e+00	4.165490e+01	4.690037e+00	2.540162e+05	1.013196e+05	2.881173e+02	1.005573e-01	-7.575376e-03	0.000000e+00	
0.000000e+00	-8.386076e-01	1.225123e+00	4.166633e+01	8.857081e-01	2.540286e+05	1.013279e+05	2.881241e+02	9.996890e-02	4.083074e-03	0.000000e+00	
3.448276e-02	-8.386076e-01	1.225052e+00	4.165491e+01	4.690038e+00	2.540162e+05	1.013196e+05	2.881173e+02	1.005573e-01	-7.575505e-03	0.000000e+00	
0.000000e+00	-8.702532e-01	1.225123e+00	4.166633e+01	8.857108e-01	2.540286e+05	1.013279e+05	2.881241e+02	9.996890e-02	4.083190e-03	0.000000e+00	
3.448276e-02	-8.702532e-01	1.225052e+00	4.165491e+01	4.690038e+00	2.540162e+05	1.013196e+05	2.881173e+02	1.005573e-01	-7.575689e-03	0.000000e+00	
0.000000e+00	-9.018987e-01	1.225123e+00	4.166633e+01	8.857145e-01	2.540286e+05	1.013279e+05	2.881241e+02	9.996890e-02	4.083344e-03	0.000000e+00	
3.448276e-02	-9.018987e-01	1.225052e+00	4.165491e+01	4.690038e+00	2.540162e+05	1.013196e+05	2.881173e+02	1.005573e-01	-7.576042e-03	0.000000e+00	
0.000000e+00	-9.335443e-01	1.225123e+00	4.166633e+01	8.857198e-01	2.540286e+05	1.013279e+05	2.881241e+02	9.996891e-02	4.083645e-03	0.000000e+00	
3.448276e-02	-9.335443e-01	1.225052e+00	4.165491e+01	4.690038e+00	2.540162e+05	1.013196e+05	2.881173e+02	1.005573e-01	-7.576525e-03	0.000000e+00	
0.000000e+00	-9.651899e-01	1.225123e+00	4.166634e+01	8.857290e-01	2.540286e+05	1.013279e+05	2.881241e+02	9.996892e-02	4.084058e-03	0.000000e+00	
3.448276e-02	-9.651899e-01	1.225052e+00	4.165492e+01	4.690038e+00	2.540162e+05	1.013196e+05	2.881173e+02	1.005573e-01	-7.577500e-03	0.000000e+00	
0.000000e+00	-9.968354e-01	1.225123e+00	4.166635e+01	8.857451e-01	2.540286e+05	1.013279e+05	2.881241e+02	9.996894e-02	4.084935e-03	0.000000e+00	
3.448276e-02	-9.968354e-01	1.225052e+00	4.165493e+01	4.690038e+00	2.540162e+05	1.013196e+05	2.881173e+02	1.005574e-01	-7.578743e-03	0.000000e+00	
0.000000e+00	-1.028481e+00	1.225123e+00	4.166637e+01	8.857741e-01	2.540286e+05	1.013279e+05	2.881241e+02	9.996898e-02	4.086038e-03	0.000000e+00	
3.448276e-02	-1.028481e+00	1.225052e+00	4.165496e+01	4.690040e+00	2.540162e+05	1.013196e+05	2.881173e+02	1.005574e-01	-7.581516e-03	0.000000e+00	
0.000000e+00	-1.060127e+00	1.225123e+00	4.166639e+01	8.858220e-01	2.540286e+05	1.013279e+05	2.881241e+02	9.996904e-02	4.088491e-03	0.000000e+00	
3.448276e-02	-1.060127e+00	1.225052e+00	4.165500e+01	4.690040e+00	2.540162e+05	1.013196e+05	2.881173e+02	1.005575e-01	-7.584731e-03	0.000000e+00	
0.000000e+00	-1.091772e+00	1.225123e+00	4.166640e+01	8.859079e-01	2.540286e+05	1.013279e+05	2.881241e+02	9.996906e-02	4.091517e-03	0.000000e+00	
3.448276e-02	-1.091772e+00	1.225052e+00	4.165505e+01	4.690046e+00	2.540162e+05	1.013196e+05	2.881173e+02	1.005576e-01	-7.593149e-03	0.000000e+00	
0.000000e+00	-1.123418e+00	1.225124e+00	4.166635e+01	8.860656e-01	2.540286e+05	1.013279e+05	2.881241e+02	9.996895e-02	4.101551e-03	0.000000e+00	
3.448276e-02	-1.123418e+00	1.225052e+00	4.165511e+01	4.690049e+00	2.540162e+05	1.013196e+05	2.881173e+02	1.005578e-01	-7.601370e-03	0.000000e+00	
0.000000e+00	-1.155063e+00	1.225124e+00	4.166622e+01	8.864245e-01	2.540287e+05	1.013279e+05	2.881241e+02	9.996866e-02	4.116854e-03	0.000000e+00	
3.448276e-02	-1.155063e+00	1.225052e+00	4.165521e+01	4.690110e+00	2.540162e+05	1.013196e+05	2.881173e+02	1.005581e-01	-7.627052e-03	0.000000e+00	
0.000000e+00	-1.186709e+00	1.225124e+00	4.166603e+01	8.871468e-01	2.540287e+05	1.013280e+05	2.881241e+02	9.996819e-02	4.174529e-03	0.000000e+00	
3.448276e-02	-1.186709e+00	1.225052e+00	4.165539e+01	4.690186e+00	2.540161e+05	1.013196e+05	2.881173e+02	1.005585e-01	-7.650710e-03	0.000000e+00	
0.000000e+00	-1.218354e+00	1.225126e+00	4.166611e+01	8.884186e-01	2.540291e+05	1.013281e+05	2.881241e+02	9.996832e-02	4.355209e-03	0.000000e+00	
3.448276e-02	-1.218354e+00	1.225051e+00	4.165560e+01	4.690418e+00	2.540159e+05	1.013195e+05	2.881173e+02	1.005592e-01	-7.754518e-03	0.000000e+00	
6.896552e-02	1.218354e+00	1.224878e+00	4.166111e+01	7.662589e+00	2.539845e+05	1.013008e+05	2.881048e+02	1.016338e-01	-3.412693e-02	0.000000e+00	
6.896552e-02	1.250000e+00	1.224878e+00	4.166107e+01	7.661926e+00	2.539844e+05	1.013008e+05	2.881048e+02	1.016335e-01	-3.414632e-02	0.000000e+00	
6.896552e-02	1.186709e+00	1.224877e+00	4.166117e+01	7.662799e+00	2.539843e+05	1.013007e+05	2.881048e+02	1.016341e-01	-3.419214e-02	0.000000e+00	
6.896552e-02	1.155063e+00	1.224877e+00	4.166131e+01	7.663036e+00	2.539844e+05	1.013008e+05	2.881048e+02	1.016345e-01	-3.417433e-02	0.000000e+00	
6.896552e-02	1.123418e+00	1.224877e+00	4.166139e+01	7.663100e+00	2.539844e+05	1.013008e+05	2.881048e+02	1.016348e-01	-3.418499e-02	0.000000e+00	
6.896552e-02	1.091772e+00	1.224877e+00	4.166144e+01	7.663169e+00	2.539844e+05	1.013008e+05	2.881048e+02	1.016349e-01	-3.418116e-02	0.000000e+00	
6.896552e-02	1.060127e+00	1.224877e+00	4.166147e+01	7.663202e+00	2.539844e+05	1.013008e+05	2.881048e+02	1.016350e-01	-3.418319e-02	0.000000e+00	
6.896552e-02	1.028481e+00	1.224877e+00	4.166149e+01	7.663229e+00	2.539844e+05	1.013008e+05	2.881048e+02	1.016351e-01	-3.418205e-02	0.000000e+00	
6.896552e-02	9.968354e-01	1.224877e+00	4.166151e+01	7.663242e+00	2.539844e+05	1.013008e+05	2.881048e+02	1.016351e-01	-3.418250e-02	0.000000e+00	
6.896552e-02	9.651899e-01	1.224877e+00	4.166152e+01	7.663252e+00	2.539844e+05	1.013008e+05	2.881048e+02	1.016351e-01	-3.418218e-02	0.000000e+00	
6.896552e-02	9.335443e-01	1.224877e+00	4.166153e+01	7.663258e+00	2.539844e+05	1.013008e+05	2.881048e+02	1.016352e-01	-3.418231e-02	0.000000e+00	
6.896552e-02	9.018987e-01	1.224877e+00	4.166153e+01	7.663263e+00	2.539844e+05	1.013008e+05	2.881048e+02	1.016352e-01	-3.418224e-02	0.000000e+00	
6.896552e-02	8.702532e-01	1.224877e+00	4.166153e+01	7.663266e+00	2.539844e+05	1.013008e+05	2.881048e+02	1.016352e-01	-3.418230e-02	0.000000e+00	
6.896552e-02	8.386076e-01	1.224877e+00	4.166153e+01	7.663269e+00	2.539844e+05	1.013008e+05	2.881048e+02	1.016352e-01	-3.418229e-02	0.000000e+00	
6.896552e-02	8.069620e-01	1.224877e+00	4.166153e+01	7.663271e+00	2.539844e+05	1.013008e+05	2.881048e+02	1.016352e-01	-3.418233e-02	0.000000e+00	
6.896552e-02	7.753165e-01	1.224877e+00	4.166153e+01	7.663273e+00	2.539844e+05	1.013008e+05	2.881048e+02	1.016352e-01	-3.418234e-02	0.000000e+00	
6.896552e-02	7.436709e-01	1.224877e+00	4.166153e+01	7.663275e+00	2.539844e+05	1.013008e+05	2.881048e+02	1.016352e-01	-3.418236e-02	0.000000e+00	
6.896552e-02	7.120253e-01	1.224877e+00	4.166153e+01	7.663276e+00	2.539844e+05	1.013008e+05	2.881048e+02	1.016352e-01	-3.418238e-02	0.000000e+00	
6.896552e-02	6.803797e-01	1.224877e+00	4.166153e+01	7.663277e+00	2.539844e+05	1.013008e+05	2.881048e+02	1.016352e-01	-3.418240e-02	0.000000e+00	
6.896552e-02	6.487342e-01	1.224877e+00	4.166153e+01	7.663278e+00	2.539844e+05	1.013008e+05	2.881048e+02	1.016352e-01	-3.418241e-02	0.000000e+00	
6.896552e-02	6.170886e-01	1.224877e+00	4.166153e+01	7.663279e+00	2.539844e+05	1.013008e+05	2.881048e+02	1.016352e-01	-3.418242e-02	0.000000e+00	
6.896552e-02	5.854430e-01	1.224877e+00	4.166153e+01	7.663280e+00	2.539844e+05	1.013008e+05	2.881048e+02	1.016352e-01	-3.418244e-02	0.000000e+00	
6.896552e-02	5.537975e-01	1.224877e+00	4.166154e+01	7.663280e+00	2.539844e+05	1.013008e+05	2.881048e+02	1.016352e-01	-3.418245e-02	0.000000e+00	
6.896552e-02	5.221519e-01	1.224877e+00	4.166154e+01	7.663281e+00	2.539844e+05	1.013008e+05	2.881048e+02	1.016352e-01	-3.418246e-02	0.000000e+00	
6.896552e-02	4.905063e-01	1.224877e+00	4.166154e+01	7.663282e+00	2.539844e+05	1.013008e+05	2.881048e+02	1.016352e-01	-3.418247e-02	0.000000e+00	
6.896552e-02	4.588608e-01	1.224877e+00	4.166154e+01	7.663282e+00	2.539844e+05	1.013008e+05	2.881048e+02	1.016352e-01	-3.418248e-02	0.000000e+00	
6.896552e-02	4.272152e-01	1.224877e+00	4.166154e+01	7.663283e+00	2.539844e+05	1.013008e+05	2.881048e+02	1.016352e-01	-3.418249e-02	0.000000e+00	
6.896552e-02	3.955696e-01	1.224877e+00	4.166154e+01	7.663283e+00	2.539844e+05	1.013008e+05	2.881048e+02	1.016352e-01	-3.418250e-02	0.000000e+00	
6.896552e-02	3.639241e-01	1.224877e+00	4.166154e+01	7.663284e+00	2.539844e+05	1.013008e+05	2.881048e+02	1.016352e-01	-3.418251e-02	0.000000e+00	
6.896552e-02	3.322785e-01	1.224877e+00	4.166154e+01	7.663284e+00	2.539844e+05	1.013008e+05	2.881048e+02	1.016352e-01	-3.418252e-02	0.000000e+00	
6.896552e-02	3.006329e-01	1.224877e+00	4.166154e+01	7.663284e+00	2.539844e+05	1.013008e+05	2.881048e+02	1.016352e-01	-3.418253e-02	0.000000e+00	
6.896552e-02	2.689873e-01	1.224877e+00	4.166154e+01	7.663285e+00	2.539844e+05	1.013008e+05	2.881048e+02	1.016352e-01	-3.418254e-02	0.000000e+00	
6.896552e-02	2.373418e-01	1.224877e+00	4.166154e+01	7.663285e+00	2.539844e+05	1.013008e+05	2.881048e+02	1.016352e-01	-3.418254e-02	0.000000e+00	
6.896552e-02	2.056962e-01	1.224877e+00	4.166154e+01	7.663286e+00	2.539844e+05	1.013008e+05	2.881048e+02	1.016352e-01	-3.418255e-02	0.000000e+00	
6.896552e-02	1.740506e-01	1.224877e+00	4.166154e+01	7.663286e+00	2.539844e+05	1.013008e+05	2.881048e+02	1.016352e-01	-3.418256e-02	0.000000e+00	
6.896552e-02	1.424051e-01	1.224877e+00	4.166154e+01	7.663287e+00	2.539844e+05	1.013008e+05	2.881048e+02	1.016352e-01	-3.418257e-02	0.000000e+00	
6.896552e-02	1.107595e-01	1.224877e+00	4.166154e+01	7.663287e+00	2.539844e+05	1.013008e+05	2.881048e+02	1.016352e-01	-3.418257e-02	0.000000e+00	
6.896552e-02	7.911392e-02	1.224877e+00	4.166154e+01	7.663287e+00	2.539844e+05	1.013008e+05	2.881048e+02	1.016352e-01	-3.418258e-02	0.000000e+00	
6.896552e-02	4.746835e-02	1.224877e+00	4.166154e+01	7.663288e+00	2.539844e+05	1.013008e+05	2.881048e+02	1.016352e-01	-3.418259e-02	0.000000e+00	
6.896552e-02	1.582278e-02	1.224877e+00	4.166154e+01	7.663288e+00	2.539844e+05	1.013008e+05	2.881048e+02	1.016352e-01	-3.418259e-02	0.000000e+00	
6.896552e-02	-1.582278e-02	1.224877e+00	4.166154e+01	7.663289e+00	2.539844e+05	1.013008e+05	2.881048e+02	1.016352e-01	-3.418260e-02	0.000000e+00	
6.896552e-02	-4.746835e-02	1.224877e+00	4.166154e+01	7.663289e+00	2.539844e+05	1.013008e+05	2.881048e+02	1.016352e-01	-3.418260e-02	0.000000e+00	
6.896552e-02	-7.911392e-02	1.224877e+00	4.166154e+01	7.663289e+00	2.539844e+05	1.013008e+05	2.881048e+02	1.016352e-01	-3.418261e-02	0.000000e+00	
6.896552e-02	-1.107595e-01	1.224877e+00	4.166154e+01	7.663290e+00	2.539844e+05	1.013008e+05	2.881048e+02	1.016352e-01	-3.418261e-02	0.000000e+00	
6.896552e-02	-1.424051e-01	1.224877e+00	4.166154e+01	7.663290e+00	2.539844e+05	1.013008e+05	2.881048e+02	1.016352e-01	-3.418262e-02	0.000000e+00	
6.896552e-02	-1.740506e-01	1.224877e+00	4.166154e+01	7.663290e+00	2.539844e+05	1.013008e+05	2.881048e+02	1.016352e-01	-3.418262e-02	0.000000e+00	
6.896552e-02	-2.056962e-01	1.224877e+00	4.166154e+01	7.663291e+00	2.539844e+05	1.013008e+05	2.881048e+02	1.016352e-01	-3.418263e-02	0.000000e+00	