VARIABLES = "x"
 "y"
 "Density"
 "Momentum_x"
 "Momentum_y"
 "Energy"
 "Pressure"
 "Temperature"
 "Mach"
 "C<sub>p</sub>"
 "Roe_Dissipation"
ZONE
DT=(DOUBLE,DOUBLE,DOUBLE,DOUBLE,DOUBLE,DOUBLE,DOUBLE,DOUBLE,DOUBLE,DOUBLE,DOUBLE)
                     -3                       0        1.22394394874573        26.7987003326416    -2.3365930301722E-09           253314.203125           101208.296875        288.061401367188      0.0643518418073654      -0.658069372177124                       0 
      -2.99674837418709                       0        1.22394394874573        26.7987003326416   -1.30719265163107E-09           253314.203125           101208.296875        288.061401367188      0.0643518418073654      -0.658069744744575                       0 
      -2.99349674837419                       0        1.22394394874573        26.7987003326416   -2.77792273089948E-10           253314.203125           101208.296875        288.061401367188      0.0643518418073654      -0.658070117312027                       0 
      -2.99024512256128                       0        1.22394394874573        26.7987003326416    7.51608105451176E-10           253314.203125           101208.296875        288.061401367188      0.0643518418073654      -0.658070489879478                       0 
      -2.98699349674837                       0        1.22394394874573        26.7987003326416     1.7810084839923E-09           253314.203125           101208.296875        288.061401367188      0.0643518418073654      -0.658070862446929                       0 
      -2.98374187093547                       0        1.22394394874573        26.7987003326416    2.81040886253328E-09           253314.203125           101208.296875        288.061401367188      0.0643518418073654      -0.658071235014381                       0 
      -2.98049024512256                       0        1.22394394874573        26.7987003326416    3.83980924107441E-09           253314.203125           101208.296875        288.061401367188      0.0643518418073654      -0.658071607581832                       0 
      -2.97723861930965                       0        1.22394394874573        26.7987003326416    4.86920961961553E-09           253314.203125           101208.296875        288.061401367188      0.0643518418073654      -0.658071980149283                       0 
      -2.97398699349675                       0        1.22394394874573        26.7987003326416    5.89860999815665E-09           253314.203125           101208.296875        288.061401367188      0.0643518418073654      -0.658072352716735                       0 
      -2.97073536768384                       0        1.22394394874573        26.7987003326416    6.92801037669778E-09           253314.203125           101208.296875        288.061401367188      0.0643518418073654      -0.658072725284186                       0 
      -2.96748374187094                       0        1.22394394874573        26.7987003326416     7.9574107552389E-09           253314.203125           101208.296875        288.061401367188      0.0643518418073654      -0.658073097851638                       0 
      -2.96423211605803                       0        1.22394394874573        26.7987003326416    8.98681113378003E-09           253314.203125           101208.296875        288.061401367188      0.0643518418073654      -0.658073470419089                       0 
      -2.96098049024512                       0        1.22394394874573        26.7987003326416    9.89124221985066E-09           253314.203125           101208.296875        288.061401367188      0.0643518418073654      -0.658073810202871                       0 
      -2.95772886443222                       0        1.22394394874573        26.7987003326416    1.05315780417011E-08           253314.203125           101208.296875        288.061401367188      0.0643518418073654       -0.65807408070554                       0 
      -2.95447723861931                       0        1.22394394874573        26.7987003326416    1.11719138635514E-08           253314.203125           101208.296875        288.061401367188      0.0643518418073654      -0.658074351208208                       0 
       -2.9512256128064                       0        1.22394394874573        26.7987003326416    1.18122496854018E-08           253314.203125           101208.296875        288.061401367188      0.0643518418073654      -0.658074621710877                       0 
       -2.9479739869935                       0        1.22394394874573        26.7987003326416    1.24525855072522E-08           253314.203125           101208.296875        288.061401367188      0.0643518418073654      -0.658074892213545                       0 
      -2.94472236118059                       0        1.22394394874573        26.7987003326416    1.30929213291025E-08           253314.203125           101208.296875        288.061401367188      0.0643518418073654      -0.658075162716214                       0 
      -2.94147073536768                       0        1.22394394874573        26.7987003326416    1.37332571509529E-08           253314.203125           101208.296875        288.061401367188      0.0643518418073654      -0.658075433218882                       0 
      -2.93821910955478                       0        1.22394394874573        26.7987003326416    1.43735929728033E-08           253314.203125           101208.296875        288.061401367188      0.0643518418073654      -0.658075703721551                       0 
      -2.93496748374187                       0        1.22394394874573        26.7987003326416    1.50139287946537E-08           253314.203125           101208.296875        288.061401367188      0.0643518418073654      -0.658075974224219                       0 
      -2.93171585792896                       0        1.22394394874573        26.7987003326416    1.56542646165041E-08           253314.203125           101208.296875        288.061401367188      0.0643518418073654      -0.658076244726888                       0 
      -2.92846423211606                       0        1.22394394874573        26.7987003326416    1.62946004383545E-08           253314.203125           101208.296875        288.061401367188      0.0643518418073654      -0.658076515229556                       0 
      -2.92521260630315                       0        1.22394394874573        26.7987003326416    1.69349362602049E-08           253314.203125           101208.296875        288.061401367188      0.0643518418073654      -0.658076785732225                       0 
      -2.92196098049025                       0        1.22394394874573        26.7987003326416    1.71572189380981E-08           253314.203125           101208.296875        288.061401367188      0.0643518418073654      -0.658077092315053                       0 
      -2.91870935467734                       0        1.22394394874573        26.7987003326416    1.71471674174845E-08           253314.203125           101208.296875        288.061401367188      0.0643518418073654      -0.658077418949531                       0 
      -2.91545772886443                       0        1.22394394874573        26.7987003326416    1.71371158968709E-08           253314.203125           101208.296875        288.061401367188      0.0643518418073654      -0.658077745584009                       0 
      -2.91220610305153                       0        1.22394394874573        26.7987003326416    1.71270643762573E-08           253314.203125           101208.296875        288.061401367188      0.0643518418073654      -0.658078072218487                       0 
      -2.90895447723862                       0        1.22394394874573        26.7987003326416    1.71170128556437E-08           253314.203125           101208.296875        288.061401367188      0.0643518418073654      -0.658078398852965                       0 
      -2.90570285142571                       0        1.22394394874573        26.7987003326416    1.71069613350301E-08           253314.203125           101208.296875        288.061401367188      0.0643518418073654      -0.658078725487443                       0 
      -2.90245122561281                       0        1.22394394874573        26.7987003326416    1.70969098144165E-08           253314.203125           101208.296875        288.061401367188      0.0643518418073654      -0.658079052121921                       0 
       -2.8991995997999                       0        1.22394394874573        26.7987003326416    1.70868582938029E-08           253314.203125           101208.296875        288.061401367188      0.0643518418073654      -0.658079378756398                       0 
      -2.89594797398699                       0        1.22394394874573        26.7987003326416    1.70768067731893E-08           253314.203125           101208.296875        288.061401367188      0.0643518418073654      -0.658079705390876                       0 
      -2.89269634817409                       0        1.22394394874573        26.7987003326416    1.70667552525757E-08           253314.203125           101208.296875        288.061401367188      0.0643518418073654      -0.658080032025354                       0 
      -2.88944472236118                       0        1.22394394874573        26.7987003326416    1.70567037319621E-08           253314.203125           101208.296875        288.061401367188      0.0643518418073654      -0.658080358659832                       0 
      -2.88619309654827                       0        1.22394394874573        26.7987003326416    1.70466522113485E-08           253314.203125           101208.296875        288.061401367188      0.0643518418073654       -0.65808068529431                       0 
      -2.88294147073537                       0        1.22394394874573        26.7987003326416    1.65489047590133E-08           253314.203125           101208.296875        288.061401367188      0.0643518418073654      -0.658080977489974                       0 
      -2.87968984492246                       0        1.22394394874573        26.7987003326416    1.60329341839027E-08           253314.203125           101208.296875        288.061401367188      0.0643518418073654      -0.658081268398806                       0 
      -2.87643821910955                       0        1.22394394874573        26.7987003326416    1.55169636087921E-08           253314.203125           101208.296875        288.061401367188      0.0643518418073654      -0.658081559307638                       0 
      -2.87318659329665                       0        1.22394394874573        26.7987003326416    1.50009930336815E-08           253314.203125           101208.296875        288.061401367188      0.0643518418073654       -0.65808185021647                       0 
      -2.86993496748374                       0        1.22394394874573        26.7987003326416     1.4485022458571E-08           253314.203125           101208.296875        288.061401367188      0.0643518418073654      -0.658082141125302                       0 
      -2.86668334167084                       0        1.22394394874573        26.7987003326416    1.39690518834604E-08           253314.203125           101208.296875        288.061401367188      0.0643518418073654      -0.658082432034133                       0 
      -2.86343171585793                       0        1.22394394874573        26.7987003326416    1.34530813083498E-08           253314.203125           101208.296875        288.061401367188      0.0643518418073654      -0.658082722942965                       0 
      -2.86018009004502                       0        1.22394394874573        26.7987003326416    1.29371107332393E-08           253314.203125           101208.296875        288.061401367188      0.0643518418073654      -0.658083013851797                       0 
      -2.85692846423212                       0        1.22394394874573        26.7987003326416    1.24211401581287E-08           253314.203125           101208.296875        288.061401367188      0.0643518418073654      -0.658083304760629                       0 
      -2.85367683841921                       0        1.22394394874573        26.7987003326416    1.19051695830181E-08           253314.203125           101208.296875        288.061401367188      0.0643518418073654      -0.658083595669461                       0 
       -2.8504252126063                       0        1.22394394874573        26.7987003326416    1.13891990079075E-08           253314.203125           101208.296875        288.061401367188      0.0643518418073654      -0.658083886578293                       0 
       -2.8471735867934                       0        1.22394394874573        26.7987003326416    1.08042437903208E-08           253314.203125           101208.296875        288.061401367188      0.0643518418073654      -0.658084181856326                       0 
      -2.84392196098049                       0        1.22394394874573        26.7987003326416    1.00463785831323E-08           253314.203125           101208.296875        288.061401367188      0.0643518418073654      -0.658084488085762                       0 
      -2.84067033516758                       0        1.22394394874573        26.7987003326416     9.2885133759438E-09           253314.203125           101208.296875        288.061401367188      0.0643518418073654      -0.658084794315198                       0 
      -2.83741870935468                       0        1.22394394874573        26.7987003326416    8.53064816875532E-09           253314.203125           101208.296875        288.061401367188      0.0643518418073654      -0.658085100544634                       0 
      -2.83416708354177                       0        1.22394394874573        26.7987003326416    7.77278296156683E-09           253314.203125           101208.296875        288.061401367188      0.0643518418073654       -0.65808540677407                       0 
      -2.83091545772886                       0        1.22394394874573        26.7987003326416    7.01491775437846E-09           253314.203125           101208.296875        288.061401367188      0.0643518418073654      -0.658085713003506                       0 
      -2.82766383191596                       0        1.22394394874573        26.7987003326416    6.25705254718998E-09           253314.203125           101208.296875        288.061401367188      0.0643518418073654      -0.658086019232942                       0 
      -2.82441220610305                       0        1.22394394874573        26.7987003326416     5.4991873400015E-09           253314.203125           101208.296875        288.061401367188      0.0643518418073654      -0.658086325462378                       0 
      -2.82116058029015                       0        1.22394394874573        26.7987003326416    4.74132213281301E-09           253314.203125           101208.296875        288.061401367188      0.0643518418073654      -0.658086631691814                       0 
      -2.81790895447724                       0        1.22394394874573        26.7987003326416    3.98345692562453E-09           253314.203125           101208.296875        288.061401367188      0.0643518418073654      -0.658086937921251                       0 
      -2.81465732866433                       0        1.22394394874573        26.7987003326416    3.22559171843605E-09           253314.203125           101208.296875        288.061401367188      0.0643518418073654      -0.658087244150687                       0 
      -2.81140570285143                       0        1.22394394874573        26.7987003326416    2.46772651124757E-09           253314.203125           101208.296875        288.061401367188      0.0643518418073654      -0.658087550380123                       0 
      -2.80815407703852                       0        1.22394394874573        26.7987003326416    1.69095138073101E-09           253314.203125           101208.296875        288.061401367188      0.0643518418073654      -0.658087850410371                       0 
      -2.80490245122561                       0        1.22394394874573        26.7987003326416    9.01920549555743E-10           253314.203125           101208.296875        288.061401367188      0.0643518418073654      -0.658088146422866                       0 
      -2.80165082541271                       0        1.22394394874573        26.7987003326416    1.12889718380473E-10           253314.203125           101208.296875        288.061401367188      0.0643518418073654      -0.658088442435362                       0 
       -2.7983991995998                       0        1.22394394874573        26.7987003326416   -6.76141112794691E-10           253314.203125           101208.296875        288.061401367188      0.0643518418073654      -0.658088738447857                       0 
      -2.79514757378689                       0        1.22394394874573        26.7987003326416   -1.46517194396996E-09           253314.203125           101208.296875        288.061401367188      0.0643518418073654      -0.658089034460353                       0 
      -2.79189594797399                       0        1.22394394874573        26.7987003326416   -2.25420277514523E-09           253314.203125           101208.296875        288.061401367188      0.0643518418073654      -0.658089330472849                       0 
      -2.78864432216108                       0        1.22394394874573        26.7987003326416    -3.0432336063205E-09           253314.203125           101208.296875        288.061401367188      0.0643518418073654      -0.658089626485344                       0 
      -2.78539269634817                       0        1.22394394874573        26.7987003326416   -3.83226443749577E-09           253314.203125           101208.296875        288.061401367188      0.0643518418073654       -0.65808992249784                       0 
      -2.78214107053527                       0        1.22394394874573        26.7987003326416   -4.62129526867104E-09           253314.203125           101208.296875        288.061401367188      0.0643518418073654      -0.658090218510335                       0 
      -2.77888944472236                       0        1.22394394874573        26.7987003326416   -5.41032609984632E-09           253314.203125           101208.296875        288.061401367188      0.0643518418073654      -0.658090514522831                       0 
      -2.77563781890945                       0        1.22394394874573        26.7987003326416   -6.19935693102159E-09           253314.203125           101208.296875        288.061401367188      0.0643518418073654      -0.658090810535327                       0 
      -2.77238619309655                       0        1.22394394874573        26.7987003326416   -6.98838776219686E-09           253314.203125           101208.296875        288.061401367188      0.0643518418073654      -0.658091106547822                       0 
      -2.76913456728364                       0        1.22394394874573        26.7987003326416   -7.71352400637741E-09           253314.203125           101208.296875        288.061401367188      0.0643518418073654      -0.658091412034097                       0 
      -2.76588294147074                       0        1.22394394874573        26.7987003326416   -8.43369996795451E-09           253314.203125           101208.296875        288.061401367188      0.0643518418073654      -0.658091718255843                       0 
      -2.76263131565783                       0        1.22394394874573        26.7987003326416   -9.15387592953171E-09           253314.203125           101208.296875        288.061401367188      0.0643518418073654      -0.658092024477588                       0 
      -2.75937968984492                       0        1.22394394874573        26.7987003326416   -9.87405189110891E-09           253314.203125           101208.296875        288.061401367188      0.0643518418073654      -0.658092330699334                       0 
      -2.75612806403202                       0        1.22394394874573        26.7987003326416   -1.05942278526861E-08           253314.203125           101208.296875        288.061401367188      0.0643518418073654      -0.658092636921079                       0 
      -2.75287643821911                       0        1.22394394874573        26.7987003326416   -1.13144038142633E-08           253314.203125           101208.296875        288.061401367188      0.0643518418073654      -0.658092943142825                       0 
       -2.7496248124062                       0        1.22394394874573        26.7987003326416   -1.20345797758405E-08           253314.203125           101208.296875        288.061401367188      0.0643518418073654       -0.65809324936457                       0 
       -2.7463731865933                       0        1.22394394874573        26.7987003326416   -1.27547557374177E-08           253314.203125           101208.296875        288.061401367188      0.0643518418073654      -0.658093555586316                       0 
      -2.74312156078039                       0        1.22394394874573        26.7987003326416   -1.34749316989949E-08           253314.203125           101208.296875        288.061401367188      0.0643518418073654      -0.658093861808062                       0 
      -2.73986993496748                       0        1.22394394874573        26.7987003326416   -1.41951076605721E-08           253314.203125           101208.296875        288.061401367188      0.0643518418073654      -0.658094168029807                       0 
      -2.73661830915458                       0        1.22394394874573        26.7987003326416   -1.49152836221492E-08           253314.203125           101208.296875        288.061401367188      0.0643518418073654      -0.658094474251553                       0 
      -2.73336668334167                       0        1.22394394874573        26.7987003326416   -1.56140580904815E-08           253314.203125           101208.296875        288.061401367188      0.0643518418073654      -0.658094779202676                       0 
      -2.73011505752876                       0        1.22394394874573        26.7987003326416   -1.62483664097837E-08           253314.203125           101208.296875        288.061401367188      0.0643518418073654      -0.658095080326398                       0 
      -2.72686343171586                       0        1.22394394874573        26.7987003326416   -1.68826747290859E-08           253314.203125           101208.296875        288.061401367188      0.0643518418073654      -0.658095381450119                       0 
      -2.72361180590295                       0        1.22394394874573        26.7987003326416   -1.75169830483881E-08           253314.203125           101208.296875        288.061401367188      0.0643518418073654      -0.658095682573841                       0 
      -2.72036018009004                       0        1.22394394874573        26.7987003326416   -1.81512913676903E-08           253314.203125           101208.296875        288.061401367188      0.0643518418073654      -0.658095983697562                       0 
      -2.71710855427714                       0        1.22394394874573        26.7987003326416   -1.87855996869925E-08           253314.203125           101208.296875        288.061401367188      0.0643518418073654      -0.658096284821284                       0 
      -2.71385692846423                       0        1.22394394874573        26.7987003326416   -1.94199080062947E-08           253314.203125           101208.296875        288.061401367188      0.0643518418073654      -0.658096585945005                       0 
      -2.71060530265133                       0        1.22394394874573        26.7987003326416   -2.00542163255969E-08           253314.203125           101208.296875        288.061401367188      0.0643518418073654      -0.658096887068726                       0 
      -2.70735367683842                       0        1.22394394874573        26.7987003326416    -2.0688524644899E-08           253314.203125           101208.296875        288.061401367188      0.0643518418073654      -0.658097188192448                       0 
      -2.70410205102551                       0        1.22394394874573        26.7987003326416   -2.13228329642012E-08           253314.203125           101208.296875        288.061401367188      0.0643518418073654       -0.65809748931617                       0 
      -2.70085042521261                       0        1.22394394874573        26.7987003326416   -2.19571412835034E-08           253314.203125           101208.296875        288.061401367188      0.0643518418073654      -0.658097790439891                       0 
       -2.6975987993997                       0        1.22394394874573        26.7987003326416   -2.25914496028056E-08           253314.203125           101208.296875        288.061401367188      0.0643518418073654      -0.658098091563613                       0 
      -2.69434717358679                       0        1.22394394874573        26.7987003326416   -2.31871985724103E-08        253314.197779907           101208.296875        288.061401367188      0.0643518418073654      -0.658098389770174                       0 
      -2.69109554777389                       0        1.22394394874573        26.7987003326416   -2.37539461423392E-08        253314.188414643           101208.296875        288.061401367188      0.0643518418073654      -0.658098685782669                       0 
      -2.68784392196098                       0        1.22394394874573        26.7987003326416   -2.43206937122681E-08         253314.17904938           101208.296875        288.061401367188      0.0643518418073654      -0.658098981795165                       0 
      -2.68459229614807                       0        1.22394394874573        26.7987003326416    -2.4887441282197E-08        253314.169684116           101208.296875        288.061401367188      0.0643518418073654       -0.65809927780766                       0 
      -2.68134067033517                       0        1.22394394874573        26.7987003326416   -2.54541888521259E-08        253314.160318852           101208.296875        288.061401367188      0.0643518418073654      -0.658099573820156                       0 
      -2.67808904452226                       0        1.22394394874573        26.7987003326416   -2.60209364220547E-08        253314.150953588           101208.296875        288.061401367188      0.0643518418073654      -0.658099869832652                       0 
      -2.67483741870935                       0        1.22394394874573        26.7987003326416   -2.65876839919836E-08        253314.141588325           101208.296875        288.061401367188      0.0643518418073654      -0.658100165845147                       0 
      -2.67158579289645                       0        1.22394394874573        26.7987003326416   -2.71544315619125E-08        253314.132223061           101208.296875        288.061401367188      0.0643518418073654      -0.658100461857643                       0 
      -2.66833416708354                       0        1.22394394874573        26.7987003326416   -2.77211791318413E-08        253314.122857797           101208.296875        288.061401367188      0.0643518418073654      -0.658100757870138                       0 
      -2.66508254127064                       0        1.22394394874573        26.7987003326416   -2.82879267017702E-08        253314.113492533           101208.296875        288.061401367188      0.0643518418073654      -0.658101053882634                       0 
      -2.66183091545773                       0        1.22394394874573        26.7987003326416   -2.88546742716991E-08         253314.10412727           101208.296875        288.061401367188      0.0643518418073654       -0.65810134989513                       0 
      -2.65857928964482                       0        1.22394394874573        26.7987003326416    -2.9421421841628E-08        253314.094762006           101208.296875        288.061401367188      0.0643518418073654      -0.658101645907625                       0 
      -2.65532766383192                       0        1.22394394874573        26.7987003326416   -2.99459002379855E-08            253314.09375           101208.296875        288.061401367188      0.0643518423763895      -0.658101946473971                       0 
      -2.65207603801901                       0        1.22394394874573        26.7987003326416   -3.04652576800473E-08            253314.09375           101208.296875        288.061401367188      0.0643518430143515      -0.658102247592021                       0 
       -2.6488244122061                       0        1.22394394874573        26.7987003326416    -3.0984615122109E-08            253314.09375           101208.296875        288.061401367188      0.0643518436523135      -0.658102548710071                       0 
       -2.6455727863932                       0        1.22394394874573        26.7987003326416   -3.15039725641709E-08            253314.09375           101208.296875        288.061401367188      0.0643518442902754      -0.658102849828121                       0 
      -2.64232116058029                       0        1.22394394874573        26.7987003326416   -3.20233300062326E-08            253314.09375           101208.296875        288.061401367188      0.0643518449282374      -0.658103150946171                       0 
      -2.63906953476738                       0        1.22394394874573        26.7987003326416   -3.25426874482944E-08            253314.09375           101208.296875        288.061401367188      0.0643518455661994       -0.65810345206422                       0 