/*--------------------------------*- C++ -*----------------------------------*\
  =========                 |
  \\      /  F ield         | OpenFOAM: The Open Source CFD Toolbox
   \\    /   O peration     | Website:  https://openfoam.org
    \\  /    A nd           | Version:  6
     \\/     M anipulation  |
\*---------------------------------------------------------------------------*/
FoamFile
{
    version     2.0;
    format      ascii;
    class       surfaceScalarField;
    location    "50";
    object      phi;
}
// * * * * * * * * * * * * * * * * * * * * * * * * * * * * * * * * * * * * * //

dimensions      [0 3 -1 0 0 0 0];

internalField   nonuniform List<scalar> 
7780
(
2
3.18444e-16
2
1.41747e-16
2
3.33818e-16
2
5.16676e-16
2
4.67919e-16
2
4.9108e-16
2
4.94921e-16
2
4.05611e-16
2
2.57321e-16
2
4.04117e-16
2
2.2237e-16
2
3.3062e-17
2
5.3598e-17
2
6.33223e-17
2
2.23747e-16
2
3.75684e-16
2
2.58584e-16
2
1.34871e-16
2
1.37175e-16
2
2.50016e-16
2
1.67399e-16
2
2.92937e-16
2
1.97807e-16
2
9.67181e-17
2
1.25133e-16
2
2.8485e-17
2
6.8335e-17
2
6.41186e-17
2
1.06539e-16
2
3.41271e-16
2
2.11901e-16
2
2.96502e-16
2
2.0698e-16
2
1.06343e-16
2
1.54786e-17
2
-1.22177e-16
2
-1.35479e-16
2
-1.65769e-16
2
-7.49774e-17
2
-9.63768e-17
2
-6.63784e-17
2
8.80773e-17
2
8.5476e-17
2
7.9633e-17
2
1.04515e-16
2
-4.26877e-17
2
-1.08426e-16
2
-8.42745e-17
2
-1.2831e-16
2
-6.53688e-17
2
8.88729e-17
2
1.35466e-17
2
4.76492e-20
2
6.10593e-17
2
1.82461e-16
2
2.03134e-16
2
-2.16185e-17
2
-7.19096e-17
2
8.12609e-17
2
3.11593e-17
2
5.15148e-17
2
1.14568e-16
2
9.35938e-17
2
1.29875e-16
2
2.87276e-16
2
5.53843e-16
2
4.52331e-16
2
4.42008e-16
2
5.54131e-16
2
3.91653e-16
2
2.52476e-17
2
1.89934e-17
2
-9.05695e-17
2
-1.46435e-16
2
6.59782e-17
2
4.29477e-17
2
-3.23189e-17
2
2.37343e-17
2
1.38807e-16
2
5.15186e-17
2
1.56278e-17
2
1.53057e-16
2
1.29764e-16
2
-6.74276e-17
2
-4.06213e-17
2
-1.49991e-16
2
-2.35742e-16
2
-3.60552e-16
2
-5.8177e-16
2
-6.68014e-16
2
-2.27085e-16
2
4.3241e-17
2
-2.17713e-16
2
-2.28696e-16
2
-1.38134e-16
2
-1.6645e-16
2
-1.94096e-16
2
-2.38698e-16
2
-3.64469e-16
2
-1.13257e-16
2
2.04683e-17
2
-1.68944e-17
2
2.83842e-17
2
1.56445e-16
2
1.86532e-16
2
1.51288e-16
2
2.10601e-16
2
3.12441e-16
2
2.51936e-16
2
4.68556e-16
2
3.44051e-16
2
3.10296e-16
2
2.37407e-16
2
2.34747e-16
2
3.0064e-16
2
3.0559e-16
2
2.94608e-16
2
3.49106e-16
2
2.99968e-16
2
3.48251e-16
2
2.07192e-16
2
2.21797e-16
2
3.13903e-16
2
2.8564e-16
2
2.56634e-16
2
1.73791e-16
2
1.93309e-16
2
2.2051e-16
2
1.54055e-16
2
7.45526e-17
2
-2.69448e-17
2
-4.5202e-17
2
-9.75288e-17
2
-1.46648e-16
2
-5.20422e-18
2
1.00021e-16
2
2.07269e-17
2
-1.19903e-16
2
-2.49805e-16
2
-5.24303e-16
2
-4.02653e-16
2
-2.05488e-16
2
-2.40984e-16
2
-1.66686e-16
2
-1.24902e-16
2
-1.6345e-16
2
-5.43943e-17
2
-8.92978e-17
2
-1.37798e-16
2
-2.12398e-16
2
-2.06195e-16
2
-2.64159e-16
2
-2.68597e-16
2
-1.6939e-16
2
-5.18453e-17
2
1.4199e-17
2
2.94321e-17
2
8.3536e-17
2
1.06732e-16
2
1.17023e-16
2
1.05108e-16
2
1.462e-16
2
2.14088e-16
2
1.25941e-16
2
1.12005e-16
2
2.8935e-16
2
8.55342e-17
2
-1.51294e-17
2
6.35272e-18
2
-1.96125e-17
2
-1.19857e-16
2
-1.20722e-16
2
-2.26693e-16
2
-3.14166e-16
2
-2.87834e-16
2
-1.06814e-16
2
-5.48436e-17
2
-1.16842e-16
2
-4.8315e-16
2
-4.29874e-16
2
-2.46452e-16
2
-1.74442e-16
2
-4.44466e-16
2
-4.5226e-16
2
-3.5122e-16
2
-4.07055e-16
2
-4.18492e-16
2
-3.48008e-16
2
-3.15956e-16
2
-2.65289e-16
2
-1.63886e-16
2
-1.43352e-16
2
1.46765e-17
2
-1.72526e-16
2
-8.49163e-17
2
-1.25058e-16
2
-2.77464e-16
2
-2.3035e-16
2
-2.43752e-16
-1.90826e-16
2
8.13748e-17
2
2.53238e-16
2
1.98798e-16
2
2.54849e-16
2
2.94847e-16
2
4.04055e-16
2
5.59108e-16
2
6.0921e-16
2
5.51588e-16
2
3.66718e-16
2
2.83981e-16
2
1.50762e-16
2
8.50472e-17
2
1.65226e-16
2
1.81478e-16
2
-1.04214e-17
2
1.46429e-16
2
2.95868e-16
2
1.60056e-16
2
1.2751e-16
2
1.93299e-16
2
-3.83589e-19
2
2.16499e-17
2
-2.72899e-17
2
8.79364e-17
2
1.47015e-17
2
-4.01412e-19
2
-1.67416e-16
2
1.14609e-16
2
1.66019e-16
2
2.17835e-16
2
4.58864e-17
2
1.21787e-16
2
1.64912e-16
2
-4.69745e-17
2
-7.36607e-17
2
-1.31012e-16
2
-1.16839e-16
2
-3.10739e-16
2
-4.03014e-17
2
-2.32963e-17
2
1.20021e-16
2
6.51577e-17
2
4.94541e-17
2
-6.26951e-17
2
1.07979e-17
2
5.19833e-17
2
3.35204e-17
2
-1.94435e-17
2
-3.87547e-17
2
-1.24545e-16
2
4.97176e-18
2
3.86774e-17
2
5.44621e-17
2
4.30227e-17
2
3.20469e-16
2
2.09694e-16
2
9.71637e-17
2
1.6329e-16
2
4.21271e-17
2
-1.43604e-17
2
-7.97956e-17
2
1.1334e-16
2
4.49722e-16
2
3.91883e-16
2
1.93671e-16
2
2.25045e-16
2
4.11843e-16
2
4.0954e-16
2
3.1778e-16
2
1.94785e-16
2
-2.03207e-17
2
1.17835e-19
2
2.63952e-18
2
1.05409e-16
2
1.19375e-16
2
1.287e-16
2
2.08598e-16
2
1.07317e-16
2
2.29847e-17
2
1.28949e-16
2
2.13378e-16
2
9.42408e-18
2
1.0805e-16
2
1.56112e-16
2
9.57718e-18
2
-1.41534e-16
2
-1.48342e-16
2
-2.49212e-16
2
-2.66043e-16
2
-4.2258e-16
2
-4.06983e-16
2
-3.00428e-16
2
-3.2395e-17
2
-1.87436e-16
2
-3.1334e-16
2
-1.08489e-16
2
-2.64167e-16
2
-2.86953e-16
2
-2.20774e-16
2
-2.60723e-16
2
-1.79694e-16
2
3.00184e-17
2
2.14024e-16
2
1.27122e-16
2
3.12817e-16
2
2.74024e-17
2
6.6038e-17
2
1.3995e-16
2
2.56692e-16
2
1.66231e-16
2
3.90378e-16
2
4.49309e-16
2
2.84201e-16
2
1.256e-18
2
-4.23458e-17
2
2.38478e-16
2
2.16331e-16
2
2.10474e-16
2
7.00142e-17
2
6.49647e-17
2
8.02938e-17
2
1.71537e-16
2
2.05574e-16
2
1.58913e-16
2
1.4439e-16
2
1.8025e-16
2
6.48377e-17
2
1.48976e-16
2
5.02641e-17
2
-2.20676e-16
2
-1.43915e-16
2
-1.93235e-16
2
2.08253e-17
2
-1.67221e-17
2
7.01968e-17
2
7.76545e-17
2
-6.84415e-17
2
-1.24302e-16
2
-2.25023e-16
2
3.57471e-17
2
-9.92564e-17
2
-2.51273e-16
2
-2.46597e-16
2
-1.61756e-16
2
-2.39909e-16
2
-3.17998e-16
2
-2.0967e-16
2
-1.60951e-16
2
-8.71283e-17
2
-2.39867e-16
2
-2.17988e-16
2
-1.79345e-16
2
-6.00828e-17
2
-8.20068e-17
2
-1.22315e-16
2
-2.85878e-16
2
-5.4039e-17
2
2.45624e-17
2
1.08101e-16
2
1.76298e-16
2
3.25775e-16
2
3.4348e-16
2
2.51427e-16
2
2.25252e-16
2
1.17227e-16
2
1.33734e-16
2
3.47064e-16
2
1.3115e-16
2
-1.14296e-17
2
-6.01496e-17
2
-3.76439e-17
2
-1.1701e-16
2
1.27646e-16
2
1.75846e-16
2
1.01921e-16
2
8.92549e-17
2
1.26864e-16
2
-3.49468e-17
2
-2.24683e-16
2
-2.34811e-16
2
-1.70483e-16
2
-1.9204e-16
2
-2.41784e-16
2
-2.02979e-16
2
-2.93272e-16
2
-1.59082e-16
2
-1.76567e-16
2
-1.87819e-16
2
-2.44292e-16
2
-2.80342e-16
2
-2.16957e-16
2
-1.75842e-16
2
-6.89763e-17
2
-2.91123e-16
2
-4.43901e-16
2
-3.92468e-16
2
-2.41088e-16
2
-8.18566e-17
3.92225e-17
2
1.16983e-16
2
9.99945e-17
2
1.1313e-16
2
7.05167e-17
2
1.74787e-16
2
3.98745e-16
2
3.22736e-16
2
1.18449e-16
2
2.61595e-16
2
3.51116e-16
2
3.95884e-16
2
2.11434e-16
2
1.92483e-17
2
3.0464e-17
2
3.13855e-17
2
2.52309e-16
2
4.98828e-17
2
2.45789e-16
2
3.66094e-16
2
2.27359e-16
2
-4.65833e-17
2
-1.2752e-16
2
-1.27766e-17
2
2.3179e-16
2
1.30298e-16
2
2.67586e-16
2
-1.76304e-17
2
-4.72264e-17
2
-1.55565e-16
2
-3.16182e-17
2
3.8423e-17
2
3.19394e-17
2
2.7555e-17
2
4.1918e-17
2
1.48874e-16
2
2.49196e-18
2
-1.99722e-16
2
-2.69322e-16
2
-1.10711e-16
2
-2.14943e-16
2
-1.38352e-16
2
-1.8533e-16
2
-6.85789e-17
2
5.38656e-17
2
-6.49057e-17
2
3.98948e-17
2
1.31633e-16
2
1.42359e-16
2
9.79051e-17
2
7.92734e-17
2
6.95561e-17
2
2.05927e-16
2
1.28924e-16
2
9.21774e-17
2
1.02609e-16
2
-7.94346e-18
2
1.00334e-16
2
1.57931e-16
2
-4.44097e-17
2
-3.82219e-17
2
-9.65435e-17
2
-7.52361e-17
2
4.04555e-16
2
6.07758e-16
2
4.19609e-16
2
2.91842e-16
2
2.26505e-16
2
1.31682e-16
2
3.15178e-16
2
1.8909e-16
2
-1.87032e-17
2
1.87135e-16
2
1.25868e-16
2
1.46111e-16
2
3.12663e-16
2
1.83726e-16
2
2.5446e-16
2
2.5992e-16
2
2.02249e-16
2
4.38615e-16
2
3.98934e-16
2
2.2549e-16
2
1.92805e-16
2
4.63697e-17
2
9.65555e-17
2
4.46437e-17
2
5.40209e-17
2
3.95327e-17
2
-8.59797e-17
2
-2.68185e-17
2
-2.23254e-16
2
-9.02146e-17
2
-9.49102e-17
2
-2.3876e-16
2
-2.2464e-16
2
-2.81967e-16
2
-4.60522e-16
2
-3.94276e-16
2
-2.36436e-16
2
-1.83064e-16
2
-2.36294e-16
2
-4.88283e-17
2
7.64968e-18
2
9.29562e-17
2
1.59205e-16
2
-5.97742e-18
2
2.86503e-16
2
1.12974e-16
2
3.26901e-16
2
5.1148e-16
2
3.94065e-16
2
1.55469e-16
2
4.17255e-16
2
2.46747e-16
2
8.01344e-17
2
-3.57797e-17
2
-6.58284e-17
2
7.57475e-17
2
2.87158e-16
2
7.05539e-17
2
-4.20655e-17
2
-1.13493e-16
2
1.1615e-16
2
2.01933e-16
2
-2.63639e-17
2
1.87197e-17
2
-7.93537e-17
2
1.16157e-16
2
2.46095e-16
2
8.00682e-17
2
7.51553e-17
2
-4.95028e-17
2
-5.69353e-17
2
2.56352e-17
2
-1.49093e-17
2
-2.07049e-16
2
-1.68509e-16
2
-2.26942e-16
2
-4.9998e-17
2
1.59735e-17
2
-1.58438e-16
2
-9.96572e-17
2
-3.96501e-17
2
-3.25953e-16
2
-4.68309e-16
2
-3.8236e-16
2
-3.46103e-16
2
-2.30534e-16
2
-2.53039e-16
2
-2.85331e-16
2
-7.92073e-17
2
-2.20083e-16
2
-1.57813e-16
2
-1.98545e-16
2
-1.3356e-16
2
-1.71898e-16
2
-3.7964e-17
2
1.1841e-16
2
1.07979e-16
2
1.131e-16
2
8.28667e-17
2
2.09355e-16
2
1.98191e-16
2
2.65862e-16
2
3.67144e-16
2
2.26898e-16
2
3.63334e-16
2
1.10938e-16
2
-1.36581e-17
2
5.53278e-17
2
1.35644e-16
2
-4.83229e-17
2
-6.38286e-17
2
6.53204e-17
2
2.05159e-17
2
5.65688e-17
2
1.79149e-16
2
1.3523e-16
2
2.47752e-16
2
2.73978e-16
2
2.33534e-17
2
-1.47317e-16
2
-1.49159e-16
2
-1.39049e-16
2
-2.07758e-16
2
-6.21825e-17
2
-2.9634e-16
2
-2.90564e-16
2
-2.76429e-16
2
-3.1931e-16
2
-9.05754e-17
2
2.02672e-17
2
-2.78562e-16
2
-3.59908e-16
2
-2.66512e-16
2
-2.44427e-16
2
-2.71405e-16
2
-1.40865e-16
2
-1.19812e-16
-1.78845e-16
2
1.45962e-16
2
1.96394e-16
2
1.53636e-16
2
1.70902e-16
2
3.11432e-16
2
2.71141e-16
2
2.91409e-16
2
2.45454e-16
2
1.45448e-16
2
1.02722e-16
2
-8.31749e-18
2
-7.9404e-18
2
-1.11585e-16
2
5.39245e-17
2
1.75473e-16
2
1.10025e-16
2
6.42722e-17
2
-9.15512e-17
2
-9.40034e-17
2
7.30469e-18
2
-1.43415e-17
2
3.87134e-17
2
-8.81937e-17
2
5.08848e-18
2
-7.23237e-17
2
-2.97269e-16
2
-1.74397e-16
2
-1.979e-16
2
-2.09305e-16
2
-2.49337e-16
2
-1.23742e-16
2
-5.69038e-17
2
-4.90977e-17
2
-1.13292e-16
2
8.5335e-17
2
7.6161e-17
2
-1.93584e-18
2
-1.48172e-16
2
-6.28769e-17
2
-1.86017e-16
2
-1.84375e-16
2
-2.00597e-16
2
-1.8296e-16
2
-1.55031e-16
2
1.43266e-16
2
8.18498e-17
2
2.65486e-16
2
2.88511e-16
2
1.98695e-16
2
1.65334e-16
2
2.00759e-16
2
2.59825e-16
2
1.11824e-16
2
5.30659e-17
2
-6.86429e-17
2
4.08881e-17
2
2.12061e-16
2
1.44981e-16
2
5.4315e-17
2
4.85733e-17
2
2.19542e-16
2
2.82831e-16
2
2.78061e-16
2
2.89889e-16
2
2.7494e-16
2
2.46309e-16
2
2.03257e-16
2
7.55733e-17
2
1.43087e-16
2
1.89487e-16
2
2.85957e-16
2
2.41424e-16
2
2.19494e-16
2
2.45748e-16
2
5.06349e-17
2
1.69393e-16
2
1.3555e-16
2
3.49105e-17
2
1.58613e-16
2
-5.4072e-17
2
-3.84579e-17
2
1.3948e-16
2
1.50967e-16
2
3.39401e-16
2
2.00048e-16
2
5.42149e-17
2
1.91293e-16
2
1.63889e-16
2
1.74616e-16
2
-5.49769e-17
2
4.64849e-17
2
-1.37529e-16
2
-2.72892e-16
2
-2.67337e-16
2
-2.71807e-16
2
-2.87093e-16
2
-3.28211e-16
2
-3.11752e-16
2
-2.607e-16
2
-2.29367e-16
2
-1.84776e-16
2
-3.30843e-16
2
-5.4607e-16
2
-4.99355e-16
2
-4.17024e-16
2
-2.84582e-16
2
-3.06186e-16
2
-1.88395e-16
2
-2.67347e-16
2
-2.25993e-16
2
-1.15826e-16
2
-6.76539e-17
2
-2.02662e-17
2
1.76975e-16
2
1.47612e-16
2
-1.39427e-16
2
-1.68362e-16
2
-1.02475e-16
2
-6.02617e-17
2
-1.17629e-16
2
-1.75393e-16
2
-9.95665e-17
2
-1.53301e-16
2
6.77883e-17
2
3.00352e-16
2
3.30882e-16
2
1.7382e-16
2
1.76535e-16
2
1.28714e-16
2
2.19264e-16
2
4.12346e-16
2
3.45425e-16
2
3.9729e-16
2
1.55813e-16
2
1.97186e-16
2
2.52137e-16
2
1.86478e-16
2
2.65884e-16
2
1.73254e-16
2
7.49008e-17
2
-1.13303e-16
2
-8.76952e-17
2
-3.0436e-16
2
-4.3994e-16
2
-5.56653e-16
2
-5.91632e-16
2
-4.97276e-16
2
-5.23909e-16
2
-3.22093e-16
2
-2.69287e-16
2
-6.99928e-17
2
-2.06109e-17
2
-9.45065e-17
2
-5.79354e-17
2
-1.14723e-16
2
7.65196e-17
2
1.64993e-16
2
-1.98027e-17
2
1.68905e-16
2
1.4329e-16
2
2.63182e-16
2
2.27961e-16
2
1.3784e-16
2
6.33494e-17
2
3.44308e-17
2
2.0267e-16
2
2.01002e-16
2
2.49925e-16
2
1.47539e-16
2
2.80805e-17
2
5.777e-17
2
6.79127e-17
2
1.60402e-16
2
9.49336e-17
2
8.70364e-17
2
1.72536e-16
2
1.59487e-16
2
2.20146e-16
2
4.30665e-16
2
1.91747e-16
2
8.88803e-17
2
3.1923e-17
2
1.20495e-16
2
-4.39966e-17
2
-4.39305e-17
2
-1.22454e-16
2
-6.46428e-17
2
-1.77467e-16
2
-2.43202e-16
2
-2.71342e-16
2
-2.72972e-16
2
-3.22619e-16
2
-2.53585e-16
2
-2.47998e-16
2
-2.051e-16
2
-2.16882e-16
2
-2.17089e-17
2
-5.45161e-17
2
-1.08681e-16
-6.28128e-17
2
1.30254e-16
2
8.32654e-17
2
7.58571e-17
2
1.28463e-16
2
1.02593e-16
2
1.92689e-17
2
-1.1213e-16
2
7.19578e-19
2
-2.77734e-17
2
-2.87918e-17
2
-1.69988e-17
2
1.45153e-17
2
9.6968e-17
2
6.74448e-17
2
-2.8233e-17
2
-1.14561e-16
2
-1.58906e-16
2
-3.57115e-17
2
-1.10447e-16
2
-5.4416e-17
2
-1.73433e-16
2
-1.27597e-16
2
-3.40143e-17
2
-1.03706e-16
2
-2.21454e-17
2
-1.32007e-16
2
-3.89494e-16
2
-1.09876e-16
2
-3.0876e-17
2
-6.91575e-17
2
-1.41193e-16
2
-1.05451e-16
2
-6.43116e-17
2
-8.7982e-17
2
-1.85563e-16
2
-1.85509e-16
2
-1.83398e-16
2
-2.16767e-16
2
-2.51174e-16
2
3.17478e-17
2
2.9016e-17
2
1.85229e-17
2
1.55865e-17
2
1.01757e-16
2
1.46672e-16
2
2.0448e-16
2
3.95176e-17
2
-1.45346e-18
2
1.01618e-16
2
1.11315e-16
2
2.05002e-16
2
-1.80128e-17
2
-8.27552e-17
2
-3.28434e-16
2
9.78052e-18
2
6.72087e-17
2
1.51591e-16
2
1.30164e-16
2
1.55458e-16
2
1.26741e-16
2
3.31424e-16
2
5.84715e-16
2
2.87828e-16
2
9.57446e-17
2
1.86723e-16
2
2.86645e-16
2
3.02004e-16
2
2.87863e-16
2
1.37074e-17
2
1.71213e-16
2
3.15111e-16
2
2.56783e-16
2
2.33205e-16
2
1.58807e-16
2
4.27472e-17
2
-2.25709e-17
2
1.1114e-16
2
9.9352e-18
2
-2.82403e-17
2
-1.48528e-17
2
9.67787e-17
2
1.8163e-16
2
2.86317e-16
2
3.88683e-16
2
2.93665e-16
2
3.31789e-16
2
1.26931e-16
2
1.76521e-16
2
1.62458e-16
2
9.39597e-17
2
-1.2536e-16
2
-1.27186e-16
2
-7.74486e-17
2
-2.87454e-16
2
-2.58311e-16
2
-2.61498e-16
2
-2.56862e-16
2
-1.63476e-16
2
-2.22877e-16
2
-2.56998e-16
2
-2.22472e-16
2
-2.75161e-16
2
-2.71812e-16
2
-4.56395e-16
2
-2.69187e-16
2
-1.28307e-16
2
-2.41216e-16
2
-4.05347e-16
2
-3.54122e-16
2
-3.75919e-16
2
-3.27611e-16
2
-1.64834e-16
2
-1.38165e-16
2
-1.10509e-16
2
5.47354e-17
2
-3.35037e-17
2
-1.14549e-17
2
1.26353e-17
2
-1.00123e-16
2
-6.00532e-17
2
-1.12162e-16
2
1.15232e-17
2
7.56096e-17
2
2.16202e-16
2
2.4205e-16
2
1.3373e-16
2
4.17881e-16
2
4.84027e-16
2
4.52283e-16
2
3.48473e-16
2
2.63852e-16
2
2.59916e-16
2
3.32958e-16
2
2.42499e-16
2
1.5099e-16
2
1.79676e-16
2
2.93819e-16
2
4.10463e-16
2
-7.19826e-17
2
-1.90363e-16
2
-2.23414e-16
2
-2.71776e-16
2
-2.05793e-16
2
-1.9023e-16
2
-3.43072e-16
2
-1.85198e-16
2
-2.0891e-16
2
-2.35091e-16
2
-2.82552e-16
2
6.61262e-18
2
5.14104e-17
2
-9.1376e-17
2
-1.5959e-16
2
1.13614e-17
2
-6.27923e-17
2
-9.72356e-17
2
4.76902e-17
2
1.51428e-16
2
-1.61479e-16
2
-1.39502e-17
2
1.54867e-16
2
1.81654e-16
2
7.58049e-17
2
3.53105e-17
2
7.37882e-17
2
-1.03127e-17
2
1.01292e-16
2
2.17721e-16
2
4.6075e-16
2
3.71716e-16
2
6.25221e-17
2
1.70833e-16
2
1.28024e-16
2
1.62002e-16
2
1.96022e-16
2
-1.92881e-17
2
1.05629e-16
2
2.51727e-16
2
2.1426e-16
2
4.48061e-16
2
1.26607e-16
2
3.62825e-17
2
1.56894e-16
2
2.55379e-16
2
1.6599e-16
2
1.59464e-16
2
2.8635e-16
2
2.37918e-16
2
1.28771e-16
2
1.84902e-16
2
4.86671e-18
2
-2.2674e-16
2
-9.7997e-17
2
-5.50801e-17
2
-3.08708e-16
2
-7.26373e-17
2
-5.18181e-17
2
-1.68389e-17
2
-7.68955e-17
-2.77194e-16
2
-3.13826e-17
2
5.01669e-17
2
4.63783e-17
2
-2.24218e-17
2
5.13631e-17
2
-1.35016e-16
2
-2.46141e-16
2
-4.32303e-16
2
-1.39644e-16
2
-1.25121e-16
2
9.50069e-18
2
1.0911e-16
2
9.76657e-17
2
1.67476e-17
2
5.01466e-17
2
-5.77709e-17
2
-6.64409e-17
2
-1.16228e-16
2
-7.74334e-17
2
-2.95756e-16
2
-1.30865e-16
2
8.28315e-18
2
4.19257e-17
2
-5.11148e-17
2
-2.57992e-16
2
-1.7502e-16
2
-1.22763e-16
2
-4.25968e-17
2
7.84322e-18
2
-1.74249e-16
2
-9.13691e-17
2
-4.24182e-17
2
1.26649e-17
2
1.29649e-17
2
1.39112e-18
2
3.3011e-17
2
6.44541e-17
2
6.77035e-17
2
8.09115e-18
2
-8.82311e-17
2
-1.51165e-17
2
-7.81282e-17
2
-1.36207e-16
2
-2.36383e-16
2
1.36915e-17
2
5.97425e-17
2
1.37706e-16
2
3.82341e-17
2
5.42672e-17
2
-2.21293e-17
2
3.14264e-17
2
-1.05758e-16
2
-5.98703e-17
2
9.61336e-17
2
-4.26412e-17
2
8.00503e-17
2
1.84836e-16
2
9.63261e-17
2
3.28523e-17
2
2.30492e-16
2
1.80636e-16
2
1.55516e-16
2
1.50076e-16
2
7.78583e-17
2
1.69922e-16
2
7.09034e-17
2
1.1335e-16
2
3.35947e-16
2
3.72026e-16
2
2.16059e-16
2
1.18253e-16
2
1.82114e-16
2
1.7219e-16
2
3.86934e-17
2
1.60509e-17
2
2.95187e-17
2
-1.49917e-16
2
-5.34515e-17
2
1.86467e-16
2
2.6979e-16
2
1.45322e-16
2
1.67614e-16
2
3.50625e-16
2
1.19065e-16
2
2.90446e-16
2
4.28332e-16
2
2.74542e-16
2
2.12563e-16
2
1.15502e-16
2
2.73362e-16
2
2.39305e-16
2
2.6507e-17
2
7.03807e-17
2
1.06985e-17
2
-9.22874e-18
2
-1.62156e-17
2
8.58549e-17
2
3.62304e-17
2
-2.77666e-16
2
-2.75229e-16
2
-4.47048e-16
2
-1.41032e-16
2
-1.81575e-16
2
-2.58584e-16
2
-3.75118e-16
2
-4.94624e-16
2
-3.80214e-16
2
-2.19652e-16
2
-2.96131e-16
2
-4.74549e-16
2
-6.07835e-17
2
-3.87461e-17
2
-1.87948e-16
2
-3.23766e-17
2
-3.0062e-16
2
5.31931e-18
2
1.63014e-16
2
1.5797e-16
2
-3.17515e-17
2
6.21732e-17
2
1.98198e-16
2
1.60236e-16
2
1.41612e-16
2
-1.17964e-17
2
2.80748e-16
2
3.51201e-16
2
3.19477e-16
2
2.89258e-16
2
1.75755e-16
2
2.44607e-16
2
2.75001e-16
2
2.84883e-16
2
1.58757e-16
2
1.57235e-16
2
2.37934e-16
2
3.50103e-16
2
2.97608e-16
2
1.91892e-16
2
2.19763e-16
2
2.1485e-17
2
-2.08625e-16
2
-7.19017e-17
2
-9.55208e-17
2
9.49136e-17
2
-3.61183e-17
2
-5.89968e-17
2
-5.55714e-17
2
-1.12205e-16
2
-2.48388e-16
2
-3.43702e-16
2
-4.19816e-16
2
-1.15047e-16
2
8.09304e-17
2
-8.93537e-17
2
6.7104e-18
2
6.88673e-17
2
3.04825e-17
2
-1.09998e-16
2
-3.57133e-17
2
-1.0899e-16
2
-2.00638e-16
2
-1.72525e-16
2
-4.61403e-17
2
-2.63559e-17
2
-1.34911e-16
2
5.9633e-17
2
9.41768e-17
2
1.85524e-16
2
2.58098e-16
2
4.74887e-16
2
3.82984e-16
2
2.96037e-16
2
3.76206e-16
2
2.08538e-16
2
9.73248e-17
2
2.37124e-16
2
8.55764e-17
2
8.97073e-17
2
1.22107e-16
2
-1.24952e-16
2
2.06874e-16
2
7.67369e-17
2
9.35885e-17
2
1.6229e-16
2
1.26957e-16
2
1.28678e-16
2
2.42921e-16
2
1.2183e-16
2
1.71451e-16
2
1.95629e-16
2
9.34984e-17
2
3.23977e-17
2
1.40569e-16
2
-2.978e-17
2
-8.84005e-18
2
1.61471e-17
2
1.72798e-16
2
-5.47021e-17
2
-2.32733e-16
-3.1912e-16
2
-2.55949e-16
2
-3.33032e-16
2
-1.18068e-16
2
-6.12488e-17
2
-1.42287e-16
2
-2.53538e-16
2
-1.2544e-16
2
6.14088e-17
2
1.30109e-16
2
2.15717e-16
2
1.67779e-16
2
-1.02832e-16
2
-1.91229e-16
2
-8.87122e-17
2
-2.2006e-16
2
-1.30547e-16
2
5.0509e-17
2
-2.55589e-16
2
-2.25454e-16
2
-1.55046e-17
2
3.32679e-17
2
-9.11773e-17
2
-1.59518e-16
2
-3.30938e-16
2
-2.60892e-16
2
-8.78607e-17
2
1.54492e-16
2
1.13426e-16
2
-1.15238e-16
2
-3.11139e-17
2
1.11933e-16
2
9.162e-17
2
1.07337e-16
2
4.62455e-17
2
1.48855e-16
2
1.58588e-16
2
1.55056e-16
2
1.35235e-16
2
3.48268e-17
2
-9.25339e-17
2
-9.35593e-17
2
-5.99748e-18
2
-2.58331e-17
2
-1.55572e-16
2
-4.01261e-16
2
-1.34e-16
2
-1.40397e-16
2
-1.64284e-16
2
-5.31708e-17
2
2.82258e-17
2
-9.23839e-17
2
-3.58149e-17
2
-1.15611e-16
2
-1.03548e-16
2
1.01578e-16
2
1.16528e-16
2
1.99199e-17
2
1.20541e-16
2
1.86169e-16
2
1.98921e-16
2
6.78309e-17
2
7.82824e-17
2
-6.06455e-17
2
-1.17045e-16
2
-8.22427e-17
2
8.80616e-17
2
1.36657e-16
2
-1.14824e-17
2
-9.29653e-18
2
1.76236e-16
2
1.14781e-16
2
9.36029e-17
2
9.37827e-17
2
1.15148e-16
2
2.17996e-16
2
6.38799e-17
2
3.09759e-17
2
-1.45965e-17
2
-3.31998e-17
2
1.97676e-16
2
3.31678e-16
2
2.86171e-16
2
2.88086e-16
2
2.49158e-16
2
2.5177e-16
2
2.52246e-16
2
2.9493e-16
2
3.21384e-16
2
3.02948e-16
2
1.42763e-16
2
1.78081e-16
2
1.2718e-16
2
8.51269e-17
2
7.98575e-17
2
-2.66056e-17
2
-5.89567e-17
2
6.75349e-17
2
-7.82888e-17
2
2.03565e-16
2
-7.43721e-17
2
-2.41697e-16
2
-3.20348e-16
2
-4.0778e-16
2
-3.89654e-16
2
-4.20792e-16
2
-5.19562e-16
2
-4.97556e-16
2
-6.08478e-16
2
-4.17058e-16
2
-1.44192e-16
2
-2.52443e-16
2
-2.13551e-16
2
-1.49546e-16
2
-3.32597e-17
2
4.25632e-17
2
1.88059e-16
2
4.36568e-17
2
-5.37041e-17
2
7.55448e-17
2
8.68321e-17
2
1.77009e-16
2
1.95397e-16
2
1.92056e-16
2
1.48787e-16
2
4.62718e-17
2
2.54652e-16
2
2.38333e-16
2
1.05324e-16
2
4.08069e-17
2
8.92595e-17
2
1.62766e-16
2
2.75506e-16
2
1.53065e-16
2
2.45287e-16
2
1.55727e-16
2
2.47959e-16
2
3.35466e-16
2
2.24267e-16
2
2.31142e-16
2
2.03726e-16
2
2.22318e-16
2
1.84957e-16
2
5.18602e-17
2
1.93401e-18
2
2.3888e-17
2
3.87254e-17
2
3.1962e-17
2
1.02272e-16
2
1.34506e-16
2
-1.74241e-16
2
-2.00915e-16
2
-1.6795e-16
2
-1.72493e-16
2
-1.45509e-16
2
-1.86184e-16
2
-1.99532e-16
2
-2.66597e-17
2
-6.91875e-17
2
-1.31427e-16
2
-1.50105e-16
2
-1.66942e-16
2
-6.26526e-17
2
-5.25134e-17
2
-3.97916e-17
2
-7.38981e-17
2
6.32472e-17
2
2.94616e-17
2
-8.1814e-17
2
3.17118e-17
2
6.70305e-17
2
2.54215e-16
2
2.09256e-16
2
5.79772e-17
2
-5.67802e-17
2
-5.59451e-17
2
7.95809e-17
2
1.4459e-16
2
4.7486e-17
2
2.28683e-17
2
1.30672e-16
2
3.23344e-16
2
3.64555e-16
2
2.74777e-16
2
4.46666e-16
2
2.64144e-16
2
1.99309e-16
2
2.76044e-16
2
1.77543e-16
2
1.32808e-16
2
1.33967e-16
2
1.86791e-16
2
4.4088e-16
2
2.33212e-16
2
1.68025e-16
2
1.98823e-16
2
3.63714e-16
2
3.62042e-16
2
2.07239e-16
2
-2.83309e-17
-3.52821e-17
2
-1.82081e-16
2
-2.83121e-17
2
-4.4059e-17
2
-1.22938e-17
2
1.51068e-17
2
-2.61973e-16
2
-1.78703e-16
2
4.45003e-17
2
2.04054e-16
2
1.60612e-16
2
2.56323e-17
2
-1.36328e-16
2
-1.21077e-16
2
-1.21558e-16
2
-3.04457e-17
2
-4.22642e-17
2
-1.12318e-16
2
-2.20961e-16
2
-1.87285e-17
2
1.00881e-16
2
1.06501e-16
2
-3.42947e-17
2
-1.19422e-16
2
-2.65414e-16
2
-1.67275e-16
2
-2.85762e-17
2
1.89654e-16
2
2.88102e-16
2
2.51046e-16
2
6.37014e-17
2
9.45905e-17
2
2.41227e-16
2
1.74337e-16
2
1.82682e-16
2
2.71623e-16
2
1.63631e-16
2
7.40123e-17
2
1.71675e-17
2
2.5345e-16
2
3.16183e-17
2
5.03812e-17
2
2.35609e-17
2
2.74847e-17
2
-8.42972e-17
2
-4.04751e-17
2
-1.21549e-16
2
-1.10536e-16
2
1.98528e-16
2
1.90336e-16
2
1.71523e-16
2
-2.84264e-17
2
-1.97376e-16
2
-1.07035e-16
2
6.50504e-17
2
8.25581e-17
2
-9.79467e-17
2
-1.8563e-16
2
-1.35454e-16
2
-2.9791e-17
2
-2.61399e-16
2
-1.86367e-16
2
-2.69728e-16
2
-3.77976e-16
2
-3.04659e-16
2
-3.24933e-16
2
-1.82286e-16
2
-1.69396e-16
2
-1.26681e-16
2
-1.12062e-16
2
-7.11654e-17
2
4.83979e-17
2
6.54033e-17
2
6.48746e-17
2
9.73957e-17
2
8.99853e-17
2
2.30588e-16
2
-1.14775e-17
2
9.26638e-17
2
9.01323e-17
2
2.71337e-17
2
8.30228e-17
2
2.34404e-16
2
2.0511e-16
2
2.53216e-16
2
1.08562e-16
2
-7.01215e-17
2
-1.39859e-16
2
4.335e-17
2
1.42009e-16
2
1.05258e-16
2
7.05858e-17
2
1.12672e-16
2
2.45168e-17
2
2.00903e-16
2
1.10825e-16
2
2.1288e-17
2
1.80816e-16
2
9.95492e-17
2
-1.88133e-16
2
-7.39028e-17
2
-1.55786e-16
2
-2.26397e-16
2
-2.06431e-16
2
-3.66769e-16
2
-3.00626e-16
2
-4.82926e-16
2
-3.91987e-16
2
-2.7451e-16
2
-3.40703e-16
2
-5.02541e-16
2
-4.09356e-16
2
-3.44548e-16
2
-5.839e-16
2
-3.62438e-16
2
-1.05059e-17
2
-1.3628e-16
2
-4.83994e-17
2
-2.71495e-17
2
-1.11237e-16
2
4.60967e-17
2
1.79327e-16
2
2.05596e-16
2
2.2343e-16
2
-6.61789e-17
2
-3.94203e-17
2
-2.18833e-17
2
-9.21316e-17
2
-6.84698e-17
2
-1.64828e-16
2
-3.37508e-17
2
6.53873e-17
2
7.11448e-17
2
-3.11406e-17
2
1.10904e-16
2
4.09522e-16
2
1.56719e-16
2
9.82032e-17
2
1.32044e-16
2
1.72911e-16
2
9.35854e-17
2
3.84731e-16
2
2.30802e-16
2
2.97725e-16
2
5.69441e-17
2
2.79345e-16
2
-4.85465e-17
2
-8.09005e-17
2
2.39771e-17
2
-9.41939e-17
2
7.49292e-17
2
-7.0267e-17
2
-3.40143e-17
2
-1.02238e-16
2
9.83882e-17
2
6.15726e-17
2
-3.2205e-17
2
-1.56776e-16
2
-7.28057e-17
2
-2.69802e-16
2
-1.49627e-16
2
-1.95037e-16
2
-2.02257e-16
2
-1.10823e-17
2
-5.2574e-17
2
-1.04578e-16
2
5.10424e-17
2
6.35093e-17
2
1.16968e-17
2
1.19595e-17
2
5.07694e-17
2
3.02407e-17
2
3.26157e-16
2
2.90533e-16
2
1.81599e-16
2
3.68914e-16
2
2.98934e-16
2
5.38701e-16
2
4.7575e-16
2
3.53832e-16
2
3.28996e-16
2
1.83537e-16
2
2.92246e-16
2
4.10782e-16
2
3.88566e-16
2
4.66175e-16
2
3.29009e-16
2
1.72955e-16
2
3.24053e-16
2
2.54543e-16
2
2.66477e-16
2
1.38927e-16
2
1.77275e-16
2
2.50335e-16
2
3.4882e-16
2
3.2543e-16
2
3.97314e-16
2
2.38652e-16
2
4.12368e-16
2
2.72279e-16
9.4043e-17
2
-2.63387e-16
2
-1.83587e-16
2
-8.99171e-17
2
-9.20405e-17
2
-1.08011e-16
2
1.29556e-17
2
-3.28514e-18
2
-9.38595e-17
2
-1.50065e-16
2
-1.29181e-17
2
-2.63856e-16
2
-1.021e-17
2
9.50757e-17
2
-1.87059e-16
2
-1.72052e-16
2
-1.08941e-16
2
-7.38725e-17
2
2.77372e-16
2
-4.66386e-17
2
-1.83372e-16
2
4.06316e-17
2
7.10791e-17
2
6.71161e-17
2
8.27544e-17
2
-7.35223e-17
2
-1.45589e-16
2
-2.07281e-16
2
-3.24787e-17
2
1.68992e-16
2
3.00743e-16
2
3.72497e-16
2
2.0393e-16
2
1.58044e-16
2
2.04372e-16
2
4.03544e-17
2
1.30521e-16
2
3.51235e-16
2
-3.6281e-17
2
-4.58714e-17
2
2.76271e-16
2
1.84828e-16
2
2.39074e-19
2
7.17824e-17
2
1.35819e-16
2
-3.99183e-17
2
-2.42686e-16
2
1.24859e-16
2
6.40385e-17
2
8.40396e-17
2
8.50843e-17
2
2.2519e-17
2
-1.87793e-17
2
1.66555e-17
2
1.10596e-16
2
-4.58093e-17
2
-1.85833e-16
2
-3.29994e-16
2
-3.10563e-16
2
-2.70162e-16
2
-1.15855e-16
2
-1.84791e-16
2
-3.34567e-16
2
-2.01541e-16
2
-2.2606e-16
2
-1.10334e-16
2
-1.30181e-16
2
-2.97904e-17
2
-1.43105e-16
2
-1.70686e-16
2
4.55928e-17
2
8.40455e-17
2
4.91158e-17
2
1.38769e-18
2
5.07502e-17
2
8.86058e-17
2
1.40153e-16
2
2.64603e-16
2
1.85354e-16
2
2.16126e-16
2
1.75068e-16
2
1.74401e-16
2
-7.0027e-17
2
8.80366e-17
2
1.46826e-16
2
1.5874e-16
2
6.64811e-17
2
1.84222e-16
2
-5.80361e-17
2
5.94873e-17
2
3.19953e-17
2
-1.68956e-16
2
-2.35642e-16
2
1.47494e-16
2
1.14654e-16
2
1.87705e-16
2
2.66746e-16
2
5.20056e-17
2
-2.57469e-17
2
2.40469e-16
2
1.25215e-16
2
7.70906e-18
2
-3.50345e-16
2
-2.55536e-16
2
-1.78004e-16
2
-3.53644e-16
2
-2.77505e-16
2
-1.6121e-16
2
-2.17865e-16
2
-3.13517e-16
2
-2.96251e-16
2
-4.21104e-16
2
-5.09215e-16
2
-2.19345e-16
2
-2.38813e-16
2
-1.5372e-16
2
-8.82982e-18
2
-1.78438e-16
2
-1.61893e-16
2
-1.25627e-16
2
6.17815e-17
2
1.97535e-16
2
1.06594e-16
2
-7.33983e-17
2
5.28743e-17
2
4.51606e-17
2
-4.50946e-17
2
1.48111e-16
2
1.65814e-16
2
8.86368e-17
2
4.86859e-17
2
1.53286e-16
2
1.59748e-17
2
2.92037e-16
2
1.47848e-16
2
-1.81835e-17
2
2.54327e-16
2
1.56617e-16
2
7.54832e-17
2
1.51801e-16
2
3.2523e-16
2
3.14014e-16
2
2.86702e-16
2
3.32987e-16
2
1.41082e-16
2
8.03097e-17
2
2.62541e-16
2
1.07494e-16
2
-1.53827e-16
2
-8.93197e-17
2
1.31187e-16
2
1.31001e-16
2
2.61956e-17
2
-1.24308e-16
2
-2.67072e-16
2
-5.89129e-17
2
1.18556e-16
2
-1.35007e-16
2
-3.20295e-16
2
-5.11288e-17
2
-1.74986e-16
2
-1.0439e-16
2
-1.09852e-16
2
1.06548e-16
2
1.56886e-16
2
2.44835e-16
2
9.27981e-17
2
-7.10174e-17
2
2.4419e-17
2
-3.39309e-17
2
1.23363e-16
2
1.34074e-16
2
8.94789e-17
2
1.12635e-16
2
2.79468e-16
2
3.81642e-16
2
3.95821e-16
2
4.38974e-16
2
3.98187e-16
2
2.32448e-16
2
2.93543e-16
2
3.93376e-16
2
4.71814e-16
2
2.97457e-16
2
6.20132e-17
2
6.02108e-17
2
4.49987e-18
2
1.35814e-16
2
1.51796e-16
2
1.49077e-16
2
1.43347e-17
2
3.34207e-16
2
2.45389e-16
2
2.63429e-16
2
3.01511e-16
2
4.56438e-16
2
2.57886e-16
2
1.61055e-16
2
-6.52809e-17
2
7.40525e-17
-7.68766e-17
2
-4.20054e-16
2
-2.44314e-16
2
-1.05478e-16
2
-2.08904e-16
2
-3.02464e-16
2
-4.44048e-17
2
-1.89253e-17
2
-1.99403e-16
2
-1.80687e-16
2
-2.18534e-16
2
-6.01412e-17
2
-1.26804e-16
2
-9.22173e-17
2
-1.89114e-16
2
-1.09383e-16
2
-9.40764e-17
2
-2.22446e-16
2
-4.94747e-16
2
-2.77352e-16
2
-9.88855e-17
2
-1.57275e-16
2
-1.4192e-16
2
-7.24505e-17
2
-1.40855e-16
2
3.01808e-18
2
2.10878e-16
2
1.73192e-16
2
1.44226e-16
2
1.82413e-16
2
1.62227e-16
2
3.35996e-18
2
9.45457e-17
2
1.93201e-16
2
1.41865e-16
2
6.9124e-17
2
5.97822e-17
2
-8.0908e-19
2
4.99578e-16
2
2.72882e-16
2
6.68871e-17
2
-8.8458e-18
2
2.03378e-16
2
7.7295e-17
2
7.89284e-17
2
-1.93185e-17
2
-5.4767e-17
2
-2.55728e-17
2
-5.94696e-17
2
5.03706e-18
2
1.00227e-17
2
2.07239e-17
2
1.0691e-16
2
5.94318e-17
2
2.74251e-18
2
-8.26993e-17
2
-2.24468e-16
2
-3.13074e-16
2
-1.94695e-16
2
-2.43246e-16
2
-1.94908e-16
2
-1.67859e-16
2
-2.13834e-16
2
-1.96506e-16
2
-2.3449e-16
2
-2.05077e-16
2
-1.98232e-16
2
-1.36383e-16
2
-2.27081e-16
2
-1.0058e-16
2
-1.8254e-16
2
7.37769e-17
2
2.40222e-16
2
5.69917e-17
2
2.49662e-16
2
2.84277e-16
2
1.86696e-16
2
1.68005e-16
2
2.13179e-16
2
1.08242e-16
2
-2.6498e-17
2
-2.39925e-16
2
-2.34764e-16
2
-2.55812e-16
2
-2.04654e-16
2
-4.90525e-17
2
2.53564e-17
2
-3.58699e-17
2
-9.57537e-17
2
4.00174e-17
2
1.19277e-16
2
2.81622e-16
2
2.71404e-16
2
2.21532e-16
2
3.69931e-16
2
3.08386e-16
2
3.23624e-16
2
1.98277e-16
2
3.86198e-16
2
1.30037e-16
2
2.92873e-16
2
3.57699e-16
2
1.49407e-16
2
9.73842e-17
2
7.96813e-17
2
5.882e-17
2
1.14509e-16
2
-1.74026e-16
2
-2.85577e-16
2
-2.97751e-16
2
-2.96043e-16
2
-2.39657e-16
2
-2.70205e-16
2
-2.34222e-16
2
-2.21566e-16
2
-1.72432e-16
2
-3.22857e-16
2
-2.82041e-16
2
-2.04033e-16
2
3.10142e-17
2
3.7977e-17
2
-1.22872e-16
2
-7.7477e-17
2
-6.66829e-17
2
1.38799e-17
2
-1.19844e-16
2
-1.55089e-16
2
-1.15575e-16
2
-1.99703e-16
2
7.70733e-17
2
9.20339e-17
2
-3.32966e-18
2
2.14177e-18
2
-4.2516e-17
2
-6.78728e-17
2
-3.6087e-17
2
-1.6284e-16
2
-1.90731e-16
2
-8.46038e-17
2
3.62798e-17
2
2.09367e-16
2
1.91783e-16
2
1.97685e-16
2
1.29277e-16
2
1.60082e-16
2
1.52468e-16
2
7.09112e-17
2
4.36739e-17
2
-4.52789e-17
2
-9.10544e-17
2
-9.43146e-18
2
-7.44105e-17
2
2.20444e-18
2
2.93292e-17
2
-5.09235e-17
2
-6.68463e-17
2
-1.65074e-16
2
-2.01474e-16
2
-1.4259e-16
2
-8.58345e-17
2
-1.76106e-16
2
-2.43916e-16
2
-3.15747e-16
2
-3.0227e-16
2
6.26327e-17
2
7.71454e-17
2
-1.52627e-17
2
4.32988e-17
2
9.72545e-17
2
1.70766e-16
2
2.73915e-17
2
1.76093e-16
2
9.04697e-17
2
2.52625e-16
2
1.61127e-16
2
1.67099e-16
2
1.34746e-16
2
7.44603e-17
2
-9.66677e-17
2
1.97577e-17
2
1.62349e-17
2
3.91632e-17
2
2.37903e-17
2
1.49602e-16
2
2.09695e-17
2
4.44075e-17
2
1.91557e-16
2
2.25651e-17
2
1.55965e-16
2
1.90323e-16
2
2.67473e-16
2
1.72161e-16
2
3.15365e-16
2
3.77352e-16
2
2.23316e-16
2
2.21845e-16
2
1.58546e-16
2
1.65492e-16
2
-1.28036e-16
2
-2.54292e-16
-9.84153e-17
2
-2.90393e-16
2
-3.73066e-16
2
-3.05438e-16
2
-3.53775e-16
2
-2.87337e-16
2
-2.16888e-16
2
-1.92122e-16
2
-1.13315e-17
2
-9.78627e-17
2
-7.47883e-17
2
1.03832e-16
2
2.07021e-16
2
3.3489e-16
2
9.77001e-17
2
-3.88931e-16
2
-3.18014e-16
2
-1.7907e-16
2
-3.3711e-17
2
-9.68354e-17
2
-2.40216e-16
2
-3.73409e-16
2
-3.69949e-16
2
-4.46695e-16
2
-1.0644e-16
2
-1.70519e-17
2
8.27682e-18
2
1.97154e-16
2
2.7883e-16
2
1.90851e-16
2
1.37406e-16
2
2.7662e-16
2
3.60509e-16
2
3.47363e-16
2
6.05548e-17
2
-4.97467e-18
2
-7.37049e-18
2
5.95523e-17
2
1.0191e-16
2
1.72148e-16
2
1.52006e-16
2
2.94105e-17
2
-3.85424e-17
2
8.78077e-18
2
1.00938e-16
2
-4.79651e-17
2
1.42663e-16
2