/*--------------------------------*- C++ -*----------------------------------*\
  =========                 |
  \\      /  F ield         | OpenFOAM: The Open Source CFD Toolbox
   \\    /   O peration     | Website:  https://openfoam.org
    \\  /    A nd           | Version:  6
     \\/     M anipulation  |
\*---------------------------------------------------------------------------*/
FoamFile
{
    version     2.0;
    format      ascii;
    class       volVectorField;
    location    "50";
    object      U;
}
// * * * * * * * * * * * * * * * * * * * * * * * * * * * * * * * * * * * * * //

dimensions      [0 1 -1 0 0 0 0];

internalField   nonuniform List<vector> 
4000
(
(400 4.47267e-14 0)
(400 4.82647e-14 0)
(400 4.86902e-14 0)
(400 6.30455e-14 0)
(400 7.09607e-14 0)
(400 7.70876e-14 0)
(400 8.29017e-14 0)
(400 9.09412e-14 0)
(400 7.99495e-14 0)
(400 6.42265e-14 0)
(400 4.82811e-14 0)
(400 3.83595e-14 0)
(400 2.72073e-14 0)
(400 2.23742e-14 0)
(400 3.23631e-14 0)
(400 4.19774e-14 0)
(400 2.49508e-14 0)
(400 -7.96635e-15 0)
(400 -1.20738e-14 0)
(400 -1.97465e-14 0)
(400 -2.3435e-14 0)
(400 3.69424e-15 0)
(400 1.84538e-14 0)
(400 5.15758e-15 0)
(400 1.42128e-14 0)
(400 1.84197e-14 0)
(400 2.38171e-14 0)
(400 1.47413e-14 0)
(400 8.77023e-15 0)
(400 1.56393e-14 0)
(400 1.27187e-14 0)
(400 9.89199e-15 0)
(400 3.38568e-15 0)
(400 -1.78679e-14 0)
(400 -4.16758e-14 0)
(400 -6.61069e-14 0)
(400 -6.38412e-14 0)
(400 -7.5179e-14 0)
(400 -8.79151e-14 0)
(400 -9.52852e-14 0)
(400 -9.0793e-14 0)
(400 -7.48762e-14 0)
(400 -6.98333e-14 0)
(400 -5.47156e-14 0)
(400 -4.34739e-14 0)
(400 -4.84412e-14 0)
(400 -4.12669e-14 0)
(400 -3.19392e-14 0)
(400 -2.82126e-14 0)
(400 -1.38272e-14 0)
(400 1.58124e-14 0)
(400 1.85622e-14 0)
(400 1.69774e-14 0)
(400 2.43315e-14 0)
(400 3.19306e-14 0)
(400 4.72928e-14 0)
(400 4.72738e-14 0)
(400 3.94403e-14 0)
(400 3.99621e-14 0)
(400 5.21169e-14 0)
(400 6.25247e-14 0)
(400 5.3611e-14 0)
(400 4.58597e-14 0)
(400 2.99686e-14 0)
(400 2.28925e-14 0)
(400 2.59875e-14 0)
(400 1.61347e-14 0)
(400 1.53941e-14 0)
(400 5.31212e-15 0)
(400 -1.09212e-14 0)
(400 -2.92116e-14 0)
(400 -4.81434e-14 0)
(400 -4.65087e-14 0)
(400 -3.86146e-14 0)
(400 -3.56331e-14 0)
(400 -2.51216e-14 0)
(400 -2.36295e-14 0)
(400 -9.87688e-15 0)
(400 -3.45347e-15 0)
(400 -1.97276e-14 0)
(400 -1.23645e-14 0)
(400 3.1793e-15 0)
(400 1.07497e-14 0)
(400 -1.11442e-14 0)
(400 -3.37879e-14 0)
(400 -4.48502e-14 0)
(400 -4.51417e-14 0)
(400 -5.52144e-14 0)
(400 -6.5862e-14 0)
(400 -6.79921e-14 0)
(400 -5.42997e-14 0)
(400 -4.23744e-14 0)
(400 -4.36664e-14 0)
(400 -3.71836e-14 0)
(400 -2.84117e-14 0)
(400 -4.95974e-15 0)
(400 -2.53606e-16 0)
(400 5.87569e-15 0)
(400 1.58229e-14 0)
(400 3.33383e-14 0)
(400 5.11646e-14 0)
(400 3.9545e-14 0)
(400 2.71571e-14 0)
(400 2.72981e-14 0)
(400 3.30085e-14 0)
(400 2.63635e-14 0)
(400 3.06942e-14 0)
(400 2.5405e-14 0)
(400 1.49161e-14 0)
(400 6.66973e-15 0)
(400 -2.97952e-15 0)
(400 -1.15697e-14 0)
(400 -3.09464e-14 0)
(400 -3.28796e-14 0)
(400 -3.12327e-14 0)
(400 -2.51938e-14 0)
(400 -1.39018e-14 0)
(400 -4.19089e-15 0)
(400 -2.54847e-15 0)
(400 1.59888e-14 0)
(400 2.13444e-14 0)
(400 2.74823e-14 0)
(400 4.75114e-14 0)
(400 4.26218e-14 0)
(400 3.17916e-14 0)
(400 3.13877e-14 0)
(400 2.75295e-14 0)
(400 2.82336e-16 0)
(400 -2.97778e-14 0)
(400 -4.6539e-14 0)
(400 -4.83542e-14 0)
(400 -4.28421e-14 0)
(400 -3.80609e-14 0)
(400 -1.6811e-14 0)
(400 -1.22612e-15 0)
(400 -1.50552e-14 0)
(400 -1.84165e-14 0)
(400 -2.11199e-14 0)
(400 -4.13056e-14 0)
(400 -6.63321e-14 0)
(400 -8.19775e-14 0)
(400 -7.29153e-14 0)
(400 -6.58279e-14 0)
(400 -6.07957e-14 0)
(400 -6.75619e-14 0)
(400 -7.63156e-14 0)
(400 -6.19027e-14 0)
(400 -6.35481e-14 0)
(400 -6.8263e-14 0)
(400 -5.81508e-14 0)
(400 -5.43533e-14 0)
(400 -5.23182e-14 0)
(400 -3.45547e-14 0)
(400 -3.06901e-14 0)
(400 -2.33611e-14 0)
(400 -2.50944e-14 0)
(400 -2.45488e-14 0)
(400 -1.47412e-14 0)
(400 -4.2396e-15 0)
(400 -2.76762e-15 0)
(400 3.30608e-15 0)
(400 2.59692e-14 0)
(400 4.25819e-14 0)
(400 4.3943e-14 0)
(400 4.2107e-14 0)
(400 5.19543e-14 0)
(400 4.52864e-14 0)
(400 2.36411e-14 0)
(400 5.40657e-15 0)
(400 -1.32685e-15 0)
(400 -8.83993e-15 0)
(400 -1.69599e-14 0)
(400 -2.51191e-14 0)
(400 -3.3178e-14 0)
(400 -2.42998e-14 0)
(400 -1.20651e-14 0)
(400 -1.67302e-14 0)
(400 -2.48045e-14 0)
(400 -4.54354e-14 0)
(400 -5.1989e-14 0)
(400 -4.01804e-14 0)
(400 -2.87034e-14 0)
(400 -3.41729e-14 0)
(400 -3.60139e-14 0)
(400 -3.61981e-14 0)
(400 -5.64111e-14 0)
(400 -6.71135e-14 0)
(400 -6.31313e-14 0)
(400 -5.18657e-14 0)
(400 -3.90652e-14 0)
(400 -2.69558e-14 0)
(400 -1.53434e-14 0)
(400 -1.47977e-15 0)
(400 3.6262e-15 0)
(400 8.57324e-15 0)
(400 1.30328e-14 0)
(400 1.61915e-14 0)
(400 5.3278e-15 0)
(400 -8.24066e-15 0)
(400 -1.69086e-15 0)
(400 1.45567e-14 0)
(400 1.46231e-14 0)
(400 2.63891e-14 0)
(400 3.59846e-14 0)
(400 4.25793e-14 0)
(400 6.33414e-14 0)
(400 7.83682e-14 0)
(400 7.65858e-14 0)
(400 7.26592e-14 0)
(400 8.22988e-14 0)
(400 7.20718e-14 0)
(400 4.83734e-14 0)
(400 2.85835e-14 0)
(400 1.98342e-14 0)
(400 2.12853e-14 0)
(400 3.00188e-14 0)
(400 3.85501e-14 0)
(400 4.38952e-14 0)
(400 4.09125e-14 0)
(400 4.04331e-14 0)
(400 3.38386e-14 0)
(400 2.83006e-14 0)
(400 1.66023e-14 0)
(400 2.06245e-14 0)
(400 4.13292e-14 0)
(400 4.49321e-14 0)
(400 4.63878e-14 0)
(400 2.66476e-14 0)
(400 1.50671e-14 0)
(400 1.62148e-14 0)
(400 1.5138e-14 0)
(400 2.82309e-14 0)
(400 2.37407e-14 0)
(400 -7.27984e-15 0)
(400 -3.83792e-14 0)
(400 -5.98168e-14 0)
(400 -6.80007e-14 0)
(400 -7.73475e-14 0)
(400 -8.40013e-14 0)
(400 -8.12984e-14 0)
(400 -6.38212e-14 0)
(400 -4.35739e-14 0)
(400 -4.12282e-14 0)
(400 -2.95788e-14 0)
(400 -2.21069e-14 0)
(400 -1.21108e-14 0)
(400 -6.65051e-15 0)
(400 -1.16995e-14 0)
(400 -1.64986e-14 0)
(400 -1.87534e-14 0)
(400 -1.07115e-15 0)
(400 2.00162e-15 0)
(400 7.07827e-15 0)
(400 2.55257e-14 0)
(400 4.24311e-14 0)
(400 5.80999e-14 0)
(400 5.39373e-14 0)
(400 5.85807e-14 0)
(400 7.18723e-14 0)
(400 6.87932e-14 0)
(400 7.0646e-14 0)
(400 7.2242e-14 0)
(400 6.99142e-14 0)
(400 7.8161e-14 0)
(400 7.7255e-14 0)
(400 6.34186e-14 0)
(400 5.20035e-14 0)
(400 5.59243e-14 0)
(400 5.99963e-14 0)
(400 3.93246e-14 0)
(400 2.81786e-15 0)
(400 -1.29948e-14 0)
(400 -2.25693e-14 0)
(400 -2.46453e-14 0)
(400 -1.79294e-15 0)
(400 7.67289e-15 0)
(400 -3.7091e-17 0)
(400 6.43137e-15 0)
(400 2.8446e-15 0)
(400 -9.31523e-15 0)
(400 -6.08012e-15 0)
(400 8.84092e-15 0)
(400 5.79094e-15 0)
(400 8.3019e-15 0)
(400 6.53385e-15 0)
(400 -1.1144e-14 0)
(400 -4.25122e-14 0)
(400 -7.07937e-14 0)
(400 -9.902e-14 0)
(400 -1.12294e-13 0)
(400 -1.1602e-13 0)
(400 -1.19023e-13 0)
(400 -1.35911e-13 0)
(400 -1.26395e-13 0)
(400 -1.27838e-13 0)
(400 -1.23605e-13 0)
(400 -1.01788e-13 0)
(400 -9.9642e-14 0)
(400 -8.49218e-14 0)
(400 -5.4993e-14 0)
(400 -4.18647e-14 0)
(400 -2.71005e-14 0)
(400 -1.72687e-14 0)
(400 1.11196e-14 0)
(400 1.78859e-14 0)
(400 3.02527e-14 0)
(400 3.09558e-14 0)
(400 4.1241e-14 0)
(400 4.97158e-14 0)
(400 5.61845e-14 0)
(400 4.28e-14 0)
(400 5.04904e-14 0)
(400 6.63196e-14 0)
(400 7.53529e-14 0)
(400 6.19715e-14 0)
(400 4.58666e-14 0)
(400 4.70391e-14 0)
(400 4.58178e-14 0)
(400 4.4615e-14 0)
(400 3.92298e-14 0)
(400 3.75929e-14 0)
(400 4.57598e-14 0)
(400 5.39043e-14 0)
(400 4.1185e-14 0)
(400 2.59721e-14 0)
(400 1.1471e-14 0)
(400 1.12146e-14 0)
(400 1.81814e-15 0)
(400 -1.55736e-14 0)
(400 -2.89946e-14 0)
(400 -4.15052e-14 0)
(400 -3.5733e-14 0)
(400 -3.41407e-14 0)
(400 -2.33474e-14 0)
(400 -1.16603e-14 0)
(400 9.06569e-16 0)
(400 1.08445e-14 0)
(400 5.66876e-15 0)
(400 -3.73058e-15 0)
(400 -2.59964e-14 0)
(400 -2.48527e-14 0)
(400 -2.76458e-14 0)
(400 -4.96364e-14 0)
(400 -5.73436e-14 0)
(400 -5.86897e-14 0)
(400 -6.20561e-14 0)
(400 -6.28376e-14 0)
(400 -5.80988e-14 0)
(400 -4.24252e-14 0)
(400 -3.4856e-14 0)
(400 -4.39135e-14 0)
(400 -4.63244e-14 0)
(400 -3.33251e-14 0)
(400 -3.4678e-15 0)
(400 1.16358e-14 0)
(400 1.6272e-15 0)
(400 -1.29492e-14 0)
(400 -4.41093e-15 0)
(400 1.96245e-14 0)
(400 4.15872e-14 0)
(400 5.32398e-14 0)
(400 7.48999e-14 0)
(400 1.01278e-13 0)
(400 1.03141e-13 0)
(400 1.00975e-13 0)
(400 1.02902e-13 0)
(400 9.53167e-14 0)
(400 9.06801e-14 0)
(400 6.91615e-14 0)
(400 3.83927e-14 0)
(400 1.09393e-14 0)
(400 -2.98995e-15 0)
(400 -6.64933e-15 0)
(400 -3.77325e-15 0)
(400 -1.99741e-14 0)
(400 -2.27536e-14 0)
(400 -2.61851e-14 0)
(400 -3.58166e-14 0)
(400 -6.32333e-14 0)
(400 -7.95645e-14 0)
(400 -8.54427e-14 0)
(400 -9.50516e-14 0)
(400 -1.2576e-13 0)
(400 -1.37803e-13 0)
(400 -1.33753e-13 0)
(400 -1.41678e-13 0)
(400 -1.35074e-13 0)
(400 -1.2512e-13 0)
(400 -1.05368e-13 0)
(400 -9.05378e-14 0)
(400 -8.7888e-14 0)
(400 -8.65833e-14 0)
(400 -7.93434e-14 0)
(400 -6.61714e-14 0)
(400 -4.97479e-14 0)
(400 -4.18183e-14 0)
(400 -3.3691e-14 0)
(400 -2.00134e-14 0)
(400 -1.39184e-14 0)
(400 -3.56624e-15 0)
(400 -3.68189e-15 0)
(400 -2.0912e-16 0)
(400 1.02687e-14 0)
(400 1.35574e-14 0)
(400 1.99142e-14 0)
(400 4.05338e-14 0)
(400 4.7881e-14 0)
(400 4.02989e-14 0)
(400 4.34645e-14 0)
(400 5.03596e-14 0)
(400 4.52076e-14 0)
(400 3.03552e-14 0)
(400 3.87673e-15 0)
(400 1.91603e-15 0)
(400 4.79571e-15 0)
(400 1.77832e-14 0)
(400 1.9569e-14 0)
(400 3.80517e-14 0)
(400 3.49341e-14 0)
(400 1.83871e-14 0)
(400 7.16826e-15 0)
(400 -9.01148e-15 0)
(400 -5.74623e-15 0)
(400 3.0272e-14 0)
(400 4.22206e-14 0)
(400 4.61819e-14 0)
(400 3.24886e-14 0)
(400 2.21854e-14 0)
(400 2.16967e-14 0)
(400 1.38991e-14 0)
(400 4.85778e-15 0)
(400 -7.89063e-15 0)
(400 -1.73237e-14 0)
(400 -1.96939e-14 0)
(400 -3.1457e-14 0)
(400 -4.59718e-14 0)
(400 -6.94027e-14 0)
(400 -7.67707e-14 0)
(400 -7.27723e-14 0)
(400 -6.74336e-14 0)
(400 -6.024e-14 0)
(400 -5.15138e-14 0)
(400 -4.2665e-14 0)
(400 -2.72146e-14 0)
(400 -3.22378e-14 0)
(400 -1.86702e-14 0)
(400 -1.60607e-14 0)
(400 -2.84748e-14 0)
(400 -2.76496e-14 0)
(400 -3.89073e-14 0)
(400 -3.81691e-14 0)
(400 -8.56625e-15 0)
(400 9.21405e-15 0)
(400 1.22056e-14 0)
(400 1.67689e-14 0)
(400 2.54272e-14 0)
(400 3.14236e-14 0)
(400 4.47567e-14 0)
(400 4.66633e-14 0)
(400 5.0098e-14 0)
(400 3.93851e-14 0)
(400 3.78799e-14 0)
(400 6.95979e-14 0)
(400 9.4908e-14 0)
(400 8.02901e-14 0)
(400 4.89528e-14 0)
(400 2.14672e-14 0)
(400 1.2484e-14 0)
(400 1.13387e-14 0)
(400 -5.03016e-15 0)
(400 -2.76008e-14 0)
(400 -3.37748e-14 0)
(400 -4.25146e-14 0)
(400 -4.20871e-14 0)
(400 -2.7222e-14 0)
(400 -3.28144e-14 0)
(400 -3.89798e-14 0)
(400 -4.28988e-14 0)
(400 -5.47873e-14 0)
(400 -4.22018e-14 0)
(400 -2.7465e-14 0)
(400 -3.04995e-14 0)
(400 -3.2961e-14 0)
(400 -1.35223e-14 0)
(400 1.07686e-14 0)
(400 2.27219e-14 0)
(400 1.58859e-14 0)
(400 8.92363e-15 0)
(400 -3.812e-15 0)
(400 -5.50333e-15 0)
(400 -2.81817e-14 0)
(400 -3.51422e-14 0)
(400 -4.1025e-14 0)
(400 -3.92812e-14 0)
(400 -3.89922e-14 0)
(400 -4.13207e-14 0)
(400 -2.91778e-14 0)
(400 -2.21533e-14 0)
(400 -1.06246e-14 0)
(400 7.52115e-15 0)
(400 1.72377e-14 0)
(400 3.2243e-14 0)
(400 4.16467e-14 0)
(400 5.33457e-14 0)
(400 5.27892e-14 0)
(400 5.88032e-14 0)
(400 6.07018e-14 0)
(400 4.68381e-14 0)
(400 5.24288e-14 0)
(400 5.53565e-14 0)
(400 3.10544e-14 0)
(400 1.7081e-14 0)
(400 3.58662e-14 0)
(400 3.40168e-14 0)
(400 2.0695e-14 0)
(400 6.78232e-15 0)
(400 -4.35468e-15 0)
(400 -1.19417e-14 0)
(400 4.79492e-15 0)
(400 -5.17355e-15 0)
(400 2.06754e-15 0)
(400 5.21812e-15 0)
(400 2.27332e-14 0)
(400 3.77578e-14 0)
(400 3.47641e-14 0)
(400 1.97841e-14 0)
(400 1.21044e-14 0)
(400 5.81161e-15 0)
(400 7.77508e-15 0)
(400 -1.64075e-14 0)
(400 -4.60306e-14 0)
(400 -5.41919e-14 0)
(400 -4.85145e-14 0)
(400 -4.31782e-14 0)
(400 -4.35996e-14 0)
(400 -2.63154e-14 0)
(400 -3.47897e-15 0)
(400 -7.47131e-15 0)
(400 -4.0084e-15 0)
(400 -9.19643e-15 0)
(400 -1.66871e-14 0)
(400 -3.16307e-14 0)
(400 -5.60266e-14 0)
(400 -6.70372e-14 0)
(400 -6.48132e-14 0)
(400 -6.87651e-14 0)
(400 -7.74194e-14 0)
(400 -6.1168e-14 0)
(400 -5.18374e-14 0)
(400 -4.58383e-14 0)
(400 -4.19912e-14 0)
(400 -4.41958e-14 0)
(400 -4.7945e-14 0)
(400 -4.42562e-14 0)
(400 -4.34707e-14 0)
(400 -5.35603e-14 0)
(400 -6.25454e-14 0)
(400 -4.98537e-14 0)
(400 -2.7241e-14 0)
(400 2.37119e-15 0)
(400 1.61541e-14 0)
(400 2.82654e-14 0)
(400 4.41063e-14 0)
(400 5.89555e-14 0)
(400 7.00638e-14 0)
(400 7.02883e-14 0)
(400 8.63696e-14 0)
(400 8.98119e-14 0)
(400 8.77959e-14 0)
(400 8.17938e-14 0)
(400 7.64818e-14 0)
(400 6.35895e-14 0)
(400 5.84033e-14 0)
(400 7.95811e-14 0)
(400 7.95229e-14 0)
(400 7.91048e-14 0)
(400 7.5535e-14 0)
(400 6.51007e-14 0)
(400 5.20908e-14 0)
(400 2.69387e-14 0)
(400 3.27299e-15 0)
(400 -9.60706e-15 0)
(400 -1.02692e-14 0)
(400 -1.04038e-14 0)
(400 -1.12426e-14 0)
(400 -1.01675e-14 0)
(400 -2.26299e-14 0)
(400 -3.05208e-14 0)
(400 -3.3608e-14 0)
(400 -3.82841e-14 0)
(400 -3.9245e-14 0)
(400 -4.31983e-14 0)
(400 -5.30268e-14 0)
(400 -4.1822e-14 0)
(400 -3.6385e-14 0)
(400 -3.77817e-14 0)
(400 -3.88518e-14 0)
(400 -1.50455e-14 0)
(400 -5.22078e-15 0)
(400 -1.12835e-14 0)
(400 8.55109e-15 0)
(400 9.44505e-15 0)
(400 1.68968e-14 0)
(400 3.36089e-14 0)
(400 4.06759e-14 0)
(400 3.6449e-14 0)
(400 3.3418e-14 0)
(400 2.54461e-14 0)
(400 2.0091e-14 0)
(400 1.85701e-14 0)
(400 1.42087e-14 0)
(400 5.87653e-15 0)
(400 -3.83514e-15 0)
(400 6.28923e-15 0)
(400 1.47407e-14 0)
(400 2.24363e-14 0)
(400 1.79438e-14 0)
(400 3.2288e-14 0)
(400 3.91079e-14 0)
(400 3.25094e-14 0)
(400 1.21205e-14 0)
(400 6.12467e-15 0)
(400 9.14492e-15 0)
(400 1.9844e-14 0)
(400 1.1376e-14 0)
(400 6.45284e-15 0)
(400 6.10387e-15 0)
(400 1.17334e-14 0)
(400 1.73071e-14 0)
(400 2.10848e-14 0)
(400 3.01464e-14 0)
(400 2.01634e-14 0)
(400 4.60636e-15 0)
(400 2.51142e-16 0)
(400 -4.7161e-15 0)
(400 -2.5033e-14 0)
(400 -5.50604e-14 0)
(400 -7.1091e-14 0)
(400 -5.80103e-14 0)
(400 -6.42159e-14 0)
(400 -6.16862e-14 0)
(400 -6.44991e-14 0)
(400 -5.1366e-14 0)
(400 -3.90448e-14 0)
(400 -2.39518e-14 0)
(400 -1.41846e-14 0)
(400 2.69316e-15 0)
(400 5.86308e-15 0)
(400 1.19327e-15 0)
(400 -1.82695e-15 0)
(400 -6.54485e-16 0)
(400 2.00666e-14 0)
(400 1.74298e-14 0)
(400 1.14622e-14 0)
(400 2.87207e-15 0)
(400 1.53914e-15 0)
(400 2.10061e-14 0)
(400 3.06388e-14 0)
(400 2.22433e-14 0)
(400 3.10004e-14 0)
(400 3.4658e-14 0)
(400 3.05337e-14 0)
(400 5.66883e-14 0)
(400 8.37554e-14 0)
(400 7.57589e-14 0)
(400 6.29449e-14 0)
(400 4.2505e-14 0)
(400 2.23551e-14 0)
(400 2.16786e-14 0)
(400 1.07703e-14 0)
(400 4.962e-17 0)
(400 -5.39573e-15 0)
(400 -2.17268e-14 0)
(400 -2.82164e-14 0)
(400 -3.0717e-14 0)
(400 -3.07377e-14 0)
(400 -2.38954e-14 0)
(400 -2.79771e-14 0)
(400 -2.64125e-14 0)
(400 -1.73556e-14 0)
(400 -1.50707e-14 0)
(400 -1.26879e-14 0)
(400 -8.798e-15 0)
(400 -3.48575e-15 0)
(400 -5.5455e-15 0)
(400 -4.295e-15 0)
(400 1.07905e-14 0)
(400 2.17758e-15 0)
(400 -2.66174e-14 0)
(400 -5.39389e-14 0)
(400 -6.41353e-14 0)
(400 -7.04606e-14 0)
(400 -7.20219e-14 0)
(400 -7.62994e-14 0)
(400 -6.69516e-14 0)
(400 -5.43678e-14 0)
(400 -5.42953e-14 0)
(400 -3.63303e-14 0)
(400 -9.96369e-15 0)
(400 4.64892e-15 0)
(400 3.57717e-15 0)
(400 2.08357e-15 0)
(400 -1.45747e-15 0)
(400 -3.05489e-15 0)
(400 3.12127e-15 0)
(400 6.87673e-15 0)
(400 1.67398e-14 0)
(400 1.83064e-14 0)
(400 2.50537e-14 0)
(400 3.35556e-14 0)
(400 3.54226e-14 0)
(400 3.84497e-14 0)
(400 6.12577e-14 0)
(400 5.73856e-14 0)
(400 5.23232e-14 0)
(400 4.31745e-14 0)
(400 3.2369e-14 0)
(400 2.96546e-14 0)
(400 4.28339e-14 0)
(400 2.74756e-14 0)
(400 1.16752e-14 0)
(400 8.66601e-15 0)
(400 2.0752e-14 0)
(400 3.65716e-14 0)
(400 4.03216e-14 0)
(400 3.68039e-14 0)
(400 1.55676e-14 0)
(400 1.09159e-14 0)
(400 1.3238e-14 0)
(400 1.48838e-15 0)
(400 1.31141e-15 0)
(400 -6.7587e-15 0)
(400 -1.50035e-14 0)
(400 -2.18042e-14 0)
(400 -1.8801e-14 0)
(400 -2.37486e-14 0)
(400 -1.65378e-14 0)
(400 -1.25073e-14 0)
(400 -9.00857e-15 0)
(400 -1.6487e-14 0)
(400 -3.17415e-14 0)
(400 -3.874e-14 0)
(400 -4.88311e-14 0)
(400 -5.95147e-14 0)
(400 -5.88588e-14 0)
(400 -6.28537e-14 0)
(400 -6.97198e-14 0)
(400 -6.86551e-14 0)
(400 -5.89092e-14 0)
(400 -4.44359e-14 0)
(400 -2.83289e-14 0)
(400 -2.24459e-14 0)
(400 -9.65818e-15 0)
(400 -2.54561e-15 0)
(400 -8.32942e-15 0)
(400 -1.94779e-15 0)
(400 1.26394e-14 0)
(400 1.50062e-14 0)
(400 2.75268e-14 0)
(400 2.75381e-14 0)
(400 3.80148e-14 0)
(400 3.69204e-14 0)
(400 2.07349e-14 0)
(400 3.00921e-14 0)
(400 4.47177e-14 0)
(400 5.46308e-14 0)
(400 6.83264e-14 0)
(400 6.08232e-14 0)
(400 6.07895e-14 0)
(400 5.5437e-14 0)
(400 5.59184e-14 0)
(400 4.82483e-14 0)
(400 3.80921e-14 0)
(400 3.46714e-14 0)
(400 3.62558e-14 0)
(400 4.70879e-14 0)
(400 4.38986e-14 0)
(400 3.13952e-14 0)
(400 2.96776e-14 0)
(400 4.15742e-15 0)
(400 -1.83943e-14 0)
(400 -2.27968e-14 0)
(400 -1.35109e-14 0)
(400 -2.1761e-14 0)
(400 -3.83551e-14 0)
(400 -3.53492e-14 0)
(400 -4.45383e-14 0)
(400 -5.2594e-14 0)
(400 -6.5884e-14 0)
(400 -7.24214e-14 0)
(400 -5.79442e-14 0)
(400 -5.14403e-14 0)
(400 -5.52696e-14 0)
(400 -6.161e-14 0)
(400 -5.42035e-14 0)
(400 -4.83252e-14 0)
(400 -4.01548e-14 0)
(400 -2.30697e-14 0)
(400 -2.4167e-14 0)
(400 -2.51089e-14 0)
(400 1.8645e-14 0)
(400 2.6213e-14 0)
(400 2.40237e-14 0)
(400 2.77871e-14 0)
(400 3.7897e-14 0)
(400 3.75682e-14 0)
(400 2.86085e-14 0)
(400 3.02843e-14 0)
(400 2.20343e-14 0)
(400 1.68505e-14 0)
(400 4.04719e-15 0)
(400 -6.62081e-15 0)
(400 1.48321e-14 0)
(400 2.87298e-14 0)
(400 3.09294e-14 0)
(400 7.45858e-15 0)
(400 -2.37301e-15 0)
(400 -8.1877e-15 0)
(400 -6.05367e-15 0)
(400 2.38822e-14 0)
(400 2.33579e-14 0)
(400 2.42248e-14 0)
(400 1.42952e-14 0)
(400 -3.74925e-15 0)
(400 -2.09365e-14 0)
(400 -4.27698e-14 0)
(400 -5.51158e-14 0)
(400 -4.67738e-14 0)
(400 -3.50928e-14 0)
(400 -3.25825e-14 0)
(400 -2.25597e-14 0)
(400 -1.43979e-14 0)
(400 -1.43347e-14 0)
(400 -3.12975e-14 0)
(400 -4.09166e-14 0)
(400 -4.61272e-14 0)
(400 -5.35962e-14 0)
(400 -5.5217e-14 0)
(400 -3.4355e-14 0)
(400 -7.40245e-15 0)
(400 2.95644e-15 0)
(400 2.1552e-15 0)
(400 7.06037e-15 0)
(400 1.28685e-14 0)
(400 2.59887e-14 0)
(400 2.37659e-14 0)
(400 2.18778e-14 0)
(400 2.7094e-14 0)
(400 2.07028e-14 0)
(400 1.86447e-14 0)
(400 2.38896e-14 0)
(400 2.00996e-14 0)
(400 2.39587e-15 0)
(400 -6.74402e-15 0)
(400 5.11409e-15 0)
(400 1.5071e-14 0)
(400 3.0366e-14 0)
(400 2.10709e-14 0)
(400 1.09389e-14 0)
(400 9.28996e-15 0)
(400 3.1212e-14 0)
(400 4.63021e-14 0)
(400 4.13657e-14 0)
(400 3.70225e-14 0)
(400 3.17458e-14 0)
(400 2.59761e-14 0)
(400 1.85838e-14 0)
(400 7.03561e-15 0)
(400 -6.11888e-15 0)
(400 -6.82519e-15 0)
(400 -4.17627e-15 0)
(400 -1.09934e-14 0)
(400 -2.35856e-14 0)
(400 -4.20487e-14 0)
(400 -5.57324e-14 0)
(400 -4.43286e-14 0)
(400 -3.30162e-14 0)
(400 -3.17468e-14 0)
(400 -1.60791e-14 0)
(400 -1.09484e-14 0)
(400 -1.51771e-14 0)
(400 -1.13995e-15 0)
(400 1.33687e-14 0)
(400 2.10294e-14 0)
(400 8.02749e-15 0)
(400 5.88681e-15 0)
(400 1.69275e-14 0)
(400 2.12494e-14 0)
(400 9.25329e-15 0)
(400 -2.24373e-14 0)
(400 -3.37299e-14 0)
(400 -4.31879e-14 0)
(400 -3.96716e-14 0)
(400 -4.70648e-14 0)
(400 -4.17978e-14 0)
(400 -4.06746e-14 0)
(400 -4.42291e-14 0)
(400 -3.43443e-14 0)
(400 -3.09534e-14 0)
(400 -4.05891e-14 0)
(400 -5.22097e-14 0)
(400 -5.77552e-14 0)
(400 -6.84957e-14 0)
(400 -8.6664e-14 0)
(400 -7.5219e-14 0)
(400 -7.28369e-14 0)
(400 -7.77741e-14 0)
(400 -5.86975e-14 0)
(400 -5.09991e-14 0)
(400 -5.16399e-14 0)
(400 -3.45976e-14 0)
(400 -9.92609e-15 0)
(400 3.81221e-15 0)
(400 2.42954e-14 0)
(400 2.83969e-14 0)
(400 2.72395e-14 0)
(400 4.13988e-14 0)
(400 5.68703e-14 0)
(400 4.78177e-14 0)
(400 4.03585e-14 0)
(400 2.80888e-14 0)
(400 4.33103e-14 0)
(400 5.64557e-14 0)
(400 7.45377e-14 0)
(400 9.68005e-14 0)
(400 1.05173e-13 0)
(400 1.07665e-13 0)
(400 1.1222e-13 0)
(400 1.10438e-13 0)
(400 9.80965e-14 0)
(400 9.39585e-14 0)
(400 8.97454e-14 0)
(400 6.99703e-14 0)
(400 5.10079e-14 0)
(400 4.47012e-14 0)
(400 4.13526e-14 0)
(400 3.5966e-14 0)
(400 3.09868e-14 0)
(400 1.40989e-16 0)
(400 -1.63097e-14 0)
(400 -2.49125e-14 0)
(400 -2.85655e-14 0)
(400 -2.91227e-14 0)
(400 -3.65064e-14 0)
(400 -4.05847e-14 0)
(400 -3.65749e-14 0)
(400 -3.79507e-14 0)
(400 -4.27334e-14 0)
(400 -3.95662e-14 0)
(400 -3.05327e-14 0)
(400 -3.04822e-14 0)
(400 -2.8636e-14 0)
(400 -1.22466e-14 0)
(400 5.10474e-15 0)
(400 -1.27864e-15 0)
(400 5.23613e-15 0)
(400 1.70235e-14 0)
(400 1.54709e-14 0)
(400 4.44313e-15 0)
(400 6.94929e-15 0)
(400 2.8121e-14 0)
(400 2.57048e-14 0)
(400 4.3266e-15 0)
(400 5.66301e-15 0)
(400 1.83186e-14 0)
(400 2.44539e-14 0)
(400 3.10899e-14 0)
(400 4.32454e-14 0)
(400 5.49999e-14 0)
(400 5.57078e-14 0)
(400 4.31479e-14 0)
(400 4.78775e-14 0)
(400 4.7322e-14 0)
(400 3.64279e-14 0)
(400 4.01372e-14 0)
(400 3.25617e-14 0)
(400 2.38789e-14 0)
(400 3.22154e-14 0)
(400 3.30199e-14 0)
(400 3.0475e-14 0)
(400 1.74383e-14 0)
(400 6.99068e-15 0)
(400 1.17159e-14 0)
(400 6.35618e-15 0)
(400 -6.54041e-16 0)
(400 6.76933e-17 0)
(400 1.25645e-14 0)
(400 5.96331e-15 0)
(400 -6.78064e-15 0)
(400 -9.43552e-15 0)
(400 -1.8052e-14 0)
(400 -2.57359e-14 0)
(400 -2.93482e-14 0)
(400 -3.90708e-14 0)
(400 -6.20867e-14 0)
(400 -6.77437e-14 0)
(400 -5.99351e-14 0)
(400 -5.35653e-14 0)
(400 -4.91792e-14 0)
(400 -4.69183e-14 0)
(400 1.71652e-14 0)
(400 2.81992e-14 0)
(400 1.83978e-14 0)
(400 4.835e-15 0)
(400 3.15121e-15 0)
(400 -1.02455e-14 0)
(400 -1.99469e-14 0)
(400 -2.71934e-14 0)
(400 -1.49138e-14 0)
(400 -1.3787e-14 0)
(400 -8.4651e-15 0)
(400 1.18078e-15 0)
(400 3.20225e-14 0)
(400 4.4517e-14 0)
(400 4.29572e-14 0)
(400 2.15574e-14 0)
(400 -5.26781e-17 0)
(400 -8.36951e-15 0)
(400 -2.42507e-15 0)
(400 1.03354e-14 0)
(400 2.53513e-14 0)
(400 3.99244e-14 0)
(400 4.37121e-14 0)
(400 2.44161e-14 0)
(400 -6.75611e-15 0)
(400 -2.46144e-14 0)
(400 -4.66529e-14 0)
(400 -3.51944e-14 0)
(400 -1.9549e-14 0)
(400 -2.33525e-14 0)
(400 -1.60542e-14 0)
(400 -6.64536e-15 0)
(400 -1.25337e-15 0)
(400 -1.45549e-14 0)
(400 -1.98835e-14 0)
(400 -1.69106e-14 0)
(400 -1.11111e-14 0)
(400 -4.93189e-15 0)
(400 7.62778e-16 0)
(400 2.20021e-14 0)
(400 3.77285e-14 0)
(400 3.9615e-14 0)
(400 2.87582e-14 0)
(400 1.86042e-14 0)
(400 1.30661e-14 0)
(400 8.53988e-15 0)
(400 -2.61492e-15 0)
(400 -2.21547e-15 0)
(400 2.60828e-16 0)
(400 1.02485e-15 0)
(400 1.19604e-14 0)
(400 -1.27305e-14 0)
(400 -1.53684e-14 0)
(400 -1.99161e-14 0)
(400 -1.54533e-14 0)
(400 -9.39356e-15 0)
(400 -6.05223e-15 0)
(400 -2.00647e-14 0)
(400 -3.05386e-14 0)
(400 -1.97388e-14 0)
(400 1.22571e-14 0)
(400 4.56688e-14 0)
(400 4.59539e-14 0)
(400 3.38817e-14 0)
(400 3.54887e-14 0)
(400 2.1515e-14 0)
(400 2.42652e-14 0)
(400 2.53789e-14 0)
(400 1.19531e-14 0)
(400 1.137e-14 0)
(400 1.66166e-14 0)
(400 2.02071e-14 0)
(400 1.15924e-14 0)
(400 -1.21089e-14 0)
(400 -2.22472e-14 0)
(400 -2.67496e-14 0)
(400 -3.51227e-14 0)
(400 -3.7241e-14 0)
(400 -2.31692e-14 0)
(400 -1.16058e-14 0)
(400 -7.8616e-15 0)
(400 -9.24262e-16 0)
(400 7.03564e-15 0)
(400 -8.27193e-15 0)
(400 -2.4034e-15 0)
(400 7.90056e-15 0)
(400 5.75528e-15 0)
(400 1.11084e-14 0)
(400 1.17859e-14 0)
(400 2.09556e-14 0)
(400 2.85006e-14 0)
(400 3.6969e-14 0)
(400 4.59798e-14 0)
(400 2.90133e-14 0)
(400 2.33937e-14 0)
(400 7.90665e-15 0)
(400 1.1669e-14 0)
(400 1.13354e-14 0)
(400 -1.75254e-14 0)
(400 -3.17075e-14 0)
(400 -3.42111e-14 0)
(400 -2.6423e-14 0)
(400 -2.74459e-14 0)
(400 -4.16341e-14 0)
(400 -4.35657e-14 0)
(400 -4.41465e-14 0)
(400 -3.97152e-14 0)
(400 -3.16514e-14 0)
(400 -2.69262e-14 0)
(400 -2.61253e-14 0)
(400 -2.81423e-15 0)
(400 1.17482e-14 0)
(400 1.72152e-14 0)
(400 4.47392e-14 0)
(400 4.4677e-14 0)
(400 5.10237e-14 0)
(400 6.32418e-14 0)
(400 7.22329e-14 0)
(400 5.03119e-14 0)
(400 4.6622e-14 0)
(400 4.74851e-14 0)
(400 5.37741e-14 0)
(400 5.27812e-14 0)
(400 5.22237e-14 0)
(400 6.27613e-14 0)
(400 6.39821e-14 0)
(400 7.66691e-14 0)
(400 8.42159e-14 0)
(400 7.67526e-14 0)
(400 7.20259e-14 0)
(400 6.84045e-14 0)
(400 6.30888e-14 0)
(400 4.76447e-14 0)
(400 3.56405e-14 0)
(400 1.95569e-14 0)
(400 1.36424e-14 0)
(400 1.00317e-14 0)
(400 -2.0657e-15 0)
(400 -3.71371e-14 0)
(400 -5.37733e-14 0)
(400 -5.61537e-14 0)
(400 -4.05611e-14 0)
(400 -2.2844e-14 0)
(400 -1.69581e-14 0)
(400 -2.88573e-14 0)
(400 -1.16518e-14 0)
(400 -1.03196e-15 0)
(400 -1.20422e-14 0)
(400 -3.9023e-14 0)
(400 -5.03051e-14 0)
(400 -5.14039e-14 0)
(400 -4.1208e-14 0)
(400 -2.73294e-14 0)
(400 -2.48032e-14 0)
(400 -2.30879e-14 0)
(400 -1.70356e-14 0)
(400 -1.20586e-14 0)
(400 -7.82251e-15 0)
(400 -1.15387e-14 0)
(400 -3.49391e-15 0)
(400 1.11132e-15 0)
(400 3.47758e-15 0)
(400 6.38061e-15 0)
(400 2.3958e-15 0)
(400 9.23396e-15 0)
(400 1.67358e-14 0)
(400 2.08569e-14 0)
(400 4.36953e-14 0)
(400 6.82019e-14 0)
(400 9.39652e-14 0)
(400 8.96372e-14 0)
(400 8.07475e-14 0)
(400 6.57099e-14 0)
(400 5.39734e-14 0)
(400 5.72844e-14 0)
(400 3.74601e-14 0)
(400 2.66125e-14 0)
(400 3.55153e-14 0)
(400 3.7942e-14 0)
(400 4.41461e-14 0)
(400 4.82208e-14 0)
(400 3.45805e-14 0)
(400 3.52242e-14 0)
(400 3.88755e-14 0)
(400 3.63573e-14 0)
(400 2.59613e-14 0)
(400 2.57144e-14 0)
(400 2.17554e-14 0)
(400 2.76232e-14 0)
(400 3.37017e-14 0)
(400 1.2786e-14 0)
(400 6.60124e-15 0)
(400 1.70228e-14 0)
(400 8.19004e-15 0)
(400 -2.23819e-14 0)
(400 -3.55891e-14 0)
(400 -3.50417e-14 0)
(400 -4.76546e-14 0)
(400 -5.1531e-14 0)
(400 -6.76391e-14 0)
(400 -7.90838e-15 0)
(400 -1.01755e-14 0)
(400 -1.81155e-15 0)
(400 -9.9958e-17 0)
(400 -9.61448e-15 0)
(400 -3.35471e-14 0)
(400 -2.46539e-14 0)
(400 -2.25121e-14 0)
(400 -1.68155e-14 0)
(400 -1.53495e-14 0)
(400 -4.40852e-16 0)
(400 -2.95859e-15 0)
(400 -4.8595e-15 0)
(400 1.59209e-14 0)
(400 1.7601e-14 0)
(400 1.45793e-14 0)
(400 1.34566e-14 0)
(400 1.75933e-16 0)
(400 1.66774e-15 0)
(400 -5.17919e-15 0)
(400 -3.53866e-15 0)
(400 -2.03176e-15 0)
(400 -6.74349e-15 0)
(400 -3.37725e-14 0)
(400 -5.06533e-14 0)
(400 -4.57657e-14 0)
(400 -3.77407e-14 0)
(400 -3.87557e-14 0)
(400 -4.60977e-14 0)
(400 -4.5315e-14 0)
(400 -2.54475e-14 0)
(400 -5.49482e-15 0)
(400 1.03372e-14 0)
(400 2.04328e-16 0)
(400 8.98186e-15 0)
(400 2.53726e-14 0)
(400 4.60978e-14 0)
(400 5.79503e-14 0)
(400 5.32067e-14 0)
(400 4.98122e-14 0)
(400 6.77781e-14 0)
(400 6.83385e-14 0)
(400 5.37136e-14 0)
(400 3.12355e-14 0)
(400 2.41761e-14 0)
(400 4.3565e-14 0)
(400 5.36451e-14 0)
(400 5.09681e-14 0)
(400 4.82292e-14 0)
(400 4.00983e-14 0)
(400 2.74234e-14 0)
(400 6.9283e-15 0)
(400 1.15134e-15 0)
(400 -2.61877e-15 0)
(400 -1.92129e-15 0)
(400 -5.31253e-15 0)
(400 -9.19097e-15 0)
(400 -1.02669e-14 0)
(400 1.08081e-15 0)
(400 1.25813e-14 0)
(400 2.64872e-14 0)
(400 4.3965e-14 0)
(400 3.41241e-14 0)
(400 2.38675e-14 0)
(400 3.73113e-14 0)
(400 3.96088e-14 0)
(400 4.282e-14 0)
(400 3.1158e-14 0)
(400 1.80621e-14 0)
(400 1.99687e-14 0)
(400 1.39272e-14 0)
(400 1.74187e-14 0)
(400 1.58555e-14 0)
(400 1.53558e-14 0)
(400 2.33381e-14 0)
(400 1.68979e-14 0)
(400 1.80983e-14 0)
(400 1.96e-14 0)
(400 2.21182e-14 0)
(400 3.43411e-14 0)
(400 3.94055e-14 0)
(400 3.53657e-14 0)
(400 4.18374e-14 0)
(400 3.56002e-14 0)
(400 4.26613e-14 0)
(400 3.71455e-14 0)
(400 2.47576e-14 0)
(400 1.67899e-14 0)
(400 2.21946e-14 0)
(400 3.0924e-14 0)
(400 4.16052e-14 0)
(400 3.71537e-14 0)
(400 3.16591e-14 0)
(400 3.97298e-14 0)
(400 3.25693e-14 0)
(400 1.56652e-14 0)
(400 1.68027e-14 0)
(400 -7.39351e-15 0)
(400 -2.15636e-14 0)
(400 -3.82351e-14 0)
(400 -5.89312e-14 0)
(400 -7.0833e-14 0)
(400 -8.97125e-14 0)
(400 -9.43445e-14 0)
(400 -1.10743e-13 0)
(400 -1.12773e-13 0)
(400 -1.03582e-13 0)
(400 -1.05699e-13 0)
(400 -9.10128e-14 0)
(400 -6.29083e-14 0)
(400 -2.44615e-14 0)
(400 2.41422e-15 0)
(400 1.7453e-14 0)
(400 3.22864e-14 0)
(400 3.04691e-14 0)
(400 5.30969e-14 0)
(400 7.13262e-14 0)
(400 8.15256e-14 0)
(400 8.3332e-14 0)
(400 8.60423e-14 0)
(400 9.34065e-14 0)
(400 1.07634e-13 0)
(400 1.06232e-13 0)
(400 1.02575e-13 0)
(400 1.0447e-13 0)
(400 1.13392e-13 0)
(400 1.22394e-13 0)
(400 1.27961e-13 0)
(400 1.22824e-13 0)
(400 1.26214e-13 0)
(400 1.26209e-13 0)
(400 1.18972e-13 0)
(400 1.05448e-13 0)
(400 9.2565e-14 0)
(400 6.3257e-14 0)
(400 5.07081e-14 0)
(400 4.42239e-14 0)
(400 3.34629e-14 0)
(400 3.72569e-14 0)
(400 3.44279e-14 0)
(400 2.92758e-14 0)
(400 4.0853e-14 0)
(400 4.32938e-14 0)
(400 4.17348e-14 0)
(400 2.00685e-14 0)
(400 1.67655e-14 0)
(400 2.09101e-14 0)
(400 -7.37301e-16 0)
(400 -2.94567e-14 0)
(400 -6.63074e-14 0)
(400 -7.00579e-14 0)
(400 -4.91311e-14 0)
(400 -4.27881e-14 0)
(400 -4.86765e-14 0)
(400 -4.14863e-14 0)
(400 -3.02092e-14 0)
(400 -1.75452e-14 0)
(400 -2.31435e-14 0)
(400 -1.91917e-14 0)
(400 -2.20247e-14 0)
(400 -2.90117e-14 0)
(400 -1.79347e-14 0)
(400 -3.18286e-15 0)
(400 -2.16216e-14 0)
(400 -4.78155e-14 0)
(400 -3.96601e-14 0)
(400 -2.74676e-14 0)
(400 -1.35048e-14 0)
(400 8.63463e-15 0)
(400 2.1908e-14 0)
(400 3.07535e-14 0)
(400 1.52834e-14 0)
(400 -6.34656e-15 0)
(400 -2.78234e-14 0)
(400 -3.6902e-14 0)
(400 -2.88393e-14 0)
(400 -1.82749e-14 0)
(400 -1.96115e-14 0)
(400 -6.42787e-15 0)
(400 1.62845e-15 0)
(400 3.33378e-14 0)
(400 5.46518e-14 0)
(400 6.22923e-14 0)
(400 7.56831e-14 0)
(400 6.46782e-14 0)
(400 5.54285e-14 0)
(400 5.15082e-14 0)
(400 3.66193e-14 0)
(400 3.95712e-14 0)
(400 4.08408e-14 0)
(400 4.38408e-14 0)
(400 5.36489e-14 0)
(400 5.77475e-14 0)
(400 4.54077e-14 0)
(400 3.59965e-14 0)
(400 2.23489e-14 0)
(400 2.66248e-15 0)
(400 -3.02378e-14 0)
(400 -4.67203e-14 0)
(400 -5.70122e-14 0)
(400 -1.83169e-14 0)
(400 -1.41747e-14 0)
(400 4.04344e-15 0)
(400 1.78302e-14 0)
(400 2.25155e-14 0)
(400 1.92073e-14 0)
(400 2.703e-14 0)
(400 4.07166e-14 0)
(400 3.94309e-14 0)
(400 3.1192e-14 0)
(400 1.37963e-14 0)
(400 -2.09462e-14 0)
(400 -4.84587e-14 0)
(400 -5.39967e-14 0)
(400 -5.57138e-14 0)
(400 -3.94926e-14 0)
(400 -2.32757e-14 0)
(400 -3.77382e-14 0)
(400 -3.31478e-14 0)
(400 -2.34328e-14 0)
(400 -1.96265e-14 0)
(400 -2.19322e-14 0)
(400 -2.54472e-14 0)
(400 -4.39627e-14 0)
(400 -2.78791e-14 0)
(400 -4.54951e-15 0)
(400 2.22158e-14 0)
(400 2.06114e-14 0)
(400 8.53062e-16 0)
(400 -7.6205e-15 0)
(400 8.91105e-17 0)
(400 2.61398e-14 0)
(400 4.35373e-14 0)
(400 4.9192e-14 0)
(400 5.78284e-14 0)
(400 6.51261e-14 0)
(400 7.53636e-14 0)
(400 8.37741e-14 0)
(400 9.12304e-14 0)
(400 7.60531e-14 0)
(400 7.22458e-14 0)