 VARIABLES = "X",  "Y"
 ZONE N=        1720 , E=        3288 , F=FEPOINT, ET=QUADRILATERAL
       -2.0000000000       -1.1904761905
       -1.9130175758       -1.1842722810
       -1.9545604337       -1.1502087696
       -1.8499260395       -1.2051400232
       -1.9039703422       -1.1308522233
       -2.0000000000       -1.1309523810
       -1.8515431119       -1.1593703392
       -1.9531668965       -1.0997989491
       -1.7906530260       -1.1863820431
       -1.8477490876       -1.0981243922
       -1.9000036697       -1.0680810022
       -2.0000000000       -1.0714285714
       -1.7925979679       -1.1317139894
       -1.9510226991       -1.0405868036
       -1.7311437958       -1.2035519573
       -1.7346507791       -1.1582174809
       -1.7931080782       -1.0662356760
       -1.8461849157       -1.0356783248
       -1.8990245429       -1.0064328221
       -2.0000000000       -1.0119047619
       -1.7392118345       -1.0970725508
       -1.9435583006       -0.9801168138
       -1.6793793943       -1.1809558488
       -1.6858385976       -1.1290557388
       -1.7405608577       -1.0343675093
       -1.7929439877       -1.0039895815
       -1.8454441356       -0.9749923826
       -1.8985811831       -0.9488258446
       -2.0000000000       -0.9523809524
       -1.6883175020       -1.0656734770
       -1.9503820916       -0.9223556610
       -1.6078549769       -1.1853712853
       -1.6393065211       -1.1485069796
       -1.6367164295       -1.0975582145
       -1.6891647924       -1.0035890162
       -1.7407232888       -0.9729752410
       -1.7925152363       -0.9434303587
       -1.8447672162       -0.9153377770
       -1.8975254139       -0.8884421701
       -2.0000000000       -0.8928571429
       -1.6376869552       -1.0351356193
       -1.9514863313       -0.8621834079
       -1.5502638324       -1.1851391769
       -1.5820823965       -1.1407709736
       -1.5856590830       -1.0683489206
       -1.6381670683       -0.9734470112
       -1.6892071695       -0.9427784764
       -1.7403894299       -0.9128364148
       -1.7919425657       -0.8838066653
       -1.8441351800       -0.8558207922
       -1.8973200828       -0.8288068470
       -2.0000000000       -0.8333333333
       -1.5870439133       -1.0047397951
       -1.9517003233       -0.8025383449
       -1.4824259991       -1.1811983417
       -1.5245894866       -1.1492057587
       -1.5330189065       -1.0982540057
       -1.5357836118       -1.0359222804
       -1.6380428449       -0.9131350218
       -1.5873111391       -0.9436130756
       -1.6888311304       -0.8830543878
       -1.7398471355       -0.8535052752
       -1.7913443119       -0.8246528770
       -1.8436616875       -0.7966422363
       -1.8971183790       -0.7695048289
       -2.0000000000       -0.7738095238
       -1.5365631140       -0.9743093249
       -1.9517743454       -0.7430524236
       -1.4284766595       -1.2074288688
       -1.4830388464       -1.1303459837
       -1.4850097413       -1.0671810753
       -1.4859018833       -1.0051867543
       -1.5870226135       -0.8838189151
       -1.6375918576       -0.8537695054
       -1.5364824165       -0.9140522027
       -1.6882742676       -0.8239861420
       -1.7392421408       -0.7945912908
       -1.7907753885       -0.7657566076
       -1.8432322767       -0.7376524126
       -1.8969094479       -0.7103341601
       -2.0000000000       -0.7142857143
       -1.4363135190       -1.1607073683
       -1.4859625305       -0.9444475366
       -1.9518339725       -0.6836188710
       -1.3814011367       -1.2030489252
       -1.4351635464       -1.0995110326
       -1.4354726792       -1.0366582934
       -1.4354917678       -0.9751381928
       -1.5864983576       -0.8247519840
       -1.5360364953       -0.8547236646
       -1.6370090668       -0.7948977098
       -1.4855900852       -0.8847929730
       -1.6876598589       -0.7652266372
       -1.7386346593       -0.7358608399
       -1.7902328624       -0.7069758228
       -1.8428261732       -0.6787423426
       -1.8967108045       -0.6512112397
       -2.0000000000       -0.6547619048
       -1.3845694084       -1.1356921643
       -1.4351540437       -0.9150003576
       -1.9519011975       -0.6242027301
       -1.3339339317       -1.1799526456
       -1.3850514800       -1.0695942602
       -1.3850437857       -1.0064271577
       -1.3847220411       -0.9454568119
       -1.5858918428       -0.7660163085
       -1.5354553818       -0.7958758227
       -1.4850371388       -0.8257858817
       -1.6363863194       -0.7362312988
       -1.4346241014       -0.8557541052
       -1.6870366319       -0.7065854764
       -1.7380390016       -0.6771988364
       -1.7897099263       -0.6482388027
       -1.8424370375       -0.6198613236
       -1.8965241983       -0.5921043155
       -2.0000000000       -0.5952380952
       -1.2856027868       -1.2026343213
       -1.3345090325       -1.1043805713
       -1.3842109967       -0.8858196643
       -1.9519776374       -0.5647922269
       -1.2841783073       -1.1359869228
       -1.3345731970       -1.0384341391
       -1.3342860465       -0.9762513638
       -1.3337956346       -0.9160352942
       -1.5852626842       -0.7074028362
       -1.5348326077       -0.7372252826
       -1.4844228900       -0.7670749264
       -1.4340186379       -0.7969471952
       -1.6357561245       -0.6776341882
       -1.3836148731       -0.8268532997
       -1.6864171463       -0.6479821494
       -1.7374537168       -0.6185589700
       -1.7891990665       -0.5895163352
       -1.8420584870       -0.5609896473
       -1.8963462304       -0.5330021921
       -2.0000000000       -0.5357142857
       -1.2326769131       -1.1614839088
       -1.2380415051       -1.2076252796
       -1.2841812084       -1.0701556891
       -1.3332099405       -0.8568166842
       -1.9520617559       -0.5053835237
       -1.2340735342       -1.1003660015
       -1.2838943389       -1.0072198905
       -1.2833975316       -0.9464113016
       -1.2828097564       -0.8868629353
       -1.5341995270       -0.6786396899
       -1.5846291827       -0.6488258991
       -1.4837917274       -0.7084713590
       -1.4333899208       -0.7383124281
       -1.3829892739       -0.7681639850
       -1.6351264415       -0.6190563401
       -1.3325883585       -0.7980338406
       -1.6858016972       -0.5893891874
       -1.7368743418       -0.5599254561
       -1.7886944604       -0.5307981076
       -1.8416858671       -0.5021205102
       -1.8961741688       -0.4739012549
       -2.0000000000       -0.4761904762
       -1.1857082591       -1.1308284042
       -1.1847645012       -1.1858081295
       -1.2337243553       -1.0380158464
       -1.2821883861       -0.8279355173
       -1.9521524024       -0.4459754641
       -1.1842424638       -1.0687963971
       -1.2330945123       -0.9769027368
       -1.2324417010       -0.9170132600
       -1.2317973649       -0.8578881932
       -1.5335645566       -0.6200713498
       -1.4831568378       -0.6498990545
       -1.5839954561       -0.5902578792
       -1.4327555116       -0.6797319696
       -1.3823556350       -0.7095681487
       -1.3319559071       -0.7394092479
       -1.6344979311       -0.5604829899
       -1.2815563312       -0.7692599697
       -1.6851884309       -0.5307987166
       -1.7362977227       -0.5012935315
       -1.7881929566       -0.4720808624
       -1.8413168780       -0.4432518186
       -1.8960067256       -0.4148004589
       -2.0000000000       -0.4166666667
       -1.1434789398       -1.1499259675
       -1.1360361431       -1.0999688709
       -1.1165641918       -1.1913138829
       -1.1830523167       -1.0075579532
       -1.2311588258       -0.7991289565
       -1.9522490024       -0.3865677292
       -1.1334222528       -1.0386849124
       -1.1821660908       -0.9473103905
       -1.1814354540       -0.8879214172
       -1.1807692035       -0.8290306707
       -1.4825213260       -0.5913340932
       -1.5329294080       -0.5615067259
       -1.4321200046       -0.6211653649
       -1.5833619770       -0.5316916548
       -1.3817202634       -0.6509980166
       -1.3313208088       -0.6808318694
       -1.2809214090       -0.7106680710
       -1.6338700490       -0.5019105373
       -1.2305224134       -0.7405093704
       -1.6845761178       -0.4722087558
       -1.7357223999       -0.4426618904
       -1.7876932924       -0.4133636811
       -1.8409506636       -0.3843830031
       -1.8958434075       -0.3556995299
       -2.0000000000       -0.3571428571
       -1.0864655888       -1.1425044809
       -1.0838140564       -1.0713275677
       -1.0582738521       -1.1927828401
       -1.1320500028       -0.9778591976
       -1.1801252278       -0.7703610330
       -1.9523512463       -0.3271602279
       -1.0820764884       -1.0087910077
       -1.1311319637       -0.9180802584
       -1.1303980945       -0.8589861529
       -1.1297329814       -0.8002314815
       -1.4818857505       -0.5327705257
       -1.4314843375       -0.5626016187
       -1.5322942950       -0.5029427536
       -1.3810845999       -0.5924336306
       -1.5827286414       -0.4731257306
       -1.3306851940       -0.6222659997
       -1.2802858467       -0.6520988541
       -1.2298865771       -0.6819328493
       -1.6332424345       -0.4433382299
       -1.1794876619       -0.7117694563
       -1.6839642549       -0.4136188518
       -1.7351478692       -0.3840302075
       -1.7871950672       -0.3546463327
       -1.8405869455       -0.3255139207
       -1.8956840019       -0.2965983907
       -2.0000000000       -0.2976190476
       -1.0337578234       -1.1006516199
       -1.0314061221       -1.1512203913
       -1.0322487039       -1.0395146069
       -0.9958755394       -1.1913196927
       -1.0809107857       -0.9484036490
       -1.1290898693       -0.7416113558
       -1.9524589051       -0.2677529195
       -1.0308154760       -0.9788294574
       -1.0800599561       -0.8890162603
       -1.0793511250       -0.8301308777
       -1.0786947223       -0.7714624172
       -1.4308486554       -0.5040383487
       -1.4812501781       -0.4742071720
       -1.3804488992       -0.5338702852
       -1.5316592085       -0.4443788739
       -1.3300494982       -0.5637024117
       -1.5820953686       -0.4145598443
       -1.2796501647       -0.5935346433
       -1.2292508631       -0.6233670933
       -1.1788516322       -0.6532000921
       -1.6326149544       -0.3847659273
       -1.1284525922       -0.6830342848
       -1.6833526888       -0.3550289082
       -1.7345739898       -0.3253984084
       -1.7866981638       -0.2959287606
       -1.8402256130       -0.2666445283
       -1.8955283677       -0.2374970051
       -2.0000000000       -0.2380952381
       -0.9832307313       -1.0702611587
       -0.9868982222       -1.1313707047
       -0.9810270924       -1.0094184677
       -0.9431952487       -1.2083833326
       -1.0297805697       -0.9191282857
       -1.0780542669       -0.7128707976
       -1.9525717679       -0.2083457718
       -0.9417768448       -1.1629721445
       -0.9796240033       -0.9493674405
       -1.0289900824       -0.8600690340
       -1.0283054474       -0.8013274133
       -1.0276570877       -0.7427114193
       -1.3798131951       -0.4753070918
       -1.4302129734       -0.4454751423
       -1.4806146100       -0.4156438443
       -1.3294137912       -0.5051391897
       -1.5310241348       -0.3858150036
       -1.2790144605       -0.5349713280
       -1.5814621312       -0.3559939563
       -1.2286151622       -0.5648035131
       -1.1782159080       -0.5946358146
       -1.1278167086       -0.6244684163
       -1.6319875725       -0.3261936050
       -1.0774177982       -0.6543016282
       -1.6827413812       -0.2964389052
       -1.7340007227       -0.2667664742
       -1.7862025351       -0.2372109446
       -1.8398665923       -0.2077748015
       -1.8953763779       -0.1783953433
       -2.0000000000       -0.1785714286
       -0.9317550751       -1.0407778380
       -0.9353658125       -1.1025261652
       -0.9296840026       -0.9799649942
       -0.8935287211       -1.2026957328
       -0.9786727817       -0.8900695712
       -1.0270191060       -0.6841354108
       -1.9526896279       -0.1489387519
       -0.8876140446       -1.1389408486
       -0.9284372267       -0.9202176029
       -0.9779293276       -0.8312157814
       -0.9772631110       -0.7725589278
       -0.9766202467       -0.7139713333
       -1.3287780825       -0.4465760150
       -1.3791774907       -0.4167439161
       -1.4295772921       -0.3869119427
       -1.4799790442       -0.3570805188
       -1.2783787506       -0.4764081429
       -1.5303890695       -0.3272511323
       -1.2279794523       -0.5062402899
       -1.5808289225       -0.2974280610
       -1.1775802011       -0.5360724713
       -1.1271810375       -0.5659047073
       -1.0767816707       -0.5957372653
       -1.6313602803       -0.2676212583
       -1.0263823203       -0.6255695098
       -1.6821303211       -0.2378488372
       -1.7334280505       -0.2081343966
       -1.7857081473       -0.1784928711
       -1.8395098155       -0.1489047192
       -1.8952279075       -0.1192933763
       -2.0000000000       -0.1190476190
       -0.8828608144       -1.0740674665
       -0.8799823234       -1.0114035070
       -0.8783135664       -0.9507017544
       -0.8400303065       -1.1843965359
       -0.9275797431       -0.8611559908
       -0.9759825890       -0.6554007424
       -1.9528122794       -0.0895318258
       -0.8339319017       -1.1103604723
       -0.8772726536       -0.8912146258
       -0.7884310350       -1.2171282443
       -0.9268764349       -0.8024216451
       -0.9262235529       -0.7438103150
       -0.9255841413       -0.6852360922
       -1.2777430395       -0.4178449731
       -1.3281423737       -0.3880128452
       -1.3785417866       -0.3581807420
       -1.4289416112       -0.3283487434
       -1.4793434802       -0.2985171929
       -1.2273437381       -0.4476771165
       -1.5297540116       -0.2686872588
       -1.1769444800       -0.4775092842
       -1.5801957410       -0.2388621575
       -1.1265452772       -0.5073414843
       -1.0761460813       -0.5371736966
       -1.0257468648       -0.5670060901
       -1.6307330752       -0.2090488856
       -0.9753476644       -0.5968387018
       -1.6815195029       -0.1792587009
       -1.7328559595       -0.1495021689
       -1.7852149679       -0.1197745275
       -1.8391552153       -0.0900342605
       -1.8950828320       -0.0601910747
       -2.0000000000       -0.0595238095
       -0.8303831932       -1.0441450084
       -0.8282846883       -0.9817470839
       -0.8270154195       -0.9214892514
       -0.7839150047       -1.1469345398
       -0.8765029682       -0.8323201291
       -0.9249474355       -0.6266692979
       -1.9529395181       -0.0301249580
       -0.7805706537       -1.0777937632
       -0.8261486379       -0.8622898248
       -0.7316507913       -1.1845575216
       -0.8758302442       -0.7736585527
       -0.8751860541       -0.7150712548
       -0.8745487370       -0.6565030399
       -1.2267080256       -0.3891139477
       -1.2771073296       -0.3592818042
       -1.3275066656       -0.3294496754
       -1.3779060828       -0.2996175677
       -1.4283059307       -0.2697855441
       -1.4787079179       -0.2399538665
       -1.1763087646       -0.4189461145
       -1.5291189608       -0.2101233829
       -1.1259095642       -0.4487783163
       -1.5795625861       -0.1802962452
       -1.0755104198       -0.4786105572
       -1.0251112970       -0.5084428509
       -0.9747121545       -0.5382751873
       -1.6301059554       -0.1504764860
       -0.9243115771       -0.5681065978
       -1.6809089214       -0.1206684936
       -1.7322844358       -0.0908697848
       -1.7847229649       -0.0610559013
       -1.8388027241       -0.0311634047
       -1.8949410270       -0.0010884089
       -2.0000000000        0.0000000000
       -0.7782734680       -1.0133672420
       -0.7767999591       -0.9520416652
       -0.7758174354       -0.8923680773
       -0.7303181376       -1.1112283679
       -0.8254426406       -0.8035265556
       -0.8739130692       -0.5979392185
       -1.9530711408        0.0292818878
       -0.7282359454       -1.0451794385
       -0.7750635828       -0.8334291308
       -0.6830631617       -1.2045345424
       -0.6806367214       -1.1410571523
       -0.8247892313       -0.7449110864
       -0.8241499122       -0.6863366014
       -0.8235137738       -0.6277713958
       -1.1756730538       -0.3603829424
       -1.2260723166       -0.3305507776
       -1.2764716216       -0.3007186347
       -1.3268709583       -0.2708865052
       -1.3772703793       -0.2410543933
       -1.4276702506       -0.2112223445
       -1.4780723572       -0.1813905396
       -1.1252738550       -0.3902151403
       -1.5284839170       -0.1515595045
       -1.0748747284       -0.4200473758
       -1.5789294572       -0.1217303239
       -1.0244756482       -0.4498796393
       -0.9740765557       -0.4797118939
       -0.9236761208       -0.5095432098
       -1.6294789194       -0.0919040582
       -0.8732754962       -0.5393760805
       -1.6802985716       -0.0620782124
       -1.7317134660       -0.0322372379
       -1.7842321056       -0.0023369803
       -1.8384522744        0.0277078688
       -1.8948023685        0.0580146509
       -2.0000000000        0.0595238095
       -0.7266287284       -0.9828144391
       -0.7255181059       -0.9225696481
       -0.7246982501       -0.8633806696
       -0.6784310454       -1.0764055006
       -0.7743947600       -0.7747599148
       -0.8228783978       -0.5692077437
       -1.9532069463        0.0886887493
       -0.6765914880       -1.0136621637
       -0.7240046425       -0.8046237417
       -0.6320682709       -1.2179338990
       -0.6323641267       -1.1667749464
       -0.6293978298       -1.1071856806
       -0.7737514735       -0.7161719589
       -0.7731144483       -0.6576040137
       -0.7724787277       -0.5990400664
       -1.1246381525       -0.3316519579
       -1.1750373511       -0.3018197678
       -1.2254366129       -0.2719876063
       -1.2758359162       -0.2421554645
       -1.3262352520       -0.2123233348
       -1.3766346761       -0.1824912188
       -1.4270345709       -0.1526591449
       -1.4774367981       -0.1228272120
       -1.0742390294       -0.3614841797
       -1.5278488801       -0.0929956236
       -1.0238399618       -0.3913164214
       -1.5782963540       -0.0631643932
       -0.9734408858       -0.4211486501
       -0.9230405103       -0.4509800276
       -0.8726397887       -0.4808130202
       -1.6288519655       -0.0333316014
       -0.8222430030       -0.5106448753
       -1.6796884484       -0.0034878548
       -1.7311430361        0.0263954780
       -1.7837423576        0.0563822476
       -1.8381037989        0.0865795803
       -1.8946667333        0.1171181343
       -2.0000000000        0.1190476190
       -0.6752866414       -0.9528963627
       -0.6743607074       -0.8933987490
       -0.6736236600       -0.8345118611
       -0.6268997624       -1.0447518251
       -0.7233540993       -0.7460109512
       -0.7718432227       -0.5404768360
       -1.9533467355        0.1480956645
       -0.6252023899       -0.9834600179
       -0.6729591510       -0.7758567253
       -0.5883133465       -1.2046113408
       -0.5818124046       -1.1416297766
       -0.5777545900       -1.0772965404
       -0.7227153406       -0.6874373230
       -0.7220792092       -0.6288723474
       -0.7214435620       -0.5703089311
       -1.0736033477       -0.3029209790
       -1.1240024696       -0.2730887742
       -1.1744016624       -0.2432565926
       -1.2248009163       -0.2134244344
       -1.2752002134       -0.1835922937
       -1.3255995463       -0.1537601641
       -1.3759989730       -0.1239280442
       -1.4263988915       -0.0940959450
       -1.4768012405       -0.0642638838
       -1.0232042789       -0.3327531964
       -1.5272138499       -0.0344317400
       -0.9728052032       -0.3625854021
       -1.5776632760       -0.0045984528
       -0.9224049020       -0.3924168268
       -0.8720041524       -0.4222498693
       -0.8216073438       -0.4520817341
       -1.6282250920        0.0252408855
       -0.7712076574       -0.4819137238
       -1.6790785466        0.0551025820
       -1.7305731323        0.0850283687
       -1.7832536882        0.1151017942
       -1.8377572299        0.1454517499
       -1.8945339989        0.1762220710
       -2.0000000000        0.1785714286
       -0.6240801838       -0.9235416152
       -0.6232617040       -0.8644481876
       -0.6225694868       -0.8057170683
       -0.5753364429       -1.0146972467
       -0.6723167821       -0.7172721330
       -0.7208079637       -0.5117457522
       -1.9534903111        0.2075026721
       -0.5738854218       -0.9539805831
       -0.6219194178       -0.7471104989
       -0.5354629026       -1.1853791515
       -0.5288730022       -1.1129439259
       -0.5255635478       -1.0472730700
       -0.6716798582       -0.6587048841
       -0.6710440241       -0.6001410846
       -0.6704083630       -0.5415778406
       -1.0225686402       -0.2741899691
       -1.0729677114       -0.2443577820
       -1.1233668208       -0.2145255930
       -1.1737659916       -0.1846934169
       -1.2241652258       -0.1548612610
       -1.2745645116       -0.1250291221
       -1.3249638404       -0.0951969930
       -1.3753632698       -0.0653648694
       -1.4257632122       -0.0355327451
       -1.4761656845       -0.0057005549
       -0.9721695529       -0.3040221405
       -1.5265788264        0.0241321463
       -0.9217693108       -0.3338535940
       -1.5770302226        0.0539674976
       -0.8713685360       -0.3636866635
       -0.8209716754       -0.3935185080
       -0.7705720136       -0.4233505419
       -1.6275982971        0.0838134035
       -0.7201723297       -0.4531825849
       -1.6784688609        0.1136931005
       -1.7300037405        0.1436614402
       -1.7827660646        0.1738216711
       -1.8374125004        0.2043243973
       -1.8944040435        0.2353264904
       -2.0000000000        0.2380952381
       -0.5729301117       -0.8944964321
       -0.5721888216       -0.8356126938
       -0.5715240382       -0.7769582263
       -0.4845691553       -1.2175934771
       -0.5237377246       -0.9850090278
       -0.6212807344       -0.6885381699
       -0.6697727087       -0.4830146648
       -1.9536374787        0.2669098110
       -0.5226203729       -0.9247784824
       -0.5708817241       -0.7183737535
       -0.4785014311       -1.1496297175
       -0.4752692147       -1.0812441731
       -0.4734260439       -1.0168568781
       -0.6206445494       -0.6299734241
       -0.6200088099       -0.5714100324
       -0.6193731305       -0.5128468342
       -0.9715339826       -0.2454588718
       -1.0219330870       -0.2156267575
       -1.0723321468       -0.1857945990
       -1.1227312113       -0.1559624128
       -1.1731303317       -0.1261302361
       -1.2235295348       -0.0962980843
       -1.2739288076       -0.0664659493
       -1.3243281333       -0.0366338217
       -1.3747275663       -0.0068016947
       -1.4251275332        0.0230304550
       -1.4755301299        0.0528627746
       -0.9211337832       -0.2752903180
       -1.5259438094        0.0826960354
       -0.8707329611       -0.3051233920
       -1.5763971934        0.1125334582
       -0.8203360314       -0.3349552028
       -0.7699363589       -0.3647872909
       -0.7195366692       -0.3946193782
       -1.6269715791        0.1423859534
       -0.6691370387       -0.4244514805
       -1.6778593861        0.1722837033
       -1.7294348468        0.2022946983
       -1.7822794542        0.2325418895
       -1.8370695433        0.2631975418
       -1.8942767467        0.2944314214
       -2.0000000000        0.2976190476
       -0.5218154431       -0.8655881372
       -0.5211294270       -0.8068297617
       -0.5204813149       -0.7482164443
       -0.4240768032       -1.1887034461
       -0.4722646419       -0.9554450740
       -0.5702448107       -0.6598065032
       -0.6187374505       -0.4542836530
       -1.9537880463        0.3263171203
       -0.4714269143       -0.8957159020
       -0.5198431847       -0.6896425935
       -0.4234436405       -1.1162421896
       -0.4225745810       -1.0495278026
       -0.4217218406       -0.9866145581
       -0.5696089568       -0.6012426759
       -0.5689732711       -0.5426793967
       -0.5683376045       -0.4841161867
       -0.9204983537       -0.2167270114
       -0.9708985258       -0.1868956469
       -1.0212976575       -0.1570636000
       -1.0716966643       -0.1272314276
       -1.1220956134       -0.0973992124
       -1.1724946592       -0.0675670440
       -1.2228938324       -0.0377349046
       -1.2732930982       -0.0079027762
       -1.3236924244        0.0219293494
       -1.3740918623        0.0517614801
       -1.4244918544        0.0815936552
       -1.4748945768        0.1114261048
       -0.8700974787       -0.2465600291
       -1.5253087988        0.1412599274
       -0.8197004748       -0.2763917809
       -1.5757641878        0.1710994295
       -0.7693007569       -0.3062239389
       -0.7189010275       -0.3360561040
       -0.6685013697       -0.3658882618
       -1.6263449364        0.2009585363
       -0.6181017683       -0.3957204598
       -1.6772501169        0.2308743926
       -1.7288664370        0.2609281483
       -1.7817938243        0.2912624604
       -1.8367282923        0.3220712023
       -1.8941519893        0.3535368928
       -2.0000000000        0.3571428571
       -0.4707253160       -0.8367554130
       -0.4700720201       -0.7780797912
       -0.4694328891       -0.7194899381
       -0.3642646070       -1.2177503683
       -0.3696046826       -1.1507266822
       -0.4209637466       -0.9260922106
       -0.5192072104       -0.6310774500
       -0.5677019379       -0.4255529793
       -1.9539418252        0.3857246391
       -0.4202781487       -0.8667929459
       -0.4687971590       -0.6609210793
       -0.3709917851       -1.0827529489
       -0.3708774286       -1.0183485576
       -0.3703375679       -0.9568439899
       -0.5185716153       -0.5725138622
       -0.5179360728       -0.5139504990
       -0.5173005346       -0.4553871612
       -0.8694620898       -0.1879965803
       -0.9198629435       -0.1581637792
       -0.9702631713       -0.1283325688
       -1.0206624523       -0.0985005483
       -1.0710611767       -0.0686681658
       -1.1214599579       -0.0388359759
       -1.1718589467       -0.0090038462
       -1.2222581122        0.0208282742
       -1.2726573830        0.0506603959
       -1.3230567141        0.0804925202
       -1.3734561581        0.1103246547
       -1.4238561759        0.1401568555
       -1.4742590252        0.1699894356
       -0.8190650580       -0.2178281764
       -1.5246737945        0.1998238225
       -0.7686652894       -0.2476604111
       -1.5751312054        0.2296654117
       -0.7182654757       -0.2774927026
       -0.6678657456       -0.3073249690
       -0.6174661031       -0.3371572318
       -1.6257183671        0.2595311529
       -0.5670662762       -0.3669897594
       -1.6766410480        0.2894651709
       -1.7282984972        0.3195617958
       -1.7813091422        0.3499833945
       -1.8363886812        0.3809453972
       -1.8940296535        0.4126429324
       -2.0000000000        0.4166666667
       -0.4196279577       -0.8079991478
       -0.4189906099       -0.7493746724
       -0.4183568805       -0.6907962846
       -0.3153932131       -1.1871322183
       -0.3194333134       -1.1164685186
       -0.3697113655       -0.8970522170
       -0.4681620910       -0.6023563960
       -0.5166649966       -0.3968238225
       -1.9540986294        0.4451324061
       -0.3690788085       -0.8380602525
       -0.4177239476       -0.6322281004
       -0.3198969968       -1.0507339969
       -0.3194825565       -0.9881717405
       -0.3188851617       -0.9277426039
       -0.4675271237       -0.5437923878
       -0.4668921641       -0.4852284703
       -0.4662572003       -0.4266645646
       -0.8688265944       -0.1294332440
       -0.8184297164       -0.1592643114
       -0.9192273793       -0.0996007577
       -0.9696289265       -0.0697705125
       -1.0200271479       -0.0399369775
       -1.0704254932       -0.0101048022
       -1.1208241908        0.0197272584
       -1.1712231886        0.0495593413
       -1.2216223782        0.0793914478
       -1.2720216650        0.1092235662
       -1.3224210036        0.1390556906
       -1.3728204541        0.1688878293
       -1.4232204977        0.1987200559
       -1.4736234750        0.2285527672
       -0.7680300263       -0.1890966127
       -1.5240387964        0.2583877205
       -0.7176301107       -0.2189290832
       -1.5744982457        0.2882314050
       -0.6672302419       -0.2487615322
       -0.6168304984       -0.2785939259
       -0.5664306387       -0.3084265052
       -1.6250918695        0.3181038041
       -0.5160294654       -0.3382604724
       -1.6760321739        0.3480560404
       -1.7277310131        0.3781956457
       -1.7808253757        0.4087047020
       -1.8360506446        0.4398201444
       -1.8939096228        0.4717495682
       -2.0000000000        0.4761904762
       -0.3684501010       -0.7793684271
       -0.3678235073       -0.7207677601
       -0.3671975115       -0.6621895872
       -0.2720026199       -1.2068968439
       -0.2707622977       -1.1492877213
       -0.2694648655       -1.0838768184
       -0.3182677107       -0.8684499887
       -0.4170911408       -0.5736617588
       -0.4656222328       -0.3681006599
       -1.9542582768        0.5045404604
       -0.3176554246       -0.8096380728
       -0.3665715958       -0.6036159480