 VARIABLES = "X",  "Y"
 ZONE N=        1720 , E=        3288 , F=FEPOINT, ET=QUADRILATERAL
        0.0000000000       -1.2500000000
       -2.0000000000       -1.2500000000
        0.0000000000        1.2500000000
       -2.0000000000        1.2500000000
       -0.0606060606       -1.2500000000
       -0.1212121212       -1.2500000000
       -0.1818181818       -1.2500000000
       -0.2424242424       -1.2500000000
       -0.3030303030       -1.2500000000
       -0.3636363636       -1.2500000000
       -0.4242424242       -1.2500000000
       -0.4848484848       -1.2500000000
       -0.5454545455       -1.2500000000
       -0.6060606061       -1.2500000000
       -0.6666666667       -1.2500000000
       -0.7272727273       -1.2500000000
       -0.7878787879       -1.2500000000
       -0.8484848485       -1.2500000000
       -0.9090909091       -1.2500000000
       -0.9696969697       -1.2500000000
       -1.0303030303       -1.2500000000
       -1.0909090909       -1.2500000000
       -1.1515151515       -1.2500000000
       -1.2121212121       -1.2500000000
       -1.2727272727       -1.2500000000
       -1.3333333333       -1.2500000000
       -1.3939393939       -1.2500000000
       -1.4545454545       -1.2500000000
       -1.5151515152       -1.2500000000
       -1.5757575758       -1.2500000000
       -1.6363636364       -1.2500000000
       -1.6969696970       -1.2500000000
       -1.7575757576       -1.2500000000
       -1.8181818182       -1.2500000000
       -1.8787878788       -1.2500000000
       -1.9393939394       -1.2500000000
        0.0000000000        1.1904761905
        0.0000000000        1.1309523810
        0.0000000000        1.0714285714
        0.0000000000        1.0119047619
        0.0000000000        0.9523809524
        0.0000000000        0.8928571429
        0.0000000000        0.8333333333
        0.0000000000        0.7738095238
        0.0000000000        0.7142857143
        0.0000000000        0.6547619048
        0.0000000000        0.5952380952
        0.0000000000        0.5357142857
        0.0000000000        0.4761904762
        0.0000000000        0.4166666667
        0.0000000000        0.3571428571
        0.0000000000        0.2976190476
        0.0000000000        0.2380952381
        0.0000000000        0.1785714286
        0.0000000000        0.1190476190
        0.0000000000        0.0595238095
        0.0000000000       -0.0000000000
        0.0000000000       -0.0595238095
        0.0000000000       -0.1190476190
        0.0000000000       -0.1785714286
        0.0000000000       -0.2380952381
        0.0000000000       -0.2976190476
        0.0000000000       -0.3571428571
        0.0000000000       -0.4166666667
        0.0000000000       -0.4761904762
        0.0000000000       -0.5357142857
        0.0000000000       -0.5952380952
        0.0000000000       -0.6547619048
        0.0000000000       -0.7142857143
        0.0000000000       -0.7738095238
        0.0000000000       -0.8333333333
        0.0000000000       -0.8928571429
        0.0000000000       -0.9523809524
        0.0000000000       -1.0119047619
        0.0000000000       -1.0714285714
        0.0000000000       -1.1309523810
        0.0000000000       -1.1904761905
       -1.9393939394        1.2500000000
       -1.8787878788        1.2500000000
       -1.8181818182        1.2500000000
       -1.7575757576        1.2500000000
       -1.6969696970        1.2500000000
       -1.6363636364        1.2500000000
       -1.5757575758        1.2500000000
       -1.5151515152        1.2500000000
       -1.4545454545        1.2500000000
       -1.3939393939        1.2500000000
       -1.3333333333        1.2500000000
       -1.2727272727        1.2500000000
       -1.2121212121        1.2500000000
       -1.1515151515        1.2500000000
       -1.0909090909        1.2500000000
       -1.0303030303        1.2500000000
       -0.9696969697        1.2500000000
       -0.9090909091        1.2500000000
       -0.8484848485        1.2500000000
       -0.7878787879        1.2500000000
       -0.7272727273        1.2500000000
       -0.6666666667        1.2500000000
       -0.6060606061        1.2500000000
       -0.5454545455        1.2500000000
       -0.4848484848        1.2500000000
       -0.4242424242        1.2500000000
       -0.3636363636        1.2500000000
       -0.3030303030        1.2500000000
       -0.2424242424        1.2500000000
       -0.1818181818        1.2500000000
       -0.1212121212        1.2500000000
       -0.0606060606        1.2500000000
       -2.0000000000       -1.1904761905
       -2.0000000000       -1.1309523810
       -2.0000000000       -1.0714285714
       -2.0000000000       -1.0119047619
       -2.0000000000       -0.9523809524
       -2.0000000000       -0.8928571429
       -2.0000000000       -0.8333333333
       -2.0000000000       -0.7738095238
       -2.0000000000       -0.7142857143
       -2.0000000000       -0.6547619048
       -2.0000000000       -0.5952380952
       -2.0000000000       -0.5357142857
       -2.0000000000       -0.4761904762
       -2.0000000000       -0.4166666667
       -2.0000000000       -0.3571428571
       -2.0000000000       -0.2976190476
       -2.0000000000       -0.2380952381
       -2.0000000000       -0.1785714286
       -2.0000000000       -0.1190476190
       -2.0000000000       -0.0595238095
       -2.0000000000        0.0000000000
       -2.0000000000        0.0595238095
       -2.0000000000        0.1190476190
       -2.0000000000        0.1785714286
       -2.0000000000        0.2380952381
       -2.0000000000        0.2976190476
       -2.0000000000        0.3571428571
       -2.0000000000        0.4166666667
       -2.0000000000        0.4761904762
       -2.0000000000        0.5357142857
       -2.0000000000        0.5952380952
       -2.0000000000        0.6547619048
       -2.0000000000        0.7142857143
       -2.0000000000        0.7738095238
       -2.0000000000        0.8333333333
       -2.0000000000        0.8928571429
       -2.0000000000        0.9523809524
       -2.0000000000        1.0119047619
       -2.0000000000        1.0714285714
       -2.0000000000        1.1309523810
       -2.0000000000        1.1904761905
       -0.6320682709       -1.2179338990
       -1.6393065211       -1.1485069796
       -1.8214654798        1.2165646397
       -0.0418965540        1.2094193107
       -1.9545604337       -1.1502087696
       -1.5722330830        1.1540787033
       -1.5237636916        1.1442695322
       -1.5197001758        1.0852511782
       -1.6187093025        1.1438812962
       -1.5699163373        1.1107913297
       -1.3696419379        0.4617037047
       -1.9519011975       -0.6242027301
       -1.8967108045       -0.6512112397
       -1.8424370375       -0.6198613236
       -1.7897099263       -0.6482388027
       -1.8428261732       -0.6787423426
       -1.7386346593       -0.7358608399
       -1.7902328624       -0.7069758228
       -1.9518339725       -0.6836188710
       -1.9517743454       -0.7430524236
       -1.9517003233       -0.8025383449
       -1.8969094479       -0.7103341601
       -1.8971183790       -0.7695048289
       -1.9514863313       -0.8621834079
       -1.8973200828       -0.8288068470
       -1.8432322767       -0.7376524126
       -1.7907753885       -0.7657566076
       -1.8436616875       -0.7966422363
       -1.0049069637        1.2103387088
       -0.8177939278       -0.1006998764
       -0.7667605342       -0.0719681455
       -0.6646906554       -0.0145061430
       -0.7157257162       -0.0432370523
       -1.6870366319       -0.7065854764
       -1.9039703422       -1.1308522233
       -1.9531668965       -1.0997989491
       -1.9435583006       -0.9801168138
       -1.9510226991       -1.0405868036
       -1.9503820916       -0.9223556610
       -1.8985811831       -0.9488258446
       -1.8990245429       -1.0064328221
       -1.8975254139       -0.8884421701
       -1.8441351800       -0.8558207922
       -1.7919425657       -0.8838066653
       -1.8447672162       -0.9153377770
       -1.7925152363       -0.9434303587
       -1.8515431119       -1.1593703392
       -1.8454441356       -0.9749923826
       -1.9000036697       -1.0680810022
       -1.8461849157       -1.0356783248
       -1.8477490876       -1.0981243922
       -1.7931080782       -1.0662356760
       -1.7913443119       -0.8246528770
       -1.7925979679       -1.1317139894
       -1.7346507791       -1.1582174809
       -1.6858385976       -1.1290557388
       -1.7392118345       -1.0970725508
       -1.7929439877       -1.0039895815
       -1.6883175020       -1.0656734770
       -1.7405608577       -1.0343675093
       -1.7407232888       -0.9729752410
       -1.6892071695       -0.9427784764
       -1.7392421408       -0.7945912908
       -1.7403894299       -0.9128364148
       -1.7398471355       -0.8535052752
       -1.6876598589       -0.7652266372
       -1.6888311304       -0.8830543878
       -1.6882742676       -0.8239861420
       -1.6891647924       -1.0035890162
       -1.6367164295       -1.0975582145
       -1.6376869552       -1.0351356193
       -1.5820823965       -1.1407709736
       -1.1434789398       -1.1499259675
       -1.1857082591       -1.1308284042
       -1.4855900852       -0.8847929730
       -1.4825213260       -0.5913340932
       -1.4831568378       -0.6498990545
       -1.4837917274       -0.7084713590
       -1.5335645566       -0.6200713498
       -1.5341995270       -0.6786396899
       -1.5348326077       -0.7372252826
       -1.4844228900       -0.7670749264
       -1.4850371388       -0.8257858817
       -1.5354553818       -0.7958758227
       -1.5846291827       -0.6488258991
       -1.6357561245       -0.6776341882
       -1.5852626842       -0.7074028362
       -1.6363863194       -0.7362312988
       -1.5858918428       -0.7660163085
       -1.6370090668       -0.7948977098
       -1.5864983576       -0.8247519840
       -1.5360364953       -0.8547236646
       -1.2340735342       -1.1003660015
       -1.0582738521       -1.1927828401
       -1.1165641918       -1.1913138829
       -1.1847645012       -1.1858081295
       -1.2380415051       -1.2076252796
       -1.2326769131       -1.1614839088
       -0.0712064629       -1.2097778490
       -0.2720026199       -1.2068968439
       -0.2274373778       -1.1879543746
       -0.1800348370       -1.2182379900
       -0.1702091490       -1.1541037024
       -0.2707622977       -1.1492877213
       -0.1645693451       -1.0891212208
       -0.2201384498       -1.1186906682
       -1.2856027868       -1.2026343213
       -0.1178465165       -1.1904851228
       -0.0519877714       -1.1592401222
       -0.1099613920       -1.1250796664
       -0.0474379976       -1.0994885626
       -0.0461550096       -1.0391624258
       -1.0314061221       -1.1512203913
       -1.0864655888       -1.1425044809
       -1.1360361431       -1.0999688709
       -1.1842424638       -1.0687963971
       -0.9958755394       -1.1913196927
       -0.9431952487       -1.2083833326
       -0.9417768448       -1.1629721445
       -0.9868982222       -1.1313707047
       -1.0337578234       -1.1006516199
       -1.0838140564       -1.0713275677
       -1.1334222528       -1.0386849124
       -1.1830523167       -1.0075579532
       -1.2337243553       -1.0380158464
       -0.0501985417        0.3280935228
       -0.1017395598        0.2998866320
       -0.0500290783        0.2686888918
       -0.1018595394        0.2407912681
       -0.5883133465       -1.2046113408
       -0.5354629026       -1.1853791515
       -0.5288730022       -1.1129439259
       -0.5777545900       -1.0772965404
       -0.5255635478       -1.0472730700
       -0.8209716754       -0.3935185080
       -0.6672302419       -0.2487615322
       -0.6168304984       -0.2785939259
       -0.8184297164       -0.1592643114
       -0.7680300263       -0.1890966127
       -0.7176301107       -0.2189290832
       -0.8203360314       -0.3349552028
       -0.8190650580       -0.2178281764
       -0.8197004748       -0.2763917809
       -0.7686652894       -0.2476604111
       -0.7182654757       -0.2774927026
       -0.6678657456       -0.3073249690
       -0.6174661031       -0.3371572318
       -0.7693007569       -0.3062239389
       -0.7699363589       -0.3647872909
       -0.7189010275       -0.3360561040
       -0.6685013697       -0.3658882618
       -0.6181017683       -0.3957204598
       -0.8216073438       -0.4520817341
       -0.7705720136       -0.4233505419
       -0.7195366692       -0.3946193782
       -0.7201723297       -0.4531825849
       -0.5173005346       -0.4553871612
       -0.6691370387       -0.4244514805
       -0.5677019379       -0.4255529793
       -0.6187374505       -0.4542836530
       -0.3642646070       -1.2177503683
       -0.1533088597        0.2717176617
       -0.1536495795        0.2128525436
       -0.7673949873       -0.1305324759
       -0.7163603014       -0.1018010584
       -0.6142901285       -0.0443392319
       -0.6653252952       -0.0730699893
       -0.7169950299       -0.1603651779
       -0.6659599888       -0.1316339793
       -0.6149248315       -0.1029030392
       -0.6665949605       -0.1901978731
       -0.6155597861       -0.1614668384
       -0.6161950285       -0.2200304782
       -0.5651596269       -0.1912997288
       -0.5645243978       -0.1327361404
       -0.2047830566        0.2434502842
       -0.2561140621        0.2150314918
       -0.5166649966       -0.3968238225
       -0.5670662762       -0.3669897594
       -0.5160294654       -0.3382604724
       -0.5664306387       -0.3084265052
       -1.0774177982       -0.6543016282
       -1.0767816707       -0.5957372653
       -1.0263823203       -0.6255695098
       -0.9759825890       -0.6554007424
       -0.9255841413       -0.6852360922
       -1.0270191060       -0.6841354108
       -0.9766202467       -0.7139713333
       -0.7712076574       -0.4819137238
       -0.8222430030       -0.5106448753
       -0.6697727087       -0.4830146648
       -0.6130166214        0.0727789084
       -0.6640508253        0.0440475469
       -0.7150855592        0.0153165107
       -0.7661202378       -0.0134145736
       -0.8171546454       -0.0421454517
       -0.8681919577       -0.0708707622
       -0.8688265944       -0.1294332440
       -0.8694620898       -0.1879965803
       -0.8700974787       -0.2465600291
       -0.8707329611       -0.3051233920
       -0.8713685360       -0.3636866635
       -0.8720041524       -0.4222498693
       -0.8726397887       -0.4808130202
       -0.8732754962       -0.5393760805
       -0.8739130692       -0.5979392185
       -0.8228783978       -0.5692077437
       -0.7718432227       -0.5404768360
       -0.7208079637       -0.5117457522
       -0.8745487370       -0.6565030399
       -0.8241499122       -0.6863366014
       -0.8235137738       -0.6277713958
       -0.7731144483       -0.6576040137
       -0.5683376045       -0.4841161867
       -0.7724787277       -0.5990400664
       -0.7220792092       -0.6288723474
       -0.6193731305       -0.5128468342
       -0.7214435620       -0.5703089311
       -0.6704083630       -0.5415778406
       -0.5179360728       -0.5139504990
       -0.5689732711       -0.5426793967
       -0.6710440241       -0.6001410846
       -0.6200088099       -0.5714100324
       -0.5185716153       -0.5725138622
       -0.4687971590       -0.6609210793
       -0.5192072104       -0.6310774500
       -0.5696089568       -0.6012426759
       -0.5198431847       -0.6896425935
       -0.5702448107       -0.6598065032
       -1.0276570877       -0.7427114193
       -1.0283054474       -0.8013274133
       -0.9772631110       -0.7725589278
       -0.8751860541       -0.7150712548
       -0.9262235529       -0.7438103150
       -0.9779293276       -0.8312157814
       -0.9268764349       -0.8024216451
       -0.5708817241       -0.7183737535
       -0.6206445494       -0.6299734241
       -0.6212807344       -0.6885381699
       -0.6716798582       -0.6587048841
       -0.7227153406       -0.6874373230
       -0.8247892313       -0.7449110864
       -0.7737514735       -0.7161719589
       -0.8758302442       -0.7736585527
       -0.8254426406       -0.8035265556
       -0.7743947600       -0.7747599148
       -0.7233540993       -0.7460109512
       -0.6723167821       -0.7172721330
       -0.6219194178       -0.7471104989
       -0.6729591510       -0.7758567253
       -0.8935287211       -1.2026957328
       -0.8876140446       -1.1389408486
       -0.8828608144       -1.0740674665
       -0.0498563076        0.2092808238
       -0.0496792515        0.1498721373
       -0.1019787727        0.1816915741
       -0.1020954847        0.1225905801
       -0.5638894275       -0.0741724838
       -0.6136555616        0.0142244465
       -0.5619828008        0.1015164765
       -0.5626202550        0.0429537452
       -0.5632547015       -0.0156089801
       -0.5109474731        0.1302471606
       -0.5657950666       -0.2498631777
       -0.5147585131       -0.2211336513
       -0.5153939588       -0.2796970921
       -0.5141231853       -0.1625701203
       -0.5134880375       -0.1040065042
       -0.5128530932       -0.0454428856
       -0.5122182515        0.0131205596
       -0.5115829441        0.0716838346
       -0.4139269152       -0.2808317026
       -0.4643523203       -0.2509728150
       -0.4637174209       -0.1924088388
       -0.4630826157       -0.1338448014
       -0.4624479492       -0.0752807075
       -0.4618134148       -0.0167165954
       -0.4611788713        0.0418475009
       -0.0503630368        0.3874820941
       -0.1016192859        0.3589642281
       -0.1529693502        0.3305682208
       -0.2042972524        0.3021551947
       -0.2555441498        0.2736546428
       -0.3067046077        0.2450594200
       -0.3578016729        0.2163951142
       -0.4088625957        0.1876919334
       -0.4599093201        0.1589747713
       -0.4605441723        0.1004115286
       -0.4101304087        0.0705650206
       -0.4107630295        0.0119986857
       -0.4113956519       -0.0465675197
       -0.4120283625       -0.1051336392
       -0.4126611670       -0.1636996966
       -0.4132940303       -0.2222657111
       -0.3634411554       -0.3107524517
       -0.3628148620       -0.2521798932
       -0.3621885091       -0.1936073584
       -0.3615621171       -0.1350348285
       -0.3609357194       -0.0764622717
       -0.3603093553       -0.0178896408
       -0.3596830481        0.0406831198
       -0.4094974818        0.1291316831
       -0.3584308899        0.1578289772
       -0.3073161374        0.1864762675
       -0.2052690999        0.1847345942
       -0.3590568019        0.0992560433
       -0.3079250856        0.1278860316
       -0.2566826207        0.1564000716
       -0.1539904972        0.1539843923
       -0.1543299999        0.0951152641
       -0.2057553904        0.1260172992
       -0.2572512833        0.0977679386
       -0.2062409557        0.0672994948
       -0.3085341017        0.0692955049
       -0.2578196673        0.0391356274
       -0.2067255317        0.0085814920
       -0.0494974673        0.0904638376
       -0.1022089828        0.0634892770
       -0.0493109406        0.0310561636
       -0.1546675612        0.0362457755
       -0.1023191290        0.0043878792
       -0.0491198490       -0.0283509042
       -0.2100879406       -0.4024522642
       -0.1572979344       -0.4347240057
       -0.1030938936       -0.4684337993
       -0.0476758670       -0.4441909264
       -0.1030059537       -0.4093294866
       -0.1569753085       -0.3758509820
       -0.0478917072       -0.3847856273
       -0.1029157869       -0.3502257374
       -0.0481047926       -0.3253803217
       -0.1566510887       -0.3169785445
       -0.0483148693       -0.2659749324
       -0.1028232358       -0.2911225027
       -0.1563251872       -0.2581066640
       -0.1027281407       -0.2320197322
       -0.0485216778       -0.2065693797
       -0.0487249547       -0.1471635820
       -0.0489244337       -0.0877574539
       -0.1024259850       -0.0547136407
       -0.3091431329        0.0107050075
       -0.2583876793       -0.0194967080
       -0.1025296736       -0.1138153644
       -0.1550030686       -0.0226239684
       -0.2072090495       -0.0501366807
       -0.1026303401       -0.1729173723
       -0.1559975163       -0.1992353086
       -0.3097521109       -0.0478853952
       -0.2589552631       -0.0781290811
       -0.1553365297       -0.0814940159
       -0.1556679902       -0.1403644416
       -0.2076914847       -0.1088550824
       -0.3103609851       -0.1064757482
       -0.2595223747       -0.1367615559
       -0.2081728356       -0.1675737790
       -0.3109697082       -0.1650661142
       -0.2600889889       -0.1953941895
       -0.3115782479       -0.2236565389
       -0.2086531211       -0.2262928187
       -0.2606551004       -0.2540270179
       -0.2091323736       -0.2850122326
       -0.2096106328       -0.3437320421
       -0.3121865886       -0.2822470486
       -0.2612207172       -0.3126600612
       -0.3127947272       -0.3408376564
       -0.2617858543       -0.3712933312
       -0.4649872677       -0.3095367482
       -0.4656222328       -0.3681006599
       -0.4662572003       -0.4266645646
       -0.4668921641       -0.4852284703
       -0.4145597969       -0.3393976878
       -0.4151926631       -0.3979636780
       -0.4158255092       -0.4565296792
       -0.4164583343       -0.5150956965
       -0.0474575203       -0.5035962951
       -0.3653196215       -0.4864703518
       -0.4675271237       -0.5437923878
       -0.4681620910       -0.6023563960
       -0.4177239476       -0.6322281004
       -0.4170911408       -0.5736617588
       -0.3659456399       -0.5450430803
       -0.3665715958       -0.6036159480
       -0.3640673807       -0.3693250444
       -0.3646935358       -0.4278976766
       -0.3134026666       -0.3994283692
       -0.2623505290       -0.4299268364
       -0.2105643399       -0.4611729142
       -0.1576190534       -0.4935976437
       -0.0472369095       -0.5630018086
       -0.1031797614       -0.5275387234
       -0.3140104126       -0.4580191916
       -0.2629147596       -0.4885605845
       -0.2110398733       -0.5198940086
       -0.1579387524       -0.5524719286
       -0.0470142757       -0.6224075562
       -0.1032637121       -0.5866443172
       -0.3146179721       -0.5166101291
       -0.2634785650       -0.5471945903
       -0.2115145864       -0.5786155840
       -0.1582571286       -0.6113469426
       -0.0467898950       -0.6818137386
       -0.1033459273       -0.6457507346
       -0.3152253526       -0.5752012123
       -0.0465642980       -0.7412212029
       -0.1034267930       -0.7048587476
       -0.1585743696       -0.6702231317
       -0.2119885512       -0.6373378479
       -0.2640419693       -0.6058289376
       -0.5738854218       -0.9539805831
       -0.5237377246       -0.9850090278
       -0.1592112556       -0.7879984234
       -0.5204813149       -0.7482164443
       -0.4700720201       -0.7780797912
       -0.4694328891       -0.7194899381
       -0.4183568805       -0.6907962846
       -0.3158325681       -0.6337926756
       -0.1588912248       -0.7291030138
       -0.2124620253       -0.6960621014
       -0.2646050373       -0.6644642091
       -0.4189906099       -0.7493746724
       -0.1035078516       -0.7639722592
       -0.0463393346       -0.8006337069
       -0.1035959141       -0.8231076644
       -0.0461223589       -0.8600652650
       -0.0459397164       -0.9195575675
       -0.1061407862       -1.0626592877
       -0.3671975115       -0.6621895872
       -0.3164396755       -0.6923860628
       -0.2129362868       -0.7547951788
       -0.2651680832       -0.7231038299
       -0.3678235073       -0.7207677601
       -0.3170469475       -0.7509895693
       -0.4196279577       -0.8079991478
       -0.2694648655       -1.0838768184
       -0.0458735353       -0.9792060189
       -0.1045671233       -1.0017191129
       -0.1618518253       -1.0265226261
       -0.2169854086       -1.0540118353
       -0.2154168191       -0.9920138653
       -0.1605952526       -0.9657694462
       -0.1039595136       -0.9417569983
       -0.3684501010       -0.7793684271
       -0.3690788085       -0.8380602525
       -0.2657326124       -0.7817640309
       -0.1037174352       -0.8823202295
       -0.1595494378       -0.8469541386
       -0.2134171338       -0.8135660172
       -0.2683982459       -1.0204003309
       -0.3176554246       -0.8096380728
       -0.2663045969       -0.8405063575
       -0.1599586270       -0.9061049944
       -0.2139265159       -0.8724724446
       -0.3182677107       -0.8684499887
       -0.2145331464       -0.9317755636
       -0.2669028758       -0.8995159944
       -0.2675734415       -0.9592272590
       -0.4845691553       -1.2175934771
       -0.4240768032       -1.1887034461
       -0.3153932131       -1.1871322183
       -0.3696046826       -1.1507266822
       -0.4785014311       -1.1496297175
       -0.4234436405       -1.1162421896
       -0.3194333134       -1.1164685186
       -0.3709917851       -1.0827529489
       -0.4752692147       -1.0812441731
       -0.4225745810       -1.0495278026
       -0.3198969968       -1.0507339969
       -0.3708774286       -1.0183485576
       -0.4734260439       -1.0168568781
       -0.4217218406       -0.9866145581
       -0.3194825565       -0.9881717405
       -0.3188851617       -0.9277426039
       -0.3703375679       -0.9568439899
       -0.3697113655       -0.8970522170
       -0.4209637466       -0.9260922106
       -0.4202781487       -0.8667929459
       -0.4722646419       -0.9554450740
       -0.4714269143       -0.8957159020
       -0.4707253160       -0.8367554130
       -0.5226203729       -0.9247784824
       -0.5218154431       -0.8655881372
       -0.5211294270       -0.8068297617
       -0.5715240382       -0.7769582263
       -0.5721888216       -0.8356126938
       -0.6225694868       -0.8057170683
       -0.8400303065       -1.1843965359
       -0.5729301117       -0.8944964321
       -0.6240801838       -0.9235416152
       -0.6232617040       -0.8644481876
       -0.6736236600       -0.8345118611
       -0.7240046425       -0.8046237417
       -0.6743607074       -0.8933987490
       -0.7246982501       -0.8633806696
       -0.7750635828       -0.8334291308
       -0.6830631617       -1.2045345424
       -0.7884310350       -1.2171282443
       -0.7316507913       -1.1845575216
       -0.5818124046       -1.1416297766
       -0.6323641267       -1.1667749464
       -0.6806367214       -1.1410571523
       -0.6293978298       -1.1071856806
       -0.7839150047       -1.1469345398
       -0.5753364429       -1.0146972467
       -0.6268997624       -1.0447518251
       -0.6784310454       -1.0764055006
       -0.7303181376       -1.1112283679
       -0.6252023899       -0.9834600179
       -0.6765914880       -1.0136621637
       -0.8339319017       -1.1103604723
       -0.7805706537       -1.0777937632
       -0.7282359454       -1.0451794385
       -0.6752866414       -0.9528963627
       -0.7266287284       -0.9828144391
       -0.7255181059       -0.9225696481
       -0.7758174354       -0.8923680773
       -0.8261486379       -0.8622898248
       -0.8765029682       -0.8323201291
       -0.7782734680       -1.0133672420
       -0.7767999591       -0.9520416652
       -0.8270154195       -0.9214892514
       -0.8772726536       -0.8912146258
       -0.9275797431       -0.8611559908
       -0.8303831932       -1.0441450084
       -0.8282846883       -0.9817470839
       -0.8799823234       -1.0114035070
       -0.8783135664       -0.9507017544
       -0.9353658125       -1.1025261652
       -0.9317550751       -1.0407778380
       -0.9296840026       -0.9799649942
       -0.9284372267       -0.9202176029
       -0.9786727817       -0.8900695712
       -1.0289900824       -0.8600690340
       -0.9832307313       -1.0702611587
       -0.9810270924       -1.0094184677
       -0.9796240033       -0.9493674405
       -1.0322487039       -1.0395146069
       -1.0308154760       -0.9788294574
       -1.0297805697       -0.9191282857
       -1.0820764884       -1.0087910077
       -1.0809107857       -0.9484036490
       -1.0793511250       -0.8301308777
       -1.0800599561       -0.8890162603
       -1.1320500028       -0.9778591976
       -1.1311319637       -0.9180802584
       -1.2317973649       -0.8578881932
       -1.1814354540       -0.8879214172
       -1.1821660908       -0.9473103905
       -1.2324417010       -0.9170132600
       -1.2330945123       -0.9769027368
       -1.2821883861       -0.8279355173
       -1.2828097564       -0.8868629353
       -1.2833975316       -0.9464113016
       -1.3325883585       -0.7980338406
       -1.3332099405       -0.8568166842
       -1.3337956346       -0.9160352942
       -1.3342860465       -0.9762513638
       -1.2838943389       -1.0072198905
       -1.2841812084       -1.0701556891
       -1.2841783073       -1.1359869228
       -1.6375918576       -0.8537695054
       -1.6380428449       -0.9131350218
       -1.5245894866       -1.1492057587
       -1.5330189065       -1.0982540057
       -1.9130175758       -1.1842722810
       -1.8499260395       -1.2051400232
       -1.7906530260       -1.1863820431
       -1.7311437958       -1.2035519573
       -1.6793793943       -1.1809558488
       -1.6078549769       -1.1853712853
       -1.5502638324       -1.1851391769
       -1.4824259991       -1.1811983417
       -1.4284766595       -1.2074288688
       -1.4363135190       -1.1607073683
       -1.4830388464       -1.1303459837
       -1.6381670683       -0.9734470112
       -1.5856590830       -1.0683489206
       -1.5870226135       -0.8838189151
       -1.5870439133       -1.0047397951
       -1.5873111391       -0.9436130756