TITLE = "Visualization of the volumetric solution"
VARIABLES = "x","y","Density","Momentum_x","Momentum_y","Energy","Pressure","Temperature","Mach","C<sub>p</sub>","Roe_Dissipation"
ZONE NODES= 1080, ELEMENTS= 1003, DATAPACKING=POINT, ZONETYPE=FEQUADRILATERAL
0.000000e+00	1.000000e+00	1.223944e+00	2.680433e+01	-2.952857e-01	2.533192e+05	1.012102e+05	2.880669e+02	6.436864e-02	-6.471521e-01	0.000000e+00	
0.000000e+00	9.661017e-01	1.223944e+00	2.680431e+01	-2.943423e-01	2.533193e+05	1.012103e+05	2.880669e+02	6.436854e-02	-6.469358e-01	0.000000e+00	
2.941176e-02	9.661017e-01	1.224376e+00	2.679595e+01	-2.160857e+00	2.534403e+05	1.012581e+05	2.881014e+02	6.452686e-02	-3.773587e-01	0.000000e+00	
2.941176e-02	1.000000e+00	1.224376e+00	2.679573e+01	-2.160790e+00	2.534404e+05	1.012581e+05	2.881014e+02	6.452630e-02	-3.773224e-01	0.000000e+00	
0.000000e+00	9.322034e-01	1.223944e+00	2.680433e+01	-2.938361e-01	2.533192e+05	1.012103e+05	2.880669e+02	6.436860e-02	-6.470998e-01	0.000000e+00	
2.941176e-02	9.322034e-01	1.224376e+00	2.679590e+01	-2.160752e+00	2.534404e+05	1.012581e+05	2.881014e+02	6.452670e-02	-3.772791e-01	0.000000e+00	
0.000000e+00	8.983051e-01	1.223944e+00	2.680442e+01	-2.935643e-01	2.533192e+05	1.012102e+05	2.880669e+02	6.436881e-02	-6.471620e-01	0.000000e+00	
2.941176e-02	8.983051e-01	1.224376e+00	2.679587e+01	-2.160688e+00	2.534404e+05	1.012581e+05	2.881014e+02	6.452662e-02	-3.772488e-01	0.000000e+00	
0.000000e+00	8.644068e-01	1.223944e+00	2.680449e+01	-2.934311e-01	2.533192e+05	1.012102e+05	2.880669e+02	6.436896e-02	-6.471796e-01	0.000000e+00	
2.941176e-02	8.644068e-01	1.224376e+00	2.679586e+01	-2.160653e+00	2.534404e+05	1.012581e+05	2.881014e+02	6.452659e-02	-3.772219e-01	0.000000e+00	
0.000000e+00	8.305085e-01	1.223944e+00	2.680452e+01	-2.933698e-01	2.533191e+05	1.012102e+05	2.880669e+02	6.436904e-02	-6.471901e-01	0.000000e+00	
2.941176e-02	8.305085e-01	1.224376e+00	2.679586e+01	-2.160643e+00	2.534404e+05	1.012581e+05	2.881014e+02	6.452659e-02	-3.772119e-01	0.000000e+00	
0.000000e+00	7.966102e-01	1.223944e+00	2.680453e+01	-2.933364e-01	2.533191e+05	1.012102e+05	2.880669e+02	6.436905e-02	-6.471936e-01	0.000000e+00	
2.941176e-02	7.966102e-01	1.224376e+00	2.679586e+01	-2.160637e+00	2.534404e+05	1.012581e+05	2.881014e+02	6.452657e-02	-3.772029e-01	0.000000e+00	
0.000000e+00	7.627119e-01	1.223944e+00	2.680452e+01	-2.933170e-01	2.533191e+05	1.012102e+05	2.880669e+02	6.436905e-02	-6.471963e-01	0.000000e+00	
2.941176e-02	7.627119e-01	1.224376e+00	2.679585e+01	-2.160635e+00	2.534404e+05	1.012581e+05	2.881014e+02	6.452656e-02	-3.771990e-01	0.000000e+00	
0.000000e+00	7.288136e-01	1.223944e+00	2.680452e+01	-2.933050e-01	2.533191e+05	1.012102e+05	2.880669e+02	6.436904e-02	-6.471975e-01	0.000000e+00	
2.941176e-02	7.288136e-01	1.224376e+00	2.679584e+01	-2.160633e+00	2.534404e+05	1.012581e+05	2.881014e+02	6.452654e-02	-3.771958e-01	0.000000e+00	
0.000000e+00	6.949153e-01	1.223944e+00	2.680452e+01	-2.932980e-01	2.533191e+05	1.012102e+05	2.880669e+02	6.436904e-02	-6.471984e-01	0.000000e+00	
2.941176e-02	6.949153e-01	1.224376e+00	2.679584e+01	-2.160633e+00	2.534404e+05	1.012581e+05	2.881014e+02	6.452653e-02	-3.771942e-01	0.000000e+00	
0.000000e+00	6.610169e-01	1.223944e+00	2.680451e+01	-2.932941e-01	2.533191e+05	1.012102e+05	2.880669e+02	6.436903e-02	-6.471987e-01	0.000000e+00	
2.941176e-02	6.610169e-01	1.224376e+00	2.679583e+01	-2.160632e+00	2.534404e+05	1.012581e+05	2.881014e+02	6.452652e-02	-3.771929e-01	0.000000e+00	
0.000000e+00	6.271186e-01	1.223944e+00	2.680451e+01	-2.932920e-01	2.533191e+05	1.012102e+05	2.880669e+02	6.436902e-02	-6.471989e-01	0.000000e+00	
2.941176e-02	6.271186e-01	1.224376e+00	2.679583e+01	-2.160633e+00	2.534404e+05	1.012581e+05	2.881014e+02	6.452651e-02	-3.771922e-01	0.000000e+00	
0.000000e+00	5.932203e-01	1.223944e+00	2.680451e+01	-2.932908e-01	2.533191e+05	1.012102e+05	2.880669e+02	6.436902e-02	-6.471990e-01	0.000000e+00	
2.941176e-02	5.932203e-01	1.224376e+00	2.679583e+01	-2.160633e+00	2.534404e+05	1.012581e+05	2.881014e+02	6.452650e-02	-3.771917e-01	0.000000e+00	
0.000000e+00	5.593220e-01	1.223944e+00	2.680451e+01	-2.932901e-01	2.533191e+05	1.012102e+05	2.880669e+02	6.436901e-02	-6.471990e-01	0.000000e+00	
2.941176e-02	5.593220e-01	1.224376e+00	2.679583e+01	-2.160633e+00	2.534404e+05	1.012581e+05	2.881014e+02	6.452650e-02	-3.771913e-01	0.000000e+00	
0.000000e+00	5.254237e-01	1.223944e+00	2.680451e+01	-2.932896e-01	2.533191e+05	1.012102e+05	2.880669e+02	6.436901e-02	-6.471989e-01	0.000000e+00	
2.941176e-02	5.254237e-01	1.224376e+00	2.679582e+01	-2.160634e+00	2.534404e+05	1.012581e+05	2.881014e+02	6.452649e-02	-3.771910e-01	0.000000e+00	
0.000000e+00	4.915254e-01	1.223944e+00	2.680450e+01	-2.932894e-01	2.533191e+05	1.012102e+05	2.880669e+02	6.436900e-02	-6.471989e-01	0.000000e+00	
2.941176e-02	4.915254e-01	1.224376e+00	2.679582e+01	-2.160634e+00	2.534404e+05	1.012581e+05	2.881014e+02	6.452649e-02	-3.771908e-01	0.000000e+00	
0.000000e+00	4.576271e-01	1.223944e+00	2.680450e+01	-2.932892e-01	2.533191e+05	1.012102e+05	2.880669e+02	6.436900e-02	-6.471988e-01	0.000000e+00	
2.941176e-02	4.576271e-01	1.224376e+00	2.679582e+01	-2.160634e+00	2.534404e+05	1.012581e+05	2.881014e+02	6.452649e-02	-3.771906e-01	0.000000e+00	
0.000000e+00	4.237288e-01	1.223944e+00	2.680450e+01	-2.932892e-01	2.533191e+05	1.012102e+05	2.880669e+02	6.436900e-02	-6.471988e-01	0.000000e+00	
2.941176e-02	4.237288e-01	1.224376e+00	2.679582e+01	-2.160635e+00	2.534404e+05	1.012581e+05	2.881014e+02	6.452648e-02	-3.771905e-01	0.000000e+00	
0.000000e+00	3.898305e-01	1.223944e+00	2.680450e+01	-2.932893e-01	2.533191e+05	1.012102e+05	2.880669e+02	6.436900e-02	-6.471987e-01	0.000000e+00	
2.941176e-02	3.898305e-01	1.224376e+00	2.679582e+01	-2.160635e+00	2.534404e+05	1.012581e+05	2.881014e+02	6.452648e-02	-3.771904e-01	0.000000e+00	
0.000000e+00	3.559322e-01	1.223944e+00	2.680450e+01	-2.932895e-01	2.533191e+05	1.012102e+05	2.880669e+02	6.436900e-02	-6.471987e-01	0.000000e+00	
2.941176e-02	3.559322e-01	1.224376e+00	2.679582e+01	-2.160635e+00	2.534404e+05	1.012581e+05	2.881014e+02	6.452648e-02	-3.771903e-01	0.000000e+00	
0.000000e+00	3.220339e-01	1.223944e+00	2.680450e+01	-2.932897e-01	2.533191e+05	1.012102e+05	2.880669e+02	6.436900e-02	-6.471986e-01	0.000000e+00	
2.941176e-02	3.220339e-01	1.224376e+00	2.679582e+01	-2.160635e+00	2.534404e+05	1.012581e+05	2.881014e+02	6.452648e-02	-3.771903e-01	0.000000e+00	
0.000000e+00	2.881356e-01	1.223944e+00	2.680450e+01	-2.932899e-01	2.533191e+05	1.012102e+05	2.880669e+02	6.436900e-02	-6.471986e-01	0.000000e+00	
2.941176e-02	2.881356e-01	1.224376e+00	2.679582e+01	-2.160636e+00	2.534404e+05	1.012581e+05	2.881014e+02	6.452648e-02	-3.771903e-01	0.000000e+00	
0.000000e+00	2.542373e-01	1.223944e+00	2.680450e+01	-2.932901e-01	2.533191e+05	1.012102e+05	2.880669e+02	6.436900e-02	-6.471986e-01	0.000000e+00	
2.941176e-02	2.542373e-01	1.224376e+00	2.679582e+01	-2.160636e+00	2.534404e+05	1.012581e+05	2.881014e+02	6.452648e-02	-3.771902e-01	0.000000e+00	
0.000000e+00	2.203390e-01	1.223944e+00	2.680450e+01	-2.932904e-01	2.533191e+05	1.012102e+05	2.880669e+02	6.436899e-02	-6.471986e-01	0.000000e+00	
2.941176e-02	2.203390e-01	1.224376e+00	2.679582e+01	-2.160636e+00	2.534404e+05	1.012581e+05	2.881014e+02	6.452648e-02	-3.771902e-01	0.000000e+00	
0.000000e+00	1.864407e-01	1.223944e+00	2.680450e+01	-2.932906e-01	2.533191e+05	1.012102e+05	2.880669e+02	6.436899e-02	-6.471986e-01	0.000000e+00	
2.941176e-02	1.864407e-01	1.224376e+00	2.679582e+01	-2.160636e+00	2.534404e+05	1.012581e+05	2.881014e+02	6.452648e-02	-3.771902e-01	0.000000e+00	
0.000000e+00	1.525424e-01	1.223944e+00	2.680450e+01	-2.932908e-01	2.533191e+05	1.012102e+05	2.880669e+02	6.436899e-02	-6.471986e-01	0.000000e+00	
2.941176e-02	1.525424e-01	1.224376e+00	2.679582e+01	-2.160637e+00	2.534404e+05	1.012581e+05	2.881014e+02	6.452648e-02	-3.771902e-01	0.000000e+00	
0.000000e+00	1.186441e-01	1.223944e+00	2.680450e+01	-2.932910e-01	2.533191e+05	1.012102e+05	2.880669e+02	6.436899e-02	-6.471985e-01	0.000000e+00	
2.941176e-02	1.186441e-01	1.224376e+00	2.679582e+01	-2.160637e+00	2.534404e+05	1.012581e+05	2.881014e+02	6.452648e-02	-3.771902e-01	0.000000e+00	
0.000000e+00	8.474576e-02	1.223944e+00	2.680450e+01	-2.932912e-01	2.533191e+05	1.012102e+05	2.880669e+02	6.436899e-02	-6.471985e-01	0.000000e+00	
2.941176e-02	8.474576e-02	1.224376e+00	2.679582e+01	-2.160637e+00	2.534404e+05	1.012581e+05	2.881014e+02	6.452648e-02	-3.771902e-01	0.000000e+00	
0.000000e+00	5.084746e-02	1.223944e+00	2.680450e+01	-2.932914e-01	2.533191e+05	1.012102e+05	2.880669e+02	6.436899e-02	-6.471985e-01	0.000000e+00	
2.941176e-02	5.084746e-02	1.224376e+00	2.679582e+01	-2.160637e+00	2.534404e+05	1.012581e+05	2.881014e+02	6.452648e-02	-3.771902e-01	0.000000e+00	
0.000000e+00	1.694915e-02	1.223944e+00	2.680450e+01	-2.932916e-01	2.533191e+05	1.012102e+05	2.880669e+02	6.436899e-02	-6.471986e-01	0.000000e+00	
2.941176e-02	1.694915e-02	1.224376e+00	2.679582e+01	-2.160637e+00	2.534404e+05	1.012581e+05	2.881014e+02	6.452648e-02	-3.771902e-01	0.000000e+00	
0.000000e+00	-1.694915e-02	1.223944e+00	2.680450e+01	-2.932918e-01	2.533191e+05	1.012102e+05	2.880669e+02	6.436899e-02	-6.471986e-01	0.000000e+00	
2.941176e-02	-1.694915e-02	1.224376e+00	2.679582e+01	-2.160638e+00	2.534404e+05	1.012581e+05	2.881014e+02	6.452648e-02	-3.771902e-01	0.000000e+00	
0.000000e+00	-5.084746e-02	1.223944e+00	2.680450e+01	-2.932919e-01	2.533191e+05	1.012102e+05	2.880669e+02	6.436899e-02	-6.471986e-01	0.000000e+00	
2.941176e-02	-5.084746e-02	1.224376e+00	2.679582e+01	-2.160638e+00	2.534404e+05	1.012581e+05	2.881014e+02	6.452648e-02	-3.771903e-01	0.000000e+00	
0.000000e+00	-8.474576e-02	1.223944e+00	2.680450e+01	-2.932921e-01	2.533191e+05	1.012102e+05	2.880669e+02	6.436900e-02	-6.471986e-01	0.000000e+00	
2.941176e-02	-8.474576e-02	1.224376e+00	2.679582e+01	-2.160638e+00	2.534404e+05	1.012581e+05	2.881014e+02	6.452648e-02	-3.771903e-01	0.000000e+00	
0.000000e+00	-1.186441e-01	1.223944e+00	2.680450e+01	-2.932923e-01	2.533191e+05	1.012102e+05	2.880669e+02	6.436900e-02	-6.471986e-01	0.000000e+00	
2.941176e-02	-1.186441e-01	1.224376e+00	2.679582e+01	-2.160638e+00	2.534404e+05	1.012581e+05	2.881014e+02	6.452648e-02	-3.771903e-01	0.000000e+00	
0.000000e+00	-1.525424e-01	1.223944e+00	2.680450e+01	-2.932925e-01	2.533191e+05	1.012102e+05	2.880669e+02	6.436900e-02	-6.471986e-01	0.000000e+00	
2.941176e-02	-1.525424e-01	1.224376e+00	2.679582e+01	-2.160638e+00	2.534404e+05	1.012581e+05	2.881014e+02	6.452648e-02	-3.771903e-01	0.000000e+00	
0.000000e+00	-1.864407e-01	1.223944e+00	2.680450e+01	-2.932926e-01	2.533191e+05	1.012102e+05	2.880669e+02	6.436900e-02	-6.471986e-01	0.000000e+00	
2.941176e-02	-1.864407e-01	1.224376e+00	2.679582e+01	-2.160638e+00	2.534404e+05	1.012581e+05	2.881014e+02	6.452648e-02	-3.771904e-01	0.000000e+00	
0.000000e+00	-2.203390e-01	1.223944e+00	2.680450e+01	-2.932928e-01	2.533191e+05	1.012102e+05	2.880669e+02	6.436900e-02	-6.471987e-01	0.000000e+00	
2.941176e-02	-2.203390e-01	1.224376e+00	2.679582e+01	-2.160638e+00	2.534404e+05	1.012581e+05	2.881014e+02	6.452648e-02	-3.771904e-01	0.000000e+00	
0.000000e+00	-2.542373e-01	1.223944e+00	2.680450e+01	-2.932930e-01	2.533191e+05	1.012102e+05	2.880669e+02	6.436900e-02	-6.471987e-01	0.000000e+00	
2.941176e-02	-2.542373e-01	1.224376e+00	2.679582e+01	-2.160638e+00	2.534404e+05	1.012581e+05	2.881014e+02	6.452648e-02	-3.771904e-01	0.000000e+00	
0.000000e+00	-2.881356e-01	1.223944e+00	2.680450e+01	-2.932932e-01	2.533191e+05	1.012102e+05	2.880669e+02	6.436900e-02	-6.471987e-01	0.000000e+00	
2.941176e-02	-2.881356e-01	1.224376e+00	2.679582e+01	-2.160639e+00	2.534404e+05	1.012581e+05	2.881014e+02	6.452648e-02	-3.771905e-01	0.000000e+00	
0.000000e+00	-3.220339e-01	1.223944e+00	2.680450e+01	-2.932934e-01	2.533191e+05	1.012102e+05	2.880669e+02	6.436900e-02	-6.471987e-01	0.000000e+00	
2.941176e-02	-3.220339e-01	1.224376e+00	2.679582e+01	-2.160639e+00	2.534404e+05	1.012581e+05	2.881014e+02	6.452648e-02	-3.771905e-01	0.000000e+00	
0.000000e+00	-3.559322e-01	1.223944e+00	2.680450e+01	-2.932935e-01	2.533191e+05	1.012102e+05	2.880669e+02	6.436900e-02	-6.471988e-01	0.000000e+00	
2.941176e-02	-3.559322e-01	1.224376e+00	2.679582e+01	-2.160639e+00	2.534404e+05	1.012581e+05	2.881014e+02	6.452648e-02	-3.771905e-01	0.000000e+00	
0.000000e+00	-3.898305e-01	1.223944e+00	2.680450e+01	-2.932937e-01	2.533191e+05	1.012102e+05	2.880669e+02	6.436900e-02	-6.471988e-01	0.000000e+00	
2.941176e-02	-3.898305e-01	1.224376e+00	2.679582e+01	-2.160639e+00	2.534404e+05	1.012581e+05	2.881014e+02	6.452648e-02	-3.771906e-01	0.000000e+00	
0.000000e+00	-4.237288e-01	1.223944e+00	2.680450e+01	-2.932939e-01	2.533191e+05	1.012102e+05	2.880669e+02	6.436900e-02	-6.471989e-01	0.000000e+00	
2.941176e-02	-4.237288e-01	1.224376e+00	2.679582e+01	-2.160639e+00	2.534404e+05	1.012581e+05	2.881014e+02	6.452648e-02	-3.771906e-01	0.000000e+00	
0.000000e+00	-4.576271e-01	1.223944e+00	2.680450e+01	-2.932942e-01	2.533191e+05	1.012102e+05	2.880669e+02	6.436900e-02	-6.471989e-01	0.000000e+00	
2.941176e-02	-4.576271e-01	1.224376e+00	2.679582e+01	-2.160639e+00	2.534404e+05	1.012581e+05	2.881014e+02	6.452649e-02	-3.771907e-01	0.000000e+00	
0.000000e+00	-4.915254e-01	1.223944e+00	2.680450e+01	-2.932945e-01	2.533191e+05	1.012102e+05	2.880669e+02	6.436900e-02	-6.471990e-01	0.000000e+00	
2.941176e-02	-4.915254e-01	1.224376e+00	2.679582e+01	-2.160640e+00	2.534404e+05	1.012581e+05	2.881014e+02	6.452649e-02	-3.771907e-01	0.000000e+00	
0.000000e+00	-5.254237e-01	1.223944e+00	2.680450e+01	-2.932948e-01	2.533191e+05	1.012102e+05	2.880669e+02	6.436900e-02	-6.471990e-01	0.000000e+00	
2.941176e-02	-5.254237e-01	1.224376e+00	2.679582e+01	-2.160640e+00	2.534404e+05	1.012581e+05	2.881014e+02	6.452649e-02	-3.771908e-01	0.000000e+00	
0.000000e+00	-5.593220e-01	1.223944e+00	2.680451e+01	-2.932953e-01	2.533191e+05	1.012102e+05	2.880669e+02	6.436901e-02	-6.471991e-01	0.000000e+00	
2.941176e-02	-5.593220e-01	1.224376e+00	2.679582e+01	-2.160640e+00	2.534404e+05	1.012581e+05	2.881014e+02	6.452649e-02	-3.771908e-01	0.000000e+00	
0.000000e+00	-5.932203e-01	1.223944e+00	2.680451e+01	-2.932959e-01	2.533191e+05	1.012102e+05	2.880669e+02	6.436901e-02	-6.471992e-01	0.000000e+00	
2.941176e-02	-5.932203e-01	1.224376e+00	2.679583e+01	-2.160640e+00	2.534404e+05	1.012581e+05	2.881014e+02	6.452650e-02	-3.771909e-01	0.000000e+00	
0.000000e+00	-6.271186e-01	1.223944e+00	2.680451e+01	-2.932968e-01	2.533191e+05	1.012102e+05	2.880669e+02	6.436902e-02	-6.471993e-01	0.000000e+00	
2.941176e-02	-6.271186e-01	1.224376e+00	2.679583e+01	-2.160641e+00	2.534404e+05	1.012581e+05	2.881014e+02	6.452650e-02	-3.771910e-01	0.000000e+00	
0.000000e+00	-6.610169e-01	1.223944e+00	2.680451e+01	-2.932983e-01	2.533191e+05	1.012102e+05	2.880669e+02	6.436902e-02	-6.471996e-01	0.000000e+00	
2.941176e-02	-6.610169e-01	1.224376e+00	2.679583e+01	-2.160642e+00	2.534404e+05	1.012581e+05	2.881014e+02	6.452651e-02	-3.771912e-01	0.000000e+00	
0.000000e+00	-6.949153e-01	1.223944e+00	2.680451e+01	-2.933010e-01	2.533191e+05	1.012102e+05	2.880669e+02	6.436903e-02	-6.472000e-01	0.000000e+00	
2.941176e-02	-6.949153e-01	1.224376e+00	2.679583e+01	-2.160644e+00	2.534404e+05	1.012581e+05	2.881014e+02	6.452651e-02	-3.771912e-01	0.000000e+00	
0.000000e+00	-7.288136e-01	1.223944e+00	2.680451e+01	-2.933049e-01	2.533191e+05	1.012102e+05	2.880669e+02	6.436902e-02	-6.472008e-01	0.000000e+00	
2.941176e-02	-7.288136e-01	1.224376e+00	2.679583e+01	-2.160646e+00	2.534404e+05	1.012581e+05	2.881014e+02	6.452650e-02	-3.771914e-01	0.000000e+00	
0.000000e+00	-7.627119e-01	1.223944e+00	2.680451e+01	-2.933098e-01	2.533191e+05	1.012102e+05	2.880669e+02	6.436902e-02	-6.472015e-01	0.000000e+00	
2.941176e-02	-7.627119e-01	1.224376e+00	2.679583e+01	-2.160647e+00	2.534404e+05	1.012581e+05	2.881014e+02	6.452650e-02	-3.771906e-01	0.000000e+00	
0.000000e+00	-7.966102e-01	1.223944e+00	2.680451e+01	-2.933152e-01	2.533191e+05	1.012102e+05	2.880669e+02	6.436901e-02	-6.472032e-01	0.000000e+00	
2.941176e-02	-7.966102e-01	1.224376e+00	2.679582e+01	-2.160646e+00	2.534404e+05	1.012581e+05	2.881014e+02	6.452649e-02	-3.771906e-01	0.000000e+00	
0.000000e+00	-8.305085e-01	1.223944e+00	2.680451e+01	-2.933265e-01	2.533191e+05	1.012102e+05	2.880669e+02	6.436902e-02	-6.472047e-01	0.000000e+00	
2.941176e-02	-8.305085e-01	1.224376e+00	2.679581e+01	-2.160647e+00	2.534404e+05	1.012581e+05	2.881014e+02	6.452647e-02	-3.771867e-01	0.000000e+00	
0.000000e+00	-8.644068e-01	1.223944e+00	2.680453e+01	-2.933613e-01	2.533191e+05	1.012102e+05	2.880669e+02	6.436906e-02	-6.472138e-01	0.000000e+00	
2.941176e-02	-8.644068e-01	1.224376e+00	2.679579e+01	-2.160656e+00	2.534404e+05	1.012581e+05	2.881014e+02	6.452641e-02	-3.771864e-01	0.000000e+00	
0.000000e+00	-8.983051e-01	1.223944e+00	2.680454e+01	-2.934789e-01	2.533191e+05	1.012102e+05	2.880669e+02	6.436911e-02	-6.472278e-01	0.000000e+00	
2.941176e-02	-8.983051e-01	1.224376e+00	2.679572e+01	-2.160705e+00	2.534404e+05	1.012581e+05	2.881014e+02	6.452625e-02	-3.771709e-01	0.000000e+00	
0.000000e+00	-9.322034e-01	1.223944e+00	2.680454e+01	-2.937540e-01	2.533191e+05	1.012102e+05	2.880669e+02	6.436912e-02	-6.472942e-01	0.000000e+00	
2.941176e-02	-9.322034e-01	1.224376e+00	2.679558e+01	-2.160794e+00	2.534404e+05	1.012581e+05	2.881014e+02	6.452595e-02	-3.771659e-01	0.000000e+00	
0.000000e+00	-9.661017e-01	1.223943e+00	2.680441e+01	-2.942764e-01	2.533190e+05	1.012102e+05	2.880669e+02	6.436885e-02	-6.474816e-01	0.000000e+00	
2.941176e-02	-9.661017e-01	1.224376e+00	2.679543e+01	-2.160963e+00	2.534405e+05	1.012581e+05	2.881014e+02	6.452561e-02	-3.770723e-01	0.000000e+00	
5.882353e-02	9.661017e-01	1.224666e+00	2.679998e+01	-3.793416e+00	2.535292e+05	1.012920e+05	2.881295e+02	6.495034e-02	-1.860139e-01	0.000000e+00	
5.882353e-02	1.000000e+00	1.224667e+00	2.679982e+01	-3.793184e+00	2.535292e+05	1.012920e+05	2.881295e+02	6.494988e-02	-1.858876e-01	0.000000e+00	
5.882353e-02	9.322034e-01	1.224667e+00	2.680004e+01	-3.793463e+00	2.535292e+05	1.012920e+05	2.881295e+02	6.495050e-02	-1.859501e-01	0.000000e+00	
5.882353e-02	8.983051e-01	1.224667e+00	2.680007e+01	-3.793510e+00	2.535292e+05	1.012920e+05	2.881295e+02	6.495059e-02	-1.859706e-01	0.000000e+00	
5.882353e-02	8.644068e-01	1.224667e+00	2.680008e+01	-3.793519e+00	2.535292e+05	1.012920e+05	2.881295e+02	6.495061e-02	-1.859651e-01	0.000000e+00	
5.882353e-02	8.305085e-01	1.224667e+00	2.680008e+01	-3.793528e+00	2.535292e+05	1.012920e+05	2.881295e+02	6.495063e-02	-1.859698e-01	0.000000e+00	
5.882353e-02	7.966102e-01	1.224667e+00	2.680008e+01	-3.793532e+00	2.535292e+05	1.012920e+05	2.881295e+02	6.495063e-02	-1.859690e-01	0.000000e+00	
5.882353e-02	7.627119e-01	1.224667e+00	2.680008e+01	-3.793535e+00	2.535292e+05	1.012920e+05	2.881295e+02	6.495062e-02	-1.859702e-01	0.000000e+00	
5.882353e-02	7.288136e-01	1.224667e+00	2.680007e+01	-3.793537e+00	2.535292e+05	1.012920e+05	2.881295e+02	6.495060e-02	-1.859699e-01	0.000000e+00	
5.882353e-02	6.949153e-01	1.224667e+00	2.680007e+01	-3.793538e+00	2.535292e+05	1.012920e+05	2.881295e+02	6.495059e-02	-1.859702e-01	0.000000e+00	
5.882353e-02	6.610169e-01	1.224667e+00	2.680006e+01	-3.793540e+00	2.535292e+05	1.012920e+05	2.881295e+02	6.495058e-02	-1.859700e-01	0.000000e+00	
5.882353e-02	6.271186e-01	1.224667e+00	2.680006e+01	-3.793541e+00	2.535292e+05	1.012920e+05	2.881295e+02	6.495058e-02	-1.859699e-01	0.000000e+00	
5.882353e-02	5.932203e-01	1.224667e+00	2.680006e+01	-3.793542e+00	2.535292e+05	1.012920e+05	2.881295e+02	6.495057e-02	-1.859697e-01	0.000000e+00	
5.882353e-02	5.593220e-01	1.224667e+00	2.680005e+01	-3.793543e+00	2.535292e+05	1.012920e+05	2.881295e+02	6.495057e-02	-1.859696e-01	0.000000e+00	
5.882353e-02	5.254237e-01	1.224667e+00	2.680005e+01	-3.793544e+00	2.535292e+05	1.012920e+05	2.881295e+02	6.495056e-02	-1.859695e-01	0.000000e+00	
5.882353e-02	4.915254e-01	1.224667e+00	2.680005e+01	-3.793544e+00	2.535292e+05	1.012920e+05	2.881295e+02	6.495056e-02	-1.859694e-01	0.000000e+00	
5.882353e-02	4.576271e-01	1.224667e+00	2.680005e+01	-3.793545e+00	2.535292e+05	1.012920e+05	2.881295e+02	6.495056e-02	-1.859693e-01	0.000000e+00	
5.882353e-02	4.237288e-01	1.224667e+00	2.680005e+01	-3.793545e+00	2.535292e+05	1.012920e+05	2.881295e+02	6.495055e-02	-1.859693e-01	0.000000e+00	
5.882353e-02	3.898305e-01	1.224667e+00	2.680005e+01	-3.793546e+00	2.535292e+05	1.012920e+05	2.881295e+02	6.495055e-02	-1.859692e-01	0.000000e+00	
5.882353e-02	3.559322e-01	1.224667e+00	2.680005e+01	-3.793546e+00	2.535292e+05	1.012920e+05	2.881295e+02	6.495055e-02	-1.859692e-01	0.000000e+00	
5.882353e-02	3.220339e-01	1.224667e+00	2.680005e+01	-3.793546e+00	2.535292e+05	1.012920e+05	2.881295e+02	6.495055e-02	-1.859691e-01	0.000000e+00	
5.882353e-02	2.881356e-01	1.224667e+00	2.680005e+01	-3.793547e+00	2.535292e+05	1.012920e+05	2.881295e+02	6.495055e-02	-1.859691e-01	0.000000e+00	
5.882353e-02	2.542373e-01	1.224667e+00	2.680005e+01	-3.793547e+00	2.535292e+05	1.012920e+05	2.881295e+02	6.495055e-02	-1.859691e-01	0.000000e+00	
5.882353e-02	2.203390e-01	1.224667e+00	2.680005e+01	-3.793547e+00	2.535292e+05	1.012920e+05	2.881295e+02	6.495055e-02	-1.859691e-01	0.000000e+00	
5.882353e-02	1.864407e-01	1.224667e+00	2.680005e+01	-3.793548e+00	2.535292e+05	1.012920e+05	2.881295e+02	6.495055e-02	-1.859691e-01	0.000000e+00	
5.882353e-02	1.525424e-01	1.224667e+00	2.680005e+01	-3.793548e+00	2.535292e+05	1.012920e+05	2.881295e+02	6.495055e-02	-1.859691e-01	0.000000e+00	
5.882353e-02	1.186441e-01	1.224667e+00	2.680005e+01	-3.793548e+00	2.535292e+05	1.012920e+05	2.881295e+02	6.495055e-02	-1.859691e-01	0.000000e+00	
5.882353e-02	8.474576e-02	1.224667e+00	2.680005e+01	-3.793548e+00	2.535292e+05	1.012920e+05	2.881295e+02	6.495055e-02	-1.859691e-01	0.000000e+00	
5.882353e-02	5.084746e-02	1.224667e+00	2.680005e+01	-3.793548e+00	2.535292e+05	1.012920e+05	2.881295e+02	6.495055e-02	-1.859691e-01	0.000000e+00	
5.882353e-02	1.694915e-02	1.224667e+00	2.680005e+01	-3.793548e+00	2.535292e+05	1.012920e+05	2.881295e+02	6.495055e-02	-1.859692e-01	0.000000e+00	
5.882353e-02	-1.694915e-02	1.224667e+00	2.680005e+01	-3.793549e+00	2.535292e+05	1.012920e+05	2.881295e+02	6.495055e-02	-1.859692e-01	0.000000e+00	
5.882353e-02	-5.084746e-02	1.224667e+00	2.680005e+01	-3.793549e+00	2.535292e+05	1.012920e+05	2.881295e+02	6.495055e-02	-1.859692e-01	0.000000e+00	
5.882353e-02	-8.474576e-02	1.224667e+00	2.680005e+01	-3.793549e+00	2.535292e+05	1.012920e+05	2.881295e+02	6.495055e-02	-1.859692e-01	0.000000e+00	
5.882353e-02	-1.186441e-01	1.224667e+00	2.680005e+01	-3.793549e+00	2.535292e+05	1.012920e+05	2.881295e+02	6.495055e-02	-1.859693e-01	0.000000e+00	
5.882353e-02	-1.525424e-01	1.224667e+00	2.680005e+01	-3.793549e+00	2.535292e+05	1.012920e+05	2.881295e+02	6.495055e-02	-1.859693e-01	0.000000e+00	
5.882353e-02	-1.864407e-01	1.224667e+00	2.680005e+01	-3.793549e+00	2.535292e+05	1.012920e+05	2.881295e+02	6.495055e-02	-1.859693e-01	0.000000e+00	
5.882353e-02	-2.203390e-01	1.224667e+00	2.680005e+01	-3.793549e+00	2.535292e+05	1.012920e+05	2.881295e+02	6.495055e-02	-1.859694e-01	0.000000e+00	
5.882353e-02	-2.542373e-01	1.224667e+00	2.680005e+01	-3.793549e+00	2.535292e+05	1.012920e+05	2.881295e+02	6.495055e-02	-1.859694e-01	0.000000e+00	
5.882353e-02	-2.881356e-01	1.224667e+00	2.680005e+01	-3.793549e+00	2.535292e+05	1.012920e+05	2.881295e+02	6.495056e-02	-1.859695e-01	0.000000e+00	
5.882353e-02	-3.220339e-01	1.224667e+00	2.680005e+01	-3.793550e+00	2.535292e+05	1.012920e+05	2.881295e+02	6.495056e-02	-1.859695e-01	0.000000e+00	
5.882353e-02	-3.559322e-01	1.224667e+00	2.680005e+01	-3.793550e+00	2.535292e+05	1.012920e+05	2.881295e+02	6.495056e-02	-1.859696e-01	0.000000e+00	
5.882353e-02	-3.898305e-01	1.224667e+00	2.680005e+01	-3.793550e+00	2.535292e+05	1.012920e+05	2.881295e+02	6.495056e-02	-1.859696e-01	0.000000e+00	
5.882353e-02	-4.237288e-01	1.224667e+00	2.680005e+01	-3.793550e+00	2.535292e+05	1.012920e+05	2.881295e+02	6.495056e-02	-1.859697e-01	0.000000e+00	
5.882353e-02	-4.576271e-01	1.224667e+00	2.680005e+01	-3.793550e+00	2.535292e+05	1.012920e+05	2.881295e+02	6.495056e-02	-1.859698e-01	0.000000e+00	
5.882353e-02	-4.915254e-01	1.224667e+00	2.680005e+01	-3.793550e+00	2.535292e+05	1.012920e+05	2.881295e+02	6.495056e-02	-1.859698e-01	0.000000e+00	
5.882353e-02	-5.254237e-01	1.224667e+00	2.680005e+01	-3.793550e+00	2.535292e+05	1.012920e+05	2.881295e+02	6.495056e-02	-1.859699e-01	0.000000e+00	
5.882353e-02	-5.593220e-01	1.224667e+00	2.680005e+01	-3.793550e+00	2.535292e+05	1.012920e+05	2.881295e+02	6.495056e-02	-1.859700e-01	0.000000e+00	
5.882353e-02	-5.932203e-01	1.224667e+00	2.680005e+01	-3.793551e+00	2.535292e+05	1.012920e+05	2.881295e+02	6.495057e-02	-1.859702e-01	0.000000e+00	
5.882353e-02	-6.271186e-01	1.224667e+00	2.680006e+01	-3.793551e+00	2.535292e+05	1.012920e+05	2.881295e+02	6.495057e-02	-1.859703e-01	0.000000e+00	
5.882353e-02	-6.610169e-01	1.224667e+00	2.680006e+01	-3.793552e+00	2.535292e+05	1.012920e+05	2.881295e+02	6.495058e-02	-1.859707e-01	0.000000e+00	
5.882353e-02	-6.949153e-01	1.224667e+00	2.680006e+01	-3.793554e+00	2.535292e+05	1.012920e+05	2.881295e+02	6.495058e-02	-1.859709e-01	0.000000e+00	
5.882353e-02	-7.288136e-01	1.224667e+00	2.680006e+01	-3.793555e+00	2.535292e+05	1.012920e+05	2.881295e+02	6.495058e-02	-1.859717e-01	0.000000e+00	
5.882353e-02	-7.627119e-01	1.224667e+00	2.680006e+01	-3.793556e+00	2.535292e+05	1.012920e+05	2.881295e+02	6.495057e-02	-1.859717e-01	0.000000e+00	
5.882353e-02	-7.966102e-01	1.224667e+00	2.680006e+01	-3.793554e+00	2.535292e+05	1.012920e+05	2.881295e+02	6.495057e-02	-1.859735e-01	0.000000e+00	
5.882353e-02	-8.305085e-01	1.224667e+00	2.680005e+01	-3.793554e+00	2.535292e+05	1.012920e+05	2.881295e+02	6.495055e-02	-1.859722e-01	0.000000e+00	
5.882353e-02	-8.644068e-01	1.224667e+00	2.680002e+01	-3.793552e+00	2.535292e+05	1.012920e+05	2.881295e+02	6.495050e-02	-1.859775e-01	0.000000e+00	
5.882353e-02	-8.983051e-01	1.224667e+00	2.679997e+01	-3.793557e+00	2.535292e+05	1.012920e+05	2.881295e+02	6.495036e-02	-1.859677e-01	0.000000e+00	
5.882353e-02	-9.322034e-01	1.224667e+00	2.679988e+01	-3.793507e+00	2.535292e+05	1.012920e+05	2.881295e+02	6.495015e-02	-1.859867e-01	0.000000e+00	
5.882353e-02	-9.661017e-01	1.224667e+00	2.679982e+01	-3.793427e+00	2.535292e+05	1.012920e+05	2.881295e+02	6.494997e-02	-1.859086e-01	0.000000e+00	
8.823529e-02	9.661017e-01	1.224912e+00	2.679755e+01	-5.163619e+00	2.536044e+05	1.013201e+05	2.881518e+02	6.547075e-02	-2.737456e-02	0.000000e+00	
8.823529e-02	1.000000e+00	1.224912e+00	2.679759e+01	-5.163562e+00	2.536044e+05	1.013201e+05	2.881518e+02	6.547080e-02	-2.738120e-02	0.000000e+00	
8.823529e-02	9.322034e-01	1.224912e+00	2.679762e+01	-5.163676e+00	2.536044e+05	1.013202e+05	2.881518e+02	6.547092e-02	-2.733489e-02	0.000000e+00	
8.823529e-02	8.983051e-01	1.224912e+00	2.679766e+01	-5.163746e+00	2.536044e+05	1.013202e+05	2.881518e+02	6.547104e-02	-2.733666e-02	0.000000e+00	
8.823529e-02	8.644068e-01	1.224912e+00	2.679768e+01	-5.163778e+00	2.536044e+05	1.013202e+05	2.881518e+02	6.547111e-02	-2.731926e-02	0.000000e+00	
8.823529e-02	8.305085e-01	1.224912e+00	2.679769e+01	-5.163803e+00	2.536044e+05	1.013202e+05	2.881518e+02	6.547114e-02	-2.731602e-02	0.000000e+00	
8.823529e-02	7.966102e-01	1.224912e+00	2.679769e+01	-5.163817e+00	2.536044e+05	1.013202e+05	2.881518e+02	6.547115e-02	-2.730974e-02	0.000000e+00	
8.823529e-02	7.627119e-01	1.224912e+00	2.679769e+01	-5.163827e+00	2.536044e+05	1.013202e+05	2.881518e+02	6.547115e-02	-2.730762e-02	0.000000e+00	
8.823529e-02	7.288136e-01	1.224912e+00	2.679768e+01	-5.163833e+00	2.536044e+05	1.013202e+05	2.881518e+02	6.547114e-02	-2.730515e-02	0.000000e+00	
8.823529e-02	6.949153e-01	1.224912e+00	2.679768e+01	-5.163838e+00	2.536044e+05	1.013202e+05	2.881518e+02	6.547113e-02	-2.730403e-02	0.000000e+00	
8.823529e-02	6.610169e-01	1.224912e+00	2.679767e+01	-5.163841e+00	2.536044e+05	1.013202e+05	2.881518e+02	6.547112e-02	-2.730299e-02	0.000000e+00	
8.823529e-02	6.271186e-01	1.224912e+00	2.679767e+01	-5.163844e+00	2.536044e+05	1.013202e+05	2.881518e+02	6.547112e-02	-2.730243e-02	0.000000e+00	
8.823529e-02	5.932203e-01	1.224912e+00	2.679767e+01	-5.163846e+00	2.536044e+05	1.013202e+05	2.881518e+02	6.547111e-02	-2.730196e-02	0.000000e+00	
8.823529e-02	5.593220e-01	1.224912e+00	2.679767e+01	-5.163847e+00	2.536044e+05	1.013202e+05	2.881518e+02	6.547111e-02	-2.730167e-02	0.000000e+00	
8.823529e-02	5.254237e-01	1.224912e+00	2.679767e+01	-5.163849e+00	2.536044e+05	1.013202e+05	2.881518e+02	6.547111e-02	-2.730143e-02	0.000000e+00	
8.823529e-02	4.915254e-01	1.224912e+00	2.679766e+01	-5.163849e+00	2.536044e+05	1.013202e+05	2.881518e+02	6.547110e-02	-2.730127e-02	0.000000e+00	
8.823529e-02	4.576271e-01	1.224912e+00	2.679766e+01	-5.163850e+00	2.536044e+05	1.013202e+05	2.881518e+02	6.547110e-02	-2.730114e-02	0.000000e+00	
8.823529e-02	4.237288e-01	1.224912e+00	2.679766e+01	-5.163851e+00	2.536044e+05	1.013202e+05	2.881518e+02	6.547110e-02	-2.730105e-02	0.000000e+00	
8.823529e-02	3.898305e-01	1.224912e+00	2.679766e+01	-5.163851e+00	2.536044e+05	1.013202e+05	2.881518e+02	6.547110e-02	-2.730098e-02	0.000000e+00	
8.823529e-02	3.559322e-01	1.224912e+00	2.679766e+01	-5.163852e+00	2.536044e+05	1.013202e+05	2.881518e+02	6.547110e-02	-2.730094e-02	0.000000e+00	
8.823529e-02	3.220339e-01	1.224912e+00	2.679766e+01	-5.163852e+00	2.536044e+05	1.013202e+05	2.881518e+02	6.547110e-02	-2.730091e-02	0.000000e+00	
8.823529e-02	2.881356e-01	1.224912e+00	2.679766e+01	-5.163853e+00	2.536044e+05	1.013202e+05	2.881518e+02	6.547110e-02	-2.730090e-02	0.000000e+00	
8.823529e-02	2.542373e-01	1.224912e+00	2.679766e+01	-5.163853e+00	2.536044e+05	1.013202e+05	2.881518e+02	6.547110e-02	-2.730089e-02	0.000000e+00	
8.823529e-02	2.203390e-01	1.224912e+00	2.679766e+01	-5.163853e+00	2.536044e+05	1.013202e+05	2.881518e+02	6.547110e-02	-2.730090e-02	0.000000e+00	
8.823529e-02	1.864407e-01	1.224912e+00	2.679766e+01	-5.163854e+00	2.536044e+05	1.013202e+05	2.881518e+02	6.547110e-02	-2.730091e-02	0.000000e+00	
8.823529e-02	1.525424e-01	1.224912e+00	2.679766e+01	-5.163854e+00	2.536044e+05	1.013202e+05	2.881518e+02	6.547110e-02	-2.730092e-02	0.000000e+00	