/*--------------------------------*- C++ -*----------------------------------*\
  =========                 |
  \\      /  F ield         | OpenFOAM: The Open Source CFD Toolbox
   \\    /   O peration     | Website:  https://openfoam.org
    \\  /    A nd           | Version:  6
     \\/     M anipulation  |
\*---------------------------------------------------------------------------*/
FoamFile
{
    version     2.0;
    format      ascii;
    class       volScalarField;
    location    "120";
    object      p;
}
// * * * * * * * * * * * * * * * * * * * * * * * * * * * * * * * * * * * * * //

dimensions      [0 2 -2 0 0 0 0];

internalField   nonuniform List<scalar> 
4000
(
5.2129e-09
5.23444e-09
5.26218e-09
5.2836e-09
5.30026e-09
5.3171e-09
5.33297e-09
5.34869e-09
5.37948e-09
5.40507e-09
5.42636e-09
5.4571e-09
5.50272e-09
5.52949e-09
5.55739e-09
5.58588e-09
5.6231e-09
5.63212e-09
5.62842e-09
5.6482e-09
5.66029e-09
5.65529e-09
5.65426e-09
5.65745e-09
5.64182e-09
5.62209e-09
5.61722e-09
5.62349e-09
5.60711e-09
5.58069e-09
5.57115e-09
5.55019e-09
5.5212e-09
5.50332e-09
5.48947e-09
5.46559e-09
5.46289e-09
5.46952e-09
5.47095e-09
5.44468e-09
5.44532e-09
5.459e-09
5.45267e-09
5.45077e-09
5.44366e-09
5.42868e-09
5.40299e-09
5.37144e-09
5.34182e-09
5.29888e-09
5.25165e-09
5.21969e-09
5.2039e-09
5.19587e-09
5.18257e-09
5.16105e-09
5.13292e-09
5.11348e-09
5.08985e-09
5.06006e-09
5.03972e-09
5.0254e-09
5.00378e-09
4.99236e-09
4.99639e-09
4.99161e-09
4.98945e-09
4.98748e-09
4.98966e-09
4.982e-09
4.95712e-09
4.93227e-09
4.90267e-09
4.86686e-09
4.8501e-09
4.81836e-09
4.80013e-09
4.78593e-09
4.76891e-09
4.75891e-09
4.75756e-09
4.74083e-09
4.72248e-09
4.70348e-09
4.68801e-09
4.68424e-09
4.67424e-09
4.64239e-09
4.58651e-09
4.54796e-09
4.52738e-09
4.49883e-09
4.45477e-09
4.42047e-09
4.41377e-09
4.39907e-09
4.37892e-09
4.35883e-09
4.32683e-09
4.30045e-09
4.26952e-09
4.2599e-09
4.24488e-09
4.21942e-09
4.19144e-09
4.16629e-09
4.13926e-09
4.10517e-09
4.07851e-09
4.06292e-09
4.04542e-09
4.01652e-09
3.99128e-09
3.9786e-09
3.9478e-09
3.90933e-09
3.88665e-09
3.87016e-09
3.84196e-09
3.79577e-09
3.7649e-09
3.73133e-09
3.71694e-09
3.69894e-09
3.64505e-09
3.60267e-09
3.57643e-09
3.54208e-09
3.49852e-09
3.45267e-09
3.42045e-09
3.3915e-09
3.34797e-09
3.29599e-09
3.24718e-09
3.21355e-09
3.16888e-09
3.1264e-09
3.10057e-09
3.06923e-09
3.01907e-09
2.96896e-09
2.92335e-09
2.87789e-09
2.83603e-09
2.77674e-09
2.71653e-09
2.67319e-09
2.63443e-09
2.58403e-09
2.54016e-09
2.49478e-09
2.45027e-09
2.41329e-09
2.36504e-09
2.32396e-09
2.27943e-09
2.23329e-09
2.18971e-09
2.16046e-09
2.12399e-09
2.07373e-09
2.01728e-09
1.98489e-09
1.93696e-09
1.8923e-09
1.83816e-09
1.78386e-09
1.7296e-09
1.66158e-09
1.57971e-09
1.50037e-09
1.43154e-09
1.35033e-09
1.2646e-09
1.18859e-09
1.10403e-09
1.02778e-09
9.52252e-10
8.75884e-10
8.02884e-10
7.28833e-10
6.58162e-10
6.05363e-10
5.52259e-10
4.93893e-10
4.4466e-10
4.00514e-10
3.63381e-10
3.02772e-10
2.65298e-10
2.31933e-10
2.0387e-10
1.81985e-10
1.62018e-10
1.17987e-10
8.64968e-11
5.36341e-11
2.16818e-11
6.58772e-12
5.2083e-09
5.23585e-09
5.26417e-09
5.28799e-09
5.30564e-09
5.32841e-09
5.34641e-09
5.36624e-09
5.39968e-09
5.43086e-09
5.43903e-09
5.46565e-09
5.50587e-09
5.52833e-09
5.5512e-09
5.56819e-09
5.60789e-09
5.61897e-09
5.62007e-09
5.63943e-09
5.65198e-09
5.65118e-09
5.65924e-09
5.65548e-09
5.64119e-09
5.63533e-09
5.63905e-09
5.63411e-09
5.61844e-09
5.58396e-09
5.57103e-09
5.54452e-09
5.50889e-09
5.49888e-09
5.47848e-09
5.46109e-09
5.45535e-09
5.46426e-09
5.47389e-09
5.44938e-09
5.4471e-09
5.46419e-09
5.45915e-09
5.45229e-09
5.43652e-09
5.41692e-09
5.40226e-09
5.37687e-09
5.33607e-09
5.29231e-09
5.25095e-09
5.22339e-09
5.20692e-09
5.19948e-09
5.17788e-09
5.1561e-09
5.13219e-09
5.11101e-09
5.08808e-09
5.06588e-09
5.04269e-09
5.02895e-09
5.01525e-09
5.00463e-09
4.99238e-09
4.98191e-09
4.98315e-09
4.99222e-09
4.98344e-09
4.97878e-09
4.95634e-09
4.92858e-09
4.90795e-09
4.87625e-09
4.85923e-09
4.83271e-09
4.80539e-09
4.7896e-09
4.78101e-09
4.77233e-09
4.75854e-09
4.73588e-09
4.72661e-09
4.70445e-09
4.69522e-09
4.68706e-09
4.67344e-09
4.63526e-09
4.58415e-09
4.54928e-09
4.52004e-09
4.49426e-09
4.45749e-09
4.43263e-09
4.42098e-09
4.40122e-09
4.39295e-09
4.35716e-09
4.32805e-09
4.29816e-09
4.26816e-09
4.25758e-09
4.23436e-09
4.20724e-09
4.1961e-09
4.17626e-09
4.14315e-09
4.10693e-09
4.08615e-09
4.0715e-09
4.05186e-09
4.02321e-09
3.99803e-09
3.97269e-09
3.94141e-09
3.90428e-09
3.88027e-09
3.85976e-09
3.83253e-09
3.79764e-09
3.76952e-09
3.73938e-09
3.71969e-09
3.69161e-09
3.63739e-09
3.59152e-09
3.57248e-09
3.54104e-09
3.50595e-09
3.45995e-09
3.41748e-09
3.38339e-09
3.34831e-09
3.29021e-09
3.24454e-09
3.20209e-09
3.16433e-09
3.1251e-09
3.10111e-09
3.06074e-09
3.01424e-09
2.96708e-09
2.91692e-09
2.87571e-09
2.83405e-09
2.77068e-09
2.71964e-09
2.67341e-09
2.63278e-09
2.59368e-09
2.54523e-09
2.49712e-09
2.43541e-09
2.40707e-09
2.36167e-09
2.3255e-09
2.27644e-09
2.22821e-09
2.19532e-09
2.16692e-09
2.12855e-09
2.07597e-09
2.02914e-09
1.98486e-09
1.937e-09
1.88049e-09
1.84101e-09
1.79097e-09
1.74789e-09
1.68476e-09
1.60079e-09
1.52529e-09
1.45917e-09
1.37825e-09
1.29406e-09
1.20496e-09
1.1138e-09
1.03741e-09
9.66237e-10
8.83926e-10
7.89719e-10
7.17001e-10
6.51755e-10
5.95731e-10
5.4459e-10
4.8619e-10
4.41551e-10
4.04819e-10
3.62696e-10
3.10361e-10
2.70683e-10
2.47369e-10
2.23157e-10
1.98028e-10
1.58417e-10
1.12155e-10
8.13156e-11
5.80336e-11
2.92728e-11
8.24991e-12
5.22559e-09
5.2345e-09
5.26007e-09
5.28006e-09
5.30125e-09
5.32339e-09
5.35095e-09
5.37415e-09
5.41326e-09
5.44614e-09
5.45455e-09
5.48309e-09
5.51611e-09
5.52616e-09
5.53121e-09
5.56955e-09
5.59119e-09
5.60343e-09
5.61697e-09
5.64217e-09
5.6495e-09
5.65651e-09
5.66229e-09
5.64585e-09
5.63919e-09
5.64856e-09
5.64443e-09
5.64626e-09
5.63412e-09
5.60517e-09
5.58335e-09
5.54323e-09
5.51262e-09
5.49149e-09
5.46883e-09
5.45106e-09
5.44268e-09
5.45532e-09
5.4791e-09
5.45381e-09
5.45062e-09
5.45762e-09
5.45228e-09
5.4436e-09
5.43956e-09
5.42102e-09
5.40555e-09
5.38074e-09
5.33494e-09
5.29669e-09
5.25595e-09
5.2243e-09
5.20582e-09
5.19418e-09
5.17805e-09
5.14174e-09
5.12087e-09
5.10087e-09
5.08892e-09
5.0688e-09
5.04233e-09
5.02659e-09
5.01451e-09
5.00278e-09
4.99152e-09
4.98652e-09
4.98753e-09
4.9936e-09
4.98573e-09
4.96885e-09
4.94668e-09
4.92691e-09
4.90808e-09
4.87854e-09
4.85988e-09
4.83695e-09
4.80916e-09
4.78116e-09
4.77045e-09
4.76941e-09
4.75889e-09
4.73394e-09
4.7315e-09
4.70099e-09
4.69671e-09
4.68991e-09
4.66749e-09
4.62153e-09
4.56841e-09
4.53997e-09
4.52157e-09
4.48688e-09
4.46551e-09
4.42934e-09
4.42056e-09
4.4112e-09
4.39574e-09
4.37081e-09
4.32772e-09
4.30666e-09
4.27982e-09
4.25999e-09
4.24254e-09
4.20891e-09
4.20313e-09
4.19235e-09
4.14908e-09
4.11647e-09
4.09211e-09
4.0698e-09
4.05625e-09
4.02129e-09
4.00016e-09
3.96708e-09
3.94026e-09
3.90498e-09
3.86529e-09
3.8422e-09
3.82228e-09
3.80573e-09
3.78259e-09
3.74275e-09
3.70975e-09
3.68703e-09
3.65102e-09
3.61165e-09
3.57583e-09
3.54347e-09
3.5034e-09
3.46356e-09
3.42942e-09
3.3828e-09
3.34331e-09
3.29499e-09
3.24325e-09
3.1951e-09
3.16566e-09
3.13142e-09
3.10798e-09
3.06826e-09
3.01063e-09
2.96963e-09
2.92674e-09
2.87127e-09
2.82112e-09
2.77319e-09
2.73137e-09
2.67965e-09
2.62691e-09
2.5841e-09
2.55199e-09
2.4928e-09
2.43362e-09
2.39099e-09
2.34932e-09
2.31317e-09
2.27118e-09
2.23161e-09
2.19085e-09
2.16631e-09
2.12286e-09
2.06893e-09
2.03036e-09
1.99311e-09
1.94225e-09
1.88771e-09
1.84289e-09
1.79162e-09
1.76491e-09
1.70718e-09
1.62255e-09
1.54288e-09
1.47071e-09
1.39703e-09
1.31968e-09
1.21123e-09
1.12007e-09
1.0469e-09
9.8234e-10
8.88766e-10
7.88178e-10
7.05097e-10
6.42398e-10
5.88654e-10
5.38556e-10
4.69486e-10
4.26435e-10
3.96599e-10
3.64392e-10
3.16919e-10
2.84846e-10
2.5903e-10
2.24398e-10
1.90817e-10
1.5653e-10
1.17335e-10
8.1004e-11
5.58863e-11
3.20825e-11
1.33279e-11
5.23482e-09
5.24121e-09
5.25564e-09
5.27677e-09
5.30424e-09
5.32054e-09
5.36007e-09
5.38689e-09
5.41438e-09
5.45188e-09
5.46205e-09
5.48307e-09
5.52279e-09
5.52757e-09
5.53219e-09
5.55712e-09
5.58923e-09
5.59235e-09
5.60468e-09
5.64664e-09
5.6556e-09
5.66419e-09
5.66196e-09
5.64996e-09
5.65733e-09
5.65584e-09
5.65598e-09
5.6517e-09
5.63489e-09
5.61141e-09
5.58162e-09
5.54665e-09
5.50792e-09
5.47929e-09
5.46386e-09
5.45214e-09
5.44742e-09
5.45437e-09
5.46556e-09
5.45645e-09
5.4568e-09
5.4445e-09
5.45393e-09
5.43479e-09
5.44042e-09
5.42176e-09
5.40289e-09
5.36461e-09
5.3274e-09
5.30676e-09
5.26317e-09
5.22098e-09
5.20636e-09
5.20612e-09
5.17645e-09
5.13582e-09
5.11485e-09
5.09399e-09
5.0855e-09
5.05789e-09
5.03534e-09
5.03212e-09
5.01112e-09
5.00412e-09
4.99904e-09
4.99719e-09
5.0052e-09
4.99079e-09
4.97742e-09
4.95768e-09
4.93848e-09
4.91378e-09
4.89178e-09
4.8633e-09
4.84418e-09
4.82817e-09
4.80529e-09
4.7731e-09
4.76827e-09
4.76501e-09
4.75089e-09
4.73705e-09
4.72886e-09
4.70905e-09
4.70228e-09
4.67727e-09
4.65203e-09
4.60701e-09
4.55624e-09
4.54097e-09
4.51546e-09
4.48845e-09
4.47366e-09
4.44794e-09
4.43607e-09
4.41914e-09
4.40433e-09
4.3832e-09
4.34985e-09
4.32696e-09
4.28527e-09
4.26811e-09
4.23356e-09
4.21906e-09
4.20814e-09
4.18346e-09
4.14621e-09
4.11713e-09
4.10126e-09
4.08387e-09
4.05619e-09
4.02172e-09
4.00056e-09
3.97472e-09
3.94068e-09
3.90141e-09
3.85844e-09
3.83026e-09
3.81144e-09
3.79828e-09
3.77639e-09
3.73979e-09
3.7022e-09
3.67258e-09
3.64371e-09
3.60608e-09
3.5768e-09
3.54998e-09
3.50444e-09
3.46689e-09
3.42852e-09
3.37933e-09
3.33334e-09
3.28853e-09
3.2438e-09
3.19855e-09
3.16704e-09
3.14808e-09
3.11004e-09
3.06547e-09
3.0182e-09
2.97277e-09
2.92674e-09
2.86561e-09
2.81884e-09
2.76945e-09
2.72364e-09
2.67476e-09
2.62755e-09
2.58288e-09
2.53463e-09
2.48214e-09
2.43309e-09
2.38032e-09
2.33657e-09
2.30847e-09
2.27024e-09
2.23524e-09
2.20128e-09
2.16941e-09
2.1186e-09
2.06691e-09
2.0321e-09
1.99269e-09
1.94375e-09
1.90389e-09
1.85826e-09
1.81046e-09
1.76953e-09
1.71962e-09
1.63845e-09
1.56248e-09
1.4863e-09
1.40688e-09
1.31672e-09
1.21754e-09
1.13244e-09
1.05811e-09
9.88722e-10
9.02563e-10
7.97773e-10
7.03078e-10
6.3627e-10
5.79821e-10
5.27373e-10
4.71401e-10
4.27801e-10
3.88658e-10
3.57514e-10
3.19562e-10
2.84188e-10
2.4924e-10
2.24603e-10
1.86731e-10
1.53932e-10
1.13323e-10
9.50814e-11
7.21868e-11
5.29183e-11
2.43609e-11
5.23735e-09
5.23937e-09
5.25075e-09
5.26871e-09
5.3065e-09
5.33704e-09
5.36712e-09
5.39715e-09
5.42244e-09
5.45434e-09
5.47116e-09
5.49018e-09
5.51557e-09
5.52871e-09
5.53802e-09
5.56154e-09
5.58418e-09
5.58638e-09
5.60075e-09
5.61803e-09
5.64347e-09
5.66242e-09
5.67632e-09
5.67519e-09
5.67664e-09
5.66799e-09
5.65449e-09
5.64511e-09
5.6279e-09
5.60202e-09
5.57351e-09
5.55278e-09
5.52121e-09
5.49179e-09
5.46701e-09
5.44541e-09
5.43324e-09
5.4479e-09
5.45877e-09
5.43612e-09
5.44574e-09
5.44748e-09
5.44718e-09
5.43497e-09
5.42332e-09
5.41108e-09
5.39028e-09
5.352e-09
5.32696e-09
5.30637e-09
5.25472e-09
5.22586e-09
5.21406e-09
5.1927e-09
5.17676e-09
5.14855e-09
5.11842e-09
5.09723e-09
5.07333e-09
5.05282e-09
5.04267e-09
5.0447e-09
5.02805e-09
5.01557e-09
5.00867e-09
5.01465e-09
5.00527e-09
4.97799e-09
4.95867e-09
4.93779e-09
4.92075e-09
4.89615e-09
4.87642e-09
4.84368e-09
4.83088e-09
4.81873e-09
4.78611e-09
4.76942e-09
4.76013e-09
4.75954e-09
4.75714e-09
4.73054e-09
4.72782e-09
4.71005e-09
4.70825e-09
4.68789e-09
4.63695e-09
4.59108e-09
4.55841e-09
4.54041e-09
4.52259e-09
4.49488e-09
4.47642e-09
4.46395e-09
4.45272e-09
4.43043e-09
4.41376e-09
4.3944e-09
4.36341e-09
4.34121e-09
4.30338e-09
4.27604e-09
4.25368e-09
4.22507e-09
4.20139e-09
4.18276e-09
4.15508e-09
4.12851e-09
4.10366e-09
4.08806e-09
4.05986e-09
4.02025e-09
3.99149e-09
3.96843e-09
3.93661e-09
3.89387e-09
3.84745e-09
3.81611e-09
3.79017e-09
3.79002e-09
3.76997e-09
3.73922e-09
3.68648e-09
3.67215e-09
3.64291e-09
3.60992e-09
3.58372e-09
3.55695e-09
3.49987e-09
3.46351e-09
3.43154e-09
3.39245e-09
3.34786e-09
3.29116e-09
3.25068e-09
3.2065e-09
3.17008e-09
3.14842e-09
3.112e-09
3.08049e-09
3.03897e-09
2.99087e-09
2.92989e-09
2.85874e-09
2.80361e-09
2.76208e-09
2.71526e-09
2.66384e-09
2.61315e-09
2.56601e-09
2.52961e-09
2.47815e-09
2.42196e-09
2.3587e-09
2.3287e-09
2.30407e-09
2.27328e-09
2.23762e-09
2.19363e-09
2.1735e-09
2.12182e-09
2.07176e-09
2.0285e-09
1.9858e-09
1.94513e-09
1.90961e-09
1.86409e-09
1.82461e-09
1.77788e-09
1.73288e-09
1.64941e-09
1.57182e-09
1.49062e-09
1.41389e-09
1.32202e-09
1.22458e-09
1.14282e-09
1.06908e-09
9.81732e-10
9.03541e-10
8.08901e-10
7.16627e-10
6.35107e-10
5.82351e-10
5.30083e-10
4.6729e-10
4.23297e-10
3.79582e-10
3.44967e-10
3.09119e-10
2.6618e-10
2.34572e-10
2.11434e-10
1.84095e-10
1.63147e-10
1.29616e-10
1.06831e-10
8.90856e-11
6.38564e-11
3.15307e-11
5.2374e-09
5.2425e-09
5.26307e-09
5.28339e-09
5.30965e-09
5.33986e-09
5.37423e-09
5.39279e-09
5.43125e-09
5.46429e-09
5.47067e-09
5.49221e-09
5.5155e-09
5.52101e-09
5.53065e-09
5.55206e-09
5.56996e-09
5.58148e-09
5.59231e-09
5.60037e-09
5.64377e-09
5.67439e-09
5.69322e-09
5.68935e-09
5.68983e-09
5.67143e-09
5.65659e-09
5.64034e-09
5.62889e-09
5.59793e-09
5.57251e-09
5.5535e-09
5.53095e-09
5.49282e-09
5.46116e-09
5.44436e-09
5.43379e-09
5.42949e-09
5.43328e-09
5.4301e-09
5.43747e-09
5.44421e-09
5.43721e-09
5.41237e-09
5.40981e-09
5.40372e-09
5.39218e-09
5.36155e-09
5.3295e-09
5.30032e-09
5.25693e-09
5.24076e-09
5.22547e-09
5.20317e-09
5.17373e-09
5.14897e-09
5.12827e-09
5.10978e-09
5.08335e-09
5.07152e-09
5.06976e-09
5.0575e-09
5.0467e-09
5.03586e-09
5.02152e-09
5.01213e-09
4.9948e-09
4.97464e-09
4.955e-09
4.92592e-09
4.90317e-09
4.88515e-09
4.86364e-09
4.83559e-09
4.82077e-09
4.80124e-09
4.78888e-09
4.76559e-09
4.75743e-09
4.75891e-09
4.75244e-09
4.7389e-09
4.73552e-09
4.72164e-09
4.70966e-09
4.68733e-09
4.64808e-09
4.60501e-09
4.56832e-09
4.55378e-09
4.53327e-09
4.5075e-09
4.48752e-09
4.47162e-09
4.45578e-09
4.44306e-09
4.42509e-09
4.39857e-09
4.37463e-09
4.35351e-09
4.31753e-09
4.27777e-09
4.24988e-09
4.22534e-09
4.20848e-09
4.17889e-09
4.14832e-09
4.11556e-09
4.09537e-09
4.07627e-09
4.04829e-09
4.01219e-09
3.98847e-09
3.95321e-09
3.92615e-09
3.87996e-09
3.83425e-09
3.80629e-09
3.78645e-09
3.78271e-09
3.76239e-09
3.72356e-09
3.69868e-09
3.68559e-09
3.65537e-09
3.61852e-09
3.5892e-09
3.55005e-09
3.50508e-09
3.46662e-09
3.43351e-09
3.39712e-09
3.34529e-09
3.30409e-09
3.26174e-09
3.21942e-09
3.18241e-09
3.1489e-09
3.10576e-09
3.07625e-09
3.03607e-09
2.98264e-09
2.92448e-09
2.86219e-09
2.80529e-09
2.75167e-09
2.71513e-09
2.66137e-09
2.60101e-09
2.55111e-09
2.51007e-09
2.46696e-09
2.4043e-09
2.34418e-09
2.32422e-09
2.30027e-09
2.26119e-09
2.22563e-09
2.19213e-09
2.16034e-09
2.1132e-09
2.07424e-09
2.03468e-09
1.98755e-09
1.94562e-09
1.90266e-09
1.85606e-09
1.81651e-09
1.77026e-09
1.7211e-09
1.64757e-09
1.57711e-09
1.49612e-09
1.41413e-09
1.3204e-09
1.24045e-09
1.16192e-09
1.0724e-09
9.95234e-10
9.10044e-10
8.16973e-10
7.30503e-10
6.49731e-10
5.85492e-10
5.16025e-10
4.53803e-10
4.12857e-10
3.72302e-10
3.15896e-10
2.93904e-10
2.61446e-10
2.27726e-10
2.01302e-10
1.80454e-10
1.62185e-10
1.3444e-10
1.09051e-10
9.02655e-11
6.21773e-11
3.2044e-11
5.23381e-09
5.24021e-09
5.27228e-09
5.28642e-09
5.31156e-09
5.34341e-09
5.37456e-09
5.39835e-09
5.43432e-09
5.46959e-09
5.4644e-09
5.47979e-09
5.50727e-09
5.51294e-09
5.52099e-09
5.54027e-09
5.56439e-09
5.57061e-09
5.59959e-09
5.6229e-09
5.65441e-09
5.67946e-09
5.68668e-09
5.68223e-09
5.69228e-09
5.68708e-09
5.66779e-09
5.64329e-09
5.62552e-09
5.60117e-09
5.57313e-09
5.55843e-09
5.53964e-09
5.49959e-09
5.46212e-09
5.44275e-09
5.42944e-09
5.42687e-09
5.42916e-09
5.4298e-09
5.43135e-09
5.42784e-09
5.4176e-09
5.39819e-09
5.40382e-09
5.39733e-09
5.38861e-09
5.3677e-09
5.34595e-09
5.32119e-09
5.27548e-09
5.26729e-09
5.24982e-09
5.21999e-09
5.19201e-09
5.16516e-09
5.13907e-09
5.12817e-09
5.1115e-09
5.07865e-09
5.07437e-09
5.07575e-09
5.05925e-09
5.04217e-09
5.02343e-09
5.01705e-09
4.99094e-09
4.96039e-09
4.9305e-09
4.92514e-09
4.90653e-09
4.87447e-09
4.85604e-09
4.83302e-09
4.81193e-09
4.80356e-09
4.78609e-09
4.77152e-09
4.76377e-09
4.75505e-09
4.7557e-09
4.74388e-09
4.73833e-09
4.73012e-09
4.71275e-09
4.68192e-09
4.64507e-09
4.61657e-09
4.58569e-09
4.57079e-09
4.54471e-09
4.52166e-09
4.50344e-09
4.48191e-09
4.45885e-09
4.45029e-09
4.42761e-09
4.40393e-09
4.38846e-09
4.36116e-09
4.33087e-09
4.28872e-09
4.2545e-09
4.21348e-09
4.19457e-09
4.17668e-09
4.13403e-09
4.09615e-09
4.0827e-09
4.06532e-09
4.02997e-09
3.99726e-09
3.96994e-09
3.942e-09
3.91375e-09
3.87364e-09
3.82396e-09
3.80194e-09
3.78844e-09
3.76651e-09
3.74962e-09
3.72467e-09
3.70157e-09
3.69279e-09
3.66974e-09
3.63364e-09
3.59403e-09
3.55393e-09
3.51752e-09
3.48401e-09
3.44693e-09
3.39781e-09
3.35745e-09
3.31826e-09
3.2681e-09
3.22496e-09
3.17809e-09
3.14476e-09
3.10166e-09
3.0593e-09
3.01391e-09
2.97016e-09
2.9275e-09
2.87647e-09
2.80533e-09
2.75758e-09
2.71261e-09
2.66591e-09
2.60917e-09
2.54905e-09
2.50846e-09
2.46189e-09
2.40308e-09
2.3529e-09
2.3289e-09
2.28724e-09
2.24622e-09
2.21464e-09
2.17875e-09
2.1483e-09
2.11098e-09
2.07609e-09
2.03996e-09
1.99872e-09
1.94846e-09
1.89597e-09
1.85533e-09
1.80467e-09
1.76807e-09
1.71257e-09
1.6429e-09
1.57679e-09
1.50771e-09
1.42174e-09
1.32893e-09
1.25432e-09
1.17089e-09
1.08258e-09
1.00809e-09
9.2324e-10
8.30855e-10
7.39394e-10
6.51397e-10
5.86866e-10
5.11571e-10
4.5128e-10
3.98233e-10
3.54093e-10
3.09746e-10
2.74815e-10
2.50221e-10
2.14424e-10
1.88862e-10
1.73062e-10
1.51775e-10
1.22635e-10
9.84377e-11
8.73312e-11
6.60749e-11
3.32788e-11
5.24764e-09
5.25389e-09
5.26776e-09
5.28654e-09
5.31841e-09
5.34469e-09
5.37674e-09
5.39542e-09
5.42374e-09
5.44556e-09
5.45328e-09
5.47648e-09
5.49172e-09
5.49624e-09
5.51405e-09
5.54097e-09
5.56216e-09
5.58333e-09
5.60888e-09
5.63474e-09
5.67251e-09
5.68474e-09
5.68593e-09
5.68841e-09
5.68936e-09
5.67068e-09
5.65183e-09
5.63977e-09
5.62633e-09
5.59741e-09
5.56631e-09
5.54058e-09
5.52686e-09
5.50173e-09
5.45789e-09
5.44411e-09
5.44007e-09
5.42794e-09
5.42577e-09
5.42403e-09
5.42775e-09
5.42853e-09
5.42002e-09
5.4117e-09
5.40644e-09
5.39506e-09
5.3851e-09
5.37087e-09
5.35431e-09
5.32115e-09
5.29219e-09
5.27879e-09
5.25492e-09
5.22879e-09
5.20295e-09
5.18593e-09
5.16073e-09
5.14439e-09
5.12114e-09
5.09328e-09
5.0816e-09
5.07439e-09
5.06449e-09
5.04727e-09
5.02474e-09
5.01722e-09
4.98321e-09
4.9543e-09
4.92462e-09
4.90478e-09
4.89535e-09
4.8746e-09
4.85936e-09
4.83491e-09
4.80861e-09
4.80514e-09
4.77727e-09
4.77194e-09
4.77166e-09
4.76483e-09
4.76837e-09
4.75118e-09
4.74634e-09
4.73605e-09
4.72175e-09
4.69941e-09
4.65898e-09
4.62991e-09
4.60611e-09
4.58197e-09
4.55748e-09
4.53222e-09
4.50922e-09
4.48474e-09
4.48097e-09
4.45948e-09
4.43374e-09
4.40747e-09
4.3789e-09
4.36188e-09
4.32441e-09
4.27976e-09
4.24508e-09
4.20623e-09
4.19543e-09
4.16578e-09
4.11156e-09
4.08892e-09
4.06043e-09
4.0455e-09
4.01154e-09
3.97673e-09
3.94364e-09
3.92214e-09
3.90256e-09
3.86531e-09
3.82936e-09
3.8159e-09
3.78686e-09
3.75845e-09
3.73107e-09
3.72011e-09
3.71934e-09
3.69168e-09
3.6771e-09
3.64473e-09
3.60672e-09
3.57102e-09
3.53524e-09
3.49607e-09
3.4529e-09
3.39553e-09
3.35505e-09
3.32052e-09
3.2711e-09
3.22325e-09
3.1732e-09
3.13227e-09
3.0841e-09
3.04753e-09
3.0011e-09
2.96224e-09
2.9278e-09
2.87443e-09
2.8206e-09
2.76993e-09
2.71653e-09
2.67082e-09
2.61395e-09
2.56999e-09
2.51354e-09
2.45604e-09
2.41214e-09
2.37323e-09
2.3297e-09
2.28655e-09
2.23757e-09
2.20242e-09
2.17218e-09
2.1399e-09
2.10402e-09
2.06829e-09
2.03496e-09
2.00042e-09
1.95774e-09
1.89351e-09
1.84799e-09
1.80075e-09
1.75155e-09
1.70036e-09
1.63023e-09
1.57547e-09
1.51409e-09
1.42946e-09
1.33248e-09
1.24994e-09
1.17432e-09
1.09426e-09
1.02013e-09
9.32858e-10
8.35272e-10
7.47093e-10
6.55333e-10
5.95364e-10
5.15433e-10
4.49426e-10
3.91207e-10
3.44605e-10
3.07785e-10
2.73278e-10
2.45268e-10
2.12088e-10
1.80327e-10
1.66877e-10
1.44832e-10
1.12044e-10
9.17127e-11
7.55086e-11
6.12036e-11
2.69397e-11
5.24551e-09
5.24173e-09
5.26424e-09
5.27818e-09
5.29778e-09
5.33243e-09
5.36163e-09
5.38242e-09
5.40709e-09
5.42942e-09
5.44474e-09
5.47585e-09
5.48973e-09
5.49753e-09
5.50568e-09
5.543e-09
5.57726e-09
5.60891e-09
5.61061e-09
5.63265e-09
5.6729e-09
5.68896e-09
5.69113e-09
5.69647e-09
5.6817e-09
5.66695e-09
5.65443e-09
5.63864e-09
5.61205e-09
5.58313e-09
5.55416e-09
5.52949e-09
5.51423e-09
5.49448e-09
5.47404e-09
5.45735e-09
5.44415e-09
5.44201e-09
5.44335e-09
5.43706e-09
5.43659e-09
5.43947e-09
5.43403e-09
5.42001e-09
5.41148e-09
5.40229e-09
5.38406e-09
5.37193e-09
5.35614e-09
5.32089e-09
5.2924e-09
5.28758e-09
5.26135e-09
5.24349e-09
5.22812e-09
5.20095e-09
5.16539e-09
5.14454e-09
5.11336e-09
5.10775e-09
5.08954e-09
5.07355e-09
5.06592e-09
5.05083e-09
5.03216e-09
5.00933e-09
4.97533e-09
4.9512e-09
4.92083e-09
4.90121e-09
4.88552e-09
4.86125e-09
4.84641e-09
4.83223e-09
4.81448e-09
4.80127e-09
4.7806e-09
4.76991e-09
4.7746e-09
4.77694e-09
4.77534e-09
4.75296e-09
4.74841e-09
4.74941e-09
4.73905e-09
4.71892e-09
4.67893e-09
4.64002e-09
4.62721e-09
4.59724e-09
4.55696e-09
4.54007e-09
4.52305e-09
4.50209e-09
4.48563e-09
4.46524e-09
4.42768e-09
4.40074e-09
4.38504e-09
4.35694e-09
4.31589e-09
4.2664e-09
4.23627e-09
4.21123e-09
4.19442e-09
4.15985e-09
4.11245e-09
4.06757e-09
4.04903e-09
4.03659e-09
3.99295e-09
3.96657e-09
3.94853e-09
3.91211e-09
3.89053e-09
3.86483e-09
3.83229e-09
3.81983e-09
3.78513e-09
3.75503e-09
3.7278e-09
3.71671e-09
3.7102e-09
3.6977e-09
3.67133e-09
3.64914e-09
3.62442e-09
3.5939e-09
3.54378e-09
3.49289e-09
3.43802e-09
3.39129e-09
3.35845e-09
3.31625e-09
3.25882e-09
3.21389e-09
3.1689e-09
3.12676e-09
3.08057e-09
3.04083e-09
2.99797e-09
2.9671e-09
2.93325e-09
2.87223e-09
2.82527e-09
2.78481e-09
2.72308e-09
2.66852e-09
2.61641e-09
2.56429e-09
2.52152e-09
2.47141e-09
2.42324e-09
2.38994e-09
2.33537e-09
2.29613e-09
2.2472e-09
2.19315e-09
2.17133e-09
2.1227e-09
2.09684e-09
2.06436e-09
2.0271e-09
2.00256e-09
1.9561e-09
1.89366e-09
1.83197e-09
1.78583e-09
1.7354e-09
1.67657e-09
1.61886e-09
1.5626e-09
1.50165e-09
1.42894e-09
1.33207e-09
1.2429e-09
1.17451e-09
1.10771e-09
1.02597e-09
9.35051e-10
8.45796e-10
7.53446e-10
6.75169e-10
5.9994e-10
5.17632e-10
4.50219e-10
3.94315e-10
3.40752e-10
2.9995e-10
2.6689e-10
2.36981e-10
2.06449e-10
1.78412e-10
1.56278e-10
1.33101e-10
1.11144e-10
9.21408e-11
7.08464e-11
4.53159e-11
2.20513e-11
5.24731e-09
5.23432e-09
5.2563e-09
5.27458e-09
5.28998e-09
5.32005e-09
5.33702e-09
5.36215e-09
5.38862e-09
5.41617e-09
5.42685e-09
5.45617e-09
5.48961e-09
5.49717e-09
5.50867e-09
5.5503e-09
5.58423e-09
5.59615e-09
5.61916e-09
5.65207e-09
5.68264e-09
5.68463e-09
5.68141e-09
5.693e-09
5.66966e-09
5.65045e-09
5.63896e-09
5.62971e-09
5.60934e-09
5.57028e-09
5.54048e-09
5.5195e-09
5.51258e-09
5.50517e-09
5.48223e-09
5.4616e-09
5.44295e-09
5.45271e-09
5.45891e-09
5.44203e-09
5.43835e-09
5.44282e-09
5.43451e-09
5.42109e-09
5.41498e-09
5.411e-09
5.39231e-09
5.3664e-09
5.34373e-09
5.3244e-09
5.29807e-09
5.27228e-09
5.25878e-09
5.25053e-09
5.23981e-09
5.20166e-09
5.17208e-09
5.15145e-09
5.12108e-09
5.11657e-09
5.10101e-09
5.07864e-09
5.06737e-09
5.0528e-09
5.0285e-09
4.99867e-09
4.96042e-09
4.94473e-09
4.91291e-09
4.892e-09
4.87526e-09
4.86088e-09
4.84978e-09
4.84073e-09
4.82682e-09
4.80937e-09
4.78313e-09
4.78121e-09
4.7778e-09
4.78374e-09
4.77361e-09
4.76072e-09
4.75967e-09
4.74358e-09
4.75122e-09
4.7312e-09
4.68919e-09
4.65269e-09
4.62406e-09
4.60467e-09
4.57255e-09
4.54383e-09
4.53182e-09
4.51522e-09
4.49568e-09
4.46598e-09
4.43387e-09
4.4035e-09
4.3721e-09
4.34148e-09
4.30612e-09
4.2665e-09
4.23955e-09
4.21103e-09
4.17981e-09
4.14952e-09
4.11121e-09
4.07071e-09
4.04272e-09
4.02203e-09
3.98637e-09
3.96551e-09
3.93556e-09
3.90706e-09
3.88207e-09
3.85658e-09
3.83456e-09
3.81931e-09
3.78361e-09
3.76363e-09
3.74393e-09
3.72267e-09
3.70555e-09
3.70057e-09
3.67968e-09
3.65389e-09
3.62841e-09
3.60327e-09
3.54869e-09
3.48856e-09
3.43793e-09
3.39784e-09
3.35648e-09
3.31405e-09
3.27142e-09
3.22613e-09
3.17609e-09
3.12662e-09
3.08975e-09
3.04601e-09
3.00059e-09
2.96721e-09
2.9326e-09
2.87279e-09
2.82838e-09
2.7768e-09
2.7166e-09
2.66264e-09
2.61351e-09
2.57036e-09
2.52375e-09
2.48091e-09
2.43429e-09
2.39582e-09
2.32395e-09
2.28197e-09
2.24338e-09
2.19236e-09
2.1606e-09
2.12257e-09
2.08298e-09
2.05973e-09
2.03162e-09
1.99721e-09
1.9571e-09
1.89422e-09
1.83081e-09
1.77968e-09
1.72889e-09
1.67531e-09
1.59721e-09
1.53506e-09
1.48213e-09
1.40663e-09
1.32789e-09
1.24659e-09
1.1726e-09
1.10929e-09
1.03221e-09
9.35155e-10
8.44518e-10
7.7054e-10
6.95286e-10
6.10022e-10
5.27134e-10
4.56151e-10
3.95294e-10
3.34611e-10
2.96083e-10
2.66443e-10
2.28325e-10
1.97064e-10
1.64277e-10
1.48199e-10
1.24874e-10
1.10102e-10
8.80388e-11
6.67158e-11
4.36537e-11
2.27701e-11
5.26253e-09
5.23324e-09
5.24896e-09
5.27902e-09
5.2854e-09
5.30354e-09
5.32197e-09
5.34527e-09
5.36525e-09
5.39619e-09
5.4122e-09
5.44145e-09
5.48451e-09
5.49711e-09
5.5089e-09
5.55085e-09
5.58537e-09
5.61306e-09
5.63654e-09
5.65319e-09
5.67839e-09
5.68446e-09
5.67283e-09
5.66644e-09
5.65473e-09
5.63801e-09
5.62359e-09
5.60804e-09
5.60435e-09
5.56891e-09
5.53948e-09
5.52176e-09
5.50987e-09
5.50807e-09
5.48381e-09
5.46828e-09
5.45612e-09
5.45489e-09
5.45845e-09
5.45965e-09
5.43786e-09
5.43838e-09
5.43376e-09
5.42552e-09
5.42176e-09
5.40755e-09
5.38044e-09
5.35413e-09
5.34014e-09
5.32155e-09
5.29982e-09
5.26837e-09
5.25848e-09
5.25277e-09
5.22405e-09
5.20498e-09
5.18505e-09
5.16816e-09
5.1378e-09
5.11417e-09
5.10096e-09
5.08168e-09
5.07563e-09
5.05046e-09
5.01234e-09
4.98402e-09
4.96095e-09
4.93924e-09
4.90685e-09
4.88168e-09
4.86268e-09
4.85754e-09
4.85508e-09
4.84249e-09
4.82423e-09
4.80576e-09
4.79589e-09
4.79255e-09
4.79143e-09
4.78526e-09
4.77952e-09
4.76952e-09
4.75534e-09
4.74803e-09
4.74396e-09
4.72858e-09
4.69123e-09
4.65731e-09
4.62372e-09
4.60695e-09
4.58501e-09
4.56598e-09
4.54159e-09
4.51592e-09
4.49174e-09
4.46709e-09
4.43797e-09
4.39671e-09
4.36105e-09
4.33614e-09
4.31015e-09
4.26958e-09
4.22585e-09
4.19997e-09
4.17343e-09
4.14556e-09
4.1157e-09
4.07278e-09
4.04006e-09
4.01726e-09
3.99727e-09
3.96945e-09
3.9419e-09
3.90699e-09
3.88572e-09
3.87e-09
3.84426e-09
3.81437e-09
3.79221e-09
3.76392e-09
3.74606e-09
3.73238e-09
3.71709e-09
3.70051e-09
3.6793e-09
3.66027e-09
3.63786e-09
3.60065e-09
3.55341e-09
3.48298e-09
3.43571e-09
3.396e-09
3.35115e-09
3.31075e-09
3.26901e-09
3.2331e-09
3.19025e-09
3.14132e-09
3.10842e-09
3.05434e-09
3.00634e-09
2.96723e-09
2.92606e-09
2.86906e-09
2.82258e-09
2.77364e-09
2.72043e-09
2.6703e-09
2.62478e-09
2.5804e-09
2.53334e-09
2.48756e-09
2.43885e-09
2.39172e-09
2.32759e-09
2.28488e-09
2.24023e-09
2.19523e-09
2.15745e-09
2.12191e-09
2.08777e-09
2.05702e-09
2.03084e-09
1.98079e-09
1.94377e-09
1.89028e-09
1.82654e-09
1.77475e-09
1.72235e-09
1.66413e-09
1.58419e-09
1.5183e-09
1.45348e-09
1.39097e-09
1.32118e-09
1.23957e-09
1.17262e-09
1.10213e-09
1.02331e-09
9.30581e-10
8.32811e-10
7.65933e-10
6.95968e-10
6.13321e-10
5.39861e-10
4.64746e-10
4.02406e-10
3.52737e-10
3.02711e-10
2.5705e-10
2.12368e-10
1.8455e-10
1.56961e-10
1.42754e-10
1.21489e-10
9.90042e-11
8.04034e-11
7.06037e-11
4.89329e-11
2.54059e-11
5.25685e-09
5.23364e-09
5.24455e-09
5.27296e-09
5.28626e-09
5.29439e-09
5.30727e-09
5.33595e-09
5.35809e-09
5.38596e-09
5.40614e-09
5.42778e-09
5.4671e-09
5.50121e-09
5.53172e-09
5.56052e-09
5.59033e-09
5.61936e-09
5.64237e-09
5.66915e-09
5.67458e-09
5.68041e-09
5.66307e-09
5.65194e-09
5.64926e-09
5.63056e-09
5.60536e-09
5.5993e-09
5.59589e-09
5.56908e-09
5.54127e-09
5.5203e-09
5.51817e-09
5.51171e-09
5.48769e-09
5.47852e-09
5.46078e-09
5.45822e-09
5.45878e-09
5.46172e-09
5.44608e-09
5.44358e-09
5.44144e-09
5.43235e-09
5.42498e-09
5.40291e-09
5.38199e-09
5.35388e-09
5.34084e-09
5.32619e-09
5.30872e-09
5.28746e-09
5.26716e-09
5.25645e-09
5.23253e-09
5.20387e-09
5.17109e-09
5.15942e-09
5.14465e-09
5.11533e-09
5.09922e-09
5.0809e-09
5.05437e-09
5.0307e-09
4.99319e-09
4.97051e-09
4.95123e-09
4.92164e-09
4.90481e-09
4.88111e-09
4.86815e-09
4.86714e-09
4.86005e-09
4.84884e-09
4.8184e-09
4.80783e-09
4.8098e-09
4.79911e-09
4.79187e-09
4.7968e-09
4.77872e-09
4.75767e-09
4.756e-09
4.76299e-09
4.74299e-09
4.71467e-09
4.68654e-09
4.66071e-09
4.636e-09
4.61853e-09
4.58978e-09
4.55802e-09
4.54036e-09
4.51612e-09
4.48849e-09
4.44714e-09
4.42439e-09
4.39377e-09
4.36925e-09
4.32838e-09
4.29129e-09
4.26116e-09
4.22896e-09
4.1951e-09
4.16654e-09
4.13892e-09
4.10185e-09
4.06044e-09
4.04472e-09
4.02456e-09
4.00619e-09
3.96526e-09
3.93276e-09
3.9162e-09
3.8901e-09
3.86626e-09
3.83276e-09
3.81126e-09
3.79573e-09
3.76928e-09
3.74694e-09
3.74287e-09
3.72268e-09
3.70797e-09
3.68666e-09
3.66644e-09
3.63706e-09
3.59786e-09
3.55079e-09
3.49057e-09
3.44568e-09
3.40134e-09
3.35525e-09
3.31741e-09
3.27091e-09
3.22555e-09
3.18204e-09
3.14613e-09
3.11641e-09
3.06739e-09
3.01578e-09
2.97237e-09
2.93883e-09
2.88031e-09
2.82415e-09
2.76788e-09
2.72658e-09
2.67165e-09
2.61858e-09
2.5749e-09
2.53073e-09
2.47986e-09
2.42e-09
2.37844e-09
2.33376e-09
2.28224e-09
2.23582e-09
2.19915e-09
2.1596e-09
2.12809e-09
2.09299e-09
2.04895e-09
2.01855e-09
1.97735e-09
1.92525e-09
1.88631e-09
1.82211e-09
1.76523e-09
1.71019e-09
1.63375e-09
1.56844e-09
1.50047e-09
1.43213e-09
1.36901e-09
1.30296e-09
1.24471e-09
1.16923e-09
1.09025e-09
1.0087e-09
9.22401e-10
8.33535e-10
7.55304e-10
6.84707e-10
6.18061e-10
5.42701e-10
4.88436e-10
4.29745e-10
3.56128e-10
2.93976e-10
2.43918e-10
2.09655e-10
1.76712e-10
1.4935e-10
1.29809e-10
1.07611e-10
9.41463e-11
8.815e-11
6.51304e-11
4.37341e-11
1.3365e-11
5.25457e-09
5.24631e-09
5.24094e-09
5.26789e-09
5.27239e-09
5.28168e-09
5.29706e-09
5.32632e-09
5.36164e-09
5.3791e-09
5.38207e-09
5.42188e-09
5.46203e-09
5.50254e-09
5.53274e-09
5.5613e-09
5.60655e-09
5.63287e-09
5.65476e-09
5.67125e-09
5.6784e-09
5.67192e-09
5.66308e-09
5.65429e-09
5.63014e-09
5.61677e-09
5.60277e-09
5.59556e-09
5.58892e-09
5.56047e-09
5.53857e-09
5.5214e-09
5.5232e-09
5.5151e-09
5.4864e-09
5.4671e-09
5.46166e-09
5.46662e-09
5.46692e-09
5.4557e-09
5.44038e-09
5.45061e-09
5.45595e-09
5.45119e-09
5.41901e-09
5.3995e-09
5.39073e-09
5.37166e-09
5.35698e-09
5.32787e-09
5.31333e-09
5.30297e-09
5.27835e-09
5.25648e-09
5.23652e-09
5.20102e-09
5.16824e-09
5.15822e-09
5.13581e-09
5.10954e-09
5.0942e-09
5.07327e-09
5.03394e-09
4.99963e-09