/*--------------------------------*- C++ -*----------------------------------*\
  =========                 |
  \\      /  F ield         | OpenFOAM: The Open Source CFD Toolbox
   \\    /   O peration     | Website:  https://openfoam.org
    \\  /    A nd           | Version:  6
     \\/     M anipulation  |
\*---------------------------------------------------------------------------*/
FoamFile
{
    version     2.0;
    format      ascii;
    class       volVectorField;
    location    "120";
    object      U;
}
// * * * * * * * * * * * * * * * * * * * * * * * * * * * * * * * * * * * * * //

dimensions      [0 1 -1 0 0 0 0];

internalField   nonuniform List<vector> 
4000
(
(400 3.32776e-14 0)
(400 4.02824e-14 0)
(400 4.72414e-14 0)
(400 5.91648e-14 0)
(400 7.17006e-14 0)
(400 7.43053e-14 0)
(400 6.47195e-14 0)
(400 5.46285e-14 0)
(400 4.14779e-14 0)
(400 1.44441e-14 0)
(400 -8.20763e-15 0)
(400 -2.96602e-14 0)
(400 -5.1283e-14 0)
(400 -4.50077e-14 0)
(400 -2.59115e-14 0)
(400 -1.10647e-14 0)
(400 -7.98841e-16 0)
(400 1.4565e-14 0)
(400 2.44192e-14 0)
(400 2.42812e-14 0)
(400 3.90674e-14 0)
(400 5.86678e-14 0)
(400 6.98121e-14 0)
(400 8.67557e-14 0)
(400 9.88749e-14 0)
(400 8.84845e-14 0)
(400 5.20193e-14 0)
(400 2.46538e-14 0)
(400 2.9564e-15 0)
(400 -1.4883e-14 0)
(400 -3.52188e-14 0)
(400 -5.56334e-14 0)
(400 -5.02418e-14 0)
(400 -4.17579e-14 0)
(400 -3.33837e-14 0)
(400 -2.81991e-14 0)
(400 -1.58849e-14 0)
(400 -1.56988e-14 0)
(400 -2.29679e-14 0)
(400 -2.51149e-14 0)
(400 -1.98916e-14 0)
(400 -2.33302e-14 0)
(400 -2.28523e-14 0)
(400 -2.84761e-14 0)
(400 -2.11212e-14 0)
(400 6.43348e-15 0)
(400 1.22078e-14 0)
(400 -1.02602e-15 0)
(400 -2.24078e-15 0)
(400 1.18366e-14 0)
(400 3.17157e-14 0)
(400 2.40353e-14 0)
(400 1.36218e-14 0)
(400 -2.43117e-15 0)
(400 -1.13646e-14 0)
(400 -8.7055e-15 0)
(400 -1.34703e-14 0)
(400 -1.81106e-14 0)
(400 -1.20764e-14 0)
(400 -1.05183e-15 0)
(400 9.16623e-15 0)
(400 1.95666e-14 0)
(400 2.36019e-14 0)
(400 1.42778e-14 0)
(400 1.47851e-14 0)
(400 2.98131e-14 0)
(400 4.95311e-14 0)
(400 4.97618e-14 0)
(400 5.34808e-14 0)
(400 2.60773e-14 0)
(400 8.12767e-15 0)
(400 8.77492e-15 0)
(400 -5.54877e-15 0)
(400 -2.63635e-14 0)
(400 -5.11182e-14 0)
(400 -5.70392e-14 0)
(400 -4.5192e-14 0)
(400 -4.16091e-14 0)
(400 -4.92329e-14 0)
(400 -5.32334e-14 0)
(400 -4.81851e-14 0)
(400 -4.09936e-14 0)
(400 -4.40093e-14 0)
(400 -3.45546e-14 0)
(400 -3.62412e-14 0)
(400 -3.83235e-14 0)
(400 -3.83204e-14 0)
(400 -3.7839e-14 0)
(400 -3.49898e-14 0)
(400 -3.40851e-14 0)
(400 -1.36918e-14 0)
(400 -8.3268e-15 0)
(400 -8.62563e-15 0)
(400 -1.58617e-14 0)
(400 -1.51596e-14 0)
(400 -4.43049e-15 0)
(400 -9.43924e-15 0)
(400 -3.18232e-15 0)
(400 -8.32932e-15 0)
(400 -6.7985e-15 0)
(400 -1.3327e-14 0)
(400 -2.30607e-14 0)
(400 -2.01375e-14 0)
(400 -1.88166e-14 0)
(400 -3.9016e-14 0)
(400 -4.45651e-14 0)
(400 -3.01334e-14 0)
(400 3.02572e-15 0)
(400 1.40364e-14 0)
(400 5.66641e-15 0)
(400 2.49354e-15 0)
(400 4.71532e-15 0)
(400 1.01135e-15 0)
(400 1.94141e-15 0)
(400 3.79622e-15 0)
(400 1.2622e-14 0)
(400 3.49172e-14 0)
(400 5.31309e-14 0)
(400 5.62465e-14 0)
(400 5.63699e-14 0)
(400 4.54125e-14 0)
(400 4.09729e-14 0)
(400 3.1714e-14 0)
(400 1.6092e-14 0)
(400 1.78472e-14 0)
(400 2.56574e-14 0)
(400 2.03718e-14 0)
(400 1.32953e-14 0)
(400 7.82161e-15 0)
(400 1.46825e-14 0)
(400 2.19681e-14 0)
(400 3.68287e-14 0)
(400 3.60326e-14 0)
(400 3.47208e-14 0)
(400 3.1687e-14 0)
(400 3.05796e-14 0)
(400 3.26013e-14 0)
(400 4.14041e-14 0)
(400 2.6204e-14 0)
(400 2.22093e-14 0)
(400 2.83515e-14 0)
(400 3.34199e-14 0)
(400 4.94386e-14 0)
(400 4.97422e-14 0)
(400 4.12338e-14 0)
(400 4.7477e-14 0)
(400 3.79836e-14 0)
(400 1.27162e-14 0)
(400 -5.33702e-15 0)
(400 -2.47113e-14 0)
(400 -2.43041e-14 0)
(400 -1.19936e-14 0)
(400 5.15313e-15 0)
(400 3.68018e-15 0)
(400 7.50328e-15 0)
(400 -4.36417e-15 0)
(400 -2.58657e-15 0)
(400 -3.47628e-15 0)
(400 -9.43134e-15 0)
(400 -2.53998e-15 0)
(400 -1.14955e-14 0)
(400 -3.12707e-14 0)
(400 -4.69675e-14 0)
(400 -3.56049e-14 0)
(400 -2.78989e-14 0)
(400 -2.23537e-14 0)
(400 -9.31489e-15 0)
(400 1.54772e-14 0)
(400 2.54218e-14 0)
(400 2.844e-14 0)
(400 2.74025e-14 0)
(400 2.43669e-14 0)
(400 1.52354e-14 0)
(400 2.07781e-14 0)
(400 1.51003e-14 0)
(400 9.28022e-16 0)
(400 -7.16355e-15 0)
(400 -2.14555e-14 0)
(400 -2.54743e-14 0)
(400 -2.42243e-14 0)
(400 -7.60817e-15 0)
(400 2.34384e-15 0)
(400 1.25186e-14 0)
(400 2.45532e-14 0)
(400 3.72295e-14 0)
(400 6.03112e-14 0)
(400 8.0791e-14 0)
(400 7.99532e-14 0)
(400 7.38532e-14 0)
(400 7.77727e-14 0)
(400 8.25831e-14 0)
(400 5.65725e-14 0)
(400 1.9118e-14 0)
(400 1.39956e-16 0)
(400 -8.54296e-16 0)
(400 -6.86144e-15 0)
(400 -9.13281e-15 0)
(400 -3.15377e-14 0)
(400 -4.92759e-14 0)
(400 -4.14579e-14 0)
(400 -1.15624e-14 0)
(400 2.34805e-15 0)
(400 1.88443e-14 0)
(400 3.92855e-14 0)
(400 5.69008e-14 0)
(400 7.17956e-14 0)
(400 7.25705e-14 0)
(400 6.19844e-14 0)
(400 4.3697e-14 0)
(400 1.95545e-14 0)
(400 7.09539e-15 0)
(400 -9.65374e-15 0)
(400 -1.93927e-14 0)
(400 -2.25936e-14 0)
(400 -8.46028e-15 0)
(400 -1.72211e-14 0)
(400 -4.21578e-15 0)
(400 1.70077e-14 0)
(400 3.00121e-14 0)
(400 4.33136e-14 0)
(400 6.48958e-14 0)
(400 7.39182e-14 0)
(400 7.86581e-14 0)
(400 1.03568e-13 0)
(400 1.16546e-13 0)
(400 9.31092e-14 0)
(400 7.7529e-14 0)
(400 6.64913e-14 0)
(400 3.82869e-14 0)
(400 6.78198e-15 0)
(400 -1.34917e-14 0)
(400 -1.315e-14 0)
(400 -1.88102e-14 0)
(400 -1.87322e-14 0)
(400 -8.04752e-15 0)
(400 -3.96863e-15 0)
(400 7.79514e-15 0)
(400 1.20521e-14 0)
(400 -3.30302e-15 0)
(400 -1.14162e-14 0)
(400 -1.23181e-14 0)
(400 -7.53982e-15 0)
(400 -7.78632e-15 0)
(400 2.62824e-15 0)
(400 -1.07388e-15 0)
(400 1.88093e-15 0)
(400 -5.12625e-15 0)
(400 -1.93014e-14 0)
(400 -6.47644e-15 0)
(400 -4.73799e-15 0)
(400 -5.40123e-15 0)
(400 1.56141e-15 0)
(400 1.01202e-15 0)
(400 -1.13759e-14 0)
(400 -2.64176e-14 0)
(400 -2.39291e-14 0)
(400 -2.68164e-14 0)
(400 -2.28236e-14 0)
(400 -2.71817e-14 0)
(400 -3.177e-14 0)
(400 -2.1798e-14 0)
(400 -8.02136e-15 0)
(400 -5.09753e-15 0)
(400 -2.37583e-15 0)
(400 1.59056e-14 0)
(400 2.98322e-14 0)
(400 4.04096e-14 0)
(400 3.71778e-14 0)
(400 4.42013e-14 0)
(400 5.76017e-14 0)
(400 6.01854e-14 0)
(400 5.05868e-14 0)
(400 3.01044e-14 0)
(400 5.31364e-15 0)
(400 -1.45106e-14 0)
(400 -4.25577e-14 0)
(400 -4.86615e-14 0)
(400 -3.29227e-14 0)
(400 -2.92941e-14 0)
(400 -3.67913e-14 0)
(400 -2.96336e-14 0)
(400 -1.66355e-14 0)
(400 -2.31328e-14 0)
(400 -1.30712e-14 0)
(400 -2.18748e-14 0)
(400 -2.81051e-14 0)
(400 -2.58145e-14 0)
(400 -1.04603e-14 0)
(400 -9.1867e-15 0)
(400 -1.50441e-14 0)
(400 -1.54693e-14 0)
(400 -3.0254e-16 0)
(400 -8.6469e-15 0)
(400 -6.65201e-15 0)
(400 -1.10734e-15 0)
(400 1.61737e-16 0)
(400 -1.54077e-15 0)
(400 4.25899e-15 0)
(400 2.08161e-14 0)
(400 2.4198e-14 0)
(400 1.7337e-14 0)
(400 1.86724e-14 0)
(400 2.01696e-14 0)
(400 3.35303e-14 0)
(400 2.57027e-14 0)
(400 2.93377e-15 0)
(400 8.10518e-16 0)
(400 1.03715e-15 0)
(400 8.30917e-15 0)
(400 2.52107e-14 0)
(400 2.96564e-14 0)
(400 2.90089e-14 0)
(400 1.67219e-14 0)
(400 2.62584e-14 0)
(400 2.35482e-14 0)
(400 1.64282e-14 0)
(400 3.1948e-14 0)
(400 5.44468e-14 0)
(400 6.58323e-14 0)
(400 4.65153e-14 0)
(400 3.01572e-14 0)
(400 2.5309e-14 0)
(400 3.87296e-14 0)
(400 5.93054e-14 0)
(400 6.44431e-14 0)
(400 6.36211e-14 0)
(400 7.12314e-14 0)
(400 7.3562e-14 0)
(400 7.19795e-14 0)
(400 6.84172e-14 0)
(400 6.8852e-14 0)
(400 8.49051e-14 0)
(400 8.39051e-14 0)
(400 6.98681e-14 0)
(400 6.10964e-14 0)
(400 6.91035e-14 0)
(400 6.13743e-14 0)
(400 4.74568e-14 0)
(400 3.42403e-14 0)
(400 3.23222e-14 0)
(400 3.54637e-14 0)
(400 2.85698e-14 0)
(400 2.00628e-14 0)
(400 2.97364e-14 0)
(400 4.85676e-14 0)
(400 4.7408e-14 0)
(400 2.48059e-14 0)
(400 1.03432e-14 0)
(400 7.94947e-15 0)
(400 -1.35384e-15 0)
(400 -2.18603e-14 0)
(400 -2.77699e-14 0)
(400 -1.44215e-14 0)
(400 6.96904e-15 0)
(400 1.27394e-14 0)
(400 6.16842e-15 0)
(400 2.36533e-15 0)
(400 -3.26264e-15 0)
(400 -1.00013e-14 0)
(400 -2.59875e-14 0)
(400 -3.30421e-14 0)
(400 -3.57258e-14 0)
(400 -5.19277e-14 0)
(400 -5.74715e-14 0)
(400 -6.32517e-14 0)
(400 -4.82936e-14 0)
(400 -3.26306e-14 0)
(400 -1.11156e-14 0)
(400 -1.24351e-14 0)
(400 -1.46003e-14 0)
(400 -1.16673e-14 0)
(400 -8.82502e-15 0)
(400 -1.96484e-15 0)
(400 -7.09273e-15 0)
(400 -3.05316e-14 0)
(400 -2.64185e-14 0)
(400 -2.44616e-14 0)
(400 -2.57372e-14 0)
(400 -3.54555e-14 0)
(400 -3.12723e-14 0)
(400 -4.96261e-15 0)
(400 1.19518e-14 0)
(400 5.81854e-15 0)
(400 1.06965e-14 0)
(400 1.48693e-14 0)
(400 3.49476e-14 0)
(400 5.25114e-14 0)
(400 6.35869e-14 0)
(400 8.07872e-14 0)
(400 8.9796e-14 0)
(400 9.10298e-14 0)
(400 7.87104e-14 0)
(400 6.64408e-14 0)
(400 5.23367e-14 0)
(400 4.99468e-14 0)
(400 4.12883e-14 0)
(400 4.61816e-14 0)
(400 4.14455e-14 0)
(400 3.17512e-14 0)
(400 3.5454e-14 0)
(400 -2.97951e-14 0)
(400 -2.54088e-14 0)
(400 -3.22397e-15 0)
(400 2.22856e-14 0)
(400 3.26351e-14 0)
(400 5.36483e-14 0)
(400 5.07291e-14 0)
(400 4.24647e-14 0)
(400 4.05855e-14 0)
(400 3.43041e-14 0)
(400 2.5033e-14 0)
(400 1.66348e-14 0)
(400 3.41833e-15 0)
(400 5.73911e-15 0)
(400 2.68114e-14 0)
(400 3.02473e-14 0)
(400 3.7317e-14 0)
(400 5.74005e-14 0)
(400 7.2078e-14 0)
(400 7.26744e-14 0)
(400 8.40678e-14 0)
(400 7.43561e-14 0)
(400 7.50066e-14 0)
(400 9.13475e-14 0)
(400 8.63407e-14 0)
(400 7.10639e-14 0)
(400 6.0336e-14 0)
(400 5.28048e-14 0)
(400 3.80597e-14 0)
(400 2.52976e-15 0)
(400 -1.18951e-14 0)
(400 -1.64419e-14 0)
(400 -2.15295e-14 0)
(400 -5.63961e-15 0)
(400 -1.95095e-15 0)
(400 -8.12194e-15 0)
(400 -1.59311e-14 0)
(400 -1.71661e-14 0)
(400 -9.55724e-15 0)
(400 -1.51478e-14 0)
(400 -2.23417e-14 0)
(400 5.89067e-15 0)
(400 4.94434e-15 0)
(400 1.33133e-14 0)
(400 -7.33706e-15 0)
(400 -2.39254e-14 0)
(400 -3.74601e-14 0)
(400 -3.661e-14 0)
(400 -3.58998e-14 0)
(400 -6.35607e-14 0)
(400 -8.10028e-14 0)
(400 -6.59619e-14 0)
(400 -5.4786e-14 0)
(400 -7.03151e-14 0)
(400 -7.95814e-14 0)
(400 -6.31456e-14 0)
(400 -5.56775e-14 0)
(400 -4.78768e-14 0)
(400 -5.14289e-14 0)
(400 -4.00974e-14 0)
(400 -2.47391e-14 0)
(400 -1.90524e-14 0)
(400 -7.78431e-16 0)
(400 1.62869e-14 0)
(400 2.0387e-14 0)
(400 1.45937e-14 0)
(400 -4.55948e-15 0)
(400 -5.35978e-15 0)
(400 -5.39999e-15 0)
(400 8.05591e-15 0)
(400 7.81927e-15 0)
(400 1.51074e-15 0)
(400 -5.463e-15 0)
(400 -1.35748e-14 0)
(400 -1.44511e-14 0)
(400 -2.59075e-14 0)
(400 -3.91088e-14 0)
(400 -2.58757e-14 0)
(400 -1.56934e-14 0)
(400 -1.38581e-14 0)
(400 -9.94688e-15 0)
(400 -8.83617e-15 0)
(400 -5.91099e-15 0)
(400 -8.33996e-15 0)
(400 -2.17637e-14 0)
(400 -2.02272e-14 0)
(400 -8.72531e-15 0)
(400 1.44309e-14 0)
(400 4.11393e-14 0)
(400 4.81786e-14 0)
(400 5.3945e-14 0)
(400 6.07062e-14 0)
(400 4.31183e-14 0)
(400 4.28321e-14 0)
(400 4.19624e-14 0)
(400 3.32998e-14 0)
(400 3.55211e-14 0)
(400 2.76009e-14 0)
(400 2.61754e-14 0)
(400 6.2594e-15 0)
(400 -4.43269e-15 0)
(400 -2.18871e-14 0)
(400 -2.73309e-14 0)
(400 -4.22199e-14 0)
(400 -4.75917e-14 0)
(400 -4.89883e-14 0)
(400 -4.75603e-14 0)
(400 -4.80748e-14 0)
(400 -4.62023e-14 0)
(400 -4.21515e-14 0)
(400 -3.19694e-14 0)
(400 -1.87056e-14 0)
(400 -1.46887e-14 0)
(400 -9.49873e-15 0)
(400 -2.11583e-15 0)
(400 1.09128e-15 0)
(400 2.0914e-14 0)
(400 4.41794e-14 0)
(400 5.73939e-14 0)
(400 4.87912e-14 0)
(400 4.03485e-14 0)
(400 4.237e-14 0)
(400 6.34296e-14 0)
(400 8.58528e-14 0)
(400 7.96326e-14 0)
(400 6.75087e-14 0)
(400 6.76683e-14 0)
(400 5.73662e-14 0)
(400 6.29658e-14 0)
(400 6.1152e-14 0)
(400 4.99709e-14 0)
(400 5.30994e-14 0)
(400 6.24634e-14 0)
(400 4.14944e-14 0)
(400 1.80555e-14 0)
(400 1.16475e-14 0)
(400 1.1912e-14 0)
(400 -5.42624e-15 0)
(400 -1.58352e-15 0)
(400 3.4786e-15 0)
(400 8.40694e-15 0)
(400 1.14396e-14 0)
(400 4.26287e-15 0)
(400 1.79507e-14 0)
(400 3.6303e-14 0)
(400 3.39179e-14 0)
(400 2.66428e-14 0)
(400 1.77368e-14 0)
(400 1.51951e-14 0)
(400 1.84491e-14 0)
(400 2.07495e-14 0)
(400 3.18781e-14 0)
(400 2.46458e-14 0)
(400 4.48643e-14 0)
(400 6.22343e-14 0)
(400 7.40284e-14 0)
(400 7.27192e-14 0)
(400 5.66777e-14 0)
(400 4.18513e-14 0)
(400 3.20386e-14 0)
(400 3.5063e-14 0)
(400 3.47078e-14 0)
(400 1.57632e-14 0)
(400 -1.40523e-14 0)
(400 -3.06739e-14 0)
(400 -4.72934e-14 0)
(400 -4.09799e-14 0)
(400 -3.18268e-14 0)
(400 -2.12356e-14 0)
(400 -2.24656e-14 0)
(400 -2.16651e-14 0)
(400 -2.31251e-14 0)
(400 -1.33478e-14 0)
(400 -6.54369e-15 0)
(400 -9.75689e-17 0)
(400 1.12538e-14 0)
(400 1.47301e-14 0)
(400 1.29821e-14 0)
(400 7.48548e-17 0)
(400 -9.75674e-15 0)
(400 -8.10812e-15 0)
(400 4.46849e-15 0)
(400 -4.72744e-16 0)
(400 -1.33897e-15 0)
(400 5.38615e-15 0)
(400 9.25831e-15 0)
(400 6.3072e-15 0)
(400 1.54456e-14 0)
(400 2.77432e-14 0)
(400 2.85956e-14 0)
(400 2.01569e-14 0)
(400 2.00287e-14 0)
(400 1.59502e-14 0)
(400 2.60916e-14 0)
(400 3.16128e-14 0)
(400 3.25967e-14 0)
(400 2.06329e-14 0)
(400 1.72282e-14 0)
(400 7.73693e-15 0)
(400 -1.59556e-15 0)
(400 -1.1912e-14 0)
(400 -8.98474e-15 0)
(400 1.07078e-14 0)
(400 3.1432e-14 0)
(400 3.13743e-14 0)
(400 2.53062e-14 0)
(400 1.76229e-14 0)
(400 4.27257e-15 0)
(400 5.39834e-15 0)
(400 5.49592e-15 0)
(400 -3.43892e-15 0)
(400 -6.18986e-15 0)
(400 -4.02542e-15 0)
(400 -4.69027e-15 0)
(400 -6.90772e-15 0)
(400 6.87773e-15 0)
(400 1.26526e-14 0)
(400 2.62684e-14 0)
(400 4.37722e-14 0)
(400 7.57197e-14 0)
(400 9.03275e-14 0)
(400 9.60441e-14 0)
(400 9.3577e-14 0)
(400 7.86443e-14 0)
(400 4.6834e-14 0)
(400 3.71021e-14 0)
(400 3.27757e-14 0)
(400 3.37828e-14 0)
(400 3.66934e-14 0)
(400 3.37768e-14 0)
(400 4.07895e-14 0)
(400 2.59851e-14 0)
(400 1.39139e-14 0)
(400 5.54686e-15 0)
(400 -5.39662e-15 0)
(400 -1.79115e-14 0)
(400 -2.91776e-14 0)
(400 -4.324e-14 0)
(400 -3.17133e-14 0)
(400 -1.59597e-14 0)
(400 -9.39263e-15 0)
(400 4.6304e-15 0)
(400 6.9327e-15 0)
(400 6.19586e-15 0)
(400 1.45161e-14 0)
(400 7.01735e-15 0)
(400 5.01851e-15 0)
(400 2.1824e-14 0)
(400 1.45009e-14 0)
(400 -1.06446e-14 0)
(400 -1.69008e-14 0)
(400 -2.37317e-14 0)
(400 -3.52146e-14 0)
(400 -2.76207e-14 0)
(400 -2.17118e-14 0)
(400 -2.31324e-14 0)
(400 -1.83341e-14 0)
(400 -1.42933e-14 0)
(400 3.94609e-15 0)
(400 1.91045e-14 0)
(400 1.61979e-14 0)
(400 -7.40285e-15 0)
(400 -1.71655e-14 0)
(400 -1.8664e-14 0)
(400 -2.404e-14 0)
(400 -4.14611e-14 0)
(400 -4.91595e-14 0)
(400 -3.60243e-14 0)
(400 -2.09221e-14 0)
(400 -7.11499e-15 0)
(400 -6.54932e-15 0)
(400 -1.46417e-15 0)
(400 4.12921e-15 0)
(400 1.12482e-14 0)
(400 1.00482e-14 0)
(400 1.80674e-15 0)
(400 4.14447e-15 0)
(400 -4.28083e-15 0)
(400 -3.23886e-15 0)
(400 5.68239e-15 0)
(400 7.77373e-15 0)
(400 1.6634e-14 0)
(400 2.3978e-14 0)
(400 8.10534e-15 0)
(400 -1.07136e-14 0)
(400 -1.69847e-14 0)
(400 1.36281e-14 0)
(400 4.51073e-14 0)
(400 5.86521e-14 0)
(400 6.84864e-14 0)
(400 8.19346e-14 0)
(400 7.99892e-14 0)
(400 7.25818e-14 0)
(400 4.50485e-14 0)
(400 3.22723e-14 0)
(400 3.70286e-14 0)
(400 4.71552e-14 0)
(400 5.32335e-14 0)
(400 4.19683e-14 0)
(400 3.14252e-14 0)
(400 2.60703e-14 0)
(400 1.5816e-14 0)
(400 1.74301e-15 0)
(400 -1.88662e-14 0)
(400 -1.36126e-14 0)
(400 -1.96016e-15 0)
(400 -8.80859e-15 0)
(400 -1.61124e-14 0)
(400 -1.46519e-14 0)
(400 -2.40538e-14 0)
(400 -1.65971e-14 0)
(400 -5.72324e-15 0)
(400 1.00602e-14 0)
(400 6.02384e-15 0)
(400 1.12322e-14 0)
(400 2.17482e-14 0)
(400 3.90854e-14 0)
(400 5.87779e-14 0)
(400 7.27423e-14 0)
(400 6.61817e-14 0)
(400 6.06914e-14 0)
(400 4.78364e-14 0)
(400 6.4743e-14 0)
(400 6.96451e-14 0)
(400 7.0312e-14 0)
(400 6.99174e-14 0)
(400 6.3505e-14 0)
(400 4.62939e-14 0)
(400 4.87279e-14 0)
(400 4.49436e-14 0)
(400 4.01633e-14 0)
(400 2.53812e-14 0)
(400 1.00217e-14 0)
(400 3.4575e-16 0)
(400 -2.07276e-14 0)
(400 -3.23367e-14 0)
(400 -2.32781e-14 0)
(400 -2.68567e-14 0)
(400 -1.84061e-14 0)
(400 -2.48822e-14 0)
(400 -4.80183e-14 0)
(400 -6.09167e-14 0)
(400 -6.10276e-14 0)
(400 -5.33544e-14 0)
(400 -4.2548e-14 0)
(400 -4.30468e-14 0)
(400 -3.96902e-14 0)
(400 -3.60884e-14 0)
(400 -3.24114e-14 0)
(400 -2.45408e-14 0)
(400 -1.14006e-14 0)
(400 -1.4489e-15 0)
(400 4.15173e-15 0)
(400 3.06423e-14 0)
(400 4.78341e-14 0)
(400 5.63449e-14 0)
(400 5.69526e-14 0)
(400 5.04188e-14 0)
(400 3.92132e-14 0)
(400 2.638e-14 0)
(400 2.24905e-14 0)
(400 1.05628e-14 0)
(400 -5.82952e-16 0)
(400 -1.5205e-14 0)
(400 -3.70823e-14 0)
(400 -6.5203e-14 0)
(400 -7.78906e-14 0)
(400 -9.43739e-14 0)
(400 -7.97599e-14 0)
(400 -8.3354e-14 0)
(400 -8.11244e-14 0)
(400 -8.03464e-14 0)
(400 -7.0338e-14 0)
(400 -5.91124e-14 0)
(400 -3.33909e-14 0)
(400 -1.88047e-14 0)
(400 -1.16587e-14 0)
(400 -8.67343e-16 0)
(400 2.73242e-14 0)
(400 3.17721e-14 0)
(400 2.54834e-14 0)
(400 2.18317e-14 0)
(400 2.93076e-14 0)
(400 2.90111e-14 0)
(400 3.30615e-14 0)
(400 2.48035e-14 0)
(400 1.49014e-14 0)
(400 2.3711e-14 0)
(400 4.61803e-14 0)
(400 5.34648e-14 0)
(400 6.45434e-14 0)
(400 7.66203e-14 0)
(400 7.64681e-14 0)
(400 8.00602e-14 0)
(400 7.9832e-14 0)
(400 8.05509e-14 0)
(400 7.30268e-14 0)
(400 6.69902e-14 0)
(400 5.90677e-14 0)
(400 5.00893e-14 0)
(400 -5.62947e-16 0)
(400 7.30241e-15 0)
(400 8.99729e-15 0)
(400 1.24133e-14 0)
(400 1.87919e-14 0)
(400 9.60648e-15 0)
(400 6.31706e-15 0)
(400 5.02899e-15 0)
(400 -1.01172e-14 0)
(400 -2.15134e-14 0)
(400 -2.89214e-14 0)
(400 -4.14903e-14 0)
(400 -3.55811e-14 0)
(400 -2.58148e-14 0)
(400 -2.1059e-14 0)
(400 -1.85636e-14 0)
(400 -2.96367e-15 0)
(400 -1.54897e-15 0)
(400 8.87193e-15 0)
(400 6.05518e-14 0)
(400 7.35265e-14 0)
(400 7.65071e-14 0)
(400 6.1382e-14 0)
(400 3.30511e-14 0)
(400 1.3156e-14 0)
(400 1.86781e-14 0)
(400 3.08353e-14 0)
(400 3.90884e-14 0)
(400 4.07273e-14 0)
(400 5.63171e-14 0)
(400 6.52504e-14 0)
(400 5.81748e-14 0)
(400 3.20208e-14 0)
(400 1.57908e-14 0)
(400 7.47782e-15 0)
(400 -5.79558e-15 0)
(400 -1.77877e-14 0)
(400 -1.91627e-14 0)
(400 -1.08589e-14 0)
(400 -2.88387e-15 0)
(400 8.24359e-16 0)
(400 -1.27029e-14 0)
(400 -3.06895e-15 0)
(400 9.46483e-15 0)
(400 3.15344e-14 0)
(400 3.78412e-14 0)
(400 3.80458e-14 0)
(400 3.63955e-14 0)
(400 2.98587e-14 0)
(400 3.45095e-14 0)
(400 4.07137e-14 0)
(400 1.37508e-14 0)
(400 -4.40759e-15 0)
(400 1.7844e-14 0)
(400 4.06168e-14 0)
(400 4.32877e-14 0)
(400 5.02087e-14 0)
(400 5.16957e-14 0)
(400 6.81844e-14 0)
(400 6.02865e-14 0)
(400 3.33109e-14 0)
(400 1.72123e-14 0)
(400 -2.04852e-14 0)
(400 -4.09513e-14 0)
(400 -3.99297e-14 0)
(400 -4.03372e-14 0)
(400 -2.42796e-14 0)
(400 -8.77628e-15 0)
(400 5.06014e-15 0)
(400 2.2047e-14 0)
(400 3.82826e-14 0)
(400 4.32796e-14 0)
(400 4.69514e-14 0)
(400 4.88449e-14 0)
(400 4.2191e-14 0)
(400 4.23905e-14 0)
(400 3.46293e-14 0)
(400 2.43409e-14 0)
(400 2.80354e-14 0)
(400 3.76171e-14 0)
(400 4.42114e-14 0)
(400 4.96093e-14 0)
(400 4.83486e-14 0)
(400 3.15745e-14 0)
(400 2.56356e-14 0)
(400 1.99187e-14 0)
(400 3.69202e-14 0)
(400 5.49637e-14 0)
(400 5.40498e-14 0)
(400 5.61444e-14 0)
(400 5.43175e-14 0)
(400 5.27932e-14 0)
(400 5.47636e-14 0)
(400 4.49729e-14 0)
(400 4.54311e-14 0)
(400 4.43796e-14 0)
(400 4.69113e-14 0)
(400 5.03032e-14 0)
(400 3.51761e-14 0)
(400 1.76943e-14 0)
(400 -3.84664e-15 0)
(400 1.912e-15 0)
(400 -5.76874e-15 0)
(400 -1.48918e-14 0)
(400 -2.63519e-14 0)
(400 -3.10203e-14 0)
(400 -4.31656e-14 0)
(400 -4.7923e-14 0)
(400 -4.76989e-14 0)
(400 -4.85969e-14 0)
(400 -4.76847e-14 0)
(400 -4.57903e-14 0)
(400 -4.3094e-14 0)
(400 -2.94663e-14 0)
(400 -2.99418e-14 0)
(400 -2.1494e-14 0)
(400 -7.65488e-15 0)
(400 1.65612e-15 0)
(400 8.14275e-15 0)
(400 9.40442e-15 0)
(400 1.44489e-14 0)
(400 3.21275e-14 0)
(400 3.82249e-14 0)
(400 3.49406e-14 0)
(400 3.62473e-14 0)
(400 3.57252e-14 0)
(400 3.54768e-14 0)
(400 4.50301e-14 0)
(400 5.61922e-14 0)
(400 6.52434e-14 0)
(400 6.5125e-14 0)
(400 5.12795e-14 0)
(400 4.09378e-14 0)
(400 2.4067e-14 0)
(400 1.28619e-14 0)
(400 -2.03113e-16 0)
(400 -5.52625e-15 0)
(400 3.78549e-15 0)
(400 1.53363e-14 0)
(400 8.67967e-15 0)
(400 -1.44398e-14 0)
(400 -3.60697e-14 0)
(400 -4.49096e-14 0)
(400 -5.26148e-14 0)
(400 -4.78123e-14 0)
(400 -4.26727e-14 0)
(400 -4.98283e-14 0)
(400 -4.57159e-14 0)
(400 -2.78635e-14 0)
(400 -4.0606e-15 0)
(400 1.31052e-14 0)
(400 1.68539e-14 0)
(400 3.49026e-14 0)
(400 6.13654e-14 0)
(400 6.53537e-14 0)
(400 7.39862e-14 0)
(400 8.24877e-14 0)
(400 8.70579e-14 0)
(400 9.07449e-14 0)
(400 9.30325e-14 0)
(400 9.14541e-14 0)
(400 7.82053e-14 0)
(400 6.82685e-14 0)
(400 6.09068e-14 0)
(400 3.77465e-14 0)
(400 1.47276e-14 0)
(400 -2.26683e-15 0)
(400 -1.77334e-14 0)
(400 -2.09604e-14 0)
(400 -2.51462e-14 0)
(400 -3.46895e-14 0)
(400 -3.98618e-14 0)
(400 -3.22705e-14 0)
(400 -2.39799e-14 0)
(400 -1.54441e-14 0)
(400 -3.13285e-14 0)
(400 -5.19594e-14 0)
(400 -4.87738e-14 0)
(400 -3.30157e-14 0)
(400 -2.26839e-14 0)
(400 -3.08872e-14 0)
(400 -4.2775e-14 0)
(400 -4.17057e-14 0)
(400 -4.97777e-14 0)
(400 -4.63547e-14 0)
(400 -4.12347e-14 0)
(400 -3.62357e-14 0)
(400 -3.10844e-14 0)
(400 -4.49996e-15 0)
(400 2.25232e-15 0)
(400 1.13617e-14 0)
(400 1.86831e-14 0)
(400 3.23211e-14 0)
(400 3.48649e-14 0)
(400 3.04815e-14 0)
(400 2.38341e-14 0)
(400 3.31679e-14 0)
(400 2.59468e-14 0)
(400 2.80082e-14 0)
(400 2.99801e-14 0)
(400 6.40081e-15 0)
(400 1.32089e-14 0)
(400 -6.67153e-16 0)
(400 -4.31071e-15 0)
(400 7.42039e-15 0)
(400 1.43422e-14 0)
(400 1.72426e-14 0)
(400 1.82926e-14 0)
(400 -2.66692e-15 0)
(400 -2.78112e-14 0)
(400 -3.04429e-14 0)
(400 -3.45501e-14 0)
(400 -3.87446e-14 0)
(400 -2.22628e-14 0)
(400 -1.08971e-14 0)
(400 2.66109e-16 0)
(400 1.21489e-14 0)
(400 2.39667e-14 0)
(400 1.89256e-14 0)
(400 1.42111e-14 0)
(400 8.95465e-15 0)
(400 9.67049e-15 0)
(400 2.37171e-14 0)
(400 3.35233e-14 0)
(400 3.48434e-14 0)
(400 3.75915e-14 0)
(400 4.31955e-14 0)
(400 5.44127e-14 0)
(400 6.07258e-14 0)
(400 6.46748e-14 0)
(400 6.37893e-14 0)
(400 5.59569e-14 0)
(400 3.61057e-14 0)
(400 2.95328e-14 0)
(400 2.46994e-14 0)
(400 6.41646e-15 0)
(400 -9.92955e-15 0)
(400 -4.16665e-15 0)
(400 6.38576e-15 0)
(400 -1.43842e-14 0)
(400 -2.03162e-14 0)
(400 -1.47407e-14 0)
(400 6.63387e-16 0)
(400 2.71769e-14 0)
(400 4.07211e-14 0)
(400 6.05354e-14 0)
(400 6.24162e-14 0)
(400 4.77405e-14 0)
(400 3.54569e-14 0)
(400 3.65772e-14 0)
(400 3.31366e-14 0)
(400 9.13741e-15 0)
(400 6.61406e-15 0)
(400 1.59239e-14 0)
(400 3.60185e-14 0)
(400 4.98579e-14 0)
(400 6.28403e-14 0)
(400 5.83102e-14 0)
(400 3.52502e-14 0)
(400 2.57347e-14 0)
(400 7.83672e-15 0)
(400 -1.35581e-14 0)
(400 -4.39006e-14 0)
(400 -6.41244e-14 0)
(400 -6.8203e-14 0)
(400 -6.95791e-14 0)
(400 -6.11447e-14 0)
(400 -4.63581e-14 0)
(400 -2.05922e-14 0)
(400 -1.75503e-14 0)
(400 -1.48433e-15 0)
(400 2.21423e-14 0)
(400 3.72319e-14 0)
(400 4.26929e-14 0)
(400 5.48822e-14 0)
(400 5.51731e-14 0)
(400 3.84797e-14 0)
(400 2.87001e-14 0)
(400 2.1936e-14 0)
(400 2.68161e-14 0)
(400 3.56648e-14 0)
(400 2.97649e-14 0)
(400 2.60159e-14 0)
(400 9.26247e-15 0)
(400 1.77442e-14 0)
(400 4.67079e-14 0)
(400 5.44561e-14 0)
(400 4.42132e-14 0)
(400 3.94332e-14 0)
(400 2.73785e-14 0)
(400 2.46194e-14 0)
(400 2.13215e-14 0)
(400 1.92736e-14 0)
(400 2.03125e-14 0)
(400 2.79688e-14 0)
(400 1.84146e-14 0)
(400 9.49969e-15 0)
(400 7.34347e-15 0)
(400 -1.00438e-14 0)
(400 -1.93209e-14 0)
(400 -3.7307e-14 0)
(400 -3.45757e-14 0)
(400 -2.62125e-14 0)
(400 -2.03283e-14 0)
(400 -3.23147e-14 0)
(400 -3.85956e-14 0)
(400 -2.75576e-14 0)
(400 -9.83351e-15 0)
(400 -9.10427e-15 0)
(400 -5.75091e-15 0)
(400 5.3301e-15 0)
(400 1.19462e-14 0)
(400 1.3625e-14 0)
(400 2.26854e-14 0)
(400 2.3222e-14 0)
(400 2.5549e-14 0)
(400 3.12645e-14 0)
(400 2.42093e-14 0)
(400 1.5003e-14 0)
(400 4.09905e-14 0)
(400 6.2782e-14 0)
(400 8.1763e-14 0)
(400 7.84134e-14 0)
(400 7.90095e-14 0)
(400 7.10521e-14 0)
(400 6.10121e-14 0)
(400 5.90247e-14 0)
(400 7.07066e-14 0)
(400 6.27264e-14 0)
(400 4.9188e-14 0)
(400 3.31539e-14 0)
(400 2.78955e-14 0)
(400 1.81736e-14 0)
(400 -1.37531e-14 0)
(400 -3.07373e-14 0)
(400 -5.09104e-14 0)
(400 -5.87279e-14 0)
(400 -5.09186e-14 0)
(400 -3.74452e-14 0)
(400 -2.19347e-14 0)
(400 -1.10996e-14 0)
(400 -5.71754e-15 0)
(400 -1.71374e-14 0)
(400 -4.67408e-14 0)
(400 -4.36448e-14 0)
(400 -2.71416e-14 0)
(400 -1.66069e-14 0)
(400 -1.66151e-14 0)
(400 -1.35978e-14 0)
(400 4.25326e-15 0)
(400 2.25161e-14 0)
(400 3.25578e-14 0)
(400 3.88329e-14 0)
(400 2.12173e-14 0)
(400 -1.50407e-15 0)
(400 6.10073e-15 0)
(400 2.55793e-14 0)
(400 3.86227e-14 0)
(400 4.50763e-14 0)
(400 6.15601e-14 0)
(400 5.75977e-14 0)
(400 4.65089e-14 0)
(400 2.99777e-14 0)
(400 1.21619e-14 0)
(400 -4.10687e-15 0)
(400 -1.29757e-14 0)
(400 -2.82334e-14 0)
(400 -2.51798e-14 0)
(400 -3.45131e-14 0)
(400 -1.65179e-14 0)
(400 -9.45216e-15 0)
(400 -1.22245e-14 0)
(400 -2.26896e-14 0)
(400 -1.49748e-14 0)
(400 -7.8974e-15 0)
(400 -2.88005e-14 0)
(400 -4.41141e-14 0)
(400 -4.34112e-14 0)
(400 -5.49182e-14 0)
(400 -5.69878e-14 0)
(400 -6.44229e-14 0)
(400 -6.41124e-14 0)
(400 -5.25923e-14 0)
(400 -4.54634e-14 0)
(400 -2.61328e-14 0)
(400 -1.47854e-14 0)
(400 6.52388e-15 0)
(400 2.20384e-14 0)
(400 3.80287e-14 0)
(400 5.20472e-14 0)
(400 5.60352e-14 0)
(400 7.27054e-14 0)
(400 9.31416e-14 0)
(400 1.02719e-13 0)
(400 1.11985e-13 0)
(400 1.19594e-13 0)
(400 1.31435e-13 0)
(400 1.31091e-13 0)
(400 1.29117e-13 0)
(400 1.30555e-13 0)
(400 -1.21746e-14 0)
(400 -2.22703e-14 0)
(400 -1.98155e-14 0)
(400 -1.85467e-14 0)
(400 -2.68854e-14 0)
(400 -2.80824e-14 0)
(400 -2.65658e-14 0)
(400 -2.83147e-14 0)
(400 -3.17108e-14 0)
(400 -2.86247e-14 0)
(400 -3.21099e-14 0)
(400 -2.85753e-14 0)
(400 -1.71547e-14 0)
(400 -9.35936e-15 0)
(400 -1.02645e-14 0)
(400 -6.81417e-15 0)
(400 7.76726e-15 0)
(400 2.01456e-14 0)
(400 1.10178e-14 0)
(400 -1.61435e-14 0)
(400 -2.83015e-14 0)
(400 -1.04523e-14 0)
(400 2.81622e-14 0)
(400 4.96834e-14 0)
(400 6.02476e-14 0)
(400 6.39722e-14 0)
(400 7.50269e-14 0)
(400 7.42631e-14 0)
(400 7.14348e-14 0)
(400 6.63996e-14 0)
(400 6.81595e-14 0)
(400 7.72929e-14 0)
(400 7.93998e-14 0)
(400 6.34488e-14 0)
(400 5.97374e-14 0)
(400 4.89694e-14 0)
(400 3.59284e-14 0)
(400 3.43754e-14 0)
(400 2.78243e-14 0)
(400 1.50874e-14 0)
(400 1.04805e-14 0)
(400 1.26897e-14 0)
(400 1.7012e-14 0)
(400 1.09529e-14 0)
(400 2.05573e-14 0)
(400 3.65412e-14 0)
(400 4.45489e-14 0)
(400 3.4813e-14 0)
(400 1.78622e-14 0)
(400 2.46789e-14 0)
(400 2.2609e-14 0)
(400 2.77857e-14 0)
(400 4.34018e-14 0)
(400 6.17986e-14 0)
(400 6.92596e-14 0)
(400 6.15404e-14 0)
(400 5.50586e-14 0)
(400 4.20451e-14 0)
(400 1.98409e-14 0)
(400 1.23832e-14 0)
(400 8.40784e-15 0)
(400 -5.03661e-15 0)
(400 -1.95002e-14 0)
(400 -3.5978e-14 0)
(400 -5.05634e-14 0)
(400 -7.26536e-14 0)
(400 -6.95599e-14 0)
(400 -4.83597e-14 0)
(400 -1.69424e-14 0)
(400 3.39578e-15 0)
(400 7.43225e-15 0)
(400 1.67474e-14 0)
(400 2.19126e-14 0)
(400 2.72617e-14 0)
(400 4.59111e-14 0)
(400 4.25133e-14 0)
(400 6.02017e-14 0)
(400 5.4407e-14 0)
(400 4.24372e-14 0)
(400 4.51979e-14 0)
(400 4.05926e-14 0)
(400 4.0047e-14 0)
(400 3.38188e-14 0)
(400 3.41627e-14 0)
(400 5.01568e-14 0)
(400 6.79676e-14 0)
(400 8.32344e-14 0)
(400 7.62382e-14 0)
(400 6.06228e-14 0)
(400 5.72787e-14 0)
(400 5.11257e-14 0)
(400 3.92436e-14 0)
(400 3.32648e-14 0)
(400 2.86818e-14 0)
(400 4.41574e-15 0)
(400 -1.19886e-14 0)
(400 -2.52996e-14 0)
(400 -4.00773e-14 0)
(400 -4.11899e-14 0)
(400 -4.22155e-14 0)
(400 -4.94068e-14 0)
(400 -5.15773e-14 0)
(400 -5.78957e-14 0)
(400 -5.21789e-14 0)
(400 -5.89234e-14 0)
(400 -6.01871e-14 0)
(400 -3.40242e-14 0)
(400 -3.3891e-14 0)
(400 -2.1537e-14 0)
(400 -1.26968e-14 0)
(400 -1.46126e-15 0)
(400 1.121e-14 0)
(400 3.95254e-14 0)
(400 4.94903e-14 0)
(400 5.65715e-14 0)
(400 5.31105e-14 0)
(400 3.43911e-14 0)
(400 9.00602e-15 0)
(400 3.02083e-15 0)
(400 2.9891e-14 0)
(400 6.5139e-14 0)
(400 6.65802e-14 0)
(400 6.00021e-14 0)
(400 8.04645e-14 0)
(400 7.48988e-14 0)
(400 5.94021e-14 0)
(400 5.30596e-14 0)
(400 4.35e-14 0)
(400 1.91234e-14 0)
(400 -8.08852e-15 0)
(400 -1.88159e-14 0)
(400 -6.91057e-15 0)
(400 -7.11708e-15 0)
(400 -1.38834e-14 0)
(400 -2.07686e-14 0)
(400 -2.83642e-14 0)
(400 -2.1194e-14 0)
(400 -4.18262e-15 0)
(400 1.24825e-14 0)
(400 3.22069e-14 0)
(400 5.41408e-14 0)
(400 6.67603e-14 0)
(400 5.62424e-14 0)
(400 4.32391e-14 0)
(400 3.93767e-14 0)
(400 4.04102e-14 0)
(400 6.54974e-14 0)
(400 7.55493e-14 0)
(400 7.61149e-14 0)
(400 6.47967e-14 0)
(400 6.93604e-14 0)
(400 8.74147e-14 0)
(400 7.43984e-14 0)
(400 3.50586e-14 0)
(400 1.76847e-14 0)
(400 1.56173e-14 0)
(400 2.83363e-14 0)
(400 4.08105e-14 0)
(400 5.26329e-14 0)
(400 6.59344e-14 0)
(400 6.40029e-14 0)
(400 6.17473e-14 0)
(400 5.66485e-14 0)
(400 3.61148e-14 0)
(400 1.34557e-14 0)
(400 8.23876e-15 0)
(400 -1.07474e-14 0)
(400 -1.96709e-14 0)
(400 -1.94353e-14 0)
(400 -1.09707e-14 0)
(400 3.20956e-15 0)
(400 -1.29375e-15 0)
(400 -2.11703e-14 0)
(400 -2.29215e-14 0)
(400 -1.87524e-14 0)
(400 -1.02107e-14 0)
(400 -5.53513e-15 0)
(400 -1.08723e-14 0)
(400 -2.04281e-14 0)
(400 -2.89444e-14 0)
(400 -3.33768e-14 0)
(400 -4.25279e-14 0)
(400 -3.57723e-14 0)
(400 -4.25054e-14 0)
(400 -4.54395e-14 0)
(400 -4.93157e-14 0)
(400 -3.88997e-14 0)
(400 -2.65773e-14 0)
(400 -3.54304e-14 0)
(400 -2.37486e-14 0)
(400 -1.61985e-14 0)
(400 -4.55472e-15 0)
(400 1.80346e-14 0)
(400 2.67032e-14 0)
(400 3.25527e-14 0)
(400 4.77428e-14 0)
(400 5.18293e-14 0)
(400 6.81032e-14 0)
(400 7.36724e-14 0)
(400 8.02619e-14 0)
(400 -1.66966e-14 0)
(400 -2.58177e-14 0)
(400 -2.5896e-14 0)
(400 -3.03131e-14 0)
(400 -2.95369e-14 0)
(400 -3.68305e-14 0)
(400 -3.81665e-14 0)
(400 -3.48538e-14 0)
(400 -1.86401e-14 0)
(400 7.31111e-15 0)
(400 6.7872e-15 0)
(400 -6.57445e-15 0)
(400 -2.83508e-15 0)
(400 -1.41123e-14 0)
(400 -1.95981e-14 0)
(400 -3.17969e-14 0)
(400 -3.64532e-14 0)
(400 -6.43176e-14 0)
(400 -5.6412e-14 0)
(400 -5.11526e-14 0)
(400 -5.79108e-14 0)
(400 -5.44298e-14 0)
(400 -5.00765e-14 0)
(400 -5.70038e-14 0)
(400 -3.35224e-14 0)
(400 -6.74711e-15 0)
(400 3.63705e-15 0)
(400 3.19845e-15 0)
(400 1.12229e-14 0)
(400 2.16905e-14 0)
(400 3.46477e-14 0)
(400 5.44367e-14 0)
(400 6.91991e-14 0)
(400 6.43531e-14 0)
(400 5.11239e-14 0)
(400 4.38914e-14 0)
(400 3.73245e-14 0)
(400 3.4196e-14 0)
(400 3.22693e-14 0)
(400 3.9535e-14 0)
(400 4.59574e-14 0)
(400 4.0439e-14 0)