TITLE = "Visualization of the volumetric solution"
VARIABLES = "x","y","Density","Momentum_x","Momentum_y","Energy","Pressure","Temperature","Mach","C<sub>p</sub>","Roe_Dissipation"
ZONE NODES= 3200, ELEMENTS= 3081, DATAPACKING=POINT, ZONETYPE=FEQUADRILATERAL
-2.000000e+00	1.250000e+00	1.219670e+00	5.700105e+01	-1.832666e-06	2.530770e+05	1.006980e+05	2.876134e+02	1.374634e-01	-8.839619e-01	0.000000e+00	
-2.000000e+00	1.218354e+00	1.219670e+00	5.700004e+01	5.326739e-04	2.530772e+05	1.006981e+05	2.876134e+02	1.374609e-01	-8.838616e-01	0.000000e+00	
-1.948718e+00	1.218354e+00	1.219679e+00	5.699978e+01	6.627137e-04	2.530795e+05	1.006990e+05	2.876141e+02	1.374592e-01	-8.825388e-01	0.000000e+00	
-1.948718e+00	1.250000e+00	1.219678e+00	5.700142e+01	-3.776871e-06	2.530795e+05	1.006990e+05	2.876141e+02	1.374632e-01	-8.826013e-01	0.000000e+00	
-2.000000e+00	1.186709e+00	1.219671e+00	5.699946e+01	4.364070e-04	2.530772e+05	1.006981e+05	2.876134e+02	1.374595e-01	-8.838238e-01	0.000000e+00	
-1.948718e+00	1.186709e+00	1.219679e+00	5.699868e+01	6.398318e-04	2.530794e+05	1.006990e+05	2.876141e+02	1.374565e-01	-8.825550e-01	0.000000e+00	
-2.000000e+00	1.155063e+00	1.219671e+00	5.699921e+01	2.357564e-04	2.530772e+05	1.006981e+05	2.876135e+02	1.374589e-01	-8.837926e-01	0.000000e+00	
-1.948718e+00	1.155063e+00	1.219679e+00	5.699832e+01	4.995661e-04	2.530794e+05	1.006990e+05	2.876141e+02	1.374557e-01	-8.825324e-01	0.000000e+00	
-2.000000e+00	1.123418e+00	1.219671e+00	5.699909e+01	8.562786e-05	2.530773e+05	1.006982e+05	2.876135e+02	1.374586e-01	-8.837775e-01	0.000000e+00	
-1.948718e+00	1.123418e+00	1.219679e+00	5.699828e+01	3.059839e-04	2.530794e+05	1.006990e+05	2.876141e+02	1.374556e-01	-8.825291e-01	0.000000e+00	
-2.000000e+00	1.091772e+00	1.219671e+00	5.699896e+01	2.109207e-05	2.530773e+05	1.006982e+05	2.876135e+02	1.374582e-01	-8.837674e-01	0.000000e+00	
-1.948718e+00	1.091772e+00	1.219679e+00	5.699825e+01	1.981343e-04	2.530795e+05	1.006991e+05	2.876141e+02	1.374555e-01	-8.825183e-01	0.000000e+00	
-2.000000e+00	1.060127e+00	1.219671e+00	5.699886e+01	-3.229247e-07	2.530773e+05	1.006982e+05	2.876135e+02	1.374580e-01	-8.837620e-01	0.000000e+00	
-1.948718e+00	1.060127e+00	1.219679e+00	5.699821e+01	1.306709e-04	2.530795e+05	1.006991e+05	2.876141e+02	1.374554e-01	-8.825135e-01	0.000000e+00	
-2.000000e+00	1.028481e+00	1.219671e+00	5.699878e+01	-4.073099e-06	2.530773e+05	1.006982e+05	2.876135e+02	1.374578e-01	-8.837579e-01	0.000000e+00	
-1.948718e+00	1.028481e+00	1.219679e+00	5.699815e+01	9.651310e-05	2.530795e+05	1.006991e+05	2.876141e+02	1.374552e-01	-8.825076e-01	0.000000e+00	
-2.000000e+00	9.968354e-01	1.219671e+00	5.699873e+01	-4.738208e-06	2.530773e+05	1.006982e+05	2.876135e+02	1.374577e-01	-8.837554e-01	0.000000e+00	
-1.948718e+00	9.968354e-01	1.219679e+00	5.699811e+01	7.104483e-05	2.530795e+05	1.006991e+05	2.876141e+02	1.374551e-01	-8.825041e-01	0.000000e+00	
-2.000000e+00	9.651899e-01	1.219671e+00	5.699869e+01	-4.364579e-06	2.530773e+05	1.006982e+05	2.876135e+02	1.374576e-01	-8.837535e-01	0.000000e+00	
-1.948718e+00	9.651899e-01	1.219679e+00	5.699807e+01	5.371325e-05	2.530795e+05	1.006991e+05	2.876141e+02	1.374550e-01	-8.825006e-01	0.000000e+00	
-2.000000e+00	9.335443e-01	1.219671e+00	5.699867e+01	-4.040725e-06	2.530773e+05	1.006982e+05	2.876135e+02	1.374575e-01	-8.837522e-01	0.000000e+00	
-1.948718e+00	9.335443e-01	1.219679e+00	5.699805e+01	3.946034e-05	2.530795e+05	1.006991e+05	2.876141e+02	1.374550e-01	-8.824984e-01	0.000000e+00	
-2.000000e+00	9.018987e-01	1.219671e+00	5.699865e+01	-3.457060e-06	2.530773e+05	1.006982e+05	2.876135e+02	1.374575e-01	-8.837513e-01	0.000000e+00	
-1.948718e+00	9.018987e-01	1.219679e+00	5.699804e+01	2.906151e-05	2.530795e+05	1.006991e+05	2.876141e+02	1.374549e-01	-8.824964e-01	0.000000e+00	
-2.000000e+00	8.702532e-01	1.219671e+00	5.699864e+01	-2.912291e-06	2.530773e+05	1.006982e+05	2.876135e+02	1.374575e-01	-8.837507e-01	0.000000e+00	
-1.948718e+00	8.702532e-01	1.219679e+00	5.699802e+01	2.077049e-05	2.530795e+05	1.006991e+05	2.876141e+02	1.374549e-01	-8.824950e-01	0.000000e+00	
-2.000000e+00	8.386076e-01	1.219671e+00	5.699863e+01	-2.342918e-06	2.530773e+05	1.006982e+05	2.876135e+02	1.374574e-01	-8.837503e-01	0.000000e+00	
-1.948718e+00	8.386076e-01	1.219679e+00	5.699802e+01	1.463467e-05	2.530795e+05	1.006991e+05	2.876141e+02	1.374549e-01	-8.824938e-01	0.000000e+00	
-2.000000e+00	8.069620e-01	1.219671e+00	5.699863e+01	-1.865078e-06	2.530773e+05	1.006982e+05	2.876135e+02	1.374574e-01	-8.837500e-01	0.000000e+00	
-1.948718e+00	8.069620e-01	1.219679e+00	5.699801e+01	9.849037e-06	2.530795e+05	1.006991e+05	2.876141e+02	1.374549e-01	-8.824929e-01	0.000000e+00	
-2.000000e+00	7.753165e-01	1.219671e+00	5.699862e+01	-1.453420e-06	2.530773e+05	1.006982e+05	2.876135e+02	1.374574e-01	-8.837499e-01	0.000000e+00	
-1.948718e+00	7.753165e-01	1.219679e+00	5.699801e+01	6.283651e-06	2.530795e+05	1.006991e+05	2.876141e+02	1.374549e-01	-8.824923e-01	0.000000e+00	
-2.000000e+00	7.436709e-01	1.219671e+00	5.699862e+01	-1.141902e-06	2.530773e+05	1.006982e+05	2.876135e+02	1.374574e-01	-8.837498e-01	0.000000e+00	
-1.948718e+00	7.436709e-01	1.219679e+00	5.699801e+01	3.527487e-06	2.530795e+05	1.006991e+05	2.876141e+02	1.374549e-01	-8.824918e-01	0.000000e+00	
-2.000000e+00	7.120253e-01	1.219671e+00	5.699862e+01	-9.048075e-07	2.530773e+05	1.006982e+05	2.876135e+02	1.374574e-01	-8.837498e-01	0.000000e+00	
-1.948718e+00	7.120253e-01	1.219679e+00	5.699801e+01	1.453722e-06	2.530795e+05	1.006991e+05	2.876141e+02	1.374549e-01	-8.824914e-01	0.000000e+00	
-2.000000e+00	6.803797e-01	1.219671e+00	5.699862e+01	-7.363635e-07	2.530773e+05	1.006982e+05	2.876135e+02	1.374574e-01	-8.837498e-01	0.000000e+00	
-1.948718e+00	6.803797e-01	1.219679e+00	5.699801e+01	-1.402265e-07	2.530795e+05	1.006991e+05	2.876141e+02	1.374549e-01	-8.824912e-01	0.000000e+00	
-2.000000e+00	6.487342e-01	1.219671e+00	5.699862e+01	-6.129485e-07	2.530773e+05	1.006982e+05	2.876135e+02	1.374574e-01	-8.837499e-01	0.000000e+00	
-1.948718e+00	6.487342e-01	1.219679e+00	5.699801e+01	-1.333354e-06	2.530795e+05	1.006991e+05	2.876141e+02	1.374549e-01	-8.824910e-01	0.000000e+00	
-2.000000e+00	6.170886e-01	1.219671e+00	5.699862e+01	-5.252673e-07	2.530773e+05	1.006982e+05	2.876135e+02	1.374574e-01	-8.837500e-01	0.000000e+00	
-1.948718e+00	6.170886e-01	1.219679e+00	5.699801e+01	-2.228095e-06	2.530795e+05	1.006991e+05	2.876141e+02	1.374549e-01	-8.824909e-01	0.000000e+00	
-2.000000e+00	5.854430e-01	1.219671e+00	5.699863e+01	-4.616069e-07	2.530773e+05	1.006982e+05	2.876135e+02	1.374574e-01	-8.837501e-01	0.000000e+00	
-1.948718e+00	5.854430e-01	1.219679e+00	5.699801e+01	-2.877121e-06	2.530795e+05	1.006991e+05	2.876141e+02	1.374549e-01	-8.824909e-01	0.000000e+00	
-2.000000e+00	5.537975e-01	1.219671e+00	5.699863e+01	-4.173890e-07	2.530773e+05	1.006982e+05	2.876135e+02	1.374574e-01	-8.837502e-01	0.000000e+00	
-1.948718e+00	5.537975e-01	1.219679e+00	5.699802e+01	-3.339596e-06	2.530795e+05	1.006991e+05	2.876141e+02	1.374549e-01	-8.824909e-01	0.000000e+00	
-2.000000e+00	5.221519e-01	1.219671e+00	5.699863e+01	-3.871442e-07	2.530773e+05	1.006982e+05	2.876135e+02	1.374574e-01	-8.837503e-01	0.000000e+00	
-1.948718e+00	5.221519e-01	1.219679e+00	5.699802e+01	-3.651665e-06	2.530795e+05	1.006991e+05	2.876141e+02	1.374549e-01	-8.824909e-01	0.000000e+00	
-2.000000e+00	4.905063e-01	1.219671e+00	5.699863e+01	-3.680264e-07	2.530773e+05	1.006982e+05	2.876135e+02	1.374574e-01	-8.837505e-01	0.000000e+00	
-1.948718e+00	4.905063e-01	1.219679e+00	5.699802e+01	-3.848528e-06	2.530795e+05	1.006991e+05	2.876141e+02	1.374549e-01	-8.824909e-01	0.000000e+00	
-2.000000e+00	4.588608e-01	1.219671e+00	5.699863e+01	-3.568818e-07	2.530773e+05	1.006982e+05	2.876135e+02	1.374574e-01	-8.837506e-01	0.000000e+00	
-1.948718e+00	4.588608e-01	1.219679e+00	5.699802e+01	-3.953479e-06	2.530795e+05	1.006991e+05	2.876141e+02	1.374549e-01	-8.824910e-01	0.000000e+00	
-2.000000e+00	4.272152e-01	1.219671e+00	5.699864e+01	-3.518199e-07	2.530773e+05	1.006982e+05	2.876135e+02	1.374574e-01	-8.837507e-01	0.000000e+00	
-1.948718e+00	4.272152e-01	1.219679e+00	5.699802e+01	-3.987426e-06	2.530795e+05	1.006991e+05	2.876141e+02	1.374549e-01	-8.824910e-01	0.000000e+00	
-2.000000e+00	3.955696e-01	1.219671e+00	5.699864e+01	-3.510626e-07	2.530773e+05	1.006982e+05	2.876135e+02	1.374575e-01	-8.837508e-01	0.000000e+00	
-1.948718e+00	3.955696e-01	1.219679e+00	5.699803e+01	-3.965060e-06	2.530795e+05	1.006991e+05	2.876141e+02	1.374549e-01	-8.824911e-01	0.000000e+00	
-2.000000e+00	3.639241e-01	1.219671e+00	5.699864e+01	-3.535081e-07	2.530773e+05	1.006982e+05	2.876135e+02	1.374575e-01	-8.837510e-01	0.000000e+00	
-1.948718e+00	3.639241e-01	1.219679e+00	5.699803e+01	-3.898992e-06	2.530795e+05	1.006991e+05	2.876141e+02	1.374549e-01	-8.824912e-01	0.000000e+00	
-2.000000e+00	3.322785e-01	1.219671e+00	5.699864e+01	-3.582033e-07	2.530773e+05	1.006982e+05	2.876135e+02	1.374575e-01	-8.837511e-01	0.000000e+00	
-1.948718e+00	3.322785e-01	1.219679e+00	5.699803e+01	-3.798430e-06	2.530795e+05	1.006991e+05	2.876141e+02	1.374549e-01	-8.824912e-01	0.000000e+00	
-2.000000e+00	3.006329e-01	1.219671e+00	5.699864e+01	-3.645313e-07	2.530773e+05	1.006982e+05	2.876135e+02	1.374575e-01	-8.837512e-01	0.000000e+00	
-1.948718e+00	3.006329e-01	1.219679e+00	5.699803e+01	-3.671007e-06	2.530795e+05	1.006991e+05	2.876141e+02	1.374549e-01	-8.824913e-01	0.000000e+00	
-2.000000e+00	2.689873e-01	1.219671e+00	5.699864e+01	-3.719802e-07	2.530773e+05	1.006982e+05	2.876135e+02	1.374575e-01	-8.837513e-01	0.000000e+00	
-1.948718e+00	2.689873e-01	1.219679e+00	5.699803e+01	-3.522389e-06	2.530795e+05	1.006991e+05	2.876141e+02	1.374549e-01	-8.824914e-01	0.000000e+00	
-2.000000e+00	2.373418e-01	1.219671e+00	5.699865e+01	-3.802102e-07	2.530773e+05	1.006982e+05	2.876135e+02	1.374575e-01	-8.837514e-01	0.000000e+00	
-1.948718e+00	2.373418e-01	1.219679e+00	5.699803e+01	-3.357133e-06	2.530795e+05	1.006991e+05	2.876141e+02	1.374549e-01	-8.824914e-01	0.000000e+00	
-2.000000e+00	2.056962e-01	1.219671e+00	5.699865e+01	-3.889528e-07	2.530773e+05	1.006982e+05	2.876135e+02	1.374575e-01	-8.837514e-01	0.000000e+00	
-1.948718e+00	2.056962e-01	1.219679e+00	5.699804e+01	-3.178630e-06	2.530795e+05	1.006991e+05	2.876141e+02	1.374549e-01	-8.824915e-01	0.000000e+00	
-2.000000e+00	1.740506e-01	1.219671e+00	5.699865e+01	-3.980331e-07	2.530773e+05	1.006982e+05	2.876135e+02	1.374575e-01	-8.837515e-01	0.000000e+00	
-1.948718e+00	1.740506e-01	1.219679e+00	5.699804e+01	-2.989539e-06	2.530795e+05	1.006991e+05	2.876141e+02	1.374549e-01	-8.824916e-01	0.000000e+00	
-2.000000e+00	1.424051e-01	1.219671e+00	5.699865e+01	-4.073223e-07	2.530773e+05	1.006982e+05	2.876135e+02	1.374575e-01	-8.837516e-01	0.000000e+00	
-1.948718e+00	1.424051e-01	1.219679e+00	5.699804e+01	-2.791831e-06	2.530795e+05	1.006991e+05	2.876141e+02	1.374549e-01	-8.824916e-01	0.000000e+00	
-2.000000e+00	1.107595e-01	1.219671e+00	5.699865e+01	-4.167424e-07	2.530773e+05	1.006982e+05	2.876135e+02	1.374575e-01	-8.837516e-01	0.000000e+00	
-1.948718e+00	1.107595e-01	1.219679e+00	5.699804e+01	-2.587019e-06	2.530795e+05	1.006991e+05	2.876141e+02	1.374549e-01	-8.824917e-01	0.000000e+00	
-2.000000e+00	7.911392e-02	1.219671e+00	5.699865e+01	-4.262427e-07	2.530773e+05	1.006982e+05	2.876135e+02	1.374575e-01	-8.837517e-01	0.000000e+00	
-1.948718e+00	7.911392e-02	1.219679e+00	5.699804e+01	-2.376225e-06	2.530795e+05	1.006991e+05	2.876141e+02	1.374549e-01	-8.824917e-01	0.000000e+00	
-2.000000e+00	4.746835e-02	1.219671e+00	5.699865e+01	-4.357974e-07	2.530773e+05	1.006982e+05	2.876135e+02	1.374575e-01	-8.837517e-01	0.000000e+00	
-1.948718e+00	4.746835e-02	1.219679e+00	5.699804e+01	-2.160319e-06	2.530795e+05	1.006991e+05	2.876141e+02	1.374549e-01	-8.824917e-01	0.000000e+00	
-2.000000e+00	1.582278e-02	1.219671e+00	5.699865e+01	-4.453946e-07	2.530773e+05	1.006982e+05	2.876135e+02	1.374575e-01	-8.837517e-01	0.000000e+00	
-1.948718e+00	1.582278e-02	1.219679e+00	5.699804e+01	-1.939979e-06	2.530795e+05	1.006991e+05	2.876141e+02	1.374549e-01	-8.824917e-01	0.000000e+00	
-2.000000e+00	-1.582278e-02	1.219671e+00	5.699865e+01	-4.550319e-07	2.530773e+05	1.006982e+05	2.876135e+02	1.374575e-01	-8.837518e-01	0.000000e+00	
-1.948718e+00	-1.582278e-02	1.219679e+00	5.699804e+01	-1.715792e-06	2.530795e+05	1.006991e+05	2.876141e+02	1.374549e-01	-8.824918e-01	0.000000e+00	
-2.000000e+00	-4.746835e-02	1.219671e+00	5.699865e+01	-4.647095e-07	2.530773e+05	1.006982e+05	2.876135e+02	1.374575e-01	-8.837518e-01	0.000000e+00	
-1.948718e+00	-4.746835e-02	1.219679e+00	5.699804e+01	-1.488312e-06	2.530795e+05	1.006991e+05	2.876141e+02	1.374549e-01	-8.824918e-01	0.000000e+00	
-2.000000e+00	-7.911392e-02	1.219671e+00	5.699865e+01	-4.744270e-07	2.530773e+05	1.006982e+05	2.876135e+02	1.374575e-01	-8.837518e-01	0.000000e+00	
-1.948718e+00	-7.911392e-02	1.219679e+00	5.699804e+01	-1.258145e-06	2.530795e+05	1.006991e+05	2.876141e+02	1.374549e-01	-8.824918e-01	0.000000e+00	
-2.000000e+00	-1.107595e-01	1.219671e+00	5.699865e+01	-4.841734e-07	2.530773e+05	1.006982e+05	2.876135e+02	1.374575e-01	-8.837518e-01	0.000000e+00	
-1.948718e+00	-1.107595e-01	1.219679e+00	5.699804e+01	-1.026005e-06	2.530795e+05	1.006991e+05	2.876141e+02	1.374549e-01	-8.824917e-01	0.000000e+00	
-2.000000e+00	-1.424051e-01	1.219671e+00	5.699865e+01	-4.939259e-07	2.530773e+05	1.006982e+05	2.876135e+02	1.374575e-01	-8.837517e-01	0.000000e+00	
-1.948718e+00	-1.424051e-01	1.219679e+00	5.699804e+01	-7.928151e-07	2.530795e+05	1.006991e+05	2.876141e+02	1.374549e-01	-8.824917e-01	0.000000e+00	
-2.000000e+00	-1.740506e-01	1.219671e+00	5.699865e+01	-5.036368e-07	2.530773e+05	1.006982e+05	2.876135e+02	1.374575e-01	-8.837517e-01	0.000000e+00	
-1.948718e+00	-1.740506e-01	1.219679e+00	5.699804e+01	-5.597667e-07	2.530795e+05	1.006991e+05	2.876141e+02	1.374549e-01	-8.824917e-01	0.000000e+00	
-2.000000e+00	-2.056962e-01	1.219671e+00	5.699865e+01	-5.132322e-07	2.530773e+05	1.006982e+05	2.876135e+02	1.374575e-01	-8.837517e-01	0.000000e+00	
-1.948718e+00	-2.056962e-01	1.219679e+00	5.699804e+01	-3.284610e-07	2.530795e+05	1.006991e+05	2.876141e+02	1.374549e-01	-8.824917e-01	0.000000e+00	
-2.000000e+00	-2.373418e-01	1.219671e+00	5.699865e+01	-5.225883e-07	2.530773e+05	1.006982e+05	2.876135e+02	1.374575e-01	-8.837516e-01	0.000000e+00	
-1.948718e+00	-2.373418e-01	1.219679e+00	5.699804e+01	-1.009667e-07	2.530795e+05	1.006991e+05	2.876141e+02	1.374549e-01	-8.824916e-01	0.000000e+00	
-2.000000e+00	-2.689873e-01	1.219671e+00	5.699865e+01	-5.315370e-07	2.530773e+05	1.006982e+05	2.876135e+02	1.374575e-01	-8.837516e-01	0.000000e+00	
-1.948718e+00	-2.689873e-01	1.219679e+00	5.699804e+01	1.199388e-07	2.530795e+05	1.006991e+05	2.876141e+02	1.374549e-01	-8.824916e-01	0.000000e+00	
-2.000000e+00	-3.006329e-01	1.219671e+00	5.699865e+01	-5.398166e-07	2.530773e+05	1.006982e+05	2.876135e+02	1.374575e-01	-8.837515e-01	0.000000e+00	
-1.948718e+00	-3.006329e-01	1.219679e+00	5.699804e+01	3.307422e-07	2.530795e+05	1.006991e+05	2.876141e+02	1.374549e-01	-8.824915e-01	0.000000e+00	
-2.000000e+00	-3.322785e-01	1.219671e+00	5.699865e+01	-5.470984e-07	2.530773e+05	1.006982e+05	2.876135e+02	1.374575e-01	-8.837514e-01	0.000000e+00	
-1.948718e+00	-3.322785e-01	1.219679e+00	5.699803e+01	5.267395e-07	2.530795e+05	1.006991e+05	2.876141e+02	1.374549e-01	-8.824915e-01	0.000000e+00	
-2.000000e+00	-3.639241e-01	1.219671e+00	5.699864e+01	-5.528774e-07	2.530773e+05	1.006982e+05	2.876135e+02	1.374575e-01	-8.837513e-01	0.000000e+00	
-1.948718e+00	-3.639241e-01	1.219679e+00	5.699803e+01	7.021342e-07	2.530795e+05	1.006991e+05	2.876141e+02	1.374549e-01	-8.824914e-01	0.000000e+00	
-2.000000e+00	-3.955696e-01	1.219671e+00	5.699864e+01	-5.565526e-07	2.530773e+05	1.006982e+05	2.876135e+02	1.374575e-01	-8.837512e-01	0.000000e+00	
-1.948718e+00	-3.955696e-01	1.219679e+00	5.699803e+01	8.491213e-07	2.530795e+05	1.006991e+05	2.876141e+02	1.374549e-01	-8.824914e-01	0.000000e+00	
-2.000000e+00	-4.272152e-01	1.219671e+00	5.699864e+01	-5.571762e-07	2.530773e+05	1.006982e+05	2.876135e+02	1.374575e-01	-8.837511e-01	0.000000e+00	
-1.948718e+00	-4.272152e-01	1.219679e+00	5.699803e+01	9.583721e-07	2.530795e+05	1.006991e+05	2.876141e+02	1.374549e-01	-8.824913e-01	0.000000e+00	
-2.000000e+00	-4.588608e-01	1.219671e+00	5.699864e+01	-5.536698e-07	2.530773e+05	1.006982e+05	2.876135e+02	1.374575e-01	-8.837510e-01	0.000000e+00	
-1.948718e+00	-4.588608e-01	1.219679e+00	5.699803e+01	1.017073e-06	2.530795e+05	1.006991e+05	2.876141e+02	1.374549e-01	-8.824912e-01	0.000000e+00	
-2.000000e+00	-4.905063e-01	1.219671e+00	5.699864e+01	-5.442510e-07	2.530773e+05	1.006982e+05	2.876135e+02	1.374575e-01	-8.837509e-01	0.000000e+00	
-1.948718e+00	-4.905063e-01	1.219679e+00	5.699803e+01	1.010465e-06	2.530795e+05	1.006991e+05	2.876141e+02	1.374549e-01	-8.824912e-01	0.000000e+00	
-2.000000e+00	-5.221519e-01	1.219671e+00	5.699864e+01	-5.270658e-07	2.530773e+05	1.006982e+05	2.876135e+02	1.374574e-01	-8.837507e-01	0.000000e+00	
-1.948718e+00	-5.221519e-01	1.219679e+00	5.699802e+01	9.173843e-07	2.530795e+05	1.006991e+05	2.876141e+02	1.374549e-01	-8.824911e-01	0.000000e+00	
-2.000000e+00	-5.537975e-01	1.219671e+00	5.699863e+01	-4.989275e-07	2.530773e+05	1.006982e+05	2.876135e+02	1.374574e-01	-8.837506e-01	0.000000e+00	
-1.948718e+00	-5.537975e-01	1.219679e+00	5.699802e+01	7.146059e-07	2.530795e+05	1.006991e+05	2.876141e+02	1.374549e-01	-8.824911e-01	0.000000e+00	
-2.000000e+00	-5.854430e-01	1.219671e+00	5.699863e+01	-4.570552e-07	2.530773e+05	1.006982e+05	2.876135e+02	1.374574e-01	-8.837505e-01	0.000000e+00	
-1.948718e+00	-5.854430e-01	1.219679e+00	5.699802e+01	3.665224e-07	2.530795e+05	1.006991e+05	2.876141e+02	1.374549e-01	-8.824911e-01	0.000000e+00	
-2.000000e+00	-6.170886e-01	1.219671e+00	5.699863e+01	-3.958739e-07	2.530773e+05	1.006982e+05	2.876135e+02	1.374574e-01	-8.837503e-01	0.000000e+00	
-1.948718e+00	-6.170886e-01	1.219679e+00	5.699802e+01	-1.626210e-07	2.530795e+05	1.006991e+05	2.876141e+02	1.374549e-01	-8.824912e-01	0.000000e+00	
-2.000000e+00	-6.487342e-01	1.219671e+00	5.699863e+01	-3.109450e-07	2.530773e+05	1.006982e+05	2.876135e+02	1.374574e-01	-8.837502e-01	0.000000e+00	
-1.948718e+00	-6.487342e-01	1.219679e+00	5.699802e+01	-9.328065e-07	2.530795e+05	1.006991e+05	2.876141e+02	1.374549e-01	-8.824912e-01	0.000000e+00	
-2.000000e+00	-6.803797e-01	1.219671e+00	5.699863e+01	-1.902849e-07	2.530773e+05	1.006982e+05	2.876135e+02	1.374574e-01	-8.837501e-01	0.000000e+00	
-1.948718e+00	-6.803797e-01	1.219679e+00	5.699801e+01	-1.995609e-06	2.530795e+05	1.006991e+05	2.876141e+02	1.374549e-01	-8.824914e-01	0.000000e+00	
-2.000000e+00	-7.120253e-01	1.219671e+00	5.699862e+01	-2.494944e-08	2.530773e+05	1.006982e+05	2.876135e+02	1.374574e-01	-8.837501e-01	0.000000e+00	
-1.948718e+00	-7.120253e-01	1.219679e+00	5.699801e+01	-3.455386e-06	2.530795e+05	1.006991e+05	2.876141e+02	1.374549e-01	-8.824916e-01	0.000000e+00	
-2.000000e+00	-7.436709e-01	1.219671e+00	5.699862e+01	2.093275e-07	2.530773e+05	1.006982e+05	2.876135e+02	1.374574e-01	-8.837500e-01	0.000000e+00	
-1.948718e+00	-7.436709e-01	1.219679e+00	5.699801e+01	-5.388409e-06	2.530795e+05	1.006991e+05	2.876141e+02	1.374549e-01	-8.824919e-01	0.000000e+00	
-2.000000e+00	-7.753165e-01	1.219671e+00	5.699863e+01	5.174450e-07	2.530773e+05	1.006982e+05	2.876135e+02	1.374574e-01	-8.837501e-01	0.000000e+00	
-1.948718e+00	-7.753165e-01	1.219679e+00	5.699801e+01	-8.002006e-06	2.530795e+05	1.006991e+05	2.876141e+02	1.374549e-01	-8.824924e-01	0.000000e+00	
-2.000000e+00	-8.069620e-01	1.219671e+00	5.699863e+01	9.266818e-07	2.530773e+05	1.006982e+05	2.876135e+02	1.374574e-01	-8.837502e-01	0.000000e+00	
-1.948718e+00	-8.069620e-01	1.219679e+00	5.699802e+01	-1.141644e-05	2.530795e+05	1.006991e+05	2.876141e+02	1.374549e-01	-8.824930e-01	0.000000e+00	
-2.000000e+00	-8.386076e-01	1.219671e+00	5.699863e+01	1.400841e-06	2.530773e+05	1.006982e+05	2.876135e+02	1.374574e-01	-8.837504e-01	0.000000e+00	
-1.948718e+00	-8.386076e-01	1.219679e+00	5.699802e+01	-1.605466e-05	2.530795e+05	1.006991e+05	2.876141e+02	1.374549e-01	-8.824938e-01	0.000000e+00	
-2.000000e+00	-8.702532e-01	1.219671e+00	5.699864e+01	1.968694e-06	2.530773e+05	1.006982e+05	2.876135e+02	1.374575e-01	-8.837507e-01	0.000000e+00	
-1.948718e+00	-8.702532e-01	1.219679e+00	5.699803e+01	-2.203149e-05	2.530795e+05	1.006991e+05	2.876141e+02	1.374549e-01	-8.824949e-01	0.000000e+00	
-2.000000e+00	-9.018987e-01	1.219671e+00	5.699865e+01	2.508089e-06	2.530773e+05	1.006982e+05	2.876135e+02	1.374575e-01	-8.837513e-01	0.000000e+00	
-1.948718e+00	-9.018987e-01	1.219679e+00	5.699804e+01	-3.018165e-05	2.530795e+05	1.006991e+05	2.876141e+02	1.374549e-01	-8.824962e-01	0.000000e+00	
-2.000000e+00	-9.335443e-01	1.219671e+00	5.699867e+01	3.090055e-06	2.530773e+05	1.006982e+05	2.876135e+02	1.374575e-01	-8.837521e-01	0.000000e+00	
-1.948718e+00	-9.335443e-01	1.219679e+00	5.699805e+01	-4.042313e-05	2.530795e+05	1.006991e+05	2.876141e+02	1.374550e-01	-8.824981e-01	0.000000e+00	
-2.000000e+00	-9.651899e-01	1.219671e+00	5.699869e+01	3.402384e-06	2.530773e+05	1.006982e+05	2.876135e+02	1.374576e-01	-8.837533e-01	0.000000e+00	
-1.948718e+00	-9.651899e-01	1.219679e+00	5.699807e+01	-5.457184e-05	2.530795e+05	1.006991e+05	2.876141e+02	1.374550e-01	-8.825003e-01	0.000000e+00	
-2.000000e+00	-9.968354e-01	1.219671e+00	5.699872e+01	3.772954e-06	2.530773e+05	1.006982e+05	2.876135e+02	1.374577e-01	-8.837551e-01	0.000000e+00	
-1.948718e+00	-9.968354e-01	1.219679e+00	5.699810e+01	-7.177501e-05	2.530795e+05	1.006991e+05	2.876141e+02	1.374551e-01	-8.825037e-01	0.000000e+00	
-2.000000e+00	-1.028481e+00	1.219671e+00	5.699877e+01	3.083443e-06	2.530773e+05	1.006982e+05	2.876135e+02	1.374578e-01	-8.837575e-01	0.000000e+00	
-1.948718e+00	-1.028481e+00	1.219679e+00	5.699814e+01	-9.725060e-05	2.530795e+05	1.006991e+05	2.876141e+02	1.374552e-01	-8.825071e-01	0.000000e+00	
-2.000000e+00	-1.060127e+00	1.219671e+00	5.699885e+01	-6.891102e-07	2.530773e+05	1.006982e+05	2.876135e+02	1.374580e-01	-8.837615e-01	0.000000e+00	
-1.948718e+00	-1.060127e+00	1.219679e+00	5.699820e+01	-1.314098e-04	2.530795e+05	1.006991e+05	2.876141e+02	1.374553e-01	-8.825130e-01	0.000000e+00	
-2.000000e+00	-1.091772e+00	1.219671e+00	5.699895e+01	-2.221969e-05	2.530773e+05	1.006982e+05	2.876135e+02	1.374582e-01	-8.837668e-01	0.000000e+00	
-1.948718e+00	-1.091772e+00	1.219679e+00	5.699824e+01	-1.992380e-04	2.530795e+05	1.006991e+05	2.876141e+02	1.374555e-01	-8.825177e-01	0.000000e+00	
-2.000000e+00	-1.123418e+00	1.219671e+00	5.699908e+01	-8.699573e-05	2.530773e+05	1.006982e+05	2.876135e+02	1.374585e-01	-8.837767e-01	0.000000e+00	
-1.948718e+00	-1.123418e+00	1.219679e+00	5.699827e+01	-3.075887e-04	2.530794e+05	1.006990e+05	2.876141e+02	1.374555e-01	-8.825284e-01	0.000000e+00	
-2.000000e+00	-1.155063e+00	1.219671e+00	5.699920e+01	-2.376473e-04	2.530773e+05	1.006981e+05	2.876135e+02	1.374588e-01	-8.837917e-01	0.000000e+00	
-1.948718e+00	-1.155063e+00	1.219679e+00	5.699831e+01	-5.024208e-04	2.530794e+05	1.006990e+05	2.876141e+02	1.374556e-01	-8.825316e-01	0.000000e+00	
-2.000000e+00	-1.186709e+00	1.219671e+00	5.699946e+01	-4.388804e-04	2.530772e+05	1.006981e+05	2.876134e+02	1.374595e-01	-8.838230e-01	0.000000e+00	
-1.948718e+00	-1.186709e+00	1.219679e+00	5.699867e+01	-6.440586e-04	2.530794e+05	1.006990e+05	2.876141e+02	1.374565e-01	-8.825542e-01	0.000000e+00	
-2.000000e+00	-1.218354e+00	1.219670e+00	5.700003e+01	-5.364585e-04	2.530772e+05	1.006981e+05	2.876134e+02	1.374609e-01	-8.838605e-01	0.000000e+00	
-1.948718e+00	-1.218354e+00	1.219679e+00	5.699978e+01	-6.683867e-04	2.530795e+05	1.006990e+05	2.876141e+02	1.374592e-01	-8.825382e-01	0.000000e+00	
-1.897436e+00	1.218354e+00	1.219685e+00	5.700027e+01	6.418251e-04	2.530812e+05	1.006997e+05	2.876147e+02	1.374596e-01	-8.815693e-01	0.000000e+00	
-1.897436e+00	1.250000e+00	1.219684e+00	5.700238e+01	-7.073122e-07	2.530813e+05	1.006997e+05	2.876147e+02	1.374647e-01	-8.816023e-01	0.000000e+00	
-1.897436e+00	1.186709e+00	1.219685e+00	5.699855e+01	7.350993e-04	2.530811e+05	1.006997e+05	2.876147e+02	1.374554e-01	-8.815825e-01	0.000000e+00	
-1.897436e+00	1.155063e+00	1.219685e+00	5.699795e+01	6.532257e-04	2.530811e+05	1.006997e+05	2.876147e+02	1.374540e-01	-8.815628e-01	0.000000e+00	
-1.897436e+00	1.123418e+00	1.219685e+00	5.699791e+01	4.537311e-04	2.530811e+05	1.006997e+05	2.876147e+02	1.374539e-01	-8.815636e-01	0.000000e+00	
-1.897436e+00	1.091772e+00	1.219685e+00	5.699797e+01	3.216028e-04	2.530811e+05	1.006997e+05	2.876147e+02	1.374540e-01	-8.815540e-01	0.000000e+00	
-1.897436e+00	1.060127e+00	1.219685e+00	5.699799e+01	2.226319e-04	2.530812e+05	1.006997e+05	2.876147e+02	1.374541e-01	-8.815516e-01	0.000000e+00	
-1.897436e+00	1.028481e+00	1.219685e+00	5.699798e+01	1.666592e-04	2.530812e+05	1.006997e+05	2.876147e+02	1.374540e-01	-8.815463e-01	0.000000e+00	
-1.897436e+00	9.968354e-01	1.219685e+00	5.699795e+01	1.233694e-04	2.530812e+05	1.006997e+05	2.876147e+02	1.374540e-01	-8.815439e-01	0.000000e+00	
-1.897436e+00	9.651899e-01	1.219685e+00	5.699794e+01	9.375837e-05	2.530812e+05	1.006997e+05	2.876147e+02	1.374539e-01	-8.815408e-01	0.000000e+00	
-1.897436e+00	9.335443e-01	1.219685e+00	5.699792e+01	6.939065e-05	2.530812e+05	1.006997e+05	2.876147e+02	1.374539e-01	-8.815390e-01	0.000000e+00	
-1.897436e+00	9.018987e-01	1.219685e+00	5.699791e+01	5.147408e-05	2.530812e+05	1.006997e+05	2.876147e+02	1.374539e-01	-8.815372e-01	0.000000e+00	
-1.897436e+00	8.702532e-01	1.219685e+00	5.699791e+01	3.700770e-05	2.530812e+05	1.006997e+05	2.876147e+02	1.374538e-01	-8.815360e-01	0.000000e+00	
-1.897436e+00	8.386076e-01	1.219685e+00	5.699791e+01	2.616216e-05	2.530812e+05	1.006997e+05	2.876147e+02	1.374538e-01	-8.815349e-01	0.000000e+00	
-1.897436e+00	8.069620e-01	1.219685e+00	5.699790e+01	1.761330e-05	2.530812e+05	1.006997e+05	2.876147e+02	1.374538e-01	-8.815341e-01	0.000000e+00	
-1.897436e+00	7.753165e-01	1.219685e+00	5.699790e+01	1.121145e-05	2.530812e+05	1.006998e+05	2.876147e+02	1.374538e-01	-8.815334e-01	0.000000e+00	
-1.897436e+00	7.436709e-01	1.219685e+00	5.699790e+01	6.267330e-06	2.530812e+05	1.006998e+05	2.876147e+02	1.374538e-01	-8.815329e-01	0.000000e+00	
-1.897436e+00	7.120253e-01	1.219685e+00	5.699791e+01	2.569613e-06	2.530812e+05	1.006998e+05	2.876147e+02	1.374538e-01	-8.815325e-01	0.000000e+00	
-1.897436e+00	6.803797e-01	1.219685e+00	5.699791e+01	-2.492368e-07	2.530812e+05	1.006998e+05	2.876147e+02	1.374538e-01	-8.815323e-01	0.000000e+00	
-1.897436e+00	6.487342e-01	1.219685e+00	5.699791e+01	-2.337510e-06	2.530812e+05	1.006998e+05	2.876147e+02	1.374538e-01	-8.815321e-01	0.000000e+00	
-1.897436e+00	6.170886e-01	1.219685e+00	5.699791e+01	-3.884853e-06	2.530812e+05	1.006998e+05	2.876147e+02	1.374538e-01	-8.815319e-01	0.000000e+00	
-1.897436e+00	5.854430e-01	1.219685e+00	5.699791e+01	-4.987506e-06	2.530812e+05	1.006998e+05	2.876147e+02	1.374539e-01	-8.815318e-01	0.000000e+00	
-1.897436e+00	5.537975e-01	1.219685e+00	5.699792e+01	-5.752760e-06	2.530812e+05	1.006998e+05	2.876147e+02	1.374539e-01	-8.815318e-01	0.000000e+00	
-1.897436e+00	5.221519e-01	1.219685e+00	5.699792e+01	-6.245800e-06	2.530812e+05	1.006998e+05	2.876147e+02	1.374539e-01	-8.815317e-01	0.000000e+00	
-1.897436e+00	4.905063e-01	1.219685e+00	5.699792e+01	-6.530682e-06	2.530812e+05	1.006998e+05	2.876147e+02	1.374539e-01	-8.815318e-01	0.000000e+00	
-1.897436e+00	4.588608e-01	1.219685e+00	5.699792e+01	-6.649882e-06	2.530812e+05	1.006998e+05	2.876147e+02	1.374539e-01	-8.815318e-01	0.000000e+00	
-1.897436e+00	4.272152e-01	1.219685e+00	5.699793e+01	-6.641657e-06	2.530812e+05	1.006998e+05	2.876147e+02	1.374539e-01	-8.815318e-01	0.000000e+00	
-1.897436e+00	3.955696e-01	1.219685e+00	5.699793e+01	-6.532798e-06	2.530812e+05	1.006998e+05	2.876147e+02	1.374539e-01	-8.815319e-01	0.000000e+00	
-1.897436e+00	3.639241e-01	1.219685e+00	5.699793e+01	-6.346271e-06	2.530812e+05	1.006998e+05	2.876147e+02	1.374539e-01	-8.815319e-01	0.000000e+00	
-1.897436e+00	3.322785e-01	1.219685e+00	5.699793e+01	-6.098744e-06	2.530812e+05	1.006998e+05	2.876147e+02	1.374539e-01	-8.815320e-01	0.000000e+00	
-1.897436e+00	3.006329e-01	1.219685e+00	5.699793e+01	-5.803994e-06	2.530812e+05	1.006998e+05	2.876147e+02	1.374539e-01	-8.815320e-01	0.000000e+00	
-1.897436e+00	2.689873e-01	1.219685e+00	5.699793e+01	-5.472169e-06	2.530812e+05	1.006998e+05	2.876147e+02	1.374539e-01	-8.815321e-01	0.000000e+00	
-1.897436e+00	2.373418e-01	1.219685e+00	5.699794e+01	-5.111388e-06	2.530812e+05	1.006998e+05	2.876147e+02	1.374539e-01	-8.815321e-01	0.000000e+00	
-1.897436e+00	2.056962e-01	1.219685e+00	5.699794e+01	-4.727616e-06	2.530812e+05	1.006998e+05	2.876147e+02	1.374539e-01	-8.815322e-01	0.000000e+00	
-1.897436e+00	1.740506e-01	1.219685e+00	5.699794e+01	-4.325473e-06	2.530812e+05	1.006998e+05	2.876147e+02	1.374539e-01	-8.815322e-01	0.000000e+00	
-1.897436e+00	1.424051e-01	1.219685e+00	5.699794e+01	-3.908306e-06	2.530812e+05	1.006998e+05	2.876147e+02	1.374539e-01	-8.815323e-01	0.000000e+00	
-1.897436e+00	1.107595e-01	1.219685e+00	5.699794e+01	-3.478621e-06	2.530812e+05	1.006998e+05	2.876147e+02	1.374539e-01	-8.815323e-01	0.000000e+00	
-1.897436e+00	7.911392e-02	1.219685e+00	5.699794e+01	-3.038205e-06	2.530812e+05	1.006998e+05	2.876147e+02	1.374539e-01	-8.815324e-01	0.000000e+00	
-1.897436e+00	4.746835e-02	1.219685e+00	5.699794e+01	-2.588379e-06	2.530812e+05	1.006998e+05	2.876147e+02	1.374539e-01	-8.815324e-01	0.000000e+00	
-1.897436e+00	1.582278e-02	1.219685e+00	5.699794e+01	-2.130116e-06	2.530812e+05	1.006998e+05	2.876147e+02	1.374539e-01	-8.815324e-01	0.000000e+00	
-1.897436e+00	-1.582278e-02	1.219685e+00	5.699794e+01	-1.664221e-06	2.530812e+05	1.006998e+05	2.876147e+02	1.374539e-01	-8.815324e-01	0.000000e+00	
-1.897436e+00	-4.746835e-02	1.219685e+00	5.699794e+01	-1.191436e-06	2.530812e+05	1.006998e+05	2.876147e+02	1.374539e-01	-8.815324e-01	0.000000e+00	
-1.897436e+00	-7.911392e-02	1.219685e+00	5.699794e+01	-7.126022e-07	2.530812e+05	1.006998e+05	2.876147e+02	1.374539e-01	-8.815324e-01	0.000000e+00	
-1.897436e+00	-1.107595e-01	1.219685e+00	5.699794e+01	-2.287629e-07	2.530812e+05	1.006998e+05	2.876147e+02	1.374539e-01	-8.815324e-01	0.000000e+00	