TITLE = "Visualization of the volumetric solution"
VARIABLES = "x","y","Density","Momentum_x","Momentum_y","Energy","Pressure","Temperature","Mach","C<sub>p</sub>","Roe_Dissipation"
ZONE NODES= 3200, ELEMENTS= 3081, DATAPACKING=POINT, ZONETYPE=FEQUADRILATERAL
1.000000e+00	1.250000e+00	1.277603e+00	5.699991e+01	-1.237351e+02	2.760501e+05	1.075147e+05	2.931584e+02	3.106601e-01	8.726800e+00	0.000000e+00	
1.000000e+00	1.218354e+00	1.277603e+00	5.699983e+01	-1.237351e+02	2.760501e+05	1.075147e+05	2.931584e+02	3.106603e-01	8.726769e+00	0.000000e+00	
1.051282e+00	1.218354e+00	1.277600e+00	5.700015e+01	-1.237352e+02	2.760495e+05	1.075145e+05	2.931583e+02	3.106613e-01	8.726461e+00	0.000000e+00	
1.051282e+00	1.250000e+00	1.277601e+00	5.700022e+01	-1.237351e+02	2.760496e+05	1.075145e+05	2.931583e+02	3.106611e-01	8.726499e+00	0.000000e+00	
1.000000e+00	1.186709e+00	1.277603e+00	5.699979e+01	-1.237352e+02	2.760500e+05	1.075147e+05	2.931583e+02	3.106603e-01	8.726766e+00	0.000000e+00	
1.051282e+00	1.186709e+00	1.277600e+00	5.700011e+01	-1.237352e+02	2.760495e+05	1.075145e+05	2.931583e+02	3.106613e-01	8.726465e+00	0.000000e+00	
1.000000e+00	1.155063e+00	1.277603e+00	5.699975e+01	-1.237352e+02	2.760500e+05	1.075147e+05	2.931583e+02	3.106604e-01	8.726761e+00	0.000000e+00	
1.051282e+00	1.155063e+00	1.277601e+00	5.700008e+01	-1.237352e+02	2.760495e+05	1.075145e+05	2.931583e+02	3.106613e-01	8.726458e+00	0.000000e+00	
1.000000e+00	1.123418e+00	1.277603e+00	5.699972e+01	-1.237352e+02	2.760500e+05	1.075147e+05	2.931583e+02	3.106604e-01	8.726756e+00	0.000000e+00	
1.051282e+00	1.123418e+00	1.277601e+00	5.700005e+01	-1.237353e+02	2.760495e+05	1.075145e+05	2.931582e+02	3.106614e-01	8.726453e+00	0.000000e+00	
1.000000e+00	1.091772e+00	1.277603e+00	5.699968e+01	-1.237353e+02	2.760500e+05	1.075147e+05	2.931583e+02	3.106605e-01	8.726751e+00	0.000000e+00	
1.051282e+00	1.091772e+00	1.277601e+00	5.700001e+01	-1.237353e+02	2.760495e+05	1.075145e+05	2.931582e+02	3.106614e-01	8.726449e+00	0.000000e+00	
1.000000e+00	1.060127e+00	1.277603e+00	5.699963e+01	-1.237353e+02	2.760500e+05	1.075147e+05	2.931583e+02	3.106605e-01	8.726747e+00	0.000000e+00	
1.051282e+00	1.060127e+00	1.277601e+00	5.699998e+01	-1.237354e+02	2.760495e+05	1.075144e+05	2.931582e+02	3.106615e-01	8.726444e+00	0.000000e+00	
1.000000e+00	1.028481e+00	1.277603e+00	5.699959e+01	-1.237353e+02	2.760500e+05	1.075147e+05	2.931583e+02	3.106605e-01	8.726743e+00	0.000000e+00	
1.051282e+00	1.028481e+00	1.277601e+00	5.699994e+01	-1.237354e+02	2.760495e+05	1.075144e+05	2.931582e+02	3.106615e-01	8.726440e+00	0.000000e+00	
1.000000e+00	9.968354e-01	1.277603e+00	5.699955e+01	-1.237354e+02	2.760500e+05	1.075147e+05	2.931583e+02	3.106605e-01	8.726739e+00	0.000000e+00	
1.051282e+00	9.968354e-01	1.277601e+00	5.699991e+01	-1.237354e+02	2.760495e+05	1.075144e+05	2.931582e+02	3.106615e-01	8.726436e+00	0.000000e+00	
1.000000e+00	9.651899e-01	1.277603e+00	5.699951e+01	-1.237354e+02	2.760500e+05	1.075147e+05	2.931583e+02	3.106605e-01	8.726736e+00	0.000000e+00	
1.051282e+00	9.651899e-01	1.277601e+00	5.699988e+01	-1.237354e+02	2.760495e+05	1.075144e+05	2.931582e+02	3.106615e-01	8.726433e+00	0.000000e+00	
1.000000e+00	9.335443e-01	1.277602e+00	5.699947e+01	-1.237354e+02	2.760500e+05	1.075147e+05	2.931584e+02	3.106605e-01	8.726733e+00	0.000000e+00	
1.051282e+00	9.335443e-01	1.277601e+00	5.699984e+01	-1.237355e+02	2.760495e+05	1.075144e+05	2.931582e+02	3.106616e-01	8.726430e+00	0.000000e+00	
1.000000e+00	9.018987e-01	1.277602e+00	5.699943e+01	-1.237354e+02	2.760500e+05	1.075147e+05	2.931584e+02	3.106605e-01	8.726731e+00	0.000000e+00	
1.051282e+00	9.018987e-01	1.277601e+00	5.699981e+01	-1.237355e+02	2.760495e+05	1.075144e+05	2.931582e+02	3.106616e-01	8.726427e+00	0.000000e+00	
1.000000e+00	8.702532e-01	1.277602e+00	5.699940e+01	-1.237354e+02	2.760500e+05	1.075147e+05	2.931584e+02	3.106605e-01	8.726728e+00	0.000000e+00	
1.051282e+00	8.702532e-01	1.277601e+00	5.699979e+01	-1.237355e+02	2.760495e+05	1.075144e+05	2.931582e+02	3.106616e-01	8.726425e+00	0.000000e+00	
1.000000e+00	8.386076e-01	1.277602e+00	5.699937e+01	-1.237354e+02	2.760500e+05	1.075146e+05	2.931584e+02	3.106605e-01	8.726726e+00	0.000000e+00	
1.051282e+00	8.386076e-01	1.277600e+00	5.699976e+01	-1.237355e+02	2.760495e+05	1.075144e+05	2.931582e+02	3.106616e-01	8.726422e+00	0.000000e+00	
1.000000e+00	8.069620e-01	1.277602e+00	5.699934e+01	-1.237354e+02	2.760500e+05	1.075146e+05	2.931584e+02	3.106604e-01	8.726724e+00	0.000000e+00	
1.051282e+00	8.069620e-01	1.277600e+00	5.699974e+01	-1.237355e+02	2.760495e+05	1.075144e+05	2.931582e+02	3.106616e-01	8.726421e+00	0.000000e+00	
1.000000e+00	7.753165e-01	1.277602e+00	5.699932e+01	-1.237354e+02	2.760500e+05	1.075146e+05	2.931584e+02	3.106604e-01	8.726723e+00	0.000000e+00	
1.051282e+00	7.753165e-01	1.277600e+00	5.699972e+01	-1.237355e+02	2.760495e+05	1.075144e+05	2.931582e+02	3.106615e-01	8.726419e+00	0.000000e+00	
1.000000e+00	7.436709e-01	1.277602e+00	5.699930e+01	-1.237354e+02	2.760500e+05	1.075146e+05	2.931584e+02	3.106604e-01	8.726721e+00	0.000000e+00	
1.051282e+00	7.436709e-01	1.277600e+00	5.699971e+01	-1.237355e+02	2.760495e+05	1.075144e+05	2.931582e+02	3.106615e-01	8.726418e+00	0.000000e+00	
1.000000e+00	7.120253e-01	1.277602e+00	5.699928e+01	-1.237354e+02	2.760500e+05	1.075146e+05	2.931584e+02	3.106603e-01	8.726720e+00	0.000000e+00	
1.051282e+00	7.120253e-01	1.277600e+00	5.699970e+01	-1.237355e+02	2.760495e+05	1.075144e+05	2.931582e+02	3.106615e-01	8.726416e+00	0.000000e+00	
1.000000e+00	6.803797e-01	1.277602e+00	5.699928e+01	-1.237353e+02	2.760500e+05	1.075146e+05	2.931584e+02	3.106603e-01	8.726719e+00	0.000000e+00	
1.051282e+00	6.803797e-01	1.277600e+00	5.699969e+01	-1.237355e+02	2.760495e+05	1.075144e+05	2.931582e+02	3.106615e-01	8.726415e+00	0.000000e+00	
1.000000e+00	6.487342e-01	1.277602e+00	5.699927e+01	-1.237353e+02	2.760500e+05	1.075146e+05	2.931584e+02	3.106603e-01	8.726718e+00	0.000000e+00	
1.051282e+00	6.487342e-01	1.277600e+00	5.699969e+01	-1.237355e+02	2.760495e+05	1.075144e+05	2.931582e+02	3.106615e-01	8.726414e+00	0.000000e+00	
1.000000e+00	6.170886e-01	1.277602e+00	5.699928e+01	-1.237353e+02	2.760500e+05	1.075146e+05	2.931584e+02	3.106603e-01	8.726718e+00	0.000000e+00	
1.051282e+00	6.170886e-01	1.277600e+00	5.699969e+01	-1.237354e+02	2.760495e+05	1.075144e+05	2.931582e+02	3.106615e-01	8.726414e+00	0.000000e+00	
1.000000e+00	5.854430e-01	1.277602e+00	5.699928e+01	-1.237353e+02	2.760500e+05	1.075146e+05	2.931584e+02	3.106603e-01	8.726717e+00	0.000000e+00	
1.051282e+00	5.854430e-01	1.277600e+00	5.699969e+01	-1.237354e+02	2.760495e+05	1.075144e+05	2.931582e+02	3.106615e-01	8.726413e+00	0.000000e+00	
1.000000e+00	5.537975e-01	1.277602e+00	5.699929e+01	-1.237353e+02	2.760500e+05	1.075146e+05	2.931584e+02	3.106603e-01	8.726716e+00	0.000000e+00	
1.051282e+00	5.537975e-01	1.277600e+00	5.699970e+01	-1.237354e+02	2.760495e+05	1.075144e+05	2.931582e+02	3.106614e-01	8.726412e+00	0.000000e+00	
1.000000e+00	5.221519e-01	1.277602e+00	5.699931e+01	-1.237353e+02	2.760500e+05	1.075146e+05	2.931584e+02	3.106603e-01	8.726716e+00	0.000000e+00	
1.051282e+00	5.221519e-01	1.277600e+00	5.699971e+01	-1.237354e+02	2.760495e+05	1.075144e+05	2.931582e+02	3.106614e-01	8.726411e+00	0.000000e+00	
1.000000e+00	4.905063e-01	1.277602e+00	5.699932e+01	-1.237353e+02	2.760500e+05	1.075146e+05	2.931584e+02	3.106603e-01	8.726715e+00	0.000000e+00	
1.051282e+00	4.905063e-01	1.277600e+00	5.699973e+01	-1.237354e+02	2.760495e+05	1.075144e+05	2.931582e+02	3.106614e-01	8.726411e+00	0.000000e+00	
1.000000e+00	4.588608e-01	1.277602e+00	5.699934e+01	-1.237353e+02	2.760500e+05	1.075146e+05	2.931584e+02	3.106603e-01	8.726715e+00	0.000000e+00	
1.051282e+00	4.588608e-01	1.277600e+00	5.699975e+01	-1.237354e+02	2.760495e+05	1.075144e+05	2.931582e+02	3.106614e-01	8.726410e+00	0.000000e+00	
1.000000e+00	4.272152e-01	1.277602e+00	5.699936e+01	-1.237353e+02	2.760500e+05	1.075146e+05	2.931584e+02	3.106603e-01	8.726714e+00	0.000000e+00	
1.051282e+00	4.272152e-01	1.277600e+00	5.699977e+01	-1.237354e+02	2.760495e+05	1.075144e+05	2.931582e+02	3.106614e-01	8.726409e+00	0.000000e+00	
1.000000e+00	3.955696e-01	1.277602e+00	5.699939e+01	-1.237353e+02	2.760500e+05	1.075146e+05	2.931584e+02	3.106603e-01	8.726713e+00	0.000000e+00	
1.051282e+00	3.955696e-01	1.277600e+00	5.699979e+01	-1.237354e+02	2.760495e+05	1.075144e+05	2.931582e+02	3.106614e-01	8.726408e+00	0.000000e+00	
1.000000e+00	3.639241e-01	1.277602e+00	5.699941e+01	-1.237353e+02	2.760500e+05	1.075146e+05	2.931584e+02	3.106603e-01	8.726713e+00	0.000000e+00	
1.051282e+00	3.639241e-01	1.277600e+00	5.699981e+01	-1.237354e+02	2.760494e+05	1.075144e+05	2.931582e+02	3.106615e-01	8.726408e+00	0.000000e+00	
1.000000e+00	3.322785e-01	1.277602e+00	5.699944e+01	-1.237353e+02	2.760500e+05	1.075146e+05	2.931584e+02	3.106603e-01	8.726712e+00	0.000000e+00	
1.051282e+00	3.322785e-01	1.277600e+00	5.699983e+01	-1.237354e+02	2.760494e+05	1.075144e+05	2.931582e+02	3.106615e-01	8.726407e+00	0.000000e+00	
1.000000e+00	3.006329e-01	1.277602e+00	5.699946e+01	-1.237353e+02	2.760499e+05	1.075146e+05	2.931584e+02	3.106603e-01	8.726711e+00	0.000000e+00	
1.051282e+00	3.006329e-01	1.277600e+00	5.699985e+01	-1.237354e+02	2.760494e+05	1.075144e+05	2.931582e+02	3.106615e-01	8.726406e+00	0.000000e+00	
1.000000e+00	2.689873e-01	1.277602e+00	5.699949e+01	-1.237353e+02	2.760499e+05	1.075146e+05	2.931584e+02	3.106604e-01	8.726710e+00	0.000000e+00	
1.051282e+00	2.689873e-01	1.277600e+00	5.699988e+01	-1.237354e+02	2.760494e+05	1.075144e+05	2.931582e+02	3.106615e-01	8.726405e+00	0.000000e+00	
1.000000e+00	2.373418e-01	1.277602e+00	5.699951e+01	-1.237353e+02	2.760499e+05	1.075146e+05	2.931584e+02	3.106604e-01	8.726709e+00	0.000000e+00	
1.051282e+00	2.373418e-01	1.277600e+00	5.699990e+01	-1.237354e+02	2.760494e+05	1.075144e+05	2.931582e+02	3.106615e-01	8.726404e+00	0.000000e+00	
1.000000e+00	2.056962e-01	1.277602e+00	5.699953e+01	-1.237353e+02	2.760499e+05	1.075146e+05	2.931584e+02	3.106604e-01	8.726708e+00	0.000000e+00	
1.051282e+00	2.056962e-01	1.277600e+00	5.699992e+01	-1.237354e+02	2.760494e+05	1.075144e+05	2.931582e+02	3.106616e-01	8.726403e+00	0.000000e+00	
1.000000e+00	1.740506e-01	1.277602e+00	5.699955e+01	-1.237353e+02	2.760499e+05	1.075146e+05	2.931584e+02	3.106604e-01	8.726707e+00	0.000000e+00	
1.051282e+00	1.740506e-01	1.277600e+00	5.699994e+01	-1.237354e+02	2.760494e+05	1.075144e+05	2.931582e+02	3.106616e-01	8.726402e+00	0.000000e+00	
1.000000e+00	1.424051e-01	1.277602e+00	5.699958e+01	-1.237353e+02	2.760499e+05	1.075146e+05	2.931584e+02	3.106605e-01	8.726707e+00	0.000000e+00	
1.051282e+00	1.424051e-01	1.277600e+00	5.699996e+01	-1.237354e+02	2.760494e+05	1.075144e+05	2.931582e+02	3.106616e-01	8.726402e+00	0.000000e+00	
1.000000e+00	1.107595e-01	1.277602e+00	5.699959e+01	-1.237353e+02	2.760499e+05	1.075146e+05	2.931584e+02	3.106605e-01	8.726706e+00	0.000000e+00	
1.051282e+00	1.107595e-01	1.277600e+00	5.699998e+01	-1.237354e+02	2.760494e+05	1.075144e+05	2.931582e+02	3.106616e-01	8.726401e+00	0.000000e+00	
1.000000e+00	7.911392e-02	1.277602e+00	5.699961e+01	-1.237353e+02	2.760499e+05	1.075146e+05	2.931584e+02	3.106605e-01	8.726705e+00	0.000000e+00	
1.051282e+00	7.911392e-02	1.277600e+00	5.700000e+01	-1.237354e+02	2.760494e+05	1.075144e+05	2.931582e+02	3.106617e-01	8.726400e+00	0.000000e+00	
1.000000e+00	4.746835e-02	1.277602e+00	5.699963e+01	-1.237353e+02	2.760499e+05	1.075146e+05	2.931584e+02	3.106605e-01	8.726704e+00	0.000000e+00	
1.051282e+00	4.746835e-02	1.277600e+00	5.700002e+01	-1.237354e+02	2.760494e+05	1.075144e+05	2.931582e+02	3.106617e-01	8.726399e+00	0.000000e+00	
1.000000e+00	1.582278e-02	1.277602e+00	5.699965e+01	-1.237353e+02	2.760499e+05	1.075146e+05	2.931584e+02	3.106605e-01	8.726703e+00	0.000000e+00	
1.051282e+00	1.582278e-02	1.277600e+00	5.700003e+01	-1.237354e+02	2.760494e+05	1.075144e+05	2.931582e+02	3.106617e-01	8.726399e+00	0.000000e+00	
1.000000e+00	-1.582278e-02	1.277602e+00	5.699966e+01	-1.237353e+02	2.760499e+05	1.075146e+05	2.931584e+02	3.106606e-01	8.726703e+00	0.000000e+00	
1.051282e+00	-1.582278e-02	1.277600e+00	5.700005e+01	-1.237354e+02	2.760494e+05	1.075144e+05	2.931582e+02	3.106617e-01	8.726398e+00	0.000000e+00	
1.000000e+00	-4.746835e-02	1.277602e+00	5.699968e+01	-1.237353e+02	2.760499e+05	1.075146e+05	2.931584e+02	3.106606e-01	8.726702e+00	0.000000e+00	
1.051282e+00	-4.746835e-02	1.277600e+00	5.700007e+01	-1.237354e+02	2.760494e+05	1.075144e+05	2.931582e+02	3.106617e-01	8.726398e+00	0.000000e+00	
1.000000e+00	-7.911392e-02	1.277602e+00	5.699969e+01	-1.237353e+02	2.760499e+05	1.075146e+05	2.931584e+02	3.106606e-01	8.726702e+00	0.000000e+00	
1.051282e+00	-7.911392e-02	1.277600e+00	5.700008e+01	-1.237354e+02	2.760494e+05	1.075144e+05	2.931582e+02	3.106618e-01	8.726398e+00	0.000000e+00	
1.000000e+00	-1.107595e-01	1.277602e+00	5.699971e+01	-1.237353e+02	2.760499e+05	1.075146e+05	2.931584e+02	3.106606e-01	8.726702e+00	0.000000e+00	
1.051282e+00	-1.107595e-01	1.277600e+00	5.700010e+01	-1.237354e+02	2.760494e+05	1.075144e+05	2.931582e+02	3.106618e-01	8.726398e+00	0.000000e+00	
1.000000e+00	-1.424051e-01	1.277602e+00	5.699973e+01	-1.237353e+02	2.760499e+05	1.075146e+05	2.931584e+02	3.106606e-01	8.726702e+00	0.000000e+00	
1.051282e+00	-1.424051e-01	1.277600e+00	5.700012e+01	-1.237354e+02	2.760494e+05	1.075144e+05	2.931582e+02	3.106618e-01	8.726398e+00	0.000000e+00	
1.000000e+00	-1.740506e-01	1.277602e+00	5.699974e+01	-1.237353e+02	2.760499e+05	1.075146e+05	2.931584e+02	3.106606e-01	8.726702e+00	0.000000e+00	
1.051282e+00	-1.740506e-01	1.277600e+00	5.700014e+01	-1.237354e+02	2.760494e+05	1.075144e+05	2.931582e+02	3.106618e-01	8.726398e+00	0.000000e+00	
1.000000e+00	-2.056962e-01	1.277602e+00	5.699976e+01	-1.237353e+02	2.760499e+05	1.075146e+05	2.931584e+02	3.106606e-01	8.726702e+00	0.000000e+00	
1.051282e+00	-2.056962e-01	1.277600e+00	5.700016e+01	-1.237354e+02	2.760495e+05	1.075144e+05	2.931582e+02	3.106618e-01	8.726398e+00	0.000000e+00	
1.000000e+00	-2.373418e-01	1.277602e+00	5.699978e+01	-1.237353e+02	2.760499e+05	1.075146e+05	2.931584e+02	3.106607e-01	8.726702e+00	0.000000e+00	
1.051282e+00	-2.373418e-01	1.277600e+00	5.700018e+01	-1.237354e+02	2.760495e+05	1.075144e+05	2.931582e+02	3.106618e-01	8.726399e+00	0.000000e+00	
1.000000e+00	-2.689873e-01	1.277602e+00	5.699980e+01	-1.237353e+02	2.760499e+05	1.075146e+05	2.931584e+02	3.106607e-01	8.726703e+00	0.000000e+00	
1.051282e+00	-2.689873e-01	1.277600e+00	5.700020e+01	-1.237354e+02	2.760495e+05	1.075144e+05	2.931582e+02	3.106619e-01	8.726400e+00	0.000000e+00	
1.000000e+00	-3.006329e-01	1.277602e+00	5.699982e+01	-1.237353e+02	2.760500e+05	1.075146e+05	2.931584e+02	3.106607e-01	8.726703e+00	0.000000e+00	
1.051282e+00	-3.006329e-01	1.277600e+00	5.700022e+01	-1.237354e+02	2.760495e+05	1.075144e+05	2.931582e+02	3.106619e-01	8.726400e+00	0.000000e+00	
1.000000e+00	-3.322785e-01	1.277602e+00	5.699984e+01	-1.237353e+02	2.760500e+05	1.075146e+05	2.931584e+02	3.106607e-01	8.726704e+00	0.000000e+00	
1.051282e+00	-3.322785e-01	1.277600e+00	5.700024e+01	-1.237354e+02	2.760495e+05	1.075144e+05	2.931582e+02	3.106619e-01	8.726401e+00	0.000000e+00	
1.000000e+00	-3.639241e-01	1.277602e+00	5.699987e+01	-1.237352e+02	2.760500e+05	1.075146e+05	2.931584e+02	3.106607e-01	8.726705e+00	0.000000e+00	
1.051282e+00	-3.639241e-01	1.277600e+00	5.700027e+01	-1.237354e+02	2.760495e+05	1.075144e+05	2.931582e+02	3.106619e-01	8.726402e+00	0.000000e+00	
1.000000e+00	-3.955696e-01	1.277602e+00	5.699989e+01	-1.237352e+02	2.760500e+05	1.075146e+05	2.931584e+02	3.106607e-01	8.726706e+00	0.000000e+00	
1.051282e+00	-3.955696e-01	1.277600e+00	5.700030e+01	-1.237354e+02	2.760495e+05	1.075144e+05	2.931582e+02	3.106619e-01	8.726403e+00	0.000000e+00	
1.000000e+00	-4.272152e-01	1.277602e+00	5.699992e+01	-1.237352e+02	2.760500e+05	1.075146e+05	2.931584e+02	3.106607e-01	8.726707e+00	0.000000e+00	
1.051282e+00	-4.272152e-01	1.277600e+00	5.700032e+01	-1.237354e+02	2.760495e+05	1.075144e+05	2.931582e+02	3.106619e-01	8.726405e+00	0.000000e+00	
1.000000e+00	-4.588608e-01	1.277602e+00	5.699994e+01	-1.237352e+02	2.760500e+05	1.075146e+05	2.931584e+02	3.106607e-01	8.726709e+00	0.000000e+00	
1.051282e+00	-4.588608e-01	1.277600e+00	5.700035e+01	-1.237353e+02	2.760495e+05	1.075144e+05	2.931582e+02	3.106619e-01	8.726406e+00	0.000000e+00	
1.000000e+00	-4.905063e-01	1.277602e+00	5.699997e+01	-1.237352e+02	2.760500e+05	1.075146e+05	2.931585e+02	3.106607e-01	8.726710e+00	0.000000e+00	
1.051282e+00	-4.905063e-01	1.277600e+00	5.700038e+01	-1.237353e+02	2.760495e+05	1.075144e+05	2.931583e+02	3.106619e-01	8.726408e+00	0.000000e+00	
1.000000e+00	-5.221519e-01	1.277602e+00	5.699999e+01	-1.237352e+02	2.760500e+05	1.075146e+05	2.931585e+02	3.106607e-01	8.726711e+00	0.000000e+00	
1.051282e+00	-5.221519e-01	1.277600e+00	5.700041e+01	-1.237353e+02	2.760495e+05	1.075144e+05	2.931583e+02	3.106619e-01	8.726409e+00	0.000000e+00	
1.000000e+00	-5.537975e-01	1.277602e+00	5.700002e+01	-1.237351e+02	2.760500e+05	1.075146e+05	2.931585e+02	3.106607e-01	8.726713e+00	0.000000e+00	
1.051282e+00	-5.537975e-01	1.277600e+00	5.700044e+01	-1.237353e+02	2.760495e+05	1.075144e+05	2.931583e+02	3.106619e-01	8.726411e+00	0.000000e+00	
1.000000e+00	-5.854430e-01	1.277601e+00	5.700005e+01	-1.237351e+02	2.760500e+05	1.075146e+05	2.931585e+02	3.106606e-01	8.726715e+00	0.000000e+00	
1.051282e+00	-5.854430e-01	1.277600e+00	5.700047e+01	-1.237353e+02	2.760495e+05	1.075144e+05	2.931583e+02	3.106619e-01	8.726413e+00	0.000000e+00	
1.000000e+00	-6.170886e-01	1.277601e+00	5.700007e+01	-1.237351e+02	2.760500e+05	1.075146e+05	2.931586e+02	3.106606e-01	8.726716e+00	0.000000e+00	
1.051282e+00	-6.170886e-01	1.277600e+00	5.700049e+01	-1.237353e+02	2.760495e+05	1.075144e+05	2.931583e+02	3.106619e-01	8.726414e+00	0.000000e+00	
1.000000e+00	-6.487342e-01	1.277601e+00	5.700010e+01	-1.237351e+02	2.760500e+05	1.075146e+05	2.931586e+02	3.106606e-01	8.726718e+00	0.000000e+00	
1.051282e+00	-6.487342e-01	1.277600e+00	5.700052e+01	-1.237352e+02	2.760495e+05	1.075144e+05	2.931584e+02	3.106619e-01	8.726416e+00	0.000000e+00	
1.000000e+00	-6.803797e-01	1.277601e+00	5.700012e+01	-1.237350e+02	2.760500e+05	1.075146e+05	2.931586e+02	3.106606e-01	8.726720e+00	0.000000e+00	
1.051282e+00	-6.803797e-01	1.277600e+00	5.700055e+01	-1.237352e+02	2.760495e+05	1.075144e+05	2.931584e+02	3.106619e-01	8.726418e+00	0.000000e+00	
1.000000e+00	-7.120253e-01	1.277601e+00	5.700015e+01	-1.237350e+02	2.760500e+05	1.075146e+05	2.931586e+02	3.106606e-01	8.726722e+00	0.000000e+00	
1.051282e+00	-7.120253e-01	1.277600e+00	5.700057e+01	-1.237352e+02	2.760495e+05	1.075144e+05	2.931584e+02	3.106618e-01	8.726421e+00	0.000000e+00	
1.000000e+00	-7.436709e-01	1.277601e+00	5.700017e+01	-1.237350e+02	2.760500e+05	1.075146e+05	2.931587e+02	3.106606e-01	8.726724e+00	0.000000e+00	
1.051282e+00	-7.436709e-01	1.277599e+00	5.700059e+01	-1.237352e+02	2.760495e+05	1.075144e+05	2.931584e+02	3.106618e-01	8.726423e+00	0.000000e+00	
1.000000e+00	-7.753165e-01	1.277601e+00	5.700019e+01	-1.237350e+02	2.760500e+05	1.075146e+05	2.931587e+02	3.106606e-01	8.726726e+00	0.000000e+00	
1.051282e+00	-7.753165e-01	1.277599e+00	5.700061e+01	-1.237351e+02	2.760495e+05	1.075144e+05	2.931585e+02	3.106618e-01	8.726425e+00	0.000000e+00	
1.000000e+00	-8.069620e-01	1.277601e+00	5.700022e+01	-1.237350e+02	2.760500e+05	1.075147e+05	2.931587e+02	3.106606e-01	8.726729e+00	0.000000e+00	
1.051282e+00	-8.069620e-01	1.277599e+00	5.700063e+01	-1.237351e+02	2.760495e+05	1.075144e+05	2.931585e+02	3.106618e-01	8.726428e+00	0.000000e+00	
1.000000e+00	-8.386076e-01	1.277601e+00	5.700023e+01	-1.237350e+02	2.760500e+05	1.075147e+05	2.931587e+02	3.106606e-01	8.726731e+00	0.000000e+00	
1.051282e+00	-8.386076e-01	1.277599e+00	5.700064e+01	-1.237351e+02	2.760495e+05	1.075144e+05	2.931585e+02	3.106618e-01	8.726430e+00	0.000000e+00	
1.000000e+00	-8.702532e-01	1.277601e+00	5.700025e+01	-1.237350e+02	2.760500e+05	1.075147e+05	2.931587e+02	3.106606e-01	8.726734e+00	0.000000e+00	
1.051282e+00	-8.702532e-01	1.277599e+00	5.700066e+01	-1.237351e+02	2.760495e+05	1.075144e+05	2.931585e+02	3.106618e-01	8.726433e+00	0.000000e+00	
1.000000e+00	-9.018987e-01	1.277601e+00	5.700027e+01	-1.237350e+02	2.760500e+05	1.075147e+05	2.931587e+02	3.106606e-01	8.726737e+00	0.000000e+00	
1.051282e+00	-9.018987e-01	1.277599e+00	5.700067e+01	-1.237351e+02	2.760495e+05	1.075144e+05	2.931585e+02	3.106617e-01	8.726436e+00	0.000000e+00	
1.000000e+00	-9.335443e-01	1.277601e+00	5.700028e+01	-1.237350e+02	2.760500e+05	1.075147e+05	2.931586e+02	3.106606e-01	8.726739e+00	0.000000e+00	
1.051282e+00	-9.335443e-01	1.277599e+00	5.700067e+01	-1.237351e+02	2.760495e+05	1.075144e+05	2.931585e+02	3.106617e-01	8.726439e+00	0.000000e+00	
1.000000e+00	-9.651899e-01	1.277601e+00	5.700029e+01	-1.237350e+02	2.760500e+05	1.075147e+05	2.931586e+02	3.106606e-01	8.726743e+00	0.000000e+00	
1.051282e+00	-9.651899e-01	1.277599e+00	5.700068e+01	-1.237351e+02	2.760495e+05	1.075144e+05	2.931585e+02	3.106617e-01	8.726442e+00	0.000000e+00	
1.000000e+00	-9.968354e-01	1.277601e+00	5.700029e+01	-1.237350e+02	2.760500e+05	1.075147e+05	2.931586e+02	3.106606e-01	8.726746e+00	0.000000e+00	
1.051282e+00	-9.968354e-01	1.277599e+00	5.700068e+01	-1.237351e+02	2.760495e+05	1.075144e+05	2.931585e+02	3.106617e-01	8.726446e+00	0.000000e+00	
1.000000e+00	-1.028481e+00	1.277602e+00	5.700029e+01	-1.237350e+02	2.760500e+05	1.075147e+05	2.931586e+02	3.106606e-01	8.726750e+00	0.000000e+00	
1.051282e+00	-1.028481e+00	1.277599e+00	5.700067e+01	-1.237351e+02	2.760495e+05	1.075145e+05	2.931585e+02	3.106616e-01	8.726449e+00	0.000000e+00	
1.000000e+00	-1.060127e+00	1.277602e+00	5.700029e+01	-1.237350e+02	2.760500e+05	1.075147e+05	2.931585e+02	3.106605e-01	8.726754e+00	0.000000e+00	
1.051282e+00	-1.060127e+00	1.277600e+00	5.700067e+01	-1.237351e+02	2.760495e+05	1.075145e+05	2.931585e+02	3.106616e-01	8.726454e+00	0.000000e+00	
1.000000e+00	-1.091772e+00	1.277602e+00	5.700028e+01	-1.237350e+02	2.760500e+05	1.075147e+05	2.931585e+02	3.106605e-01	8.726757e+00	0.000000e+00	
1.051282e+00	-1.091772e+00	1.277600e+00	5.700066e+01	-1.237350e+02	2.760495e+05	1.075145e+05	2.931585e+02	3.106616e-01	8.726456e+00	0.000000e+00	
1.000000e+00	-1.123418e+00	1.277602e+00	5.700026e+01	-1.237350e+02	2.760501e+05	1.075147e+05	2.931585e+02	3.106605e-01	8.726763e+00	0.000000e+00	
1.051282e+00	-1.123418e+00	1.277600e+00	5.700064e+01	-1.237351e+02	2.760496e+05	1.075145e+05	2.931584e+02	3.106616e-01	8.726463e+00	0.000000e+00	
1.000000e+00	-1.155063e+00	1.277602e+00	5.700024e+01	-1.237350e+02	2.760501e+05	1.075147e+05	2.931584e+02	3.106605e-01	8.726766e+00	0.000000e+00	
1.051282e+00	-1.155063e+00	1.277600e+00	5.700061e+01	-1.237350e+02	2.760496e+05	1.075145e+05	2.931584e+02	3.106615e-01	8.726463e+00	0.000000e+00	
1.000000e+00	-1.186709e+00	1.277603e+00	5.700025e+01	-1.237350e+02	2.760501e+05	1.075147e+05	2.931584e+02	3.106605e-01	8.726778e+00	0.000000e+00	
1.051282e+00	-1.186709e+00	1.277600e+00	5.700062e+01	-1.237351e+02	2.760496e+05	1.075145e+05	2.931584e+02	3.106616e-01	8.726478e+00	0.000000e+00	
1.000000e+00	-1.218354e+00	1.277603e+00	5.700025e+01	-1.237350e+02	2.760501e+05	1.075147e+05	2.931584e+02	3.106604e-01	8.726767e+00	0.000000e+00	
1.051282e+00	-1.218354e+00	1.277600e+00	5.700068e+01	-1.237350e+02	2.760496e+05	1.075145e+05	2.931584e+02	3.106615e-01	8.726463e+00	0.000000e+00	
1.102564e+00	1.218354e+00	1.277598e+00	5.700039e+01	-1.237352e+02	2.760490e+05	1.075143e+05	2.931582e+02	3.106621e-01	8.726169e+00	0.000000e+00	
1.102564e+00	1.250000e+00	1.277598e+00	5.700048e+01	-1.237351e+02	2.760491e+05	1.075143e+05	2.931583e+02	3.106619e-01	8.726206e+00	0.000000e+00	
1.102564e+00	1.186709e+00	1.277598e+00	5.700036e+01	-1.237352e+02	2.760491e+05	1.075143e+05	2.931582e+02	3.106620e-01	8.726177e+00	0.000000e+00	
1.102564e+00	1.155063e+00	1.277598e+00	5.700033e+01	-1.237352e+02	2.760490e+05	1.075143e+05	2.931582e+02	3.106621e-01	8.726169e+00	0.000000e+00	
1.102564e+00	1.123418e+00	1.277599e+00	5.700030e+01	-1.237353e+02	2.760490e+05	1.075143e+05	2.931582e+02	3.106621e-01	8.726164e+00	0.000000e+00	
1.102564e+00	1.091772e+00	1.277599e+00	5.700027e+01	-1.237353e+02	2.760490e+05	1.075142e+05	2.931581e+02	3.106622e-01	8.726160e+00	0.000000e+00	
1.102564e+00	1.060127e+00	1.277599e+00	5.700024e+01	-1.237353e+02	2.760490e+05	1.075142e+05	2.931581e+02	3.106622e-01	8.726156e+00	0.000000e+00	
1.102564e+00	1.028481e+00	1.277599e+00	5.700021e+01	-1.237354e+02	2.760490e+05	1.075142e+05	2.931581e+02	3.106622e-01	8.726152e+00	0.000000e+00	
1.102564e+00	9.968354e-01	1.277599e+00	5.700018e+01	-1.237354e+02	2.760490e+05	1.075142e+05	2.931581e+02	3.106623e-01	8.726148e+00	0.000000e+00	
1.102564e+00	9.651899e-01	1.277599e+00	5.700015e+01	-1.237354e+02	2.760490e+05	1.075142e+05	2.931580e+02	3.106623e-01	8.726145e+00	0.000000e+00	
1.102564e+00	9.335443e-01	1.277599e+00	5.700012e+01	-1.237354e+02	2.760490e+05	1.075142e+05	2.931580e+02	3.106623e-01	8.726142e+00	0.000000e+00	
1.102564e+00	9.018987e-01	1.277599e+00	5.700010e+01	-1.237355e+02	2.760490e+05	1.075142e+05	2.931580e+02	3.106623e-01	8.726139e+00	0.000000e+00	
1.102564e+00	8.702532e-01	1.277599e+00	5.700008e+01	-1.237355e+02	2.760490e+05	1.075142e+05	2.931580e+02	3.106623e-01	8.726136e+00	0.000000e+00	
1.102564e+00	8.386076e-01	1.277599e+00	5.700006e+01	-1.237355e+02	2.760490e+05	1.075142e+05	2.931580e+02	3.106624e-01	8.726134e+00	0.000000e+00	
1.102564e+00	8.069620e-01	1.277599e+00	5.700004e+01	-1.237355e+02	2.760490e+05	1.075142e+05	2.931580e+02	3.106624e-01	8.726132e+00	0.000000e+00	
1.102564e+00	7.753165e-01	1.277599e+00	5.700003e+01	-1.237355e+02	2.760490e+05	1.075142e+05	2.931580e+02	3.106624e-01	8.726130e+00	0.000000e+00	
1.102564e+00	7.436709e-01	1.277599e+00	5.700002e+01	-1.237355e+02	2.760490e+05	1.075142e+05	2.931580e+02	3.106624e-01	8.726128e+00	0.000000e+00	
1.102564e+00	7.120253e-01	1.277599e+00	5.700002e+01	-1.237355e+02	2.760490e+05	1.075142e+05	2.931580e+02	3.106624e-01	8.726127e+00	0.000000e+00	
1.102564e+00	6.803797e-01	1.277599e+00	5.700001e+01	-1.237355e+02	2.760490e+05	1.075142e+05	2.931580e+02	3.106624e-01	8.726125e+00	0.000000e+00	
1.102564e+00	6.487342e-01	1.277599e+00	5.700002e+01	-1.237355e+02	2.760490e+05	1.075142e+05	2.931580e+02	3.106624e-01	8.726124e+00	0.000000e+00	
1.102564e+00	6.170886e-01	1.277599e+00	5.700002e+01	-1.237355e+02	2.760490e+05	1.075142e+05	2.931580e+02	3.106624e-01	8.726123e+00	0.000000e+00	
1.102564e+00	5.854430e-01	1.277599e+00	5.700003e+01	-1.237355e+02	2.760490e+05	1.075142e+05	2.931581e+02	3.106624e-01	8.726122e+00	0.000000e+00	
1.102564e+00	5.537975e-01	1.277599e+00	5.700004e+01	-1.237355e+02	2.760490e+05	1.075142e+05	2.931581e+02	3.106624e-01	8.726121e+00	0.000000e+00	
1.102564e+00	5.221519e-01	1.277599e+00	5.700005e+01	-1.237355e+02	2.760490e+05	1.075142e+05	2.931581e+02	3.106624e-01	8.726120e+00	0.000000e+00	
1.102564e+00	4.905063e-01	1.277599e+00	5.700006e+01	-1.237355e+02	2.760490e+05	1.075142e+05	2.931581e+02	3.106624e-01	8.726119e+00	0.000000e+00	
1.102564e+00	4.588608e-01	1.277598e+00	5.700008e+01	-1.237355e+02	2.760490e+05	1.075142e+05	2.931581e+02	3.106624e-01	8.726118e+00	0.000000e+00	
1.102564e+00	4.272152e-01	1.277598e+00	5.700009e+01	-1.237354e+02	2.760490e+05	1.075142e+05	2.931581e+02	3.106624e-01	8.726117e+00	0.000000e+00	
1.102564e+00	3.955696e-01	1.277598e+00	5.700011e+01	-1.237354e+02	2.760490e+05	1.075142e+05	2.931581e+02	3.106624e-01	8.726116e+00	0.000000e+00	
1.102564e+00	3.639241e-01	1.277598e+00	5.700013e+01	-1.237354e+02	2.760490e+05	1.075142e+05	2.931581e+02	3.106624e-01	8.726116e+00	0.000000e+00	
1.102564e+00	3.322785e-01	1.277598e+00	5.700015e+01	-1.237354e+02	2.760490e+05	1.075142e+05	2.931581e+02	3.106624e-01	8.726115e+00	0.000000e+00	
1.102564e+00	3.006329e-01	1.277598e+00	5.700017e+01	-1.237354e+02	2.760490e+05	1.075142e+05	2.931581e+02	3.106624e-01	8.726114e+00	0.000000e+00	
1.102564e+00	2.689873e-01	1.277598e+00	5.700019e+01	-1.237354e+02	2.760490e+05	1.075142e+05	2.931581e+02	3.106624e-01	8.726113e+00	0.000000e+00	
1.102564e+00	2.373418e-01	1.277598e+00	5.700021e+01	-1.237354e+02	2.760490e+05	1.075142e+05	2.931581e+02	3.106624e-01	8.726112e+00	0.000000e+00	
1.102564e+00	2.056962e-01	1.277598e+00	5.700023e+01	-1.237354e+02	2.760490e+05	1.075142e+05	2.931581e+02	3.106625e-01	8.726111e+00	0.000000e+00	
1.102564e+00	1.740506e-01	1.277598e+00	5.700025e+01	-1.237354e+02	2.760490e+05	1.075142e+05	2.931581e+02	3.106625e-01	8.726111e+00	0.000000e+00	
1.102564e+00	1.424051e-01	1.277598e+00	5.700027e+01	-1.237354e+02	2.760490e+05	1.075142e+05	2.931581e+02	3.106625e-01	8.726110e+00	0.000000e+00	
1.102564e+00	1.107595e-01	1.277598e+00	5.700029e+01	-1.237354e+02	2.760490e+05	1.075142e+05	2.931581e+02	3.106625e-01	8.726109e+00	0.000000e+00	
1.102564e+00	7.911392e-02	1.277598e+00	5.700031e+01	-1.237354e+02	2.760490e+05	1.075142e+05	2.931581e+02	3.106625e-01	8.726109e+00	0.000000e+00	
1.102564e+00	4.746835e-02	1.277598e+00	5.700033e+01	-1.237354e+02	2.760490e+05	1.075142e+05	2.931581e+02	3.106626e-01	8.726108e+00	0.000000e+00	
1.102564e+00	1.582278e-02	1.277598e+00	5.700034e+01	-1.237354e+02	2.760490e+05	1.075142e+05	2.931581e+02	3.106626e-01	8.726108e+00	0.000000e+00	
1.102564e+00	-1.582278e-02	1.277598e+00	5.700036e+01	-1.237354e+02	2.760490e+05	1.075142e+05	2.931581e+02	3.106626e-01	8.726107e+00	0.000000e+00	
1.102564e+00	-4.746835e-02	1.277598e+00	5.700038e+01	-1.237354e+02	2.760490e+05	1.075142e+05	2.931581e+02	3.106627e-01	8.726107e+00	0.000000e+00	
1.102564e+00	-7.911392e-02	1.277598e+00	5.700039e+01	-1.237355e+02	2.760490e+05	1.075142e+05	2.931581e+02	3.106627e-01	8.726107e+00	0.000000e+00	
1.102564e+00	-1.107595e-01	1.277598e+00	5.700041e+01	-1.237355e+02	2.760490e+05	1.075142e+05	2.931581e+02	3.106627e-01	8.726107e+00	0.000000e+00	
1.102564e+00	-1.424051e-01	1.277598e+00	5.700043e+01	-1.237355e+02	2.760490e+05	1.075142e+05	2.931581e+02	3.106627e-01	8.726107e+00	0.000000e+00	
1.102564e+00	-1.740506e-01	1.277598e+00	5.700045e+01	-1.237355e+02	2.760490e+05	1.075142e+05	2.931580e+02	3.106627e-01	8.726107e+00	0.000000e+00	