TITLE = "SU2 Simulation"
VARIABLES = "Iteration","CL","CD","CSF","CMx","CMy","CMz","CFx","CFy","CFz","CL/CD","AoA","Custom_ObjFunc","Res_Flow[0]","Res_Flow[1]","Res_Flow[2]","Res_Flow[3]","Res_Flow[4]","Linear_Solver_Iterations","CFL_Number","Time(min)"
ZONE T= "Convergence history"
           0, 0.00000000e+00, 0.00000000e+00, 0.00000000e+00, 0.00000000e+00, 0.00000000e+00, 0.00000000e+00, 0.00000000e+00, 0.00000000e+00, 0.00000000e+00, 0.00000000e+00, 0.00000000e+00, 0.00000000e+00, -3.70734323e+00, -1.09757952e+00, -1.29867072e+01, 1.81212178e+00, 0.00000000e+00, 5.0000000000, 5.0000000000, 0.0012600833
           1, 0.00000000e+00, 0.00000000e+00, 0.00000000e+00, 0.00000000e+00, 0.00000000e+00, 0.00000000e+00, 0.00000000e+00, 0.00000000e+00, 0.00000000e+00, 0.00000000e+00, 0.00000000e+00, 0.00000000e+00, -3.99302781e+00, -1.36998898e+00, -3.48553279e+00, 1.54589397e+00, 0.00000000e+00, 5.0000000000, 5.0000000000, 0.0026107333
           2, 0.00000000e+00, 0.00000000e+00, 0.00000000e+00, 0.00000000e+00, 0.00000000e+00, 0.00000000e+00, 0.00000000e+00, 0.00000000e+00, 0.00000000e+00, 0.00000000e+00, 0.00000000e+00, 0.00000000e+00, -1.46423006e+00, 1.01575883e+00, -1.27136451e+00, 3.97749677e+00, 0.00000000e+00, 5.0000000000, 5.0000000000, 0.0038133167
           3, 0.00000000e+00, 0.00000000e+00, 0.00000000e+00, 0.00000000e+00, 0.00000000e+00, 0.00000000e+00, 0.00000000e+00, 0.00000000e+00, 0.00000000e+00, 0.00000000e+00, 0.00000000e+00, 0.00000000e+00, -1.28671194e+00, 1.18472376e+00, -8.06727153e-01, 4.15115247e+00, 0.00000000e+00, 5.0000000000, 5.0000000000, 0.0049403333
           4, 0.00000000e+00, 0.00000000e+00, 0.00000000e+00, 0.00000000e+00, 0.00000000e+00, 0.00000000e+00, 0.00000000e+00, 0.00000000e+00, 0.00000000e+00, 0.00000000e+00, 0.00000000e+00, 0.00000000e+00, -1.22674901e+00, 1.23842547e+00, -6.25208869e-01, 4.20785108e+00, 0.00000000e+00, 5.0000000000, 5.0000000000, 0.0061087167
           5, 0.00000000e+00, 0.00000000e+00, 0.00000000e+00, 0.00000000e+00, 0.00000000e+00, 0.00000000e+00, 0.00000000e+00, 0.00000000e+00, 0.00000000e+00, 0.00000000e+00, 0.00000000e+00, 0.00000000e+00, -1.20650119e+00, 1.25462045e+00, -5.76055059e-01, 4.22554906e+00, 0.00000000e+00, 5.0000000000, 5.0000000000, 0.0076386333
           6, 0.00000000e+00, 0.00000000e+00, 0.00000000e+00, 0.00000000e+00, 0.00000000e+00, 0.00000000e+00, 0.00000000e+00, 0.00000000e+00, 0.00000000e+00, 0.00000000e+00, 0.00000000e+00, 0.00000000e+00, -1.20118631e+00, 1.25726456e+00, -5.92955673e-01, 4.22884483e+00, 0.00000000e+00, 5.0000000000, 5.0000000000, 0.0091110667
           7, 0.00000000e+00, 0.00000000e+00, 0.00000000e+00, 0.00000000e+00, 0.00000000e+00, 0.00000000e+00, 0.00000000e+00, 0.00000000e+00, 0.00000000e+00, 0.00000000e+00, 0.00000000e+00, 0.00000000e+00, -1.20132512e+00, 1.25495629e+00, -6.29566913e-01, 4.22702200e+00, 0.00000000e+00, 5.0000000000, 5.0000000000, 0.0104153000
           8, 0.00000000e+00, 0.00000000e+00, 0.00000000e+00, 0.00000000e+00, 0.00000000e+00, 0.00000000e+00, 0.00000000e+00, 0.00000000e+00, 0.00000000e+00, 0.00000000e+00, 0.00000000e+00, 0.00000000e+00, -1.20349898e+00, 1.25069633e+00, -6.50586241e-01, 4.22343287e+00, 0.00000000e+00, 5.0000000000, 5.0000000000, 0.0116454333
           9, 0.00000000e+00, 0.00000000e+00, 0.00000000e+00, 0.00000000e+00, 0.00000000e+00, 0.00000000e+00, 0.00000000e+00, 0.00000000e+00, 0.00000000e+00, 0.00000000e+00, 0.00000000e+00, 0.00000000e+00, -1.20664036e+00, 1.24557503e+00, -6.49407266e-01, 4.21915230e+00, 0.00000000e+00, 5.0000000000, 5.0000000000, 0.0128822167
          10, 0.00000000e+00, 0.00000000e+00, 0.00000000e+00, 0.00000000e+00, 0.00000000e+00, 0.00000000e+00, 0.00000000e+00, 0.00000000e+00, 0.00000000e+00, 0.00000000e+00, 0.00000000e+00, 0.00000000e+00, -1.21042770e+00, 1.24008926e+00, -6.40656953e-01, 4.21450484e+00, 0.00000000e+00, 5.0000000000, 5.0000000000, 0.0140989667
          11, 0.00000000e+00, 0.00000000e+00, 0.00000000e+00, 0.00000000e+00, 0.00000000e+00, 0.00000000e+00, 0.00000000e+00, 0.00000000e+00, 0.00000000e+00, 0.00000000e+00, 0.00000000e+00, 0.00000000e+00, -1.21472032e+00, 1.23448906e+00, -6.35393865e-01, 4.20959433e+00, 0.00000000e+00, 5.0000000000, 5.0000000000, 0.0158066000
          12, 0.00000000e+00, 0.00000000e+00, 0.00000000e+00, 0.00000000e+00, 0.00000000e+00, 0.00000000e+00, 0.00000000e+00, 0.00000000e+00, 0.00000000e+00, 0.00000000e+00, 0.00000000e+00, 0.00000000e+00, -1.21937449e+00, 1.22891210e+00, -6.35990468e-01, 4.20449835e+00, 0.00000000e+00, 5.0000000000, 5.0000000000, 0.0171786333
          13, 0.00000000e+00, 0.00000000e+00, 0.00000000e+00, 0.00000000e+00, 0.00000000e+00, 0.00000000e+00, 0.00000000e+00, 0.00000000e+00, 0.00000000e+00, 0.00000000e+00, 0.00000000e+00, 0.00000000e+00, -1.22423396e+00, 1.22342346e+00, -6.40578172e-01, 4.19931429e+00, 0.00000000e+00, 5.0000000000, 5.0000000000, 0.0184230000
          14, 0.00000000e+00, 0.00000000e+00, 0.00000000e+00, 0.00000000e+00, 0.00000000e+00, 0.00000000e+00, 0.00000000e+00, 0.00000000e+00, 0.00000000e+00, 0.00000000e+00, 0.00000000e+00, 0.00000000e+00, -1.22917525e+00, 1.21803427e+00, -6.46740986e-01, 4.19412260e+00, 0.00000000e+00, 5.0000000000, 5.0000000000, 0.0195912167
          15, 0.00000000e+00, 0.00000000e+00, 0.00000000e+00, 0.00000000e+00, 0.00000000e+00, 0.00000000e+00, 0.00000000e+00, 0.00000000e+00, 0.00000000e+00, 0.00000000e+00, 0.00000000e+00, 0.00000000e+00, -1.23411648e+00, 1.21274435e+00, -6.52928829e-01, 4.18897925e+00, 0.00000000e+00, 5.0000000000, 5.0000000000, 0.0206814500
          16, 0.00000000e+00, 0.00000000e+00, 0.00000000e+00, 0.00000000e+00, 0.00000000e+00, 0.00000000e+00, 0.00000000e+00, 0.00000000e+00, 0.00000000e+00, 0.00000000e+00, 0.00000000e+00, 0.00000000e+00, -1.23901139e+00, 1.20755488e+00, -6.58792097e-01, 4.18391688e+00, 0.00000000e+00, 5.0000000000, 5.0000000000, 0.0218476333
          17, 0.00000000e+00, 0.00000000e+00, 0.00000000e+00, 0.00000000e+00, 0.00000000e+00, 0.00000000e+00, 0.00000000e+00, 0.00000000e+00, 0.00000000e+00, 0.00000000e+00, 0.00000000e+00, 0.00000000e+00, -1.24383617e+00, 1.20246668e+00, -6.64399425e-01, 4.17895197e+00, 0.00000000e+00, 5.0000000000, 5.0000000000, 0.0230609333
          18, 0.00000000e+00, 0.00000000e+00, 0.00000000e+00, 0.00000000e+00, 0.00000000e+00, 0.00000000e+00, 0.00000000e+00, 0.00000000e+00, 0.00000000e+00, 0.00000000e+00, 0.00000000e+00, 0.00000000e+00, -1.24857616e+00, 1.19748293e+00, -6.69900877e-01, 4.17409463e+00, 0.00000000e+00, 5.0000000000, 5.0000000000, 0.0242948000
          19, 0.00000000e+00, 0.00000000e+00, 0.00000000e+00, 0.00000000e+00, 0.00000000e+00, 0.00000000e+00, 0.00000000e+00, 0.00000000e+00, 0.00000000e+00, 0.00000000e+00, 0.00000000e+00, 0.00000000e+00, -1.25322102e+00, 1.19260720e+00, -6.75360696e-01, 4.16935139e+00, 0.00000000e+00, 5.0000000000, 5.0000000000, 0.0254958333
          20, 0.00000000e+00, 0.00000000e+00, 0.00000000e+00, 0.00000000e+00, 0.00000000e+00, 0.00000000e+00, 0.00000000e+00, 0.00000000e+00, 0.00000000e+00, 0.00000000e+00, 0.00000000e+00, 0.00000000e+00, -1.25776401e+00, 1.18784242e+00, -6.80796473e-01, 4.16472503e+00, 0.00000000e+00, 5.0000000000, 5.0000000000, 0.0266837500
          21, 0.00000000e+00, 0.00000000e+00, 0.00000000e+00, 0.00000000e+00, 0.00000000e+00, 0.00000000e+00, 0.00000000e+00, 0.00000000e+00, 0.00000000e+00, 0.00000000e+00, 0.00000000e+00, 0.00000000e+00, -1.26220156e+00, 1.18319272e+00, -6.86202802e-01, 4.16021541e+00, 0.00000000e+00, 5.0000000000, 5.0000000000, 0.0279377333
          22, 0.00000000e+00, 0.00000000e+00, 0.00000000e+00, 0.00000000e+00, 0.00000000e+00, 0.00000000e+00, 0.00000000e+00, 0.00000000e+00, 0.00000000e+00, 0.00000000e+00, 0.00000000e+00, 0.00000000e+00, -1.26653469e+00, 1.17866230e+00, -6.91569250e-01, 4.15581807e+00, 0.00000000e+00, 5.0000000000, 5.0000000000, 0.0291235167
          23, 0.00000000e+00, 0.00000000e+00, 0.00000000e+00, 0.00000000e+00, 0.00000000e+00, 0.00000000e+00, 0.00000000e+00, 0.00000000e+00, 0.00000000e+00, 0.00000000e+00, 0.00000000e+00, 0.00000000e+00, -1.27076806e+00, 1.17425543e+00, -6.96885954e-01, 4.15152557e+00, 0.00000000e+00, 5.0000000000, 5.0000000000, 0.0303444000
          24, 0.00000000e+00, 0.00000000e+00, 0.00000000e+00, 0.00000000e+00, 0.00000000e+00, 0.00000000e+00, 0.00000000e+00, 0.00000000e+00, 0.00000000e+00, 0.00000000e+00, 0.00000000e+00, 0.00000000e+00, -1.27490889e+00, 1.16997580e+00, -7.02172038e-01, 4.14732873e+00, 0.00000000e+00, 5.0000000000, 5.0000000000, 0.0315792333
          25, 0.00000000e+00, 0.00000000e+00, 0.00000000e+00, 0.00000000e+00, 0.00000000e+00, 0.00000000e+00, 0.00000000e+00, 0.00000000e+00, 0.00000000e+00, 0.00000000e+00, 0.00000000e+00, 0.00000000e+00, -1.27896517e+00, 1.16582501e+00, -7.07454987e-01, 4.14321838e+00, 0.00000000e+00, 5.0000000000, 5.0000000000, 0.0327840667
          26, 0.00000000e+00, 0.00000000e+00, 0.00000000e+00, 0.00000000e+00, 0.00000000e+00, 0.00000000e+00, 0.00000000e+00, 0.00000000e+00, 0.00000000e+00, 0.00000000e+00, 0.00000000e+00, 0.00000000e+00, -1.28294352e+00, 1.16180198e+00, -7.12796761e-01, 4.13918743e+00, 0.00000000e+00, 5.0000000000, 5.0000000000, 0.0339946833
          27, 0.00000000e+00, 0.00000000e+00, 0.00000000e+00, 0.00000000e+00, 0.00000000e+00, 0.00000000e+00, 0.00000000e+00, 0.00000000e+00, 0.00000000e+00, 0.00000000e+00, 0.00000000e+00, 0.00000000e+00, -1.28684709e+00, 1.15790307e+00, -7.18265651e-01, 4.13523277e+00, 0.00000000e+00, 5.0000000000, 5.0000000000, 0.0352853667
          28, 0.00000000e+00, 0.00000000e+00, 0.00000000e+00, 0.00000000e+00, 0.00000000e+00, 0.00000000e+00, 0.00000000e+00, 0.00000000e+00, 0.00000000e+00, 0.00000000e+00, 0.00000000e+00, 0.00000000e+00, -1.29067399e+00, 1.15412299e+00, -7.23935949e-01, 4.13135645e+00, 0.00000000e+00, 5.0000000000, 5.0000000000, 0.0364393000
          29, 0.00000000e+00, 0.00000000e+00, 0.00000000e+00, 0.00000000e+00, 0.00000000e+00, 0.00000000e+00, 0.00000000e+00, 0.00000000e+00, 0.00000000e+00, 0.00000000e+00, 0.00000000e+00, 0.00000000e+00, -1.29441511e+00, 1.15045774e+00, -7.29846219e-01, 4.12756735e+00, 0.00000000e+00, 5.0000000000, 5.0000000000, 0.0376721833
          30, 0.00000000e+00, 0.00000000e+00, 0.00000000e+00, 0.00000000e+00, 0.00000000e+00, 0.00000000e+00, 0.00000000e+00, 0.00000000e+00, 0.00000000e+00, 0.00000000e+00, 0.00000000e+00, 0.00000000e+00, -1.29805152e+00, 1.14690901e+00, -7.35979162e-01, 4.12388317e+00, 0.00000000e+00, 5.0000000000, 5.0000000000, 0.0388018500
          31, 0.00000000e+00, 0.00000000e+00, 0.00000000e+00, 0.00000000e+00, 0.00000000e+00, 0.00000000e+00, 0.00000000e+00, 0.00000000e+00, 0.00000000e+00, 0.00000000e+00, 0.00000000e+00, 0.00000000e+00, -1.30155078e+00, 1.14349001e+00, -7.42201713e-01, 4.12033345e+00, 0.00000000e+00, 5.0000000000, 5.0000000000, 0.0399144167
          32, 0.00000000e+00, 0.00000000e+00, 0.00000000e+00, 0.00000000e+00, 0.00000000e+00, 0.00000000e+00, 0.00000000e+00, 0.00000000e+00, 0.00000000e+00, 0.00000000e+00, 0.00000000e+00, 0.00000000e+00, -1.30486118e+00, 1.14023322e+00, -7.48248329e-01, 4.11696448e+00, 0.00000000e+00, 5.0000000000, 5.0000000000, 0.0410973167
          33, 0.00000000e+00, 0.00000000e+00, 0.00000000e+00, 0.00000000e+00, 0.00000000e+00, 0.00000000e+00, 0.00000000e+00, 0.00000000e+00, 0.00000000e+00, 0.00000000e+00, 0.00000000e+00, 0.00000000e+00, -1.30790418e+00, 1.13719989e+00, -7.53690928e-01, 4.11384613e+00, 0.00000000e+00, 5.0000000000, 5.0000000000, 0.0422614500
          34, 0.00000000e+00, 0.00000000e+00, 0.00000000e+00, 0.00000000e+00, 0.00000000e+00, 0.00000000e+00, 0.00000000e+00, 0.00000000e+00, 0.00000000e+00, 0.00000000e+00, 0.00000000e+00, 0.00000000e+00, -1.31056560e+00, 1.13449098e+00, -7.57960121e-01, 4.11107992e+00, 0.00000000e+00, 5.0000000000, 5.0000000000, 0.0434469000
          35, 0.00000000e+00, 0.00000000e+00, 0.00000000e+00, 0.00000000e+00, 0.00000000e+00, 0.00000000e+00, 0.00000000e+00, 0.00000000e+00, 0.00000000e+00, 0.00000000e+00, 0.00000000e+00, 0.00000000e+00, -1.31268740e+00, 1.13225902e+00, -7.60396888e-01, 4.10880700e+00, 0.00000000e+00, 5.0000000000, 5.0000000000, 0.0446540333
          36, 0.00000000e+00, 0.00000000e+00, 0.00000000e+00, 0.00000000e+00, 0.00000000e+00, 0.00000000e+00, 0.00000000e+00, 0.00000000e+00, 0.00000000e+00, 0.00000000e+00, 0.00000000e+00, 0.00000000e+00, -1.31406396e+00, 1.13071814e+00, -7.60356601e-01, 4.10721277e+00, 0.00000000e+00, 5.0000000000, 5.0000000000, 0.0457511833
          37, 0.00000000e+00, 0.00000000e+00, 0.00000000e+00, 0.00000000e+00, 0.00000000e+00, 0.00000000e+00, 0.00000000e+00, 0.00000000e+00, 0.00000000e+00, 0.00000000e+00, 0.00000000e+00, 0.00000000e+00, -1.31444871e+00, 1.13014753e+00, -7.57333313e-01, 4.10652247e+00, 0.00000000e+00, 5.0000000000, 5.0000000000, 0.0468745500
          38, 0.00000000e+00, 0.00000000e+00, 0.00000000e+00, 0.00000000e+00, 0.00000000e+00, 0.00000000e+00, 0.00000000e+00, 0.00000000e+00, 0.00000000e+00, 0.00000000e+00, 0.00000000e+00, 0.00000000e+00, -1.31357772e+00, 1.13088132e+00, -7.51084643e-01, 4.10698244e+00, 0.00000000e+00, 5.0000000000, 5.0000000000, 0.0480066667
          39, 0.00000000e+00, 0.00000000e+00, 0.00000000e+00, 0.00000000e+00, 0.00000000e+00, 0.00000000e+00, 0.00000000e+00, 0.00000000e+00, 0.00000000e+00, 0.00000000e+00, 0.00000000e+00, 0.00000000e+00, -1.31121528e+00, 1.13327664e+00, -7.41699306e-01, 4.10882091e+00, 0.00000000e+00, 5.0000000000, 5.0000000000, 0.0490688167
          40, 0.00000000e+00, 0.00000000e+00, 0.00000000e+00, 0.00000000e+00, 0.00000000e+00, 0.00000000e+00, 0.00000000e+00, 0.00000000e+00, 0.00000000e+00, 0.00000000e+00, 0.00000000e+00, 0.00000000e+00, -1.30721945e+00, 1.13765552e+00, -7.29589031e-01, 4.11218894e+00, 0.00000000e+00, 5.0000000000, 5.0000000000, 0.0501052333
          41, 0.00000000e+00, 0.00000000e+00, 0.00000000e+00, 0.00000000e+00, 0.00000000e+00, 0.00000000e+00, 0.00000000e+00, 0.00000000e+00, 0.00000000e+00, 0.00000000e+00, 0.00000000e+00, 0.00000000e+00, -1.30161420e+00, 1.14422634e+00, -7.15432130e-01, 4.11709120e+00, 0.00000000e+00, 5.0000000000, 5.0000000000, 0.0511926667
          42, 0.00000000e+00, 0.00000000e+00, 0.00000000e+00, 0.00000000e+00, 0.00000000e+00, 0.00000000e+00, 0.00000000e+00, 0.00000000e+00, 0.00000000e+00, 0.00000000e+00, 0.00000000e+00, 0.00000000e+00, -1.29464342e+00, 1.15300571e+00, -7.00091822e-01, 4.12332803e+00, 0.00000000e+00, 5.0000000000, 5.0000000000, 0.0522581333
          43, 0.00000000e+00, 0.00000000e+00, 0.00000000e+00, 0.00000000e+00, 0.00000000e+00, 0.00000000e+00, 0.00000000e+00, 0.00000000e+00, 0.00000000e+00, 0.00000000e+00, 0.00000000e+00, 0.00000000e+00, -1.28678049e+00, 1.16377267e+00, -6.84531835e-01, 4.13047466e+00, 0.00000000e+00, 5.0000000000, 5.0000000000, 0.0533230000
          44, 0.00000000e+00, 0.00000000e+00, 0.00000000e+00, 0.00000000e+00, 0.00000000e+00, 0.00000000e+00, 0.00000000e+00, 0.00000000e+00, 0.00000000e+00, 0.00000000e+00, 0.00000000e+00, 0.00000000e+00, -1.27868001e+00, 1.17608246e+00, -6.69715183e-01, 4.13791472e+00, 0.00000000e+00, 5.0000000000, 5.0000000000, 0.0543425333
          45, 0.00000000e+00, 0.00000000e+00, 0.00000000e+00, 0.00000000e+00, 0.00000000e+00, 0.00000000e+00, 0.00000000e+00, 0.00000000e+00, 0.00000000e+00, 0.00000000e+00, 0.00000000e+00, 0.00000000e+00, -1.27108182e+00, 1.18934383e+00, -6.56488623e-01, 4.14492436e+00, 0.00000000e+00, 5.0000000000, 5.0000000000, 0.0553646500
          46, 0.00000000e+00, 0.00000000e+00, 0.00000000e+00, 0.00000000e+00, 0.00000000e+00, 0.00000000e+00, 0.00000000e+00, 0.00000000e+00, 0.00000000e+00, 0.00000000e+00, 0.00000000e+00, 0.00000000e+00, -1.26469681e+00, 1.20293491e+00, -6.45453655e-01, 4.15078270e+00, 0.00000000e+00, 5.0000000000, 5.0000000000, 0.0564282333
          47, 0.00000000e+00, 0.00000000e+00, 0.00000000e+00, 0.00000000e+00, 0.00000000e+00, 0.00000000e+00, 0.00000000e+00, 0.00000000e+00, 0.00000000e+00, 0.00000000e+00, 0.00000000e+00, 0.00000000e+00, -1.26010781e+00, 1.21631608e+00, -6.36859043e-01, 4.15487605e+00, 0.00000000e+00, 5.0000000000, 5.0000000000, 0.0574757667
          48, 0.00000000e+00, 0.00000000e+00, 0.00000000e+00, 0.00000000e+00, 0.00000000e+00, 0.00000000e+00, 0.00000000e+00, 0.00000000e+00, 0.00000000e+00, 0.00000000e+00, 0.00000000e+00, 0.00000000e+00, -1.25770865e+00, 1.22910387e+00, -6.30542880e-01, 4.15676954e+00, 0.00000000e+00, 5.0000000000, 5.0000000000, 0.0585582000
          49, 0.00000000e+00, 0.00000000e+00, 0.00000000e+00, 0.00000000e+00, 0.00000000e+00, 0.00000000e+00, 0.00000000e+00, 0.00000000e+00, 0.00000000e+00, 0.00000000e+00, 0.00000000e+00, 0.00000000e+00, -1.25768790e+00, 1.24108972e+00, -6.25946498e-01, 4.15623511e+00, 0.00000000e+00, 5.0000000000, 5.0000000000, 0.0596156500
          50, 0.00000000e+00, 0.00000000e+00, 0.00000000e+00, 0.00000000e+00, 0.00000000e+00, 0.00000000e+00, 0.00000000e+00, 0.00000000e+00, 0.00000000e+00, 0.00000000e+00, 0.00000000e+00, 0.00000000e+00, -1.26004764e+00, 1.25221067e+00, -6.22253394e-01, 4.15324213e+00, 0.00000000e+00, 5.0000000000, 5.0000000000, 0.0606835167
          51, 0.00000000e+00, 0.00000000e+00, 0.00000000e+00, 0.00000000e+00, 0.00000000e+00, 0.00000000e+00, 0.00000000e+00, 0.00000000e+00, 0.00000000e+00, 0.00000000e+00, 0.00000000e+00, 0.00000000e+00, -1.26464129e+00, 1.26249283e+00, -6.18602215e-01, 4.14792600e+00, 0.00000000e+00, 5.0000000000, 5.0000000000, 0.0617263833
          52, 0.00000000e+00, 0.00000000e+00, 0.00000000e+00, 0.00000000e+00, 0.00000000e+00, 0.00000000e+00, 0.00000000e+00, 0.00000000e+00, 0.00000000e+00, 0.00000000e+00, 0.00000000e+00, 0.00000000e+00, -1.27121596e+00, 1.27199082e+00, -6.14324118e-01, 4.14054799e+00, 0.00000000e+00, 5.0000000000, 5.0000000000, 0.0627826667
          53, 0.00000000e+00, 0.00000000e+00, 0.00000000e+00, 0.00000000e+00, 0.00000000e+00, 0.00000000e+00, 0.00000000e+00, 0.00000000e+00, 0.00000000e+00, 0.00000000e+00, 0.00000000e+00, 0.00000000e+00, -1.27944628e+00, 1.28074224e+00, -6.09123882e-01, 4.13146139e+00, 0.00000000e+00, 5.0000000000, 5.0000000000, 0.0638349167
          54, 0.00000000e+00, 0.00000000e+00, 0.00000000e+00, 0.00000000e+00, 0.00000000e+00, 0.00000000e+00, 0.00000000e+00, 0.00000000e+00, 0.00000000e+00, 0.00000000e+00, 0.00000000e+00, 0.00000000e+00, -1.28895358e+00, 1.28874416e+00, -6.03066051e-01, 4.12109292e+00, 0.00000000e+00, 5.0000000000, 5.0000000000, 0.0649026833
          55, 0.00000000e+00, 0.00000000e+00, 0.00000000e+00, 0.00000000e+00, 0.00000000e+00, 0.00000000e+00, 0.00000000e+00, 0.00000000e+00, 0.00000000e+00, 0.00000000e+00, 0.00000000e+00, 0.00000000e+00, -1.29931162e+00, 1.29594994e+00, -5.96462504e-01, 4.10993777e+00, 0.00000000e+00, 5.0000000000, 5.0000000000, 0.0659292333
          56, 0.00000000e+00, 0.00000000e+00, 0.00000000e+00, 0.00000000e+00, 0.00000000e+00, 0.00000000e+00, 0.00000000e+00, 0.00000000e+00, 0.00000000e+00, 0.00000000e+00, 0.00000000e+00, 0.00000000e+00, -1.31004489e+00, 1.30227874e+00, -5.89712543e-01, 4.09856164e+00, 0.00000000e+00, 5.0000000000, 5.0000000000, 0.0669280000
          57, 0.00000000e+00, 0.00000000e+00, 0.00000000e+00, 0.00000000e+00, 0.00000000e+00, 0.00000000e+00, 0.00000000e+00, 0.00000000e+00, 0.00000000e+00, 0.00000000e+00, 0.00000000e+00, 0.00000000e+00, -1.32062617e+00, 1.30762868e+00, -5.83149985e-01, 4.08760084e+00, 0.00000000e+00, 5.0000000000, 5.0000000000, 0.0680103000
          58, 0.00000000e+00, 0.00000000e+00, 0.00000000e+00, 0.00000000e+00, 0.00000000e+00, 0.00000000e+00, 0.00000000e+00, 0.00000000e+00, 0.00000000e+00, 0.00000000e+00, 0.00000000e+00, 0.00000000e+00, -1.33047951e+00, 1.31188856e+00, -5.77005480e-01, 4.07775232e+00, 0.00000000e+00, 5.0000000000, 5.0000000000, 0.0690665500
          59, 0.00000000e+00, 0.00000000e+00, 0.00000000e+00, 0.00000000e+00, 0.00000000e+00, 0.00000000e+00, 0.00000000e+00, 0.00000000e+00, 0.00000000e+00, 0.00000000e+00, 0.00000000e+00, 0.00000000e+00, -1.33899478e+00, 1.31494568e+00, -5.71419588e-01, 4.06974540e+00, 0.00000000e+00, 5.0000000000, 5.0000000000, 0.0701039333
          60, 0.00000000e+00, 0.00000000e+00, 0.00000000e+00, 0.00000000e+00, 0.00000000e+00, 0.00000000e+00, 0.00000000e+00, 0.00000000e+00, 0.00000000e+00, 0.00000000e+00, 0.00000000e+00, 0.00000000e+00, -1.34556061e+00, 1.31668896e+00, -5.66478906e-01, 4.06428776e+00, 0.00000000e+00, 5.0000000000, 5.0000000000, 0.0711502667
          61, 0.00000000e+00, 0.00000000e+00, 0.00000000e+00, 0.00000000e+00, 0.00000000e+00, 0.00000000e+00, 0.00000000e+00, 0.00000000e+00, 0.00000000e+00, 0.00000000e+00, 0.00000000e+00, 0.00000000e+00, -1.34961619e+00, 1.31700900e+00, -5.62284854e-01, 4.06198871e+00, 0.00000000e+00, 5.0000000000, 5.0000000000, 0.0721827500
          62, 0.00000000e+00, 0.00000000e+00, 0.00000000e+00, 0.00000000e+00, 0.00000000e+00, 0.00000000e+00, 0.00000000e+00, 0.00000000e+00, 0.00000000e+00, 0.00000000e+00, 0.00000000e+00, 0.00000000e+00, -1.35071572e+00, 1.31579641e+00, -5.58986074e-01, 4.06327383e+00, 0.00000000e+00, 5.0000000000, 5.0000000000, 0.0732303833
          63, 0.00000000e+00, 0.00000000e+00, 0.00000000e+00, 0.00000000e+00, 0.00000000e+00, 0.00000000e+00, 0.00000000e+00, 0.00000000e+00, 0.00000000e+00, 0.00000000e+00, 0.00000000e+00, 0.00000000e+00, -1.34859333e+00, 1.31293930e+00, -5.56787735e-01, 4.06831315e+00, 0.00000000e+00, 5.0000000000, 5.0000000000, 0.0742998167
          64, 0.00000000e+00, 0.00000000e+00, 0.00000000e+00, 0.00000000e+00, 0.00000000e+00, 0.00000000e+00, 0.00000000e+00, 0.00000000e+00, 0.00000000e+00, 0.00000000e+00, 0.00000000e+00, 0.00000000e+00, -1.34320923e+00, 1.30832161e+00, -5.55952898e-01, 4.07698866e+00, 0.00000000e+00, 5.0000000000, 5.0000000000, 0.0753628000
          65, 0.00000000e+00, 0.00000000e+00, 0.00000000e+00, 0.00000000e+00, 0.00000000e+00, 0.00000000e+00, 0.00000000e+00, 0.00000000e+00, 0.00000000e+00, 0.00000000e+00, 0.00000000e+00, 0.00000000e+00, -1.33476096e+00, 1.30182271e+00, -5.56781986e-01, 4.08891386e+00, 0.00000000e+00, 5.0000000000, 5.0000000000, 0.0764077667
          66, 0.00000000e+00, 0.00000000e+00, 0.00000000e+00, 0.00000000e+00, 0.00000000e+00, 0.00000000e+00, 0.00000000e+00, 0.00000000e+00, 0.00000000e+00, 0.00000000e+00, 0.00000000e+00, 0.00000000e+00, -1.32365602e+00, 1.29331865e+00, -5.59596873e-01, 4.10349814e+00, 0.00000000e+00, 5.0000000000, 5.0000000000, 0.0774777167
          67, 0.00000000e+00, 0.00000000e+00, 0.00000000e+00, 0.00000000e+00, 0.00000000e+00, 0.00000000e+00, 0.00000000e+00, 0.00000000e+00, 0.00000000e+00, 0.00000000e+00, 0.00000000e+00, 0.00000000e+00, -1.31045312e+00, 1.28268594e+00, -5.64722445e-01, 4.12003513e+00, 0.00000000e+00, 5.0000000000, 5.0000000000, 0.0785506667
          68, 0.00000000e+00, 0.00000000e+00, 0.00000000e+00, 0.00000000e+00, 0.00000000e+00, 0.00000000e+00, 0.00000000e+00, 0.00000000e+00, 0.00000000e+00, 0.00000000e+00, 0.00000000e+00, 0.00000000e+00, -1.29578922e+00, 1.26980766e+00, -5.72469487e-01, 4.13778991e+00, 0.00000000e+00, 5.0000000000, 5.0000000000, 0.0796408833
          69, 0.00000000e+00, 0.00000000e+00, 0.00000000e+00, 0.00000000e+00, 0.00000000e+00, 0.00000000e+00, 0.00000000e+00, 0.00000000e+00, 0.00000000e+00, 0.00000000e+00, 0.00000000e+00, 0.00000000e+00, -1.28031107e+00, 1.25458210e+00, -5.83120187e-01, 4.15606685e+00, 0.00000000e+00, 5.0000000000, 5.0000000000, 0.0806725833
          70, 0.00000000e+00, 0.00000000e+00, 0.00000000e+00, 0.00000000e+00, 0.00000000e+00, 0.00000000e+00, 0.00000000e+00, 0.00000000e+00, 0.00000000e+00, 0.00000000e+00, 0.00000000e+00, 0.00000000e+00, -1.26462143e+00, 1.23693495e+00, -5.96896884e-01, 4.17425344e+00, 0.00000000e+00, 5.0000000000, 5.0000000000, 0.0817179833
          71, 0.00000000e+00, 0.00000000e+00, 0.00000000e+00, 0.00000000e+00, 0.00000000e+00, 0.00000000e+00, 0.00000000e+00, 0.00000000e+00, 0.00000000e+00, 0.00000000e+00, 0.00000000e+00, 0.00000000e+00, -1.24924445e+00, 1.21683460e+00, -6.13937327e-01, 4.19184148e+00, 0.00000000e+00, 5.0000000000, 5.0000000000, 0.0827819500
          72, 0.00000000e+00, 0.00000000e+00, 0.00000000e+00, 0.00000000e+00, 0.00000000e+00, 0.00000000e+00, 0.00000000e+00, 0.00000000e+00, 0.00000000e+00, 0.00000000e+00, 0.00000000e+00, 0.00000000e+00, -1.23460885e+00, 1.19431183e+00, -6.34223313e-01, 4.20843177e+00, 0.00000000e+00, 5.0000000000, 5.0000000000, 0.0838096333
          73, 0.00000000e+00, 0.00000000e+00, 0.00000000e+00, 0.00000000e+00, 0.00000000e+00, 0.00000000e+00, 0.00000000e+00, 0.00000000e+00, 0.00000000e+00, 0.00000000e+00, 0.00000000e+00, 0.00000000e+00, -1.22104334e+00, 1.16948485e+00, -6.57496320e-01, 4.22372957e+00, 0.00000000e+00, 5.0000000000, 5.0000000000, 0.0848599167
          74, 0.00000000e+00, 0.00000000e+00, 0.00000000e+00, 0.00000000e+00, 0.00000000e+00, 0.00000000e+00, 0.00000000e+00, 0.00000000e+00, 0.00000000e+00, 0.00000000e+00, 0.00000000e+00, 0.00000000e+00, -1.20878054e+00, 1.14258947e+00, -6.83115597e-01, 4.23753486e+00, 0.00000000e+00, 5.0000000000, 5.0000000000, 0.0858970167
          75, 0.00000000e+00, 0.00000000e+00, 0.00000000e+00, 0.00000000e+00, 0.00000000e+00, 0.00000000e+00, 0.00000000e+00, 0.00000000e+00, 0.00000000e+00, 0.00000000e+00, 0.00000000e+00, 0.00000000e+00, -1.19796569e+00, 1.11401458e+00, -7.09883133e-01, 4.24973056e+00, 0.00000000e+00, 5.0000000000, 5.0000000000, 0.0869084667
          76, 0.00000000e+00, 0.00000000e+00, 0.00000000e+00, 0.00000000e+00, 0.00000000e+00, 0.00000000e+00, 0.00000000e+00, 0.00000000e+00, 0.00000000e+00, 0.00000000e+00, 0.00000000e+00, 0.00000000e+00, -1.18866734e+00, 1.08433919e+00, -7.35867812e-01, 4.26027067e+00, 0.00000000e+00, 5.0000000000, 5.0000000000, 0.0879652000
          77, 0.00000000e+00, 0.00000000e+00, 0.00000000e+00, 0.00000000e+00, 0.00000000e+00, 0.00000000e+00, 0.00000000e+00, 0.00000000e+00, 0.00000000e+00, 0.00000000e+00, 0.00000000e+00, 0.00000000e+00, -1.18088894e+00, 1.05436113e+00, -7.58383659e-01, 4.26916867e+00, 0.00000000e+00, 5.0000000000, 5.0000000000, 0.0889763667
          78, 0.00000000e+00, 0.00000000e+00, 0.00000000e+00, 0.00000000e+00, 0.00000000e+00, 0.00000000e+00, 0.00000000e+00, 0.00000000e+00, 0.00000000e+00, 0.00000000e+00, 0.00000000e+00, 0.00000000e+00, -1.17458075e+00, 1.02510047e+00, -7.74330637e-01, 4.27648629e+00, 0.00000000e+00, 5.0000000000, 5.0000000000, 0.0900087833
          79, 0.00000000e+00, 0.00000000e+00, 0.00000000e+00, 0.00000000e+00, 0.00000000e+00, 0.00000000e+00, 0.00000000e+00, 0.00000000e+00, 0.00000000e+00, 0.00000000e+00, 0.00000000e+00, 0.00000000e+00, -1.16965145e+00, 9.97752713e-01, -7.81074635e-01, 4.28232291e+00, 0.00000000e+00, 5.0000000000, 5.0000000000, 0.0910562000
          80, 0.00000000e+00, 0.00000000e+00, 0.00000000e+00, 0.00000000e+00, 0.00000000e+00, 0.00000000e+00, 0.00000000e+00, 0.00000000e+00, 0.00000000e+00, 0.00000000e+00, 0.00000000e+00, 0.00000000e+00, -1.16597939e+00, 9.73565872e-01, -7.77549885e-01, 4.28680530e+00, 0.00000000e+00, 5.0000000000, 5.0000000000, 0.0920883333
          81, 0.00000000e+00, 0.00000000e+00, 0.00000000e+00, 0.00000000e+00, 0.00000000e+00, 0.00000000e+00, 0.00000000e+00, 0.00000000e+00, 0.00000000e+00, 0.00000000e+00, 0.00000000e+00, 0.00000000e+00, -1.16342380e+00, 9.53641975e-01, -7.64791037e-01, 4.29007752e+00, 0.00000000e+00, 5.0000000000, 5.0000000000, 0.0931042000
          82, 0.00000000e+00, 0.00000000e+00, 0.00000000e+00, 0.00000000e+00, 0.00000000e+00, 0.00000000e+00, 0.00000000e+00, 0.00000000e+00, 0.00000000e+00, 0.00000000e+00, 0.00000000e+00, 0.00000000e+00, -1.16183535e+00, 9.38710785e-01, -7.45420805e-01, 4.29229126e+00, 0.00000000e+00, 5.0000000000, 5.0000000000, 0.0941531500
          83, 0.00000000e+00, 0.00000000e+00, 0.00000000e+00, 0.00000000e+00, 0.00000000e+00, 0.00000000e+00, 0.00000000e+00, 0.00000000e+00, 0.00000000e+00, 0.00000000e+00, 0.00000000e+00, 0.00000000e+00, -1.16106611e+00, 9.28963594e-01, -7.22559360e-01, 4.29359666e+00, 0.00000000e+00, 5.0000000000, 5.0000000000, 0.0952021500
          84, 0.00000000e+00, 0.00000000e+00, 0.00000000e+00, 0.00000000e+00, 0.00000000e+00, 0.00000000e+00, 0.00000000e+00, 0.00000000e+00, 0.00000000e+00, 0.00000000e+00, 0.00000000e+00, 0.00000000e+00, -1.16097893e+00, 9.24032840e-01, -6.98938557e-01, 4.29413349e+00, 0.00000000e+00, 5.0000000000, 5.0000000000, 0.0962256667
          85, 0.00000000e+00, 0.00000000e+00, 0.00000000e+00, 0.00000000e+00, 0.00000000e+00, 0.00000000e+00, 0.00000000e+00, 0.00000000e+00, 0.00000000e+00, 0.00000000e+00, 0.00000000e+00, 0.00000000e+00, -1.16145536e+00, 9.23130454e-01, -6.76540635e-01, 4.29402363e+00, 0.00000000e+00, 5.0000000000, 5.0000000000, 0.0973192500
          86, 0.00000000e+00, 0.00000000e+00, 0.00000000e+00, 0.00000000e+00, 0.00000000e+00, 0.00000000e+00, 0.00000000e+00, 0.00000000e+00, 0.00000000e+00, 0.00000000e+00, 0.00000000e+00, 0.00000000e+00, -1.16240229e+00, 9.25273070e-01, -6.56626788e-01, 4.29336455e+00, 0.00000000e+00, 5.0000000000, 5.0000000000, 0.0984223500
          87, 0.00000000e+00, 0.00000000e+00, 0.00000000e+00, 0.00000000e+00, 0.00000000e+00, 0.00000000e+00, 0.00000000e+00, 0.00000000e+00, 0.00000000e+00, 0.00000000e+00, 0.00000000e+00, 0.00000000e+00, -1.16375667e+00, 9.29501467e-01, -6.39901130e-01, 4.29222445e+00, 0.00000000e+00, 5.0000000000, 5.0000000000, 0.0994873167
          88, 0.00000000e+00, 0.00000000e+00, 0.00000000e+00, 0.00000000e+00, 0.00000000e+00, 0.00000000e+00, 0.00000000e+00, 0.00000000e+00, 0.00000000e+00, 0.00000000e+00, 0.00000000e+00, 0.00000000e+00, -1.16548803e+00, 9.35032402e-01, -6.26687921e-01, 4.29063949e+00, 0.00000000e+00, 5.0000000000, 5.0000000000, 0.1005284333
          89, 0.00000000e+00, 0.00000000e+00, 0.00000000e+00, 0.00000000e+00, 0.00000000e+00, 0.00000000e+00, 0.00000000e+00, 0.00000000e+00, 0.00000000e+00, 0.00000000e+00, 0.00000000e+00, 0.00000000e+00, -1.16759915e+00, 9.41329573e-01, -6.17063064e-01, 4.28861261e+00, 0.00000000e+00, 5.0000000000, 5.0000000000, 0.1015674167