/*--------------------------------*- C++ -*----------------------------------*\
  =========                 |
  \\      /  F ield         | OpenFOAM: The Open Source CFD Toolbox
   \\    /   O peration     | Website:  https://openfoam.org
    \\  /    A nd           | Version:  6
     \\/     M anipulation  |
\*---------------------------------------------------------------------------*/
FoamFile
{
    version     2.0;
    format      ascii;
    class       volVectorField;
    location    "180";
    object      U;
}
// * * * * * * * * * * * * * * * * * * * * * * * * * * * * * * * * * * * * * //

dimensions      [0 1 -1 0 0 0 0];

internalField   nonuniform List<vector> 
4000
(
(400 3.67854e-14 0)
(400 5.76263e-14 0)
(400 6.45981e-14 0)
(400 7.15867e-14 0)
(400 7.71661e-14 0)
(400 7.52209e-14 0)
(400 6.42848e-14 0)
(400 6.75305e-14 0)
(400 5.19254e-14 0)
(400 4.11844e-14 0)
(400 3.85623e-14 0)
(400 4.1618e-14 0)
(400 3.03484e-14 0)
(400 3.28618e-14 0)
(400 5.0685e-14 0)
(400 6.04074e-14 0)
(400 4.992e-14 0)
(400 3.72671e-14 0)
(400 3.35648e-14 0)
(400 3.54337e-14 0)
(400 5.43957e-14 0)
(400 4.06305e-14 0)
(400 3.58091e-14 0)
(400 4.01648e-14 0)
(400 4.18365e-14 0)
(400 3.15482e-14 0)
(400 1.97329e-14 0)
(400 1.6281e-14 0)
(400 1.075e-14 0)
(400 -3.62777e-15 0)
(400 -6.52907e-15 0)
(400 2.78738e-15 0)
(400 3.40656e-14 0)
(400 4.55588e-14 0)
(400 5.31042e-14 0)
(400 6.70041e-14 0)
(400 8.00885e-14 0)
(400 7.76574e-14 0)
(400 5.9882e-14 0)
(400 5.55016e-14 0)
(400 6.84115e-14 0)
(400 6.31227e-14 0)
(400 6.129e-14 0)
(400 6.65999e-14 0)
(400 6.81927e-14 0)
(400 7.26281e-14 0)
(400 7.78039e-14 0)
(400 6.84131e-14 0)
(400 6.40596e-14 0)
(400 5.59428e-14 0)
(400 3.33729e-14 0)
(400 3.56002e-14 0)
(400 3.47776e-14 0)
(400 2.00344e-14 0)
(400 1.44235e-14 0)
(400 2.52386e-14 0)
(400 1.63057e-14 0)
(400 -3.93045e-15 0)
(400 -2.09213e-14 0)
(400 -3.02848e-14 0)
(400 -3.83506e-14 0)
(400 -4.97139e-14 0)
(400 -4.85544e-14 0)
(400 -4.42376e-14 0)
(400 -6.06767e-14 0)
(400 -7.2009e-14 0)
(400 -8.42601e-14 0)
(400 -7.48169e-14 0)
(400 -6.30246e-14 0)
(400 -5.63086e-14 0)
(400 -3.91326e-14 0)
(400 -1.357e-14 0)
(400 -1.5411e-15 0)
(400 6.78566e-15 0)
(400 4.09323e-15 0)
(400 -1.08579e-14 0)
(400 -2.17535e-14 0)
(400 -1.93713e-14 0)
(400 -1.71276e-14 0)
(400 -2.65072e-14 0)
(400 -1.38665e-14 0)
(400 -7.6307e-15 0)
(400 -7.00504e-15 0)
(400 -2.23795e-14 0)
(400 -5.59311e-14 0)
(400 -6.08427e-14 0)
(400 -4.96604e-14 0)
(400 -6.48413e-14 0)
(400 -8.56934e-14 0)
(400 -7.39751e-14 0)
(400 -4.75549e-14 0)
(400 -2.18377e-14 0)
(400 -2.92281e-14 0)
(400 -3.99633e-14 0)
(400 -3.52182e-14 0)
(400 -6.19463e-15 0)
(400 9.34061e-15 0)
(400 2.29203e-14 0)
(400 1.43411e-14 0)
(400 -7.63975e-15 0)
(400 -2.28895e-14 0)
(400 -3.5997e-14 0)
(400 -3.0274e-14 0)
(400 -1.27642e-14 0)
(400 -1.1459e-15 0)
(400 3.38669e-15 0)
(400 9.82914e-15 0)
(400 -2.84679e-15 0)
(400 -1.53833e-14 0)
(400 -4.5977e-14 0)
(400 -4.80389e-14 0)
(400 -2.41243e-14 0)
(400 -4.27359e-14 0)
(400 -5.24611e-14 0)
(400 -3.23116e-14 0)
(400 -1.55924e-14 0)
(400 8.03465e-17 0)
(400 8.3808e-15 0)
(400 -3.73199e-16 0)
(400 -1.52095e-16 0)
(400 -2.58167e-15 0)
(400 -1.56198e-16 0)
(400 -1.19698e-14 0)
(400 -2.1343e-14 0)
(400 -1.78748e-14 0)
(400 4.54764e-15 0)
(400 2.35077e-14 0)
(400 1.73946e-14 0)
(400 -6.05523e-15 0)
(400 7.24249e-16 0)
(400 2.72348e-15 0)
(400 9.98877e-15 0)
(400 -2.94099e-15 0)
(400 7.55713e-16 0)
(400 8.49735e-15 0)
(400 1.61702e-14 0)
(400 1.4956e-14 0)
(400 2.66258e-14 0)
(400 2.10937e-14 0)
(400 3.14162e-14 0)
(400 2.96262e-14 0)
(400 2.13701e-14 0)
(400 1.99101e-14 0)
(400 2.94646e-15 0)
(400 -7.29864e-15 0)
(400 2.07009e-15 0)
(400 1.02448e-14 0)
(400 1.61347e-14 0)
(400 4.13482e-14 0)
(400 3.59515e-14 0)
(400 3.90153e-14 0)
(400 4.28103e-14 0)
(400 4.82233e-14 0)
(400 5.21261e-14 0)
(400 4.7972e-14 0)
(400 4.19995e-14 0)
(400 3.53986e-14 0)
(400 1.99896e-14 0)
(400 1.17492e-14 0)
(400 5.20178e-15 0)
(400 -2.72635e-16 0)
(400 -1.69728e-14 0)
(400 -4.81657e-14 0)
(400 -6.63569e-14 0)
(400 -6.67839e-14 0)
(400 -6.32098e-14 0)
(400 -6.20131e-14 0)
(400 -5.41079e-14 0)
(400 -4.83889e-14 0)
(400 -4.86511e-14 0)
(400 -4.10576e-14 0)
(400 -1.9545e-14 0)
(400 -1.40313e-16 0)
(400 3.98837e-15 0)
(400 -5.39989e-15 0)
(400 9.46542e-15 0)
(400 3.4311e-14 0)
(400 4.92669e-14 0)
(400 4.28369e-14 0)
(400 3.21367e-14 0)
(400 2.49149e-14 0)
(400 1.63039e-14 0)
(400 2.53527e-15 0)
(400 4.35032e-16 0)
(400 2.15595e-16 0)
(400 4.05399e-15 0)
(400 1.2212e-14 0)
(400 1.6771e-14 0)
(400 1.85436e-14 0)
(400 1.76741e-14 0)
(400 3.33611e-14 0)
(400 3.76695e-14 0)
(400 2.15503e-14 0)
(400 1.37652e-14 0)
(400 1.02572e-14 0)
(400 2.36129e-14 0)
(400 3.43127e-14 0)
(400 4.67663e-14 0)
(400 5.08682e-14 0)
(400 4.96676e-14 0)
(400 -3.71308e-15 0)
(400 4.99588e-15 0)
(400 2.79268e-14 0)
(400 6.3576e-14 0)
(400 6.74771e-14 0)
(400 7.39658e-14 0)
(400 6.99576e-14 0)
(400 4.44567e-14 0)
(400 3.01917e-14 0)
(400 2.13763e-14 0)
(400 1.60538e-14 0)
(400 1.8326e-14 0)
(400 2.7396e-14 0)
(400 2.34033e-14 0)
(400 3.36673e-14 0)
(400 3.99485e-14 0)
(400 3.74751e-14 0)
(400 4.25839e-14 0)
(400 5.45036e-14 0)
(400 7.58075e-14 0)
(400 7.68491e-14 0)
(400 6.57558e-14 0)
(400 4.4382e-14 0)
(400 4.80877e-14 0)
(400 4.06126e-14 0)
(400 1.7516e-14 0)
(400 1.83948e-14 0)
(400 1.27847e-14 0)
(400 -3.96168e-16 0)
(400 -1.07996e-14 0)
(400 1.74071e-14 0)
(400 4.49063e-14 0)
(400 6.34687e-14 0)
(400 6.23086e-14 0)
(400 5.55663e-14 0)
(400 5.26675e-14 0)
(400 5.43464e-14 0)
(400 4.4357e-14 0)
(400 3.07871e-14 0)
(400 3.08028e-14 0)
(400 4.01998e-14 0)
(400 4.56776e-14 0)
(400 4.02921e-14 0)
(400 4.60174e-14 0)
(400 5.13915e-14 0)
(400 5.56201e-14 0)
(400 5.24791e-14 0)
(400 2.76299e-14 0)
(400 1.83268e-15 0)
(400 -2.23351e-14 0)
(400 -2.52352e-14 0)
(400 -1.59756e-14 0)
(400 -7.24833e-15 0)
(400 -1.02538e-15 0)
(400 -1.15336e-14 0)
(400 -6.48146e-15 0)
(400 -1.59993e-14 0)
(400 -2.24321e-14 0)
(400 -2.90385e-14 0)
(400 -3.48332e-14 0)
(400 -3.49294e-14 0)
(400 -5.00747e-14 0)
(400 -4.95573e-14 0)
(400 -4.28521e-14 0)
(400 -4.61673e-14 0)
(400 -5.24376e-14 0)
(400 -5.30903e-14 0)
(400 -5.06285e-14 0)
(400 -3.97882e-14 0)
(400 -2.25468e-14 0)
(400 -4.73267e-15 0)
(400 1.04652e-14 0)
(400 9.84879e-15 0)
(400 5.77045e-15 0)
(400 1.23576e-14 0)
(400 7.63012e-15 0)
(400 3.0395e-15 0)
(400 1.31586e-14 0)
(400 2.66594e-14 0)
(400 3.48294e-14 0)
(400 3.61223e-14 0)
(400 4.18163e-14 0)
(400 2.94554e-14 0)
(400 1.88251e-14 0)
(400 7.24887e-15 0)
(400 6.99451e-15 0)
(400 1.73537e-14 0)
(400 2.5215e-14 0)
(400 2.74479e-14 0)
(400 3.11846e-14 0)
(400 2.09714e-14 0)
(400 2.7353e-14 0)
(400 2.4162e-14 0)
(400 4.41257e-14 0)
(400 6.40604e-14 0)
(400 8.32827e-14 0)
(400 8.81934e-14 0)
(400 8.38635e-14 0)
(400 9.28643e-14 0)
(400 6.77937e-14 0)
(400 5.55672e-14 0)
(400 5.53796e-14 0)
(400 6.16485e-14 0)
(400 7.44215e-14 0)
(400 6.94575e-14 0)
(400 6.32169e-14 0)
(400 5.07073e-14 0)
(400 3.59346e-14 0)
(400 1.43164e-14 0)
(400 -1.23382e-14 0)
(400 -2.5848e-14 0)
(400 -2.47183e-14 0)
(400 -4.1643e-14 0)
(400 -3.56156e-14 0)
(400 -3.29688e-14 0)
(400 -3.45591e-14 0)
(400 -2.04356e-14 0)
(400 -2.60388e-14 0)
(400 -2.71901e-14 0)
(400 -3.55923e-14 0)
(400 -5.38147e-14 0)
(400 -6.2301e-14 0)
(400 -9.34943e-14 0)
(400 -1.13751e-13 0)
(400 -1.11914e-13 0)
(400 -9.97431e-14 0)
(400 -7.84157e-14 0)
(400 -7.03876e-14 0)
(400 -5.86396e-14 0)
(400 -5.20646e-14 0)
(400 -6.2177e-14 0)
(400 -5.8299e-14 0)
(400 -6.7083e-14 0)
(400 -5.57254e-14 0)
(400 -4.0351e-14 0)
(400 -2.34999e-14 0)
(400 -1.91115e-14 0)
(400 -7.59146e-15 0)
(400 1.20761e-15 0)
(400 1.08976e-14 0)
(400 2.6071e-14 0)
(400 2.33784e-14 0)
(400 2.18407e-14 0)
(400 2.14879e-14 0)
(400 2.14071e-14 0)
(400 1.10301e-14 0)
(400 -3.20554e-16 0)
(400 7.88935e-15 0)
(400 3.46771e-14 0)
(400 4.57161e-14 0)
(400 4.21704e-14 0)
(400 6.25304e-14 0)
(400 9.42006e-14 0)
(400 1.12792e-13 0)
(400 1.15361e-13 0)
(400 1.02559e-13 0)
(400 7.27512e-14 0)
(400 5.74612e-14 0)
(400 5.87364e-14 0)
(400 4.97115e-14 0)
(400 3.90021e-14 0)
(400 3.59367e-14 0)
(400 2.40553e-14 0)
(400 -1.19356e-14 0)
(400 -3.05131e-14 0)
(400 -1.90631e-14 0)
(400 -2.09464e-15 0)
(400 1.26538e-14 0)
(400 1.33999e-14 0)
(400 3.01193e-15 0)
(400 8.43067e-16 0)
(400 1.10476e-14 0)
(400 7.8896e-15 0)
(400 1.43407e-14 0)
(400 1.56644e-14 0)
(400 1.56549e-14 0)
(400 1.36519e-14 0)
(400 7.81306e-15 0)
(400 -1.13079e-14 0)
(400 -3.10223e-14 0)
(400 -2.57884e-14 0)
(400 -2.75746e-14 0)
(400 -4.56954e-14 0)
(400 -4.07274e-14 0)
(400 -3.03796e-14 0)
(400 -1.14411e-14 0)
(400 5.40627e-15 0)
(400 2.26618e-14 0)
(400 4.53141e-14 0)
(400 4.56217e-14 0)
(400 5.41325e-14 0)
(400 6.34961e-14 0)
(400 7.34753e-14 0)
(400 7.39392e-14 0)
(400 6.31945e-14 0)
(400 6.55112e-14 0)
(400 6.06713e-14 0)
(400 6.90177e-14 0)
(400 8.03267e-14 0)
(400 8.03837e-14 0)
(400 -2.40493e-14 0)
(400 -2.32542e-14 0)
(400 8.33272e-15 0)
(400 3.88729e-14 0)
(400 4.79837e-14 0)
(400 5.75946e-14 0)
(400 5.83818e-14 0)
(400 4.10108e-14 0)
(400 4.21879e-14 0)
(400 3.926e-14 0)
(400 3.08895e-14 0)
(400 3.12321e-14 0)
(400 3.72739e-14 0)
(400 2.79e-14 0)
(400 2.55782e-14 0)
(400 2.97821e-14 0)
(400 3.13767e-14 0)
(400 4.501e-14 0)
(400 4.92176e-14 0)
(400 3.12105e-14 0)
(400 1.90138e-14 0)
(400 6.73575e-15 0)
(400 -1.03645e-14 0)
(400 2.87899e-15 0)
(400 -3.49595e-15 0)
(400 -6.67022e-15 0)
(400 -1.40063e-14 0)
(400 -7.5117e-15 0)
(400 4.08688e-15 0)
(400 1.0049e-14 0)
(400 1.96565e-14 0)
(400 2.89297e-14 0)
(400 3.13278e-14 0)
(400 5.44559e-14 0)
(400 5.10525e-14 0)
(400 3.46925e-14 0)
(400 1.94421e-14 0)
(400 3.60592e-15 0)
(400 4.19051e-15 0)
(400 5.2363e-15 0)
(400 2.10504e-15 0)
(400 6.08764e-15 0)
(400 1.47979e-14 0)
(400 3.113e-14 0)
(400 2.64165e-14 0)
(400 2.43587e-14 0)
(400 1.48662e-14 0)
(400 -8.36378e-15 0)
(400 -2.21528e-14 0)
(400 -4.73624e-14 0)
(400 -4.1197e-14 0)
(400 -2.1947e-14 0)
(400 -7.03968e-15 0)
(400 -4.84958e-15 0)
(400 -4.52424e-15 0)
(400 2.18378e-15 0)
(400 2.65721e-15 0)
(400 6.79549e-15 0)
(400 1.18572e-14 0)
(400 3.57646e-15 0)
(400 -2.86235e-15 0)
(400 -2.62139e-14 0)
(400 -3.43196e-14 0)
(400 -2.85137e-14 0)
(400 -3.47681e-14 0)
(400 -4.24782e-14 0)
(400 -3.6014e-14 0)
(400 -2.63672e-14 0)
(400 -2.0168e-14 0)
(400 -3.15809e-15 0)
(400 7.90609e-15 0)
(400 1.32275e-14 0)
(400 1.09438e-14 0)
(400 6.41569e-15 0)
(400 1.11551e-14 0)
(400 2.83303e-14 0)
(400 3.59859e-14 0)
(400 2.73675e-14 0)
(400 3.429e-14 0)
(400 3.88371e-14 0)
(400 2.12034e-14 0)
(400 2.01823e-14 0)
(400 3.62415e-15 0)
(400 -1.22277e-14 0)
(400 -1.57646e-14 0)
(400 -3.16034e-14 0)
(400 -4.91937e-14 0)
(400 -3.86034e-14 0)
(400 -1.2698e-14 0)
(400 -1.10046e-14 0)
(400 -2.77263e-14 0)
(400 -3.56078e-14 0)
(400 -2.05662e-14 0)
(400 1.45233e-15 0)
(400 1.25654e-14 0)
(400 3.25681e-15 0)
(400 7.96186e-15 0)
(400 4.19902e-15 0)
(400 8.76965e-15 0)
(400 2.62168e-15 0)
(400 -1.10321e-14 0)
(400 6.86348e-15 0)
(400 1.93462e-14 0)
(400 1.41273e-14 0)
(400 4.16377e-15 0)
(400 6.04046e-16 0)
(400 -9.21861e-15 0)
(400 -1.21072e-14 0)
(400 -1.96938e-14 0)
(400 -1.20363e-14 0)
(400 -1.46967e-14 0)
(400 -1.49575e-14 0)
(400 9.94385e-15 0)
(400 1.71281e-14 0)
(400 2.69317e-15 0)
(400 -5.63367e-15 0)
(400 2.95699e-15 0)
(400 1.23339e-14 0)
(400 1.39898e-14 0)
(400 1.84453e-16 0)
(400 -1.59956e-14 0)
(400 -2.40618e-14 0)
(400 -4.86518e-14 0)
(400 -5.55031e-14 0)
(400 -5.60243e-14 0)
(400 -5.8135e-14 0)
(400 -4.46813e-14 0)
(400 -3.46824e-14 0)
(400 -1.71039e-14 0)
(400 -1.69293e-14 0)
(400 -2.03544e-14 0)
(400 -8.7347e-15 0)
(400 -5.16108e-15 0)
(400 3.71555e-15 0)
(400 4.47159e-15 0)
(400 1.1216e-14 0)
(400 1.72046e-14 0)
(400 3.60556e-17 0)
(400 -1.13687e-14 0)
(400 -1.39491e-14 0)
(400 -5.80065e-16 0)
(400 -5.35417e-15 0)
(400 -1.43807e-14 0)
(400 -1.20053e-14 0)
(400 -8.84103e-15 0)
(400 -1.81736e-14 0)
(400 -4.10814e-14 0)
(400 -4.42844e-14 0)
(400 -3.52467e-14 0)
(400 -1.38544e-14 0)
(400 -7.39901e-15 0)
(400 1.22475e-14 0)
(400 2.45608e-14 0)
(400 3.92231e-14 0)
(400 4.92646e-14 0)
(400 5.12294e-14 0)
(400 3.16413e-14 0)
(400 1.84048e-14 0)
(400 1.15067e-14 0)
(400 8.53954e-16 0)
(400 -1.31423e-14 0)
(400 -1.82145e-14 0)
(400 -1.32196e-14 0)
(400 -1.67401e-14 0)
(400 -1.29653e-14 0)
(400 -6.12445e-15 0)
(400 -2.75809e-15 0)
(400 8.26911e-15 0)
(400 -3.47044e-15 0)
(400 -8.79591e-15 0)
(400 -1.42582e-14 0)
(400 -1.73835e-14 0)
(400 -7.5222e-15 0)
(400 1.77219e-15 0)
(400 2.87649e-14 0)
(400 4.59695e-14 0)
(400 3.39308e-14 0)
(400 2.5979e-14 0)
(400 2.9239e-14 0)
(400 2.13113e-14 0)
(400 2.52094e-14 0)
(400 1.28607e-14 0)
(400 -1.70832e-14 0)
(400 -2.81899e-14 0)
(400 -2.1746e-14 0)
(400 -1.15203e-14 0)
(400 -6.42197e-17 0)
(400 4.15199e-15 0)
(400 1.33736e-14 0)
(400 2.7258e-14 0)
(400 1.68491e-14 0)
(400 7.0912e-15 0)
(400 2.71024e-14 0)
(400 3.1834e-14 0)
(400 1.77639e-14 0)
(400 -1.31848e-15 0)
(400 -1.54235e-14 0)
(400 -1.54695e-14 0)
(400 -1.59441e-14 0)
(400 -3.07597e-14 0)
(400 -1.04406e-14 0)
(400 -1.06068e-14 0)
(400 -2.48449e-15 0)
(400 1.08501e-14 0)
(400 1.76324e-14 0)
(400 1.90541e-14 0)
(400 2.69229e-14 0)
(400 3.98075e-14 0)
(400 4.88916e-14 0)
(400 3.04683e-14 0)
(400 2.55088e-14 0)
(400 1.94029e-14 0)
(400 1.05228e-14 0)
(400 8.89828e-15 0)
(400 -4.80804e-15 0)
(400 -8.38934e-15 0)
(400 -8.6107e-15 0)
(400 -6.09854e-15 0)
(400 -8.16417e-15 0)
(400 -7.2268e-15 0)
(400 -1.34151e-14 0)
(400 -1.76803e-14 0)
(400 -1.3511e-14 0)
(400 -1.37277e-14 0)
(400 -2.16032e-14 0)
(400 -1.90704e-14 0)
(400 -2.51671e-14 0)
(400 -1.94093e-14 0)
(400 -5.50104e-15 0)
(400 1.08408e-14 0)
(400 1.52639e-14 0)
(400 3.4187e-15 0)
(400 -1.9974e-15 0)
(400 1.4613e-14 0)
(400 2.61461e-14 0)
(400 2.83611e-14 0)
(400 7.79564e-15 0)
(400 -3.621e-15 0)
(400 1.36161e-14 0)
(400 2.30597e-14 0)
(400 1.74388e-14 0)
(400 1.14921e-14 0)
(400 2.07912e-14 0)
(400 3.04359e-14 0)
(400 1.74201e-14 0)
(400 4.32476e-15 0)
(400 -1.30302e-14 0)
(400 -2.57872e-14 0)
(400 -4.36649e-14 0)
(400 -4.88223e-14 0)
(400 -4.24142e-14 0)
(400 -3.85727e-14 0)
(400 -4.70345e-14 0)
(400 -5.91875e-14 0)
(400 -6.53263e-14 0)
(400 -6.90637e-14 0)
(400 -4.88655e-14 0)
(400 -3.67738e-14 0)
(400 -2.65862e-14 0)
(400 -1.276e-14 0)
(400 -1.74942e-14 0)
(400 -2.66399e-14 0)
(400 -2.0375e-14 0)
(400 1.41592e-15 0)
(400 1.06265e-15 0)
(400 3.53817e-15 0)
(400 2.73085e-15 0)
(400 1.07879e-14 0)
(400 2.04981e-14 0)
(400 3.34757e-14 0)
(400 3.5557e-14 0)
(400 3.26207e-14 0)
(400 2.54164e-14 0)
(400 2.46847e-14 0)
(400 2.86955e-14 0)
(400 2.23433e-14 0)
(400 2.54369e-14 0)
(400 2.06093e-14 0)
(400 1.45158e-14 0)
(400 1.98792e-14 0)
(400 9.65262e-15 0)
(400 9.17646e-15 0)
(400 1.68596e-14 0)
(400 1.88036e-14 0)
(400 1.72022e-15 0)
(400 -1.66548e-14 0)
(400 -8.28352e-15 0)
(400 1.45098e-14 0)
(400 3.21034e-14 0)
(400 2.43317e-14 0)
(400 3.70549e-14 0)
(400 4.22545e-14 0)
(400 5.37106e-14 0)
(400 5.869e-14 0)
(400 6.00708e-14 0)
(400 6.83998e-14 0)
(400 6.18719e-14 0)
(400 4.94359e-14 0)
(400 6.34619e-14 0)
(400 7.74301e-14 0)
(400 7.11643e-14 0)
(400 6.49753e-14 0)
(400 5.28213e-14 0)
(400 2.41108e-14 0)
(400 7.54201e-15 0)
(400 -7.41358e-15 0)
(400 -1.39244e-14 0)
(400 -2.37864e-14 0)
(400 -1.62483e-14 0)
(400 -2.50453e-14 0)
(400 -2.95068e-14 0)
(400 -3.62398e-14 0)
(400 -1.69808e-14 0)
(400 -1.91187e-14 0)
(400 -3.48123e-14 0)
(400 -4.15645e-14 0)
(400 -4.47386e-14 0)
(400 -4.96091e-14 0)
(400 -5.23695e-14 0)
(400 -5.06585e-14 0)
(400 -4.97546e-14 0)
(400 -6.00736e-14 0)
(400 -6.01826e-14 0)
(400 -5.61895e-14 0)
(400 -5.66347e-14 0)
(400 -6.51711e-14 0)
(400 -7.12544e-14 0)
(400 -6.71207e-14 0)
(400 -6.13057e-14 0)
(400 -5.91057e-14 0)
(400 -3.53962e-14 0)
(400 -1.85336e-14 0)
(400 4.31564e-15 0)
(400 1.38294e-14 0)
(400 1.07052e-14 0)
(400 7.24182e-15 0)
(400 1.41624e-14 0)
(400 1.21655e-14 0)
(400 9.67454e-15 0)
(400 1.22482e-14 0)
(400 1.22285e-14 0)
(400 6.54677e-15 0)
(400 -2.91979e-15 0)
(400 3.67585e-16 0)
(400 1.24008e-14 0)
(400 1.58197e-14 0)
(400 9.35728e-15 0)
(400 5.24592e-15 0)
(400 1.24402e-14 0)
(400 2.31002e-14 0)
(400 3.3116e-14 0)
(400 3.02869e-14 0)
(400 2.6129e-14 0)
(400 3.49463e-14 0)
(400 3.99787e-14 0)
(400 4.54091e-14 0)
(400 5.78459e-14 0)
(400 3.45761e-14 0)
(400 1.8471e-14 0)
(400 6.7534e-15 0)
(400 4.03209e-15 0)
(400 -1.11706e-14 0)
(400 -1.02483e-14 0)
(400 2.08278e-14 0)
(400 4.16643e-14 0)
(400 3.53849e-14 0)
(400 2.67447e-14 0)
(400 1.51293e-14 0)
(400 1.13055e-14 0)
(400 2.72662e-15 0)
(400 9.04848e-15 0)
(400 8.96698e-15 0)
(400 1.0199e-14 0)
(400 1.30114e-14 0)
(400 2.45546e-14 0)
(400 4.06577e-14 0)
(400 4.03291e-14 0)
(400 1.73425e-14 0)
(400 2.80719e-14 0)
(400 3.69376e-14 0)
(400 3.89857e-14 0)
(400 2.25044e-14 0)
(400 1.40496e-14 0)
(400 2.43918e-15 0)
(400 -1.6851e-15 0)
(400 1.41717e-14 0)
(400 1.71751e-14 0)
(400 1.65369e-14 0)
(400 2.41443e-14 0)
(400 3.25944e-14 0)
(400 4.06014e-14 0)
(400 3.87374e-14 0)
(400 5.09488e-14 0)
(400 7.23721e-14 0)
(400 6.60632e-14 0)
(400 5.39126e-14 0)
(400 4.951e-14 0)
(400 5.18972e-14 0)
(400 3.77755e-14 0)
(400 1.69085e-14 0)
(400 -1.86387e-15 0)
(400 4.24033e-15 0)
(400 -2.37842e-15 0)
(400 4.01589e-15 0)
(400 1.40482e-14 0)
(400 2.38856e-14 0)
(400 2.18327e-14 0)
(400 3.81859e-14 0)
(400 4.12743e-14 0)
(400 3.89777e-14 0)
(400 2.27459e-14 0)
(400 1.43332e-14 0)
(400 5.78117e-15 0)
(400 6.01993e-15 0)
(400 -2.19878e-15 0)
(400 -2.09722e-14 0)
(400 -2.02222e-14 0)
(400 -2.51085e-14 0)
(400 -3.39467e-14 0)
(400 -1.50355e-14 0)
(400 -2.02796e-14 0)
(400 -1.31093e-14 0)
(400 -1.87406e-15 0)
(400 -1.62023e-14 0)
(400 -2.03869e-14 0)
(400 -1.8369e-14 0)
(400 -1.02182e-14 0)
(400 2.90951e-15 0)
(400 1.17646e-14 0)
(400 1.20277e-14 0)
(400 3.50369e-15 0)
(400 -1.02091e-14 0)
(400 -2.85512e-14 0)
(400 -3.65943e-14 0)
(400 -3.1494e-14 0)
(400 -2.722e-14 0)
(400 -3.10396e-14 0)
(400 -3.24703e-14 0)
(400 -2.52127e-14 0)
(400 -1.61368e-14 0)
(400 -8.36174e-15 0)
(400 -1.00313e-15 0)
(400 3.66783e-15 0)
(400 9.98109e-15 0)
(400 1.86979e-14 0)
(400 1.06569e-14 0)
(400 -1.78543e-15 0)
(400 -1.82651e-14 0)
(400 -3.81585e-14 0)
(400 -3.7906e-14 0)
(400 -3.14524e-14 0)
(400 -4.89661e-14 0)
(400 -6.7785e-14 0)
(400 -8.22279e-14 0)
(400 -9.25455e-14 0)
(400 -9.92312e-14 0)
(400 -7.87626e-14 0)
(400 -6.03427e-14 0)
(400 -4.70888e-14 0)
(400 -3.31989e-14 0)
(400 -2.64955e-14 0)
(400 2.73594e-15 0)
(400 2.88981e-14 0)
(400 4.53777e-14 0)
(400 4.97629e-14 0)
(400 4.77744e-14 0)
(400 4.84868e-14 0)
(400 4.68277e-14 0)
(400 5.16646e-14 0)
(400 4.97149e-14 0)
(400 4.53177e-14 0)
(400 3.30651e-14 0)
(400 1.70465e-14 0)
(400 7.04257e-15 0)
(400 1.10739e-14 0)
(400 -3.156e-15 0)
(400 -1.52646e-14 0)
(400 -1.51555e-14 0)
(400 -1.61539e-14 0)
(400 -6.66571e-15 0)
(400 -8.10005e-15 0)
(400 -1.57706e-14 0)
(400 -6.43768e-15 0)
(400 3.62164e-15 0)
(400 9.5836e-15 0)
(400 1.9658e-14 0)
(400 2.58928e-14 0)
(400 3.87164e-14 0)
(400 4.11606e-14 0)
(400 2.95502e-14 0)
(400 4.03952e-14 0)
(400 5.19298e-14 0)
(400 5.65698e-14 0)
(400 5.03659e-14 0)
(400 4.42787e-14 0)
(400 4.94927e-14 0)
(400 4.03764e-14 0)
(400 3.84423e-14 0)
(400 3.93505e-14 0)
(400 2.68577e-14 0)
(400 1.71358e-14 0)
(400 -1.21081e-14 0)
(400 -3.75724e-14 0)
(400 -4.54566e-14 0)
(400 -4.88403e-14 0)
(400 -6.02834e-14 0)
(400 -5.09599e-14 0)
(400 -2.86886e-14 0)
(400 -7.28626e-15 0)
(400 -1.59017e-14 0)
(400 -1.35813e-14 0)
(400 -1.90901e-14 0)
(400 -2.77876e-14 0)
(400 -1.71125e-14 0)
(400 -2.0324e-14 0)
(400 -2.14231e-14 0)
(400 -2.48687e-14 0)
(400 -4.26929e-14 0)
(400 -4.11646e-14 0)
(400 -3.92401e-14 0)
(400 -3.72225e-14 0)
(400 -5.77714e-14 0)
(400 -4.62475e-14 0)
(400 -4.09191e-14 0)
(400 -4.1477e-14 0)
(400 -4.50703e-14 0)
(400 -5.35531e-14 0)
(400 -4.86198e-14 0)
(400 -3.8012e-14 0)
(400 -3.11804e-14 0)
(400 -1.75731e-14 0)
(400 -6.41616e-15 0)
(400 5.78142e-15 0)
(400 2.37877e-15 0)
(400 -6.14731e-16 0)
(400 1.50689e-15 0)
(400 -6.93478e-16 0)
(400 -1.41916e-16 0)
(400 -5.44758e-15 0)
(400 -9.9725e-15 0)
(400 -1.96777e-14 0)
(400 -2.71313e-14 0)
(400 -3.03658e-14 0)
(400 -3.6224e-14 0)
(400 -2.97665e-14 0)
(400 -2.32137e-14 0)
(400 -1.65319e-14 0)
(400 -1.04215e-14 0)
(400 -1.51338e-14 0)
(400 -2.07544e-14 0)
(400 -1.71854e-14 0)
(400 -2.25748e-14 0)
(400 -2.98265e-14 0)
(400 -2.23728e-14 0)
(400 -2.35952e-14 0)
(400 -1.70263e-14 0)
(400 -9.89941e-15 0)
(400 -2.317e-14 0)
(400 -4.55998e-14 0)
(400 -4.31994e-14 0)
(400 -1.20832e-14 0)
(400 2.92772e-15 0)
(400 2.93928e-15 0)
(400 3.22644e-14 0)
(400 4.22554e-14 0)
(400 3.93584e-14 0)
(400 4.59692e-14 0)
(400 4.46017e-14 0)
(400 5.7987e-14 0)
(400 6.05538e-14 0)
(400 6.7241e-14 0)
(400 6.26492e-14 0)
(400 5.19082e-14 0)
(400 5.89102e-14 0)
(400 6.2472e-14 0)
(400 5.17778e-14 0)
(400 3.7672e-14 0)
(400 3.1986e-14 0)
(400 3.09524e-14 0)
(400 3.10114e-14 0)
(400 3.72341e-14 0)
(400 3.64137e-14 0)
(400 5.43676e-14 0)
(400 5.90803e-14 0)
(400 5.84658e-14 0)
(400 5.81362e-14 0)
(400 4.15047e-14 0)
(400 4.249e-14 0)
(400 5.34765e-14 0)
(400 4.08364e-14 0)
(400 3.59149e-14 0)
(400 1.77603e-14 0)
(400 6.65242e-15 0)
(400 1.05506e-15 0)
(400 -2.11611e-14 0)
(400 -2.99991e-14 0)
(400 -3.61463e-14 0)
(400 -4.34325e-14 0)
(400 -5.23192e-14 0)
(400 -5.49821e-14 0)
(400 -8.16457e-16 0)
(400 -3.97577e-15 0)
(400 -1.53932e-14 0)
(400 -6.6093e-15 0)
(400 6.41519e-17 0)
(400 7.33309e-15 0)
(400 8.69289e-15 0)
(400 1.27007e-14 0)
(400 1.68624e-14 0)
(400 2.78542e-14 0)
(400 2.65164e-14 0)
(400 1.23389e-14 0)
(400 2.961e-15 0)
(400 -9.24901e-15 0)
(400 -1.60006e-14 0)
(400 -2.78609e-14 0)
(400 -3.98071e-14 0)
(400 -4.05255e-14 0)
(400 -4.36702e-14 0)
(400 -4.25982e-14 0)
(400 -3.27109e-14 0)
(400 -1.98967e-14 0)
(400 -6.44691e-15 0)
(400 -1.61496e-14 0)
(400 -1.86325e-14 0)
(400 -7.77036e-15 0)
(400 -6.08985e-15 0)
(400 1.12092e-14 0)
(400 3.36795e-14 0)
(400 2.3021e-14 0)
(400 1.468e-15 0)
(400 -1.82922e-14 0)
(400 -3.65711e-14 0)
(400 -4.7887e-14 0)
(400 -5.34564e-14 0)
(400 -5.27104e-14 0)
(400 -3.92556e-14 0)
(400 -2.17513e-14 0)
(400 -2.35596e-14 0)
(400 -3.90943e-14 0)
(400 -4.23529e-14 0)
(400 -3.43084e-14 0)
(400 -2.89775e-14 0)
(400 -2.74398e-14 0)
(400 -1.94381e-14 0)
(400 -2.24515e-14 0)
(400 -2.23223e-14 0)
(400 -2.64718e-14 0)
(400 -2.87707e-14 0)
(400 -3.14223e-14 0)
(400 -2.47794e-14 0)
(400 -3.76323e-14 0)
(400 -3.90361e-14 0)
(400 -4.9715e-14 0)
(400 -5.35349e-14 0)
(400 -5.88984e-14 0)
(400 -4.76236e-14 0)
(400 -3.43403e-14 0)
(400 -2.68876e-14 0)
(400 -1.01309e-14 0)
(400 1.97462e-14 0)
(400 5.51693e-14 0)
(400 6.17165e-14 0)
(400 6.37067e-14 0)
(400 7.06871e-14 0)
(400 5.7612e-14 0)
(400 5.07031e-14 0)
(400 5.44563e-14 0)
(400 5.85971e-14 0)
(400 5.26826e-14 0)
(400 3.99557e-14 0)
(400 2.59184e-14 0)
(400 2.11163e-14 0)
(400 1.30291e-14 0)
(400 1.99108e-14 0)
(400 1.85856e-14 0)
(400 3.57805e-15 0)
(400 2.14814e-15 0)
(400 1.335e-14 0)
(400 8.84365e-15 0)
(400 5.7394e-15 0)
(400 1.43214e-15 0)
(400 6.43132e-15 0)
(400 4.53545e-15 0)
(400 1.3942e-14 0)
(400 3.04282e-14 0)
(400 3.27198e-14 0)
(400 3.05166e-14 0)
(400 2.97438e-14 0)
(400 3.03567e-14 0)
(400 2.88373e-14 0)
(400 3.0935e-14 0)
(400 4.24222e-14 0)
(400 4.23637e-14 0)
(400 4.7981e-14 0)
(400 3.05827e-14 0)
(400 3.3088e-14 0)
(400 3.84712e-14 0)
(400 2.70283e-15 0)
(400 -2.10971e-14 0)
(400 -3.24211e-14 0)
(400 -4.68533e-14 0)
(400 -4.65633e-14 0)
(400 -4.64132e-14 0)
(400 -4.54616e-14 0)
(400 -4.35827e-14 0)
(400 -2.12121e-14 0)
(400 1.07072e-14 0)
(400 1.30114e-14 0)
(400 1.47688e-14 0)
(400 1.71716e-14 0)
(400 6.77358e-15 0)
(400 -1.01917e-14 0)
(400 -1.54253e-14 0)
(400 -1.9117e-14 0)
(400 -2.13004e-14 0)
(400 -2.60451e-14 0)
(400 -2.62168e-14 0)
(400 -3.39765e-14 0)
(400 -4.0205e-14 0)
(400 -4.0858e-14 0)
(400 -5.19515e-14 0)
(400 -6.033e-14 0)
(400 -5.71574e-14 0)
(400 -5.26542e-14 0)
(400 -4.94331e-14 0)
(400 -4.78398e-14 0)
(400 -4.28285e-14 0)
(400 -4.04769e-14 0)
(400 -3.77276e-14 0)
(400 -2.16573e-14 0)
(400 -3.89606e-15 0)
(400 -7.58683e-15 0)
(400 -1.85719e-14 0)
(400 -1.87428e-14 0)
(400 -1.13958e-14 0)
(400 -4.74096e-15 0)
(400 4.60183e-15 0)
(400 -3.89846e-15 0)
(400 -7.84634e-15 0)
(400 -4.77443e-15 0)
(400 1.15603e-14 0)
(400 2.52317e-14 0)
(400 1.94334e-14 0)
(400 2.88389e-14 0)
(400 4.75835e-14 0)
(400 6.39466e-14 0)
(400 5.62694e-14 0)
(400 3.28969e-14 0)
(400 1.9084e-14 0)
(400 1.07344e-14 0)
(400 1.87459e-15 0)
(400 -2.22481e-14 0)
(400 -5.0617e-14 0)
(400 -6.20685e-14 0)
(400 -4.65138e-14 0)
(400 -3.91026e-14 0)
(400 -2.76787e-14 0)
(400 -4.31841e-14 0)
(400 -3.38449e-14 0)
(400 -3.05959e-15 0)
(400 7.52984e-15 0)
(400 1.43533e-14 0)
(400 1.94317e-14 0)
(400 2.69028e-14 0)
(400 3.09959e-14 0)
(400 3.54282e-14 0)
(400 4.82381e-14 0)
(400 4.99877e-14 0)
(400 5.80088e-14 0)
(400 5.24484e-14 0)
(400 3.96877e-14 0)
(400 2.48326e-14 0)
(400 1.65422e-14 0)
(400 1.13901e-14 0)
(400 -9.8552e-15 0)
(400 -2.4245e-14 0)
(400 -7.01467e-15 0)
(400 1.41446e-15 0)
(400 -1.69393e-14 0)
(400 -2.12233e-14 0)
(400 -1.64213e-14 0)
(400 1.09705e-14 0)
(400 3.39864e-14 0)
(400 5.16357e-14 0)
(400 3.58214e-14 0)
(400 1.78752e-14 0)
(400 1.18466e-14 0)
(400 9.46033e-15 0)
(400 -2.99872e-15 0)
(400 -2.10964e-14 0)
(400 -2.27415e-14 0)
(400 -2.04669e-14 0)
(400 -3.26944e-14 0)
(400 -3.42061e-14 0)
(400 -4.73461e-14 0)
(400 -4.55358e-14 0)
(400 -3.40855e-14 0)
(400 -2.30414e-14 0)
(400 -4.31457e-15 0)
(400 -1.47166e-14 0)
(400 -3.76482e-14 0)
(400 -3.88196e-14 0)
(400 -3.49237e-14 0)
(400 -4.74831e-14 0)
(400 -5.00764e-14 0)
(400 -3.19654e-14 0)
(400 -2.35047e-14 0)
(400 -1.11907e-14 0)
(400 -2.3797e-16 0)
(400 1.69524e-14 0)
(400 8.34426e-15 0)
(400 8.83133e-15 0)
(400 -2.40449e-15 0)
(400 -1.27279e-14 0)
(400 -1.98293e-14 0)
(400 -2.00695e-14 0)
(400 -1.9287e-14 0)
(400 -1.28461e-14 0)
(400 -6.25022e-15 0)
(400 1.06234e-14 0)
(400 4.4814e-14 0)
(400 6.23024e-14 0)
(400 4.39505e-14 0)
(400 3.66396e-14 0)
(400 4.40232e-14 0)
(400 4.64061e-14 0)
(400 4.12091e-14 0)
(400 2.68243e-14 0)
(400 7.51501e-15 0)
(400 5.35919e-15 0)
(400 -1.37428e-14 0)
(400 -3.5686e-14 0)
(400 -5.15701e-14 0)
(400 -4.61538e-14 0)
(400 -4.103e-14 0)
(400 -4.9934e-14 0)
(400 -4.899e-14 0)
(400 -5.94029e-14 0)
(400 -7.00677e-14 0)
(400 -7.35858e-14 0)
(400 -7.62128e-14 0)
(400 -7.37585e-14 0)
(400 -8.03871e-14 0)
(400 -6.99463e-14 0)
(400 -5.7473e-14 0)
(400 -4.13977e-14 0)
(400 -3.05886e-14 0)
(400 -2.72492e-14 0)
(400 -2.65417e-14 0)
(400 -3.4493e-14 0)
(400 -4.06214e-14 0)
(400 -4.79453e-14 0)
(400 -4.1824e-14 0)
(400 -3.3153e-14 0)
(400 -3.48351e-14 0)
(400 -3.7343e-14 0)
(400 -2.95436e-14 0)
(400 -1.78274e-14 0)
(400 7.10573e-15 0)
(400 2.75548e-14 0)
(400 4.0904e-14 0)
(400 4.07062e-14 0)
(400 3.19574e-14 0)
(400 5.42778e-14 0)
(400 5.81105e-14 0)
(400 5.92164e-14 0)
(400 5.01806e-14 0)
(400 4.70819e-14 0)
(400 5.31829e-14 0)
(400 3.41319e-14 0)
(400 1.88734e-14 0)
(400 2.16609e-14 0)
(400 2.38637e-14 0)
(400 1.78109e-14 0)
(400 8.45384e-15 0)
(400 1.29426e-14 0)
(400 1.88692e-14 0)
(400 1.46573e-14 0)
(400 2.39478e-14 0)
(400 3.61197e-14 0)
(400 5.04663e-14 0)
(400 5.92628e-14 0)
(400 6.12845e-14 0)
(400 5.3038e-14 0)
(400 4.84626e-14 0)
(400 4.64882e-14 0)
(400 6.23873e-14 0)
(400 6.2897e-14 0)
(400 6.507e-14 0)
(400 5.06115e-14 0)
(400 4.15094e-14 0)
(400 4.76686e-14 0)
(400 6.84055e-14 0)
(400 6.78134e-14 0)
(400 5.35884e-14 0)
(400 5.87244e-14 0)
(400 5.61681e-14 0)
(400 4.70236e-14 0)
(400 3.23825e-14 0)
(400 2.40402e-14 0)
(400 2.00055e-14 0)
(400 2.03286e-14 0)
(400 2.92363e-14 0)
(400 2.59702e-14 0)
(400 2.85596e-14 0)
(400 5.58058e-14 0)
(400 6.47042e-14 0)
(400 7.13211e-14 0)
(400 7.83211e-14 0)
(400 6.6468e-14 0)
(400 5.75295e-14 0)
(400 4.96389e-14 0)
(400 4.41724e-14 0)
(400 3.70362e-14 0)
(400 3.3342e-14 0)
(400 3.49884e-14 0)
(400 4.02921e-14 0)
(400 2.29419e-14 0)
(400 7.72307e-15 0)
(400 -4.3357e-15 0)
(400 1.20489e-14 0)
(400 -7.93414e-15 0)
(400 -1.9656e-14 0)
(400 -2.57699e-14 0)
(400 -2.81962e-14 0)
(400 -3.60014e-14 0)
(400 -4.57058e-14 0)
(400 -6.58498e-14 0)
(400 -6.12351e-14 0)
(400 -4.52506e-14 0)
(400 -3.52485e-14 0)
(400 -3.64516e-14 0)
(400 -4.19519e-14 0)
(400 -4.82768e-14 0)
(400 -5.22848e-14 0)
(400 -3.53544e-14 0)
(400 -3.52517e-14 0)
(400 -3.71693e-14 0)
(400 -4.14374e-14 0)
(400 -2.39518e-14 0)
(400 1.90337e-14 0)
(400 3.80434e-14 0)
(400 3.89402e-14 0)
(400 4.3843e-14 0)
(400 6.02852e-14 0)
(400 7.51429e-14 0)
(400 6.29749e-14 0)
(400 5.25353e-14 0)
(400 5.18234e-14 0)
(400 4.42658e-14 0)
(400 2.50227e-14 0)
(400 2.28624e-15 0)
(400 -3.95406e-14 0)
(400 -4.40185e-14 0)
(400 -2.64323e-14 0)
(400 -9.22897e-16 0)
(400 1.26448e-14 0)
(400 2.00866e-14 0)
(400 2.95399e-14 0)
(400 2.63174e-14 0)
(400 3.45525e-14 0)
(400 6.69371e-14 0)
(400 4.83037e-14 0)
(400 4.55049e-14 0)
(400 5.25933e-14 0)
(400 4.80011e-14 0)
(400 4.14066e-14 0)
(400 4.49357e-14 0)
(400 4.60767e-14 0)
(400 4.79833e-14 0)
(400 5.24831e-14 0)
(400 3.99125e-14 0)
(400 1.59163e-14 0)
(400 -1.17529e-14 0)
(400 -2.60343e-14 0)
(400 -2.48645e-14 0)
(400 -2.89397e-14 0)
(400 -3.06742e-14 0)
(400 -2.9062e-14 0)
(400 -2.44394e-14 0)
(400 -1.66116e-14 0)
(400 2.17599e-16 0)
(400 9.55183e-15 0)
(400 6.85402e-15 0)
(400 3.5168e-15 0)
(400 -3.30792e-15 0)
(400 -2.2817e-14 0)
(400 -4.11299e-14 0)
(400 -5.42101e-14 0)
(400 -6.51455e-14 0)
(400 -4.33655e-14 0)
(400 -4.12123e-14 0)
(400 -4.60561e-14 0)
(400 -2.8446e-14 0)
(400 -3.92027e-14 0)
(400 -4.29232e-14 0)
(400 -4.03057e-14 0)
(400 -2.87901e-14 0)
(400 -1.46947e-14 0)
(400 -1.7208e-14 0)
(400 -2.67136e-14 0)
(400 -2.13485e-14 0)
(400 -3.81885e-14 0)
(400 -4.50567e-14 0)
(400 -6.1136e-14 0)
(400 -6.04902e-14 0)
(400 -5.01174e-14 0)
(400 -4.69173e-14 0)
(400 -3.02437e-14 0)
(400 -3.5048e-14 0)
(400 -4.42233e-14 0)
(400 -4.05129e-14 0)
(400 -3.98671e-14 0)
(400 -4.60381e-14 0)
(400 -4.83999e-14 0)
(400 -4.18395e-14 0)
(400 -4.6867e-14 0)
(400 -4.21964e-14 0)
(400 -3.79775e-14 0)
(400 -2.62886e-14 0)
(400 -1.18224e-14 0)
(400 -3.59949e-15 0)
(400 -3.47318e-15 0)
(400 9.2392e-15 0)
(400 2.64606e-14 0)
(400 4.68171e-14 0)
(400 4.11918e-14 0)
(400 2.94218e-15 0)
(400 -4.81941e-15 0)
(400 -6.89755e-15 0)
(400 -6.28252e-15 0)
(400 -8.79199e-15 0)
(400 -2.82435e-14 0)
(400 -2.6766e-14 0)
(400 -4.16913e-14 0)
(400 -5.50082e-14 0)
(400 -6.40477e-14 0)
(400 -6.49206e-14 0)
(400 -5.37305e-14 0)
(400 -4.48624e-14 0)