 VARIABLES = "X",  "Y"
 ZONE N=        6872 , E=       13439 , F=FEPOINT, ET=QUADRILATERAL
        1.0000000000       -1.2198795181
        1.0405043745       -1.2243169037
        1.0270374874       -1.1988226781
        1.0567540346       -1.2003532695
        1.0000000000       -1.1897590361
        1.0718931550       -1.2251325413
        1.0430384662       -1.1751539641
        1.0195960207       -1.1758317206
        1.0712926177       -1.1747688810
        1.0865954821       -1.2001509444
        1.0000000000       -1.1596385542
        1.1025439149       -1.2253706429
        1.0551137559       -1.1494554009
        1.0264910078       -1.1513683799
        1.1007070662       -1.1746074959
        1.0844368103       -1.1492863478
        1.1167012320       -1.1999609140
        1.0000000000       -1.1295180723
        1.1327849396       -1.2255597813
        1.0676606213       -1.1243927797
        1.0377457549       -1.1252584908
        1.1307813737       -1.1745642767
        1.1144848014       -1.1493275419
        1.0979595296       -1.1242524622
        1.1468822399       -1.1998587372
        1.0221255147       -1.1000827841
        1.1628641507       -1.2257466627
        1.0518444091       -1.0998573993
        1.0816909080       -1.0994185046
        1.0000000000       -1.0993975904
        1.1610097120       -1.1745358141
        1.1448477314       -1.1493682548
        1.1285100066       -1.1242675457
        1.1121658522       -1.0992577628
        1.1769866188       -1.1997653392
        1.0000000000       -1.0692771084
        1.0369518469       -1.0748897400
        1.1928374546       -1.2259136985
        1.0660803752       -1.0745195436
        1.0960804026       -1.0742599375
        1.1911185554       -1.1744654875
        1.1751547764       -1.1493490405
        1.1590593932       -1.1242640651
        1.1428812328       -1.0991977973
        1.1267334063       -1.0741342874
        1.2069470901       -1.1996414953
        1.0248594104       -1.0509655010
        1.0513436457       -1.0490217166
        1.2227256625       -1.2260559785
        1.0803463162       -1.0491002347
        1.1107218180       -1.0490421682
        1.0000000000       -1.0391566265
        1.2210309074       -1.1743432708
        1.2052262511       -1.1492574751
        1.1893617076       -1.1241888534
        1.1734406723       -1.0991093784
        1.1574839257       -1.0740120509
        1.1415368385       -1.0489009834
        1.2367710733       -1.1994848413
        1.0332033154       -1.0241986124
        1.0642425529       -1.0241561032
        1.2525537877       -1.2261792838
        1.0948593663       -1.0240048619
        1.1256694328       -1.0238029417
        1.0000000000       -1.0090361446
        1.2350528583       -1.1491077981
        1.2507771918       -1.1741826856
        1.2193438108       -1.1240425758
        1.2036457033       -1.0989554115
        1.1879401509       -1.0738391871
        1.1722152196       -1.0487038387
        1.1564861254       -1.0235664941
        1.2665004713       -1.1993066967
        1.0508655894       -0.9993863592
        1.0245260272       -0.9974847361
        1.0797900636       -0.9990473835
        1.2823482277       -1.2262897167
        1.1100732667       -0.9987295459
        1.1408153198       -0.9984362941
        1.0000000000       -0.9789156627
        1.2647038084       -1.1489225492
        1.2490638608       -1.1238457348
        1.2804206293       -1.1740026643
        1.2335025210       -1.0987436477
        1.2179928309       -1.0736101397
        1.2024958693       -1.0484556671
        1.1869829660       -1.0232945916
        1.1714510949       -0.9981355499
        1.2961833536       -1.1991176640
        1.0649877145       -0.9737291452
        1.0359761203       -0.9736037144
        1.0947765190       -0.9735715394
        1.3121344375       -1.2263819867
        1.1252580984       -0.9732874769
        1.1559136567       -0.9729737013
        1.0209906663       -0.9487934311
        1.2786187127       -1.1236203104
        1.2942579919       -1.1487233524
        1.2631129895       -1.0984933166
        1.3100237394       -1.1738217733
        1.2477144312       -1.0733385389
        1.2323768877       -1.0481663378
        1.2170531255       -1.0229893675
        1.2017090315       -0.9978149901
        1.1863255875       -0.9726430520
        1.3258714751       -1.1989222069
        1.0502434073       -0.9486045499
        1.0796509693       -0.9483771025
        1.0000000000       -0.9487951807
        1.1098033854       -0.9481042254
        1.3419458152       -1.2264046945
        1.1403740104       -0.9477982245
        1.1708898323       -0.9474684955
        1.0356795677       -0.9237073177
        1.0000000000       -0.9186746988
        1.3080903070       -1.1233847404
        1.2925829132       -1.0982214710
        1.3237784423       -1.1485309966
        1.2772270209       -1.0730398741
        1.3396439337       -1.1736645489
        1.2619739855       -1.0478487637
        1.2467713824       -1.0226584858
        1.2315747885       -0.9974744152
        1.2163515277       -0.9722963469
        1.2010772031       -0.9471208203
        1.3556319586       -1.1987349414
        1.0646910708       -0.9232437587
        1.0944300725       -0.9229074230
        1.1248256755       -0.9226107020
        1.3718856012       -1.2261251178
        1.1553904854       -0.9222892426
        1.1857318979       -0.9219447032
        1.0502491134       -0.8977742166
        1.0238892958       -0.8999652192
        1.3375316816       -1.1231550469
        1.3219865206       -1.0979410329
        1.3066300307       -1.0727257288
        1.3533047115       -1.1483672433
        1.2914084219       -1.0475136207
        1.3693323336       -1.1735711899
        1.2762665301       -1.0223105437
        1.2611575994       -0.9971187814
        1.2460461986       -0.9719365250
        1.2309056549       -0.9467599246
        1.2157139753       -0.9215851777
        1.3857574845       -1.1988231652
        1.0791320637       -0.8976630540
        1.1092731933       -0.8974295678
        1.0000000000       -0.8885542169
        1.1398311500       -0.8971148942
        1.4014616552       -1.2245428596
        1.1703052553       -0.8967691563
        1.2004534339       -0.8964099080
        1.0632693273       -0.8727520270
        1.0322188777       -0.8731115869
        1.3669650437       -1.1229459654
        1.3513651037       -1.0976621483
        1.3359844242       -1.0724041016
        1.3207638122       -1.0471680441
        1.3828237178       -1.1482601807
        1.3056440901       -1.0219520352
        1.3989306168       -1.1736090644
        1.2905769203       -0.9967533955
        1.2755271249       -0.9715677507
        1.2604697597       -0.9463901355
        1.2453854924       -0.9212161906
        1.2302573787       -0.8960425084
        1.4150441834       -1.1989109325
        1.0937174238       -0.8723662464
        1.1242612076       -0.8719788780
        1.0000000000       -0.8584337349
        1.1548148441       -0.8716019346
        1.4310589404       -1.2239407697
        1.1851174121       -0.8712333003
        1.2150712150       -0.8708660888
        1.0788317370       -0.8474375764
        1.0499905990       -0.8480650627
        1.0236571196       -0.8464401938
        1.3963891815       -1.1227553114
        1.3807359800       -1.0973897343
        1.3653212104       -1.0720802821
        1.3500863273       -1.0468166274
        1.3349683268       -1.0215871000
        1.4123004881       -1.1481691931
        1.3199161658       -0.9963820677
        1.4283974685       -1.1735575839
        1.3048942532       -0.9711935215
        1.2898793227       -0.9460149388
        1.2748553894       -0.9208414076
        1.2598093943       -0.8956693474
        1.2447287647       -0.8704957253
        1.4445605413       -1.1987741651
        1.1088825266       -0.8468944650
        1.1393340120       -0.8464466328
        1.0000000000       -0.8283132530
        1.1697221024       -0.8460532263
        1.4607388704       -1.2236480800
        1.1998194743       -0.8456830881
        1.2296011807       -0.8453170849
        1.0937561560       -0.8217676641
        1.0641456564       -0.8222181278
        1.0351323386       -0.8224643702
        1.4258039531       -1.1225612699
        1.4101044385       -1.0971201342
        1.3946536465       -1.0717563947
        1.3793977686       -1.0464623352
        1.3642717383       -1.0212183863
        1.3492213232       -0.9960071753
        1.4417581421       -1.1480421932
        1.3342092501       -0.9708161285
        1.4579081296       -1.1734511587
        1.3192125469       -0.9456367000
        1.3042172885       -0.9204633045
        1.2892138296       -0.8952923389
        1.2741934666       -0.8701211972
        1.2591465522       -0.8449473532
        1.4741639054       -1.1986197794
        1.1239454416       -0.8212844539
        1.1543049900       -0.8208636276
        1.0203408402       -0.7977105144
        1.1845051948       -0.8204888955
        1.4904501806       -1.2234276080
        1.2144161490       -0.8201295281
        1.2440619686       -0.8197680012
        1.1086801536       -0.7961339881
        1.0787644881       -0.7966997466
        1.0494245750       -0.7972741749
        1.0000000000       -0.7981927711
        1.4552198760       -1.1223528403
        1.4394735160       -1.0968472635
        1.4239865136       -1.0714321460
        1.4087070112       -1.0461069499
        1.3935685668       -1.0208477669
        1.3785139002       -0.9956302689
        1.3635033133       -0.9704369487
        1.4712319186       -1.1478903844
        1.3485129150       -0.9452568262
        1.4874561737       -1.1733216417
        1.3335293713       -0.9200834367
        1.3185449439       -0.8949130635
        1.3035539265       -0.8697434402
        1.2885503577       -0.8445728083
        1.2735266945       -0.8193993893
        1.5037988689       -1.1984682646
        1.1389099297       -0.7956708306
        1.1691445207       -0.7952853641
        1.0345665421       -0.7727650574
        1.0000000000       -0.7680722892
        1.1991689113       -0.7949321988
        1.5201705611       -1.2232204732
        1.2289286134       -0.7945814190
        1.2584736149       -0.7942216925
        1.1235912129       -0.7705126075
        1.0935690505       -0.7710815748
        1.0638358645       -0.7719612139
        1.4846426725       -1.1221350423
        1.4688453937       -1.0965704940
        1.4533211176       -1.0711075126
        1.4380168922       -1.0457516896
        1.4228641597       -1.0204766932
        1.4078026583       -0.9952525100
        1.3927900262       -0.9700568688
        1.3778007899       -0.9448761177
        1.5007195580       -1.1477259248
        1.3628212196       -0.9197026926
        1.5170195585       -1.1731837335
        1.3478442275       -0.8945326093
        1.3328657076       -0.8693637538
        1.3178822296       -0.8441948295
        1.3028896183       -0.8190247602
        1.2878821953       -0.7938525669
        1.5334416605       -1.1983162287
        1.1537744292       -0.7700936478
        1.1838695336       -0.7697352703
        1.0492160339       -0.7479113845
        1.0211974436       -0.7488891219
        1.2137408945       -0.7693911165
        1.5498912912       -1.2230135857
        1.2433820145       -0.7690402794
        1.2728530029       -0.7686779502
        1.1384612989       -0.7449522630
        1.1084159580       -0.7454139848
        1.0787243575       -0.7460966773
        1.0000000000       -0.7379518072
        1.4982193000       -1.0962929121
        1.5140689670       -1.1219139611
        1.4826569893       -1.0707838468
        1.4673276525       -1.0453977253
        1.4521599817       -1.0201063269
        1.4370906320       -0.9948748249
        1.4220745596       -0.9696765356
        1.4070844717       -0.9444950597
        1.3921057555       -0.9193215530
        1.5302112008       -1.1475570837
        1.3771312395       -0.8941516081
        1.5465846283       -1.1730426995
        1.3621574173       -0.8689831021
        1.3471821450       -0.8438149582
        1.3322033046       -0.8186464906
        1.3172180153       -0.7934771295
        1.3022223016       -0.7683065143
        1.5630826167       -1.1981623531
        1.1685568186       -0.7445659918
        1.1985094968       -0.7442110737
        1.0638460596       -0.7205299408
        1.0262102090       -0.7211916653
        1.2282485079       -0.7438607849
        1.5796087405       -1.2228046384
        1.2577957455       -0.7435026747
        1.2872114556       -0.7431350092
        1.1533077639       -0.7194620678
        1.1232914705       -0.7198934858
        1.0933511017       -0.7203017551
        1.0000000000       -0.7078313253
        1.5119927643       -1.0704625797
        1.5275927419       -1.0960169880
        1.5434940839       -1.1216932501
        1.4966385782       -1.0450460121
        1.4814560084       -1.0197374854
        1.4663785715       -0.9944978841
        1.4513585895       -0.9692964243
        1.4363669327       -0.9441139734
        1.4213879386       -0.9189402821
        1.4064140180       -0.8937703866
        1.5597000609       -1.1473875102
        1.3914417324       -0.8686020322
        1.5761445473       -1.1729001550
        1.3764694389       -0.8434342095
        1.3614960082       -0.8182664153
        1.3465201219       -0.7930983187
        1.3315398815       -0.7679296781
        1.3165526925       -0.7427604804
        1.5927165492       -1.1980061826
        1.1832729115       -0.7190658048
        1.2130832543       -0.7186956568
        1.0787219090       -0.6952267434
        1.0477325917       -0.6946083545
        1.0187428968       -0.6925829353
        1.2427085015       -0.7183319810
        1.6093194828       -1.2225929797
        1.2721812831       -0.7179644655
        1.3015554942       -0.7175912617
        1.1680966604       -0.6939774244
        1.1382391815       -0.6944486171
        1.1084501914       -0.6949425095
        1.0000000000       -0.6777108434
        1.5259488625       -1.0446968477
        1.5413271245       -1.0701440858
        1.5569635314       -1.0957433201
        1.5729145231       -1.1214735606
        1.5107518314       -1.0193705019
        1.4956664624       -0.9941220348
        1.4806425173       -0.9689168246
        1.4656490888       -0.9437330641
        1.4506694511       -0.9185590302
        1.4356954873       -0.8933891031
        1.4207235993       -0.8682208070
        1.5891810853       -1.1472172106
        1.4057522606       -0.8430531076
        1.6056925502       -1.1727549220
        1.3907807273       -0.8178855685
        1.3758083939       -0.7927179725
        1.3608344551       -0.7675501796
        1.3458577237       -0.7423821242
        1.3308765737       -0.7172139205
        1.6223351347       -1.1978458444
        1.1979128185       -0.6935598728
        1.2275965187       -0.6931739636
        1.0940153517       -0.6699996644
        1.0646562728       -0.6696875855
        1.0263447366       -0.6629993343
        1.2571295077       -0.6927985120
        1.6390157066       -1.2223771632
        1.2865451820       -0.6924234017
        1.3158889668       -0.6920460148
        1.1827638453       -0.6684585632
        1.1530313763       -0.6689384568
        1.1234236606       -0.6694875010
        1.0000000000       -0.6475903614
        1.5400470952       -1.0190052033
        1.5552578941       -1.0443497762
        1.5706589369       -1.0698275654
        1.5863293383       -1.0954706280
        1.6023254775       -1.1212527461
        1.5249541394       -0.9937472921
        1.5099263615       -0.9685378302
        1.4949311614       -0.9433524298
        1.4799507911       -0.9181778759
        1.4649765932       -0.8930078318
        1.4500047364       -0.8678395387
        1.4350336546       -0.8426718823
        1.6186451132       -1.1470426874
        1.4200627144       -0.8175044319
        1.6352134648       -1.1726022636
        1.4050915832       -0.7923370142
        1.3901199334       -0.7671695436
        1.3751472890       -0.7420019722
        1.3601729360       -0.7168343073
        1.3451958596       -0.6916666695
        1.6519180975       -1.1976766349
        1.2124677816       -0.6680351523
        1.2420550030       -0.6676414238
        1.0801711098       -0.6451671408
        1.1087662034       -0.6445052610
        1.0513630073       -0.6458863788
        1.0264787378       -0.6298608835
        1.2715184926       -0.6672590020
        1.6686786450       -1.2221542555
        1.3008923564       -0.6668792565
        1.3302146474       -0.6664993497
        1.1676209594       -0.6433789240
        1.1973168826       -0.6429154718
        1.1380231242       -0.6439063065
        1.0000000000       -0.6174698795
        1.5693414944       -1.0186410306
        1.5542414600       -0.9933734140
        1.5845649279       -1.0440037289
        1.5999862285       -1.0695111240
        1.6156851896       -1.0951955997
        1.6317157939       -1.1210251979
        1.5392100691       -0.9681593728
        1.5242131769       -0.9429720760
        1.5092320807       -0.9177968452
        1.4942576062       -0.8926266029
        1.4792856769       -0.8674582710
        1.4643146370       -0.8422906220
        1.4493438580       -0.8171231994
        1.6480705473       -1.1468554505
        1.4343730914       -0.7919558393
        1.6646722095       -1.1724318041
        1.4194021875       -0.7667884784
        1.4044309698       -0.7416210868
        1.3894591660       -0.7164536548
        1.3744863536       -0.6912862074
        1.3595118931       -0.6661188297
        1.6814200927       -1.1974896364
        1.2269525022       -0.6424959338
        1.2564703658       -0.6421001906
        1.0933667201       -0.6196162149
        1.0639710962       -0.6212340292
        1.1227846250       -0.6188826460
        1.0193055238       -0.6006657909
        1.2858831133       -0.6417147530
        1.6982678485       -1.2219200112
        1.3152272372       -0.6413328078
        1.3445348047       -0.6409516824
        1.1523862047       -0.6183128726
        1.1821081551       -0.6178122527
        1.2118056735       -0.6173628974
        1.0467899815       -0.5972523364
        1.0000000000       -0.5873493976
        1.5986344689       -1.0182771332
        1.5835282426       -0.9929999948
        1.5684935781       -0.9677812797
        1.6138682730       -1.0436570022
        1.6293043549       -1.0691913940
        1.6450197780       -1.0949117798
        1.6610613131       -1.1207795588
        1.5534951206       -0.9425919436
        1.5385133401       -0.9174159265
        1.5235385926       -0.8922454216
        1.5085665684       -0.8670770177
        1.4935955121       -0.8419093565
        1.4786247663       -0.8167419398
        1.4636540976       -0.7915745964
        1.6774125950       -1.1466384234
        1.4486834120       -0.7664072691
        1.6939982893       -1.1722235965
        1.4337126415       -0.7412399367
        1.4187416919       -0.7160725909
        1.4037704107       -0.6909052340
        1.3887985494       -0.6657378869
        1.3738257065       -0.6405705976
        1.7107515108       -1.1972699044
        1.2413912511       -0.6169484973
        1.2708554515       -0.6165535757
        1.1071871019       -0.5939828236
        1.0774220715       -0.5950255669
        1.1369695091       -0.5932951671
        1.0264160966       -0.5714661507
        1.3002304510       -0.6161675843
        1.7277038076       -1.2216705744
        1.3295535553       -0.6157849861
        1.3588512312       -0.6154034423
        1.1667967438       -0.5927334477
        1.1965909999       -0.5922444102
        1.2262671552       -0.5918051109
        1.0616967156       -0.5701996629
        1.0000000000       -0.5572289157
        1.6279247324       -1.0179122942
        1.6128140845       -0.9926264926
        1.5977767727       -0.9674033160
        1.5827769614       -0.9422119375
        1.6431642413       -1.0433068962
        1.6586038823       -1.0688625720
        1.6743116137       -1.0946075455
        1.6903185669       -1.1204950908
        1.5677945658       -0.9170350863
        1.5528195652       -0.8918642793
        1.5378474468       -0.8666957802
        1.5228763613       -0.8415280944
        1.5079056152       -0.8163606743
        1.4929349684       -0.7911933346
        1.4779643400       -0.7660260165
        1.7065936280       -1.1463603088
        1.4629936954       -0.7408587016
        1.7230706827       -1.1719409993
        1.4480230027       -0.7156913836
        1.4330522128       -0.6905240613
        1.4180812410       -0.6653567385
        1.4031099431       -0.6401894276
        1.3881380742       -0.6150221512
        1.7397537893       -1.1969915099
        1.2558008946       -0.5913965638
        1.2852195587       -0.5910041682
        1.0915128150       -0.5691844648
        1.1214565457       -0.5683486219
        1.1513956658       -0.5676882682
        1.0463124650       -0.5440830723
        1.0195919785       -0.5428041731
        1.3145657954       -0.5906189709
        1.7568364439       -1.2214059965
        1.3438740884       -0.5902365111
        1.3731652285       -0.5898549391
        1.1813006102       -0.5671426761
        1.2110865199       -0.5666706623
        1.2407099307       -0.5662441367
        1.0765291547       -0.5441219562
        1.0000000000       -0.5271084337
        1.6572098060       -1.0175447355
        1.6420981439       -0.9922521753
        1.6270593970       -0.9670251856
        1.6120586296       -0.9418319404
        1.5970757409       -0.9166542801
        1.6724462973       -1.0429492545
        1.6878693809       -1.0685155562
        1.7035280923       -1.0942646927
        1.7194257591       -1.1201391912
        1.5821005228       -0.8914831606
        1.5671283193       -0.8663145545
        1.5521572042       -0.8411468368
        1.5371864504       -0.8159794089
        1.5222158062       -0.7908120685
        1.5072451908       -0.7656447524
        1.4922745780       -0.7404774421
        1.7355071884       -1.1459696958
        1.4773039548       -0.7153101321
        1.7517181048       -1.1715155681
        1.4623333062       -0.6901428209
        1.4473626067       -0.6649755089
        1.4323918104       -0.6398081987
        1.4174208352       -0.6146408961
        1.4024495392       -0.5894736096
        1.7681700873       -1.1965921070
        1.2701884329       -0.5658428664
        1.2995682109       -0.5654538131
        1.1061598138       -0.5433454351
        1.1360104961       -0.5426346973
        1.1659615186       -0.5420448610
        1.0266604630       -0.5139588099
        1.0621392661       -0.5184938297
        1.3288927239       -0.5650698841
        1.7853670262       -1.2211269328
        1.3581907625       -0.5646878214
        1.3874776848       -0.5643063486
        1.1958491167       -0.5415416134
        1.2255753824       -0.5410955361
        1.2551304917       -0.5406836411
        1.0911569927       -0.5180137197
        1.0000000000       -0.4969879518
        1.6864858801       -1.0171720947
        1.6713789981       -0.9918760769
        1.6563409765       -0.9666465135
        1.6413399839       -0.9414518115
        1.6263568281       -0.9162734564
        1.6113814570       -0.8911020475
        1.7017053520       -1.0425787025
        1.7170816387       -1.0681391543
        1.7326334283       -1.0938619595
        1.7483235140       -1.1196740123
        1.5964091855       -0.8659333346
        1.5814380447       -0.8407655821
        1.5664672825       -0.8155981443
        1.5514966367       -0.7904308017
        1.5365260235       -0.7652634856
        1.5215554178       -0.7400961763
        1.5065848114       -0.7149288684
        1.7640589380       -1.1453987869
        1.4916141994       -0.6897615604
        1.7797694948       -1.1708182548
        1.4766435747       -0.6645942521
        1.4616729241       -0.6394269439
        1.4467022234       -0.6142596370
        1.4317314280       -0.5890923337
        1.4167604595       -0.5639250363
        1.7956190769       -1.1958478072
        1.2845566279       -0.5402895905
        1.3139049807       -0.5399036166
        1.1207032972       -0.5174546091
        1.1506020431       -0.5169120896
        1.1805610208       -0.5164071034
        1.0492107303       -0.4944089134
        1.0762370272       -0.4922050750
        1.0248716468       -0.4828299811
        1.3432137174       -0.5395208228
        1.8125953001       -1.2206973920
        1.3725048967       -0.5391391215
        1.4017891869       -0.5387577472
        1.2103930052       -0.5159482447
        1.2400393766       -0.5155261091
        1.2695261814       -0.5151263388
        1.1053073067       -0.4920900060
        1.0000000000       -0.4668674699
        1.7157484948       -1.0167920933
        1.7006547550       -0.9914971568
        1.6856208068       -0.9662668719
        1.6706207918       -0.9410713881
        1.6556377593       -0.9158925567
        1.6406623502       -0.8907209197
        1.6256900416       -0.8655521140
        1.7309323745       -1.0421909018
        1.7462256532       -1.0677265319
        1.7616093891       -1.0933909764
        1.7770022548       -1.1190906833
        1.6107188826       -0.8403843285
        1.5957481135       -0.8152168804
        1.5807774657       -0.7900495350
        1.5658068524       -0.7648822184
        1.5508362480       -0.7397149091
        1.5358656453       -0.7145476016
        1.5208950417       -0.6893802944
        1.7922664991       -1.1446236970
        1.5059244354       -0.6642129872
        1.8072446919       -1.1697035104
        1.4909538229       -0.6390456799
        1.4759831978       -0.6138783728
        1.4610125476       -0.5887110663
        1.4460418490       -0.5635437610
        1.4310710614       -0.5383764574
        1.8217328035       -1.1939569146
        1.2989080438       -0.5147377697
        1.3282327364       -0.5143539746
        1.1351791561       -0.4917260925
        1.1652134391       -0.4912613881
        1.1951563338       -0.4908009887
        1.0575683672       -0.4672195166
        1.0891014537       -0.4670131908
        1.0255431806       -0.4520975944
        1.3575306076       -0.5139719398
        1.8354245234       -1.2167730916
        1.3868174009       -0.5135904694
        1.4161001156       -0.5132091561
        1.2249078033       -0.4903703373
        1.2544709265       -0.4899643211
        1.2838981924       -0.4895725178
        1.1195908105       -0.4666075422
        1.0000000000       -0.4367469880
        1.8583270796       -1.2204299787
        1.8485101951       -1.1938121079
        1.7449942661       -1.0164042956
        1.7299235785       -0.9911148549
        1.7148980815       -0.9658859329
        1.6999007508       -0.9406905214
        1.6849184352       -0.9155115228
        1.6699431736       -0.8903397566
        1.6549708804       -0.8651708858
        1.6399997165       -0.8400030738
        1.7601231534       -1.0417875076
        1.7753017563       -1.0672878961
        1.7904775479       -1.0928870506
        1.8055437278       -1.1184873782
        1.6250289436       -0.8148356166
        1.6100582942       -0.7896682684
        1.5950876805       -0.7645009511
        1.5801170762       -0.7393336417
        1.5651464742       -0.7141663342
        1.5501758724       -0.6889990272
        1.5352052701       -0.6638317202
        1.8203596215       -1.1439017434
        1.5202346666       -0.6386644132
        1.8347812262       -1.1689352710
        1.5052640602       -0.6134971062
        1.4902934478       -0.5883297993
        1.4753228232       -0.5631624926
        1.4603521752       -0.5379951861
        1.4453814833       -0.5128278800
        1.3132459023       -0.4891873575
        1.3425539695       -0.4888048332
        1.1497888508       -0.4661302704
        1.1798542995       -0.4656588153
        1.2097247784       -0.4652176568
        1.0753647724       -0.4420852936
        1.0491516151       -0.4395139238
        1.1044439325       -0.4415720692
        1.0290080974       -0.4195742135
        1.3718447715       -0.4884232123
        1.4011288976       -0.4880418593
        1.4304107122       -0.4876605747
        1.2393821179       -0.4648041817
        1.2688698756       -0.4644082210
        1.2982502747       -0.4640211469
        1.1343804798       -0.4410154764
        1.0000000000       -0.4066265060
        1.8746883658       -1.1954138927
        1.8855812186       -1.2205739974
        1.8623404384       -1.1693744166
        1.7742229207       -1.0160123302
        1.7591845289       -0.9907299531
        1.7441721767       -0.9655037598
        1.7291795671       -0.9403091624
        1.7141987429       -0.9151303181
        1.6992238903       -0.8899585415
        1.6842516911       -0.8647896437
        1.6692805438       -0.8396218160
        1.6543097722       -0.8144543521
        1.7892820193       -1.0413811065
        1.8043290675       -1.0668597255
        1.8192906993       -1.0924428226
        1.8340564831       -1.1180787484
        1.6393391224       -0.7892870017
        1.6243685084       -0.7641196837
        1.6093979041       -0.7389523742
        1.5944273022       -0.7137850667
        1.5794567007       -0.6886177597
        1.5644860992       -0.6634504528
        1.5495154975       -0.6382831458
        1.8484908905       -1.1436998074
        1.5345448953       -0.6131158389
        1.5195742917       -0.5879485320