TITLE = "Visualization of the volumetric solution"
VARIABLES = "x","y","Density","Momentum_x","Momentum_y","Energy","Pressure","Temperature","Mach","C<sub>p</sub>","Roe_Dissipation"
ZONE NODES= 3200, ELEMENTS= 3081, DATAPACKING=POINT, ZONETYPE=FEQUADRILATERAL
-2.000000e+00	1.250000e+00	1.225093e+00	4.167397e+01	-2.283911e-12	2.540224e+05	1.013254e+05	2.881241e+02	9.996711e-02	5.864033e-04	0.000000e+00	
-2.000000e+00	1.218354e+00	1.225093e+00	4.167397e+01	4.341622e-10	2.540224e+05	1.013254e+05	2.881241e+02	9.996711e-02	5.864034e-04	0.000000e+00	
-1.948718e+00	1.218354e+00	1.225093e+00	4.167397e+01	1.587632e-10	2.540224e+05	1.013254e+05	2.881241e+02	9.996711e-02	5.864044e-04	0.000000e+00	
-1.948718e+00	1.250000e+00	1.225093e+00	4.167397e+01	-1.994410e-10	2.540224e+05	1.013254e+05	2.881241e+02	9.996711e-02	5.864044e-04	0.000000e+00	
-2.000000e+00	1.186709e+00	1.225093e+00	4.167397e+01	3.908991e-10	2.540224e+05	1.013254e+05	2.881241e+02	9.996711e-02	5.864034e-04	0.000000e+00	
-1.948718e+00	1.186709e+00	1.225093e+00	4.167397e+01	7.377040e-11	2.540224e+05	1.013254e+05	2.881241e+02	9.996711e-02	5.864044e-04	0.000000e+00	
-2.000000e+00	1.155063e+00	1.225093e+00	4.167397e+01	2.508671e-10	2.540224e+05	1.013254e+05	2.881241e+02	9.996711e-02	5.864034e-04	0.000000e+00	
-1.948718e+00	1.155063e+00	1.225093e+00	4.167397e+01	-5.581526e-11	2.540224e+05	1.013254e+05	2.881241e+02	9.996711e-02	5.864044e-04	0.000000e+00	
-2.000000e+00	1.123418e+00	1.225093e+00	4.167397e+01	1.285298e-10	2.540224e+05	1.013254e+05	2.881241e+02	9.996711e-02	5.864034e-04	0.000000e+00	
-1.948718e+00	1.123418e+00	1.225093e+00	4.167397e+01	-2.084766e-10	2.540224e+05	1.013254e+05	2.881241e+02	9.996711e-02	5.864044e-04	0.000000e+00	
-2.000000e+00	1.091772e+00	1.225093e+00	4.167397e+01	5.778253e-11	2.540224e+05	1.013254e+05	2.881241e+02	9.996711e-02	5.864034e-04	0.000000e+00	
-1.948718e+00	1.091772e+00	1.225093e+00	4.167397e+01	-3.069506e-10	2.540224e+05	1.013254e+05	2.881241e+02	9.996711e-02	5.864044e-04	0.000000e+00	
-2.000000e+00	1.060127e+00	1.225093e+00	4.167397e+01	1.689305e-11	2.540224e+05	1.013254e+05	2.881241e+02	9.996711e-02	5.864034e-04	0.000000e+00	
-1.948718e+00	1.060127e+00	1.225093e+00	4.167397e+01	-3.856187e-10	2.540224e+05	1.013254e+05	2.881241e+02	9.996711e-02	5.864044e-04	0.000000e+00	
-2.000000e+00	1.028481e+00	1.225093e+00	4.167397e+01	-3.909027e-12	2.540224e+05	1.013254e+05	2.881241e+02	9.996711e-02	5.864034e-04	0.000000e+00	
-1.948718e+00	1.028481e+00	1.225093e+00	4.167397e+01	-4.400988e-10	2.540224e+05	1.013254e+05	2.881241e+02	9.996711e-02	5.864044e-04	0.000000e+00	
-2.000000e+00	9.968354e-01	1.225093e+00	4.167397e+01	-1.252482e-11	2.540224e+05	1.013254e+05	2.881241e+02	9.996711e-02	5.864034e-04	0.000000e+00	
-1.948718e+00	9.968354e-01	1.225093e+00	4.167397e+01	-4.792742e-10	2.540224e+05	1.013254e+05	2.881241e+02	9.996711e-02	5.864044e-04	0.000000e+00	
-2.000000e+00	9.651899e-01	1.225093e+00	4.167397e+01	-1.286459e-11	2.540224e+05	1.013254e+05	2.881241e+02	9.996711e-02	5.864034e-04	0.000000e+00	
-1.948718e+00	9.651899e-01	1.225093e+00	4.167397e+01	-5.007776e-10	2.540224e+05	1.013254e+05	2.881241e+02	9.996711e-02	5.864044e-04	0.000000e+00	
-2.000000e+00	9.335443e-01	1.225093e+00	4.167397e+01	-9.739046e-12	2.540224e+05	1.013254e+05	2.881241e+02	9.996711e-02	5.864033e-04	0.000000e+00	
-1.948718e+00	9.335443e-01	1.225093e+00	4.167397e+01	-5.110319e-10	2.540224e+05	1.013254e+05	2.881241e+02	9.996711e-02	5.864044e-04	0.000000e+00	
-2.000000e+00	9.018987e-01	1.225093e+00	4.167397e+01	-6.293531e-12	2.540224e+05	1.013254e+05	2.881241e+02	9.996711e-02	5.864033e-04	0.000000e+00	
-1.948718e+00	9.018987e-01	1.225093e+00	4.167397e+01	-5.132527e-10	2.540224e+05	1.013254e+05	2.881241e+02	9.996711e-02	5.864043e-04	0.000000e+00	
-2.000000e+00	8.702532e-01	1.225093e+00	4.167397e+01	-3.955495e-12	2.540224e+05	1.013254e+05	2.881241e+02	9.996711e-02	5.864033e-04	0.000000e+00	
-1.948718e+00	8.702532e-01	1.225093e+00	4.167397e+01	-5.116218e-10	2.540224e+05	1.013254e+05	2.881241e+02	9.996711e-02	5.864043e-04	0.000000e+00	
-2.000000e+00	8.386076e-01	1.225093e+00	4.167397e+01	-2.800479e-12	2.540224e+05	1.013254e+05	2.881241e+02	9.996711e-02	5.864033e-04	0.000000e+00	
-1.948718e+00	8.386076e-01	1.225093e+00	4.167397e+01	-5.071127e-10	2.540224e+05	1.013254e+05	2.881241e+02	9.996711e-02	5.864043e-04	0.000000e+00	
-2.000000e+00	8.069620e-01	1.225093e+00	4.167397e+01	-2.545045e-12	2.540224e+05	1.013254e+05	2.881241e+02	9.996711e-02	5.864033e-04	0.000000e+00	
-1.948718e+00	8.069620e-01	1.225093e+00	4.167397e+01	-5.005899e-10	2.540224e+05	1.013254e+05	2.881241e+02	9.996711e-02	5.864043e-04	0.000000e+00	
-2.000000e+00	7.753165e-01	1.225093e+00	4.167397e+01	-2.574516e-12	2.540224e+05	1.013254e+05	2.881241e+02	9.996711e-02	5.864033e-04	0.000000e+00	
-1.948718e+00	7.753165e-01	1.225093e+00	4.167397e+01	-4.915690e-10	2.540224e+05	1.013254e+05	2.881241e+02	9.996711e-02	5.864043e-04	0.000000e+00	
-2.000000e+00	7.436709e-01	1.225093e+00	4.167397e+01	-2.485142e-12	2.540224e+05	1.013254e+05	2.881241e+02	9.996711e-02	5.864032e-04	0.000000e+00	
-1.948718e+00	7.436709e-01	1.225093e+00	4.167397e+01	-4.802417e-10	2.540224e+05	1.013254e+05	2.881241e+02	9.996711e-02	5.864043e-04	0.000000e+00	
-2.000000e+00	7.120253e-01	1.225093e+00	4.167397e+01	-2.378327e-12	2.540224e+05	1.013254e+05	2.881241e+02	9.996711e-02	5.864032e-04	0.000000e+00	
-1.948718e+00	7.120253e-01	1.225093e+00	4.167397e+01	-4.663902e-10	2.540224e+05	1.013254e+05	2.881241e+02	9.996711e-02	5.864043e-04	0.000000e+00	
-2.000000e+00	6.803797e-01	1.225093e+00	4.167397e+01	-2.201860e-12	2.540224e+05	1.013254e+05	2.881241e+02	9.996711e-02	5.864032e-04	0.000000e+00	
-1.948718e+00	6.803797e-01	1.225093e+00	4.167397e+01	-4.505916e-10	2.540224e+05	1.013254e+05	2.881241e+02	9.996711e-02	5.864042e-04	0.000000e+00	
-2.000000e+00	6.487342e-01	1.225093e+00	4.167397e+01	-2.009832e-12	2.540224e+05	1.013254e+05	2.881241e+02	9.996711e-02	5.864032e-04	0.000000e+00	
-1.948718e+00	6.487342e-01	1.225093e+00	4.167397e+01	-4.326740e-10	2.540224e+05	1.013254e+05	2.881241e+02	9.996711e-02	5.864042e-04	0.000000e+00	
-2.000000e+00	6.170886e-01	1.225093e+00	4.167397e+01	-2.047948e-12	2.540224e+05	1.013254e+05	2.881241e+02	9.996711e-02	5.864032e-04	0.000000e+00	
-1.948718e+00	6.170886e-01	1.225093e+00	4.167397e+01	-4.131498e-10	2.540224e+05	1.013254e+05	2.881241e+02	9.996711e-02	5.864042e-04	0.000000e+00	
-2.000000e+00	5.854430e-01	1.225093e+00	4.167397e+01	-2.027726e-12	2.540224e+05	1.013254e+05	2.881241e+02	9.996711e-02	5.864032e-04	0.000000e+00	
-1.948718e+00	5.854430e-01	1.225093e+00	4.167397e+01	-3.919099e-10	2.540224e+05	1.013254e+05	2.881241e+02	9.996711e-02	5.864042e-04	0.000000e+00	
-2.000000e+00	5.537975e-01	1.225093e+00	4.167397e+01	-1.940613e-12	2.540224e+05	1.013254e+05	2.881241e+02	9.996711e-02	5.864032e-04	0.000000e+00	
-1.948718e+00	5.537975e-01	1.225093e+00	4.167397e+01	-3.689580e-10	2.540224e+05	1.013254e+05	2.881241e+02	9.996711e-02	5.864042e-04	0.000000e+00	
-2.000000e+00	5.221519e-01	1.225093e+00	4.167397e+01	-1.657777e-12	2.540224e+05	1.013254e+05	2.881241e+02	9.996711e-02	5.864032e-04	0.000000e+00	
-1.948718e+00	5.221519e-01	1.225093e+00	4.167397e+01	-3.444690e-10	2.540224e+05	1.013254e+05	2.881241e+02	9.996711e-02	5.864042e-04	0.000000e+00	
-2.000000e+00	4.905063e-01	1.225093e+00	4.167397e+01	-1.602612e-12	2.540224e+05	1.013254e+05	2.881241e+02	9.996711e-02	5.864031e-04	0.000000e+00	
-1.948718e+00	4.905063e-01	1.225093e+00	4.167397e+01	-3.186011e-10	2.540224e+05	1.013254e+05	2.881241e+02	9.996711e-02	5.864042e-04	0.000000e+00	
-2.000000e+00	4.588608e-01	1.225093e+00	4.167397e+01	-1.367819e-12	2.540224e+05	1.013254e+05	2.881241e+02	9.996711e-02	5.864031e-04	0.000000e+00	
-1.948718e+00	4.588608e-01	1.225093e+00	4.167397e+01	-2.914791e-10	2.540224e+05	1.013254e+05	2.881241e+02	9.996711e-02	5.864042e-04	0.000000e+00	
-2.000000e+00	4.272152e-01	1.225093e+00	4.167397e+01	-1.381708e-12	2.540224e+05	1.013254e+05	2.881241e+02	9.996711e-02	5.864031e-04	0.000000e+00	
-1.948718e+00	4.272152e-01	1.225093e+00	4.167397e+01	-2.633276e-10	2.540224e+05	1.013254e+05	2.881241e+02	9.996711e-02	5.864042e-04	0.000000e+00	
-2.000000e+00	3.955696e-01	1.225093e+00	4.167397e+01	-1.221294e-12	2.540224e+05	1.013254e+05	2.881241e+02	9.996711e-02	5.864031e-04	0.000000e+00	
-1.948718e+00	3.955696e-01	1.225093e+00	4.167397e+01	-2.340194e-10	2.540224e+05	1.013254e+05	2.881241e+02	9.996711e-02	5.864041e-04	0.000000e+00	
-2.000000e+00	3.639241e-01	1.225093e+00	4.167397e+01	-1.384871e-12	2.540224e+05	1.013254e+05	2.881241e+02	9.996711e-02	5.864031e-04	0.000000e+00	
-1.948718e+00	3.639241e-01	1.225093e+00	4.167397e+01	-2.038134e-10	2.540224e+05	1.013254e+05	2.881241e+02	9.996711e-02	5.864041e-04	0.000000e+00	
-2.000000e+00	3.322785e-01	1.225093e+00	4.167397e+01	-1.139168e-12	2.540224e+05	1.013254e+05	2.881241e+02	9.996711e-02	5.864031e-04	0.000000e+00	
-1.948718e+00	3.322785e-01	1.225093e+00	4.167397e+01	-1.727120e-10	2.540224e+05	1.013254e+05	2.881241e+02	9.996711e-02	5.864041e-04	0.000000e+00	
-2.000000e+00	3.006329e-01	1.225093e+00	4.167397e+01	-7.546520e-13	2.540224e+05	1.013254e+05	2.881241e+02	9.996711e-02	5.864031e-04	0.000000e+00	
-1.948718e+00	3.006329e-01	1.225093e+00	4.167397e+01	-1.405868e-10	2.540224e+05	1.013254e+05	2.881241e+02	9.996711e-02	5.864041e-04	0.000000e+00	
-2.000000e+00	2.689873e-01	1.225093e+00	4.167397e+01	-6.371186e-13	2.540224e+05	1.013254e+05	2.881241e+02	9.996711e-02	5.864031e-04	0.000000e+00	
-1.948718e+00	2.689873e-01	1.225093e+00	4.167397e+01	-1.083020e-10	2.540224e+05	1.013254e+05	2.881241e+02	9.996711e-02	5.864041e-04	0.000000e+00	
-2.000000e+00	2.373418e-01	1.225093e+00	4.167397e+01	-6.021940e-13	2.540224e+05	1.013254e+05	2.881241e+02	9.996711e-02	5.864031e-04	0.000000e+00	
-1.948718e+00	2.373418e-01	1.225093e+00	4.167397e+01	-7.543398e-11	2.540224e+05	1.013254e+05	2.881241e+02	9.996711e-02	5.864041e-04	0.000000e+00	
-2.000000e+00	2.056962e-01	1.225093e+00	4.167397e+01	-6.134454e-13	2.540224e+05	1.013254e+05	2.881241e+02	9.996711e-02	5.864031e-04	0.000000e+00	
-1.948718e+00	2.056962e-01	1.225093e+00	4.167397e+01	-4.245392e-11	2.540224e+05	1.013254e+05	2.881241e+02	9.996711e-02	5.864041e-04	0.000000e+00	
-2.000000e+00	1.740506e-01	1.225093e+00	4.167397e+01	-2.905617e-13	2.540224e+05	1.013254e+05	2.881241e+02	9.996711e-02	5.864031e-04	0.000000e+00	
-1.948718e+00	1.740506e-01	1.225093e+00	4.167397e+01	-8.937522e-12	2.540224e+05	1.013254e+05	2.881241e+02	9.996711e-02	5.864041e-04	0.000000e+00	
-2.000000e+00	1.424051e-01	1.225093e+00	4.167397e+01	-7.950744e-14	2.540224e+05	1.013254e+05	2.881241e+02	9.996711e-02	5.864031e-04	0.000000e+00	
-1.948718e+00	1.424051e-01	1.225093e+00	4.167397e+01	2.449479e-11	2.540224e+05	1.013254e+05	2.881241e+02	9.996711e-02	5.864041e-04	0.000000e+00	
-2.000000e+00	1.107595e-01	1.225093e+00	4.167397e+01	5.015550e-14	2.540224e+05	1.013254e+05	2.881241e+02	9.996711e-02	5.864031e-04	0.000000e+00	
-1.948718e+00	1.107595e-01	1.225093e+00	4.167397e+01	5.786924e-11	2.540224e+05	1.013254e+05	2.881241e+02	9.996711e-02	5.864041e-04	0.000000e+00	
-2.000000e+00	7.911392e-02	1.225093e+00	4.167397e+01	3.195533e-13	2.540224e+05	1.013254e+05	2.881241e+02	9.996711e-02	5.864031e-04	0.000000e+00	
-1.948718e+00	7.911392e-02	1.225093e+00	4.167397e+01	9.087381e-11	2.540224e+05	1.013254e+05	2.881241e+02	9.996711e-02	5.864041e-04	0.000000e+00	
-2.000000e+00	4.746835e-02	1.225093e+00	4.167397e+01	7.105217e-13	2.540224e+05	1.013254e+05	2.881241e+02	9.996711e-02	5.864031e-04	0.000000e+00	
-1.948718e+00	4.746835e-02	1.225093e+00	4.167397e+01	1.237724e-10	2.540224e+05	1.013254e+05	2.881241e+02	9.996711e-02	5.864041e-04	0.000000e+00	
-2.000000e+00	1.582278e-02	1.225093e+00	4.167397e+01	8.020496e-13	2.540224e+05	1.013254e+05	2.881241e+02	9.996711e-02	5.864031e-04	0.000000e+00	
-1.948718e+00	1.582278e-02	1.225093e+00	4.167397e+01	1.557417e-10	2.540224e+05	1.013254e+05	2.881241e+02	9.996711e-02	5.864041e-04	0.000000e+00	
-2.000000e+00	-1.582278e-02	1.225093e+00	4.167397e+01	9.734629e-13	2.540224e+05	1.013254e+05	2.881241e+02	9.996711e-02	5.864031e-04	0.000000e+00	
-1.948718e+00	-1.582278e-02	1.225093e+00	4.167397e+01	1.871330e-10	2.540224e+05	1.013254e+05	2.881241e+02	9.996711e-02	5.864041e-04	0.000000e+00	
-2.000000e+00	-4.746835e-02	1.225093e+00	4.167397e+01	1.398589e-12	2.540224e+05	1.013254e+05	2.881241e+02	9.996711e-02	5.864031e-04	0.000000e+00	
-1.948718e+00	-4.746835e-02	1.225093e+00	4.167397e+01	2.176859e-10	2.540224e+05	1.013254e+05	2.881241e+02	9.996711e-02	5.864041e-04	0.000000e+00	
-2.000000e+00	-7.911392e-02	1.225093e+00	4.167397e+01	1.457119e-12	2.540224e+05	1.013254e+05	2.881241e+02	9.996711e-02	5.864031e-04	0.000000e+00	
-1.948718e+00	-7.911392e-02	1.225093e+00	4.167397e+01	2.471305e-10	2.540224e+05	1.013254e+05	2.881241e+02	9.996711e-02	5.864042e-04	0.000000e+00	
-2.000000e+00	-1.107595e-01	1.225093e+00	4.167397e+01	1.668882e-12	2.540224e+05	1.013254e+05	2.881241e+02	9.996711e-02	5.864031e-04	0.000000e+00	
-1.948718e+00	-1.107595e-01	1.225093e+00	4.167397e+01	2.752466e-10	2.540224e+05	1.013254e+05	2.881241e+02	9.996711e-02	5.864042e-04	0.000000e+00	
-2.000000e+00	-1.424051e-01	1.225093e+00	4.167397e+01	2.061560e-12	2.540224e+05	1.013254e+05	2.881241e+02	9.996711e-02	5.864031e-04	0.000000e+00	
-1.948718e+00	-1.424051e-01	1.225093e+00	4.167397e+01	3.022687e-10	2.540224e+05	1.013254e+05	2.881241e+02	9.996711e-02	5.864042e-04	0.000000e+00	
-2.000000e+00	-1.740506e-01	1.225093e+00	4.167397e+01	2.310744e-12	2.540224e+05	1.013254e+05	2.881241e+02	9.996711e-02	5.864031e-04	0.000000e+00	
-1.948718e+00	-1.740506e-01	1.225093e+00	4.167397e+01	3.275935e-10	2.540224e+05	1.013254e+05	2.881241e+02	9.996711e-02	5.864042e-04	0.000000e+00	
-2.000000e+00	-2.056962e-01	1.225093e+00	4.167397e+01	2.498907e-12	2.540224e+05	1.013254e+05	2.881241e+02	9.996711e-02	5.864032e-04	0.000000e+00	
-1.948718e+00	-2.056962e-01	1.225093e+00	4.167397e+01	3.512545e-10	2.540224e+05	1.013254e+05	2.881241e+02	9.996711e-02	5.864042e-04	0.000000e+00	
-2.000000e+00	-2.373418e-01	1.225093e+00	4.167397e+01	2.794703e-12	2.540224e+05	1.013254e+05	2.881241e+02	9.996711e-02	5.864032e-04	0.000000e+00	
-1.948718e+00	-2.373418e-01	1.225093e+00	4.167397e+01	3.730613e-10	2.540224e+05	1.013254e+05	2.881241e+02	9.996711e-02	5.864042e-04	0.000000e+00	
-2.000000e+00	-2.689873e-01	1.225093e+00	4.167397e+01	3.002167e-12	2.540224e+05	1.013254e+05	2.881241e+02	9.996711e-02	5.864032e-04	0.000000e+00	
-1.948718e+00	-2.689873e-01	1.225093e+00	4.167397e+01	3.929573e-10	2.540224e+05	1.013254e+05	2.881241e+02	9.996711e-02	5.864042e-04	0.000000e+00	
-2.000000e+00	-3.006329e-01	1.225093e+00	4.167397e+01	3.011159e-12	2.540224e+05	1.013254e+05	2.881241e+02	9.996711e-02	5.864032e-04	0.000000e+00	
-1.948718e+00	-3.006329e-01	1.225093e+00	4.167397e+01	4.104778e-10	2.540224e+05	1.013254e+05	2.881241e+02	9.996711e-02	5.864042e-04	0.000000e+00	
-2.000000e+00	-3.322785e-01	1.225093e+00	4.167397e+01	3.159198e-12	2.540224e+05	1.013254e+05	2.881241e+02	9.996711e-02	5.864032e-04	0.000000e+00	
-1.948718e+00	-3.322785e-01	1.225093e+00	4.167397e+01	4.259812e-10	2.540224e+05	1.013254e+05	2.881241e+02	9.996711e-02	5.864042e-04	0.000000e+00	
-2.000000e+00	-3.639241e-01	1.225093e+00	4.167397e+01	3.052845e-12	2.540224e+05	1.013254e+05	2.881241e+02	9.996711e-02	5.864032e-04	0.000000e+00	
-1.948718e+00	-3.639241e-01	1.225093e+00	4.167397e+01	4.389778e-10	2.540224e+05	1.013254e+05	2.881241e+02	9.996711e-02	5.864042e-04	0.000000e+00	
-2.000000e+00	-3.955696e-01	1.225093e+00	4.167397e+01	3.233076e-12	2.540224e+05	1.013254e+05	2.881241e+02	9.996711e-02	5.864032e-04	0.000000e+00	
-1.948718e+00	-3.955696e-01	1.225093e+00	4.167397e+01	4.498403e-10	2.540224e+05	1.013254e+05	2.881241e+02	9.996711e-02	5.864043e-04	0.000000e+00	
-2.000000e+00	-4.272152e-01	1.225093e+00	4.167397e+01	3.162803e-12	2.540224e+05	1.013254e+05	2.881241e+02	9.996711e-02	5.864032e-04	0.000000e+00	
-1.948718e+00	-4.272152e-01	1.225093e+00	4.167397e+01	4.579177e-10	2.540224e+05	1.013254e+05	2.881241e+02	9.996711e-02	5.864043e-04	0.000000e+00	
-2.000000e+00	-4.588608e-01	1.225093e+00	4.167397e+01	3.278540e-12	2.540224e+05	1.013254e+05	2.881241e+02	9.996711e-02	5.864033e-04	0.000000e+00	
-1.948718e+00	-4.588608e-01	1.225093e+00	4.167397e+01	4.637528e-10	2.540224e+05	1.013254e+05	2.881241e+02	9.996711e-02	5.864043e-04	0.000000e+00	
-2.000000e+00	-4.905063e-01	1.225093e+00	4.167397e+01	3.226633e-12	2.540224e+05	1.013254e+05	2.881241e+02	9.996711e-02	5.864033e-04	0.000000e+00	
-1.948718e+00	-4.905063e-01	1.225093e+00	4.167397e+01	4.668397e-10	2.540224e+05	1.013254e+05	2.881241e+02	9.996711e-02	5.864043e-04	0.000000e+00	
-2.000000e+00	-5.221519e-01	1.225093e+00	4.167397e+01	2.949250e-12	2.540224e+05	1.013254e+05	2.881241e+02	9.996711e-02	5.864033e-04	0.000000e+00	
-1.948718e+00	-5.221519e-01	1.225093e+00	4.167397e+01	4.671448e-10	2.540224e+05	1.013254e+05	2.881241e+02	9.996711e-02	5.864043e-04	0.000000e+00	
-2.000000e+00	-5.537975e-01	1.225093e+00	4.167397e+01	3.039869e-12	2.540224e+05	1.013254e+05	2.881241e+02	9.996711e-02	5.864033e-04	0.000000e+00	
-1.948718e+00	-5.537975e-01	1.225093e+00	4.167397e+01	4.651902e-10	2.540224e+05	1.013254e+05	2.881241e+02	9.996711e-02	5.864043e-04	0.000000e+00	
-2.000000e+00	-5.854430e-01	1.225093e+00	4.167397e+01	3.067678e-12	2.540224e+05	1.013254e+05	2.881241e+02	9.996711e-02	5.864033e-04	0.000000e+00	
-1.948718e+00	-5.854430e-01	1.225093e+00	4.167397e+01	4.603666e-10	2.540224e+05	1.013254e+05	2.881241e+02	9.996711e-02	5.864043e-04	0.000000e+00	
-2.000000e+00	-6.170886e-01	1.225093e+00	4.167397e+01	2.730020e-12	2.540224e+05	1.013254e+05	2.881241e+02	9.996711e-02	5.864033e-04	0.000000e+00	
-1.948718e+00	-6.170886e-01	1.225093e+00	4.167397e+01	4.529135e-10	2.540224e+05	1.013254e+05	2.881241e+02	9.996711e-02	5.864044e-04	0.000000e+00	
-2.000000e+00	-6.487342e-01	1.225093e+00	4.167397e+01	2.483992e-12	2.540224e+05	1.013254e+05	2.881241e+02	9.996711e-02	5.864033e-04	0.000000e+00	
-1.948718e+00	-6.487342e-01	1.225093e+00	4.167397e+01	4.430311e-10	2.540224e+05	1.013254e+05	2.881241e+02	9.996711e-02	5.864044e-04	0.000000e+00	
-2.000000e+00	-6.803797e-01	1.225093e+00	4.167397e+01	2.222243e-12	2.540224e+05	1.013254e+05	2.881241e+02	9.996711e-02	5.864034e-04	0.000000e+00	
-1.948718e+00	-6.803797e-01	1.225093e+00	4.167397e+01	4.306367e-10	2.540224e+05	1.013254e+05	2.881241e+02	9.996711e-02	5.864044e-04	0.000000e+00	
-2.000000e+00	-7.120253e-01	1.225093e+00	4.167397e+01	1.969332e-12	2.540224e+05	1.013254e+05	2.881241e+02	9.996711e-02	5.864034e-04	0.000000e+00	
-1.948718e+00	-7.120253e-01	1.225093e+00	4.167397e+01	4.160446e-10	2.540224e+05	1.013254e+05	2.881241e+02	9.996711e-02	5.864044e-04	0.000000e+00	
-2.000000e+00	-7.436709e-01	1.225093e+00	4.167397e+01	1.699588e-12	2.540224e+05	1.013254e+05	2.881241e+02	9.996711e-02	5.864034e-04	0.000000e+00	
-1.948718e+00	-7.436709e-01	1.225093e+00	4.167397e+01	3.990686e-10	2.540224e+05	1.013254e+05	2.881241e+02	9.996711e-02	5.864044e-04	0.000000e+00	
-2.000000e+00	-7.753165e-01	1.225093e+00	4.167397e+01	1.507875e-12	2.540224e+05	1.013254e+05	2.881241e+02	9.996711e-02	5.864034e-04	0.000000e+00	
-1.948718e+00	-7.753165e-01	1.225093e+00	4.167397e+01	3.798161e-10	2.540224e+05	1.013254e+05	2.881241e+02	9.996711e-02	5.864044e-04	0.000000e+00	
-2.000000e+00	-8.069620e-01	1.225093e+00	4.167397e+01	1.110244e-12	2.540224e+05	1.013254e+05	2.881241e+02	9.996711e-02	5.864034e-04	0.000000e+00	
-1.948718e+00	-8.069620e-01	1.225093e+00	4.167397e+01	3.583085e-10	2.540224e+05	1.013254e+05	2.881241e+02	9.996711e-02	5.864044e-04	0.000000e+00	
-2.000000e+00	-8.386076e-01	1.225093e+00	4.167397e+01	1.125977e-12	2.540224e+05	1.013254e+05	2.881241e+02	9.996711e-02	5.864034e-04	0.000000e+00	
-1.948718e+00	-8.386076e-01	1.225093e+00	4.167397e+01	3.350243e-10	2.540224e+05	1.013254e+05	2.881241e+02	9.996711e-02	5.864044e-04	0.000000e+00	
-2.000000e+00	-8.702532e-01	1.225093e+00	4.167397e+01	1.969097e-12	2.540224e+05	1.013254e+05	2.881241e+02	9.996711e-02	5.864034e-04	0.000000e+00	
-1.948718e+00	-8.702532e-01	1.225093e+00	4.167397e+01	3.103243e-10	2.540224e+05	1.013254e+05	2.881241e+02	9.996711e-02	5.864044e-04	0.000000e+00	
-2.000000e+00	-9.018987e-01	1.225093e+00	4.167397e+01	3.614012e-12	2.540224e+05	1.013254e+05	2.881241e+02	9.996711e-02	5.864034e-04	0.000000e+00	
-1.948718e+00	-9.018987e-01	1.225093e+00	4.167397e+01	2.839281e-10	2.540224e+05	1.013254e+05	2.881241e+02	9.996711e-02	5.864045e-04	0.000000e+00	
-2.000000e+00	-9.335443e-01	1.225093e+00	4.167397e+01	6.549410e-12	2.540224e+05	1.013254e+05	2.881241e+02	9.996711e-02	5.864034e-04	0.000000e+00	
-1.948718e+00	-9.335443e-01	1.225093e+00	4.167397e+01	2.549610e-10	2.540224e+05	1.013254e+05	2.881241e+02	9.996711e-02	5.864045e-04	0.000000e+00	
-2.000000e+00	-9.651899e-01	1.225093e+00	4.167397e+01	9.294585e-12	2.540224e+05	1.013254e+05	2.881241e+02	9.996711e-02	5.864035e-04	0.000000e+00	
-1.948718e+00	-9.651899e-01	1.225093e+00	4.167397e+01	2.197712e-10	2.540224e+05	1.013254e+05	2.881241e+02	9.996711e-02	5.864045e-04	0.000000e+00	
-2.000000e+00	-9.968354e-01	1.225093e+00	4.167397e+01	8.986618e-12	2.540224e+05	1.013254e+05	2.881241e+02	9.996711e-02	5.864035e-04	0.000000e+00	
-1.948718e+00	-9.968354e-01	1.225093e+00	4.167397e+01	1.754919e-10	2.540224e+05	1.013254e+05	2.881241e+02	9.996711e-02	5.864045e-04	0.000000e+00	
-2.000000e+00	-1.028481e+00	1.225093e+00	4.167397e+01	9.492679e-15	2.540224e+05	1.013254e+05	2.881241e+02	9.996711e-02	5.864035e-04	0.000000e+00	
-1.948718e+00	-1.028481e+00	1.225093e+00	4.167397e+01	1.154662e-10	2.540224e+05	1.013254e+05	2.881241e+02	9.996711e-02	5.864045e-04	0.000000e+00	
-2.000000e+00	-1.060127e+00	1.225093e+00	4.167397e+01	-2.100730e-11	2.540224e+05	1.013254e+05	2.881241e+02	9.996711e-02	5.864035e-04	0.000000e+00	
-1.948718e+00	-1.060127e+00	1.225093e+00	4.167397e+01	4.271079e-11	2.540224e+05	1.013254e+05	2.881241e+02	9.996711e-02	5.864045e-04	0.000000e+00	
-2.000000e+00	-1.091772e+00	1.225093e+00	4.167397e+01	-6.192457e-11	2.540224e+05	1.013254e+05	2.881241e+02	9.996711e-02	5.864035e-04	0.000000e+00	
-1.948718e+00	-1.091772e+00	1.225093e+00	4.167397e+01	-5.196853e-11	2.540224e+05	1.013254e+05	2.881241e+02	9.996711e-02	5.864045e-04	0.000000e+00	
-2.000000e+00	-1.123418e+00	1.225093e+00	4.167397e+01	-1.330163e-10	2.540224e+05	1.013254e+05	2.881241e+02	9.996711e-02	5.864035e-04	0.000000e+00	
-1.948718e+00	-1.123418e+00	1.225093e+00	4.167397e+01	-1.638209e-10	2.540224e+05	1.013254e+05	2.881241e+02	9.996711e-02	5.864045e-04	0.000000e+00	
-2.000000e+00	-1.155063e+00	1.225093e+00	4.167397e+01	-2.556366e-10	2.540224e+05	1.013254e+05	2.881241e+02	9.996711e-02	5.864035e-04	0.000000e+00	
-1.948718e+00	-1.155063e+00	1.225093e+00	4.167397e+01	-3.277203e-10	2.540224e+05	1.013254e+05	2.881241e+02	9.996711e-02	5.864045e-04	0.000000e+00	
-2.000000e+00	-1.186709e+00	1.225093e+00	4.167397e+01	-3.959879e-10	2.540224e+05	1.013254e+05	2.881241e+02	9.996711e-02	5.864034e-04	0.000000e+00	
-1.948718e+00	-1.186709e+00	1.225093e+00	4.167397e+01	-4.651377e-10	2.540224e+05	1.013254e+05	2.881241e+02	9.996711e-02	5.864044e-04	0.000000e+00	
-2.000000e+00	-1.218354e+00	1.225093e+00	4.167397e+01	-4.404234e-10	2.540224e+05	1.013254e+05	2.881241e+02	9.996711e-02	5.864034e-04	0.000000e+00	
-1.948718e+00	-1.218354e+00	1.225093e+00	4.167397e+01	-5.560957e-10	2.540224e+05	1.013254e+05	2.881241e+02	9.996711e-02	5.864045e-04	0.000000e+00	
-1.897436e+00	1.218354e+00	1.225093e+00	4.167397e+01	-2.865584e-10	2.540224e+05	1.013254e+05	2.881241e+02	9.996711e-02	5.864052e-04	0.000000e+00	
-1.897436e+00	1.250000e+00	1.225093e+00	4.167397e+01	-4.006857e-10	2.540224e+05	1.013254e+05	2.881241e+02	9.996711e-02	5.864052e-04	0.000000e+00	
-1.897436e+00	1.186709e+00	1.225093e+00	4.167397e+01	-4.212980e-10	2.540224e+05	1.013254e+05	2.881241e+02	9.996711e-02	5.864052e-04	0.000000e+00	
-1.897436e+00	1.155063e+00	1.225093e+00	4.167397e+01	-5.530706e-10	2.540224e+05	1.013254e+05	2.881241e+02	9.996711e-02	5.864052e-04	0.000000e+00	
-1.897436e+00	1.123418e+00	1.225093e+00	4.167397e+01	-6.946904e-10	2.540224e+05	1.013254e+05	2.881241e+02	9.996711e-02	5.864052e-04	0.000000e+00	
-1.897436e+00	1.091772e+00	1.225093e+00	4.167397e+01	-7.809205e-10	2.540224e+05	1.013254e+05	2.881241e+02	9.996711e-02	5.864052e-04	0.000000e+00	
-1.897436e+00	1.060127e+00	1.225093e+00	4.167397e+01	-8.617239e-10	2.540224e+05	1.013254e+05	2.881241e+02	9.996711e-02	5.864052e-04	0.000000e+00	
-1.897436e+00	1.028481e+00	1.225093e+00	4.167397e+01	-9.267642e-10	2.540224e+05	1.013254e+05	2.881241e+02	9.996711e-02	5.864052e-04	0.000000e+00	
-1.897436e+00	9.968354e-01	1.225093e+00	4.167397e+01	-9.825308e-10	2.540224e+05	1.013254e+05	2.881241e+02	9.996711e-02	5.864052e-04	0.000000e+00	
-1.897436e+00	9.651899e-01	1.225093e+00	4.167397e+01	-1.017798e-09	2.540224e+05	1.013254e+05	2.881241e+02	9.996711e-02	5.864052e-04	0.000000e+00	
-1.897436e+00	9.335443e-01	1.225093e+00	4.167397e+01	-1.036660e-09	2.540224e+05	1.013254e+05	2.881241e+02	9.996711e-02	5.864051e-04	0.000000e+00	
-1.897436e+00	9.018987e-01	1.225093e+00	4.167397e+01	-1.040973e-09	2.540224e+05	1.013254e+05	2.881241e+02	9.996711e-02	5.864051e-04	0.000000e+00	
-1.897436e+00	8.702532e-01	1.225093e+00	4.167397e+01	-1.036868e-09	2.540224e+05	1.013254e+05	2.881241e+02	9.996711e-02	5.864051e-04	0.000000e+00	
-1.897436e+00	8.386076e-01	1.225093e+00	4.167397e+01	-1.026494e-09	2.540224e+05	1.013254e+05	2.881241e+02	9.996711e-02	5.864051e-04	0.000000e+00	
-1.897436e+00	8.069620e-01	1.225093e+00	4.167397e+01	-1.011475e-09	2.540224e+05	1.013254e+05	2.881241e+02	9.996711e-02	5.864051e-04	0.000000e+00	
-1.897436e+00	7.753165e-01	1.225093e+00	4.167397e+01	-9.920433e-10	2.540224e+05	1.013254e+05	2.881241e+02	9.996711e-02	5.864051e-04	0.000000e+00	
-1.897436e+00	7.436709e-01	1.225093e+00	4.167397e+01	-9.681415e-10	2.540224e+05	1.013254e+05	2.881241e+02	9.996711e-02	5.864051e-04	0.000000e+00	
-1.897436e+00	7.120253e-01	1.225093e+00	4.167397e+01	-9.398315e-10	2.540224e+05	1.013254e+05	2.881241e+02	9.996711e-02	5.864050e-04	0.000000e+00	
-1.897436e+00	6.803797e-01	1.225093e+00	4.167397e+01	-9.074822e-10	2.540224e+05	1.013254e+05	2.881241e+02	9.996711e-02	5.864050e-04	0.000000e+00	
-1.897436e+00	6.487342e-01	1.225093e+00	4.167397e+01	-8.713537e-10	2.540224e+05	1.013254e+05	2.881241e+02	9.996711e-02	5.864050e-04	0.000000e+00	
-1.897436e+00	6.170886e-01	1.225093e+00	4.167397e+01	-8.316053e-10	2.540224e+05	1.013254e+05	2.881241e+02	9.996711e-02	5.864050e-04	0.000000e+00	
-1.897436e+00	5.854430e-01	1.225093e+00	4.167397e+01	-7.886548e-10	2.540224e+05	1.013254e+05	2.881241e+02	9.996711e-02	5.864050e-04	0.000000e+00	
-1.897436e+00	5.537975e-01	1.225093e+00	4.167397e+01	-7.423104e-10	2.540224e+05	1.013254e+05	2.881241e+02	9.996711e-02	5.864050e-04	0.000000e+00	
-1.897436e+00	5.221519e-01	1.225093e+00	4.167397e+01	-6.931085e-10	2.540224e+05	1.013254e+05	2.881241e+02	9.996711e-02	5.864050e-04	0.000000e+00	
-1.897436e+00	4.905063e-01	1.225093e+00	4.167397e+01	-6.410434e-10	2.540224e+05	1.013254e+05	2.881241e+02	9.996711e-02	5.864050e-04	0.000000e+00	
-1.897436e+00	4.588608e-01	1.225093e+00	4.167397e+01	-5.864846e-10	2.540224e+05	1.013254e+05	2.881241e+02	9.996711e-02	5.864050e-04	0.000000e+00	
-1.897436e+00	4.272152e-01	1.225093e+00	4.167397e+01	-5.296328e-10	2.540224e+05	1.013254e+05	2.881241e+02	9.996711e-02	5.864049e-04	0.000000e+00	
-1.897436e+00	3.955696e-01	1.225093e+00	4.167397e+01	-4.706445e-10	2.540224e+05	1.013254e+05	2.881241e+02	9.996711e-02	5.864049e-04	0.000000e+00	
-1.897436e+00	3.639241e-01	1.225093e+00	4.167397e+01	-4.097023e-10	2.540224e+05	1.013254e+05	2.881241e+02	9.996711e-02	5.864049e-04	0.000000e+00	
-1.897436e+00	3.322785e-01	1.225093e+00	4.167397e+01	-3.470618e-10	2.540224e+05	1.013254e+05	2.881241e+02	9.996711e-02	5.864049e-04	0.000000e+00	
-1.897436e+00	3.006329e-01	1.225093e+00	4.167397e+01	-2.827363e-10	2.540224e+05	1.013254e+05	2.881241e+02	9.996711e-02	5.864049e-04	0.000000e+00	
-1.897436e+00	2.689873e-01	1.225093e+00	4.167397e+01	-2.175651e-10	2.540224e+05	1.013254e+05	2.881241e+02	9.996711e-02	5.864049e-04	0.000000e+00	
-1.897436e+00	2.373418e-01	1.225093e+00	4.167397e+01	-1.513690e-10	2.540224e+05	1.013254e+05	2.881241e+02	9.996711e-02	5.864049e-04	0.000000e+00	
-1.897436e+00	2.056962e-01	1.225093e+00	4.167397e+01	-8.469553e-11	2.540224e+05	1.013254e+05	2.881241e+02	9.996711e-02	5.864049e-04	0.000000e+00	
-1.897436e+00	1.740506e-01	1.225093e+00	4.167397e+01	-1.740411e-11	2.540224e+05	1.013254e+05	2.881241e+02	9.996711e-02	5.864049e-04	0.000000e+00	
-1.897436e+00	1.424051e-01	1.225093e+00	4.167397e+01	4.987320e-11	2.540224e+05	1.013254e+05	2.881241e+02	9.996711e-02	5.864049e-04	0.000000e+00	
-1.897436e+00	1.107595e-01	1.225093e+00	4.167397e+01	1.169644e-10	2.540224e+05	1.013254e+05	2.881241e+02	9.996711e-02	5.864049e-04	0.000000e+00	
-1.897436e+00	7.911392e-02	1.225093e+00	4.167397e+01	1.836624e-10	2.540224e+05	1.013254e+05	2.881241e+02	9.996711e-02	5.864049e-04	0.000000e+00	
-1.897436e+00	4.746835e-02	1.225093e+00	4.167397e+01	2.495042e-10	2.540224e+05	1.013254e+05	2.881241e+02	9.996711e-02	5.864049e-04	0.000000e+00	
-1.897436e+00	1.582278e-02	1.225093e+00	4.167397e+01	3.140564e-10	2.540224e+05	1.013254e+05	2.881241e+02	9.996711e-02	5.864049e-04	0.000000e+00	
-1.897436e+00	-1.582278e-02	1.225093e+00	4.167397e+01	3.771826e-10	2.540224e+05	1.013254e+05	2.881241e+02	9.996711e-02	5.864049e-04	0.000000e+00	
-1.897436e+00	-4.746835e-02	1.225093e+00	4.167397e+01	4.386932e-10	2.540224e+05	1.013254e+05	2.881241e+02	9.996711e-02	5.864049e-04	0.000000e+00	
-1.897436e+00	-7.911392e-02	1.225093e+00	4.167397e+01	4.979229e-10	2.540224e+05	1.013254e+05	2.881241e+02	9.996711e-02	5.864049e-04	0.000000e+00	
-1.897436e+00	-1.107595e-01	1.225093e+00	4.167397e+01	5.548640e-10	2.540224e+05	1.013254e+05	2.881241e+02	9.996711e-02	5.864049e-04	0.000000e+00	
-1.897436e+00	-1.424051e-01	1.225093e+00	4.167397e+01	6.090207e-10	2.540224e+05	1.013254e+05	2.881241e+02	9.996711e-02	5.864050e-04	0.000000e+00	