TITLE = "SU2 Simulation"
VARIABLES = "Iteration","CL","CD","CSF","CMx","CMy","CMz","CFx","CFy","CFz","CL/CD","AoA","Custom_ObjFunc","Res_Flow[0]","Res_Flow[1]","Res_Flow[2]","Res_Flow[3]","Res_Flow[4]","Linear_Solver_Iterations","CFL_Number","Time(min)"
ZONE T= "Convergence history"
           0, 0.00000000e+00, 0.00000000e+00, 0.00000000e+00, 0.00000000e+00, 0.00000000e+00, 0.00000000e+00, 0.00000000e+00, 0.00000000e+00, 0.00000000e+00, 0.00000000e+00, 0.00000000e+00, 0.00000000e+00, -3.70734323e+00, -1.09757952e+00, -1.29867072e+01, 1.81212178e+00, 0.00000000e+00, 5.0000000000, 5.0000000000, 0.0016817338
           1, 0.00000000e+00, 0.00000000e+00, 0.00000000e+00, 0.00000000e+00, 0.00000000e+00, 0.00000000e+00, 0.00000000e+00, 0.00000000e+00, 0.00000000e+00, 0.00000000e+00, 0.00000000e+00, 0.00000000e+00, -3.99301403e+00, -1.36998164e+00, -3.48553279e+00, 1.54590291e+00, 0.00000000e+00, 5.0000000000, 5.0000000000, 0.0034792269
           2, 0.00000000e+00, 0.00000000e+00, 0.00000000e+00, 0.00000000e+00, 0.00000000e+00, 0.00000000e+00, 0.00000000e+00, 0.00000000e+00, 0.00000000e+00, 0.00000000e+00, 0.00000000e+00, 0.00000000e+00, -4.10258623e+00, -1.50800204e+00, -3.41536802e+00, 1.40296390e+00, 0.00000000e+00, 5.0000000000, 5.0000000000, 0.0052586742
           3, 0.00000000e+00, 0.00000000e+00, 0.00000000e+00, 0.00000000e+00, 0.00000000e+00, 0.00000000e+00, 0.00000000e+00, 0.00000000e+00, 0.00000000e+00, 0.00000000e+00, 0.00000000e+00, 0.00000000e+00, -4.08298590e+00, -1.52600819e+00, -3.39629077e+00, 1.38029253e+00, 0.00000000e+00, 5.0000000000, 5.0000000000, 0.0069542374
           4, 0.00000000e+00, 0.00000000e+00, 0.00000000e+00, 0.00000000e+00, 0.00000000e+00, 0.00000000e+00, 0.00000000e+00, 0.00000000e+00, 0.00000000e+00, 0.00000000e+00, 0.00000000e+00, 0.00000000e+00, -4.07746981e+00, -1.54108617e+00, -3.28322250e+00, 1.36628278e+00, 0.00000000e+00, 5.0000000000, 5.0000000000, 0.0086395177
           5, 0.00000000e+00, 0.00000000e+00, 0.00000000e+00, 0.00000000e+00, 0.00000000e+00, 0.00000000e+00, 0.00000000e+00, 0.00000000e+00, 0.00000000e+00, 0.00000000e+00, 0.00000000e+00, 0.00000000e+00, -4.09491847e+00, -1.56928625e+00, -3.18730239e+00, 1.33839482e+00, 0.00000000e+00, 5.0000000000, 5.0000000000, 0.0103481051
           6, 0.00000000e+00, 0.00000000e+00, 0.00000000e+00, 0.00000000e+00, 0.00000000e+00, 0.00000000e+00, 0.00000000e+00, 0.00000000e+00, 0.00000000e+00, 0.00000000e+00, 0.00000000e+00, 0.00000000e+00, -4.12143044e+00, -1.59979304e+00, -3.14026694e+00, 1.30591149e+00, 0.00000000e+00, 5.0000000000, 5.0000000000, 0.0120980169
           7, 0.00000000e+00, 0.00000000e+00, 0.00000000e+00, 0.00000000e+00, 0.00000000e+00, 0.00000000e+00, 0.00000000e+00, 0.00000000e+00, 0.00000000e+00, 0.00000000e+00, 0.00000000e+00, 0.00000000e+00, -4.14797864e+00, -1.62637508e+00, -3.12524589e+00, 1.27692000e+00, 0.00000000e+00, 5.0000000000, 5.0000000000, 0.0142486132
           8, 0.00000000e+00, 0.00000000e+00, 0.00000000e+00, 0.00000000e+00, 0.00000000e+00, 0.00000000e+00, 0.00000000e+00, 0.00000000e+00, 0.00000000e+00, 0.00000000e+00, 0.00000000e+00, 0.00000000e+00, -4.17144565e+00, -1.64842256e+00, -3.12447821e+00, 1.25367797e+00, 0.00000000e+00, 5.0000000000, 5.0000000000, 0.0166469886
           9, 0.00000000e+00, 0.00000000e+00, 0.00000000e+00, 0.00000000e+00, 0.00000000e+00, 0.00000000e+00, 0.00000000e+00, 0.00000000e+00, 0.00000000e+00, 0.00000000e+00, 0.00000000e+00, 0.00000000e+00, -4.19163707e+00, -1.66682851e+00, -3.12755707e+00, 1.23526781e+00, 0.00000000e+00, 5.0000000000, 5.0000000000, 0.0183258674
          10, 0.00000000e+00, 0.00000000e+00, 0.00000000e+00, 0.00000000e+00, 0.00000000e+00, 0.00000000e+00, 0.00000000e+00, 0.00000000e+00, 0.00000000e+00, 0.00000000e+00, 0.00000000e+00, 0.00000000e+00, -4.20900545e+00, -1.68223122e+00, -3.13083007e+00, 1.22032619e+00, 0.00000000e+00, 5.0000000000, 5.0000000000, 0.0199686988
          11, 0.00000000e+00, 0.00000000e+00, 0.00000000e+00, 0.00000000e+00, 0.00000000e+00, 0.00000000e+00, 0.00000000e+00, 0.00000000e+00, 0.00000000e+00, 0.00000000e+00, 0.00000000e+00, 0.00000000e+00, -4.22399141e+00, -1.69519136e+00, -3.13387490e+00, 1.20784648e+00, 0.00000000e+00, 5.0000000000, 5.0000000000, 0.0217849502
          12, 0.00000000e+00, 0.00000000e+00, 0.00000000e+00, 0.00000000e+00, 0.00000000e+00, 0.00000000e+00, 0.00000000e+00, 0.00000000e+00, 0.00000000e+00, 0.00000000e+00, 0.00000000e+00, 0.00000000e+00, -4.23706331e+00, -1.70639416e+00, -3.13683263e+00, 1.19706018e+00, 0.00000000e+00, 5.0000000000, 5.0000000000, 0.0235381413
          13, 0.00000000e+00, 0.00000000e+00, 0.00000000e+00, 0.00000000e+00, 0.00000000e+00, 0.00000000e+00, 0.00000000e+00, 0.00000000e+00, 0.00000000e+00, 0.00000000e+00, 0.00000000e+00, 0.00000000e+00, -4.24872733e+00, -1.71647900e+00, -3.13969388e+00, 1.18734155e+00, 0.00000000e+00, 5.0000000000, 5.0000000000, 0.0252964400
          14, 0.00000000e+00, 0.00000000e+00, 0.00000000e+00, 0.00000000e+00, 0.00000000e+00, 0.00000000e+00, 0.00000000e+00, 0.00000000e+00, 0.00000000e+00, 0.00000000e+00, 0.00000000e+00, 0.00000000e+00, -4.25943169e+00, -1.72586227e+00, -3.14243059e+00, 1.17824409e+00, 0.00000000e+00, 5.0000000000, 5.0000000000, 0.0269724329
          15, 0.00000000e+00, 0.00000000e+00, 0.00000000e+00, 0.00000000e+00, 0.00000000e+00, 0.00000000e+00, 0.00000000e+00, 0.00000000e+00, 0.00000000e+00, 0.00000000e+00, 0.00000000e+00, 0.00000000e+00, -4.26950368e+00, -1.73472872e+00, -3.14509297e+00, 1.16951075e+00, 0.00000000e+00, 5.0000000000, 5.0000000000, 0.0286288951
          16, 0.00000000e+00, 0.00000000e+00, 0.00000000e+00, 0.00000000e+00, 0.00000000e+00, 0.00000000e+00, 0.00000000e+00, 0.00000000e+00, 0.00000000e+00, 0.00000000e+00, 0.00000000e+00, 0.00000000e+00, -4.27916895e+00, -1.74311063e+00, -3.14776287e+00, 1.16100696e+00, 0.00000000e+00, 5.0000000000, 5.0000000000, 0.0303079341
          17, 0.00000000e+00, 0.00000000e+00, 0.00000000e+00, 0.00000000e+00, 0.00000000e+00, 0.00000000e+00, 0.00000000e+00, 0.00000000e+00, 0.00000000e+00, 0.00000000e+00, 0.00000000e+00, 0.00000000e+00, -4.28861222e+00, -1.75095453e+00, -3.15050085e+00, 1.15262600e+00, 0.00000000e+00, 5.0000000000, 5.0000000000, 0.0320310799
          18, 0.00000000e+00, 0.00000000e+00, 0.00000000e+00, 0.00000000e+00, 0.00000000e+00, 0.00000000e+00, 0.00000000e+00, 0.00000000e+00, 0.00000000e+00, 0.00000000e+00, 0.00000000e+00, 0.00000000e+00, -4.29803040e+00, -1.75815057e+00, -3.15333775e+00, 1.14421932e+00, 0.00000000e+00, 5.0000000000, 5.0000000000, 0.0338960453
          19, 0.00000000e+00, 0.00000000e+00, 0.00000000e+00, 0.00000000e+00, 0.00000000e+00, 0.00000000e+00, 0.00000000e+00, 0.00000000e+00, 0.00000000e+00, 0.00000000e+00, 0.00000000e+00, 0.00000000e+00, -4.30765764e+00, -1.76454518e+00, -3.15628092e+00, 1.13557004e+00, 0.00000000e+00, 5.0000000000, 5.0000000000, 0.0363593168
          20, 0.00000000e+00, 0.00000000e+00, 0.00000000e+00, 0.00000000e+00, 0.00000000e+00, 0.00000000e+00, 0.00000000e+00, 0.00000000e+00, 0.00000000e+00, 0.00000000e+00, 0.00000000e+00, 0.00000000e+00, -4.31776211e+00, -1.76996074e+00, -3.15930739e+00, 1.12640394e+00, 0.00000000e+00, 5.0000000000, 5.0000000000, 0.0381336970
          21, 0.00000000e+00, 0.00000000e+00, 0.00000000e+00, 0.00000000e+00, 0.00000000e+00, 0.00000000e+00, 0.00000000e+00, 0.00000000e+00, 0.00000000e+00, 0.00000000e+00, 0.00000000e+00, 0.00000000e+00, -4.32861976e+00, -1.77423352e+00, -3.16234262e+00, 1.11642734e+00, 0.00000000e+00, 5.0000000000, 5.0000000000, 0.0397895854
          22, 0.00000000e+00, 0.00000000e+00, 0.00000000e+00, 0.00000000e+00, 0.00000000e+00, 0.00000000e+00, 0.00000000e+00, 0.00000000e+00, 0.00000000e+00, 0.00000000e+00, 0.00000000e+00, 0.00000000e+00, -4.34046917e+00, -1.77726810e+00, -3.16523675e+00, 1.10538349e+00, 0.00000000e+00, 5.0000000000, 5.0000000000, 0.0414645544
          23, 0.00000000e+00, 0.00000000e+00, 0.00000000e+00, 0.00000000e+00, 0.00000000e+00, 0.00000000e+00, 0.00000000e+00, 0.00000000e+00, 0.00000000e+00, 0.00000000e+00, 0.00000000e+00, 0.00000000e+00, -4.35345210e+00, -1.77909437e+00, -3.16774911e+00, 1.09312095e+00, 0.00000000e+00, 5.0000000000, 5.0000000000, 0.0431750871
          24, 0.00000000e+00, 0.00000000e+00, 0.00000000e+00, 0.00000000e+00, 0.00000000e+00, 0.00000000e+00, 0.00000000e+00, 0.00000000e+00, 0.00000000e+00, 0.00000000e+00, 0.00000000e+00, 0.00000000e+00, -4.36754692e+00, -1.77990710e+00, -3.16955107e+00, 1.07966592e+00, 0.00000000e+00, 5.0000000000, 5.0000000000, 0.0450073566
          25, 0.00000000e+00, 0.00000000e+00, 0.00000000e+00, 0.00000000e+00, 0.00000000e+00, 0.00000000e+00, 0.00000000e+00, 0.00000000e+00, 0.00000000e+00, 0.00000000e+00, 0.00000000e+00, 0.00000000e+00, -4.38250642e+00, -1.78007042e+00, -3.17025723e+00, 1.06528732e+00, 0.00000000e+00, 5.0000000000, 5.0000000000, 0.0466957192
          26, 0.00000000e+00, 0.00000000e+00, 0.00000000e+00, 0.00000000e+00, 0.00000000e+00, 0.00000000e+00, 0.00000000e+00, 0.00000000e+00, 0.00000000e+00, 0.00000000e+00, 0.00000000e+00, 0.00000000e+00, -4.39781646e+00, -1.78008342e+00, -3.16949354e+00, 1.05053783e+00, 0.00000000e+00, 5.0000000000, 5.0000000000, 0.0484043378
          27, 0.00000000e+00, 0.00000000e+00, 0.00000000e+00, 0.00000000e+00, 0.00000000e+00, 0.00000000e+00, 0.00000000e+00, 0.00000000e+00, 0.00000000e+00, 0.00000000e+00, 0.00000000e+00, 0.00000000e+00, -4.41269758e+00, -1.78051942e+00, -3.16700049e+00, 1.03624792e+00, 0.00000000e+00, 5.0000000000, 5.0000000000, 0.0500975411
          28, 0.00000000e+00, 0.00000000e+00, 0.00000000e+00, 0.00000000e+00, 0.00000000e+00, 0.00000000e+00, 0.00000000e+00, 0.00000000e+00, 0.00000000e+00, 0.00000000e+00, 0.00000000e+00, 0.00000000e+00, -4.42617359e+00, -1.78196057e+00, -3.16275077e+00, 1.02344704e+00, 0.00000000e+00, 5.0000000000, 5.0000000000, 0.0517984611
          29, 0.00000000e+00, 0.00000000e+00, 0.00000000e+00, 0.00000000e+00, 0.00000000e+00, 0.00000000e+00, 0.00000000e+00, 0.00000000e+00, 0.00000000e+00, 0.00000000e+00, 0.00000000e+00, 0.00000000e+00, -4.43722015e+00, -1.78494769e+00, -3.15704278e+00, 1.01319918e+00, 0.00000000e+00, 5.0000000000, 5.0000000000, 0.0535417446
          30, 0.00000000e+00, 0.00000000e+00, 0.00000000e+00, 0.00000000e+00, 0.00000000e+00, 0.00000000e+00, 0.00000000e+00, 0.00000000e+00, 0.00000000e+00, 0.00000000e+00, 0.00000000e+00, 0.00000000e+00, -4.44497466e+00, -1.78995573e+00, -3.15052990e+00, 1.00637574e+00, 0.00000000e+00, 5.0000000000, 5.0000000000, 0.0554446774
          31, 0.00000000e+00, 0.00000000e+00, 0.00000000e+00, 0.00000000e+00, 0.00000000e+00, 0.00000000e+00, 0.00000000e+00, 0.00000000e+00, 0.00000000e+00, 0.00000000e+00, 0.00000000e+00, 0.00000000e+00, -4.44894429e+00, -1.79739499e+00, -3.14416893e+00, 1.00343813e+00, 0.00000000e+00, 5.0000000000, 5.0000000000, 0.0572511205
          32, 0.00000000e+00, 0.00000000e+00, 0.00000000e+00, 0.00000000e+00, 0.00000000e+00, 0.00000000e+00, 0.00000000e+00, 0.00000000e+00, 0.00000000e+00, 0.00000000e+00, 0.00000000e+00, 0.00000000e+00, -4.44912613e+00, -1.80763099e+00, -3.13910659e+00, 1.00432369e+00, 0.00000000e+00, 5.0000000000, 5.0000000000, 0.0590743757
          33, 0.00000000e+00, 0.00000000e+00, 0.00000000e+00, 0.00000000e+00, 0.00000000e+00, 0.00000000e+00, 0.00000000e+00, 0.00000000e+00, 0.00000000e+00, 0.00000000e+00, 0.00000000e+00, 0.00000000e+00, -4.44598573e+00, -1.82101321e+00, -3.13654492e+00, 1.00848742e+00, 0.00000000e+00, 5.0000000000, 5.0000000000, 0.0608359184
          34, 0.00000000e+00, 0.00000000e+00, 0.00000000e+00, 0.00000000e+00, 0.00000000e+00, 0.00000000e+00, 0.00000000e+00, 0.00000000e+00, 0.00000000e+00, 0.00000000e+00, 0.00000000e+00, 0.00000000e+00, -4.44031269e+00, -1.83790284e+00, -3.13762454e+00, 1.01506957e+00, 0.00000000e+00, 5.0000000000, 5.0000000000, 0.0625915842
          35, 0.00000000e+00, 0.00000000e+00, 0.00000000e+00, 0.00000000e+00, 0.00000000e+00, 0.00000000e+00, 0.00000000e+00, 0.00000000e+00, 0.00000000e+00, 0.00000000e+00, 0.00000000e+00, 0.00000000e+00, -4.43302778e+00, -1.85869116e+00, -3.14334445e+00, 1.02310379e+00, 0.00000000e+00, 5.0000000000, 5.0000000000, 0.0642856448
          36, 0.00000000e+00, 0.00000000e+00, 0.00000000e+00, 0.00000000e+00, 0.00000000e+00, 0.00000000e+00, 0.00000000e+00, 0.00000000e+00, 0.00000000e+00, 0.00000000e+00, 0.00000000e+00, 0.00000000e+00, -4.42501642e+00, -1.88380106e+00, -3.15451693e+00, 1.03168717e+00, 0.00000000e+00, 5.0000000000, 5.0000000000, 0.0660851134
          37, 0.00000000e+00, 0.00000000e+00, 0.00000000e+00, 0.00000000e+00, 0.00000000e+00, 0.00000000e+00, 0.00000000e+00, 0.00000000e+00, 0.00000000e+00, 0.00000000e+00, 0.00000000e+00, 0.00000000e+00, -4.41702604e+00, -1.91366357e+00, -3.17174287e+00, 1.04007832e+00, 0.00000000e+00, 5.0000000000, 5.0000000000, 0.0677406381
          38, 0.00000000e+00, 0.00000000e+00, 0.00000000e+00, 0.00000000e+00, 0.00000000e+00, 0.00000000e+00, 0.00000000e+00, 0.00000000e+00, 0.00000000e+00, 0.00000000e+00, 0.00000000e+00, 0.00000000e+00, -4.40962649e+00, -1.94865706e+00, -3.19538869e+00, 1.04772926e+00, 0.00000000e+00, 5.0000000000, 5.0000000000, 0.0694613320
          39, 0.00000000e+00, 0.00000000e+00, 0.00000000e+00, 0.00000000e+00, 0.00000000e+00, 0.00000000e+00, 0.00000000e+00, 0.00000000e+00, 0.00000000e+00, 0.00000000e+00, 0.00000000e+00, 0.00000000e+00, -4.40321409e+00, -1.98898484e+00, -3.22554422e+00, 1.05427395e+00, 0.00000000e+00, 5.0000000000, 5.0000000000, 0.0712487456
          40, 0.00000000e+00, 0.00000000e+00, 0.00000000e+00, 0.00000000e+00, 0.00000000e+00, 0.00000000e+00, 0.00000000e+00, 0.00000000e+00, 0.00000000e+00, 0.00000000e+00, 0.00000000e+00, 0.00000000e+00, -4.39803916e+00, -2.03444419e+00, -3.26193968e+00, 1.05949456e+00, 0.00000000e+00, 5.0000000000, 5.0000000000, 0.0729205017
          41, 0.00000000e+00, 0.00000000e+00, 0.00000000e+00, 0.00000000e+00, 0.00000000e+00, 0.00000000e+00, 0.00000000e+00, 0.00000000e+00, 0.00000000e+00, 0.00000000e+00, 0.00000000e+00, 0.00000000e+00, -4.39424365e+00, -2.08401253e+00, -3.30379799e+00, 1.06327865e+00, 0.00000000e+00, 5.0000000000, 5.0000000000, 0.0746006249
          42, 0.00000000e+00, 0.00000000e+00, 0.00000000e+00, 0.00000000e+00, 0.00000000e+00, 0.00000000e+00, 0.00000000e+00, 0.00000000e+00, 0.00000000e+00, 0.00000000e+00, 0.00000000e+00, 0.00000000e+00, -4.39190136e+00, -2.13518829e+00, -3.34960717e+00, 1.06557479e+00, 0.00000000e+00, 5.0000000000, 5.0000000000, 0.0768670374
          43, 0.00000000e+00, 0.00000000e+00, 0.00000000e+00, 0.00000000e+00, 0.00000000e+00, 0.00000000e+00, 0.00000000e+00, 0.00000000e+00, 0.00000000e+00, 0.00000000e+00, 0.00000000e+00, 0.00000000e+00, -4.39105583e+00, -2.18323881e+00, -3.39683805e+00, 1.06635111e+00, 0.00000000e+00, 5.0000000000, 5.0000000000, 0.0794317553
          44, 0.00000000e+00, 0.00000000e+00, 0.00000000e+00, 0.00000000e+00, 0.00000000e+00, 0.00000000e+00, 0.00000000e+00, 0.00000000e+00, 0.00000000e+00, 0.00000000e+00, 0.00000000e+00, 0.00000000e+00, -4.39175208e+00, -2.22119365e+00, -3.44176050e+00, 1.06556104e+00, 0.00000000e+00, 5.0000000000, 5.0000000000, 0.0812924580
          45, 0.00000000e+00, 0.00000000e+00, 0.00000000e+00, 0.00000000e+00, 0.00000000e+00, 0.00000000e+00, 0.00000000e+00, 0.00000000e+00, 0.00000000e+00, 0.00000000e+00, 0.00000000e+00, 0.00000000e+00, -4.39405916e+00, -2.24212923e+00, -3.47973628e+00, 1.06311973e+00, 0.00000000e+00, 5.0000000000, 5.0000000000, 0.0830649033
          46, 0.00000000e+00, 0.00000000e+00, 0.00000000e+00, 0.00000000e+00, 0.00000000e+00, 0.00000000e+00, 0.00000000e+00, 0.00000000e+00, 0.00000000e+00, 0.00000000e+00, 0.00000000e+00, 0.00000000e+00, -4.39808121e+00, -2.24351716e+00, -3.50639552e+00, 1.05889326e+00, 0.00000000e+00, 5.0000000000, 5.0000000000, 0.0853111750
          47, 0.00000000e+00, 0.00000000e+00, 0.00000000e+00, 0.00000000e+00, 0.00000000e+00, 0.00000000e+00, 0.00000000e+00, 0.00000000e+00, 0.00000000e+00, 0.00000000e+00, 0.00000000e+00, 0.00000000e+00, -4.40395644e+00, -2.22922341e+00, -3.51939733e+00, 1.05270119e+00, 0.00000000e+00, 5.0000000000, 5.0000000000, 0.0871497604
          48, 0.00000000e+00, 0.00000000e+00, 0.00000000e+00, 0.00000000e+00, 0.00000000e+00, 0.00000000e+00, 0.00000000e+00, 0.00000000e+00, 0.00000000e+00, 0.00000000e+00, 0.00000000e+00, 0.00000000e+00, -4.41184592e+00, -2.20646576e+00, -3.51941686e+00, 1.04432974e+00, 0.00000000e+00, 5.0000000000, 5.0000000000, 0.0888447722
          49, 0.00000000e+00, 0.00000000e+00, 0.00000000e+00, 0.00000000e+00, 0.00000000e+00, 0.00000000e+00, 0.00000000e+00, 0.00000000e+00, 0.00000000e+00, 0.00000000e+00, 0.00000000e+00, 0.00000000e+00, -4.42191543e+00, -2.18168277e+00, -3.50938981e+00, 1.03355157e+00, 0.00000000e+00, 5.0000000000, 5.0000000000, 0.0905736649
          50, 0.00000000e+00, 0.00000000e+00, 0.00000000e+00, 0.00000000e+00, 0.00000000e+00, 0.00000000e+00, 0.00000000e+00, 0.00000000e+00, 0.00000000e+00, 0.00000000e+00, 0.00000000e+00, 0.00000000e+00, -4.43431458e+00, -2.15889956e+00, -3.49283655e+00, 1.02014717e+00, 0.00000000e+00, 5.0000000000, 5.0000000000, 0.0924768921
          51, 0.00000000e+00, 0.00000000e+00, 0.00000000e+00, 0.00000000e+00, 0.00000000e+00, 0.00000000e+00, 0.00000000e+00, 0.00000000e+00, 0.00000000e+00, 0.00000000e+00, 0.00000000e+00, 0.00000000e+00, -4.44915705e+00, -2.14003029e+00, -3.47266081e+00, 1.00392372e+00, 0.00000000e+00, 5.0000000000, 5.0000000000, 0.0943055473
          52, 0.00000000e+00, 0.00000000e+00, 0.00000000e+00, 0.00000000e+00, 0.00000000e+00, 0.00000000e+00, 0.00000000e+00, 0.00000000e+00, 0.00000000e+00, 0.00000000e+00, 0.00000000e+00, 0.00000000e+00, -4.46650491e+00, -2.12563865e+00, -3.45081974e+00, 9.84728505e-01, 0.00000000e+00, 5.0000000000, 5.0000000000, 0.0961165689
          53, 0.00000000e+00, 0.00000000e+00, 0.00000000e+00, 0.00000000e+00, 0.00000000e+00, 0.00000000e+00, 0.00000000e+00, 0.00000000e+00, 0.00000000e+00, 0.00000000e+00, 0.00000000e+00, 0.00000000e+00, -4.48635862e+00, -2.11553015e+00, -3.42849583e+00, 9.62455199e-01, 0.00000000e+00, 5.0000000000, 5.0000000000, 0.0986084933
          54, 0.00000000e+00, 0.00000000e+00, 0.00000000e+00, 0.00000000e+00, 0.00000000e+00, 0.00000000e+00, 0.00000000e+00, 0.00000000e+00, 0.00000000e+00, 0.00000000e+00, 0.00000000e+00, 0.00000000e+00, -4.50865289e+00, -2.10911252e+00, -3.40638299e+00, 9.37043263e-01, 0.00000000e+00, 5.0000000000, 5.0000000000, 0.1010059522
          55, 0.00000000e+00, 0.00000000e+00, 0.00000000e+00, 0.00000000e+00, 0.00000000e+00, 0.00000000e+00, 0.00000000e+00, 0.00000000e+00, 0.00000000e+00, 0.00000000e+00, 0.00000000e+00, 0.00000000e+00, -4.53325768e+00, -2.10560362e+00, -3.38491575e+00, 9.08471287e-01, 0.00000000e+00, 5.0000000000, 5.0000000000, 0.1029243754
          56, 0.00000000e+00, 0.00000000e+00, 0.00000000e+00, 0.00000000e+00, 0.00000000e+00, 0.00000000e+00, 0.00000000e+00, 0.00000000e+00, 0.00000000e+00, 0.00000000e+00, 0.00000000e+00, 0.00000000e+00, -4.55998321e+00, -2.10415895e+00, -3.36441209e+00, 8.76745342e-01, 0.00000000e+00, 5.0000000000, 5.0000000000, 0.1047636741
          57, 0.00000000e+00, 0.00000000e+00, 0.00000000e+00, 0.00000000e+00, 0.00000000e+00, 0.00000000e+00, 0.00000000e+00, 0.00000000e+00, 0.00000000e+00, 0.00000000e+00, 0.00000000e+00, 0.00000000e+00, -4.58858835e+00, -2.10396023e+00, -3.34515000e+00, 8.41883021e-01, 0.00000000e+00, 5.0000000000, 5.0000000000, 0.1067559125
          58, 0.00000000e+00, 0.00000000e+00, 0.00000000e+00, 0.00000000e+00, 0.00000000e+00, 0.00000000e+00, 0.00000000e+00, 0.00000000e+00, 0.00000000e+00, 0.00000000e+00, 0.00000000e+00, 0.00000000e+00, -4.61879119e+00, -2.10428259e+00, -3.32740343e+00, 8.03893588e-01, 0.00000000e+00, 5.0000000000, 5.0000000000, 0.1084673494
          59, 0.00000000e+00, 0.00000000e+00, 0.00000000e+00, 0.00000000e+00, 0.00000000e+00, 0.00000000e+00, 0.00000000e+00, 0.00000000e+00, 0.00000000e+00, 0.00000000e+00, 0.00000000e+00, 0.00000000e+00, -4.65028081e+00, -2.10454384e+00, -3.31145659e+00, 7.62754662e-01, 0.00000000e+00, 5.0000000000, 5.0000000000, 0.1101770153
          60, 0.00000000e+00, 0.00000000e+00, 0.00000000e+00, 0.00000000e+00, 0.00000000e+00, 0.00000000e+00, 0.00000000e+00, 0.00000000e+00, 0.00000000e+00, 0.00000000e+00, 0.00000000e+00, 0.00000000e+00, -4.68272810e+00, -2.10433242e+00, -3.29760742e+00, 7.18386118e-01, 0.00000000e+00, 5.0000000000, 5.0000000000, 0.1119667392
          61, 0.00000000e+00, 0.00000000e+00, 0.00000000e+00, 0.00000000e+00, 0.00000000e+00, 0.00000000e+00, 0.00000000e+00, 0.00000000e+00, 0.00000000e+00, 0.00000000e+00, 0.00000000e+00, 0.00000000e+00, -4.71579309e+00, -2.10341153e+00, -3.28616596e+00, 6.70622662e-01, 0.00000000e+00, 5.0000000000, 5.0000000000, 0.1136176496
          62, 0.00000000e+00, 0.00000000e+00, 0.00000000e+00, 0.00000000e+00, 0.00000000e+00, 0.00000000e+00, 0.00000000e+00, 0.00000000e+00, 0.00000000e+00, 0.00000000e+00, 0.00000000e+00, 0.00000000e+00, -4.74912521e+00, -2.10170100e+00, -3.27745025e+00, 6.19188396e-01, 0.00000000e+00, 5.0000000000, 5.0000000000, 0.1153983668
          63, 0.00000000e+00, 0.00000000e+00, 0.00000000e+00, 0.00000000e+00, 0.00000000e+00, 0.00000000e+00, 0.00000000e+00, 0.00000000e+00, 0.00000000e+00, 0.00000000e+00, 0.00000000e+00, 0.00000000e+00, -4.78235275e+00, -2.09924364e+00, -3.27178166e+00, 5.63681289e-01, 0.00000000e+00, 5.0000000000, 5.0000000000, 0.1170554431
          64, 0.00000000e+00, 0.00000000e+00, 0.00000000e+00, 0.00000000e+00, 0.00000000e+00, 0.00000000e+00, 0.00000000e+00, 0.00000000e+00, 0.00000000e+00, 0.00000000e+00, 0.00000000e+00, 0.00000000e+00, -4.81505834e+00, -2.09616541e+00, -3.26948092e+00, 5.03587319e-01, 0.00000000e+00, 5.0000000000, 5.0000000000, 0.1188508346
          65, 0.00000000e+00, 0.00000000e+00, 0.00000000e+00, 0.00000000e+00, 0.00000000e+00, 0.00000000e+00, 0.00000000e+00, 0.00000000e+00, 0.00000000e+00, 0.00000000e+00, 0.00000000e+00, 0.00000000e+00, -4.84673932e+00, -2.09263793e+00, -3.27086583e+00, 4.38375784e-01, 0.00000000e+00, 5.0000000000, 5.0000000000, 0.1206521991
          66, 0.00000000e+00, 0.00000000e+00, 0.00000000e+00, 0.00000000e+00, 0.00000000e+00, 0.00000000e+00, 0.00000000e+00, 0.00000000e+00, 0.00000000e+00, 0.00000000e+00, 0.00000000e+00, 0.00000000e+00, -4.87675658e+00, -2.08884866e+00, -3.27625114e+00, 3.67810659e-01, 0.00000000e+00, 5.0000000000, 5.0000000000, 0.1223574471
          67, 0.00000000e+00, 0.00000000e+00, 0.00000000e+00, 0.00000000e+00, 0.00000000e+00, 0.00000000e+00, 0.00000000e+00, 0.00000000e+00, 0.00000000e+00, 0.00000000e+00, 0.00000000e+00, 0.00000000e+00, -4.90428362e+00, -2.08498059e+00, -3.28595071e+00, 2.92816819e-01, 0.00000000e+00, 5.0000000000, 5.0000000000, 0.1240268295
          68, 0.00000000e+00, 0.00000000e+00, 0.00000000e+00, 0.00000000e+00, 0.00000000e+00, 0.00000000e+00, 0.00000000e+00, 0.00000000e+00, 0.00000000e+00, 0.00000000e+00, 0.00000000e+00, 0.00000000e+00, -4.92828054e+00, -2.08120051e+00, -3.30028199e+00, 2.17604473e-01, 0.00000000e+00, 5.0000000000, 5.0000000000, 0.1256974207
          69, 0.00000000e+00, 0.00000000e+00, 0.00000000e+00, 0.00000000e+00, 0.00000000e+00, 0.00000000e+00, 0.00000000e+00, 0.00000000e+00, 0.00000000e+00, 0.00000000e+00, 0.00000000e+00, 0.00000000e+00, -4.94753082e+00, -2.07765379e+00, -3.31957244e+00, 1.53537217e-01, 0.00000000e+00, 5.0000000000, 5.0000000000, 0.1273791096
          70, 0.00000000e+00, 0.00000000e+00, 0.00000000e+00, 0.00000000e+00, 0.00000000e+00, 0.00000000e+00, 0.00000000e+00, 0.00000000e+00, 0.00000000e+00, 0.00000000e+00, 0.00000000e+00, 0.00000000e+00, -4.96078057e+00, -2.07446333e+00, -3.34416584e+00, 1.20563301e-01, 0.00000000e+00, 5.0000000000, 5.0000000000, 0.1290467079
          71, 0.00000000e+00, 0.00000000e+00, 0.00000000e+00, 0.00000000e+00, 0.00000000e+00, 0.00000000e+00, 0.00000000e+00, 0.00000000e+00, 0.00000000e+00, 0.00000000e+00, 0.00000000e+00, 0.00000000e+00, -4.96698444e+00, -2.07173056e+00, -3.37442764e+00, 1.33879301e-01, 0.00000000e+00, 5.0000000000, 5.0000000000, 0.1306889920
          72, 0.00000000e+00, 0.00000000e+00, 0.00000000e+00, 0.00000000e+00, 0.00000000e+00, 0.00000000e+00, 0.00000000e+00, 0.00000000e+00, 0.00000000e+00, 0.00000000e+00, 0.00000000e+00, 0.00000000e+00, -4.96559062e+00, -2.06953833e+00, -3.41075127e+00, 1.85487370e-01, 0.00000000e+00, 5.0000000000, 5.0000000000, 0.1324319363
          73, 0.00000000e+00, 0.00000000e+00, 0.00000000e+00, 0.00000000e+00, 0.00000000e+00, 0.00000000e+00, 0.00000000e+00, 0.00000000e+00, 0.00000000e+00, 0.00000000e+00, 0.00000000e+00, 0.00000000e+00, -4.95674898e+00, -2.06795627e+00, -3.45354562e+00, 2.54404310e-01, 0.00000000e+00, 5.0000000000, 5.0000000000, 0.1340804167
          74, 0.00000000e+00, 0.00000000e+00, 0.00000000e+00, 0.00000000e+00, 0.00000000e+00, 0.00000000e+00, 0.00000000e+00, 0.00000000e+00, 0.00000000e+00, 0.00000000e+00, 0.00000000e+00, 0.00000000e+00, -4.94131609e+00, -2.06704562e+00, -3.50318315e+00, 3.25606419e-01, 0.00000000e+00, 5.0000000000, 5.0000000000, 0.1357289492
          75, 0.00000000e+00, 0.00000000e+00, 0.00000000e+00, 0.00000000e+00, 0.00000000e+00, 0.00000000e+00, 0.00000000e+00, 0.00000000e+00, 0.00000000e+00, 0.00000000e+00, 0.00000000e+00, 0.00000000e+00, -4.92063427e+00, -2.06686026e+00, -3.55985183e+00, 3.92629474e-01, 0.00000000e+00, 5.0000000000, 5.0000000000, 0.1373723447
          76, 0.00000000e+00, 0.00000000e+00, 0.00000000e+00, 0.00000000e+00, 0.00000000e+00, 0.00000000e+00, 0.00000000e+00, 0.00000000e+00, 0.00000000e+00, 0.00000000e+00, 0.00000000e+00, 0.00000000e+00, -4.89621921e+00, -2.06744836e+00, -3.62317043e+00, 4.53604142e-01, 0.00000000e+00, 5.0000000000, 5.0000000000, 0.1394452576
          77, 0.00000000e+00, 0.00000000e+00, 0.00000000e+00, 0.00000000e+00, 0.00000000e+00, 0.00000000e+00, 0.00000000e+00, 0.00000000e+00, 0.00000000e+00, 0.00000000e+00, 0.00000000e+00, 0.00000000e+00, -4.86950186e+00, -2.06885588e+00, -3.69127406e+00, 5.08459883e-01, 0.00000000e+00, 5.0000000000, 5.0000000000, 0.1412267732
          78, 0.00000000e+00, 0.00000000e+00, 0.00000000e+00, 0.00000000e+00, 0.00000000e+00, 0.00000000e+00, 0.00000000e+00, 0.00000000e+00, 0.00000000e+00, 0.00000000e+00, 0.00000000e+00, 0.00000000e+00, -4.84168243e+00, -2.07113012e+00, -3.75894513e+00, 5.57701429e-01, 0.00000000e+00, 5.0000000000, 5.0000000000, 0.1428852477
          79, 0.00000000e+00, 0.00000000e+00, 0.00000000e+00, 0.00000000e+00, 0.00000000e+00, 0.00000000e+00, 0.00000000e+00, 0.00000000e+00, 0.00000000e+00, 0.00000000e+00, 0.00000000e+00, 0.00000000e+00, -4.81368581e+00, -2.07432292e+00, -3.81513379e+00, 6.01952411e-01, 0.00000000e+00, 5.0000000000, 5.0000000000, 0.1445271898
          80, 0.00000000e+00, 0.00000000e+00, 0.00000000e+00, 0.00000000e+00, 0.00000000e+00, 0.00000000e+00, 0.00000000e+00, 0.00000000e+00, 0.00000000e+00, 0.00000000e+00, 0.00000000e+00, 0.00000000e+00, -4.78618001e+00, -2.07849344e+00, -3.84404157e+00, 6.41802395e-01, 0.00000000e+00, 5.0000000000, 5.0000000000, 0.1463273446
          81, 0.00000000e+00, 0.00000000e+00, 0.00000000e+00, 0.00000000e+00, 0.00000000e+00, 0.00000000e+00, 0.00000000e+00, 0.00000000e+00, 0.00000000e+00, 0.00000000e+00, 0.00000000e+00, 0.00000000e+00, -4.75962128e+00, -2.08371050e+00, -3.83612818e+00, 6.77765722e-01, 0.00000000e+00, 5.0000000000, 5.0000000000, 0.1481199474
          82, 0.00000000e+00, 0.00000000e+00, 0.00000000e+00, 0.00000000e+00, 0.00000000e+00, 0.00000000e+00, 0.00000000e+00, 0.00000000e+00, 0.00000000e+00, 0.00000000e+00, 0.00000000e+00, 0.00000000e+00, -4.73430361e+00, -2.09005448e+00, -3.79843428e+00, 7.10279268e-01, 0.00000000e+00, 5.0000000000, 5.0000000000, 0.1498287852
          83, 0.00000000e+00, 0.00000000e+00, 0.00000000e+00, 0.00000000e+00, 0.00000000e+00, 0.00000000e+00, 0.00000000e+00, 0.00000000e+00, 0.00000000e+00, 0.00000000e+00, 0.00000000e+00, 0.00000000e+00, -4.71040224e+00, -2.09761871e+00, -3.74651422e+00, 7.39712048e-01, 0.00000000e+00, 5.0000000000, 5.0000000000, 0.1515012865
          84, 0.00000000e+00, 0.00000000e+00, 0.00000000e+00, 0.00000000e+00, 0.00000000e+00, 0.00000000e+00, 0.00000000e+00, 0.00000000e+00, 0.00000000e+00, 0.00000000e+00, 0.00000000e+00, 0.00000000e+00, -4.68800819e+00, -2.10651048e+00, -3.69219617e+00, 7.66376875e-01, 0.00000000e+00, 5.0000000000, 5.0000000000, 0.1532589391
          85, 0.00000000e+00, 0.00000000e+00, 0.00000000e+00, 0.00000000e+00, 0.00000000e+00, 0.00000000e+00, 0.00000000e+00, 0.00000000e+00, 0.00000000e+00, 0.00000000e+00, 0.00000000e+00, 0.00000000e+00, -4.66715443e+00, -2.11685175e+00, -3.64126940e+00, 7.90540770e-01, 0.00000000e+00, 5.0000000000, 5.0000000000, 0.1549699280
          86, 0.00000000e+00, 0.00000000e+00, 0.00000000e+00, 0.00000000e+00, 0.00000000e+00, 0.00000000e+00, 0.00000000e+00, 0.00000000e+00, 0.00000000e+00, 0.00000000e+00, 0.00000000e+00, 0.00000000e+00, -4.64783514e+00, -2.12877979e+00, -3.59584284e+00, 8.12433285e-01, 0.00000000e+00, 5.0000000000, 5.0000000000, 0.1566445322
          87, 0.00000000e+00, 0.00000000e+00, 0.00000000e+00, 0.00000000e+00, 0.00000000e+00, 0.00000000e+00, 0.00000000e+00, 0.00000000e+00, 0.00000000e+00, 0.00000000e+00, 0.00000000e+00, 0.00000000e+00, -4.63001984e+00, -2.14244794e+00, -3.55638230e+00, 8.32252772e-01, 0.00000000e+00, 5.0000000000, 5.0000000000, 0.1583851213
          88, 0.00000000e+00, 0.00000000e+00, 0.00000000e+00, 0.00000000e+00, 0.00000000e+00, 0.00000000e+00, 0.00000000e+00, 0.00000000e+00, 0.00000000e+00, 0.00000000e+00, 0.00000000e+00, 0.00000000e+00, -4.61366378e+00, -2.15802683e+00, -3.52274440e+00, 8.50170957e-01, 0.00000000e+00, 5.0000000000, 5.0000000000, 0.1602068513
          89, 0.00000000e+00, 0.00000000e+00, 0.00000000e+00, 0.00000000e+00, 0.00000000e+00, 0.00000000e+00, 0.00000000e+00, 0.00000000e+00, 0.00000000e+00, 0.00000000e+00, 0.00000000e+00, 0.00000000e+00, -4.59871556e+00, -2.17570617e+00, -3.49461725e+00, 8.66336228e-01, 0.00000000e+00, 5.0000000000, 5.0000000000, 0.1619698077