VARIABLES = "x"
 "y"
 "Density"
 "Momentum_x"
 "Momentum_y"
 "Energy"
 "Pressure"
 "Temperature"
 "Mach"
 "C<sub>p</sub>"
 "Roe_Dissipation"
ZONE
DT=(DOUBLE,DOUBLE,DOUBLE,DOUBLE,DOUBLE,DOUBLE,DOUBLE,DOUBLE,DOUBLE,DOUBLE,DOUBLE)
                     -1                    1.25        1.22509300708771        41.6739692687988   -1.43594236369508E-08            254022.40625          101325.3984375        288.124114990234      0.0999671071767807    0.000586419540922683                       0 
                     -1         1.2474974974975        1.22509300708771        41.6739692687988   -1.44736585138478E-08            254022.40625          101325.3984375        288.124114990234      0.0999671071767807    0.000586419531716796                       0 
                     -1        1.24499499499499        1.22509300708771        41.6739692687988   -1.45878933907448E-08            254022.40625          101325.3984375        288.124114990234      0.0999671071767807    0.000586419522510908                       0 
                     -1        1.24249249249249        1.22509300708771        41.6739692687988   -1.47021282676417E-08            254022.40625          101325.3984375        288.124114990234      0.0999671071767807    0.000586419513305021                       0 
                     -1        1.23998998998999        1.22509300708771        41.6739692687988   -1.48163631445387E-08            254022.40625          101325.3984375        288.124114990234      0.0999671071767807    0.000586419504099133                       0 
                     -1        1.23748748748749        1.22509300708771        41.6739692687988   -1.49305980214357E-08            254022.40625          101325.3984375        288.124114990234      0.0999671071767807    0.000586419494893246                       0 
                     -1        1.23498498498498        1.22509300708771        41.6739692687988   -1.50448328983327E-08            254022.40625          101325.3984375        288.124114990234      0.0999671071767807    0.000586419485687359                       0 
                     -1        1.23248248248248        1.22509300708771        41.6739692687988   -1.51590676321916E-08            254022.40625          101325.3984375        288.124114990234      0.0999671071767807    0.000586419476481471                       0 
                     -1        1.22997997997998        1.22509300708771        41.6739692687988   -1.52733025090885E-08            254022.40625          101325.3984375        288.124114990234      0.0999671071767807    0.000586419467275584                       0 
                     -1        1.22747747747748        1.22509300708771        41.6739692687988   -1.53875373859855E-08            254022.40625          101325.3984375        288.124114990234      0.0999671071767807    0.000586419458069696                       0 
                     -1        1.22497497497497        1.22509300708771        41.6739692687988   -1.55017722628825E-08            254022.40625          101325.3984375        288.124114990234      0.0999671071767807    0.000586419448863809                       0 
                     -1        1.22247247247247        1.22509300708771        41.6739692687988   -1.56160071397795E-08            254022.40625          101325.3984375        288.124114990234      0.0999671071767807    0.000586419439657922                       0 
                     -1        1.21996996996997        1.22509300708771        41.6739692687988   -1.57302420166765E-08            254022.40625          101325.3984375        288.124114990234      0.0999671071767807    0.000586419430452034                       0 
                     -1        1.21746746746747        1.22509300708771        41.6739692687988   -1.58376758810149E-08            254022.40625          101325.3984375        288.124114990234      0.0999671071767807    0.000586419422876699                       0 
                     -1        1.21496496496496        1.22509300708771        41.6739692687988    -1.5932712584254E-08            254022.40625          101325.3984375        288.124114990234      0.0999671071767807    0.000586419418273599                       0 
                     -1        1.21246246246246        1.22509300708771        41.6739692687988   -1.60277492874931E-08            254022.40625          101325.3984375        288.124114990234      0.0999671071767807    0.000586419413670499                       0 
                     -1        1.20995995995996        1.22509300708771        41.6739692687988   -1.61227859907321E-08            254022.40625          101325.3984375        288.124114990234      0.0999671071767807    0.000586419409067399                       0 
                     -1        1.20745745745746        1.22509300708771        41.6739692687988   -1.62178226939712E-08            254022.40625          101325.3984375        288.124114990234      0.0999671071767807      0.0005864194044643                       0 
                     -1        1.20495495495495        1.22509300708771        41.6739692687988   -1.63128593972103E-08            254022.40625          101325.3984375        288.124114990234      0.0999671071767807      0.0005864193998612                       0 
                     -1        1.20245245245245        1.22509300708771        41.6739692687988   -1.64078960088844E-08            254022.40625          101325.3984375        288.124114990234      0.0999671071767807      0.0005864193952581                       0 
                     -1        1.19994994994995        1.22509300708771        41.6739692687988   -1.65029327121235E-08            254022.40625          101325.3984375        288.124114990234      0.0999671071767807       0.000586419390655                       0 
                     -1        1.19744744744745        1.22509300708771        41.6739692687988   -1.65979694153625E-08            254022.40625          101325.3984375        288.124114990234      0.0999671071767807    0.000586419386051901                       0 
                     -1        1.19494494494494        1.22509300708771        41.6739692687988   -1.66930061186016E-08            254022.40625          101325.3984375        288.124114990234      0.0999671071767807    0.000586419381448801                       0 
                     -1        1.19244244244244        1.22509300708771        41.6739692687988   -1.67880428218407E-08            254022.40625          101325.3984375        288.124114990234      0.0999671071767807    0.000586419376845701                       0 
                     -1        1.18993993993994        1.22509300708771        41.6739692687988   -1.68830795250797E-08            254022.40625          101325.3984375        288.124114990234      0.0999671071767807    0.000586419372242601                       0 
                     -1        1.18743743743744        1.22509300708771        41.6739692687988   -1.69781162283188E-08            254022.40625          101325.3984375        288.124114990234      0.0999671071767807    0.000586419367639502                       0 
                     -1        1.18493493493493        1.22509300708771        41.6739692687988   -1.70592015363592E-08            254022.40625          101325.3984375        288.124114990234      0.0999671071767807    0.000586419359773325                       0 
                     -1        1.18243243243243        1.22509300708771        41.6739692687988   -1.71345588661217E-08            254022.40625          101325.3984375        288.124114990234      0.0999671071767807    0.000586419350567438                       0 
                     -1        1.17992992992993        1.22509300708771        41.6739692687988   -1.72099161958842E-08            254022.40625          101325.3984375        288.124114990234      0.0999671071767807     0.00058641934136155                       0 
                     -1        1.17742742742743        1.22509300708771        41.6739692687988   -1.72852735256467E-08            254022.40625          101325.3984375        288.124114990234      0.0999671071767807    0.000586419332155663                       0 
                     -1        1.17492492492492        1.22509300708771        41.6739692687988   -1.73606308554093E-08            254022.40625          101325.3984375        288.124114990234      0.0999671071767807    0.000586419322949776                       0 
                     -1        1.17242242242242        1.22509300708771        41.6739692687988   -1.74359881851718E-08            254022.40625          101325.3984375        288.124114990234      0.0999671071767807    0.000586419313743888                       0 
                     -1        1.16991991991992        1.22509300708771        41.6739692687988   -1.75113454693841E-08            254022.40625          101325.3984375        288.124114990234      0.0999671071767807    0.000586419304538001                       0 
                     -1        1.16741741741742        1.22509300708771        41.6739692687988   -1.75867027991467E-08            254022.40625          101325.3984375        288.124114990234      0.0999671071767807    0.000586419295332113                       0 
                     -1        1.16491491491491        1.22509300708771        41.6739692687988   -1.76620601289092E-08            254022.40625          101325.3984375        288.124114990234      0.0999671071767807    0.000586419286126226                       0 
                     -1        1.16241241241241        1.22509300708771        41.6739692687988   -1.77374174586717E-08            254022.40625          101325.3984375        288.124114990234      0.0999671071767807    0.000586419276920339                       0 
                     -1        1.15990990990991        1.22509300708771        41.6739692687988   -1.78127747884343E-08            254022.40625          101325.3984375        288.124114990234      0.0999671071767807    0.000586419267714451                       0 
                     -1        1.15740740740741        1.22509300708771        41.6739692687988   -1.78881321181968E-08            254022.40625          101325.3984375        288.124114990234      0.0999671071767807    0.000586419258508564                       0 
                     -1         1.1549049049049        1.22509300708771        41.6739692687988   -1.79626082602902E-08            254022.40625          101325.3984375        288.124114990234      0.0999671071767807    0.000586419249593519                       0 
                     -1         1.1524024024024        1.22509300708771        41.6739692687988   -1.80240201055618E-08            254022.40625          101325.3984375        288.124114990234      0.0999671071767807    0.000586419244990436                       0 
                     -1         1.1498998998999        1.22509300708771        41.6739692687988   -1.80854319508334E-08            254022.40625          101325.3984375        288.124114990234      0.0999671071767807    0.000586419240387354                       0 
                     -1         1.1473973973974        1.22509300708771        41.6739692687988   -1.81468437961051E-08            254022.40625          101325.3984375        288.124114990234      0.0999671071767807    0.000586419235784271                       0 
                     -1        1.14489489489489        1.22509300708771        41.6739692687988   -1.82082556413767E-08            254022.40625          101325.3984375        288.124114990234      0.0999671071767807    0.000586419231181189                       0 
                     -1        1.14239239239239        1.22509300708771        41.6739692687988   -1.82696674866483E-08            254022.40625          101325.3984375        288.124114990234      0.0999671071767807    0.000586419226578107                       0 
                     -1        1.13988988988989        1.22509300708771        41.6739692687988     -1.833107933192E-08            254022.40625          101325.3984375        288.124114990234      0.0999671071767807    0.000586419221975024                       0 
                     -1        1.13738738738739        1.22509300708771        41.6739692687988   -1.83924911740017E-08            254022.40625          101325.3984375        288.124114990234      0.0999671071767807    0.000586419217372009                       0 
                     -1        1.13488488488488        1.22509300708771        41.6739692687988   -1.84539030192734E-08            254022.40625          101325.3984375        288.124114990234      0.0999671071767807    0.000586419212768927                       0 
                     -1        1.13238238238238        1.22509300708771        41.6739692687988    -1.8515314864545E-08            254022.40625          101325.3984375        288.124114990234      0.0999671071767807    0.000586419208165845                       0 
                     -1        1.12987987987988        1.22509300708771        41.6739692687988   -1.85767267098166E-08            254022.40625          101325.3984375        288.124114990234      0.0999671071767807    0.000586419203562762                       0 
                     -1        1.12737737737738        1.22509300708771        41.6739692687988   -1.86381385550883E-08            254022.40625          101325.3984375        288.124114990234      0.0999671071767807     0.00058641919895968                       0 
                     -1        1.12487487487487        1.22509300708771        41.6739692687988   -1.86995504003599E-08            254022.40625          101325.3984375        288.124114990234      0.0999671071767807    0.000586419194356597                       0 
                     -1        1.12237237237237        1.22509300708771        41.6739692687988   -1.87544179555229E-08            254022.40625          101325.3984375        288.124114990234      0.0999671071767807    0.000586419188791967                       0 
                     -1        1.11986986986987        1.22509300708771        41.6739692687988   -1.88001669426995E-08            254022.40625          101325.3984375        288.124114990234      0.0999671071767807    0.000586419181887551                       0 
                     -1        1.11736736736737        1.22509300708771        41.6739692687988   -1.88459159298761E-08            254022.40625          101325.3984375        288.124114990234      0.0999671071767807    0.000586419174983136                       0 
                     -1        1.11486486486486        1.22509300708771        41.6739692687988   -1.88916649170527E-08            254022.40625          101325.3984375        288.124114990234      0.0999671071767807     0.00058641916807872                       0 
                     -1        1.11236236236236        1.22509300708771        41.6739692687988   -1.89374139042293E-08            254022.40625          101325.3984375        288.124114990234      0.0999671071767807    0.000586419161174305                       0 
                     -1        1.10985985985986        1.22509300708771        41.6739692687988   -1.89831628914059E-08            254022.40625          101325.3984375        288.124114990234      0.0999671071767807    0.000586419154269889                       0 
                     -1        1.10735735735736        1.22509300708771        41.6739692687988     -1.902891190958E-08            254022.40625          101325.3984375        288.124114990234      0.0999671071767807     0.00058641914736544                       0 
                     -1        1.10485485485485        1.22509300708771        41.6739692687988   -1.90746608967566E-08            254022.40625          101325.3984375        288.124114990234      0.0999671071767807    0.000586419140461024                       0 
                     -1        1.10235235235235        1.22509300708771        41.6739692687988   -1.91204098839332E-08            254022.40625          101325.3984375        288.124114990234      0.0999671071767807    0.000586419133556609                       0 
                     -1        1.09984984984985        1.22509300708771        41.6739692687988   -1.91661588711098E-08            254022.40625          101325.3984375        288.124114990234      0.0999671071767807    0.000586419126652193                       0 
                     -1        1.09734734734735        1.22509300708771        41.6739692687988   -1.92119078582864E-08            254022.40625          101325.3984375        288.124114990234      0.0999671071767807    0.000586419119747778                       0 
                     -1        1.09484484484484        1.22509300708771        41.6739692687988    -1.9257656845463E-08            254022.40625          101325.3984375        288.124114990234      0.0999671071767807    0.000586419112843362                       0 
                     -1        1.09234234234234        1.22509300708771        41.6739692687988   -1.93034058326396E-08            254022.40625          101325.3984375        288.124114990234      0.0999671071767807    0.000586419105938947                       0 
                     -1        1.08983983983984        1.22509300708771        41.6739692687988   -1.93388952203265E-08            254022.40625          101325.3984375        288.124114990234      0.0999671071767807     0.00058641909903435                       0 
                     -1        1.08733733733734        1.22509300708771        41.6739692687988   -1.93713558673199E-08            254022.40625          101325.3984375        288.124114990234      0.0999671071767807    0.000586419092129701                       0 
                     -1        1.08483483483483        1.22509300708771        41.6739692687988   -1.94038165143134E-08            254022.40625          101325.3984375        288.124114990234      0.0999671071767807    0.000586419085225051                       0 
                     -1        1.08233233233233        1.22509300708771        41.6739692687988   -1.94362771613069E-08            254022.40625          101325.3984375        288.124114990234      0.0999671071767807    0.000586419078320401                       0 
                     -1        1.07982982982983        1.22509300708771        41.6739692687988   -1.94687378083004E-08            254022.40625          101325.3984375        288.124114990234      0.0999671071767807    0.000586419071415752                       0 
                     -1        1.07732732732733        1.22509300708771        41.6739692687988   -1.95011984552938E-08            254022.40625          101325.3984375        288.124114990234      0.0999671071767807    0.000586419064511102                       0 
                     -1        1.07482482482482        1.22509300708771        41.6739692687988   -1.95336591602212E-08            254022.40625          101325.3984375        288.124114990234      0.0999671071767807    0.000586419057606486                       0 
                     -1        1.07232232232232        1.22509300708771        41.6739692687988   -1.95661198072147E-08            254022.40625          101325.3984375        288.124114990234      0.0999671071767807    0.000586419050701837                       0 
                     -1        1.06981981981982        1.22509300708771        41.6739692687988   -1.95985804542082E-08            254022.40625          101325.3984375        288.124114990234      0.0999671071767807    0.000586419043797187                       0 
                     -1        1.06731731731732        1.22509300708771        41.6739692687988   -1.96310411012017E-08            254022.40625          101325.3984375        288.124114990234      0.0999671071767807    0.000586419036892537                       0 
                     -1        1.06481481481481        1.22509300708771        41.6739692687988   -1.96635017481951E-08            254022.40625          101325.3984375        288.124114990234      0.0999671071767807    0.000586419029987888                       0 
                     -1        1.06231231231231        1.22509300708771        41.6739692687988   -1.96959623951886E-08            254022.40625          101325.3984375        288.124114990234      0.0999671071767807    0.000586419023083238                       0 
                     -1        1.05980980980981        1.22509300708771        41.6739692687988   -1.97265754849117E-08            254022.40625          101325.3984375        288.124114990234      0.0999671071767807     0.00058641901588689                       0 
                     -1        1.05730730730731        1.22509300708771        41.6739692687988   -1.97444605648122E-08            254022.40625          101325.3984375        288.124114990234      0.0999671071767807    0.000586419006681003                       0 
                     -1         1.0548048048048        1.22509300708771        41.6739692687988   -1.97623456447128E-08            254022.40625          101325.3984375        288.124114990234      0.0999671071767807    0.000586418997475116                       0 
                     -1         1.0523023023023        1.22509300708771        41.6739692687988   -1.97802307246133E-08            254022.40625          101325.3984375        288.124114990234      0.0999671071767807    0.000586418988269228                       0 
                     -1         1.0497997997998        1.22509300708771        41.6739692687988   -1.97981158045139E-08            254022.40625          101325.3984375        288.124114990234      0.0999671071767807    0.000586418979063341                       0 
                     -1         1.0472972972973        1.22509300708771        41.6739692687988   -1.98160008844144E-08            254022.40625          101325.3984375        288.124114990234      0.0999671071767807    0.000586418969857453                       0 
                     -1        1.04479479479479        1.22509300708771        41.6739692687988    -1.9833885964315E-08            254022.40625          101325.3984375        288.124114990234      0.0999671071767807    0.000586418960651566                       0 
                     -1        1.04229229229229        1.22509300708771        41.6739692687988    -1.9851771121265E-08            254022.40625          101325.3984375        288.124114990234      0.0999671071767807    0.000586418951445679                       0 
                     -1        1.03978978978979        1.22509300708771        41.6739692687988   -1.98696562011656E-08            254022.40625          101325.3984375        288.124114990234      0.0999671071767807    0.000586418942239791                       0 
                     -1        1.03728728728729        1.22509300708771        41.6739692687988   -1.98875412810661E-08            254022.40625          101325.3984375        288.124114990234      0.0999671071767807    0.000586418933033904                       0 
                     -1        1.03478478478478        1.22509300708771        41.6739692687988   -1.99054263609667E-08            254022.40625          101325.3984375        288.124114990234      0.0999671071767807    0.000586418923828016                       0 
                     -1        1.03228228228228        1.22509300708771        41.6739692687988   -1.99233114408672E-08            254022.40625          101325.3984375        288.124114990234      0.0999671071767807    0.000586418914622129                       0 
                     -1        1.02977977977978        1.22509300708771        41.6739692687988   -1.99411965207678E-08            254022.40625          101325.3984375        288.124114990234      0.0999671071767807    0.000586418905416242                       0 
                     -1        1.02727727727728        1.22509300708771        41.6739692687988   -1.99528765732068E-08            254022.40625          101325.3984375        288.124114990234      0.0999671071767807    0.000586418896210296                       0 
                     -1        1.02477477477477        1.22509300708771        41.6739692687988   -1.99578616629106E-08            254022.40625          101325.3984375        288.124114990234      0.0999671071767807    0.000586418887004287                       0 
                     -1        1.02227227227227        1.22509300708771        41.6739692687988   -1.99628467526144E-08            254022.40625          101325.3984375        288.124114990234      0.0999671071767807    0.000586418877798278                       0 
                     -1        1.01976976976977        1.22509300708771        41.6739692687988   -1.99678318423182E-08            254022.40625          101325.3984375        288.124114990234      0.0999671071767807     0.00058641886859227                       0 
                     -1        1.01726726726727        1.22509300708771        41.6739692687988    -1.9972816932022E-08            254022.40625          101325.3984375        288.124114990234      0.0999671071767807    0.000586418859386261                       0 
                     -1        1.01476476476476        1.22509300708771        41.6739692687988   -1.99778020217258E-08            254022.40625          101325.3984375        288.124114990234      0.0999671071767807    0.000586418850180252                       0 
                     -1        1.01226226226226        1.22509300708771        41.6739692687988   -1.99827872007977E-08            254022.40625          101325.3984375        288.124114990234      0.0999671071767807    0.000586418840974243                       0 
                     -1        1.00975975975976        1.22509300708771        41.6739692687988   -1.99877722905015E-08            254022.40625          101325.3984375        288.124114990234      0.0999671071767807    0.000586418831768235                       0 
                     -1        1.00725725725726        1.22509300708771        41.6739692687988   -1.99927573802053E-08            254022.40625          101325.3984375        288.124114990234      0.0999671071767807    0.000586418822562226                       0 
                     -1        1.00475475475475        1.22509300708771        41.6739692687988   -1.99977424699091E-08            254022.40625          101325.3984375        288.124114990234      0.0999671071767807    0.000586418813356217                       0 
                     -1        1.00225225225225        1.22509300708771        41.6739692687988   -2.00027275596129E-08            254022.40625          101325.3984375        288.124114990234      0.0999671071767807    0.000586418804150208                       0 
                     -1        0.99974974974975        1.22509300708771        41.6739692687988   -2.00077126493167E-08            254022.40625          101325.3984375        288.124114990234      0.0999671071767807      0.0005864187949442                       0 
                     -1       0.997247247247247        1.22509300708771        41.6739692687988   -2.00126977390205E-08            254022.40625          101325.3984375        288.124114990234      0.0999671071767807    0.000586418785738191                       0 
                     -1       0.994744744744745        1.22509300708771        41.6739692687988   -2.00071161147557E-08            254022.40625          101325.3984375        288.124114990234      0.0999671071767807    0.000586418778454915                       0 
                     -1       0.992242242242242        1.22509300708771        41.6739692687988   -1.99994529717697E-08            254022.40625          101325.3984375        288.124114990234      0.0999671071767807    0.000586418771550396                       0 
                     -1        0.98973973973974        1.22509300708771        41.6739692687988   -1.99917898287838E-08            254022.40625          101325.3984375        288.124114990234      0.0999671071767807    0.000586418764645876                       0 
                     -1       0.987237237237237        1.22509300708771        41.6739692687988   -1.99841266857979E-08            254022.40625          101325.3984375        288.124114990234      0.0999671071767807    0.000586418757741357                       0 
                     -1       0.984734734734735        1.22509300708771        41.6739692687988   -1.99764635428119E-08            254022.40625          101325.3984375        288.124114990234      0.0999671071767807    0.000586418750836837                       0 
                     -1       0.982232232232232        1.22509300708771        41.6739692687988    -1.9968800399826E-08            254022.40625          101325.3984375        288.124114990234      0.0999671071767807    0.000586418743932317                       0 
                     -1        0.97972972972973        1.22509300708771        41.6739692687988    -1.9961137352269E-08            254022.40625          101325.3984375        288.124114990234      0.0999671071767807    0.000586418737027764                       0 
                     -1       0.977227227227227        1.22509300708771        41.6739692687988   -1.99534742092831E-08            254022.40625          101325.3984375        288.124114990234      0.0999671071767807    0.000586418730123244                       0 
                     -1       0.974724724724725        1.22509300708771        41.6739692687988   -1.99458110662972E-08            254022.40625          101325.3984375        288.124114990234      0.0999671071767807    0.000586418723218725                       0 
                     -1       0.972222222222222        1.22509300708771        41.6739692687988   -1.99381479233112E-08            254022.40625          101325.3984375        288.124114990234      0.0999671071767807    0.000586418716314205                       0 