VARIABLES = "x"
 "y"
 "Density"
 "Momentum_x"
 "Momentum_y"
 "Energy"
 "Pressure"
 "Temperature"
 "Mach"
 "C<sub>p</sub>"
 "Roe_Dissipation"
ZONE
DT=(DOUBLE,DOUBLE,DOUBLE,DOUBLE,DOUBLE,DOUBLE,DOUBLE,DOUBLE,DOUBLE,DOUBLE,DOUBLE)
                     -2                    -0.6        1.22509300708771        41.6739692687988    2.91235528026812E-12            254022.40625          101325.3984375        288.124114990234      0.0999671071767807    0.000586403300985694                       0 
      -1.99749874937469                    -0.6        1.22509300708771        41.6739692687988    2.50433060653995E-11            254022.40625          101325.3984375        288.124114990234      0.0999671071767807    0.000586403352088471                       0 
      -1.99499749874937                    -0.6        1.22509300708771        41.6739692687988    4.71742568505329E-11            254022.40625          101325.3984375        288.124114990234      0.0999671071767807    0.000586403403191248                       0 
      -1.99249624812406                    -0.6        1.22509300708771        41.6739692687988    6.93052076356644E-11            254022.40625          101325.3984375        288.124114990234      0.0999671071767807    0.000586403454294025                       0 
      -1.98999499749875                    -0.6        1.22509300708771        41.6739692687988    9.14361584207958E-11            254022.40625          101325.3984375        288.124114990234      0.0999671071767807    0.000586403505396802                       0 
      -1.98749374687344                    -0.6        1.22509300708771        41.6739692687988    1.13567109205927E-10            254022.40625          101325.3984375        288.124114990234      0.0999671071767807    0.000586403556499578                       0 
      -1.98499249624812                    -0.6        1.22509300708771        41.6739692687988    1.35698059991061E-10            254022.40625          101325.3984375        288.124114990234      0.0999671071767807    0.000586403607602355                       0 
      -1.98249124562281                    -0.6        1.22509300708771        41.6739692687988    1.57829010776192E-10            254022.40625          101325.3984375        288.124114990234      0.0999671071767807    0.000586403658705132                       0 
       -1.9799899949975                    -0.6        1.22509300708771        41.6739692687988    1.79959961561323E-10            254022.40625          101325.3984375        288.124114990234      0.0999671071767807    0.000586403709807909                       0 
      -1.97748874437219                    -0.6        1.22509300708771        41.6739692687988    2.02090912346457E-10            254022.40625          101325.3984375        288.124114990234      0.0999671071767807    0.000586403760910686                       0 
      -1.97498749374687                    -0.6        1.22509300708771        41.6739692687988    2.24320567432333E-10            254022.40625          101325.3984375        288.124114990234      0.0999671071767807    0.000586403810398566                       0 
      -1.97248624312156                    -0.6        1.22509300708771        41.6739692687988     2.4662504373399E-10            254022.40625          101325.3984375        288.124114990234      0.0999671071767807      0.0005864038586623                       0 
      -1.96998499249625                    -0.6        1.22509300708771        41.6739692687988    2.68768380786771E-10            254022.40625          101325.3984375        288.124114990234      0.0999671071767807    0.000586403909562426                       0 
      -1.96748374187094                    -0.6        1.22509300708771        41.6739692687988    2.90899331571903E-10            254022.40625          101325.3984375        288.124114990234      0.0999671071767807    0.000586403960665202                       0 
      -1.96498249124562                    -0.6        1.22509300708771        41.6739692687988    3.13030282357034E-10            254022.40625          101325.3984375        288.124114990234      0.0999671071767807    0.000586404011767979                       0 
      -1.96248124062031                    -0.6        1.22509300708771        41.6739692687988    3.35161233142166E-10            254022.40625          101325.3984375        288.124114990234      0.0999671071767807    0.000586404062870756                       0 
        -1.959979989995                    -0.6        1.22509300708771        41.6739692687988    3.57292183927299E-10            254022.40625          101325.3984375        288.124114990234      0.0999671071767807    0.000586404113973533                       0 
      -1.95747873936968                    -0.6        1.22509300708771        41.6739692687988     3.7942313471243E-10            254022.40625          101325.3984375        288.124114990234      0.0999671071767807     0.00058640416507631                       0 
      -1.95497748874437                    -0.6        1.22509300708771        41.6739692687988    4.01554085497562E-10            254022.40625          101325.3984375        288.124114990234      0.0999671071767807    0.000586404216179087                       0 
      -1.95247623811906                    -0.6        1.22509300708771        41.6739692687988    4.23685036282695E-10            254022.40625          101325.3984375        288.124114990234      0.0999671071767807    0.000586404267281864                       0 
      -1.94997498749375                    -0.6        1.22509300708771        41.6739692687988    4.45815987067827E-10            254022.40625          101325.3984375        288.124114990234      0.0999671071767807    0.000586404318384641                       0 
      -1.94747373686843                    -0.6        1.22509300708771        41.6739692687988    4.68213585732199E-10            254022.40625          101325.3984375        288.124114990234      0.0999671071767807    0.000586404363838482                       0 
      -1.94497248624312                    -0.6        1.22509300708771        41.6739692687988    4.90880579906129E-10            254022.40625          101325.3984375        288.124114990234      0.0999671071767807    0.000586404403585178                       0 
      -1.94247123561781                    -0.6        1.22509300708771        41.6739692687988    5.13547574080056E-10            254022.40625          101325.3984375        288.124114990234      0.0999671071767807    0.000586404443331875                       0 
       -1.9399699849925                    -0.6        1.22509300708771        41.6739692687988    5.36214568253984E-10            254022.40625          101325.3984375        288.124114990234      0.0999671071767807    0.000586404483078572                       0 
      -1.93746873436718                    -0.6        1.22509300708771        41.6739692687988    5.58881562427911E-10            254022.40625          101325.3984375        288.124114990234      0.0999671071767807    0.000586404522825268                       0 
      -1.93496748374187                    -0.6        1.22509300708771        41.6739692687988    5.81548556601841E-10            254022.40625          101325.3984375        288.124114990234      0.0999671071767807    0.000586404562571965                       0 
      -1.93246623311656                    -0.6        1.22509300708771        41.6739692687988    6.04215550775768E-10            254022.40625          101325.3984375        288.124114990234      0.0999671071767807    0.000586404602318662                       0 
      -1.92996498249125                    -0.6        1.22509300708771        41.6739692687988    6.26882544949696E-10            254022.40625          101325.3984375        288.124114990234      0.0999671071767807    0.000586404642065358                       0 
      -1.92746373186593                    -0.6        1.22509300708771        41.6739692687988    6.49549539123625E-10            254022.40625          101325.3984375        288.124114990234      0.0999671071767807    0.000586404681812055                       0 
      -1.92496248124062                    -0.6        1.22509300708771        41.6739692687988    6.72228401063829E-10            254022.40625          101325.3984375        288.124114990234      0.0999671071767807    0.000586404721558751                       0 
      -1.92246123061531                    -0.6        1.22509300708771        41.6739692687988     6.9507446036505E-10            254022.40625          101325.3984375        288.124114990234      0.0999671071767807    0.000586404761305448                       0 
      -1.91995997998999                    -0.6        1.22509300708771        41.6739692687988    7.17844223102259E-10            254022.40625          101325.3984375        288.124114990234      0.0999671071767807    0.000586404801052145                       0 
      -1.91745872936468                    -0.6        1.22509300708771        41.6739692687988    7.40511217276187E-10            254022.40625          101325.3984375        288.124114990234      0.0999671071767807    0.000586404840798841                       0 
      -1.91495747873937                    -0.6        1.22509300708771        41.6739692687988    7.63178211450114E-10            254022.40625          101325.3984375        288.124114990234      0.0999671071767807    0.000586404880545538                       0 
      -1.91245622811406                    -0.6        1.22509300708771        41.6739692687988    7.85845205624042E-10            254022.40625          101325.3984375        288.124114990234      0.0999671071767807    0.000586404920292235                       0 
      -1.90995497748874                    -0.6        1.22509300708771        41.6739692687988    8.08512199797971E-10            254022.40625          101325.3984375        288.124114990234      0.0999671071767807    0.000586404960038931                       0 
      -1.90745372686343                    -0.6        1.22509300708771        41.6739692687988    8.31179193971899E-10            254022.40625          101325.3984375        288.124114990234      0.0999671071767807    0.000586404999785628                       0 
      -1.90495247623812                    -0.6        1.22509300708771        41.6739692687988    8.53846188145826E-10            254022.40625          101325.3984375        288.124114990234      0.0999671071767807    0.000586405039532325                       0 
      -1.90245122561281                    -0.6        1.22509300708771        41.6739692687988    8.76513182319756E-10            254022.40625          101325.3984375        288.124114990234      0.0999671071767807    0.000586405079279021                       0 
      -1.89994997498749                    -0.6        1.22509300708771        41.6739692687988    8.99180176493683E-10            254022.40625          101325.3984375        288.124114990234      0.0999671071767807    0.000586405119025718                       0 
      -1.89744872436218                    -0.6        1.22509300708771        41.6739692687988    9.21847170667611E-10            254022.40625          101325.3984375        288.124114990234      0.0999671071767807    0.000586405158772415                       0 
      -1.89494747373687                    -0.6        1.22509300708771        41.6739692687988    9.45148242855727E-10            254022.40625          101325.3984375        288.124114990234      0.0999671071767807    0.000586405198519019                       0 
      -1.89244622311156                    -0.6        1.22509300708771        41.6739692687988    9.68452551390634E-10            254022.40625          101325.3984375        288.124114990234      0.0999671071767807    0.000586405238265624                       0 
      -1.88994497248624                    -0.6        1.22509300708771        41.6739692687988    9.91756859925543E-10            254022.40625          101325.3984375        288.124114990234      0.0999671071767807    0.000586405278012228                       0 
      -1.88744372186093                    -0.6        1.22509300708771        41.6739692687988    1.01506116846045E-09            254022.40625          101325.3984375        288.124114990234      0.0999671071767807    0.000586405317758832                       0 
      -1.88494247123562                    -0.6        1.22509300708771        41.6739692687988    1.03836547699536E-09            254022.40625          101325.3984375        288.124114990234      0.0999671071767807    0.000586405357505436                       0 
      -1.88244122061031                    -0.6        1.22509300708771        41.6739692687988    1.06166978553027E-09            254022.40625          101325.3984375        288.124114990234      0.0999671071767807     0.00058640539725204                       0 
      -1.87993996998499                    -0.6        1.22509300708771        41.6739692687988    1.08497409406518E-09            254022.40625          101325.3984375        288.124114990234      0.0999671071767807    0.000586405436998645                       0 
      -1.87743871935968                    -0.6        1.22509300708771        41.6739692687988    1.10827840260009E-09            254022.40625          101325.3984375        288.124114990234      0.0999671071767807    0.000586405476745249                       0 
      -1.87493746873437                    -0.6        1.22509300708771        41.6739692687988      1.131582711135E-09            254022.40625          101325.3984375        288.124114990234      0.0999671071767807    0.000586405516491853                       0 
      -1.87243621810905                    -0.6        1.22509300708771        41.6739692687988    1.15498962534191E-09            254022.40625          101325.3984375        288.124114990234      0.0999671071767807    0.000586405557838937                       0 
      -1.86993496748374                    -0.6        1.22509300708771        41.6739692687988    1.17847594301863E-09            254022.40625          101325.3984375        288.124114990234      0.0999671071767807    0.000586405600424584                       0 
      -1.86743371685843                    -0.6        1.22509300708771        41.6739692687988    1.20179416764399E-09            254022.40625          101325.3984375        288.124114990234      0.0999671071767807    0.000586405640388257                       0 
      -1.86493246623312                    -0.6        1.22509300708771        41.6739692687988     1.2250984761789E-09            254022.40625          101325.3984375        288.124114990234      0.0999671071767807    0.000586405680134861                       0 
       -1.8624312156078                    -0.6        1.22509300708771        41.6739692687988     1.2484027847138E-09            254022.40625          101325.3984375        288.124114990234      0.0999671071767807    0.000586405719881465                       0 
      -1.85992996498249                    -0.6        1.22509300708771        41.6739692687988    1.27170709324871E-09            254022.40625          101325.3984375        288.124114990234      0.0999671071767807     0.00058640575962807                       0 
      -1.85742871435718                    -0.6        1.22509300708771        41.6739692687988    1.29501140178362E-09            254022.40625          101325.3984375        288.124114990234      0.0999671071767807    0.000586405799374674                       0 
      -1.85492746373187                    -0.6        1.22509300708771        41.6739692687988    1.31831571031853E-09            254022.40625          101325.3984375        288.124114990234      0.0999671071767807    0.000586405839121278                       0 
      -1.85242621310655                    -0.6        1.22509300708771        41.6739692687988    1.34162001885344E-09            254022.40625          101325.3984375        288.124114990234      0.0999671071767807    0.000586405878867882                       0 
      -1.84992496248124                    -0.6        1.22509300708771        41.6739692687988    1.36492432738835E-09            254022.40625          101325.3984375        288.124114990234      0.0999671071767807    0.000586405918614486                       0 
      -1.84742371185593                    -0.6        1.22509300708771        41.6739692687988    1.38822863592326E-09            254022.40625          101325.3984375        288.124114990234      0.0999671071767807    0.000586405958361091                       0 
      -1.84492246123062                    -0.6        1.22509300708771        41.6739692687988    1.41206102462559E-09            254022.40625          101325.3984375        288.124114990234      0.0999671071767807    0.000586406000903404                       0 
       -1.8424212106053                    -0.6        1.22509300708771        41.6739692687988    1.43643788418072E-09            254022.40625          101325.3984375        288.124114990234      0.0999671071767807      0.0005864060463282                       0 
      -1.83991995997999                    -0.6        1.22509300708771        41.6739692687988    1.46081474373586E-09            254022.40625          101325.3984375        288.124114990234      0.0999671071767807    0.000586406091752996                       0 
      -1.83741870935468                    -0.6        1.22509300708771        41.6739692687988    1.48519160329099E-09            254022.40625          101325.3984375        288.124114990234      0.0999671071767807    0.000586406137177792                       0 
      -1.83491745872936                    -0.6        1.22509300708771        41.6739692687988    1.50956846284613E-09            254022.40625          101325.3984375        288.124114990234      0.0999671071767807    0.000586406182602589                       0 
      -1.83241620810405                    -0.6        1.22509300708771        41.6739692687988    1.53394532240126E-09            254022.40625          101325.3984375        288.124114990234      0.0999671071767807    0.000586406228027385                       0 
      -1.82991495747874                    -0.6        1.22509300708771        41.6739692687988     1.5583221819564E-09            254022.40625          101325.3984375        288.124114990234      0.0999671071767807    0.000586406273452181                       0 
      -1.82741370685343                    -0.6        1.22509300708771        41.6739692687988    1.58269904151153E-09            254022.40625          101325.3984375        288.124114990234      0.0999671071767807    0.000586406318876977                       0 
      -1.82491245622811                    -0.6        1.22509300708771        41.6739692687988    1.60707590106667E-09            254022.40625          101325.3984375        288.124114990234      0.0999671071767807    0.000586406364301773                       0 
       -1.8224112056028                    -0.6        1.22509300708771        41.6739692687988    1.63146464647647E-09            254022.40625          101325.3984375        288.124114990234      0.0999671071767807    0.000586406409726569                       0 
      -1.81990995497749                    -0.6        1.22509300708771        41.6739692687988    1.65603572519781E-09            254022.40625          101325.3984375        288.124114990234      0.0999671071767807    0.000586406455151366                       0 
      -1.81740870435218                    -0.6        1.22509300708771        41.6739692687988    1.68052503674496E-09            254022.40625          101325.3984375        288.124114990234      0.0999671071767807    0.000586406500576162                       0 
      -1.81490745372686                    -0.6        1.22509300708771        41.6739692687988    1.70490189630009E-09            254022.40625          101325.3984375        288.124114990234      0.0999671071767807    0.000586406546000958                       0 
      -1.81240620310155                    -0.6        1.22509300708771        41.6739692687988    1.72927875585523E-09            254022.40625          101325.3984375        288.124114990234      0.0999671071767807    0.000586406591425754                       0 
      -1.80990495247624                    -0.6        1.22509300708771        41.6739692687988    1.75365561541036E-09            254022.40625          101325.3984375        288.124114990234      0.0999671071767807     0.00058640663685055                       0 
      -1.80740370185093                    -0.6        1.22509300708771        41.6739692687988     1.7780324749655E-09            254022.40625          101325.3984375        288.124114990234      0.0999671071767807    0.000586406682275346                       0 
      -1.80490245122561                    -0.6        1.22509300708771        41.6739692687988    1.80240933452063E-09            254022.40625          101325.3984375        288.124114990234      0.0999671071767807    0.000586406727700143                       0 
       -1.8024012006003                    -0.6        1.22509300708771        41.6739692687988    1.82678619407577E-09            254022.40625          101325.3984375        288.124114990234      0.0999671071767807    0.000586406773124939                       0 
      -1.79989994997499                    -0.6        1.22509300708771        41.6739692687988     1.8511630536309E-09            254022.40625          101325.3984375        288.124114990234      0.0999671071767807    0.000586406818549735                       0 
      -1.79739869934967                    -0.6        1.22509300708771        41.6739692687988    1.87553991318604E-09            254022.40625          101325.3984375        288.124114990234      0.0999671071767807    0.000586406863974531                       0 
      -1.79489744872436                    -0.6        1.22509300708771        41.6739692687988    1.89991677274117E-09            254022.40625          101325.3984375        288.124114990234      0.0999671071767807    0.000586406909399327                       0 
      -1.79239619809905                    -0.6        1.22509300708771        41.6739692687988    1.92567834749248E-09            254022.40625          101325.3984375        288.124114990234      0.0999671071767807    0.000586406950608705                       0 
      -1.78989494747374                    -0.6        1.22509300708771        41.6739692687988     1.9514541299882E-09            254022.40625          101325.3984375        288.124114990234      0.0999671071767807    0.000586406991774831                       0 
      -1.78739369684842                    -0.6        1.22509300708771        41.6739692687988    1.97722991248392E-09            254022.40625          101325.3984375        288.124114990234      0.0999671071767807    0.000586407032940957                       0 
      -1.78489244622311                    -0.6        1.22509300708771        41.6739692687988    2.00300569497963E-09            254022.40625          101325.3984375        288.124114990234      0.0999671071767807    0.000586407074107082                       0 
       -1.7823911955978                    -0.6        1.22509300708771        41.6739692687988    2.02878147747535E-09            254022.40625          101325.3984375        288.124114990234      0.0999671071767807    0.000586407115273208                       0 
      -1.77988994497249                    -0.6        1.22509300708771        41.6739692687988    2.05455725997107E-09            254022.40625          101325.3984375        288.124114990234      0.0999671071767807    0.000586407156439334                       0 
      -1.77738869434717                    -0.6        1.22509300708771        41.6739692687988    2.08033304246678E-09            254022.40625          101325.3984375        288.124114990234      0.0999671071767807     0.00058640719760546                       0 
      -1.77488744372186                    -0.6        1.22509300708771        41.6739692687988     2.1061088249625E-09            254022.40625          101325.3984375        288.124114990234      0.0999671071767807    0.000586407238771586                       0 
      -1.77238619309655                    -0.6        1.22509300708771        41.6739692687988    2.13188460745822E-09            254022.40625          101325.3984375        288.124114990234      0.0999671071767807    0.000586407279937712                       0 
      -1.76988494247124                    -0.6        1.22509300708771        41.6739692687988    2.15777847159272E-09            254022.40625          101325.3984375        288.124114990234      0.0999671071767807    0.000586407320310806                       0 
      -1.76738369184592                    -0.6        1.22509300708771        41.6739692687988    2.18376561954344E-09            254022.40625          101325.3984375        288.124114990234      0.0999671071767807     0.00058640736005741                       0 
      -1.76488244122061                    -0.6        1.22509300708771        41.6739692687988    2.20955863599549E-09            254022.40625          101325.3984375        288.124114990234      0.0999671071767807    0.000586407401107794                       0 
       -1.7623811905953                    -0.6        1.22509300708771        41.6739692687988     2.2353344184912E-09            254022.40625          101325.3984375        288.124114990234      0.0999671071767807    0.000586407442273919                       0 
      -1.75987993996998                    -0.6        1.22509300708771        41.6739692687988    2.26111020098692E-09            254022.40625          101325.3984375        288.124114990234      0.0999671071767807    0.000586407483440045                       0 
      -1.75737868934467                    -0.6        1.22509300708771        41.6739692687988    2.28688598348264E-09            254022.40625          101325.3984375        288.124114990234      0.0999671071767807    0.000586407524606171                       0 
      -1.75487743871936                    -0.6        1.22509300708771        41.6739692687988    2.31266176597835E-09            254022.40625          101325.3984375        288.124114990234      0.0999671071767807    0.000586407565772297                       0 
      -1.75237618809405                    -0.6        1.22509300708771        41.6739692687988    2.33843754847407E-09            254022.40625          101325.3984375        288.124114990234      0.0999671071767807    0.000586407606938423                       0 
      -1.74987493746873                    -0.6        1.22509300708771        41.6739692687988    2.36421333096979E-09            254022.40625          101325.3984375        288.124114990234      0.0999671071767807    0.000586407648104548                       0 
      -1.74737368684342                    -0.6        1.22509300708771        41.6739692687988    2.38998911346551E-09            254022.40625          101325.3984375        288.124114990234      0.0999671071767807    0.000586407689270674                       0 
      -1.74487243621811                    -0.6        1.22509300708771        41.6739692687988    2.41576489596122E-09            254022.40625          101325.3984375        288.124114990234      0.0999671071767807      0.0005864077304368                       0 
       -1.7423711855928                    -0.6        1.22509300708771        41.6739692687988     2.4424515397942E-09            254022.40625          101325.3984375        288.124114990234      0.0999671071767807    0.000586407771602926                       0 
      -1.73986993496748                    -0.6        1.22509300708771        41.6739692687988    2.47009659585505E-09            254022.40625          101325.3984375        288.124114990234      0.0999671071767807    0.000586407812769052                       0 
      -1.73736868434217                    -0.6        1.22509300708771        41.6739692687988     2.4977416519159E-09            254022.40625          101325.3984375        288.124114990234      0.0999671071767807    0.000586407853935178                       0 
      -1.73486743371686                    -0.6        1.22509300708771        41.6739692687988    2.52538670797676E-09            254022.40625          101325.3984375        288.124114990234      0.0999671071767807    0.000586407895101303                       0 
      -1.73236618309155                    -0.6        1.22509300708771        41.6739692687988    2.55303176403761E-09            254022.40625          101325.3984375        288.124114990234      0.0999671071767807    0.000586407936267429                       0 
      -1.72986493246623                    -0.6        1.22509300708771        41.6739692687988    2.58067682009846E-09            254022.40625          101325.3984375        288.124114990234      0.0999671071767807    0.000586407977433555                       0 
      -1.72736368184092                    -0.6        1.22509300708771        41.6739692687988    2.60832187615931E-09            254022.40625          101325.3984375        288.124114990234      0.0999671071767807    0.000586408018599681                       0 
      -1.72486243121561                    -0.6        1.22509300708771        41.6739692687988    2.63596693222016E-09            254022.40625          101325.3984375        288.124114990234      0.0999671071767807    0.000586408059765807                       0 
       -1.7223611805903                    -0.6        1.22509300708771        41.6739692687988    2.66361198828101E-09            254022.40625          101325.3984375        288.124114990234      0.0999671071767807    0.000586408100931932                       0 